FOO
135168
    1MOL0     O    1   6.051   5.701   5.150 -0.3509  0.3111 -0.2853
    1MOL0     C    2   6.057   5.775   5.055 -0.7958 -0.7476  0.0225
    1MOL0     O    3   5.967   5.773   4.959  0.5457  0.0093  0.3037
    1MOL0     C    4   5.888   5.659   4.946 -0.3211 -0.6960 -0.6904
    1MOL0     C    5   5.749   5.680   4.940  0.7901 -0.5549 -1.3011
    1MOL0     C    6   5.663   5.576   4.938  0.6167  0.3857 -0.1721
    1MOL0     C    7   5.709   5.442   4.929  0.4439 -0.5370 -0.2541
    1MOL0     O    8   5.632   5.329   4.917 -0.3857 -0.4204  0.9127
    1MOL0     C    9   5.500   5.354   4.852 -1.1261 -0.3621 -0.7743
    1MOL0     C   10   5.394   5.362   4.963  0.1870  0.9239  0.1941
    1MOL0     C   11   5.256   5.317   4.921  0.3063  0.0613 -0.4117
    1MOL0     C   12   5.164   5.337   5.043  0.9105  0.8070 -0.2022
    1MOL0     C   13   5.019   5.313   4.999 -0.6794  0.9287  0.3669
    1MOL0     C   14   4.964   5.432   4.929 -0.7252  0.6949 -0.5403
    1MOL0     C   15   4.848   5.386   4.846 -0.3472  1.1201 -0.4584
    1MOL0     C   16   4.737   5.496   4.857 -0.8023  0.3884 -0.4456
    1MOL0     N   17   4.620   5.444   4.784  0.2508 -0.8600 -0.1237
    1MOL0     C   18   4.633   5.377   4.667  0.0689 -0.2403 -0.1585
    1MOL0     C   19   4.522   5.309   4.648 -0.0119  0.6259 -0.5220
    1MOL0     C   20   4.509   5.209   4.541 -0.4134  0.2973 -0.0304
    1MOL0     C   21   4.388   5.246   4.450 -0.5594  0.0277 -0.3861
    1MOL0     C   22   4.369   5.162   4.322 -0.3960 -0.9918 -0.1769
    1MOL0     C   23   4.238   5.202   4.260 -0.1211 -1.9367  0.8778
    1MOL0     O   24   4.207   5.112   4.151  0.0323  0.5328 -0.1680
    1MOL0     C   25   4.095   5.112   4.084  0.9506 -1.2003  0.2161
    1MOL0     C   26   4.067   4.997   4.026  0.3578  0.2980  0.7003
    1MOL0     C   27   3.943   4.968   3.967 -0.1737 -0.6046  1.1050
    1MOL0     C   28   3.849   5.074   3.957 -0.1505 -0.1160  0.1780
    1MOL0     C   29   3.718   5.053   3.897 -0.1004  0.0188  0.1104
    1MOL0     O   30   3.626   5.144   3.931 -0.3396 -0.3659 -0.0085
    1MOL0     C   31   3.504   5.122   3.885  0.8980  0.9993  0.4554
    1MOL0     C   32   3.409   5.074   3.981  0.2104 -0.1082  0.7863
    1MOL0     C   33   3.270   5.060   3.941 -0.3953  0.0849 -0.2673
    1MOL0     C   34   3.231   5.104   3.808  0.0577  0.1156 -0.5250
    1MOL0     O   35   3.105   5.094   3.778 -0.1876  0.0068  0.0273
    1MOL0     C   36   3.063   5.163   3.662  0.3574  0.3578  0.4191
    1MOL0     C   37   2.903   5.173   3.666  0.0546 -0.3487  0.3931
    1MOL0     C   38   2.843   5.233   3.536  1.0081  0.1026  0.1660
    1MOL0     C   39   2.693   5.246   3.541  0.7234 -0.5851  0.5476
    1MOL0     C   40   2.638   5.356   3.626  0.4878 -0.0678 -0.0618
    1MOL0     C   41   2.489   5.358   3.621 -0.2938 -0.1189  0.6955
    1MOL0     C   42   2.410   5.222   3.623  0.4570 -0.4749  0.0938
    1MOL0     C   43   2.436   5.144   3.744  0.2455  0.0672 -0.1979
    1MOL0    Cl   44   2.385   5.228   3.906  0.3306  0.4663 -0.0368
    1MOL0     C   45   3.325   5.158   3.719  0.0982  0.4000  0.0459
    1MOL0     C   46   3.461   5.161   3.756  1.1189 -0.2593 -0.6497
    1MOL0     O   47   3.709   4.953   3.832 -0.2241  0.5817  0.0150
    1MOL0     C   48   3.885   5.197   4.010 -0.1056  0.0654  1.7005
    1MOL0     C   49   4.005   5.214   4.071  0.1747 -0.2250 -0.8180
    1MOL0     N   50   4.432   5.343   4.752  0.4386 -0.2041 -0.4351
    1MOL0     N   51   4.488   5.426   4.833  0.0590  0.2538 -0.0936
    1MOL0     C   52   5.850   5.424   4.921  0.5409  0.9469 -0.3209
    1MOL0     C   53   5.941   5.530   4.944  0.4995  0.5531 -0.2304
    1MOL0     C   54   6.157   5.881   5.055 -0.1204  0.2138 -0.2157
    1MOL0     C   55   6.172   5.967   4.944 -0.4454  0.4849 -0.7808
    1MOL0     C   56   6.266   6.066   4.952  0.3087  0.1852 -0.7175
    1MOL0     C   57   6.347   6.074   5.058 -0.1529  0.6442  0.5580
    1MOL0     O   58   6.436   6.178   5.063 -1.0327  0.6801  0.1351
    1MOL0     C   59   6.538   6.189   5.164  0.4665 -0.1336  0.0314
    1MOL0     C   60   6.660   6.266   5.113  0.5754 -0.5405  0.4067
    1MOL0     C   61   6.626   6.385   5.017 -0.2767 -1.0210 -0.0913
    1MOL0     C   62   6.747   6.473   5.025 -0.5460 -0.1405 -0.8538
    1MOL0     C   63   6.724   6.594   4.942  0.6238 -0.4485 -0.0605
    1MOL0     C   64   6.694   6.704   4.899 -0.0009  0.6512  0.5982
    1MOL0     C   65   6.333   5.982   5.167 -0.0893  0.0861  0.3021
    1MOL0     C   66   6.240   5.889   5.164  0.1706  0.5599 -0.2454
    1MOL0     H   67   5.709   5.781   4.948 -0.7524 -1.0297 -2.5535
    1MOL0     H   68   5.556   5.590   4.950  0.9327  2.0083  1.1993
    1MOL0     H   69   5.472   5.263   4.799 -2.0689 -1.6467  1.7580
    1MOL0     H   70   5.509   5.442   4.787  3.3176  0.2434  0.2851
    1MOL0     H   71   5.381   5.463   5.003 -1.5068  1.1556 -0.8441
    1MOL0     H   72   5.428   5.295   5.043 -0.3443 -1.6401 -1.6110
    1MOL0     H   73   5.257   5.214   4.886  0.6999  0.9243 -3.2482
    1MOL0     H   74   5.236   5.358   4.821  0.2034 -1.6173 -1.1000
    1MOL0     H   75   5.187   5.265   5.122 -2.1592  2.4352  2.3934
    1MOL0     H   76   5.182   5.435   5.089 -1.1050  2.0642 -1.9287
    1MOL0     H   77   4.952   5.314   5.086 -0.0848  4.6408  0.9769
    1MOL0     H   78   5.011   5.220   4.943 -1.3430  1.5504 -0.6112
    1MOL0     H   79   5.038   5.483   4.866  3.1319  0.7596  3.4954
    1MOL0     H   80   4.941   5.504   5.009  3.5506  0.2107  1.4428
    1MOL0     H   81   4.872   5.369   4.741 -0.2664 -0.6987 -0.1799
    1MOL0     H   82   4.809   5.291   4.883 -0.9627  1.8160  0.7708
    1MOL0     H   83   4.759   5.600   4.832  1.9515  0.3193  1.3211
    1MOL0     H   84   4.714   5.505   4.964 -1.4818  3.6747 -0.7497
    1MOL0     H   85   4.714   5.374   4.594  1.9581 -2.5187  1.8749
    1MOL0     H   86   4.489   5.113   4.588 -0.1621  0.0298 -0.4660
    1MOL0     H   87   4.600   5.200   4.480 -0.4336  3.0287 -0.6173
    1MOL0     H   88   4.398   5.350   4.416  1.4539  0.7121  1.9852
    1MOL0     H   89   4.293   5.234   4.501  0.0246 -1.7441  0.3740
    1MOL0     H   90   4.447   5.173   4.246 -1.6257 -0.7585 -1.4674
    1MOL0     H   91   4.367   5.056   4.347 -1.2394 -0.3373  2.9734
    1MOL0     H   92   4.237   5.303   4.220 -2.3736 -1.4096  2.0920
    1MOL0     H   93   4.148   5.211   4.322  0.8706  1.9937  1.9878
    1MOL0     H   94   4.151   4.929   4.032  0.9656  1.1322  2.1455
    1MOL0     H   95   3.921   4.867   3.934 -1.3671 -0.1978  0.5932
    1MOL0     H   96   3.444   5.037   4.077  3.9603 -0.0519 -0.3964
    1MOL0     H   97   3.188   5.014   3.996 -1.0195  1.3110 -0.1197
    1MOL0     H   98   3.093   5.114   3.569 -1.2053 -0.2773  0.2148
    1MOL0     H   99   3.096   5.267   3.664  0.1723  0.4300 -0.1860
    1MOL0     H  100   2.862   5.229   3.750 -3.4883 -1.2546 -0.5601
    1MOL0     H  101   2.854   5.075   3.670 -1.2001  0.3161  2.4568
    1MOL0     H  102   2.881   5.180   3.448  1.6860 -0.1996  0.6256
    1MOL0     H  103   2.880   5.336   3.524 -1.2701  0.8128 -1.4977
    1MOL0     H  104   2.667   5.266   3.437  2.0173  2.9458  0.7409
    1MOL0     H  105   2.658   5.147   3.570  1.5045 -0.8824  0.4927
    1MOL0     H  106   2.677   5.456   3.605 -2.6899  2.1273  3.3105
    1MOL0     H  107   2.676   5.327   3.725  1.7134  0.9712 -0.2117
    1MOL0     H  108   2.467   5.407   3.526  0.3945  0.1198  0.6537
    1MOL0     H  109   2.464   5.420   3.708  1.1685 -4.6182  4.7611
    1MOL0     H  110   2.307   5.255   3.605  1.3097  1.5476 -1.4695
    1MOL0     H  111   2.439   5.146   3.550 -1.4460 -3.3535  2.0761
    1MOL0     H  112   2.542   5.120   3.758  0.0129 -0.1780  1.2569
    1MOL0     H  113   2.386   5.047   3.749  0.0580  0.1566 -0.3263
    1MOL0     H  114   3.308   5.184   3.615  0.7489 -2.0082 -0.7330
    1MOL0     H  115   3.546   5.204   3.704  1.8632  1.8545  2.0745
    1MOL0     H  116   3.810   5.276   4.010 -1.3836 -1.0489 -0.5022
    1MOL0     H  117   4.036   5.309   4.113  1.0283 -1.5913  1.8631
    1MOL0     H  118   5.887   5.322   4.912 -2.0153 -0.2148  1.0843
    1MOL0     H  119   6.045   5.505   4.961  0.2098 -2.2936 -2.0147
    1MOL0     H  120   6.099   5.958   4.864 -0.3015  2.2922 -1.1609
    1MOL0     H  121   6.269   6.137   4.871 -0.9591  0.4759 -0.5374
    1MOL0     H  122   6.564   6.084   5.182 -1.9958 -1.0874 -1.3941
    1MOL0     H  123   6.497   6.226   5.258  3.2440  0.2432  1.1743
    1MOL0     H  124   6.708   6.300   5.206  1.3286 -1.6830  0.4585
    1MOL0     H  125   6.738   6.208   5.062  3.6595  4.3784 -1.1759
    1MOL0     H  126   6.538   6.434   5.060  0.1752  0.6532 -0.9874
    1MOL0     H  127   6.616   6.350   4.913 -0.5930  1.0189 -0.7960
    1MOL0     H  128   6.771   6.504   5.127 -0.3917 -2.2342 -0.2176
    1MOL0     H  129   6.831   6.418   4.982 -0.6203 -0.3963 -0.6719
    1MOL0     H  130   6.659   6.798   4.861 -0.4615 -0.1162 -0.9605
    1MOL0     H  131   6.386   6.002   5.259  0.2052  1.9815 -0.2272
    1MOL0     H  132   6.217   5.826   5.249 -0.4357  0.0652 -0.7715
    2MOL0     O  133   8.446   8.694   9.559  0.1140 -0.2682  0.3488
    2MOL0     C  134   8.426   8.586   9.499  0.1503  0.4165  0.2187
    2MOL0     O  135   8.318   8.560   9.426 -0.3142 -0.8031 -0.0807
    2MOL0     C  136   8.223   8.657   9.408  0.1852 -0.9641  0.6346
    2MOL0     C  137   8.136   8.690   9.505 -0.9178 -0.6747 -0.7746
    2MOL0     C  138   8.046   8.795   9.481 -0.4043 -0.1264  0.3076
    2MOL0     C  139   8.037   8.862   9.366 -0.1217  1.2694  0.5676
    2MOL0     O  140   7.941   8.949   9.342  0.2303 -0.8818 -0.6738
    2MOL0     C  141   7.879   8.964   9.213  0.1372  0.1610  0.2690
    2MOL0     C  142   7.735   9.002   9.222 -0.1236 -0.4374 -0.1455
    2MOL0     C  143   7.646   8.914   9.310 -0.4709 -0.1440  1.0216
    2MOL0     C  144   7.597   8.802   9.229  0.4846  0.3095  1.3433
    2MOL0     C  145   7.544   8.693   9.324 -0.5197 -0.2599  0.6385
    2MOL0     C  146   7.418   8.738   9.401 -1.5783  1.0111 -0.1661
    2MOL0     C  147   7.380   8.628   9.499  1.0187 -0.3219  0.3308
    2MOL0     C  148   7.274   8.674   9.597 -1.0797  0.5312 -0.7394
    2MOL0     N  149   7.158   8.713   9.527  0.6024  1.2424  0.8412
    2MOL0     C  150   7.074   8.636   9.445  0.1456  0.2877 -0.3382
    2MOL0     C  151   6.964   8.715   9.432 -0.0362  1.2934 -0.5599
    2MOL0     C  152   6.843   8.672   9.353 -0.3552 -0.2807 -0.5086
    2MOL0     C  153   6.707   8.669   9.430  0.5120 -0.1140 -0.5902
    2MOL0     C  154   6.602   8.603   9.346 -0.2677  0.0675  0.4517
    2MOL0     C  155   6.454   8.605   9.393  0.0154 -0.0234 -0.1259
    2MOL0     O  156   6.385   8.675   9.287  0.5298 -0.1524 -0.3417
    2MOL0     C  157   6.252   8.705   9.305 -0.4926 -0.0749 -0.0924
    2MOL0     C  158   6.184   8.718   9.427  0.0115 -0.5176  0.0162
    2MOL0     C  159   6.043   8.719   9.439  0.1388  0.6388 -0.2997
    2MOL0     C  160   5.970   8.703   9.324 -0.5398  0.6862  0.5036
    2MOL0     C  161   5.822   8.721   9.331  0.9073  0.4149 -0.0658
    2MOL0     O  162   5.754   8.720   9.453 -0.0749 -0.8420 -0.4411
    2MOL0     C  163   5.636   8.773   9.486 -0.4410  0.3113  0.8408
    2MOL0     C  164   5.573   8.736   9.601 -0.2866  0.8863  0.2508
    2MOL0     C  165   5.455   8.795   9.639 -1.0120  1.2674 -0.0928
    2MOL0     C  166   5.393   8.895   9.558 -0.8115 -0.5229  0.3601
    2MOL0     O  167   5.277   8.953   9.588 -0.3754 -0.1711 -0.1890
    2MOL0     C  168   5.196   8.897   9.687 -0.2843 -0.3483 -0.5033
    2MOL0     C  169   5.126   8.776   9.625 -0.0587  0.1295 -0.4186
    2MOL0     C  170   5.033   8.706   9.716 -0.4741  0.4440 -0.1854
    2MOL0     C  171   4.926   8.616   9.636  0.6676  0.0027  0.0527
    2MOL0     C  172   4.801   8.583   9.728  0.3468  0.1761 -0.0747
    2MOL0     C  173   4.837   8.515   9.852 -0.7190  0.0832 -0.8344
    2MOL0     C  174   4.716   8.436   9.913  0.0749  0.4403 -0.1550
    2MOL0     C  175   4.751   8.408  10.058  0.0416  0.2351 -0.5499
    2MOL0    Cl  176   4.621   8.297  10.112  0.0755  0.3799 -0.4727
    2MOL0     C  177   5.454   8.924   9.436  0.4237 -0.0730 -0.5547
    2MOL0     C  178   5.578   8.869   9.396 -0.5393  0.0991 -0.2612
    2MOL0     O  179   5.766   8.728   9.221 -0.1820 -0.1771 -0.3506
    2MOL0     C  180   6.035   8.709   9.201 -0.1615  0.3372  0.9031
    2MOL0     C  181   6.174   8.707   9.196  0.9902 -0.2246  0.2849
    2MOL0     N  182   6.983   8.837   9.476 -0.3138 -0.0648 -0.9371
    2MOL0     N  183   7.104   8.835   9.532 -0.3939  0.4005  0.3964
    2MOL0     C  184   8.122   8.822   9.261 -0.5741 -0.6808  0.0223
    2MOL0     C  185   8.225   8.721   9.283 -0.2875 -0.5467 -0.5715
    2MOL0     C  186   8.516   8.477   9.521 -0.0692  0.4603  0.1104
    2MOL0     C  187   8.622   8.490   9.616 -0.0423 -0.3731 -0.0525
    2MOL0     C  188   8.717   8.390   9.643  0.6088 -0.2234  1.0042
    2MOL0     C  189   8.706   8.271   9.576  0.4339  0.6273  0.1934
    2MOL0     O  190   8.791   8.160   9.587 -0.6660 -0.4533 -0.2021
    2MOL0     C  191   8.920   8.180   9.644  0.1211 -0.3685 -0.0983
    2MOL0     C  192   9.015   8.245   9.544 -0.8043  0.6733  1.3391
    2MOL0     C  193   9.003   8.174   9.405  0.7352  0.3417  0.5640
    2MOL0     C  194   9.090   8.230   9.296 -0.6527  0.1262  0.0819
    2MOL0     C  195   9.067   8.371   9.258  0.0953  0.7229 -0.2375
    2MOL0     C  196   9.051   8.490   9.239 -0.0302  0.9504  0.0963
    2MOL0     C  197   8.594   8.249   9.492 -0.3738 -0.3767  0.7208
    2MOL0     C  198   8.500   8.352   9.463 -0.6759 -0.3815  0.3151
    2MOL0     H  199   8.139   8.639   9.601  0.3061 -0.0717 -0.4642
    2MOL0     H  200   7.979   8.827   9.560 -0.2243  1.6236 -0.2000
    2MOL0     H  201   7.878   8.868   9.160 -0.5642  1.1014 -1.4947
    2MOL0     H  202   7.921   9.037   9.144  2.1493 -1.4276 -0.2900
    2MOL0     H  203   7.689   9.005   9.123  0.4390  1.1200 -0.3988
    2MOL0     H  204   7.730   9.103   9.264  0.8026 -0.8806  1.1011
    2MOL0     H  205   7.558   8.965   9.350 -0.9710 -0.5018  0.3718
    2MOL0     H  206   7.705   8.880   9.396 -1.9625 -3.6733  0.7882
    2MOL0     H  207   7.515   8.836   9.166 -0.2956 -2.0890  0.9313
    2MOL0     H  208   7.684   8.763   9.176 -0.2635  0.5212 -0.0750
    2MOL0     H  209   7.623   8.666   9.395 -2.2323 -0.9438  2.3826
    2MOL0     H  210   7.524   8.604   9.264 -3.9069 -1.0694  2.6642
    2MOL0     H  211   7.335   8.761   9.334 -1.6393  1.1892 -0.0298
    2MOL0     H  212   7.443   8.825   9.463 -0.6857  0.6941 -0.0583
    2MOL0     H  213   7.325   8.548   9.448 -0.2773 -0.7652  2.2925
    2MOL0     H  214   7.469   8.593   9.551  0.0861 -0.9114  1.5798
    2MOL0     H  215   7.326   8.752   9.652  2.2751 -1.9192 -0.1177
    2MOL0     H  216   7.249   8.590   9.662  1.9303 -3.4057 -4.0887
    2MOL0     H  217   7.096   8.531   9.429  0.8290  0.3174  0.3264
    2MOL0     H  218   6.877   8.577   9.312 -2.5072 -0.9142 -0.9228
    2MOL0     H  219   6.830   8.737   9.266  0.2074  0.0151 -0.3771
    2MOL0     H  220   6.677   8.769   9.464 -1.0469 -1.0866  1.0816
    2MOL0     H  221   6.728   8.612   9.521  0.7678 -0.3000 -0.7657
    2MOL0     H  222   6.612   8.636   9.242 -3.3652 -1.8075 -0.5738
    2MOL0     H  223   6.635   8.499   9.337  0.7431 -0.2222  5.0182
    2MOL0     H  224   6.447   8.672   9.479 -0.0069 -1.9070  1.3914
    2MOL0     H  225   6.406   8.508   9.409 -1.6623  0.8254  0.2420
    2MOL0     H  226   6.248   8.720   9.515 -2.2537 -0.2484  1.7541
    2MOL0     H  227   5.989   8.742   9.530  0.8537  0.7026  0.1156
    2MOL0     H  228   5.613   8.664   9.672  1.5456  0.2425 -1.3492
    2MOL0     H  229   5.409   8.754   9.728  0.4991  0.1966  0.2139
    2MOL0     H  230   5.127   8.973   9.722 -0.9177 -0.6940 -0.9743
    2MOL0     H  231   5.253   8.868   9.776  0.7752 -0.0993 -1.0836
    2MOL0     H  232   5.202   8.712   9.578 -0.7569 -1.9035  1.0491
    2MOL0     H  233   5.064   8.819   9.545  2.3162 -0.7280 -2.8972
    2MOL0     H  234   4.972   8.781   9.767 -1.0410  1.4511 -2.2439
    2MOL0     H  235   5.083   8.644   9.791 -0.2411  1.4338  0.5013
    2MOL0     H  236   4.899   8.672   9.546 -0.1945  1.3021  1.0910
    2MOL0     H  237   4.964   8.517   9.610  0.2357 -0.6379  1.7415
    2MOL0     H  238   4.739   8.522   9.662  0.9920 -1.7694  1.0469
    2MOL0     H  239   4.755   8.675   9.765 -0.3923 -0.4078  0.4929
    2MOL0     H  240   4.877   8.585   9.926  1.7159  1.8046 -3.5554
    2MOL0     H  241   4.914   8.438   9.839  1.2363  1.9699 -1.1439
    2MOL0     H  242   4.625   8.496   9.900  2.3470  3.8077 -1.8829
    2MOL0     H  243   4.710   8.339   9.864 -0.9123 -0.1747  1.1075
    2MOL0     H  244   4.742   8.497  10.122  1.1718  0.5375 -0.7915
    2MOL0     H  245   4.844   8.353  10.075  0.1978  1.0599  1.5729
    2MOL0     H  246   5.418   8.999   9.366 -3.1560  0.0083  1.1355
    2MOL0     H  247   5.619   8.893   9.298  0.4005 -1.6832 -0.3584
    2MOL0     H  248   5.978   8.707   9.109 -0.7546 -2.8671  1.2198
    2MOL0     H  249   6.219   8.698   9.098  0.7600  2.1549 -0.0901
    2MOL0     H  250   8.120   8.899   9.185 -2.0685  0.9385  1.5833
    2MOL0     H  251   8.296   8.692   9.206  1.3394  0.7616  0.3835
    2MOL0     H  252   8.615   8.589   9.660 -2.6979  0.6702 -2.4355
    2MOL0     H  253   8.793   8.404   9.719  1.1663  0.0322  0.4084
    2MOL0     H  254   8.963   8.082   9.663 -0.9010 -0.7424  0.3347
    2MOL0     H  255   8.919   8.237   9.737 -2.4727  0.0152 -0.2733
    2MOL0     H  256   9.001   8.350   9.516 -0.2036  0.0275 -1.7721
    2MOL0     H  257   9.114   8.247   9.589 -0.2477  1.9070  0.1340
    2MOL0     H  258   8.901   8.186   9.367  0.7365  1.0205  0.7507
    2MOL0     H  259   9.022   8.067   9.410 -0.1237  0.2279  2.5533
    2MOL0     H  260   9.192   8.218   9.333 -1.2233  2.3438  2.7006
    2MOL0     H  261   9.084   8.176   9.201 -1.6666 -1.1764  0.8409
    2MOL0     H  262   9.045   8.597   9.231 -0.4473  0.9547  0.4347
    2MOL0     H  263   8.585   8.147   9.456 -0.6932 -0.5457  1.2628
    2MOL0     H  264   8.419   8.339   9.392  1.2961  1.9347 -2.6642
    3MOL0     O  265   3.063   3.120   7.273  0.0585  0.5538  0.2829
    3MOL0     C  266   3.122   3.227   7.259  0.5500 -0.0593  0.4760
    3MOL0     O  267   3.063   3.337   7.203 -0.5916 -1.0360  0.8312
    3MOL0     C  268   2.936   3.326   7.150  0.1025 -0.5129  0.7558
    3MOL0     C  269   2.928   3.319   7.020  0.2523  0.8142  0.2558
    3MOL0     C  270   2.801   3.298   6.960  0.0872  0.3014  0.4386
    3MOL0     C  271   2.679   3.297   7.037  0.5071 -0.2315 -0.3060
    3MOL0     O  272   2.549   3.309   6.991 -0.2126  0.4458  0.4252
    3MOL0     C  273   2.515   3.215   6.888  0.3560  0.6029 -1.0139
    3MOL0     C  274   2.369   3.173   6.910  0.1605 -0.7768 -0.3775
    3MOL0     C  275   2.322   3.095   6.797 -0.0224  0.5397  0.3091
    3MOL0     C  276   2.187   3.040   6.835  0.5592  0.2038 -0.0430
    3MOL0     C  277   2.122   2.981   6.711 -0.0479 -0.0451 -0.3257
    3MOL0     C  278   1.976   2.942   6.722  0.8320  0.0507 -0.0996
    3MOL0     C  279   1.875   3.050   6.747  0.0692  0.2055  0.4784
    3MOL0     C  280   1.856   3.162   6.649 -0.7036  0.0168  0.4647
    3MOL0     N  281   1.796   3.104   6.533 -0.1039 -0.1857  0.1976
    3MOL0     C  282   1.857   3.062   6.415 -0.4283 -0.3032  0.2787
    3MOL0     C  283   1.769   3.002   6.344 -0.1248  0.7305  0.6832
    3MOL0     C  284   1.797   2.923   6.213 -0.4592 -0.3103 -0.6016
    3MOL0     C  285   1.671   2.862   6.157  0.8387  0.8035 -0.3986
    3MOL0     C  286   1.695   2.758   6.049  0.6714  0.6308 -0.1281
    3MOL0     C  287   1.564   2.711   5.998  0.5322 -0.4870 -0.5016
    3MOL0     O  288   1.492   2.628   6.104  0.1009 -0.0459  1.0729
    3MOL0     C  289   1.360   2.590   6.090 -0.0453  0.6045  0.4561
    3MOL0     C  290   1.284   2.607   5.967  0.5673  0.6965 -0.4110
    3MOL0     C  291   1.150   2.567   5.968 -0.9959  0.1242  0.4285
    3MOL0     C  292   1.083   2.510   6.074  0.3971  0.4576 -0.0383
    3MOL0     C  293   0.943   2.474   6.060 -0.3573 -0.5549 -0.2074
    3MOL0     O  294   0.904   2.442   5.938  0.6768 -0.0292 -0.0041
    3MOL0     C  295   0.765   2.427   5.922 -0.7275  0.4839  0.0570
    3MOL0     C  296   0.729   2.306   5.854  0.6821  1.2240 -0.5418
    3MOL0     C  297   0.595   2.275   5.838  0.2970 -0.7237 -0.3708
    3MOL0     C  298   0.495   2.360   5.887  0.3690  0.4377  0.4414
    3MOL0     O  299   0.369   2.315   5.872  0.0414  0.5072  0.0473
    3MOL0     C  300   0.262   2.396   5.921  0.0499  0.9903  0.0234
    3MOL0     C  301   0.141   2.348   5.836 -0.3556 -0.5013 -0.6615
    3MOL0     C  302   0.015   2.420   5.886 -0.3438  0.0629 -0.1614
    3MOL0     C  303  -0.116   2.390   5.802 -0.0795  0.8838  0.2196
    3MOL0     C  304  -0.238   2.442   5.877 -0.0510 -1.0957 -0.4199
    3MOL0     C  305  -0.254   2.598   5.883  0.0402  0.9802  0.5262
    3MOL0     C  306  -0.369   2.628   5.969  0.1497  0.4798 -0.5651
    3MOL0     C  307  -0.494   2.670   5.885 -0.3703 -0.2710 -0.1730
    3MOL0    Cl  308  -0.639   2.695   5.988  0.1021 -0.0429 -0.2997
    3MOL0     C  309   0.532   2.477   5.950 -0.1775  0.1028  0.3926
    3MOL0     C  310   0.663   2.506   5.963 -0.3661 -0.8328  0.3805
    3MOL0     O  311   0.887   2.453   6.159  0.1968  0.7405  0.0635
    3MOL0     C  312   1.160   2.486   6.192  0.7003  0.0988 -0.1610
    3MOL0     C  313   1.298   2.512   6.192  0.4839  0.0128 -0.8118
    3MOL0     N  314   1.646   3.020   6.408  1.0179  0.4214  0.5962
    3MOL0     N  315   1.666   3.070   6.522  0.3961 -0.7066 -0.1759
    3MOL0     C  316   2.691   3.301   7.174  0.3204  0.3399 -0.6217
    3MOL0     C  317   2.821   3.314   7.233 -0.0825 -0.4331 -0.0598
    3MOL0     C  318   3.258   3.235   7.310 -0.7212  0.6494 -0.4325
    3MOL0     C  319   3.333   3.111   7.338  0.2400 -0.0605 -0.0155
    3MOL0     C  320   3.456   3.114   7.402 -0.4283 -0.4123  0.2141
    3MOL0     C  321   3.520   3.240   7.429 -0.3195  0.2400  0.6804
    3MOL0     O  322   3.642   3.261   7.502 -0.5497  0.7914 -0.2035
    3MOL0     C  323   3.754   3.183   7.457 -0.1373  0.2548  0.0992
    3MOL0     C  324   3.876   3.239   7.532 -0.5199 -0.4915  1.0218
    3MOL0     C  325   3.949   3.357   7.454 -0.3386 -0.1230 -0.0852
    3MOL0     C  326   3.869   3.493   7.451 -0.1452 -0.1919  0.7647
    3MOL0     C  327   3.949   3.615   7.466 -0.3016 -0.4357 -0.8457
    3MOL0     C  328   4.011   3.721   7.453 -0.4563  0.0976 -0.5833
    3MOL0     C  329   3.450   3.354   7.400 -0.2872  1.0273 -0.3670
    3MOL0     C  330   3.327   3.357   7.324 -0.1419  0.4600 -0.1324
    3MOL0     H  331   3.011   3.316   6.951 -1.1967 -2.1762 -1.5473
    3MOL0     H  332   2.775   3.293   6.855 -1.0518 -0.3730  0.7374
    3MOL0     H  333   2.588   3.135   6.902 -1.9149 -2.0227 -2.9317
    3MOL0     H  334   2.526   3.244   6.783 -2.0027  1.2524 -1.1323
    3MOL0     H  335   2.299   3.257   6.916 -0.3921 -1.2039 -0.7556
    3MOL0     H  336   2.354   3.117   7.003 -1.0252  0.2066  0.0563
    3MOL0     H  337   2.388   3.015   6.763 -0.6121 -0.2894  1.0641
    3MOL0     H  338   2.309   3.165   6.714  0.0329  0.9721  0.6624
    3MOL0     H  339   2.195   2.964   6.913  0.6241  0.1824 -0.0696
    3MOL0     H  340   2.123   3.120   6.873  1.8057  0.8753  0.7230
    3MOL0     H  341   2.177   2.889   6.690  0.1594 -0.8143  2.9412
    3MOL0     H  342   2.146   3.047   6.628 -1.7622  0.9676 -0.0585
    3MOL0     H  343   1.969   2.862   6.795  0.5744 -0.5369 -0.7558
    3MOL0     H  344   1.943   2.896   6.629  0.6145  0.2972 -0.1470
    3MOL0     H  345   1.776   3.004   6.757 -1.3320  2.7554 -0.6740
    3MOL0     H  346   1.901   3.092   6.845 -1.0154  2.0785  0.0204
    3MOL0     H  347   1.953   3.205   6.624  0.0908 -2.4913 -1.1460
    3MOL0     H  348   1.793   3.240   6.691 -0.3285  0.2437  0.6094
    3MOL0     H  349   1.962   3.072   6.388 -0.4450 -0.1780  0.2592
    3MOL0     H  350   1.875   2.849   6.229 -1.8474 -1.3305  2.0401
    3MOL0     H  351   1.849   2.981   6.137  3.4954 -2.2713  0.3265
    3MOL0     H  352   1.620   2.943   6.105  1.2131  1.3145  0.0271
    3MOL0     H  353   1.605   2.820   6.233  0.9584  1.6159  0.1665
    3MOL0     H  354   1.759   2.775   5.962  1.4226 -1.8575 -0.1273
    3MOL0     H  355   1.743   2.673   6.099  3.3075  1.9190 -0.2829
    3MOL0     H  356   1.580   2.645   5.912  0.6215  0.0257 -0.8906
    3MOL0     H  357   1.498   2.791   5.961 -1.4873 -1.2276  1.3053
    3MOL0     H  358   1.313   2.664   5.880 -1.4553 -0.2204 -1.7433
    3MOL0     H  359   1.087   2.598   5.885  1.9766 -0.9731 -2.4325
    3MOL0     H  360   0.800   2.231   5.823 -0.0201 -0.0558  0.8468
    3MOL0     H  361   0.562   2.181   5.794  0.9493 -1.2711  0.2725
    3MOL0     H  362   0.283   2.503   5.909  1.1599  0.6761 -0.9072
    3MOL0     H  363   0.243   2.375   6.027 -1.3601  0.5085 -0.3035
    3MOL0     H  364   0.133   2.239   5.832  1.8234 -0.7163 -0.1499
    3MOL0     H  365   0.146   2.375   5.731 -2.4813 -0.8407 -0.8996
    3MOL0     H  366   0.027   2.528   5.881  2.0390 -0.1039  0.7295
    3MOL0     H  367   0.003   2.391   5.991  1.1508 -0.3902 -0.0876
    3MOL0     H  368  -0.105   2.430   5.701 -2.1169  1.7368  0.2840
    3MOL0     H  369  -0.128   2.284   5.776  1.8603  0.6053  0.2774
    3MOL0     H  370  -0.215   2.399   5.975 -0.7243 -1.6313 -0.4899
    3MOL0     H  371  -0.337   2.408   5.844 -0.8631  1.0920 -0.3847
    3MOL0     H  372  -0.284   2.635   5.784 -2.4991  0.9696  1.2221
    3MOL0     H  373  -0.171   2.652   5.930 -0.5280 -0.3787  3.2568
    3MOL0     H  374  -0.383   2.539   6.030  3.3109 -1.6180 -2.6013
    3MOL0     H  375  -0.336   2.713   6.030  0.1665  0.3586 -0.4059
    3MOL0     H  376  -0.519   2.592   5.813  1.7695 -0.2036 -1.0646
    3MOL0     H  377  -0.489   2.765   5.832  0.3435  0.7030  1.5559
    3MOL0     H  378   0.462   2.551   5.988  0.8255  1.7686 -0.9093
    3MOL0     H  379   0.686   2.601   6.009 -0.9905 -0.4393 -0.1028
    3MOL0     H  380   1.111   2.440   6.278  0.6212 -0.2988 -0.4204
    3MOL0     H  381   1.367   2.487   6.272  1.0446 -0.2485 -1.3684
    3MOL0     H  382   2.595   3.294   7.224  1.9010 -0.2510  2.6033
    3MOL0     H  383   2.841   3.326   7.339  2.1487  0.6983 -0.5476
    3MOL0     H  384   3.292   3.014   7.315 -1.1570  0.6743 -0.7756
    3MOL0     H  385   3.492   3.020   7.442 -0.1024 -0.3778  0.0062
    3MOL0     H  386   3.767   3.190   7.349 -0.0024  0.0284  0.1000
    3MOL0     H  387   3.750   3.074   7.465  1.7682  0.0577 -0.8688
    3MOL0     H  388   3.851   3.278   7.631  0.2179 -2.4496  2.0540
    3MOL0     H  389   3.959   3.168   7.541 -1.4935 -1.6283  1.3324
    3MOL0     H  390   3.956   3.326   7.350 -0.1915  0.0941 -0.1401
    3MOL0     H  391   4.051   3.372   7.492  1.4275 -1.5247 -3.7783
    3MOL0     H  392   3.818   3.491   7.355  1.6001  1.1484 -0.2476
    3MOL0     H  393   3.795   3.509   7.530  0.1655 -2.9476  1.7439
    3MOL0     H  394   4.059   3.816   7.453 -1.8311  0.8957  2.1338
    3MOL0     H  395   3.492   3.448   7.436  1.5074 -0.7355  2.5039
    3MOL0     H  396   3.296   3.457   7.296  1.1161  2.1370  3.6815
    4MOL0     O  397   1.934   4.726   4.772 -0.8230 -0.3636 -0.0699
    4MOL0     C  398   1.922   4.692   4.895  1.1889  0.7619  0.2074
    4MOL0     O  399   1.799   4.667   4.957 -0.2554  0.1814 -0.9787
    4MOL0     C  400   1.682   4.722   4.910  0.1062  0.9792 -0.2521
    4MOL0     C  401   1.574   4.632   4.913 -0.9181  0.6478  0.7971
    4MOL0     C  402   1.453   4.680   4.869 -0.3421  0.9764  0.3301
    4MOL0     C  403   1.434   4.812   4.816 -0.0201 -0.0541  0.8290
    4MOL0     O  404   1.312   4.838   4.760  0.4090 -0.4991  0.5047
    4MOL0     C  405   1.292   4.923   4.648 -0.0622 -0.4627 -0.4400
    4MOL0     C  406   1.141   4.924   4.618  0.3840 -0.5138  0.3332
    4MOL0     C  407   1.117   4.978   4.476 -0.4691 -0.3426 -0.3010
    4MOL0     C  408   0.964   4.991   4.461 -0.2665  0.3678  0.2787
    4MOL0     C  409   0.947   5.061   4.333 -0.4131 -0.6173  1.1280
    4MOL0     C  410   0.815   5.046   4.263  0.3124  0.1793 -0.4797
    4MOL0     C  411   0.826   5.118   4.129  0.1965 -0.0010  0.6868
    4MOL0     C  412   0.688   5.123   4.066 -0.8214 -0.0034  0.5725
    4MOL0     N  413   0.630   4.992   4.027  0.1060  0.6255 -0.2565
    4MOL0     C  414   0.515   4.935   4.084  0.0166 -0.9306 -0.1133
    4MOL0     C  415   0.520   4.816   4.030  0.4971 -0.0512 -0.4764
    4MOL0     C  416   0.405   4.719   4.042 -1.2267  0.7224  0.2999
    4MOL0     C  417   0.280   4.774   3.977 -1.0230 -0.8010  0.3015
    4MOL0     C  418   0.291   4.817   3.826  0.3810  0.5731 -0.0256
    4MOL0     C  419   0.175   4.899   3.796 -0.3907  1.2644 -0.2482
    4MOL0     O  420   0.050   4.827   3.818  0.1566 -0.2932 -0.0825
    4MOL0     C  421  -0.063   4.892   3.785  0.0090 -0.0497 -0.0568
    4MOL0     C  422  -0.176   4.820   3.831 -0.3024 -0.2765 -0.4493
    4MOL0     C  423  -0.307   4.861   3.809  0.0384  0.5132  0.1707
    4MOL0     C  424  -0.323   4.986   3.749 -0.0924  0.7252  0.7051
    4MOL0     C  425  -0.468   5.025   3.730 -0.3753 -0.6333 -0.0625
    4MOL0     O  426  -0.562   4.938   3.761 -0.0582 -0.0609  0.0740
    4MOL0     C  427  -0.691   4.979   3.742  0.8004 -0.6238 -0.7025
    4MOL0     C  428  -0.745   5.085   3.818  0.5124  1.0405 -0.4027
    4MOL0     C  429  -0.869   5.149   3.771 -0.4861 -0.1767  0.8702
    4MOL0     C  430  -0.948   5.083   3.681 -0.6663  0.7203  0.0976
    4MOL0     O  431  -1.066   5.149   3.654  0.3477  0.5115  0.1647
    4MOL0     C  432  -1.111   5.139   3.520 -0.0018  0.3659 -0.2444
    4MOL0     C  433  -1.246   5.197   3.518  0.3223 -0.0252 -0.6705
    4MOL0     C  434  -1.351   5.117   3.603 -0.8867 -0.6279  0.3803
    4MOL0     C  435  -1.484   5.182   3.612  0.3107 -0.7902 -1.0236
    4MOL0     C  436  -1.594   5.086   3.673 -0.7684  0.3296 -0.3984
    4MOL0     C  437  -1.735   5.142   3.668  0.2782  0.1942  0.6488
    4MOL0     C  438  -1.817   5.071   3.776 -1.0066 -0.3963 -0.6733
    4MOL0     C  439  -1.969   5.078   3.752 -0.8244 -0.1623 -0.8517
    4MOL0    Cl  440  -2.055   5.097   3.909 -0.3282  0.1975 -0.6690
    4MOL0     C  441  -0.907   4.956   3.631 -0.0656 -0.3829  0.2656
    4MOL0     C  442  -0.777   4.905   3.660  0.6706  0.8301  1.0505
    4MOL0     O  443  -0.487   5.139   3.690  0.0768  0.2541 -0.4030
    4MOL0     C  444  -0.216   5.066   3.721  1.1704  0.6754  0.7298
    4MOL0     C  445  -0.085   5.016   3.725 -0.2634 -0.3862 -0.8081
    4MOL0     N  446   0.628   4.800   3.945  0.5946  0.8534 -0.2582
    4MOL0     N  447   0.691   4.903   3.943 -0.1138 -0.1458 -0.2522
    4MOL0     C  448   1.552   4.893   4.806 -0.3772  0.2643 -0.0103
    4MOL0     C  449   1.673   4.846   4.847  0.9307  0.1166  0.1127
    4MOL0     C  450   2.033   4.681   4.976  0.6025  0.5089  0.3908
    4MOL0     C  451   2.022   4.630   5.110 -0.7607  0.4929  0.9376
    4MOL0     C  452   2.141   4.624   5.194  0.3760  0.7999 -0.5796
    4MOL0     C  453   2.266   4.662   5.152 -0.1617  0.5276 -0.6015
    4MOL0     O  454   2.372   4.630   5.235  0.6422  0.0626 -0.6745
    4MOL0     C  455   2.502   4.615   5.193  0.7699  0.6355  0.3640
    4MOL0     C  456   2.533   4.496   5.107  0.2504  0.6268 -0.2370
    4MOL0     C  457   2.680   4.438   5.117  0.2777  0.4030  0.1518
    4MOL0     C  458   2.793   4.545   5.122  0.6172  0.4582  0.4534
    4MOL0     C  459   2.902   4.487   5.053 -0.4266  0.1316 -0.5365
    4MOL0     C  460   2.994   4.430   5.001  0.5312 -0.2167  0.4142
    4MOL0     C  461   2.275   4.715   5.023 -0.8656 -0.5113 -0.6699
    4MOL0     C  462   2.159   4.729   4.935 -0.3459  0.1049 -0.3375
    4MOL0     H  463   1.597   4.536   4.958 -1.5567  1.0785  2.1041
    4MOL0     H  464   1.363   4.619   4.873  1.0609 -1.1469  1.6481
    4MOL0     H  465   1.356   4.872   4.575  3.2460  2.4610  0.1481
    4MOL0     H  466   1.330   5.025   4.656  0.0245 -0.4868 -0.5325
    4MOL0     H  467   1.095   4.995   4.688  1.9501  2.1235 -1.1328
    4MOL0     H  468   1.096   4.824   4.620 -0.7982 -0.1996 -3.2205
    4MOL0     H  469   1.151   4.912   4.396 -2.0371 -2.0384  0.3476
    4MOL0     H  470   1.166   5.075   4.476  1.0293 -0.9853  2.6432
    4MOL0     H  471   0.929   4.887   4.462  0.7114 -0.0863  4.3949
    4MOL0     H  472   0.917   5.044   4.545  0.6491  0.2900  0.8470
    4MOL0     H  473   1.021   5.018   4.265 -0.1180  1.2527  0.1762
    4MOL0     H  474   0.972   5.168   4.336  0.0576 -0.5099 -2.4183
    4MOL0     H  475   0.727   5.082   4.316 -0.8386 -2.4676 -0.4151
    4MOL0     H  476   0.802   4.940   4.241  1.1709 -0.1808  0.6297
    4MOL0     H  477   0.865   5.220   4.139 -1.5427  0.8781 -0.8544
    4MOL0     H  478   0.888   5.063   4.058 -1.3746 -1.4161  0.3424
    4MOL0     H  479   0.691   5.174   3.969  0.1247 -1.4295 -0.1947
    4MOL0     H  480   0.625   5.185   4.130  0.7337 -0.1741  2.3556
    4MOL0     H  481   0.451   4.984   4.156 -0.4354 -0.3469 -0.8908
    4MOL0     H  482   0.385   4.705   4.149 -0.5097  1.5509  0.5613
    4MOL0     H  483   0.436   4.618   4.016  0.0427  1.2469 -0.3449
    4MOL0     H  484   0.241   4.858   4.035  2.0126  0.0314  1.3089
    4MOL0     H  485   0.205   4.696   3.993 -1.2970 -0.6333 -0.1531
    4MOL0     H  486   0.386   4.869   3.812 -1.4373  4.1341 -0.2467
    4MOL0     H  487   0.297   4.737   3.751 -0.7166  1.1264 -0.7288
    4MOL0     H  488   0.193   4.933   3.694 -0.8846  2.9613  0.1853
    4MOL0     H  489   0.182   4.987   3.861  0.2887  0.8038  0.3268
    4MOL0     H  490  -0.145   4.736   3.892  0.6828 -0.0962 -0.6983
    4MOL0     H  491  -0.385   4.790   3.837  1.8709 -0.9271  1.9327
    4MOL0     H  492  -0.695   5.139   3.897  1.4245  1.2047 -1.0720
    4MOL0     H  493  -0.904   5.242   3.816 -1.4501 -0.3884  0.5535
    4MOL0     H  494  -1.108   5.035   3.487  2.5665  1.2012 -3.0730
    4MOL0     H  495  -1.033   5.194   3.466  0.7581  1.2664  1.6475
    4MOL0     H  496  -1.291   5.195   3.419 -3.6129 -0.1654  0.9147
    4MOL0     H  497  -1.250   5.301   3.552 -0.5122 -0.3387  0.2547
    4MOL0     H  498  -1.328   5.108   3.709 -0.3468  1.2887  0.4616
    4MOL0     H  499  -1.367   5.025   3.544 -1.4838  0.8360 -1.8878
    4MOL0     H  500  -1.478   5.272   3.675 -0.1453 -0.9888 -0.6973
    4MOL0     H  501  -1.518   5.206   3.510 -0.4037  1.6318 -0.2977
    4MOL0     H  502  -1.559   5.084   3.777  2.2182  0.3838 -1.3114
    4MOL0     H  503  -1.585   4.984   3.636  2.1769 -0.5057  2.1941
    4MOL0     H  504  -1.776   5.129   3.567  1.7717  2.2481 -0.2975
    4MOL0     H  505  -1.724   5.251   3.676  0.5500  0.2592 -0.4582
    4MOL0     H  506  -1.787   4.966   3.769  2.3535  0.2798  1.3644
    4MOL0     H  507  -1.793   5.118   3.872 -2.3545  0.1954 -0.6061
    4MOL0     H  508  -1.997   4.988   3.696 -1.1236 -1.2103  0.9386
    4MOL0     H  509  -2.004   5.165   3.695 -3.1589 -0.9229 -0.6846
    4MOL0     H  510  -0.967   4.902   3.558  1.2279  2.3158 -3.0405
    4MOL0     H  511  -0.733   4.814   3.619  0.7039  1.6647 -0.8443
    4MOL0     H  512  -0.230   5.172   3.700 -0.6634 -0.0658 -2.3624
    4MOL0     H  513   0.005   5.071   3.699 -0.6552  0.2112 -0.9322
    4MOL0     H  514   1.542   4.993   4.765 -0.9424  0.0689 -0.3549
    4MOL0     H  515   1.753   4.918   4.833 -1.1161  2.4049 -0.6365
    4MOL0     H  516   1.918   4.609   5.131 -1.4831  0.9995 -1.7743
    4MOL0     H  517   2.123   4.577   5.291 -1.3325  1.5246 -0.5079
    4MOL0     H  518   2.573   4.602   5.275  1.8480  2.2983 -0.2480
    4MOL0     H  519   2.541   4.705   5.144  1.5233 -0.2884 -0.7926
    4MOL0     H  520   2.455   4.422   5.129 -0.0609  1.4862  1.7211
    4MOL0     H  521   2.505   4.519   5.004 -1.9900  1.7205  0.5480
    4MOL0     H  522   2.694   4.363   5.039  0.2278 -1.1728  1.6053
    4MOL0     H  523   2.692   4.381   5.210 -0.0562 -0.5934 -0.4082
    4MOL0     H  524   2.751   4.634   5.074  1.4957  0.2858 -0.6862
    4MOL0     H  525   2.813   4.567   5.227 -0.4861  1.0505  0.5570
    4MOL0     H  526   3.065   4.374   4.943  0.1645 -1.0583  0.7592
    4MOL0     H  527   2.371   4.746   4.982 -0.7126 -0.6934 -0.4449
    4MOL0     H  528   2.171   4.769   4.835  1.2619  1.1233  0.2045
    5MOL0     O  529   0.627   2.939   9.167 -0.5005 -1.0981 -0.0780
    5MOL0     C  530   0.621   2.868   9.072 -0.2380  0.3932  0.1803
    5MOL0     O  531   0.513   2.826   9.004  0.5886  0.9014 -0.1316
    5MOL0     C  532   0.385   2.876   9.014  0.3415 -0.4877  0.7846
    5MOL0     C  533   0.283   2.800   8.969 -0.9493  0.6477 -0.0572
    5MOL0     C  534   0.152   2.838   8.977 -0.0020 -0.5416 -0.1022
    5MOL0     C  535   0.112   2.965   9.029 -0.2289 -0.2402  0.1482
    5MOL0     O  536  -0.018   3.007   9.060  0.4768  0.1275 -0.1498
    5MOL0     C  537  -0.093   2.921   9.143  1.2623 -0.4038  0.1093
    5MOL0     C  538  -0.251   2.949   9.110 -0.6903 -0.3437 -0.4431
    5MOL0     C  539  -0.350   2.866   9.196 -0.5644 -0.8968  0.3129
    5MOL0     C  540  -0.496   2.928   9.212  0.2706  0.1769  0.4361
    5MOL0     C  541  -0.557   2.874   9.343 -0.1085 -0.2346  0.4413
    5MOL0     C  542  -0.700   2.916   9.356  0.7705 -0.5395  0.2993
    5MOL0     C  543  -0.770   2.866   9.489 -0.7072  0.0699  0.1182
    5MOL0     C  544  -0.882   2.963   9.520  0.2189  0.4036 -0.6468
    5MOL0     N  545  -0.933   2.939   9.661  0.6079 -0.2096 -0.4399
    5MOL0     C  546  -0.995   2.828   9.707 -0.6568 -0.0935  0.2728
    5MOL0     C  547  -1.014   2.856   9.840  0.7229 -0.4035  0.3220
    5MOL0     C  548  -1.044   2.747   9.947 -0.1595 -0.6827 -0.4094
    5MOL0     C  549  -1.185   2.695   9.927  0.5979  0.3993  0.2700
    5MOL0     C  550  -1.233   2.620  10.058 -0.4075 -0.0006  0.2324
    5MOL0     C  551  -1.381   2.575  10.065  0.2647 -0.0660  0.6236
    5MOL0     O  552  -1.395   2.449   9.997  0.3500  0.1797  0.2223
    5MOL0     C  553  -1.378   2.330  10.061 -0.9844 -0.3082  0.0562
    5MOL0     C  554  -1.383   2.207   9.980  0.1479 -0.3735  0.8206
    5MOL0     C  555  -1.381   2.079  10.034 -0.1315  0.7509  0.3985
    5MOL0     C  556  -1.373   2.057  10.165 -0.3514 -1.2181 -0.5136
    5MOL0     C  557  -1.377   1.916  10.216  0.2297  0.0991  0.0768
    5MOL0     O  558  -1.333   1.893  10.331  0.1200 -0.0292 -0.1829
    5MOL0     C  559  -1.298   1.763  10.377  0.0644 -0.8392  0.2740
    5MOL0     C  560  -1.389   1.656  10.374  1.1707  0.6627  0.3361
    5MOL0     C  561  -1.344   1.529  10.415 -1.0140 -0.0238  0.3912
    5MOL0     C  562  -1.216   1.508  10.468 -0.5267  0.5590 -0.2383
    5MOL0     O  563  -1.178   1.379  10.471 -0.1875  0.5679  0.4086
    5MOL0     C  564  -1.148   1.336  10.607  0.3864  0.3515  0.5929
    5MOL0     C  565  -1.141   1.182  10.625  0.3553 -0.3637  0.2367
    5MOL0     C  566  -1.264   1.104  10.566  0.2390 -0.3283 -0.6975
    5MOL0     C  567  -1.411   1.163  10.616 -0.1901 -0.7722 -0.4711
    5MOL0     C  568  -1.525   1.070  10.567 -0.4117 -0.0536  0.9705
    5MOL0     C  569  -1.547   1.068  10.419  0.4337 -0.4810 -0.4777
    5MOL0     C  570  -1.682   1.004  10.370  0.9884 -0.2946 -0.2921
    5MOL0     C  571  -1.809   1.061  10.444  0.2029 -0.6337  0.4694
    5MOL0    Cl  572  -1.851   1.232  10.398 -0.0983  0.3236  0.4704
    5MOL0     C  573  -1.132   1.618  10.494  0.1304  0.0397  0.4059
    5MOL0     C  574  -1.175   1.749  10.443  0.5125  0.0072 -0.5006
    5MOL0     O  575  -1.409   1.830  10.137 -0.0795  0.3418  0.7220
    5MOL0     C  576  -1.373   2.179  10.246 -0.1305  1.0295 -0.6137
    5MOL0     C  577  -1.378   2.307  10.195 -0.6487 -0.0092 -0.1610
    5MOL0     N  578  -0.975   2.986   9.861 -0.0174 -0.1848  0.7650
    5MOL0     N  579  -0.928   3.032   9.749  0.0242  0.2370  0.1064
    5MOL0     C  580   0.223   3.051   9.061  0.5317 -0.0769 -0.0743
    5MOL0     C  581   0.353   3.007   9.046 -0.7837  0.1357  0.8579
    5MOL0     C  582   0.755   2.815   9.034  0.2060  0.0873  0.4524
    5MOL0     C  583   0.750   2.724   8.928 -0.1046  0.0390 -0.3334
    5MOL0     C  584   0.880   2.671   8.875  0.6004 -0.2586  0.1667
    5MOL0     C  585   1.007   2.710   8.928  0.4247 -0.5595 -0.3739
    5MOL0     O  586   1.127   2.652   8.901 -0.2024 -0.3946 -0.7413
    5MOL0     C  587   1.142   2.567   8.789 -0.3359 -1.1291  0.1071
    5MOL0     C  588   1.295   2.542   8.761 -0.1229  0.5082 -0.2340
    5MOL0     C  589   1.351   2.683   8.729 -0.8075 -0.2757 -0.3953
    5MOL0     C  590   1.491   2.673   8.680 -0.3583 -0.8010 -0.0782
    5MOL0     C  591   1.582   2.605   8.773 -0.0571  0.3286 -0.4228
    5MOL0     C  592   1.639   2.548   8.863 -0.3014 -0.3293 -0.4291
    5MOL0     C  593   1.009   2.811   9.028  0.4236 -0.0249  0.2444
    5MOL0     C  594   0.883   2.864   9.078  0.1198 -0.2359  0.0186
    5MOL0     H  595   0.301   2.708   8.915  3.4102  1.7719 -0.9082
    5MOL0     H  596   0.081   2.765   8.939  1.6577 -0.5735 -3.5589
    5MOL0     H  597  -0.074   2.938   9.250  0.8362 -1.8131  0.4329
    5MOL0     H  598  -0.081   2.815   9.121 -0.7490 -0.6073 -0.1706
    5MOL0     H  599  -0.262   2.926   9.004 -3.6062  0.7156 -0.4647
    5MOL0     H  600  -0.272   3.056   9.125 -0.9341 -0.4304 -0.1547
    5MOL0     H  601  -0.302   2.848   9.292  1.2559 -0.2681 -0.4283
    5MOL0     H  602  -0.357   2.764   9.157  2.1725 -1.2150  0.4740
    5MOL0     H  603  -0.490   3.037   9.217 -0.6155  0.3848 -1.6959
    5MOL0     H  604  -0.550   2.899   9.121  1.6850 -0.1381 -0.3455
    5MOL0     H  605  -0.498   2.901   9.432  1.7288  1.6748 -1.2418
    5MOL0     H  606  -0.553   2.765   9.333  1.8835 -0.0393 -1.9201
    5MOL0     H  607  -0.756   2.879   9.270 -0.2869  2.2518 -0.3321
    5MOL0     H  608  -0.701   3.026   9.357 -1.7222 -0.3386 -3.4118
    5MOL0     H  609  -0.813   2.766   9.477 -0.8208  0.0974  0.3038
    5MOL0     H  610  -0.705   2.865   9.577  0.5335 -0.1602 -0.7721
    5MOL0     H  611  -0.969   2.932   9.462  1.7460 -1.6666 -1.9657
    5MOL0     H  612  -0.845   3.065   9.509  1.6385  0.3122  2.2147
    5MOL0     H  613  -1.010   2.730   9.663 -0.1325 -1.1176  2.2510
    5MOL0     H  614  -1.035   2.805  10.040  1.4613  0.4712 -1.2220
    5MOL0     H  615  -0.966   2.671   9.951  3.7710  2.7318 -3.1090
    5MOL0     H  616  -1.182   2.626   9.842 -0.7610  1.0030 -0.2931
    5MOL0     H  617  -1.256   2.773   9.897 -1.1765 -0.9739  0.7471
    5MOL0     H  618  -1.159   2.542  10.079  0.8528  1.3754  1.0937
    5MOL0     H  619  -1.225   2.699  10.133 -0.3789 -0.4361  0.6960
    5MOL0     H  620  -1.440   2.659  10.028  1.0708  1.3832  2.4598
    5MOL0     H  621  -1.406   2.567  10.172 -1.1440 -0.0696  0.3037
    5MOL0     H  622  -1.404   2.209   9.874  1.8930 -3.1399  0.3000
    5MOL0     H  623  -1.381   1.991   9.970 -0.0619  0.1156  1.2509
    5MOL0     H  624  -1.484   1.682  10.329  0.3308  1.6762  2.5551
    5MOL0     H  625  -1.403   1.438  10.404 -2.2758  0.9824 -1.5982
    5MOL0     H  626  -1.216   1.375  10.683  0.1083 -1.6924  1.4654
    5MOL0     H  627  -1.050   1.381  10.625  0.5524 -0.4419  1.8188
    5MOL0     H  628  -1.127   1.158  10.731  2.4724  3.0092  0.8838
    5MOL0     H  629  -1.055   1.140  10.572 -1.3429 -1.5253 -1.7188
    5MOL0     H  630  -1.259   0.997  10.591  0.7457 -0.2352 -0.3657
    5MOL0     H  631  -1.260   1.106  10.457  1.3300 -3.8154 -0.8581
    5MOL0     H  632  -1.403   1.154  10.725  1.2716 -2.5187 -0.6662
    5MOL0     H  633  -1.422   1.266  10.582 -2.6783  0.2425  2.8961
    5MOL0     H  634  -1.615   1.099  10.623  2.0962  1.0422  4.8585
    5MOL0     H  635  -1.504   0.968  10.599 -1.2405  0.0795  2.0154
    5MOL0     H  636  -1.457   1.031  10.368 -0.2324  1.8659 -3.6329
    5MOL0     H  637  -1.561   1.173  10.393 -0.8614 -0.9370 -1.7272
    5MOL0     H  638  -1.702   1.010  10.263 -3.0923  0.4790  0.3397
    5MOL0     H  639  -1.684   0.895  10.377  1.5783 -0.4483 -1.9306
    5MOL0     H  640  -1.798   1.043  10.552  0.8310 -2.2956  0.1523
    5MOL0     H  641  -1.898   1.008  10.407  0.1646  0.1742 -0.6419
    5MOL0     H  642  -1.040   1.609  10.550  0.6608  3.1457  0.1905
    5MOL0     H  643  -1.100   1.827  10.445  1.9689 -1.3122  1.9885
    5MOL0     H  644  -1.385   2.163  10.352 -0.1295  0.2501 -0.7210
    5MOL0     H  645  -1.389   2.387  10.267 -2.1500  0.1167 -0.4871
    5MOL0     H  646   0.219   3.157   9.087 -0.8216  0.0502 -0.6969
    5MOL0     H  647   0.443   3.068   9.047 -0.8748  0.3627 -0.9225
    5MOL0     H  648   0.664   2.685   8.874  1.3601 -1.0266 -2.0128
    5MOL0     H  649   0.870   2.604   8.791 -1.0512  0.8970 -0.6116
    5MOL0     H  650   1.106   2.618   8.699  0.5230  1.9199  1.3632
    5MOL0     H  651   1.080   2.480   8.812 -0.0027 -1.0357  1.4663
    5MOL0     H  652   1.343   2.507   8.853 -1.3522  0.0524  0.2568
    5MOL0     H  653   1.302   2.461   8.688  4.5969 -0.9422  1.4786
    5MOL0     H  654   1.355   2.740   8.822  0.6770 -0.5972 -0.2428
    5MOL0     H  655   1.287   2.737   8.659  1.7938  1.1781 -1.7879
    5MOL0     H  656   1.492   2.608   8.592  0.2219 -3.4904  1.7842
    5MOL0     H  657   1.532   2.771   8.657  2.7869 -1.8009  0.8238
    5MOL0     H  658   1.674   2.494   8.948  1.6383  1.4524 -0.0050
    5MOL0     H  659   1.096   2.855   9.077  2.4599 -1.2309 -2.0771
    5MOL0     H  660   0.884   2.954   9.140 -2.2809  0.2892 -0.5759
    6MOL0     O  661   3.858   3.279   4.729 -0.3683 -0.0540 -0.2348
    6MOL0     C  662   3.830   3.165   4.772 -0.0860  0.6261 -0.1499
    6MOL0     O  663   3.704   3.102   4.762 -0.6149  0.2331  0.8908
    6MOL0     C  664   3.605   3.178   4.723 -0.2274 -0.4447  0.1691
    6MOL0     C  665   3.531   3.253   4.820  0.2615 -0.5235  0.9915
    6MOL0     C  666   3.414   3.316   4.783  0.0916  0.1003  0.2142
    6MOL0     C  667   3.388   3.339   4.646  0.0752 -0.3213 -0.0088
    6MOL0     O  668   3.295   3.433   4.609 -0.3377 -0.3825 -0.0633
    6MOL0     C  669   3.212   3.496   4.706  0.4055 -0.3947 -1.3896
    6MOL0     C  670   3.113   3.600   4.640  0.1831  0.4350 -0.1173
    6MOL0     C  671   2.967   3.599   4.710  0.4650 -0.5102 -0.1490
    6MOL0     C  672   2.876   3.686   4.617 -0.2807 -0.3102  0.0989
    6MOL0     C  673   2.726   3.678   4.671  0.3881  0.1356  0.0383
    6MOL0     C  674   2.638   3.786   4.599  0.1272 -0.9460  0.6814
    6MOL0     C  675   2.492   3.776   4.645 -0.1725  0.1177 -0.3641
    6MOL0     C  676   2.395   3.860   4.563 -0.3257 -0.0395 -0.3408
    6MOL0     N  677   2.269   3.894   4.620 -0.6744 -0.0011  0.2668
    6MOL0     C  678   2.180   3.979   4.561  0.7096 -0.2621  0.5319
    6MOL0     C  679   2.073   3.980   4.651 -0.6297  0.3192  0.0678
    6MOL0     C  680   1.941   4.048   4.637  0.3692  0.0362  0.7196
    6MOL0     C  681   1.836   3.937   4.611  0.0438 -0.4422 -0.9696
    6MOL0     C  682   1.718   4.003   4.545  0.1314  0.1918 -0.5301
    6MOL0     C  683   1.601   3.904   4.546 -0.1709 -0.5153 -0.0994
    6MOL0     O  684   1.492   3.983   4.489  0.2211  0.1277  0.2635
    6MOL0     C  685   1.370   3.928   4.477 -0.3427 -0.0337  0.3718
    6MOL0     C  686   1.345   3.787   4.472 -0.2696  0.4850 -0.4799
    6MOL0     C  687   1.223   3.724   4.451  0.3459 -0.2011 -0.1012
    6MOL0     C  688   1.111   3.809   4.441 -0.8412 -1.3474 -0.2646
    6MOL0     C  689   0.974   3.759   4.432 -0.1283  0.7601  0.4914
    6MOL0     O  690   0.867   3.836   4.439  0.8464 -0.6501 -0.5338
    6MOL0     C  691   0.756   3.757   4.467 -0.3842 -0.8245  0.9482
    6MOL0     C  692   0.719   3.727   4.600 -0.1614 -0.5035  0.3316
    6MOL0     C  693   0.596   3.674   4.620 -1.0497  0.2675 -0.6866
    6MOL0     C  694   0.508   3.638   4.520 -0.7570  0.4581  0.5365
    6MOL0     O  695   0.392   3.573   4.544  0.2678 -1.1073 -0.6595
    6MOL0     C  696   0.317   3.602   4.656 -0.2127 -0.8819  0.4157
    6MOL0     C  697   0.171   3.550   4.643  0.9323  0.6749 -0.3314
    6MOL0     C  698   0.107   3.565   4.780 -0.5354  0.1911  0.1236
    6MOL0     C  699  -0.044   3.544   4.774 -0.5327  0.0878  0.2183
    6MOL0     C  700  -0.118   3.634   4.879 -0.7688 -0.0897 -0.9210
    6MOL0     C  701  -0.269   3.595   4.868 -0.4787  0.5822 -0.2638
    6MOL0     C  702  -0.361   3.662   4.972  0.0978  0.1372  0.0411
    6MOL0     C  703  -0.510   3.644   4.952  0.8286  0.4076  0.4201
    6MOL0    Cl  704  -0.578   3.479   4.983 -0.4799 -0.2164 -0.4796
    6MOL0     C  705   0.548   3.667   4.385 -0.4864  0.3254 -0.5668
    6MOL0     C  706   0.674   3.727   4.356  0.0320 -0.1056 -0.8520
    6MOL0     O  707   0.972   3.637   4.414 -0.9757  0.0905  0.2603
    6MOL0     C  708   1.132   3.951   4.446 -0.5936  0.9709  1.1239
    6MOL0     C  709   1.262   4.004   4.456  0.5421 -0.4441  0.0785
    6MOL0     N  710   2.100   3.897   4.755 -0.1929  0.3619 -1.0709
    6MOL0     N  711   2.214   3.837   4.732  0.1567 -0.0650 -0.5432
    6MOL0     C  712   3.472   3.271   4.553 -0.2170 -0.0942 -0.4096
    6MOL0     C  713   3.577   3.190   4.589  0.0208  0.3866  0.7757
    6MOL0     C  714   3.947   3.085   4.830  0.1416  0.5771 -0.4393
    6MOL0     C  715   4.077   3.125   4.798  0.0529  0.7833 -0.5598
    6MOL0     C  716   4.187   3.054   4.848 -0.2474 -0.0004 -0.5975
    6MOL0     C  717   4.161   2.930   4.922 -0.0228  0.2850  0.7498
    6MOL0     O  718   4.254   2.849   4.987  0.2864 -0.1950 -0.0793
    6MOL0     C  719   4.387   2.866   4.975  0.6697  0.4039  0.1085
    6MOL0     C  720   4.467   2.775   5.062  0.1092 -1.0209  0.0199
    6MOL0     C  721   4.615   2.748   5.007  0.7695  0.4828  0.8856
    6MOL0     C  722   4.728   2.723   5.115 -0.4350  0.4894 -0.3578
    6MOL0     C  723   4.850   2.692   5.049  0.7016 -0.0533  0.3121
    6MOL0     C  724   4.951   2.654   5.004 -0.5498 -0.3827  0.6575
    6MOL0     C  725   4.032   2.894   4.953  0.1316  0.8997  0.3132
    6MOL0     C  726   3.919   2.966   4.908  1.4120 -0.8804  0.9194
    6MOL0     H  727   3.567   3.232   4.920 -1.1564  0.2638  1.6990
    6MOL0     H  728   3.356   3.358   4.864 -3.6650 -0.1742 -2.1041
    6MOL0     H  729   3.280   3.552   4.770 -0.1919 -0.1166 -0.9883
    6MOL0     H  730   3.147   3.434   4.767  2.2832 -0.0188  1.1531
    6MOL0     H  731   3.100   3.570   4.535 -0.8214 -1.2112  0.4371
    6MOL0     H  732   3.160   3.699   4.633  2.2030 -0.5460 -1.2861
    6MOL0     H  733   2.967   3.643   4.810 -2.2283 -2.2091  0.7085
    6MOL0     H  734   2.931   3.496   4.719  2.3961 -1.2128  0.0484
    6MOL0     H  735   2.900   3.792   4.607 -0.1974 -0.4632 -1.5664
    6MOL0     H  736   2.876   3.652   4.513  1.8825 -2.0670  0.5947
    6MOL0     H  737   2.722   3.699   4.778  2.0801  0.0081  0.1500
    6MOL0     H  738   2.701   3.574   4.645  1.3369  0.5298 -2.8308
    6MOL0     H  739   2.645   3.788   4.490 -3.2519  0.8061  0.3609
    6MOL0     H  740   2.670   3.884   4.637 -1.7102 -0.3869  0.8914
    6MOL0     H  741   2.451   3.675   4.644 -0.0876  0.0830 -2.0166
    6MOL0     H  742   2.497   3.807   4.750  2.8988 -0.5052 -0.2320
    6MOL0     H  743   2.372   3.804   4.472 -1.7274  0.0641 -0.0718
    6MOL0     H  744   2.454   3.947   4.533  0.4118 -0.7464 -1.0284
    6MOL0     H  745   2.195   4.044   4.475  1.9796  1.7311  2.1524
    6MOL0     H  746   1.953   4.120   4.556  0.8441 -0.8277  0.0069
    6MOL0     H  747   1.916   4.099   4.731 -1.1421 -0.3544  0.5590
    6MOL0     H  748   1.809   3.894   4.708  0.2463  1.6275  0.0644
    6MOL0     H  749   1.863   3.852   4.548 -0.2438 -0.7375 -0.7019
    6MOL0     H  750   1.683   4.088   4.603 -2.6660  0.0733 -1.8657
    6MOL0     H  751   1.741   4.042   4.445  3.6119 -1.6831 -0.6255
    6MOL0     H  752   1.579   3.855   4.641  4.4908 -1.3823  0.7869
    6MOL0     H  753   1.635   3.821   4.483  2.7773  0.6305 -0.1939
    6MOL0     H  754   1.435   3.728   4.480  0.6914  2.0287  0.7952
    6MOL0     H  755   1.211   3.616   4.450 -1.8869 -0.0107 -1.1994
    6MOL0     H  756   0.787   3.765   4.675  0.5713 -0.8192 -0.1603
    6MOL0     H  757   0.582   3.653   4.726  2.1944  0.9556 -0.0169
    6MOL0     H  758   0.295   3.709   4.669 -0.3644 -0.5993 -1.7765
    6MOL0     H  759   0.362   3.570   4.750  0.9634  0.8437  0.4817
    6MOL0     H  760   0.164   3.445   4.616 -3.3686  0.4322  0.9847
    6MOL0     H  761   0.123   3.611   4.566  2.4217  0.9929 -1.0621
    6MOL0     H  762   0.128   3.665   4.817  0.4970 -0.7809  2.3950
    6MOL0     H  763   0.159   3.493   4.845  1.2117  0.4997 -0.8610
    6MOL0     H  764  -0.078   3.571   4.673  2.5211 -1.6575 -1.4128
    6MOL0     H  765  -0.060   3.439   4.801  0.4702  0.0973  0.8826
    6MOL0     H  766  -0.101   3.742   4.867 -1.1361 -0.1136 -1.7781
    6MOL0     H  767  -0.078   3.608   4.977 -0.8604 -1.4865 -1.2301
    6MOL0     H  768  -0.276   3.487   4.886  0.9034  0.9200  3.1217
    6MOL0     H  769  -0.297   3.620   4.766 -2.5912  0.7596  0.3192
    6MOL0     H  770  -0.334   3.654   5.078 -1.2322 -0.0606  0.3809
    6MOL0     H  771  -0.348   3.769   4.953  2.2879 -0.0712  0.0962
    6MOL0     H  772  -0.529   3.668   4.848 -0.7596  1.7664  0.9811
    6MOL0     H  773  -0.562   3.720   5.012  0.6100 -0.0158  0.7736
    6MOL0     H  774   0.475   3.639   4.309 -2.0278  0.5598  0.7750
    6MOL0     H  775   0.680   3.780   4.262  1.5357 -0.1814 -0.8186
    6MOL0     H  776   1.046   4.016   4.433 -0.9330  0.0749 -1.9924
    6MOL0     H  777   1.256   4.112   4.469 -0.5839 -0.6491  1.5660
    6MOL0     H  778   3.469   3.294   4.447 -0.0933 -0.5194 -0.5090
    6MOL0     H  779   3.627   3.138   4.508 -0.7243  1.4770 -0.4274
    6MOL0     H  780   4.100   3.218   4.746  1.3807  1.9033  1.8266
    6MOL0     H  781   4.287   3.071   4.809 -0.4142 -2.6288 -2.5330
    6MOL0     H  782   4.417   2.971   4.985  1.3968  0.2285 -0.1391
    6MOL0     H  783   4.403   2.842   4.869 -0.2851  2.5586 -0.5728
    6MOL0     H  784   4.479   2.818   5.162 -0.7305 -2.0315  0.5882
    6MOL0     H  785   4.403   2.686   5.072 -2.9868  0.9387 -0.9520
    6MOL0     H  786   4.641   2.840   4.954  0.4179  1.7009  2.7205
    6MOL0     H  787   4.609   2.666   4.935  0.6365  1.2033  0.0555
    6MOL0     H  788   4.748   2.814   5.173 -2.0124 -0.6054  2.0886
    6MOL0     H  789   4.696   2.644   5.185 -0.9796  2.1060  1.2954
    6MOL0     H  790   5.045   2.628   4.960 -0.3852  0.8928  0.2184
    6MOL0     H  791   4.020   2.801   5.008  0.2687  0.8048  0.1845
    6MOL0     H  792   3.814   2.943   4.925  0.1732  0.9052 -3.1660
    7MOL0     O  793   9.030   4.755   0.022 -0.1974  0.5983 -0.1254
    7MOL0     C  794   9.023   4.649  -0.041 -0.2813 -0.7882  0.1301
    7MOL0     O  795   9.031   4.632  -0.179 -0.0083  0.7395 -0.2292
    7MOL0     C  796   9.018   4.739  -0.266 -1.2534 -0.3968 -0.7741
    7MOL0     C  797   9.112   4.844  -0.271  0.2178 -0.5433  0.4843
    7MOL0     C  798   9.109   4.950  -0.366 -0.4613 -0.2158 -0.8752
    7MOL0     C  799   9.006   4.954  -0.457 -0.8831 -0.3935 -0.4617
    7MOL0     O  800   9.012   5.056  -0.553  0.3276  0.1705 -0.4724
    7MOL0     C  801   8.934   5.071  -0.666  0.3188  0.0084  0.1723
    7MOL0     C  802   9.000   5.175  -0.758 -0.3359 -0.2767 -0.9860
    7MOL0     C  803   8.923   5.206  -0.886  0.1224  0.2636 -0.1583
    7MOL0     C  804   8.808   5.297  -0.859  0.3378 -0.2632 -0.6429
    7MOL0     C  805   8.771   5.385  -0.979 -0.9028 -0.2043 -1.2851
    7MOL0     C  806   8.669   5.490  -0.949 -0.6829  0.4483  0.2602
    7MOL0     C  807   8.653   5.590  -1.064 -0.7574  0.1354  0.0964
    7MOL0     C  808   8.531   5.678  -1.058  1.5917  0.0624 -0.3852
    7MOL0     N  809   8.412   5.604  -1.073 -0.1720  1.6684  1.2147
    7MOL0     C  810   8.375   5.549  -1.193 -0.6028  0.0072 -0.0156
    7MOL0     C  811   8.261   5.478  -1.168 -0.5584 -0.4297 -0.3614
    7MOL0     C  812   8.184   5.404  -1.273  0.7666 -0.2965 -0.7877
    7MOL0     C  813   8.084   5.486  -1.343 -0.4043  0.6201 -0.9031
    7MOL0     C  814   8.018   5.414  -1.450  0.2390  0.3266  0.0144
    7MOL0     C  815   7.940   5.513  -1.537 -0.3831  0.3858  0.3303
    7MOL0     O  816   7.852   5.599  -1.459 -0.3070  0.5369  0.0958
    7MOL0     C  817   7.727   5.563  -1.429  0.8948  1.3393  0.4378
    7MOL0     C  818   7.681   5.425  -1.431 -1.4574 -0.4272 -0.4753
    7MOL0     C  819   7.555   5.398  -1.387  0.3651  0.2885 -0.3614
    7MOL0     C  820   7.456   5.489  -1.342  0.2107  0.9317  0.0965
    7MOL0     C  821   7.318   5.454  -1.319 -0.1168 -0.6150  1.3803
    7MOL0     O  822   7.286   5.340  -1.392 -0.4515  1.2389  0.7855
    7MOL0     C  823   7.159   5.296  -1.397 -0.1907  0.5481 -1.0230
    7MOL0     C  824   7.140   5.161  -1.369  0.8891 -0.5791 -0.1429
    7MOL0     C  825   7.017   5.101  -1.400  0.4093  0.2573  0.6219
    7MOL0     C  826   6.909   5.178  -1.443 -1.0756  0.1212  0.3045
    7MOL0     O  827   6.787   5.118  -1.464 -0.3622  0.1180 -0.8099
    7MOL0     C  828   6.666   5.181  -1.406 -0.7135  0.8793  0.4952
    7MOL0     C  829   6.560   5.080  -1.388  0.3362 -0.2534 -0.3541
    7MOL0     C  830   6.507   5.026  -1.519 -0.1926  0.2627 -0.3701
    7MOL0     C  831   6.410   5.124  -1.582 -0.0701  0.1904 -0.1851
    7MOL0     C  832   6.376   5.083  -1.728 -0.0192  0.5600 -0.8491
    7MOL0     C  833   6.247   5.144  -1.787  0.1770  1.1090  0.0681
    7MOL0     C  834   6.112   5.147  -1.704  0.5980 -0.7034 -0.4658
    7MOL0     C  835   6.067   5.006  -1.672  1.1393 -0.1947 -1.1541
    7MOL0    Cl  836   5.919   5.029  -1.578 -0.3306 -0.0418 -0.1073
    7MOL0     C  837   6.927   5.316  -1.462 -1.1018  0.3620  0.3811
    7MOL0     C  838   7.051   5.375  -1.432  0.7400  1.1086  0.8326
    7MOL0     O  839   7.244   5.515  -1.246 -0.0624 -0.1317 -0.7095
    7MOL0     C  840   7.504   5.620  -1.340  1.5852  0.0694 -1.1578
    7MOL0     C  841   7.637   5.652  -1.382  0.8440 -0.6666 -1.1980
    7MOL0     N  842   8.245   5.478  -1.026 -0.1413 -0.4058 -0.0949
    7MOL0     N  843   8.338   5.552  -0.972 -0.4271  0.0037  0.1953
    7MOL0     C  844   8.904   4.861  -0.447  0.0541  0.8438 -0.3434
    7MOL0     C  845   8.904   4.756  -0.353  0.3015  0.1319 -0.6203
    7MOL0     C  846   9.044   4.522   0.038 -0.0322  0.0297 -0.0181
    7MOL0     C  847   9.122   4.425  -0.013 -0.2721  0.1323  0.3908
    7MOL0     C  848   9.156   4.317   0.071 -0.3678  0.3240  1.0401
    7MOL0     C  849   9.100   4.298   0.200  1.2651  0.8279  0.4510
    7MOL0     O  850   9.141   4.201   0.284 -0.5034  0.2478 -0.3420
    7MOL0     C  851   9.183   4.067   0.239  0.5098 -0.0748 -0.0999
    7MOL0     C  852   9.084   3.966   0.310 -0.6333  0.3701 -0.0117
    7MOL0     C  853   9.113   3.820   0.273  0.5863 -0.3651 -0.5849
    7MOL0     C  854   8.993   3.724   0.290  0.3171 -0.7275  0.3350
    7MOL0     C  855   8.944   3.686   0.428  0.5343  0.0751  0.5104
    7MOL0     C  856   8.887   3.679   0.531 -0.0684  0.4867  0.1808
    7MOL0     C  857   9.024   4.407   0.253  0.3168 -0.1860 -0.9075
    7MOL0     C  858   8.986   4.514   0.170  0.1581  0.0523 -0.0828
    7MOL0     H  859   9.199   4.843  -0.205  1.9070  0.1484 -1.5947
    7MOL0     H  860   9.191   5.022  -0.373  0.9527 -1.7172 -0.3619
    7MOL0     H  861   8.830   5.099  -0.649 -1.5377 -2.3829 -4.9432
    7MOL0     H  862   8.932   4.974  -0.717  1.2812 -1.0635  2.0833
    7MOL0     H  863   9.092   5.131  -0.799  0.0906  0.6438 -1.0531
    7MOL0     H  864   9.021   5.268  -0.704 -1.5388 -2.3532  3.4737
    7MOL0     H  865   8.885   5.116  -0.936  0.4060  1.7519 -3.3199
    7MOL0     H  866   8.995   5.260  -0.948  0.9128 -2.1859 -1.5274
    7MOL0     H  867   8.722   5.239  -0.822 -0.1978  0.2447 -1.0694
    7MOL0     H  868   8.837   5.360  -0.775 -0.5457 -2.2807  1.2920
    7MOL0     H  869   8.734   5.320  -1.058 -2.5855  0.0761 -0.7696
    7MOL0     H  870   8.866   5.429  -1.012  1.0648 -0.5434  3.1043
    7MOL0     H  871   8.690   5.552  -0.861  3.2308  0.2356 -0.3596
    7MOL0     H  872   8.575   5.436  -0.936 -0.4967 -0.1225 -0.6894
    7MOL0     H  873   8.744   5.648  -1.050  0.8057 -2.1647 -0.0879
    7MOL0     H  874   8.654   5.540  -1.161  4.9313 -0.9158  0.3861
    7MOL0     H  875   8.536   5.765  -1.124 -1.1176  1.4675  1.0642
    7MOL0     H  876   8.519   5.730  -0.962 -1.9826 -2.6912  0.8775
    7MOL0     H  877   8.437   5.563  -1.281 -1.1527  3.3590 -0.0063
    7MOL0     H  878   8.121   5.331  -1.221  2.4384  0.2436  2.2223
    7MOL0     H  879   8.257   5.359  -1.340  0.8634 -1.0605 -0.1780
    7MOL0     H  880   8.128   5.582  -1.373  1.0807  0.5123  0.7783
    7MOL0     H  881   8.011   5.509  -1.264  0.9646 -2.2236  1.3729
    7MOL0     H  882   8.089   5.365  -1.517 -2.3671 -1.1729 -1.8593
    7MOL0     H  883   7.957   5.333  -1.409 -1.2040  2.5307  2.5175
    7MOL0     H  884   7.890   5.454  -1.614 -1.2535 -1.0252  1.8922
    7MOL0     H  885   8.012   5.580  -1.585  1.2055 -0.0717  1.9267
    7MOL0     H  886   7.752   5.351  -1.468  0.9255  1.9108 -0.9018
    7MOL0     H  887   7.521   5.296  -1.404 -0.8529  0.9564 -2.2906
    7MOL0     H  888   7.231   5.109  -1.340  2.1875  1.7381  0.1909
    7MOL0     H  889   6.998   4.995  -1.384 -0.2842  0.1319 -0.8145
    7MOL0     H  890   6.644   5.262  -1.476  2.2337 -0.0114 -1.6654
    7MOL0     H  891   6.684   5.214  -1.304 -1.2738  1.2310  0.4852
    7MOL0     H  892   6.477   5.121  -1.329  0.5375  0.5446 -0.6055
    7MOL0     H  893   6.600   4.996  -1.330 -0.2793  1.2058  2.3419
    7MOL0     H  894   6.449   4.936  -1.497  0.8190 -0.0603  1.1269
    7MOL0     H  895   6.588   5.007  -1.591 -0.6972  1.8997 -1.4209
    7MOL0     H  896   6.318   5.118  -1.523  0.9546 -1.1127  1.3330
    7MOL0     H  897   6.434   5.231  -1.583  0.6925  0.0390  0.7473
    7MOL0     H  898   6.355   4.976  -1.723 -4.9849  1.2540  4.7237
    7MOL0     H  899   6.462   5.105  -1.792 -1.2966  2.5742 -1.9890
    7MOL0     H  900   6.232   5.101  -1.887  0.7148  2.1697 -0.4940
    7MOL0     H  901   6.269   5.249  -1.809  1.5212  0.4449 -2.1585
    7MOL0     H  902   6.117   5.213  -1.617 -2.1308 -2.3280  1.0688
    7MOL0     H  903   6.038   5.198  -1.767  0.6931 -0.6033 -0.4978
    7MOL0     H  904   6.144   4.959  -1.611  0.8573 -1.0435 -1.4511
    7MOL0     H  905   6.041   4.944  -1.758  0.1345  0.4040 -1.3004
    7MOL0     H  906   6.845   5.369  -1.509 -0.0015  0.0544 -2.0797
    7MOL0     H  907   7.069   5.480  -1.454 -1.9639  1.8173  1.6241
    7MOL0     H  908   7.429   5.691  -1.307  1.7545  0.1536 -0.9495
    7MOL0     H  909   7.673   5.754  -1.385  3.0221 -1.0701  3.1656
    7MOL0     H  910   8.821   4.861  -0.516  1.2320  3.3120 -1.9102
    7MOL0     H  911   8.823   4.684  -0.359 -0.0798  0.5690 -0.7177
    7MOL0     H  912   9.152   4.425  -0.117 -1.8635  0.3251 -0.0885
    7MOL0     H  913   9.241   4.258   0.038  1.9148  4.3217 -1.0730
    7MOL0     H  914   9.287   4.042   0.263  0.0285 -0.5341  1.6965
    7MOL0     H  915   9.178   4.056   0.130 -0.1419  4.0562 -0.6575
    7MOL0     H  916   9.093   3.973   0.418 -3.6173  1.2942  0.2649
    7MOL0     H  917   8.985   4.004   0.283 -0.2765  1.3662  0.0712
    7MOL0     H  918   9.201   3.773   0.318 -0.4528  0.1522  2.2678
    7MOL0     H  919   9.138   3.826   0.167 -3.6135  4.6418 -1.6820
    7MOL0     H  920   8.907   3.767   0.239  1.5570 -0.0588 -1.3024
    7MOL0     H  921   9.031   3.632   0.243  1.5329 -0.6195  1.0401
    7MOL0     H  922   8.831   3.655   0.619 -0.9662 -0.6552 -0.6600
    7MOL0     H  923   8.991   4.417   0.356  0.6495 -1.5905 -0.6413
    7MOL0     H  924   8.916   4.593   0.193 -2.8911 -2.2952 -0.6959
    8MOL0     O  925   3.016  10.486   2.141 -0.3610 -1.2509 -0.1417
    8MOL0     C  926   3.038  10.436   2.251  0.1131  0.0294  1.0190
    8MOL0     O  927   2.989  10.330   2.304  0.2442  0.4208  0.0250
    8MOL0     C  928   2.894  10.265   2.234  0.3835  0.0541  0.2290
    8MOL0     C  929   2.906  10.133   2.189  0.1879 -0.6458 -0.4814
    8MOL0     C  930   2.805  10.078   2.116 -0.4107 -0.0941  0.3890
    8MOL0     C  931   2.689  10.149   2.072 -0.1134  0.8587  0.5663
    8MOL0     O  932   2.590  10.076   2.007  0.0692  0.0705  0.0582
    8MOL0     C  933   2.468  10.132   1.973  0.0158 -0.1359  1.1254
    8MOL0     C  934   2.353  10.071   2.058  0.9868 -0.1623 -0.1903
    8MOL0     C  935   2.211  10.085   2.011 -0.4304 -1.0905 -0.9118
    8MOL0     C  936   2.126  10.056   2.137 -0.3621 -0.6393 -0.1203
    8MOL0     C  937   1.974  10.058   2.119 -0.2704  0.0101 -0.1790
    8MOL0     C  938   1.908  10.190   2.076  0.4217 -0.4899  0.7303
    8MOL0     C  939   1.758  10.189   2.120 -0.1960 -0.0463 -0.2567
    8MOL0     C  940   1.660  10.299   2.059 -0.4287 -0.5359  0.3806
    8MOL0     N  941   1.530  10.286   2.131 -0.3034 -0.4461 -0.1547
    8MOL0     C  942   1.441  10.183   2.107 -0.1813  0.1614  0.1764
    8MOL0     C  943   1.358  10.190   2.213 -0.7243 -0.2717 -0.8633
    8MOL0     C  944   1.248  10.088   2.215  0.8822  0.0101  0.0546
    8MOL0     C  945   1.120  10.149   2.273  0.2162 -0.0188 -0.3408
    8MOL0     C  946   1.032  10.226   2.170 -0.2818 -0.1116 -0.8719
    8MOL0     C  947   0.917  10.285   2.258  0.6298  0.2106  0.0294
    8MOL0     O  948   0.817  10.178   2.273  0.1071 -0.5801 -0.2855
    8MOL0     C  949   0.705  10.200   2.347  0.0621  0.9386 -1.3655
    8MOL0     C  950   0.685  10.319   2.412  0.3067 -0.1893 -0.2178
    8MOL0     C  951   0.551  10.328   2.476  0.2910 -0.3276 -0.5860
    8MOL0     C  952   0.454  10.225   2.470  0.2614  0.1904  0.3010
    8MOL0     C  953   0.324  10.250   2.539 -0.7715  0.3069 -0.2094
    8MOL0     O  954   0.236  10.150   2.514  0.3264 -0.8378 -0.5156
    8MOL0     C  955   0.114  10.152   2.586 -0.7398  0.4123 -0.1125
    8MOL0     C  956   0.027  10.265   2.581 -0.5364  0.2597 -0.5343
    8MOL0     C  957  -0.108  10.256   2.611 -0.4114  0.1226  0.6277
    8MOL0     C  958  -0.153  10.138   2.682 -0.7606 -1.0122 -0.0139
    8MOL0     O  959  -0.281  10.120   2.713  0.1232  0.4574 -0.3836
    8MOL0     C  960  -0.355  10.241   2.733  0.7966  0.4885 -1.1020
    8MOL0     C  961  -0.458  10.230   2.846  0.5545  0.3644  0.1501
    8MOL0     C  962  -0.552  10.112   2.800 -0.2498  0.0985 -0.0199
    8MOL0     C  963  -0.647  10.066   2.915 -0.1447  0.2368 -0.5151
    8MOL0     C  964  -0.736  10.173   2.981 -0.4955 -0.2544  0.0044
    8MOL0     C  965  -0.835  10.107   3.086  0.6534  0.0091  1.0882
    8MOL0     C  966  -0.920  10.220   3.153  0.3176  1.3105 -0.4698
    8MOL0     C  967  -1.044  10.152   3.207  0.1205  0.1056  0.8922
    8MOL0    Cl  968  -1.159  10.286   3.260  0.4497 -0.6716 -0.2886
    8MOL0     C  969  -0.066  10.028   2.699  0.1142 -0.3979 -0.3042
    8MOL0     C  970   0.065  10.034   2.642 -0.5967  0.4481 -0.0405
    8MOL0     O  971   0.315  10.337   2.621  0.2801  0.2677  1.5296
    8MOL0     C  972   0.487  10.107   2.407 -0.7354  0.7002  0.0606
    8MOL0     C  973   0.621  10.091   2.361 -0.0596  0.6913  0.5489
    8MOL0     N  974   1.402  10.295   2.300  0.6248  0.9860  1.0501
    8MOL0     N  975   1.508  10.349   2.248 -0.6553 -0.4470  0.0956
    8MOL0     C  976   2.673  10.281   2.120  0.4021  0.2819  0.3803
    8MOL0     C  977   2.774  10.332   2.204  0.2607 -0.4374  0.8244
    8MOL0     C  978   3.148  10.505   2.322 -0.0556 -0.9634  0.4554
    8MOL0     C  979   3.224  10.612   2.256  0.2002 -0.5768  0.0372
    8MOL0     C  980   3.335  10.670   2.318  0.7962 -0.1121 -0.3246
    8MOL0     C  981   3.346  10.653   2.459  1.4486 -0.4874 -0.2041
    8MOL0     O  982   3.431  10.735   2.523 -0.8008  0.2242 -0.3413
    8MOL0     C  983   3.554  10.674   2.558  0.3512 -0.2403  0.3963
    8MOL0     C  984   3.633  10.788   2.620 -0.3988 -0.5853  0.5369
    8MOL0     C  985   3.750  10.729   2.682  0.5003 -0.0415 -0.8497
    8MOL0     C  986   3.860  10.830   2.713  0.9059 -0.1906  0.2789
    8MOL0     C  987   3.965  10.766   2.796  0.7745  0.5752  0.5243
    8MOL0     C  988   4.048  10.722   2.873 -0.0246  0.1316 -0.2897
    8MOL0     C  989   3.260  10.557   2.528  0.1140  0.1149 -0.3293
    8MOL0     C  990   3.174  10.481   2.457  0.0042  0.1802  0.5037
    8MOL0     H  991   2.992  10.071   2.209 -2.4107 -4.9532 -1.3168
    8MOL0     H  992   2.820   9.973   2.089  1.0983  0.1698  0.1302
    8MOL0     H  993   2.452  10.109   1.868  1.6380 -0.8521  1.0105
    8MOL0     H  994   2.457  10.241   1.977  0.3511 -0.0983  1.0939
    8MOL0     H  995   2.367  10.116   2.157  1.1398  1.3164 -0.8450
    8MOL0     H  996   2.368   9.963   2.050 -4.1049 -1.0136 -1.8854
    8MOL0     H  997   2.187  10.014   1.931  3.1958  0.0390 -3.2599
    8MOL0     H  998   2.192  10.180   1.960  0.7024 -0.0517  0.5338
    8MOL0     H  999   2.150   9.953   2.165  1.7335 -1.7783 -5.0245
    8MOL0     H 1000   2.139  10.131   2.215  1.0853 -1.9015  0.9212
    8MOL0     H 1001   1.933  10.030   2.216 -1.9735  0.6294 -0.6778
    8MOL0     H 1002   1.946   9.975   2.054  0.5346 -2.0781  1.9995
    8MOL0     H 1003   1.926  10.203   1.968  0.7748 -0.9436  0.7347
    8MOL0     H 1004   1.970  10.270   2.118 -0.5093  1.1464 -0.8640
    8MOL0     H 1005   1.721  10.086   2.107  1.5693 -0.7589  0.0804
    8MOL0     H 1006   1.754  10.195   2.229  3.0854 -1.7666  0.0898
    8MOL0     H 1007   1.647  10.288   1.951  1.1804  2.0524 -0.1897
    8MOL0     H 1008   1.686  10.404   2.075  0.1005 -0.1623 -2.5012
    8MOL0     H 1009   1.447  10.126   2.015  0.7597  3.1763 -1.8014
    8MOL0     H 1010   1.270   9.999   2.275 -1.2290  0.7843  2.1656
    8MOL0     H 1011   1.230  10.055   2.113 -1.4594 -1.3886  0.8307
    8MOL0     H 1012   1.155  10.217   2.351 -0.2260 -1.5052  1.2230
    8MOL0     H 1013   1.056  10.075   2.322 -1.2280  0.7197 -1.0500
    8MOL0     H 1014   1.084  10.310   2.122  0.1212  0.3291  0.2966
    8MOL0     H 1015   0.983  10.161   2.097  0.9640  0.7230 -2.5262
    8MOL0     H 1016   0.869  10.372   2.212 -0.5946 -0.7099 -0.4857
    8MOL0     H 1017   0.954  10.326   2.352 -0.8512  0.0994  0.6952
    8MOL0     H 1018   0.757  10.400   2.420  2.6252 -2.2490  1.8563
    8MOL0     H 1019   0.521  10.416   2.533  2.3959  1.4611 -2.0231
    8MOL0     H 1020   0.071  10.344   2.521  1.0202  0.1276  0.3704
    8MOL0     H 1021  -0.175  10.336   2.581 -1.2523 -1.2076 -1.3035
    8MOL0     H 1022  -0.382  10.280   2.634 -0.7797  0.8530 -0.5634
    8MOL0     H 1023  -0.288  10.316   2.775 -2.9038  2.0956  2.6290
    8MOL0     H 1024  -0.519  10.319   2.863 -1.0091 -0.9497  1.7437
    8MOL0     H 1025  -0.410  10.211   2.942 -1.3708  1.0810  1.2898
    8MOL0     H 1026  -0.497  10.024   2.764 -0.9078 -1.8272  3.3176
    8MOL0     H 1027  -0.608  10.152   2.715 -0.4169  0.0400  0.0631
    8MOL0     H 1028  -0.715   9.994   2.868 -0.9382  0.4060  0.3397
    8MOL0     H 1029  -0.587  10.025   2.996 -1.4452 -1.0261 -0.1462
    8MOL0     H 1030  -0.794  10.218   2.899 -1.1998 -1.3705 -0.1339
    8MOL0     H 1031  -0.678  10.249   3.033  0.7723 -0.1278 -1.5082
    8MOL0     H 1032  -0.793  10.043   3.164  1.7296  1.0372  1.3742
    8MOL0     H 1033  -0.893  10.039   3.023  0.2701  0.3624  1.0522
    8MOL0     H 1034  -0.867  10.259   3.240  1.8856 -0.1794 -0.7017
    8MOL0     H 1035  -0.955  10.294   3.080  1.9442  0.9949 -1.6224
    8MOL0     H 1036  -1.015  10.076   3.280  3.3786  0.2265 -0.1394
    8MOL0     H 1037  -1.087  10.097   3.123 -1.1621  1.1757  0.8231
    8MOL0     H 1038  -0.105   9.943   2.754 -0.6517  0.4499  0.5204
    8MOL0     H 1039   0.136   9.952   2.645 -1.9237 -0.7249  0.4465
    8MOL0     H 1040   0.424  10.019   2.395  1.7430 -1.1081 -0.4086
    8MOL0     H 1041   0.639   9.998   2.309 -1.6821  1.6435 -1.8806
    8MOL0     H 1042   2.586  10.340   2.094  1.4495  1.2416 -1.1040
    8MOL0     H 1043   2.765  10.435   2.238  3.3277 -0.4409  1.9371
    8MOL0     H 1044   3.195  10.637   2.155 -0.9431 -0.9079  0.2713
    8MOL0     H 1045   3.394  10.750   2.273  1.7096 -0.7209 -0.2444
    8MOL0     H 1046   3.601  10.648   2.463 -2.8287 -0.0550 -1.3788
    8MOL0     H 1047   3.537  10.589   2.624  0.4310 -3.9666 -3.9262
    8MOL0     H 1048   3.662  10.858   2.542  1.2632  0.5159  2.0575
    8MOL0     H 1049   3.569  10.837   2.694  0.2500  1.2294 -0.0541
    8MOL0     H 1050   3.791  10.672   2.598  2.1955  4.1974 -3.2338
    8MOL0     H 1051   3.720  10.677   2.773  2.6201  1.2270  0.6807
    8MOL0     H 1052   3.900  10.878   2.623  0.2361 -2.2737 -1.2196
    8MOL0     H 1053   3.820  10.911   2.774  1.6482 -0.6106  1.3619
    8MOL0     H 1054   4.112  10.695   2.954  0.3273 -0.0875 -0.6419
    8MOL0     H 1055   3.276  10.553   2.635  2.8114  1.7530 -0.5863
    8MOL0     H 1056   3.116  10.409   2.514 -1.9086  0.6057 -0.7997
    9MOL0     O 1057  10.783   7.562   9.108  0.1360 -0.2647 -0.2791
    9MOL0     C 1058  10.837   7.569   8.997 -0.3749  0.0410  0.0220
    9MOL0     O 1059  10.769   7.581   8.871 -0.7166  0.6560 -0.5754
    9MOL0     C 1060  10.631   7.573   8.880  0.6343  0.7473 -0.1334
    9MOL0     C 1061  10.570   7.452   8.873  0.9344 -0.3277  0.2614
    9MOL0     C 1062  10.437   7.435   8.897 -0.5379  0.1191  0.0894
    9MOL0     C 1063  10.358   7.545   8.925 -0.4389 -0.1692 -0.1725
    9MOL0     O 1064  10.229   7.517   8.951  0.0299  0.0430 -0.6369
    9MOL0     C 1065  10.145   7.622   8.910  0.3234  0.1731 -0.0457
    9MOL0     C 1066  10.003   7.582   8.871 -0.4713  0.5285 -0.2651
    9MOL0     C 1067   9.915   7.561   8.998  0.2552 -0.0128  0.3504
    9MOL0     C 1068   9.913   7.677   9.097 -0.4495  0.8741  0.1207
    9MOL0     C 1069   9.807   7.653   9.208 -0.1157  0.3822  0.7395
    9MOL0     C 1070   9.673   7.714   9.159 -0.7640  1.0404 -0.0268
    9MOL0     C 1071   9.577   7.714   9.270 -0.2542 -0.0655  0.5599
    9MOL0     C 1072   9.470   7.814   9.248  0.6495 -0.0548  0.0089
    9MOL0     N 1073   9.386   7.831   9.368  0.1517  0.2410  0.1702
    9MOL0     C 1074   9.316   7.732   9.440  0.3575  0.0672  1.0129
    9MOL0     C 1075   9.270   7.791   9.550  0.9091 -0.1744 -0.2118
    9MOL0     C 1076   9.186   7.723   9.659 -0.2490 -0.3328  0.6052
    9MOL0     C 1077   9.037   7.727   9.622 -0.4174  0.3141  0.2011
    9MOL0     C 1078   8.960   7.627   9.709 -0.6129  0.4347 -0.6694
    9MOL0     C 1079   8.816   7.653   9.740 -0.6098  0.5350  0.1469
    9MOL0     O 1080   8.788   7.785   9.786 -0.6061 -0.7853  0.0732
    9MOL0     C 1081   8.660   7.836   9.776  0.6544 -0.4815 -1.0542
    9MOL0     C 1082   8.640   7.971   9.794 -0.4058  0.4111 -0.3379
    9MOL0     C 1083   8.512   8.036   9.792 -0.3458 -0.8049 -0.6410
    9MOL0     C 1084   8.398   7.955   9.762  0.0796 -0.5596 -0.1600
    9MOL0     C 1085   8.269   8.034   9.744  0.8448  0.4521  0.3194
    9MOL0     O 1086   8.261   8.163   9.786  0.2112  0.1810 -0.9200
    9MOL0     C 1087   8.138   8.218   9.779  0.2841  0.0435 -1.0276
    9MOL0     C 1088   8.078   8.260   9.648 -1.7019  0.2357 -0.2292
    9MOL0     C 1089   7.956   8.320   9.650 -0.8329 -0.2743 -0.2522
    9MOL0     C 1090   7.892   8.362   9.764 -0.7013 -0.1560  0.4286
    9MOL0     O 1091   7.772   8.421   9.762  0.1064 -0.4336 -0.3801
    9MOL0     C 1092   7.788   8.568   9.792 -0.9504  0.1597  0.0240
    9MOL0     C 1093   7.649   8.620   9.829  0.7410  0.1472 -0.2449
    9MOL0     C 1094   7.606   8.571   9.973 -0.5832 -0.6652  0.1387
    9MOL0     C 1095   7.473   8.634   9.992 -0.6595  0.2008  0.3258
    9MOL0     C 1096   7.396   8.570  10.115 -0.3723  0.6836 -0.3029
    9MOL0     C 1097   7.259   8.624  10.139 -0.1026 -0.0229  0.3610
    9MOL0     C 1098   7.154   8.576  10.042  0.4192 -0.4944  0.0035
    9MOL0     C 1099   7.001   8.592  10.079 -0.1160  0.1316 -0.3051
    9MOL0    Cl 1100   6.965   8.757  10.125  0.2070 -0.2703 -0.1516
    9MOL0     C 1101   7.948   8.324   9.887 -0.6011 -0.1583  0.1716
    9MOL0     C 1102   8.076   8.262   9.902  0.2748  1.5748  0.7547
    9MOL0     O 1103   8.174   7.972   9.689 -0.1949  0.6010  1.0371
    9MOL0     C 1104   8.418   7.812   9.757 -0.2507  0.7891  0.2117
    9MOL0     C 1105   8.545   7.751   9.760  0.3753  0.1082  0.5918
    9MOL0     N 1106   9.307   7.925   9.549  0.0564 -0.2125  0.1340
    9MOL0     N 1107   9.376   7.952   9.441 -0.2915  0.5230 -0.3588
    9MOL0     C 1108  10.418   7.670   8.928 -0.5984 -0.7065 -0.1812
    9MOL0     C 1109  10.552   7.687   8.900 -0.0231  0.4354 -0.1079
    9MOL0     C 1110  10.988   7.561   8.992 -0.4771  0.1994  0.0812
    9MOL0     C 1111  11.067   7.495   9.086 -0.2405 -0.0863  0.2983
    9MOL0     C 1112  11.207   7.489   9.075  0.6331 -0.1129 -0.1548
    9MOL0     C 1113  11.269   7.534   8.960 -0.2006 -0.6319  0.1639
    9MOL0     O 1114  11.402   7.531   8.963 -0.7622 -0.0203 -0.0573
    9MOL0     C 1115  11.462   7.649   8.912 -0.1273  0.2093 -0.8460
    9MOL0     C 1116  11.580   7.677   8.999  0.0230 -0.2349  0.2113
    9MOL0     C 1117  11.700   7.741   8.929 -0.0582  0.6312  0.2952
    9MOL0     C 1118  11.794   7.634   8.863  0.7945 -0.7224 -0.4207
    9MOL0     C 1119  11.931   7.685   8.831  0.1264  0.0640 -0.3136
    9MOL0     C 1120  12.038   7.737   8.816 -0.1357  1.0310  0.1447
    9MOL0     C 1121  11.185   7.575   8.855 -0.4535 -0.1264 -0.0421
    9MOL0     C 1122  11.054   7.593   8.872  0.5725 -0.3207  0.3463
    9MOL0     H 1123  10.627   7.363   8.850 -1.8020 -1.6086 -2.2118
    9MOL0     H 1124  10.392   7.339   8.874 -0.8149  0.4479 -0.7787
    9MOL0     H 1125  10.188   7.663   8.818 -1.8462  0.5730 -0.9420
    9MOL0     H 1126  10.147   7.699   8.988  2.4744 -0.6431  0.7808
    9MOL0     H 1127  10.010   7.484   8.822  0.3119  1.6051 -2.4315
    9MOL0     H 1128   9.954   7.645   8.796 -1.0721  1.7643  1.1145
    9MOL0     H 1129   9.956   7.476   9.052  0.2823  0.5458  1.2240
    9MOL0     H 1130   9.816   7.535   8.960 -0.3350 -1.5562  2.7784
    9MOL0     H 1131  10.001   7.652   9.157 -0.6358 -0.9268 -0.2984
    9MOL0     H 1132   9.918   7.776   9.050 -1.9700  0.5548 -0.7783
    9MOL0     H 1133   9.837   7.695   9.304  1.8432 -0.0448  0.3541
    9MOL0     H 1134   9.780   7.547   9.214 -0.1369  0.3631  0.3150
    9MOL0     H 1135   9.629   7.651   9.080 -0.4937 -0.8887  1.2999
    9MOL0     H 1136   9.688   7.814   9.118 -1.2053  0.4213 -1.8135
    9MOL0     H 1137   9.537   7.613   9.283 -0.8284  0.4213  3.1601
    9MOL0     H 1138   9.611   7.740   9.370  0.6399 -0.0443  0.2552
    9MOL0     H 1139   9.401   7.765   9.179  0.0134  0.1712  0.4770
    9MOL0     H 1140   9.503   7.915   9.221 -0.5204  0.8822  1.9138
    9MOL0     H 1141   9.300   7.631   9.404  1.4135  0.1565  0.2361
    9MOL0     H 1142   9.192   7.761   9.761 -2.2336  0.0202  0.6429
    9MOL0     H 1143   9.216   7.618   9.659 -0.7022 -0.4763  2.1238
    9MOL0     H 1144   9.011   7.711   9.517 -0.0913  0.4908  0.0945
    9MOL0     H 1145   9.013   7.830   9.649  0.6367  0.2549  1.4655
    9MOL0     H 1146   8.977   7.528   9.665  1.6058 -0.2087  1.3915
    9MOL0     H 1147   9.018   7.619   9.802 -0.0557 -0.4886 -1.0723
    9MOL0     H 1148   8.773   7.579   9.808 -0.3328  0.0990 -0.1513
    9MOL0     H 1149   8.770   7.629   9.644  1.6339 -1.2585 -0.5759
    9MOL0     H 1150   8.731   8.027   9.811 -2.0446  2.3081  3.5875
    9MOL0     H 1151   8.513   8.145   9.792  1.9417 -0.7697  0.2132
    9MOL0     H 1152   8.134   8.232   9.560  2.3081  0.7773  1.9280
    9MOL0     H 1153   7.909   8.343   9.556 -1.2396 -3.6342 -0.9832
    9MOL0     H 1154   7.825   8.615   9.701 -0.5657 -2.4585 -1.2835
    9MOL0     H 1155   7.857   8.591   9.874  0.7281  1.2397 -1.6288
    9MOL0     H 1156   7.568   8.581   9.768  2.3949 -3.4927 -0.3943
    9MOL0     H 1157   7.648   8.729   9.822  2.4164  0.1168 -1.6187
    9MOL0     H 1158   7.681   8.597  10.048 -0.0861 -0.1642 -0.5082
    9MOL0     H 1159   7.596   8.463   9.980  0.9678 -0.7872  0.8319
    9MOL0     H 1160   7.490   8.741  10.009  1.8553  0.0100 -0.6159
    9MOL0     H 1161   7.409   8.617   9.904 -1.1633 -1.4732  0.9695
    9MOL0     H 1162   7.448   8.598  10.207 -1.0997 -1.3783  0.7748
    9MOL0     H 1163   7.390   8.461  10.114  1.8754  0.5010 -1.9322
    9MOL0     H 1164   7.257   8.734  10.136 -0.6890 -0.0374 -2.0437
    9MOL0     H 1165   7.237   8.609  10.245  0.1884 -0.9632  0.2985
    9MOL0     H 1166   7.171   8.640   9.956  3.9207 -0.1791  0.7934
    9MOL0     H 1167   7.177   8.473  10.015 -1.7364 -0.4262 -2.4521
    9MOL0     H 1168   6.988   8.511  10.152  1.6885 -1.1275 -1.2968
    9MOL0     H 1169   6.939   8.565   9.993 -3.0717  1.8417  1.1085
    9MOL0     H 1170   7.886   8.344   9.974 -2.3468 -0.9043 -0.8576
    9MOL0     H 1171   8.124   8.227   9.993 -0.1227  1.2433  0.8429
    9MOL0     H 1172   8.341   7.740   9.731 -0.9860  1.3184  0.8559
    9MOL0     H 1173   8.548   7.643   9.749 -1.9986  0.1161 -0.7351
    9MOL0     H 1174  10.364   7.762   8.951 -1.5761 -1.4551  0.6001
    9MOL0     H 1175  10.600   7.784   8.894 -1.1916  1.0765  0.3795
    9MOL0     H 1176  11.018   7.462   9.177 -1.8146  0.5791 -0.2751
    9MOL0     H 1177  11.257   7.454   9.165 -1.5186  0.3969  1.3248
    9MOL0     H 1178  11.398   7.737   8.917 -0.0636  0.1749  2.5544
    9MOL0     H 1179  11.497   7.621   8.812 -0.1089 -0.7374 -0.5829
    9MOL0     H 1180  11.540   7.737   9.082  0.8694  2.9021 -1.4559
    9MOL0     H 1181  11.617   7.583   9.040  0.5991 -0.4650 -0.8044
    9MOL0     H 1182  11.761   7.786   9.008  2.6010 -0.6225 -0.8958
    9MOL0     H 1183  11.671   7.820   8.859  0.1659 -0.3099 -0.8947
    9MOL0     H 1184  11.816   7.548   8.927 -0.6443 -0.4656  0.4678
    9MOL0     H 1185  11.749   7.607   8.767  2.5139 -0.2098 -1.3955
    9MOL0     H 1186  12.130   7.774   8.776  1.0990 -2.6748 -0.8296
    9MOL0     H 1187  11.227   7.599   8.757  0.8124 -1.3501  0.1777
    9MOL0     H 1188  10.995   7.645   8.797 -1.0095 -2.7757 -0.2283
   10MOL0     O 1189   8.459   2.162   6.209  0.2923 -0.4058 -0.1201
   10MOL0     C 1190   8.493   2.140   6.091  0.6177  0.6999  0.5746
   10MOL0     O 1191   8.402   2.149   5.982 -0.1667 -0.6807 -0.4705
   10MOL0     C 1192   8.283   2.194   6.035  0.2115 -0.2816  0.0117
   10MOL0     C 1193   8.248   2.330   6.042  0.2638 -0.1346 -0.0097
   10MOL0     C 1194   8.114   2.369   6.061  0.9031 -0.9745  0.0162
   10MOL0     C 1195   8.014   2.272   6.075 -0.0220  0.3288  0.7647
   10MOL0     O 1196   7.884   2.316   6.077  0.3988  0.3193 -0.4081
   10MOL0     C 1197   7.782   2.211   6.074 -0.1230 -0.3238 -0.0207
   10MOL0     C 1198   7.643   2.268   6.043  0.5936 -0.8074  0.2521
   10MOL0     C 1199   7.526   2.173   6.078  0.2795  0.6192  0.1055
   10MOL0     C 1200   7.400   2.216   6.015 -0.4078  0.1885  0.2031
   10MOL0     C 1201   7.282   2.141   6.061  0.6967  0.5698  0.2829
   10MOL0     C 1202   7.150   2.202   6.006  0.3306 -0.6555 -0.1579
   10MOL0     C 1203   7.044   2.096   6.044 -0.1079 -0.5712  0.2178
   10MOL0     C 1204   6.907   2.157   5.995 -0.8463  0.3523  0.1679
   10MOL0     N 1205   6.800   2.085   6.069 -0.0767  0.3067 -0.2206
   10MOL0     C 1206   6.727   1.985   6.005 -0.4043  0.2014 -0.2174
   10MOL0     C 1207   6.628   1.960   6.088 -0.2584 -0.0139 -0.3437
   10MOL0     C 1208   6.519   1.861   6.063 -0.5449  0.3958 -0.6176
   10MOL0     C 1209   6.385   1.918   6.096 -0.5410 -0.1305  0.1529
   10MOL0     C 1210   6.270   1.822   6.050 -0.2302  0.2225  0.7656
   10MOL0     C 1211   6.135   1.901   6.064 -1.0553 -0.4163  0.3943
   10MOL0     O 1212   6.137   1.964   6.195 -0.3174  0.8747  0.4598
   10MOL0     C 1213   6.017   1.985   6.258  0.8021  0.9272 -1.0573
   10MOL0     C 1214   6.024   2.022   6.394 -0.6051 -0.2293 -0.1623
   10MOL0     C 1215   5.912   2.048   6.472 -0.3182  1.1184 -0.2454
   10MOL0     C 1216   5.786   2.048   6.410  0.0063  0.6639 -0.1492
   10MOL0     C 1217   5.662   2.075   6.484  0.3840  0.4916 -0.2988
   10MOL0     O 1218   5.675   2.142   6.603  0.4837  0.4638  0.9547
   10MOL0     C 1219   5.565   2.138   6.691 -0.4579 -0.2545  1.2037
   10MOL0     C 1220   5.543   2.253   6.769 -0.1292 -0.4073 -0.0953
   10MOL0     C 1221   5.438   2.259   6.856  0.1343 -0.5714  0.4426
   10MOL0     C 1222   5.354   2.145   6.874  0.0916  0.6359  1.2155
   10MOL0     O 1223   5.256   2.141   6.970 -0.1130  0.3871  0.1670
   10MOL0     C 1224   5.195   2.274   7.008  0.0289  0.2184  0.2444
   10MOL0     C 1225   5.051   2.231   7.056 -0.3290  0.0253 -0.9786
   10MOL0     C 1226   4.962   2.361   7.074  0.9066 -0.1763 -0.5147
   10MOL0     C 1227   4.820   2.349   7.143 -0.2355 -0.2015 -0.7658
   10MOL0     C 1228   4.754   2.495   7.156  0.8345  0.4157 -0.0186
   10MOL0     C 1229   4.604   2.497   7.196 -0.4289  0.7188  0.1683
   10MOL0     C 1230   4.497   2.466   7.091  0.2919  0.4426  0.5807
   10MOL0     C 1231   4.354   2.452   7.137 -0.4343  0.4131  0.1605
   10MOL0    Cl 1232   4.327   2.307   7.234  0.2924  0.1126  0.1228
   10MOL0     C 1233   5.378   2.033   6.791 -0.1916 -0.2652 -0.4871
   10MOL0     C 1234   5.483   2.025   6.707 -0.7921 -0.2848 -0.1264
   10MOL0     O 1235   5.558   2.016   6.445 -0.1621 -0.2262 -0.5723
   10MOL0     C 1236   5.779   2.003   6.277 -0.1189 -0.2583  0.9052
   10MOL0     C 1237   5.894   1.968   6.206  0.9036  0.4922 -0.1818
   10MOL0     N 1238   6.636   2.054   6.190  0.0072  0.2358  0.8898
   10MOL0     N 1239   6.740   2.126   6.185 -0.9935 -0.4214  0.5790
   10MOL0     C 1240   8.051   2.136   6.074 -1.1243  0.1534  0.2814
   10MOL0     C 1241   8.184   2.100   6.052 -0.0289  0.4514  0.0757
   10MOL0     C 1242   8.631   2.097   6.054  0.4047 -1.0141 -1.2428
   10MOL0     C 1243   8.735   2.086   6.150 -0.2534  0.7616 -0.7386
   10MOL0     C 1244   8.867   2.074   6.112  0.5010  0.4036 -0.5055
   10MOL0     C 1245   8.895   2.072   5.972  0.6486  0.1081  0.0414
   10MOL0     O 1246   9.022   2.030   5.942 -0.1417 -0.0367  0.2037
   10MOL0     C 1247   9.047   1.886   5.947  0.3130 -1.1407  0.0192
   10MOL0     C 1248   9.110   1.833   5.822 -0.1586  0.0421 -0.1918
   10MOL0     C 1249   9.212   1.733   5.848 -0.4085  0.0563 -0.2213
   10MOL0     C 1250   9.138   1.601   5.882 -0.2881  0.8197  0.0361
   10MOL0     C 1251   9.228   1.496   5.904  0.1936 -1.1209 -0.6097
   10MOL0     C 1252   9.314   1.418   5.932  0.0088 -0.0793 -0.1201
   10MOL0     C 1253   8.796   2.080   5.876 -0.1462 -0.4641 -0.3535
   10MOL0     C 1254   8.659   2.098   5.913  0.0338  0.0672  0.4520
   10MOL0     H 1255   8.323   2.404   6.015  0.1838  0.2229  0.7193
   10MOL0     H 1256   8.097   2.473   6.086  1.4381 -0.9237  0.1866
   10MOL0     H 1257   7.782   2.152   6.167  0.6105 -0.0822  0.1417
   10MOL0     H 1258   7.805   2.142   5.993 -1.6868 -0.9663  0.0600
   10MOL0     H 1259   7.636   2.305   5.940  1.0513  2.7125  1.3705
   10MOL0     H 1260   7.629   2.359   6.102  1.0850 -0.4354 -0.1910
   10MOL0     H 1261   7.511   2.176   6.187  0.4737  2.9166  0.1192
   10MOL0     H 1262   7.543   2.076   6.032 -1.7106  1.5236 -2.8111
   10MOL0     H 1263   7.393   2.325   6.028  2.1940  0.5123 -0.5540
   10MOL0     H 1264   7.411   2.202   5.907  0.3554 -1.6852  0.4878
   10MOL0     H 1265   7.263   2.140   6.168 -1.5932 -5.4498  0.1909
   10MOL0     H 1266   7.302   2.037   6.033 -1.0587  0.4878 -0.8428
   10MOL0     H 1267   7.166   2.219   5.899 -0.3340  0.7324 -0.0623
   10MOL0     H 1268   7.131   2.300   6.051  1.5224 -0.3157 -0.3691
   10MOL0     H 1269   7.058   2.000   5.993  0.1122 -0.0014 -0.8448
   10MOL0     H 1270   7.053   2.084   6.152 -0.8517  0.2674  0.3813
   10MOL0     H 1271   6.892   2.135   5.889  0.7445  0.9454 -0.2074
   10MOL0     H 1272   6.906   2.264   6.018 -0.4366  0.3866  0.0347
   10MOL0     H 1273   6.758   1.943   5.910  0.9277  0.8589 -0.1049
   10MOL0     H 1274   6.540   1.770   6.120 -1.5469  1.2124  1.1485
   10MOL0     H 1275   6.527   1.837   5.957 -1.2286  3.8962 -1.5741
   10MOL0     H 1276   6.380   2.018   6.051  2.8951  0.9088  1.7261
   10MOL0     H 1277   6.383   1.930   6.205  0.2183 -1.2711  0.3060
   10MOL0     H 1278   6.271   1.798   5.944 -0.5610  0.4936  0.7001
   10MOL0     H 1279   6.290   1.727   6.101  3.6256 -1.4393 -3.1486
   10MOL0     H 1280   6.054   1.828   6.054 -2.3754  0.7450  1.9929
   10MOL0     H 1281   6.127   1.981   5.990 -1.2248 -2.3418 -1.7696
   10MOL0     H 1282   6.125   2.032   6.433 -1.4990 -0.8889  2.5432
   10MOL0     H 1283   5.929   2.080   6.574  4.5562  1.6615 -0.9534
   10MOL0     H 1284   5.615   2.332   6.751  0.4050 -1.2348 -1.7882
   10MOL0     H 1285   5.426   2.354   6.907  0.1966 -1.8229  2.9720
   10MOL0     H 1286   5.189   2.327   6.912 -0.9517 -0.4692 -0.0931
   10MOL0     H 1287   5.257   2.330   7.078  2.6464 -1.3687 -0.6204
   10MOL0     H 1288   5.063   2.168   7.145  1.0383 -2.6288 -2.8733
   10MOL0     H 1289   5.006   2.160   6.986  0.7209 -2.2013  0.5009
   10MOL0     H 1290   4.949   2.398   6.972  2.2066 -0.6070 -0.8511
   10MOL0     H 1291   5.025   2.426   7.136  1.0886 -0.7905 -0.0430
   10MOL0     H 1292   4.762   2.273   7.088  0.5444 -2.2224  1.0389
   10MOL0     H 1293   4.827   2.310   7.245  1.0165 -0.7262 -1.0376
   10MOL0     H 1294   4.759   2.547   7.060  2.4798  1.8381  0.7913
   10MOL0     H 1295   4.804   2.545   7.239 -0.9611  1.4969  0.4903
   10MOL0     H 1296   4.573   2.591   7.243 -1.0871  1.6735 -2.0285
   10MOL0     H 1297   4.592   2.420   7.273  1.1106 -0.0962 -0.3742
   10MOL0     H 1298   4.507   2.551   7.022 -0.7315 -1.2753 -1.8347
   10MOL0     H 1299   4.528   2.376   7.037 -1.0295  1.1924 -1.5613
   10MOL0     H 1300   4.294   2.455   7.045  2.2237  1.3768 -1.6751
   10MOL0     H 1301   4.323   2.541   7.192 -1.8305 -0.2997  0.5689
   10MOL0     H 1302   5.304   1.954   6.798  1.0387 -1.4204  0.0727
   10MOL0     H 1303   5.495   1.932   6.652 -0.5545 -0.9751  1.0677
   10MOL0     H 1304   5.681   1.982   6.236  0.0592  1.3925 -0.4376
   10MOL0     H 1305   5.881   1.927   6.106  0.0338 -0.6866  0.3915
   10MOL0     H 1306   7.977   2.058   6.089 -2.1915  1.3559  1.5760
   10MOL0     H 1307   8.205   1.994   6.049 -4.3804 -0.6427  1.2260
   10MOL0     H 1308   8.718   2.094   6.257  2.1162 -1.8968 -0.0302
   10MOL0     H 1309   8.941   2.054   6.188  0.0758  2.7367  0.6130
   10MOL0     H 1310   8.950   1.838   5.964 -1.4462  2.6595  2.0064
   10MOL0     H 1311   9.104   1.865   6.038 -1.1902 -0.2036  1.2329
   10MOL0     H 1312   9.021   1.796   5.771 -0.1683 -0.1001 -0.0695
   10MOL0     H 1313   9.162   1.917   5.774  3.6285 -1.2601  1.2908
   10MOL0     H 1314   9.274   1.758   5.935 -3.3730  2.1407  1.4753
   10MOL0     H 1315   9.278   1.720   5.762  0.6797  0.4437  0.5343
   10MOL0     H 1316   9.073   1.602   5.970 -0.2448 -0.9597  0.1361
   10MOL0     H 1317   9.069   1.576   5.802 -1.7906 -2.4374  2.1276
   10MOL0     H 1318   9.393   1.356   5.968  1.8856  0.7700 -2.4927
   10MOL0     H 1319   8.823   2.059   5.773  1.4923  0.7246 -0.1966
   10MOL0     H 1320   8.581   2.083   5.838  2.7404 -3.2694 -2.0389
   11MOL0     O 1321   2.435   8.992   0.184 -0.2201 -0.7245  0.1186
   11MOL0     C 1322   2.340   8.998   0.264 -0.0675 -0.3683 -0.7080
   11MOL0     O 1323   2.343   9.048   0.394 -0.1318  0.1902 -0.1169
   11MOL0     C 1324   2.433   9.148   0.422  0.2400 -0.2004 -0.4218
   11MOL0     C 1325   2.393   9.281   0.411  0.0845 -0.0122  0.3946
   11MOL0     C 1326   2.481   9.378   0.447 -0.3453 -0.1689 -1.3334
   11MOL0     C 1327   2.604   9.353   0.506 -0.6381  0.1561 -1.0663
   11MOL0     O 1328   2.694   9.453   0.543 -0.1903  0.3890 -1.0146
   11MOL0     C 1329   2.643   9.577   0.587 -0.8482 -1.0155  0.1674
   11MOL0     C 1330   2.672   9.683   0.477  0.1400  0.0847 -0.3213
   11MOL0     C 1331   2.690   9.822   0.544  0.3813  0.5125  0.0204
   11MOL0     C 1332   2.575   9.854   0.650  0.5833  0.6016  0.4692
   11MOL0     C 1333   2.432   9.857   0.599  1.1807 -0.1488 -0.3695
   11MOL0     C 1334   2.409   9.957   0.487 -2.0162  0.2894  0.0939
   11MOL0     C 1335   2.267   9.952   0.441 -0.0278 -0.3229  0.3811
   11MOL0     C 1336   2.169  10.017   0.539  0.4541 -0.5241 -0.3123
   11MOL0     N 1337   2.029  10.021   0.491  0.0518 -0.7158 -0.3147
   11MOL0     C 1338   1.925  10.045   0.572  0.1824 -0.8978  0.1284
   11MOL0     C 1339   1.815  10.047   0.492  0.3661 -0.3476  0.6647
   11MOL0     C 1340   1.677  10.099   0.545  0.0184 -0.6531 -0.3245
   11MOL0     C 1341   1.699  10.234   0.619 -0.3490 -0.1560  0.6703
   11MOL0     C 1342   1.575  10.288   0.695  0.2362  0.0496 -0.0594
   11MOL0     C 1343   1.449  10.330   0.613  0.3074 -0.6000 -0.8384
   11MOL0     O 1344   1.344  10.396   0.685  0.5057 -0.0399  0.1496
   11MOL0     C 1345   1.253  10.469   0.616 -0.2873  0.1232  0.5997
   11MOL0     C 1346   1.122  10.462   0.676  0.4700 -0.1497  0.1136
   11MOL0     C 1347   1.009  10.519   0.621  0.3523 -0.2480  0.4776
   11MOL0     C 1348   1.023  10.575   0.491  0.2804 -0.9670 -0.1008
   11MOL0     C 1349   0.910  10.636   0.422 -0.2848  0.3606 -0.1965
   11MOL0     O 1350   0.821  10.696   0.495  0.0213  0.9903 -0.3228
   11MOL0     C 1351   0.698  10.729   0.443 -0.4994  0.5356 -0.2989
   11MOL0     C 1352   0.666  10.861   0.430  0.9647 -0.1437 -0.7717
   11MOL0     C 1353   0.528  10.897   0.410 -0.7040  0.0270 -0.2356
   11MOL0     C 1354   0.424  10.806   0.413  0.5213 -0.4237  0.1220
   11MOL0     O 1355   0.296  10.848   0.417  0.5527  0.2930  0.1569
   11MOL0     C 1356   0.189  10.754   0.429 -0.2808  0.0261 -0.1378
   11MOL0     C 1357   0.057  10.828   0.412 -0.7779  0.1007  0.0613
   11MOL0     C 1358  -0.058  10.760   0.473  0.7194  0.7312 -0.9412
   11MOL0     C 1359  -0.182  10.848   0.478 -0.4143 -1.1220 -1.0115
   11MOL0     C 1360  -0.310  10.766   0.504 -1.1070  1.0358  0.6724
   11MOL0     C 1361  -0.367  10.672   0.393 -0.7927  0.0637 -0.3010
   11MOL0     C 1362  -0.388  10.750   0.264 -0.0395 -1.0951  0.8103
   11MOL0     C 1363  -0.421  10.649   0.151 -0.5224 -0.3214  0.6198
   11MOL0    Cl 1364  -0.265  10.568   0.115 -0.1729  0.5667 -0.0793
   11MOL0     C 1365   0.464  10.671   0.429 -0.0412 -0.1354  1.1497
   11MOL0     C 1366   0.597  10.633   0.436 -0.5673  0.2111  0.9870
   11MOL0     O 1367   0.900  10.615   0.302 -0.0537  0.2139 -0.7061
   11MOL0     C 1368   1.146  10.572   0.431  0.4926 -0.1180  0.1675
   11MOL0     C 1369   1.262  10.523   0.491  0.7864  0.4752  0.2636
   11MOL0     N 1370   1.848  10.016   0.366 -0.1331  0.0461 -0.3648
   11MOL0     N 1371   1.970   9.991   0.370 -0.2758  0.2210  0.0809
   11MOL0     C 1372   2.651   9.226   0.517 -0.2317 -0.4642 -0.9062
   11MOL0     C 1373   2.564   9.118   0.480  0.2592 -0.0464  0.9945
   11MOL0     C 1374   2.207   8.980   0.213 -1.1792 -0.1819  0.5963
   11MOL0     C 1375   2.176   9.011   0.078  0.2705  0.2005 -0.4843
   11MOL0     C 1376   2.037   8.999   0.039 -0.7233  0.3758 -0.4597
   11MOL0     C 1377   1.945   8.951   0.128 -0.8654 -0.7350  1.0680
   11MOL0     O 1378   1.819   8.926   0.097  0.3273  0.0416 -0.0919
   11MOL0     C 1379   1.752   9.032   0.029  0.2933  0.1164 -0.2865
   11MOL0     C 1380   1.612   9.030   0.099 -1.0854  0.1797 -0.7012
   11MOL0     C 1381   1.544   9.166   0.082 -0.4825 -0.6536  0.0855
   11MOL0     C 1382   1.419   9.163   0.158  0.8131 -0.3098  0.4198
   11MOL0     C 1383   1.343   9.291   0.147  0.8593  0.4950 -0.7105
   11MOL0     C 1384   1.278   9.388   0.137 -1.4004 -0.5724 -0.6876
   11MOL0     C 1385   1.977   8.924   0.257  0.2443 -0.6530 -0.9159
   11MOL0     C 1386   2.107   8.941   0.298  0.0246  0.9469  0.4379
   11MOL0     H 1387   2.295   9.292   0.364 -0.2027 -0.7955  0.7982
   11MOL0     H 1388   2.448   9.481   0.433  1.0399  0.2166 -1.9359
   11MOL0     H 1389   2.690   9.606   0.682 -1.5513  0.3618  0.1156
   11MOL0     H 1390   2.536   9.585   0.605 -0.8759  1.0436 -0.6422
   11MOL0     H 1391   2.590   9.683   0.405  0.7796 -3.1185 -1.1918
   11MOL0     H 1392   2.765   9.648   0.432 -0.6625 -3.3382  0.3745
   11MOL0     H 1393   2.683   9.898   0.465  0.6235 -1.9837 -2.5567
   11MOL0     H 1394   2.787   9.831   0.594  0.8814 -0.4193 -0.7429
   11MOL0     H 1395   2.578   9.793   0.741  0.7498  1.4829  1.0645
   11MOL0     H 1396   2.608   9.950   0.691  1.4331  0.9276 -0.9403
   11MOL0     H 1397   2.367   9.869   0.686 -0.3033  2.2128 -1.6849
   11MOL0     H 1398   2.408   9.753   0.577  1.2696 -0.4952  1.0628
   11MOL0     H 1399   2.477   9.918   0.411 -0.4388  0.2639  1.4758
   11MOL0     H 1400   2.443  10.060   0.493 -1.7997  0.3388 -1.5101
   11MOL0     H 1401   2.267  10.010   0.348 -1.6618  2.5950  2.0399
   11MOL0     H 1402   2.228   9.852   0.419 -0.6031  0.1862 -1.0722
   11MOL0     H 1403   2.206  10.116   0.564  1.3788 -0.8824 -0.2161
   11MOL0     H 1404   2.164   9.953   0.628  1.3125  0.4176  0.4215
   11MOL0     H 1405   1.937  10.063   0.678  0.9933 -0.0207 -0.1088
   11MOL0     H 1406   1.630  10.022   0.607 -1.4885  1.0506  0.7602
   11MOL0     H 1407   1.620  10.112   0.452 -0.1410  0.6396 -0.0600
   11MOL0     H 1408   1.740  10.311   0.553  2.2893  1.4901  3.9057
   11MOL0     H 1409   1.782  10.220   0.689  0.4349 -0.9614 -0.3957
   11MOL0     H 1410   1.548  10.198   0.750  1.2455 -1.3861 -1.8167
   11MOL0     H 1411   1.611  10.374   0.753  4.6481 -2.3047  1.1739
   11MOL0     H 1412   1.406  10.234   0.585 -0.0768 -0.8643  0.5712
   11MOL0     H 1413   1.486  10.386   0.526  1.4867  1.0379  0.6280
   11MOL0     H 1414   1.126  10.400   0.765 -3.8451 -1.9377 -0.6972
   11MOL0     H 1415   0.909  10.515   0.663 -0.6925  1.2073 -1.6840
   11MOL0     H 1416   0.740  10.940   0.423  1.1366  0.1537  2.6777
   11MOL0     H 1417   0.510  11.000   0.381 -2.1953  0.7253  2.7706
   11MOL0     H 1418   0.204  10.710   0.528  0.2889 -0.6211 -0.4965
   11MOL0     H 1419   0.206  10.672   0.358 -1.5692 -0.9745  0.6625
   11MOL0     H 1420   0.030  10.849   0.308 -0.8921  0.1413  0.0989
   11MOL0     H 1421   0.069  10.927   0.456  0.4020  0.6131 -1.3214
   11MOL0     H 1422  -0.024  10.716   0.567  0.3448  0.8885 -0.7293
   11MOL0     H 1423  -0.089  10.672   0.415 -0.9655  0.4458  0.3151
   11MOL0     H 1424  -0.159  10.908   0.566 -0.4115 -2.0855 -0.3444
   11MOL0     H 1425  -0.190  10.926   0.401  0.6659  2.3132  2.0689
   11MOL0     H 1426  -0.395  10.834   0.518 -0.4018  2.5467 -1.7542
   11MOL0     H 1427  -0.295  10.711   0.597  0.3041  0.7665  0.2991
   11MOL0     H 1428  -0.457  10.618   0.425 -2.9209  3.9700  1.0206
   11MOL0     H 1429  -0.290  10.596   0.378  2.4138  2.9223  0.3830
   11MOL0     H 1430  -0.478  10.813   0.269  1.9297  2.0123  0.2230
   11MOL0     H 1431  -0.302  10.814   0.243 -1.2921  1.4029  2.7139
   11MOL0     H 1432  -0.445  10.698   0.057  2.5819 -1.7457 -1.0903
   11MOL0     H 1433  -0.495  10.576   0.184  0.3979 -2.2645 -1.3326
   11MOL0     H 1434   0.388  10.596   0.442 -0.0891 -0.1500  0.7810
   11MOL0     H 1435   0.611  10.526   0.449 -0.1154  0.1471  0.0149
   11MOL0     H 1436   1.177  10.606   0.333  0.2414  1.0370  0.4763
   11MOL0     H 1437   1.360  10.520   0.444  1.6600  0.7216  1.9870
   11MOL0     H 1438   2.747   9.202   0.560 -0.2509 -0.0604 -0.6283
   11MOL0     H 1439   2.590   9.013   0.487 -1.2158 -0.5830 -0.7333
   11MOL0     H 1440   2.255   9.042   0.010  2.0444  1.1398  1.8646
   11MOL0     H 1441   2.011   9.016  -0.065 -0.0907  1.4993 -0.4557
   11MOL0     H 1442   1.743   9.011  -0.078  3.2276 -0.8434 -0.4343
   11MOL0     H 1443   1.797   9.131   0.032 -2.7238  1.6077 -0.0091
   11MOL0     H 1444   1.554   8.945   0.061  1.0827 -2.9171  2.3145
   11MOL0     H 1445   1.625   9.013   0.206  2.0071 -0.2501 -1.0510
   11MOL0     H 1446   1.522   9.178  -0.024  1.9331  0.9418 -0.3060
   11MOL0     H 1447   1.611   9.244   0.119 -0.2796 -0.2622 -1.0918
   11MOL0     H 1448   1.355   9.081   0.123  1.9146 -1.0010  0.0041
   11MOL0     H 1449   1.437   9.150   0.265 -0.5849 -3.3895  0.3760
   11MOL0     H 1450   1.220   9.478   0.142  2.5360  2.2737 -1.2065
   11MOL0     H 1451   1.900   8.884   0.322  2.1103  0.7292  2.3968
   11MOL0     H 1452   2.133   8.916   0.400  1.5453  0.1119 -0.1193
   12MOL0     O 1453   6.960   5.392   9.320  0.3917  0.2047  0.2581
   12MOL0     C 1454   7.018   5.444   9.417 -0.3087 -0.6534 -0.3920
   12MOL0     O 1455   6.958   5.510   9.517  0.0337  0.0116  0.5780
   12MOL0     C 1456   6.822   5.538   9.504 -0.1762 -0.1382  1.0571
   12MOL0     C 1457   6.721   5.438   9.485  0.0222  0.3797 -0.2864
   12MOL0     C 1458   6.592   5.467   9.451 -0.3363  0.2352 -0.3987
   12MOL0     C 1459   6.556   5.598   9.452 -0.9101 -0.5398  0.3253
   12MOL0     O 1460   6.430   5.632   9.421  0.6105 -0.0310  0.9207
   12MOL0     C 1461   6.330   5.585   9.515 -0.2797  0.1251 -0.2985
   12MOL0     C 1462   6.194   5.551   9.453  0.4831  0.2984 -0.1528
   12MOL0     C 1463   6.132   5.672   9.376 -0.9555 -0.9556 -0.8240
   12MOL0     C 1464   5.990   5.650   9.324 -0.1804 -0.5434 -0.9950
   12MOL0     C 1465   5.886   5.616   9.435  0.1867  0.7189  0.8790
   12MOL0     C 1466   5.735   5.618   9.378 -1.5917 -0.0315  0.4773
   12MOL0     C 1467   5.712   5.507   9.279 -0.6696  0.7334 -0.4055
   12MOL0     C 1468   5.571   5.526   9.225 -0.3988  0.7803 -0.1432
   12MOL0     N 1469   5.460   5.530   9.320  0.3741  0.0353  0.7580
   12MOL0     C 1470   5.358   5.433   9.321 -0.7384 -1.1464  0.0894
   12MOL0     C 1471   5.248   5.496   9.358  0.3795  0.2110 -0.3544
   12MOL0     C 1472   5.106   5.428   9.373 -0.8324 -0.3767  0.2242
   12MOL0     C 1473   5.029   5.423   9.244  0.1668 -0.5140  1.2711
   12MOL0     C 1474   5.030   5.549   9.163  0.8920 -0.0796 -0.1251
   12MOL0     C 1475   4.905   5.566   9.070  0.6218 -0.6618  0.2988
   12MOL0     O 1476   4.882   5.447   9.001 -0.0672 -0.2268 -0.2011
   12MOL0     C 1477   4.756   5.434   8.945  0.7310  0.0791 -0.8021
   12MOL0     C 1478   4.759   5.419   8.806  0.4706  0.4316 -0.8974
   12MOL0     C 1479   4.632   5.412   8.738  0.1773  0.7439 -0.0198
   12MOL0     C 1480   4.505   5.424   8.804 -0.2512  0.0674  0.5108
   12MOL0     C 1481   4.377   5.378   8.742  0.1169  0.3350 -0.0898
   12MOL0     O 1482   4.389   5.324   8.618  0.1287 -0.1633  0.6394
   12MOL0     C 1483   4.262   5.302   8.558  0.0279 -0.1269 -0.1179
   12MOL0     C 1484   4.209   5.398   8.477  0.4839  0.1781  0.6173
   12MOL0     C 1485   4.093   5.384   8.408  0.3227 -0.2194  0.3412
   12MOL0     C 1486   4.022   5.266   8.419 -0.2581  0.1265 -0.5611
   12MOL0     O 1487   3.902   5.260   8.358  0.8395  0.1200 -0.3839
   12MOL0     C 1488   3.821   5.135   8.367 -0.5342 -0.4183 -0.6695
   12MOL0     C 1489   3.685   5.165   8.293 -0.4444  0.1724  0.2190
   12MOL0     C 1490   3.591   5.242   8.376  0.4031  0.3030  0.4893
   12MOL0     C 1491   3.449   5.264   8.299 -0.6047  0.3280  0.7528
   12MOL0     C 1492   3.364   5.351   8.393 -0.5091  0.9355  0.2693
   12MOL0     C 1493   3.227   5.384   8.330 -0.7234  1.2591  0.0754
   12MOL0     C 1494   3.123   5.475   8.414 -0.4728  0.3128  1.1132
   12MOL0     C 1495   2.976   5.443   8.393 -0.5288 -0.7048  0.4895
   12MOL0    Cl 1496   2.932   5.433   8.224 -0.2462  0.3569 -0.3543
   12MOL0     C 1497   4.074   5.160   8.501  0.0035 -0.7717 -0.5659
   12MOL0     C 1498   4.187   5.183   8.570  0.1360  0.0398  0.7037
   12MOL0     O 1499   4.277   5.395   8.812  0.4143 -0.2317  0.0854
   12MOL0     C 1500   4.509   5.448   8.944 -0.0916 -0.2768 -0.1919
   12MOL0     C 1501   4.635   5.448   9.011  0.6666  0.0735 -0.0679
   12MOL0     N 1502   5.283   5.628   9.383 -0.3912  0.1850  0.3189
   12MOL0     N 1503   5.402   5.647   9.351 -0.6957 -0.2161 -1.0374
   12MOL0     C 1504   6.645   5.699   9.487  0.3751 -0.3164  0.2196
   12MOL0     C 1505   6.780   5.670   9.511 -0.9119  0.3122 -0.0946
   12MOL0     C 1506   7.159   5.430   9.431  0.3854  0.1246  1.0711
   12MOL0     C 1507   7.229   5.364   9.328 -0.3610  0.8652 -0.1398
   12MOL0     C 1508   7.373   5.361   9.324 -0.1050  0.3536  0.6771
   12MOL0     C 1509   7.448   5.406   9.428  0.1155  1.0527  0.0250
   12MOL0     O 1510   7.582   5.371   9.431 -0.2880  0.2493 -0.7719
   12MOL0     C 1511   7.608   5.228   9.398  0.2360  0.0830 -0.0460
   12MOL0     C 1512   7.725   5.173   9.483 -0.1759 -0.6923  0.9853
   12MOL0     C 1513   7.803   5.061   9.411 -0.6865  0.6740 -0.1525
   12MOL0     C 1514   7.714   4.946   9.363  0.0038  0.0750 -0.2700
   12MOL0     C 1515   7.770   4.833   9.288  0.3105 -1.0310 -0.1517
   12MOL0     C 1516   7.824   4.746   9.221  0.6402  0.3015  0.4679
   12MOL0     C 1517   7.380   5.453   9.541 -1.1657  0.1633  1.1056
   12MOL0     C 1518   7.243   5.463   9.534 -0.2275  0.6713 -0.7974
   12MOL0     H 1519   6.741   5.332   9.496 -1.2511  0.1178 -0.2585
   12MOL0     H 1520   6.516   5.395   9.425  0.0936 -0.1155 -0.7015
   12MOL0     H 1521   6.322   5.668   9.585  0.0505 -0.0480 -0.0579
   12MOL0     H 1522   6.364   5.498   9.572 -1.4105 -0.4654 -0.4753
   12MOL0     H 1523   6.120   5.521   9.528 -0.9545  0.7595 -1.3405
   12MOL0     H 1524   6.206   5.464   9.387  0.5879  0.8212 -0.8396
   12MOL0     H 1525   6.201   5.701   9.296 -0.5455 -0.9546 -0.4714
   12MOL0     H 1526   6.129   5.758   9.443  1.8486 -1.6154  0.3052
   12MOL0     H 1527   5.958   5.742   9.275  1.8065  1.5223  1.3184
   12MOL0     H 1528   5.991   5.567   9.253 -0.1251 -0.9809 -0.4954
   12MOL0     H 1529   5.898   5.673   9.528  1.6065 -0.7777  1.6663
   12MOL0     H 1530   5.901   5.509   9.457 -1.3061  0.5416  1.1333
   12MOL0     H 1531   5.707   5.717   9.340 -4.7907 -0.6738  0.8618
   12MOL0     H 1532   5.670   5.600   9.465 -0.7130 -2.6180  0.6789
   12MOL0     H 1533   5.784   5.504   9.197  0.6468  2.6794  0.5990
   12MOL0     H 1534   5.715   5.411   9.332  1.5319  2.6250  3.2313
   12MOL0     H 1535   5.552   5.443   9.156 -3.9156  1.0141  0.3914
   12MOL0     H 1536   5.564   5.620   9.170 -0.7056 -0.0123 -1.5026
   12MOL0     H 1537   5.378   5.333   9.284 -1.2719 -1.3269  0.2770
   12MOL0     H 1538   5.041   5.488   9.436 -1.0252 -1.9888  1.6119
   12MOL0     H 1539   5.112   5.327   9.416 -2.6272  0.1512  1.8216
   12MOL0     H 1540   4.927   5.398   9.272 -0.2132  2.7945  3.4649
   12MOL0     H 1541   5.078   5.343   9.188  2.4245 -0.1335  2.5393
   12MOL0     H 1542   5.033   5.633   9.233 -0.0061 -0.1477 -0.0017
   12MOL0     H 1543   5.125   5.547   9.108  2.3044 -2.5006  2.2124
   12MOL0     H 1544   4.932   5.640   8.993 -3.8102  0.2606 -0.7014
   12MOL0     H 1545   4.822   5.614   9.123  2.3253  1.5284  1.1402
   12MOL0     H 1546   4.853   5.430   8.753  0.6653 -0.7701 -0.8341
   12MOL0     H 1547   4.637   5.384   8.633  1.0705 -1.5054  0.5650
   12MOL0     H 1548   4.273   5.484   8.463 -0.0838  0.3876 -0.9489
   12MOL0     H 1549   4.057   5.458   8.337  0.0404  0.5053  1.2255
   12MOL0     H 1550   3.776   5.117   8.465  1.0097 -1.7366 -0.1421
   12MOL0     H 1551   3.871   5.048   8.323  1.1934  0.6301 -0.8962
   12MOL0     H 1552   3.640   5.069   8.266 -0.1082 -0.0620  0.4918
   12MOL0     H 1553   3.710   5.224   8.204 -0.8150 -1.2297 -0.8528
   12MOL0     H 1554   3.624   5.346   8.388 -1.8604  1.0621  0.6630
   12MOL0     H 1555   3.576   5.214   8.481  3.0511 -0.7332  0.6744
   12MOL0     H 1556   3.456   5.295   8.194  0.3875  1.0681  1.0111
   12MOL0     H 1557   3.402   5.166   8.291  0.6534 -0.2999  0.8331
   12MOL0     H 1558   3.412   5.445   8.421 -0.8102  0.9557  0.7283
   12MOL0     H 1559   3.353   5.293   8.485  0.7914 -0.0157 -0.1495
   12MOL0     H 1560   3.175   5.291   8.308  0.3965  0.6060  0.1568
   12MOL0     H 1561   3.240   5.426   8.230 -3.9156  1.2870 -0.4414
   12MOL0     H 1562   3.148   5.459   8.519  2.0430 -0.5267  0.4663
   12MOL0     H 1563   3.132   5.582   8.397  2.2726 -0.3099 -2.9330
   12MOL0     H 1564   2.914   5.518   8.442  1.7534  0.7805  1.2678
   12MOL0     H 1565   2.963   5.340   8.426 -0.4118  0.3120  4.1162
   12MOL0     H 1566   4.026   5.069   8.535  0.6136 -2.6842 -4.2423
   12MOL0     H 1567   4.221   5.110   8.642 -0.1493  2.1522  3.1027
   12MOL0     H 1568   4.416   5.481   8.990  0.2957  1.9044 -0.8661
   12MOL0     H 1569   4.637   5.468   9.118  2.2870 -1.7787  0.2924
   12MOL0     H 1570   6.612   5.802   9.489 -0.3213 -0.5345  0.2470
   12MOL0     H 1571   6.852   5.746   9.539  0.1125 -1.0690  1.1925
   12MOL0     H 1572   7.180   5.327   9.238 -2.3177  2.2759  0.2828
   12MOL0     H 1573   7.435   5.331   9.240 -0.8836 -0.1160  0.2567
   12MOL0     H 1574   7.640   5.229   9.294  1.8897  1.2791  0.4212
   12MOL0     H 1575   7.522   5.161   9.409 -1.6948  2.4126 -0.0654
   12MOL0     H 1576   7.792   5.255   9.511  2.0052 -0.9407 -2.8156
   12MOL0     H 1577   7.673   5.145   9.575 -6.0979  0.4182 -1.5397
   12MOL0     H 1578   7.869   5.017   9.487 -0.3842  0.4177 -0.5623
   12MOL0     H 1579   7.857   5.109   9.330  0.2137  3.5305  1.9692
   12MOL0     H 1580   7.668   4.900   9.451 -1.3684  2.1731  0.1685
   12MOL0     H 1581   7.639   4.989   9.297  0.3699  0.5500 -0.3843
   12MOL0     H 1582   7.874   4.683   9.150 -3.1278 -1.1642 -1.2046
   12MOL0     H 1583   7.440   5.482   9.626 -2.1386 -0.3407  1.9834
   12MOL0     H 1584   7.204   5.508   9.624  0.6462  0.5856 -0.3593
   13MOL0     O 1585   0.968   9.955   4.653  0.6487 -0.2841  0.1145
   13MOL0     C 1586   0.886  10.006   4.571  0.7730  1.2097  0.0487
   13MOL0     O 1587   0.768  10.063   4.596 -0.0961 -0.8520 -0.2000
   13MOL0     C 1588   0.727  10.091   4.724  0.1125 -0.8373 -0.2531
   13MOL0     C 1589   0.789  10.204   4.787  0.5997 -0.3006 -0.3509
   13MOL0     C 1590   0.749  10.248   4.926  0.7118  1.1582  0.8785
   13MOL0     C 1591   0.643  10.171   4.987 -0.1972 -0.2727  0.7218
   13MOL0     O 1592   0.597  10.196   5.115  0.3836 -0.3695  0.0803
   13MOL0     C 1593   0.574  10.335   5.157 -0.1847  0.3859  0.6287
   13MOL0     C 1594   0.573  10.359   5.306 -0.0579 -0.3831 -0.1804
   13MOL0     C 1595   0.697  10.415   5.368 -0.1607 -0.4505 -0.4610
   13MOL0     C 1596   0.817  10.319   5.338  0.3658 -0.8243 -0.0807
   13MOL0     C 1597   0.955  10.380   5.370  0.7439 -0.3060 -0.3479
   13MOL0     C 1598   1.055  10.271   5.405  0.1398 -0.3071  0.8382
   13MOL0     C 1599   1.192  10.335   5.436 -0.1875  0.4681  0.1888
   13MOL0     C 1600   1.266  10.397   5.310  1.1320 -0.6303 -0.1574
   13MOL0     N 1601   1.388  10.467   5.328 -0.4447 -0.4980 -0.4006
   13MOL0     C 1602   1.424  10.564   5.235  0.4542 -0.6634 -0.9815
   13MOL0     C 1603   1.515  10.641   5.292 -0.2925 -0.1834  0.0173
   13MOL0     C 1604   1.559  10.778   5.231  0.2897  0.8615 -0.2305
   13MOL0     C 1605   1.666  10.849   5.311  0.8386  0.3286 -0.9657
   13MOL0     C 1606   1.806  10.824   5.262 -0.2149 -0.5044 -0.3368
   13MOL0     C 1607   1.902  10.874   5.377  0.5443  0.3279  0.4586
   13MOL0     O 1608   2.037  10.861   5.316  0.6744 -0.1185  0.9178
   13MOL0     C 1609   2.147  10.868   5.397  0.3196  0.4680  1.4895
   13MOL0     C 1610   2.145  10.912   5.526  0.7247  0.7175 -1.1373
   13MOL0     C 1611   2.260  10.919   5.607  0.2060  0.0581 -0.5776
   13MOL0     C 1612   2.388  10.886   5.549 -0.0929  0.7770 -0.5321
   13MOL0     C 1613   2.506  10.893   5.630  0.8931 -0.3127 -0.0697
   13MOL0     O 1614   2.609  10.808   5.607  0.4699 -0.1162  0.2168
   13MOL0     C 1615   2.729  10.824   5.665 -0.3747  0.3883  0.1017
   13MOL0     C 1616   2.791  10.948   5.694  0.6674 -0.4152  0.7940
   13MOL0     C 1617   2.923  10.938   5.729 -0.1095  0.4380  0.3335
   13MOL0     C 1618   2.997  10.820   5.735 -0.0650  0.7642 -0.1454
   13MOL0     O 1619   3.124  10.822   5.780  0.1762 -0.1264 -0.3014
   13MOL0     C 1620   3.202  10.700   5.782 -0.8295 -0.3807  0.3231
   13MOL0     C 1621   3.316  10.744   5.866 -1.0249  0.3761 -0.2116
   13MOL0     C 1622   3.403  10.873   5.837 -0.7851 -0.8618 -0.2535
   13MOL0     C 1623   3.498  10.892   5.952  1.4324 -0.7875 -0.9023
   13MOL0     C 1624   3.608  10.992   5.922  0.2697  0.1808  0.4394
   13MOL0     C 1625   3.677  11.043   6.049  0.1907  0.5530  0.2226
   13MOL0     C 1626   3.797  11.132   6.014  0.3644 -0.8924  0.1748
   13MOL0     C 1627   3.926  11.063   5.964 -0.3065  0.2868  0.0854
   13MOL0    Cl 1628   4.039  11.190   5.927 -0.0326  0.0112  0.6428
   13MOL0     C 1629   2.929  10.695   5.709 -0.6575 -0.3661  0.9478
   13MOL0     C 1630   2.796  10.706   5.673  0.3048  0.9255 -0.3978
   13MOL0     O 1631   2.498  10.963   5.732 -1.4696 -0.0221 -0.2116
   13MOL0     C 1632   2.386  10.840   5.418 -0.0333 -0.2814  0.2305
   13MOL0     C 1633   2.269  10.821   5.343 -0.2292 -0.1242 -0.0883
   13MOL0     N 1634   1.533  10.604   5.417 -0.9170  1.0571  0.1156
   13MOL0     N 1635   1.458  10.499   5.441  0.3306  0.0235  0.1230
   13MOL0     C 1636   0.581  10.065   4.925 -0.1695 -0.3631 -0.2279
   13MOL0     C 1637   0.622  10.024   4.794  0.2802 -1.3177 -0.1008
   13MOL0     C 1638   0.931   9.990   4.432 -0.0306 -1.7146  0.3063
   13MOL0     C 1639   0.835   9.998   4.329  0.4026 -0.7044  0.1051
   13MOL0     C 1640   0.867   9.961   4.203 -0.6576  0.5141 -0.5092
   13MOL0     C 1641   0.996   9.928   4.171  0.1913  0.2173  0.5508
   13MOL0     O 1642   1.025   9.897   4.037 -0.0008  0.5142 -0.2709
   13MOL0     C 1643   1.144   9.842   3.981 -0.0797 -0.2913 -0.4129
   13MOL0     C 1644   1.112   9.804   3.834 -0.0001 -1.4920 -0.0994
   13MOL0     C 1645   1.103   9.934   3.757 -0.0782 -0.1125 -0.2242
   13MOL0     C 1646   1.068   9.913   3.607 -0.0917  0.8563  0.4680
   13MOL0     C 1647   0.929   9.867   3.603  0.6177  0.2464  0.5360
   13MOL0     C 1648   0.820   9.813   3.580  0.0060  0.6427 -0.4006
   13MOL0     C 1649   1.096   9.929   4.265 -0.4928 -0.2450  0.6989
   13MOL0     C 1650   1.063   9.947   4.401  0.5698 -0.4959  0.8931
   13MOL0     H 1651   0.861  10.260   4.728  1.4981 -1.0310  0.0293
   13MOL0     H 1652   0.802  10.335   4.963 -0.4869  1.5621  1.6989
   13MOL0     H 1653   0.475  10.361   5.118 -0.8431 -2.8253 -0.1820
   13MOL0     H 1654   0.647  10.407   5.120 -0.0454 -0.3988 -0.6829
   13MOL0     H 1655   0.546  10.262   5.349  2.5870 -2.3075 -2.4363
   13MOL0     H 1656   0.493  10.431   5.321 -0.5839 -0.8153 -0.8560
   13MOL0     H 1657   0.694  10.423   5.477  0.1101 -3.3374 -0.1733
   13MOL0     H 1658   0.720  10.518   5.340 -1.9750  0.9569  2.7389
   13MOL0     H 1659   0.799  10.237   5.408 -4.0607  2.0850  2.7821
   13MOL0     H 1660   0.816  10.295   5.232 -0.1922  1.1915 -0.5863
   13MOL0     H 1661   0.955  10.458   5.447 -0.7590 -1.1785  0.5921
   13MOL0     H 1662   1.000  10.427   5.282  2.4930  1.2863  1.2973
   13MOL0     H 1663   1.064  10.205   5.319 -0.2031  1.1124 -0.3323
   13MOL0     H 1664   1.018  10.220   5.495  0.0936 -0.7481  0.5711
   13MOL0     H 1665   1.179  10.412   5.512 -1.8814 -0.8525  1.2973
   13MOL0     H 1666   1.255  10.259   5.483  2.2989  2.4653  0.3156
   13MOL0     H 1667   1.206  10.464   5.248  1.1382  0.4984  1.0080
   13MOL0     H 1668   1.282  10.302   5.258 -1.4371 -1.7336  0.9111
   13MOL0     H 1669   1.378  10.582   5.138 -0.6575 -0.3602 -0.4133
   13MOL0     H 1670   1.464  10.830   5.220 -0.8465 -1.3207 -1.5468
   13MOL0     H 1671   1.603  10.763   5.132  0.2945  1.3478 -0.3033
   13MOL0     H 1672   1.656  10.821   5.417 -0.5070  0.2359 -1.1076
   13MOL0     H 1673   1.644  10.956   5.302  0.9719  0.3212 -1.3737
   13MOL0     H 1674   1.816  10.719   5.235 -0.7479 -0.8709  0.8586
   13MOL0     H 1675   1.810  10.895   5.179 -2.2908  1.7418  1.3312
   13MOL0     H 1676   1.897  10.800   5.457  1.3829  0.6739  0.8372
   13MOL0     H 1677   1.870  10.973   5.412 -1.0434 -0.5876  1.7047
   13MOL0     H 1678   2.051  10.941   5.571 -0.2097 -1.5900 -1.4748
   13MOL0     H 1679   2.270  10.957   5.708  1.8293 -2.1492  0.1843
   13MOL0     H 1680   2.735  11.041   5.698  2.3223  0.7079 -0.3597
   13MOL0     H 1681   2.969  11.030   5.764 -0.8795  0.0131  2.5925
   13MOL0     H 1682   3.239  10.661   5.686  2.2646 -2.7387  2.2669
   13MOL0     H 1683   3.140  10.628   5.836  0.0894 -2.2257 -0.9779
   13MOL0     H 1684   3.386  10.659   5.872 -0.0694  1.1896  0.5199
   13MOL0     H 1685   3.290  10.748   5.972  0.7833  1.7816  0.2430
   13MOL0     H 1686   3.335  10.959   5.840  0.7036  0.3788 -0.7631
   13MOL0     H 1687   3.447  10.866   5.737  0.7584 -1.3012  0.4306
   13MOL0     H 1688   3.455  10.920   6.048  1.4319 -0.3111 -1.0397
   13MOL0     H 1689   3.543  10.795   5.975  1.1558 -0.8445 -0.5961
   13MOL0     H 1690   3.574  11.067   5.850  1.9563 -1.6978 -2.5444
   13MOL0     H 1691   3.680  10.932   5.864 -1.3484 -1.3546 -0.0531
   13MOL0     H 1692   3.705  10.952   6.104  1.1908  1.0341  0.5281
   13MOL0     H 1693   3.604  11.105   6.101  1.2581  2.8312 -0.8800
   13MOL0     H 1694   3.770  11.188   5.925  0.2872 -0.8964  0.1962
   13MOL0     H 1695   3.826  11.200   6.095  1.4760  2.0856 -2.5025
   13MOL0     H 1696   3.904  10.999   5.878 -0.6033 -0.3944  0.6502
   13MOL0     H 1697   3.973  11.002   6.042  1.7992  1.1557 -0.4517
   13MOL0     H 1698   2.974  10.598   5.724 -1.2897 -0.8989 -0.3946
   13MOL0     H 1699   2.740  10.616   5.653  0.6762  0.3432  1.0406
   13MOL0     H 1700   2.473  10.819   5.357  1.3617  2.9445  0.9213
   13MOL0     H 1701   2.267  10.790   5.239  1.9219 -1.2341  0.1535
   13MOL0     H 1702   0.511   9.998   4.974 -1.4455 -0.2736 -1.8415
   13MOL0     H 1703   0.560   9.951   4.744 -3.1012  1.2348  0.0354
   13MOL0     H 1704   0.733  10.020   4.359 -0.3872  0.1037 -2.8784
   13MOL0     H 1705   0.796   9.956   4.121  0.6561 -1.7128 -1.6000
   13MOL0     H 1706   1.183   9.762   4.044  1.0288  2.1640  2.2689
   13MOL0     H 1707   1.229   9.909   3.995  0.3440 -1.1848  1.7624
   13MOL0     H 1708   1.197   9.743   3.800  1.1494 -1.1978  2.0354
   13MOL0     H 1709   1.020   9.745   3.823 -1.5677 -0.2471  4.3257
   13MOL0     H 1710   1.192   9.997   3.768 -1.3066  1.6727 -0.0998
   13MOL0     H 1711   1.029   9.988   3.816  0.4671  0.9148 -0.4527
   13MOL0     H 1712   1.079  10.007   3.553  1.2783  2.2925  3.0237
   13MOL0     H 1713   1.131   9.831   3.572  0.9215  2.0214 -0.5245
   13MOL0     H 1714   0.733   9.755   3.556 -0.1901  1.3140 -1.3293
   13MOL0     H 1715   1.202   9.904   4.253 -0.3997 -0.5011  1.8678
   13MOL0     H 1716   1.135   9.943   4.483  2.1067 -0.8494 -0.4317
   14MOL0     O 1717   8.371   0.813   1.303  0.2995  0.0565 -0.0021
   14MOL0     C 1718   8.372   0.706   1.238  0.2201  0.1635 -1.0378
   14MOL0     O 1719   8.260   0.640   1.183  0.1136  0.5581  0.0329
   14MOL0     C 1720   8.136   0.701   1.170 -0.2604 -0.5971 -0.2169
   14MOL0     C 1721   8.028   0.629   1.118 -0.3343  0.1314 -0.3131
   14MOL0     C 1722   7.896   0.681   1.105  0.2284 -0.9882 -0.3288
   14MOL0     C 1723   7.859   0.816   1.148  0.1966  0.6041  0.3395
   14MOL0     O 1724   7.730   0.860   1.134  0.3111 -0.0284 -0.1602
   14MOL0     C 1725   7.686   0.953   1.245  0.6652  0.2281 -0.1013
   14MOL0     C 1726   7.645   1.082   1.189 -0.2975 -0.2689 -0.1205
   14MOL0     C 1727   7.506   1.071   1.131  0.1718  0.3715  0.8873
   14MOL0     C 1728   7.449   1.204   1.079 -0.8587 -0.0160 -0.5398
   14MOL0     C 1729   7.328   1.187   0.982 -0.4410  0.3358  0.0694
   14MOL0     C 1730   7.286   1.306   0.884 -1.0422 -0.3928  0.2518
   14MOL0     C 1731   7.220   1.433   0.945  0.2469 -0.3046 -0.3724
   14MOL0     C 1732   7.078   1.418   1.007 -0.5023  1.0574 -0.5714
   14MOL0     N 1733   6.976   1.382   0.899  0.0619  0.1201 -0.3371
   14MOL0     C 1734   6.872   1.292   0.905  0.5790 -0.0746  0.3465
   14MOL0     C 1735   6.805   1.309   0.786 -0.5239 -0.8239 -0.4674
   14MOL0     C 1736   6.693   1.221   0.739  0.1566 -0.2458 -0.3170
   14MOL0     C 1737   6.558   1.272   0.802  0.4693 -1.0618 -0.1528
   14MOL0     C 1738   6.446   1.178   0.769  0.3526 -0.0487 -0.3190
   14MOL0     C 1739   6.313   1.248   0.763 -0.1520 -0.2109 -0.8000
   14MOL0     O 1740   6.211   1.153   0.795 -0.7144 -0.1433 -0.3810
   14MOL0     C 1741   6.095   1.158   0.724  0.4422 -0.9047  0.3231
   14MOL0     C 1742   6.094   1.149   0.584 -0.2301 -0.2603 -0.7802
   14MOL0     C 1743   5.966   1.153   0.519 -0.6453 -0.0705  0.0027
   14MOL0     C 1744   5.845   1.165   0.581 -0.6621  0.8502 -0.6442
   14MOL0     C 1745   5.715   1.178   0.504 -1.3705  0.2989  0.0536
   14MOL0     O 1746   5.597   1.170   0.578  0.0576 -0.2654  0.3288
   14MOL0     C 1747   5.473   1.184   0.525 -0.2049 -0.8446  0.6318
   14MOL0     C 1748   5.370   1.097   0.559  0.7807 -0.8678 -0.1260
   14MOL0     C 1749   5.243   1.117   0.504 -0.2588  0.7815 -0.8212
   14MOL0     C 1750   5.213   1.229   0.432  0.3785  0.2114  0.6236
   14MOL0     O 1751   5.084   1.240   0.396  0.4418 -0.4709  0.1708
   14MOL0     C 1752   5.055   1.368   0.330  0.5580 -0.4477 -0.2200
   14MOL0     C 1753   4.919   1.345   0.262  0.4895  0.0013 -0.0763
   14MOL0     C 1754   4.797   1.392   0.335  0.0462 -0.2494  0.1926
   14MOL0     C 1755   4.663   1.376   0.273 -0.3781  0.9063 -0.0708
   14MOL0     C 1756   4.558   1.470   0.341 -0.4363 -0.3090 -0.5147
   14MOL0     C 1757   4.435   1.392   0.391  0.2807 -0.4916  0.8153
   14MOL0     C 1758   4.324   1.490   0.445  0.7155  0.1609 -0.1445
   14MOL0     C 1759   4.176   1.431   0.429  0.0624 -0.1628 -1.4109
   14MOL0    Cl 1760   4.174   1.250   0.481 -0.2338 -0.3134  0.2085
   14MOL0     C 1761   5.312   1.326   0.413  0.5163  0.0921  0.6677
   14MOL0     C 1762   5.442   1.302   0.449  0.7415 -0.0439  0.2741
   14MOL0     O 1763   5.725   1.174   0.380  0.0830  0.1904 -0.0386
   14MOL0     C 1764   5.853   1.160   0.726  0.9658  1.0160  0.2872
   14MOL0     C 1765   5.972   1.157   0.796  0.4039  0.6068  0.6746
   14MOL0     N 1766   6.865   1.414   0.715 -0.3168  0.3230 -0.3056
   14MOL0     N 1767   6.971   1.454   0.780 -0.1198  0.4034 -0.4265
   14MOL0     C 1768   7.973   0.892   1.192  0.1663  0.3643  0.4935
   14MOL0     C 1769   8.102   0.835   1.198  0.0179  0.0929 -0.2458
   14MOL0     C 1770   8.505   0.642   1.229  0.2802 -0.2534  0.5313
   14MOL0     C 1771   8.624   0.697   1.280 -0.0317  1.1080 -0.1912
   14MOL0     C 1772   8.751   0.648   1.256 -0.0633  0.1659  0.2466
   14MOL0     C 1773   8.767   0.532   1.171  0.3749 -0.1257 -1.0673
   14MOL0     O 1774   8.889   0.475   1.140 -0.8055 -0.1134 -0.2286
   14MOL0     C 1775   9.012   0.526   1.195  0.2287 -0.1221 -0.2949
   14MOL0     C 1776   9.039   0.652   1.117 -0.7045  0.5715 -0.2454
   14MOL0     C 1777   9.156   0.732   1.187  0.2915  0.2821  0.3025
   14MOL0     C 1778   9.113   0.786   1.324  0.5873 -0.7606 -0.7691
   14MOL0     C 1779   9.209   0.868   1.390 -0.1190  0.0443 -0.2646
   14MOL0     C 1780   9.285   0.942   1.449 -0.2866 -0.5595 -0.1940
   14MOL0     C 1781   8.649   0.477   1.117  0.2855  0.1383  0.4671
   14MOL0     C 1782   8.518   0.529   1.148 -0.1110 -0.0480 -0.5353
   14MOL0     H 1783   8.050   0.526   1.091 -0.2101  1.0261 -4.3399
   14MOL0     H 1784   7.816   0.614   1.074 -0.7812  0.1498 -0.3038
   14MOL0     H 1785   7.759   0.972   1.324  1.1614  1.8468 -0.8951
   14MOL0     H 1786   7.598   0.906   1.290 -1.1373  2.8410 -0.6441
   14MOL0     H 1787   7.714   1.121   1.114  0.9280 -0.1427  1.0344
   14MOL0     H 1788   7.647   1.160   1.267  1.2721  0.6029 -0.9894
   14MOL0     H 1789   7.437   1.036   1.209 -0.2201  1.0006  0.8303
   14MOL0     H 1790   7.521   1.002   1.047  0.5853  2.3627 -0.7458
   14MOL0     H 1791   7.418   1.273   1.158 -1.6785 -1.4976  0.4890
   14MOL0     H 1792   7.528   1.253   1.022  0.0142 -0.6957  0.0670
   14MOL0     H 1793   7.240   1.163   1.044  0.0827  0.5210  0.8978
   14MOL0     H 1794   7.345   1.101   0.917 -1.4450  2.2006 -2.8817
   14MOL0     H 1795   7.221   1.275   0.802 -1.4807  0.0476  0.4266
   14MOL0     H 1796   7.381   1.326   0.835  0.2429 -1.9467  1.9753
   14MOL0     H 1797   7.284   1.464   1.028  0.6330 -0.3113 -0.6677
   14MOL0     H 1798   7.202   1.510   0.870  0.1537 -0.5078 -0.5604
   14MOL0     H 1799   7.040   1.510   1.052 -1.6549  0.3869 -0.1172
   14MOL0     H 1800   7.095   1.342   1.084  2.5843 -0.8638 -2.8983
   14MOL0     H 1801   6.853   1.219   0.983  1.0198 -1.7299 -1.0267
   14MOL0     H 1802   6.709   1.114   0.755 -0.3486 -0.3410 -0.4313
   14MOL0     H 1803   6.689   1.227   0.630 -0.2756 -0.7688 -0.3390
   14MOL0     H 1804   6.533   1.367   0.753 -0.8729 -1.5574 -0.4471
   14MOL0     H 1805   6.560   1.284   0.911  1.7703 -0.9682 -0.1687
   14MOL0     H 1806   6.452   1.124   0.674  0.1605 -0.3953 -0.1355
   14MOL0     H 1807   6.449   1.106   0.851 -0.0037  2.6439  2.2360
   14MOL0     H 1808   6.295   1.292   0.664 -1.1298  2.1213  0.3522
   14MOL0     H 1809   6.308   1.329   0.836  4.0077 -0.4722  0.0196
   14MOL0     H 1810   6.189   1.132   0.533 -0.2056  1.6213 -1.4454
   14MOL0     H 1811   5.968   1.149   0.411 -1.0741  1.0539 -0.0600
   14MOL0     H 1812   5.394   1.022   0.634  2.1815 -0.5922 -0.2758
   14MOL0     H 1813   5.170   1.039   0.518  2.0677 -1.4682 -0.5137
   14MOL0     H 1814   5.126   1.389   0.250 -0.2624 -0.7221 -1.0346
   14MOL0     H 1815   5.053   1.459   0.390  0.3859  0.3494 -1.4084
   14MOL0     H 1816   4.917   1.245   0.220  4.5406 -1.1086  1.8649
   14MOL0     H 1817   4.928   1.408   0.173  1.1123  0.1009  0.0478
   14MOL0     H 1818   4.814   1.491   0.379  3.1553 -0.2525 -0.7311
   14MOL0     H 1819   4.791   1.323   0.420 -3.0884 -1.6853 -1.0516
   14MOL0     H 1820   4.669   1.393   0.165 -2.1469  0.4850 -0.2665
   14MOL0     H 1821   4.626   1.276   0.298 -0.2085  0.8683  0.0311
   14MOL0     H 1822   4.523   1.542   0.268  1.8886  0.9244 -0.4964
   14MOL0     H 1823   4.610   1.518   0.425 -0.8958 -1.9216  0.7487
   14MOL0     H 1824   4.455   1.310   0.460 -2.5943 -1.8754  0.1280
   14MOL0     H 1825   4.389   1.349   0.302 -3.0255  0.5694  1.8760
   14MOL0     H 1826   4.343   1.524   0.547 -1.3183  1.9490 -0.2798
   14MOL0     H 1827   4.334   1.575   0.376  2.2270  0.0827 -0.0493
   14MOL0     H 1828   4.136   1.443   0.329 -2.2955  0.4538 -0.4598
   14MOL0     H 1829   4.110   1.488   0.495  1.5263  1.0169 -0.8950
   14MOL0     H 1830   5.301   1.425   0.369 -1.3605  0.2155  1.3393
   14MOL0     H 1831   5.525   1.370   0.433  0.9721 -0.1675  0.9104
   14MOL0     H 1832   5.754   1.147   0.769  0.6105  0.0559 -0.7756
   14MOL0     H 1833   5.976   1.160   0.904 -1.1886  1.0508  0.7504
   14MOL0     H 1834   7.956   0.998   1.206  0.7433  0.8482 -2.0067
   14MOL0     H 1835   8.172   0.906   1.241  1.5689 -0.4301 -1.7954
   14MOL0     H 1836   8.622   0.792   1.331 -1.2641  1.2913 -0.5618
   14MOL0     H 1837   8.835   0.701   1.300  0.5830  0.3850 -1.1991
   14MOL0     H 1838   9.093   0.456   1.177  0.4224  0.2060 -0.7276
   14MOL0     H 1839   8.993   0.529   1.303  1.2216 -0.3189 -0.1022
   14MOL0     H 1840   9.067   0.621   1.016 -0.2440 -2.6234  0.7641
   14MOL0     H 1841   8.949   0.713   1.111 -0.9718  0.1056 -1.2966
   14MOL0     H 1842   9.194   0.821   1.135  1.2189  0.1628  0.7542
   14MOL0     H 1843   9.233   0.654   1.197 -1.3262 -1.1651  2.2931
   14MOL0     H 1844   9.029   0.846   1.288  0.9614  0.7823  0.8035
   14MOL0     H 1845   9.082   0.715   1.401  2.7801 -1.2727 -0.2702
   14MOL0     H 1846   9.360   0.999   1.500 -0.6814  0.2395 -0.5011
   14MOL0     H 1847   8.665   0.393   1.050  0.6337  0.7629 -0.2391
   14MOL0     H 1848   8.436   0.481   1.096 -2.0787  1.0351  1.4180
   15MOL0     O 1849   9.859   7.653   4.736 -0.3788  1.2582 -0.1565
   15MOL0     C 1850   9.869   7.559   4.664  0.8036 -0.1754 -0.0996
   15MOL0     O 1851   9.757   7.494   4.612 -0.4698  0.1937 -0.0353
   15MOL0     C 1852   9.643   7.576   4.612  0.9879  0.0722  0.1838
   15MOL0     C 1853   9.522   7.522   4.658  0.5171 -0.4585 -0.0305
   15MOL0     C 1854   9.406   7.604   4.643  0.3826  0.0565 -0.2306
   15MOL0     C 1855   9.403   7.728   4.588 -0.0834  0.1093  0.4218
   15MOL0     O 1856   9.280   7.780   4.578 -0.0157 -0.5737 -0.7432
   15MOL0     C 1857   9.272   7.915   4.639  0.0264  0.1567  0.7613
   15MOL0     C 1858   9.139   7.994   4.610  0.3340  1.2358  0.3131
   15MOL0     C 1859   9.141   8.143   4.662 -0.7644  0.2313 -0.7628
   15MOL0     C 1860   9.000   8.192   4.685 -0.3824  0.4870  0.0113
   15MOL0     C 1861   8.959   8.272   4.560 -0.7129 -0.0808 -0.3963
   15MOL0     C 1862   8.810   8.303   4.550  0.6046  0.5071  0.0549
   15MOL0     C 1863   8.731   8.173   4.509 -0.0512  0.0276  0.5939
   15MOL0     C 1864   8.586   8.209   4.465  0.3624 -0.9409  0.7037
   15MOL0     N 1865   8.508   8.300   4.549  0.0813 -0.3792 -0.6101
   15MOL0     C 1866   8.520   8.440   4.546  0.1254 -0.9208  0.4469
   15MOL0     C 1867   8.430   8.478   4.638  0.5815 -0.5450  1.5011
   15MOL0     C 1868   8.377   8.614   4.646 -0.4661  0.2758  0.1857
   15MOL0     C 1869   8.254   8.638   4.561 -0.6951 -0.6317  0.0379
   15MOL0     C 1870   8.289   8.622   4.402  0.3652 -0.3652 -0.2123
   15MOL0     C 1871   8.159   8.646   4.314 -0.7244  0.1683  0.2876
   15MOL0     O 1872   8.067   8.530   4.318 -0.7405  0.2837 -0.3682
   15MOL0     C 1873   7.951   8.541   4.249 -0.5472  0.6094 -1.0656
   15MOL0     C 1874   7.856   8.452   4.297 -0.1321  0.0796 -0.1701
   15MOL0     C 1875   7.726   8.452   4.254 -0.2978 -0.1025  0.3358
   15MOL0     C 1876   7.683   8.549   4.163 -0.5195 -0.4946 -0.5142
   15MOL0     C 1877   7.539   8.552   4.108 -0.6582 -0.3574  0.1431
   15MOL0     O 1878   7.454   8.462   4.162  0.1255 -0.1960 -0.2002
   15MOL0     C 1879   7.378   8.371   4.103  0.1155  0.5347  0.2342
   15MOL0     C 1880   7.390   8.341   3.958 -0.3252  0.5814  0.4366
   15MOL0     C 1881   7.311   8.241   3.912 -0.4641  0.1537 -0.0629
   15MOL0     C 1882   7.197   8.190   3.975 -0.5907 -0.3942  0.4155
   15MOL0     O 1883   7.110   8.120   3.897  0.3531 -0.0452  0.6044
   15MOL0     C 1884   7.026   8.033   3.975 -0.0198 -0.2341 -0.5062
   15MOL0     C 1885   6.959   7.940   3.874  0.1797  0.6267  0.4938
   15MOL0     C 1886   6.891   7.819   3.926  0.0111 -0.0980 -0.6410
   15MOL0     C 1887   6.852   7.711   3.821 -0.4295 -0.4468 -0.3929
   15MOL0     C 1888   6.752   7.611   3.876 -0.0374  0.9007  0.6875
   15MOL0     C 1889   6.726   7.494   3.772  0.2193  0.4041  0.3870
   15MOL0     C 1890   6.633   7.381   3.815 -0.3862  0.6360 -0.8573
   15MOL0     C 1891   6.502   7.428   3.873  0.5166  0.0808 -0.4361
   15MOL0    Cl 1892   6.413   7.280   3.924  0.1015 -0.1994  0.3016
   15MOL0     C 1893   7.177   8.217   4.106  0.3518  0.1336  0.0859
   15MOL0     C 1894   7.274   8.306   4.172  0.2332 -0.0620  0.0381
   15MOL0     O 1895   7.506   8.634   4.020  0.5016 -0.0287  0.0339
   15MOL0     C 1896   7.782   8.643   4.112  0.1510 -0.1428 -0.9141
   15MOL0     C 1897   7.916   8.638   4.156  1.3390  0.1322  0.1219
   15MOL0     N 1898   8.366   8.363   4.696  0.0993  0.3314 -0.5936
   15MOL0     N 1899   8.410   8.262   4.641 -0.9696 -0.6943  0.1428
   15MOL0     C 1900   9.527   7.786   4.547  0.6978 -0.7454  0.0456
   15MOL0     C 1901   9.643   7.712   4.554  0.1557  0.7654 -0.2569
   15MOL0     C 1902  10.006   7.525   4.618 -0.8094  0.1582 -0.4819
   15MOL0     C 1903  10.111   7.565   4.701 -0.0721  0.0752  0.0613
   15MOL0     C 1904  10.240   7.539   4.652  0.1631 -0.5279  0.7502
   15MOL0     C 1905  10.262   7.465   4.538  0.5965 -0.4716  0.2975
   15MOL0     O 1906  10.389   7.439   4.487  0.0032  0.0358  0.6326
   15MOL0     C 1907  10.505   7.477   4.565 -0.4652 -0.4875  0.2554
   15MOL0     C 1908  10.625   7.443   4.475  0.4055 -0.3123 -0.2279
   15MOL0     C 1909  10.637   7.501   4.328 -0.5725  0.1084  0.3122
   15MOL0     C 1910  10.665   7.646   4.344  0.5521  0.1491 -0.9353
   15MOL0     C 1911  10.799   7.667   4.402 -0.2873  0.2104 -0.9405
   15MOL0     C 1912  10.902   7.698   4.453  0.0482  0.3246  0.0881
   15MOL0     C 1913  10.154   7.436   4.450 -0.0497  0.9643 -0.8651
   15MOL0     C 1914  10.023   7.464   4.497 -0.2461  0.2234 -0.8096
   15MOL0     H 1915   9.519   7.421   4.696  2.4759 -0.1622  1.0335
   15MOL0     H 1916   9.316   7.556   4.681  0.4071 -3.2347 -3.7416
   15MOL0     H 1917   9.338   7.985   4.586 -0.3902  1.9110  2.4335
   15MOL0     H 1918   9.285   7.920   4.747 -0.7366 -2.8193  1.0746
   15MOL0     H 1919   9.066   7.936   4.666 -1.2820  0.8315 -2.0677
   15MOL0     H 1920   9.120   7.988   4.502  0.8642 -1.4321  0.3033
   15MOL0     H 1921   9.200   8.212   4.601 -0.5392  0.0931 -0.6993
   15MOL0     H 1922   9.193   8.144   4.758  1.9634  0.7704 -2.1619
   15MOL0     H 1923   8.936   8.104   4.698 -1.2795  1.1245  0.0097
   15MOL0     H 1924   9.000   8.245   4.781  0.5830 -0.5332  0.5928
   15MOL0     H 1925   8.990   8.212   4.474  0.0739 -0.8863  0.4246
   15MOL0     H 1926   9.008   8.370   4.564  2.4156 -1.5319  0.2786
   15MOL0     H 1927   8.789   8.385   4.481 -0.5746  0.2172  0.0402
   15MOL0     H 1928   8.785   8.332   4.653  0.9877 -0.7757  0.5301
   15MOL0     H 1929   8.782   8.122   4.427  1.4450  1.8293  0.3251
   15MOL0     H 1930   8.726   8.101   4.590 -1.9464 -0.4664  0.0767
   15MOL0     H 1931   8.536   8.113   4.447 -3.4834  0.4158  2.9047
   15MOL0     H 1932   8.591   8.259   4.368 -2.0352  0.6244  1.3161
   15MOL0     H 1933   8.561   8.507   4.471 -2.7381  1.2503  0.6780
   15MOL0     H 1934   8.458   8.685   4.625  1.3336 -1.2218  1.6974
   15MOL0     H 1935   8.339   8.622   4.748  0.6785 -0.9249  0.7300
   15MOL0     H 1936   8.213   8.736   4.587  0.8355 -0.4713  2.0686
   15MOL0     H 1937   8.182   8.558   4.581 -0.4978 -1.8835 -3.5172
   15MOL0     H 1938   8.369   8.692   4.377  1.9014 -1.6526  0.8774
   15MOL0     H 1939   8.328   8.520   4.392 -1.3824 -0.9631 -1.4492
   15MOL0     H 1940   8.207   8.649   4.215  1.5930 -3.8998  1.0772
   15MOL0     H 1941   8.110   8.742   4.335 -0.7889 -0.1471  1.6098
   15MOL0     H 1942   7.885   8.397   4.386  1.6020 -0.2385 -0.8935
   15MOL0     H 1943   7.652   8.385   4.295  0.6178  0.4335  3.1217
   15MOL0     H 1944   7.464   8.392   3.898 -0.0878 -1.6945 -1.3609
   15MOL0     H 1945   7.346   8.200   3.818  1.2824 -0.1788  0.6945
   15MOL0     H 1946   6.944   8.090   4.021  0.8025  1.2005 -0.7719
   15MOL0     H 1947   7.079   7.966   4.043  1.0256  0.0858 -0.9840
   15MOL0     H 1948   7.026   7.896   3.800 -0.6640 -1.4515  0.8840
   15MOL0     H 1949   6.894   7.995   3.805  0.2080 -0.2699 -0.2671
   15MOL0     H 1950   6.797   7.853   3.971 -0.1238 -1.5438  0.2326
   15MOL0     H 1951   6.949   7.770   4.005 -0.2771 -2.4292 -1.8041
   15MOL0     H 1952   6.821   7.760   3.729  1.1381  0.6010 -0.4083
   15MOL0     H 1953   6.942   7.654   3.796 -0.3872  0.5527 -2.7136
   15MOL0     H 1954   6.655   7.654   3.902 -1.7701 -0.4850 -2.8197
   15MOL0     H 1955   6.804   7.571   3.964  2.7724 -1.4577 -1.8186
   15MOL0     H 1956   6.821   7.445   3.749  0.3967 -1.1823  3.8697
   15MOL0     H 1957   6.697   7.546   3.680  1.6539 -0.6772 -0.7367
   15MOL0     H 1958   6.604   7.312   3.735  3.1530 -1.8664 -0.2051
   15MOL0     H 1959   6.676   7.321   3.896  1.7039  1.5905 -1.1973
   15MOL0     H 1960   6.442   7.477   3.796  0.3019 -2.3369 -1.9028
   15MOL0     H 1961   6.512   7.495   3.960 -2.5590  0.4680 -0.2628
   15MOL0     H 1962   7.092   8.174   4.158 -0.5760 -0.1771 -1.6330
   15MOL0     H 1963   7.270   8.333   4.277 -0.6473  1.1501 -0.2823
   15MOL0     H 1964   7.757   8.710   4.030 -1.3455 -0.2326 -0.5662
   15MOL0     H 1965   7.994   8.697   4.108  1.3925 -0.7129 -0.8657
   15MOL0     H 1966   9.518   7.880   4.494 -2.3983 -1.4625 -0.9007
   15MOL0     H 1967   9.731   7.748   4.502 -1.3544  3.9920 -0.8596
   15MOL0     H 1968  10.088   7.611   4.796 -1.9466  1.2484 -0.9128
   15MOL0     H 1969  10.319   7.575   4.717 -1.8853  1.6019  2.2550
   15MOL0     H 1970  10.510   7.421   4.659  1.2757  0.8312  0.9978
   15MOL0     H 1971  10.515   7.583   4.591 -0.5274 -0.2645 -0.5971
   15MOL0     H 1972  10.715   7.473   4.530 -0.6308  0.4154  1.1346
   15MOL0     H 1973  10.623   7.336   4.451 -2.4579 -0.1829 -0.9995
   15MOL0     H 1974  10.543   7.491   4.273  0.0875 -0.7028 -0.7032
   15MOL0     H 1975  10.722   7.463   4.270  0.1148 -1.1129  2.0117
   15MOL0     H 1976  10.679   7.688   4.244  0.5321  1.6776 -0.3117
   15MOL0     H 1977  10.588   7.694   4.406  2.7469  2.7261  0.0138
   15MOL0     H 1978  10.987   7.749   4.494  0.6851 -1.6773  1.3888
   15MOL0     H 1979  10.173   7.388   4.355  3.1817  0.6574 -0.1690
   15MOL0     H 1980   9.943   7.432   4.432  1.4483  1.0739 -3.4852
   16MOL0     O 1981   2.952  11.236   0.227 -0.0229 -0.0007  0.7929
   16MOL0     C 1982   2.946  11.195   0.340 -0.3766  0.9266  1.0708
   16MOL0     O 1983   2.838  11.136   0.399 -0.0537 -0.6297  0.6192
   16MOL0     C 1984   2.767  11.037   0.332  0.0626 -0.0943 -1.0892
   16MOL0     C 1985   2.817  10.961   0.224 -0.3114 -0.1495  0.2870
   16MOL0     C 1986   2.774  10.841   0.186  0.1625 -0.1359  0.1094
   16MOL0     C 1987   2.652  10.797   0.244 -1.1364  0.0813 -1.2298
   16MOL0     O 1988   2.579  10.688   0.208  0.0117  0.2613  0.1922
   16MOL0     C 1989   2.647  10.568   0.162  0.0384 -0.5399  0.1052
   16MOL0     C 1990   2.546  10.472   0.106 -0.6088 -0.2711  0.4675
   16MOL0     C 1991   2.450  10.437   0.214 -1.1618 -1.0061 -0.2162
   16MOL0     C 1992   2.333  10.357   0.168 -0.3633  0.5918  0.7889
   16MOL0     C 1993   2.272  10.275   0.283  0.8803  1.1219 -0.6804
   16MOL0     C 1994   2.178  10.367   0.357  0.2785  0.3724  0.3007
   16MOL0     C 1995   2.042  10.376   0.279 -0.3823 -0.0368 -0.8276
   16MOL0     C 1996   1.928  10.413   0.372 -0.0941  0.1217 -0.5188
   16MOL0     N 1997   1.795  10.411   0.315  0.3396 -0.3468  0.8553
   16MOL0     C 1998   1.736  10.309   0.251  0.8738  0.1903 -0.4977
   16MOL0     C 1999   1.614  10.359   0.211 -0.6419  0.0273  0.1871
   16MOL0     C 2000   1.507  10.292   0.134  0.0363 -0.4024 -0.3126
   16MOL0     C 2001   1.375  10.333   0.184 -0.2731 -0.4354  0.3611
   16MOL0     C 2002   1.281  10.235   0.115 -0.2135  0.0966 -0.2786
   16MOL0     C 2003   1.140  10.260   0.167 -0.9657  0.9042 -0.0866
   16MOL0     O 2004   1.139  10.219   0.297 -0.5379 -0.8767 -0.4144
   16MOL0     C 2005   1.023  10.228   0.374  0.0690  0.7025  0.2051
   16MOL0     C 2006   0.895  10.278   0.337  0.9516  0.0310 -0.1387
   16MOL0     C 2007   0.800  10.271   0.443 -0.6111 -0.0335 -0.4384
   16MOL0     C 2008   0.808  10.204   0.557 -0.1667 -0.6849  0.0849
   16MOL0     C 2009   0.697  10.195   0.654  0.4727  0.3535 -0.6344
   16MOL0     O 2010   0.583  10.258   0.613 -0.0033 -0.1484  0.9277
   16MOL0     C 2011   0.491  10.290   0.705  0.8181 -0.5412 -1.0872
   16MOL0     C 2012   0.399  10.204   0.760  0.0135 -0.3426  0.4916
   16MOL0     C 2013   0.299  10.237   0.858 -0.2788  0.4268 -0.0458
   16MOL0     C 2014   0.303  10.373   0.906  0.1327  0.0361 -0.6188
   16MOL0     O 2015   0.219  10.425   1.001 -0.0158 -0.2759 -0.0276
   16MOL0     C 2016   0.095  10.359   1.010  0.2692 -0.6998  1.0763
   16MOL0     C 2017   0.007  10.448   1.094 -0.0694  0.4283 -0.3882
   16MOL0     C 2018  -0.047  10.567   1.020 -0.9985 -0.7539  0.7552
   16MOL0     C 2019  -0.197  10.606   1.056  0.3806 -0.6405  0.5906
   16MOL0     C 2020  -0.263  10.725   0.976 -0.0543  0.3881 -0.1349
   16MOL0     C 2021  -0.409  10.723   1.016  0.4982  0.4131  0.3115
   16MOL0     C 2022  -0.486  10.849   0.966  0.0737  0.5908 -0.8716
   16MOL0     C 2023  -0.622  10.837   1.037  0.1543 -0.0695  0.7565
   16MOL0    Cl 2024  -0.762  10.898   0.941  0.1075 -0.0749  0.3922
   16MOL0     C 2025   0.384  10.461   0.838 -0.1636  0.0342 -0.4087
   16MOL0     C 2026   0.472  10.424   0.738 -0.3560  0.5044 -0.2779
   16MOL0     O 2027   0.716  10.126   0.752  0.2871 -0.3799  0.3096
   16MOL0     C 2028   0.938  10.165   0.589  0.1907  0.5246 -0.8620
   16MOL0     C 2029   1.040  10.171   0.501 -0.2576 -0.1778 -0.1803
   16MOL0     N 2030   1.606  10.489   0.250  0.3499 -0.6921  0.5438
   16MOL0     N 2031   1.720  10.526   0.304  0.4158 -0.2110 -0.5934
   16MOL0     C 2032   2.591  10.874   0.343  0.6896 -0.3002  0.2569
   16MOL0     C 2033   2.653  10.987   0.399  0.8380  0.3334 -0.6785
   16MOL0     C 2034   3.059  11.226   0.426 -0.5021 -0.2665 -0.9436
   16MOL0     C 2035   3.055  11.202   0.563 -0.2372  0.6164  0.5927
   16MOL0     C 2036   3.159  11.248   0.647  0.4565  0.2353 -1.5896
   16MOL0     C 2037   3.274  11.311   0.587  0.3745 -0.9134 -0.5282
   16MOL0     O 2038   3.375  11.360   0.664 -0.1529  0.1175  0.6425
   16MOL0     C 2039   3.367  11.317   0.803 -0.1052  0.0665 -0.7769
   16MOL0     C 2040   3.486  11.382   0.890 -0.5483 -0.8233 -0.1220
   16MOL0     C 2041   3.515  11.533   0.850 -0.2148  0.1775  0.0170
   16MOL0     C 2042   3.403  11.634   0.906  0.4180  0.1735  0.6697
   16MOL0     C 2043   3.420  11.769   0.841  0.0159 -0.0882 -0.8323
   16MOL0     C 2044   3.426  11.868   0.774  0.0146  0.2642  0.5469
   16MOL0     C 2045   3.279  11.325   0.447 -0.0652 -0.6715  0.2047
   16MOL0     C 2046   3.167  11.297   0.368  0.6418  0.8956  0.3006
   16MOL0     H 2047   2.908  10.988   0.171 -0.7727 -0.5506 -0.7372
   16MOL0     H 2048   2.837  10.787   0.117 -1.4877 -1.6515 -0.2966
   16MOL0     H 2049   2.703  10.530   0.247 -2.3583  1.2109  2.6508
   16MOL0     H 2050   2.713  10.609   0.084 -0.7470  2.5019  0.9065
   16MOL0     H 2051   2.603  10.383   0.076 -2.7628 -1.3735 -0.5315
   16MOL0     H 2052   2.495  10.520   0.022  0.7193  0.7553  0.1993
   16MOL0     H 2053   2.416  10.532   0.255 -0.8778 -0.8607 -0.3184
   16MOL0     H 2054   2.512  10.385   0.287  1.4074  1.6757 -0.3308
   16MOL0     H 2055   2.253  10.423   0.134 -0.2059  0.3465 -0.0770
   16MOL0     H 2056   2.372  10.297   0.085  0.6174  0.6678  1.1742
   16MOL0     H 2057   2.349  10.249   0.356  1.4103  0.1338 -1.5560
   16MOL0     H 2058   2.226  10.181   0.250 -0.1470  0.9370  1.1363
   16MOL0     H 2059   2.219  10.468   0.370 -3.4250  2.0324  0.5084
   16MOL0     H 2060   2.166  10.316   0.453 -0.2048  1.0594  0.6130
   16MOL0     H 2061   2.058  10.442   0.194  0.3779  0.2201 -0.4958
   16MOL0     H 2062   2.016  10.278   0.237  0.6896 -1.9104  2.4779
   16MOL0     H 2063   1.952  10.512   0.412  0.2429  0.6070 -1.8670
   16MOL0     H 2064   1.922  10.338   0.452  3.5528 -0.0877 -0.3048
   16MOL0     H 2065   1.778  10.209   0.238 -2.2710 -1.3434  0.1454
   16MOL0     H 2066   1.521  10.187   0.161  0.3260 -0.0924  0.7805
   16MOL0     H 2067   1.515  10.303   0.025 -1.4424 -2.6057 -0.7295
   16MOL0     H 2068   1.351  10.440   0.173  1.9688  0.1329  0.5937
   16MOL0     H 2069   1.377  10.306   0.290 -0.1533 -2.6428 -0.1527
   16MOL0     H 2070   1.276  10.264   0.010 -2.5962 -0.3755 -0.3521
   16MOL0     H 2071   1.302  10.128   0.125  0.1879  0.3000  1.2114
   16MOL0     H 2072   1.071  10.195   0.112 -0.1703  1.2970 -1.6133
   16MOL0     H 2073   1.108  10.365   0.160 -3.1246  0.3896  1.1910
   16MOL0     H 2074   0.873  10.322   0.241  1.2618 -3.2314 -1.8513
   16MOL0     H 2075   0.707  10.318   0.412 -3.3847 -4.3245  0.5139
   16MOL0     H 2076   0.390  10.101   0.726 -0.4237 -0.3042  0.4818
   16MOL0     H 2077   0.229  10.165   0.900 -0.2403  0.0743 -0.5716
   16MOL0     H 2078   0.107  10.262   1.058 -0.3171 -0.9490  0.7202
   16MOL0     H 2079   0.059  10.349   0.908 -1.7620  1.7350  1.4512
   16MOL0     H 2080   0.070  10.483   1.176  1.2106 -2.7417  0.0918
   16MOL0     H 2081  -0.073  10.390   1.141  2.1627 -1.0003  1.8828
   16MOL0     H 2082  -0.046  10.547   0.912  3.2152 -2.9639  0.9982
   16MOL0     H 2083   0.015  10.656   1.037 -1.4796 -0.3526  0.4736
   16MOL0     H 2084  -0.266  10.523   1.039 -0.8920  0.6710 -1.0112
   16MOL0     H 2085  -0.197  10.633   1.162 -0.6283 -4.1918  1.6591
   16MOL0     H 2086  -0.254  10.707   0.868 -4.9386 -1.0768 -0.5127
   16MOL0     H 2087  -0.208  10.818   0.992  2.3499 -0.8211 -0.8871
   16MOL0     H 2088  -0.418  10.700   1.122 -0.5926 -1.8765 -0.2198
   16MOL0     H 2089  -0.452  10.634   0.969 -0.2683  0.9587 -0.0567
   16MOL0     H 2090  -0.438  10.942   0.996 -2.8934  1.4364  1.7606
   16MOL0     H 2091  -0.504  10.852   0.858 -0.8989  0.1616 -0.7352
   16MOL0     H 2092  -0.603  10.890   1.130 -3.6672  0.8713  1.1501
   16MOL0     H 2093  -0.640  10.730   1.054  3.0790 -0.5127  1.5905
   16MOL0     H 2094   0.389  10.568   0.856  2.3323  0.0351 -0.6760
   16MOL0     H 2095   0.531  10.495   0.682  0.9611 -1.1828 -1.1436
   16MOL0     H 2096   0.954  10.108   0.681 -0.4542 -3.1025 -2.7934
   16MOL0     H 2097   1.133  10.142   0.547  0.1286  3.1519  1.4243
   16MOL0     H 2098   2.490  10.850   0.373  0.0891  2.9584  1.2770
   16MOL0     H 2099   2.614  11.036   0.487  1.8853  0.0968 -0.0653
   16MOL0     H 2100   2.973  11.141   0.600 -1.2474  1.1307 -0.7021
   16MOL0     H 2101   3.134  11.220   0.749  1.0443  0.4804 -1.3770
   16MOL0     H 2102   3.368  11.210   0.822 -1.1253  0.1479 -0.1895
   16MOL0     H 2103   3.270  11.350   0.842  0.8472  0.6633  1.2185
   16MOL0     H 2104   3.478  11.375   0.999 -1.2825 -2.4479 -0.2451
   16MOL0     H 2105   3.577  11.324   0.871 -1.5663 -2.5344  0.0149
   16MOL0     H 2106   3.528  11.540   0.741 -3.9553 -0.9829 -0.6153
   16MOL0     H 2107   3.610  11.558   0.898 -1.5752  0.2147  2.8386
   16MOL0     H 2108   3.302  11.600   0.881 -0.6254  2.3714  1.6038
   16MOL0     H 2109   3.399  11.646   1.014 -0.6986 -0.4562  0.7104
   16MOL0     H 2110   3.422  11.957   0.716  4.3743 -0.2360 -0.8882
   16MOL0     H 2111   3.363  11.382   0.408 -1.5018  1.3845 -0.0832
   16MOL0     H 2112   3.162  11.314   0.261  0.1764  0.0451  0.1779
   17MOL0     O 2113   9.475  11.071   7.807  0.3857 -0.1091 -0.0709
   17MOL0     C 2114   9.454  11.184   7.847  0.0620 -0.1925  0.2297
   17MOL0     O 2115   9.542  11.285   7.827  0.2606 -0.7893 -0.3082
   17MOL0     C 2116   9.660  11.253   7.756 -0.1197 -0.4082  0.3317
   17MOL0     C 2117   9.766  11.174   7.809 -0.1376  0.2425 -0.5640
   17MOL0     C 2118   9.900  11.163   7.745  0.0305 -0.3085 -1.4897
   17MOL0     C 2119   9.921  11.246   7.634 -0.5994 -0.7539  1.0994
   17MOL0     O 2120  10.039  11.257   7.558  0.2409  0.4531 -0.4385
   17MOL0     C 2121  10.170  11.204   7.604 -0.0122 -0.4807  0.5398
   17MOL0     C 2122  10.170  11.058   7.563 -0.5399  0.7999 -0.3412
   17MOL0     C 2123  10.175  11.037   7.411 -0.3971 -0.0780  0.3649
   17MOL0     C 2124  10.156  10.887   7.366 -0.2455  1.2019  0.0252
   17MOL0     C 2125  10.178  10.867   7.220  1.1344 -0.3734 -0.0980
   17MOL0     C 2126  10.055  10.907   7.140 -0.0639  0.3116  0.0976
   17MOL0     C 2127   9.961  10.788   7.116  0.7109  0.2751 -0.1686
   17MOL0     C 2128   9.835  10.837   7.041  0.3032 -0.0467 -0.4305
   17MOL0     N 2129   9.743  10.724   7.024 -0.1691 -0.3586 -0.7579
   17MOL0     C 2130   9.608  10.732   7.052 -0.0149  0.2633 -0.4836
   17MOL0     C 2131   9.572  10.601   7.027  0.1661  0.8725 -0.3702
   17MOL0     C 2132   9.427  10.563   7.057 -0.1201  0.2624 -0.6139
   17MOL0     C 2133   9.391  10.569   7.204 -0.2975 -1.4759  0.1275
   17MOL0     C 2134   9.335  10.441   7.270  0.1712 -0.0377 -0.1434
   17MOL0     C 2135   9.282  10.484   7.409 -0.2051  0.5594  0.3381
   17MOL0     O 2136   9.186  10.583   7.402 -0.0021  0.4985  0.3920
   17MOL0     C 2137   9.054  10.553   7.391  0.5111  0.5416  0.8772
   17MOL0     C 2138   9.003  10.446   7.326  0.2194 -0.0495  0.2299
   17MOL0     C 2139   8.872  10.407   7.328 -0.2660 -1.0098  1.2873
   17MOL0     C 2140   8.773  10.494   7.382  0.2641  0.2808  0.4838
   17MOL0     C 2141   8.630  10.453   7.371 -0.0759 -0.3004  0.4756
   17MOL0     O 2142   8.600  10.318   7.374 -0.6755  0.4605 -0.2764
   17MOL0     C 2143   8.470  10.272   7.390  0.7304  0.5194 -0.8219
   17MOL0     C 2144   8.420  10.164   7.315  0.0046  0.8722 -0.0990
   17MOL0     C 2145   8.297  10.122   7.332  0.2852  0.4609 -0.9461
   17MOL0     C 2146   8.207  10.185   7.426 -0.0687  0.3819  0.2722
   17MOL0     O 2147   8.081  10.146   7.459  0.4259 -0.0134 -0.2081
   17MOL0     C 2148   8.033  10.013   7.426 -0.1903 -0.2265 -0.3155
   17MOL0     C 2149   7.922   9.963   7.515 -0.1028  0.1286  0.3201
   17MOL0     C 2150   7.790  10.039   7.500 -0.8395 -1.0129  0.3265
   17MOL0     C 2151   7.698   9.996   7.602 -0.7749 -0.0958 -0.0471
   17MOL0     C 2152   7.553  10.031   7.575 -0.3351  0.0167 -0.4424
   17MOL0     C 2153   7.531  10.180   7.545  0.6451  0.1053 -0.7097
   17MOL0     C 2154   7.378  10.188   7.521  0.2353 -0.0286 -0.1911
   17MOL0     C 2155   7.339  10.331   7.473 -0.0704 -1.0330 -0.6693
   17MOL0    Cl 2156   7.397  10.364   7.309 -0.2237  0.0429  0.1617
   17MOL0     C 2157   8.261  10.283   7.510  0.4408  0.1265 -0.0164
   17MOL0     C 2158   8.389  10.322   7.492 -0.3230  0.5278 -0.4775
   17MOL0     O 2159   8.553  10.550   7.396  0.5257  0.2647 -0.4037
   17MOL0     C 2160   8.818  10.603   7.449 -0.7991 -0.2592  0.0108
   17MOL0     C 2161   8.962  10.641   7.454  0.5729 -0.2644 -0.4744
   17MOL0     N 2162   9.687  10.527   7.003  0.2068 -0.5726  0.0650
   17MOL0     N 2163   9.779  10.609   6.979 -0.7869 -0.5540 -0.0128
   17MOL0     C 2164   9.824  11.328   7.581 -0.0132  0.1750  0.3491
   17MOL0     C 2165   9.693  11.330   7.640 -0.2379 -0.4562 -0.9708
   17MOL0     C 2166   9.324  11.213   7.907 -0.2014  0.1242 -0.4348
   17MOL0     C 2167   9.224  11.121   7.885 -0.0423  0.4903 -0.0949
   17MOL0     C 2168   9.096  11.145   7.938 -0.3731  0.0095 -0.3769
   17MOL0     C 2169   9.068  11.269   7.999  0.3749  0.5819  0.5004
   17MOL0     O 2170   8.947  11.311   8.047 -0.4487 -0.4393 -0.1048
   17MOL0     C 2171   8.840  11.218   8.066  0.8383 -0.2248  0.0332
   17MOL0     C 2172   8.731  11.286   8.141 -0.8295  0.4121 -0.0089
   17MOL0     C 2173   8.613  11.185   8.174 -0.3042 -0.4197  0.8068
   17MOL0     C 2174   8.508  11.250   8.266  0.6745  0.9440  0.5651
   17MOL0     C 2175   8.435  11.366   8.205  0.8110  0.1767 -0.6191
   17MOL0     C 2176   8.375  11.471   8.167 -1.0131  0.2593  1.1179
   17MOL0     C 2177   9.169  11.363   8.025  0.4281 -0.3648  0.1326
   17MOL0     C 2178   9.293  11.334   7.984 -0.9731  0.4037 -0.1871
   17MOL0     H 2179   9.744  11.110   7.894  0.4725  2.0262  1.0017
   17MOL0     H 2180   9.985  11.101   7.770  1.0208  1.9286  1.2824
   17MOL0     H 2181  10.189  11.214   7.711  0.8299 -1.7435  0.5297
   17MOL0     H 2182  10.246  11.252   7.542 -1.6957 -0.8544 -1.9894
   17MOL0     H 2183  10.092  11.002   7.616  1.8754 -0.8462  1.7052
   17MOL0     H 2184  10.261  11.014   7.606  0.1812  0.8465 -1.7663
   17MOL0     H 2185  10.268  11.073   7.366 -1.6414  1.9887 -0.7338
   17MOL0     H 2186  10.095  11.105   7.379 -0.1822  0.5536  1.1531
   17MOL0     H 2187  10.229  10.825   7.419 -1.3564 -0.7026 -0.5880
   17MOL0     H 2188  10.052  10.853   7.371 -0.3533  0.9715 -2.4689
   17MOL0     H 2189  10.197  10.761   7.201 -1.6180 -0.9385 -0.0967
   17MOL0     H 2190  10.261  10.936   7.198 -0.9359  2.0902 -0.6777
   17MOL0     H 2191  10.097  10.934   7.042 -1.9112  1.6170 -0.3836
   17MOL0     H 2192  10.012  10.998   7.181  0.0233  0.7118 -0.6728
   17MOL0     H 2193  10.011  10.716   7.050 -0.2013 -0.6536  0.1333
   17MOL0     H 2194   9.932  10.741   7.210 -1.8130  1.4880 -0.2693
   17MOL0     H 2195   9.858  10.868   6.939  1.4704 -2.4764 -0.9909
   17MOL0     H 2196   9.792  10.926   7.088 -0.3655  0.1913 -1.4494
   17MOL0     H 2197   9.544  10.817   7.076 -1.5788 -0.5151 -1.7277
   17MOL0     H 2198   9.415  10.466   7.009 -1.2348  0.9399 -1.7764
   17MOL0     H 2199   9.359  10.635   7.010 -1.9653  0.6475  2.3775
   17MOL0     H 2200   9.321  10.650   7.226 -0.5478 -2.1529  1.9988
   17MOL0     H 2201   9.477  10.606   7.261 -0.3317  2.5346 -2.0699
   17MOL0     H 2202   9.259  10.390   7.212  2.1355 -1.2348 -1.8136
   17MOL0     H 2203   9.415  10.366   7.272  0.8654  0.6617 -1.1660
   17MOL0     H 2204   9.375  10.518   7.456  0.0437 -0.4490  0.6045
   17MOL0     H 2205   9.250  10.395   7.465  2.6067 -0.1620  0.9580
   17MOL0     H 2206   9.070  10.385   7.266  1.9356  0.7413  1.2417
   17MOL0     H 2207   8.840  10.323   7.267  1.7115 -0.8263 -0.0914
   17MOL0     H 2208   8.488  10.126   7.240  1.1623 -0.4221  1.5416
   17MOL0     H 2209   8.269  10.034   7.274  2.6762 -0.4676 -0.7907
   17MOL0     H 2210   8.119   9.946   7.434 -0.8096 -0.8263  2.0380
   17MOL0     H 2211   7.995  10.022   7.324  1.1116  2.9679 -0.6515
   17MOL0     H 2212   7.947   9.956   7.622  0.8195 -1.5547  0.0300
   17MOL0     H 2213   7.907   9.858   7.490  0.5951 -0.5000  2.3626
   17MOL0     H 2214   7.749  10.011   7.402 -3.0086  1.8807  0.2687
   17MOL0     H 2215   7.819  10.144   7.501  0.9046 -1.4534  2.4208
   17MOL0     H 2216   7.700   9.887   7.605 -2.0111 -0.1478 -0.7266
   17MOL0     H 2217   7.731  10.025   7.703  1.0154 -1.6150 -0.1415
   17MOL0     H 2218   7.496   9.993   7.660 -0.8442  1.1289 -0.2669
   17MOL0     H 2219   7.523   9.975   7.487 -1.1593  1.1122 -0.8748
   17MOL0     H 2220   7.582  10.193   7.449  2.4957  2.1637  0.4730
   17MOL0     H 2221   7.577  10.245   7.619  0.8447 -0.3414 -0.4373
   17MOL0     H 2222   7.353  10.115   7.444  0.2965 -1.4487  1.0987
   17MOL0     H 2223   7.314  10.154   7.603  0.4003  0.4030  0.1261
   17MOL0     H 2224   7.368  10.412   7.541  0.0178  0.6469 -2.6027
   17MOL0     H 2225   7.230  10.341   7.480  0.2621  3.6620  1.4625
   17MOL0     H 2226   8.205  10.323   7.593 -1.2648 -0.5887 -0.7813
   17MOL0     H 2227   8.431  10.404   7.549  2.9602 -1.6537  0.4853
   17MOL0     H 2228   8.740  10.660   7.498 -1.3358 -2.5004  1.9696
   17MOL0     H 2229   8.998  10.738   7.486  4.5192 -1.7556  0.1411
   17MOL0     H 2230   9.851  11.386   7.494  2.9807 -4.0453 -1.9033
   17MOL0     H 2231   9.612  11.387   7.599  0.3360 -0.6127 -2.3666
   17MOL0     H 2232   9.251  11.023   7.846  0.9460  1.3994 -1.8632
   17MOL0     H 2233   9.014  11.074   7.934  1.3112 -2.2178  1.5835
   17MOL0     H 2234   8.878  11.138   8.130  1.7858 -1.5693 -2.1017
   17MOL0     H 2235   8.796  11.182   7.973 -0.6381 -0.9575  0.9837
   17MOL0     H 2236   8.770  11.333   8.232 -1.8000  0.9599  0.1479
   17MOL0     H 2237   8.689  11.362   8.075 -1.2243 -0.0486 -0.2953
   17MOL0     H 2238   8.668  11.107   8.228  2.1228  1.4740  1.2713
   17MOL0     H 2239   8.571  11.153   8.078 -1.4977  1.7579  0.5331
   17MOL0     H 2240   8.447  11.163   8.290  0.4291  0.9188 -0.1230
   17MOL0     H 2241   8.549  11.274   8.364  0.6188 -0.5447  0.9767
   17MOL0     H 2242   8.312  11.555   8.149  0.1680  0.7225 -1.2677
   17MOL0     H 2243   9.154  11.461   8.069 -0.0900 -0.8840  1.1452
   17MOL0     H 2244   9.372  11.409   7.992  1.1284 -1.5746 -1.0200
   18MOL0     O 2245   5.810   1.679   0.896  0.9934 -0.2444  0.0288
   18MOL0     C 2246   5.859   1.605   0.810 -0.9989  0.8260 -0.4011
   18MOL0     O 2247   5.797   1.508   0.739 -0.2750 -0.9253  0.3733
   18MOL0     C 2248   5.664   1.496   0.757 -0.0381  0.0272 -0.1590
   18MOL0     C 2249   5.584   1.579   0.683 -0.5620 -0.2006  0.9408
   18MOL0     C 2250   5.450   1.561   0.678  0.3203  0.4436  0.2669
   18MOL0     C 2251   5.381   1.471   0.766  0.0145 -0.6127  0.4385
   18MOL0     O 2252   5.242   1.470   0.771 -0.4489 -0.7679  0.1507
   18MOL0     C 2253   5.174   1.343   0.786  0.4541 -0.7865 -0.1515
   18MOL0     C 2254   5.044   1.348   0.707  0.0338  0.5813 -0.5605
   18MOL0     C 2255   4.943   1.439   0.777 -0.2105  0.0046 -0.5836
   18MOL0     C 2256   4.812   1.462   0.709  0.3982 -0.5494  0.1015
   18MOL0     C 2257   4.717   1.530   0.805  0.1379  0.5228  0.4338
   18MOL0     C 2258   4.583   1.572   0.738  0.0427  0.5230 -0.0465
   18MOL0     C 2259   4.471   1.624   0.826 -0.2839  0.1204 -0.1491
   18MOL0     C 2260   4.404   1.514   0.912 -0.0993  0.4871  0.3640
   18MOL0     N 2261   4.274   1.551   0.971 -0.7696 -0.1579  0.1021
   18MOL0     C 2262   4.237   1.666   1.033  0.1942 -0.1418  0.5473
   18MOL0     C 2263   4.118   1.636   1.096  0.0727 -0.1348 -0.5624
   18MOL0     C 2264   4.044   1.721   1.195 -0.8739 -0.9655 -0.0545
   18MOL0     C 2265   3.918   1.771   1.137 -0.0876 -0.2803  0.0649
   18MOL0     C 2266   3.813   1.673   1.083 -0.0634  0.1373 -0.3948
   18MOL0     C 2267   3.692   1.741   1.016  0.2234  0.0303 -0.1167
   18MOL0     O 2268   3.604   1.773   1.123 -0.5205 -0.4018  0.1407
   18MOL0     C 2269   3.469   1.780   1.096 -0.3026  1.0664 -0.3228
   18MOL0     C 2270   3.399   1.779   0.968  0.0160  0.1661  0.3409
   18MOL0     C 2271   3.257   1.788   0.971  0.2832  0.0287  0.0596
   18MOL0     C 2272   3.187   1.799   1.094 -0.5262  0.3692  0.2192
   18MOL0     C 2273   3.040   1.807   1.081  0.2052  0.2473 -0.1046
   18MOL0     O 2274   2.990   1.753   0.966 -0.5665  0.1745 -0.5966
   18MOL0     C 2275   2.856   1.753   0.954  0.1022  0.9458  0.2012
   18MOL0     C 2276   2.796   1.812   0.843  0.2459  0.3860  0.3468
   18MOL0     C 2277   2.660   1.802   0.814  0.3308  0.1595  0.2320
   18MOL0     C 2278   2.574   1.735   0.901  0.5488 -0.6942 -0.1640
   18MOL0     O 2279   2.430   1.725   0.872 -0.1848 -0.0928 -0.1981
   18MOL0     C 2280   2.362   1.794   0.772  0.1260 -0.0333  0.7112
   18MOL0     C 2281   2.212   1.830   0.813  0.7235 -1.0576 -0.5718
   18MOL0     C 2282   2.209   1.964   0.897  0.5354 -0.2085 -0.5360
   18MOL0     C 2283   2.069   1.997   0.931  0.5414 -1.1498 -0.4963
   18MOL0     C 2284   2.076   2.094   1.044 -0.1757  0.3183 -0.8058
   18MOL0     C 2285   2.091   2.030   1.175  0.6139 -0.7208 -0.0912
   18MOL0     C 2286   2.100   2.134   1.288 -0.4652  0.0371 -0.4475
   18MOL0     C 2287   2.045   2.093   1.427 -0.1049  0.9812  0.8322
   18MOL0    Cl 2288   2.106   2.211   1.543 -0.2626 -0.3363 -0.2752
   18MOL0     C 2289   2.631   1.665   1.004  0.5118 -0.6727 -1.0541
   18MOL0     C 2290   2.769   1.672   1.044  0.3395  0.3215  0.3754
   18MOL0     O 2291   2.982   1.857   1.181  0.2212 -0.1666  0.3313
   18MOL0     C 2292   3.258   1.791   1.214  0.2020  0.4167 -0.4703
   18MOL0     C 2293   3.397   1.786   1.212  0.9870  0.3114 -0.0468
   18MOL0     N 2294   4.095   1.498   1.083  0.0083  0.9921 -0.6666
   18MOL0     N 2295   4.179   1.460   0.996 -0.6924  0.4856 -0.3618
   18MOL0     C 2296   5.457   1.384   0.838  0.3595  0.0410 -0.5542
   18MOL0     C 2297   5.601   1.393   0.832  0.3138  0.5768 -0.1811
   18MOL0     C 2298   5.990   1.650   0.765  0.0538 -0.0435  0.2470
   18MOL0     C 2299   6.049   1.767   0.819  0.6140  0.3938 -0.4361
   18MOL0     C 2300   6.179   1.814   0.780 -0.4767  0.6387  0.2130
   18MOL0     C 2301   6.254   1.735   0.682 -0.2786 -0.2588  0.0817
   18MOL0     O 2302   6.379   1.771   0.637 -0.1444  0.4716 -0.2783
   18MOL0     C 2303   6.450   1.870   0.697  0.8940  0.6919  0.5078
   18MOL0     C 2304   6.516   1.833   0.835  0.3010 -0.7291 -0.5411
   18MOL0     C 2305   6.607   1.711   0.822 -0.2958  0.6040 -0.4072
   18MOL0     C 2306   6.648   1.671   0.959 -0.6467  0.2294  0.2734
   18MOL0     C 2307   6.745   1.757   1.020  0.0233 -0.8724 -0.3234
   18MOL0     C 2308   6.832   1.834   1.064 -1.0489 -0.4936  0.6834
   18MOL0     C 2309   6.190   1.618   0.630  0.1325  1.3448  0.7406
   18MOL0     C 2310   6.062   1.578   0.669 -0.0469  0.2158 -0.2911
   18MOL0     H 2311   5.627   1.652   0.615  1.4040 -1.6869  0.5076
   18MOL0     H 2312   5.399   1.625   0.606  2.2326 -0.5884 -2.1551
   18MOL0     H 2313   5.140   1.324   0.888 -1.7048 -0.3535 -0.7350
   18MOL0     H 2314   5.233   1.256   0.754 -0.5851 -1.0096 -1.5785
   18MOL0     H 2315   4.998   1.252   0.682 -0.4836  1.2595 -2.4254
   18MOL0     H 2316   5.061   1.388   0.606 -1.2435 -1.2790 -1.5790
   18MOL0     H 2317   5.000   1.529   0.802 -0.2946 -0.1700  0.2853
   18MOL0     H 2318   4.927   1.385   0.871 -1.3168  0.1565 -0.6761
   18MOL0     H 2319   4.833   1.535   0.631 -1.1937 -0.2833 -0.1232
   18MOL0     H 2320   4.775   1.373   0.659 -4.1720  1.1198  0.0317
   18MOL0     H 2321   4.770   1.619   0.841 -0.5197  0.6605  1.0886
   18MOL0     H 2322   4.697   1.462   0.889  2.4001 -1.0959 -0.2469
   18MOL0     H 2323   4.540   1.489   0.681 -1.9640  0.0854  2.0059
   18MOL0     H 2324   4.610   1.647   0.663  1.3736 -1.7115 -1.9624
   18MOL0     H 2325   4.515   1.706   0.883  1.4865  0.6095 -2.1171
   18MOL0     H 2326   4.398   1.672   0.760  2.0000 -0.2893 -3.1833
   18MOL0     H 2327   4.474   1.489   0.993  0.8163  3.7231  0.7251
   18MOL0     H 2328   4.389   1.428   0.847 -0.0858  0.7133  0.0593
   18MOL0     H 2329   4.276   1.767   1.032 -0.7216  0.3336  3.5203
   18MOL0     H 2330   4.095   1.817   1.207 -3.9216  1.0078 -1.6520
   18MOL0     H 2331   4.030   1.670   1.291 -0.3530  1.7889  1.5793
   18MOL0     H 2332   3.941   1.833   1.050 -0.7090 -1.5910 -1.0927
   18MOL0     H 2333   3.880   1.849   1.203 -2.9071 -1.5234  0.0591
   18MOL0     H 2334   3.865   1.614   1.007  1.8869  0.8582  0.2964
   18MOL0     H 2335   3.773   1.606   1.159 -0.9074  0.2109 -0.7711
   18MOL0     H 2336   3.637   1.679   0.945  0.7113 -0.1393 -0.3508
   18MOL0     H 2337   3.717   1.825   0.950  0.6023 -1.1796 -1.5481
   18MOL0     H 2338   3.449   1.776   0.872 -3.0974 -0.6979 -1.4160
   18MOL0     H 2339   3.207   1.789   0.875 -0.7764  0.3431  0.5969
   18MOL0     H 2340   2.851   1.865   0.766 -1.2716 -0.0760 -1.1245
   18MOL0     H 2341   2.630   1.859   0.727 -2.3531 -0.7358  0.4642
   18MOL0     H 2342   2.355   1.729   0.684  0.1531  2.0801 -0.9562
   18MOL0     H 2343   2.419   1.882   0.742 -2.3389  1.3870 -0.1865
   18MOL0     H 2344   2.167   1.763   0.888  1.4795 -2.4619 -1.3202
   18MOL0     H 2345   2.143   1.826   0.728 -0.7920 -3.2328  0.6548
   18MOL0     H 2346   2.261   2.046   0.847  2.3469 -0.7878  0.3252
   18MOL0     H 2347   2.268   1.945   0.987  2.1287 -1.5308 -1.7917
   18MOL0     H 2348   2.021   2.047   0.847 -0.1365  2.2035  1.6858
   18MOL0     H 2349   2.022   1.902   0.957  2.1976 -2.0353 -0.5819
   18MOL0     H 2350   1.988   2.159   1.047 -1.4658 -0.8782  6.2765
   18MOL0     H 2351   2.162   2.160   1.032 -0.5426  1.0148  0.2347
   18MOL0     H 2352   2.183   1.974   1.193  0.7124 -0.5674 -0.1175
   18MOL0     H 2353   2.003   1.970   1.202 -0.3188  0.8384  0.4275
   18MOL0     H 2354   2.203   2.167   1.298 -0.6809  0.4280  0.6801
   18MOL0     H 2355   2.043   2.220   1.251 -0.6517  0.7939  1.4832
   18MOL0     H 2356   2.085   1.994   1.454 -0.0553  0.7379 -0.0926
   18MOL0     H 2357   1.936   2.091   1.432 -0.1606 -0.1452 -0.1853
   18MOL0     H 2358   2.582   1.599   1.074  4.6106  0.0293  2.9367
   18MOL0     H 2359   2.804   1.628   1.136 -0.1312  1.0120  0.8959
   18MOL0     H 2360   3.194   1.794   1.302  0.5096 -0.0918 -0.2225
   18MOL0     H 2361   3.440   1.781   1.312 -0.5104 -1.4923  0.5590
   18MOL0     H 2362   5.406   1.316   0.906  0.1517  1.3448  0.6453
   18MOL0     H 2363   5.655   1.324   0.897  1.4666  2.3851  0.8607
   18MOL0     H 2364   5.992   1.827   0.889  0.8514  1.1707 -0.9020
   18MOL0     H 2365   6.217   1.898   0.836 -1.3336  0.5073  1.0147
   18MOL0     H 2366   6.403   1.968   0.711  2.5201  1.4308  1.1187
   18MOL0     H 2367   6.529   1.899   0.627  1.5973 -2.5425 -0.1991
   18MOL0     H 2368   6.558   1.920   0.886  1.5863 -1.3560 -0.5010
   18MOL0     H 2369   6.437   1.808   0.907  1.6015  1.9795  2.0548
   18MOL0     H 2370   6.693   1.736   0.759  0.8991 -3.2219 -0.5491
   18MOL0     H 2371   6.557   1.627   0.774  3.3672 -0.8500 -2.0420
   18MOL0     H 2372   6.559   1.649   1.020 -1.2581  1.7758 -0.0011
   18MOL0     H 2373   6.697   1.577   0.932 -2.1559  0.0264 -2.0905
   18MOL0     H 2374   6.898   1.906   1.108  0.3250 -1.8991  0.9610
   18MOL0     H 2375   6.240   1.560   0.554 -2.7677  0.6986 -0.8017
   18MOL0     H 2376   6.019   1.492   0.619 -1.7583 -0.2899  1.8982
   19MOL0     O 2377   9.449   9.514   8.874 -0.7544 -0.0048  0.0266
   19MOL0     C 2378   9.455   9.594   8.782  1.2768  0.1159 -0.1148
   19MOL0     O 2379   9.358   9.684   8.748 -0.8138 -0.1455 -0.3214
   19MOL0     C 2380   9.227   9.684   8.791 -0.3768 -0.9062  0.1492
   19MOL0     C 2381   9.185   9.636   8.918 -0.3535  0.1049  0.0656
   19MOL0     C 2382   9.053   9.640   8.968 -0.0975 -0.6558 -0.0647
   19MOL0     C 2383   8.954   9.703   8.885 -0.3692 -0.3030 -0.1485
   19MOL0     O 2384   8.825   9.714   8.923  0.1466 -0.5177  0.1698
   19MOL0     C 2385   8.799   9.784   9.045 -0.4251 -0.2455  0.0789
   19MOL0     C 2386   8.776   9.690   9.167  1.4021  0.4998  0.3080
   19MOL0     C 2387   8.634   9.630   9.157 -0.4582 -0.2669 -0.0841
   19MOL0     C 2388   8.523   9.737   9.158  0.3046 -0.0885 -0.3647
   19MOL0     C 2389   8.393   9.667   9.156  0.3977 -0.0602 -0.8502
   19MOL0     C 2390   8.281   9.771   9.174  0.4680 -0.2630 -0.2629
   19MOL0     C 2391   8.169   9.719   9.267  0.3985  0.1560  0.0289
   19MOL0     C 2392   8.059   9.831   9.293 -0.1797 -0.1397 -0.5944
   19MOL0     N 2393   7.957   9.852   9.192  0.1118  0.5101 -0.0940
   19MOL0     C 2394   7.825   9.828   9.211 -0.2839 -0.8978  0.5126
   19MOL0     C 2395   7.772   9.847   9.086 -0.1077  0.7215  0.3532
   19MOL0     C 2396   7.629   9.817   9.066  0.7328  0.5041  0.2697
   19MOL0     C 2397   7.559   9.925   8.984  0.1126 -0.4009  0.9542
   19MOL0     C 2398   7.446   9.863   8.896 -0.4269 -0.0158 -0.2332
   19MOL0     C 2399   7.355   9.977   8.848  0.4526 -0.9743  0.0472
   19MOL0     O 2400   7.253   9.923   8.759 -0.4128  0.2865 -0.0189
   19MOL0     C 2401   7.138   9.866   8.801  0.7373  0.6385 -0.7812
   19MOL0     C 2402   7.107   9.807   8.926  0.6248 -0.0368 -0.1462
   19MOL0     C 2403   6.986   9.751   8.961 -0.2483 -0.3705  0.2054
   19MOL0     C 2404   6.875   9.753   8.872 -0.0756  0.5531  0.0684
   19MOL0     C 2405   6.743   9.701   8.907  1.0982 -1.1249 -0.2139
   19MOL0     O 2406   6.648   9.669   8.808  0.3527  0.0753 -0.1372
   19MOL0     C 2407   6.512   9.694   8.835 -0.4676  0.4877  0.5010
   19MOL0     C 2408   6.470   9.820   8.817 -0.6807  0.3836 -0.2230
   19MOL0     C 2409   6.339   9.843   8.847  0.7513 -0.4861 -0.0882
   19MOL0     C 2410   6.244   9.752   8.889 -0.3735  0.2491  0.5534
   19MOL0     O 2411   6.116   9.785   8.915  0.0796  0.3562  0.3243
   19MOL0     C 2412   6.011   9.689   8.900  0.5601 -1.0003  0.3393
   19MOL0     C 2413   5.873   9.757   8.877  0.6896 -0.5430  0.7901
   19MOL0     C 2414   5.760   9.657   8.879 -0.6074 -0.5135 -0.4092
   19MOL0     C 2415   5.627   9.711   8.888 -0.2318 -0.0674 -0.1752
   19MOL0     C 2416   5.518   9.634   8.815 -0.1916  0.2217 -0.5277
   19MOL0     C 2417   5.394   9.721   8.817  0.2356 -0.2838  0.4608
   19MOL0     C 2418   5.317   9.701   8.686  0.9699 -0.6360  0.7034
   19MOL0     C 2419   5.206   9.805   8.686  0.0704  0.1242  0.7753
   19MOL0    Cl 2420   5.075   9.753   8.567  0.0083 -0.2235  0.0730
   19MOL0     C 2421   6.285   9.617   8.894 -0.2920  0.3636  0.2856
   19MOL0     C 2422   6.421   9.592   8.863 -0.0594  0.0679 -0.0078
   19MOL0     O 2423   6.722   9.685   9.033 -0.3492  0.2120 -0.1296
   19MOL0     C 2424   6.905   9.805   8.744  0.0118 -0.2792  1.3131
   19MOL0     C 2425   7.039   9.850   8.709  0.5883  0.2917 -0.2471
   19MOL0     N 2426   7.868   9.889   8.994  0.1998  0.1705  1.0322
   19MOL0     N 2427   7.976   9.890   9.066 -0.0558 -0.3857  0.1289
   19MOL0     C 2428   8.995   9.741   8.758  0.5132 -0.5032  0.8302
   19MOL0     C 2429   9.129   9.746   8.714 -0.0634 -0.2418 -0.2102
   19MOL0     C 2430   9.592   9.610   8.727 -0.3643  0.1471 -0.2115
   19MOL0     C 2431   9.620   9.703   8.626 -0.2753  0.0444 -0.3100
   19MOL0     C 2432   9.748   9.735   8.590  0.7522  0.4829 -0.4469
   19MOL0     C 2433   9.851   9.659   8.642 -0.0877  0.5702  0.0122
   19MOL0     O 2434   9.979   9.693   8.609 -0.9305  0.2031 -0.1009
   19MOL0     C 2435  10.089   9.602   8.610  0.4562  0.3531  0.6693
   19MOL0     C 2436  10.208   9.679   8.575  0.8134 -0.3961  0.1400
   19MOL0     C 2437  10.326   9.590   8.562  0.3975  1.0203  0.0501
   19MOL0     C 2438  10.437   9.673   8.500 -0.9176 -0.1203 -0.1165
   19MOL0     C 2439  10.571   9.620   8.520 -0.4911 -0.2203 -0.1490
   19MOL0     C 2440  10.677   9.570   8.516  0.4904 -0.3948  0.6542
   19MOL0     C 2441   9.829   9.544   8.727  0.0156 -0.1499 -0.0222
   19MOL0     C 2442   9.698   9.532   8.773  0.8009  0.0729 -0.1124
   19MOL0     H 2443   9.266   9.597   8.978  0.5335 -1.8408 -2.2239
   19MOL0     H 2444   9.035   9.601   9.068 -0.3485 -2.0213 -0.6229
   19MOL0     H 2445   8.723   9.863   9.039  0.8843  1.0689  0.3231
   19MOL0     H 2446   8.891   9.835   9.074  0.6810 -0.0744 -3.2770
   19MOL0     H 2447   8.778   9.753   9.256 -0.5265  1.5456 -0.3234
   19MOL0     H 2448   8.852   9.613   9.183 -2.4384 -3.4564  1.3713
   19MOL0     H 2449   8.621   9.554   9.235  1.5003 -0.5718 -0.0020
   19MOL0     H 2450   8.621   9.578   9.062 -0.1567  0.3231 -0.4504
   19MOL0     H 2451   8.536   9.793   9.251  3.0099  0.3719 -0.9260
   19MOL0     H 2452   8.525   9.801   9.069 -0.0321  0.7300  0.2123
   19MOL0     H 2453   8.399   9.601   9.244  0.6599 -2.3787 -2.5064
   19MOL0     H 2454   8.383   9.610   9.063  4.6266 -0.0216 -1.5339
   19MOL0     H 2455   8.244   9.794   9.074  1.2153  1.0601 -0.2520
   19MOL0     H 2456   8.321   9.866   9.211  0.8216 -1.2176  2.0008
   19MOL0     H 2457   8.117   9.632   9.227 -1.1961  0.9257  0.3552
   19MOL0     H 2458   8.219   9.690   9.359  0.2124 -0.6933 -0.1354
   19MOL0     H 2459   8.103   9.929   9.313 -2.2139  0.8680 -0.8279
   19MOL0     H 2460   7.998   9.815   9.382 -2.6019  2.6112 -1.6146
   19MOL0     H 2461   7.763   9.791   9.292  1.7842  2.2367  3.8248
   19MOL0     H 2462   7.580   9.823   9.164 -1.4077  1.4010 -0.7771
   19MOL0     H 2463   7.616   9.715   9.027 -0.6419 -0.4909  3.0890
   19MOL0     H 2464   7.632   9.948   8.905 -0.6547  0.1720  0.4008
   19MOL0     H 2465   7.534  10.013   9.044 -1.4211 -0.9624  1.1860
   19MOL0     H 2466   7.489   9.806   8.812  1.0446  4.0417 -2.4809
   19MOL0     H 2467   7.388   9.795   8.959 -0.8475 -0.9375 -1.5542
   19MOL0     H 2468   7.424  10.045   8.797  0.8812 -0.2283  1.5706
   19MOL0     H 2469   7.300  10.036   8.922  0.2200 -1.2758  0.1146
   19MOL0     H 2470   7.185   9.806   9.002  0.8382 -0.8536 -0.3703
   19MOL0     H 2471   6.977   9.704   9.058 -0.4723 -1.7117 -0.4425
   19MOL0     H 2472   6.545   9.892   8.785  0.4515 -0.6892 -0.0861
   19MOL0     H 2473   6.314   9.945   8.820  1.0560 -1.0620 -2.8684
   19MOL0     H 2474   6.010   9.631   8.994  3.1363 -0.3085  0.8774
   19MOL0     H 2475   6.022   9.617   8.818 -0.1883  0.5110 -1.1424
   19MOL0     H 2476   5.870   9.817   8.785 -1.5751  0.8393  1.6847
   19MOL0     H 2477   5.861   9.832   8.956  1.1193  1.4532 -0.9452
   19MOL0     H 2478   5.773   9.603   8.973 -1.0510 -1.3669 -0.8231
   19MOL0     H 2479   5.769   9.593   8.791  1.6146 -0.1998 -0.4561
   19MOL0     H 2480   5.605   9.737   8.992 -1.9593  1.5208 -0.8599
   19MOL0     H 2481   5.631   9.807   8.836 -3.7840  0.3901  0.1405
   19MOL0     H 2482   5.511   9.537   8.866  1.1224 -0.6899 -1.9870
   19MOL0     H 2483   5.547   9.614   8.711 -3.6653 -1.7142 -1.2733
   19MOL0     H 2484   5.420   9.825   8.837  1.5726 -0.7967  1.6063
   19MOL0     H 2485   5.328   9.681   8.895 -0.5974 -4.6145 -2.1256
   19MOL0     H 2486   5.386   9.710   8.601  1.7681 -1.9063  1.1859
   19MOL0     H 2487   5.277   9.599   8.681  3.2029 -1.5455 -2.5696
   19MOL0     H 2488   5.250   9.904   8.666 -1.6159  1.0491  1.4199
   19MOL0     H 2489   5.161   9.822   8.784 -3.9275  1.5325 -1.1002
   19MOL0     H 2490   6.213   9.539   8.916 -0.4090  0.1841 -0.6901
   19MOL0     H 2491   6.462   9.491   8.868 -0.0949  0.0781  0.5788
   19MOL0     H 2492   6.822   9.798   8.674 -0.8825 -0.2150  2.3385
   19MOL0     H 2493   7.060   9.864   8.603 -2.0382 -1.5299 -1.0964
   19MOL0     H 2494   8.934   9.793   8.684 -0.6594 -1.0075  1.4080
   19MOL0     H 2495   9.161   9.791   8.621  0.8571 -0.6031 -0.0798
   19MOL0     H 2496   9.540   9.763   8.583 -0.5724  0.4126  0.7264
   19MOL0     H 2497   9.764   9.825   8.532  3.3770  0.5362  0.2286
   19MOL0     H 2498  10.064   9.525   8.537 -2.4263  2.1986 -0.4906
   19MOL0     H 2499  10.090   9.551   8.707 -2.0081  0.7950  0.9949
   19MOL0     H 2500  10.193   9.728   8.478  3.7489  0.4534  0.0175
   19MOL0     H 2501  10.229   9.758   8.649  1.4176 -0.8126  0.4156
   19MOL0     H 2502  10.307   9.514   8.486  1.2956  0.2298  0.5889
   19MOL0     H 2503  10.356   9.549   8.659  2.0240 -1.1677 -1.2666
   19MOL0     H 2504  10.418   9.686   8.394 -0.3704 -2.1296 -0.5063
   19MOL0     H 2505  10.450   9.770   8.549  2.3782  0.0747 -1.1155
   19MOL0     H 2506  10.763   9.506   8.510 -0.6023 -2.1167  2.1370
   19MOL0     H 2507   9.903   9.485   8.780  2.7472  1.4180 -1.8462
   19MOL0     H 2508   9.687   9.448   8.840  2.5478 -2.0432 -2.2899
   20MOL0     O 2509   7.171   3.843  10.287 -0.2721 -0.8528  0.5968
   20MOL0     C 2510   7.189   3.752  10.363 -0.5723  0.3810  0.6155
   20MOL0     O 2511   7.311   3.687  10.375  0.1794  0.2728  0.0767
   20MOL0     C 2512   7.414   3.719  10.291 -0.3578  0.3702 -0.6627
   20MOL0     C 2513   7.479   3.615  10.227 -0.1739 -0.2063 -0.5255
   20MOL0     C 2514   7.573   3.636  10.128 -0.7463  0.0022 -0.4005
   20MOL0     C 2515   7.618   3.768  10.089  0.7597  0.5967 -0.0135
   20MOL0     O 2516   7.694   3.777   9.979  0.8172 -0.3470  0.4175
   20MOL0     C 2517   7.745   3.904   9.942 -0.1628  0.6134  0.5608
   20MOL0     C 2518   7.836   3.886   9.815 -0.5561 -0.2880 -0.4600
   20MOL0     C 2519   7.894   4.013   9.761 -0.7851  0.2899 -0.1670
   20MOL0     C 2520   8.029   3.996   9.682 -0.4184 -0.4017  0.3698
   20MOL0     C 2521   8.071   4.137   9.645 -0.3465 -0.4916  0.4502
   20MOL0     C 2522   8.222   4.140   9.641  1.0719  0.1094  0.3884
   20MOL0     C 2523   8.279   4.256   9.555 -0.6945 -0.2120 -0.2711
   20MOL0     C 2524   8.433   4.250   9.545  0.1670  0.0394 -0.0015
   20MOL0     N 2525   8.483   4.368   9.460  0.5552  0.3284  0.8653
   20MOL0     C 2526   8.426   4.416   9.343 -0.5626  0.6181 -1.3317
   20MOL0     C 2527   8.514   4.512   9.303 -0.8232  0.3065  0.2227
   20MOL0     C 2528   8.486   4.594   9.179 -0.6294 -0.2766 -0.0657
   20MOL0     C 2529   8.496   4.513   9.053 -0.1074  0.0547 -0.0762
   20MOL0     C 2530   8.480   4.598   8.923 -0.3747 -0.7152 -0.7662
   20MOL0     C 2531   8.349   4.659   8.910  0.1051 -0.2244  0.2290
   20MOL0     O 2532   8.320   4.785   8.970 -0.5167 -0.8237 -0.4774
   20MOL0     C 2533   8.188   4.821   8.953 -0.4798  0.7582 -0.1672
   20MOL0     C 2534   8.168   4.944   9.011 -0.4124  0.3039 -0.3429
   20MOL0     C 2535   8.052   5.012   8.999  0.1861  0.5485  0.9234
   20MOL0     C 2536   7.934   4.949   8.948 -0.3347 -0.1928  0.7887
   20MOL0     C 2537   7.801   5.012   8.944  0.6916 -0.5012 -0.1613
   20MOL0     O 2538   7.687   4.945   8.975  0.2835  0.3698 -0.4743
   20MOL0     C 2539   7.558   4.992   8.971 -0.3286  0.0432 -0.2115
   20MOL0     C 2540   7.508   5.109   8.907 -0.0720  1.1375 -0.5025
   20MOL0     C 2541   7.376   5.149   8.922 -0.2636  0.8422 -0.2824
   20MOL0     C 2542   7.278   5.072   8.996 -0.8342 -0.2778 -0.1488
   20MOL0     O 2543   7.148   5.097   9.010 -0.2485  0.0489  0.2719
   20MOL0     C 2544   7.094   5.210   8.938  0.4635 -0.3005 -0.2863
   20MOL0     C 2545   6.960   5.251   8.979 -0.1343 -0.0429 -0.1053
   20MOL0     C 2546   6.873   5.127   8.959  0.3025  0.5004 -0.5387
   20MOL0     C 2547   6.726   5.172   8.934 -0.1109 -0.6022 -0.6289
   20MOL0     C 2548   6.672   5.222   9.063 -0.1125 -0.5516 -0.5172
   20MOL0     C 2549   6.517   5.255   9.041  0.0877 -0.1868  0.0317
   20MOL0     C 2550   6.471   5.341   9.159 -0.0643 -0.5992  0.1373
   20MOL0     C 2551   6.343   5.429   9.126 -0.3464  0.8066  1.1590
   20MOL0    Cl 2552   6.184   5.328   9.127 -0.2544  0.0158 -0.0161
   20MOL0     C 2553   7.322   4.950   9.053 -0.7480  0.1985  0.0204
   20MOL0     C 2554   7.456   4.920   9.039  0.0353 -0.8281  0.6040
   20MOL0     O 2555   7.804   5.130   8.902  0.0621  0.2603  0.1304
   20MOL0     C 2556   7.947   4.817   8.902 -0.3061  0.4001  0.8031
   20MOL0     C 2557   8.071   4.753   8.903  0.4326 -0.6268  0.9339
   20MOL0     N 2558   8.624   4.518   9.382 -0.1163 -1.1984  0.1476
   20MOL0     N 2559   8.598   4.438   9.481 -0.4408  0.3061  0.2566
   20MOL0     C 2560   7.562   3.872  10.161  0.3525  0.5709 -0.8338
   20MOL0     C 2561   7.457   3.849  10.253  0.0275  0.6525 -0.2156
   20MOL0     C 2562   7.080   3.715  10.451  0.0121  0.2929 -0.5822
   20MOL0     C 2563   7.111   3.648  10.570  0.2926  0.2543  0.0441
   20MOL0     C 2564   7.011   3.620  10.669  0.3116  0.6334  0.4203
   20MOL0     C 2565   6.881   3.661  10.647 -0.8629  0.8579  0.1074
   20MOL0     O 2566   6.799   3.616  10.747  0.4166 -0.1876 -0.2599
   20MOL0     C 2567   6.657   3.619  10.723  0.6342 -0.9858 -0.6668
   20MOL0     C 2568   6.593   3.578  10.849  0.8348 -0.0953 -0.7786
   20MOL0     C 2569   6.617   3.685  10.961 -0.6479  0.0959 -0.0926
   20MOL0     C 2570   6.518   3.800  10.982  0.9301  0.1570 -0.5694
   20MOL0     C 2571   6.532   3.914  10.908 -0.1118 -0.5741 -1.0828
   20MOL0     C 2572   6.532   4.025  10.847 -0.5575  1.4878  0.4219
   20MOL0     C 2573   6.848   3.724  10.521 -0.6606 -0.1009 -0.9111
   20MOL0     C 2574   6.951   3.748  10.430 -0.3442 -0.9494 -0.0083
   20MOL0     H 2575   7.447   3.515  10.257 -0.3545  0.1307  0.4401
   20MOL0     H 2576   7.614   3.553  10.071 -0.7165 -1.0715  1.1288
   20MOL0     H 2577   7.816   3.948  10.012  2.3863 -1.0829 -0.8181
   20MOL0     H 2578   7.663   3.974   9.922 -1.7756 -1.0501  1.0663
   20MOL0     H 2579   7.786   3.841   9.729 -0.6542 -0.4607 -0.3127
   20MOL0     H 2580   7.923   3.829   9.848 -1.2610 -0.5470  1.0439
   20MOL0     H 2581   7.909   4.075   9.851 -2.5844  2.2407 -1.1202
   20MOL0     H 2582   7.821   4.060   9.695 -1.4953 -0.6092 -0.0376
   20MOL0     H 2583   8.101   3.953   9.753 -3.1115 -0.3308  3.3628
   20MOL0     H 2584   8.011   3.921   9.604 -3.8286 -0.7541  1.3496
   20MOL0     H 2585   8.046   4.209   9.723  1.6710  0.0363  0.6591
   20MOL0     H 2586   8.026   4.175   9.552  3.0546  1.5305 -0.5865
   20MOL0     H 2587   8.242   4.042   9.595 -0.3039  0.4176 -0.9640
   20MOL0     H 2588   8.264   4.149   9.741 -0.7469 -0.9871  1.3095
   20MOL0     H 2589   8.227   4.258   9.458 -1.2800  2.6470  0.0064
   20MOL0     H 2590   8.262   4.356   9.595 -1.0213 -0.5099  0.3370
   20MOL0     H 2591   8.464   4.156   9.499  0.0381 -0.9520  1.8236
   20MOL0     H 2592   8.482   4.261   9.643 -0.1121  0.4289  0.0967
   20MOL0     H 2593   8.332   4.384   9.301 -0.3557 -0.7189 -0.8280
   20MOL0     H 2594   8.571   4.662   9.171 -0.9621  0.0198 -1.1442
   20MOL0     H 2595   8.403   4.663   9.194  3.1958  4.4860  1.7297
   20MOL0     H 2596   8.422   4.433   9.057  2.5781 -2.7142 -1.8218
   20MOL0     H 2597   8.591   4.458   9.049 -0.8051 -1.1906  0.0477
   20MOL0     H 2598   8.553   4.679   8.916 -0.6306 -0.2223  1.5951
   20MOL0     H 2599   8.502   4.530   8.840 -0.4643  0.8510 -2.1358
   20MOL0     H 2600   8.271   4.586   8.936 -0.3587 -0.9684 -2.8272
   20MOL0     H 2601   8.336   4.673   8.802  0.1898  0.6391  0.3265
   20MOL0     H 2602   8.252   5.003   9.049  0.6358 -1.6469  0.4918
   20MOL0     H 2603   8.045   5.118   9.020 -0.2855  0.7926 -0.3726
   20MOL0     H 2604   7.579   5.169   8.851  1.6620 -0.1350  0.2508
   20MOL0     H 2605   7.329   5.231   8.869 -2.3731 -0.3358 -0.3834
   20MOL0     H 2606   7.104   5.198   8.830 -0.9827 -2.3481 -0.2530
   20MOL0     H 2607   7.149   5.297   8.974  1.8084 -1.9748  1.9299
   20MOL0     H 2608   6.929   5.335   8.916 -2.3401 -1.8396 -1.5507
   20MOL0     H 2609   6.956   5.288   9.082  0.0911 -0.9055  0.2211
   20MOL0     H 2610   6.876   5.065   9.049  4.2284  0.0069 -0.8344
   20MOL0     H 2611   6.910   5.064   8.877  1.0488 -0.2076  0.3198
   20MOL0     H 2612   6.733   5.247   8.854 -0.9115  0.2829  0.1204
   20MOL0     H 2613   6.683   5.077   8.900  3.8601 -1.8918 -2.7457
   20MOL0     H 2614   6.724   5.315   9.087 -2.6377  0.8840 -0.2711
   20MOL0     H 2615   6.694   5.148   9.141 -0.3925  0.7374  0.8110
   20MOL0     H 2616   6.463   5.161   9.026  1.5692 -0.9602 -0.6292
   20MOL0     H 2617   6.501   5.321   8.955  0.9851 -0.7023 -0.5534
   20MOL0     H 2618   6.455   5.277   9.246  1.7793 -2.1933 -0.6263
   20MOL0     H 2619   6.553   5.408   9.184 -1.0145  0.3347  0.8184
   20MOL0     H 2620   6.359   5.479   9.030 -1.1728 -0.5523  0.2820
   20MOL0     H 2621   6.338   5.508   9.201  1.2954  2.2697 -0.1772
   20MOL0     H 2622   7.260   4.876   9.102  0.2129 -0.0710  0.8690
   20MOL0     H 2623   7.496   4.827   9.080  1.8002 -1.2080 -1.7506
   20MOL0     H 2624   7.849   4.777   8.880 -0.0807 -2.1853  3.7983
   20MOL0     H 2625   8.072   4.645   8.887 -0.5338 -0.3599 -1.3104
   20MOL0     H 2626   7.599   3.972  10.140 -0.7123  0.7576 -1.9322
   20MOL0     H 2627   7.395   3.927  10.297  0.5943 -0.4813  2.8632
   20MOL0     H 2628   7.210   3.610  10.592 -0.4816 -1.0253  1.4514
   20MOL0     H 2629   7.034   3.561  10.757 -0.0977 -2.6688 -1.5035
   20MOL0     H 2630   6.636   3.548  10.643  1.1479 -0.4479 -1.2912
   20MOL0     H 2631   6.622   3.716  10.687  1.0093 -0.7746 -0.4770
   20MOL0     H 2632   6.484   3.572  10.838  0.5446 -0.2035  1.6428
   20MOL0     H 2633   6.636   3.481  10.876 -1.2649 -1.1160 -0.8922
   20MOL0     H 2634   6.714   3.733  10.949 -1.7667  2.0030 -2.5462
   20MOL0     H 2635   6.623   3.636  11.059  1.1622 -0.3032 -0.3770
   20MOL0     H 2636   6.418   3.763  10.956  1.1139  0.6561 -2.0808
   20MOL0     H 2637   6.508   3.819  11.089 -1.1604 -3.8823  0.1897
   20MOL0     H 2638   6.530   4.106  10.778  0.1925  1.0412 -0.1326
   20MOL0     H 2639   6.746   3.750  10.492 -2.5522 -4.7266  0.5929
   20MOL0     H 2640   6.917   3.787  10.335 -1.4002 -1.9980 -0.0760
   21MOL0     O 2641   9.146   8.559   8.800  0.3355  0.2381 -0.2101
   21MOL0     C 2642   9.104   8.657   8.847  1.2225  0.1428 -0.1720
   21MOL0     O 2643   8.987   8.721   8.810 -0.1644  0.5124 -0.0211
   21MOL0     C 2644   8.895   8.654   8.731  0.5004  0.8787  0.5997
   21MOL0     C 2645   8.812   8.736   8.652 -0.4424 -0.5943  0.3493
   21MOL0     C 2646   8.722   8.688   8.557 -0.5763 -0.3049  0.1272
   21MOL0     C 2647   8.712   8.555   8.541 -0.2691 -0.4493 -0.5827
   21MOL0     O 2648   8.607   8.512   8.461  0.1527 -0.4982  0.1892
   21MOL0     C 2649   8.546   8.381   8.498 -0.2097 -0.2929  0.4658
   21MOL0     C 2650   8.398   8.401   8.462  0.0819 -1.0647  0.3032
   21MOL0     C 2651   8.369   8.398   8.312 -0.3194  0.0736  0.7849
   21MOL0     C 2652   8.362   8.256   8.252  0.1348 -0.6594  0.2605
   21MOL0     C 2653   8.342   8.254   8.102 -0.4332 -0.8865  1.1656
   21MOL0     C 2654   8.347   8.108   8.049 -0.1655 -0.2906 -0.4137
   21MOL0     C 2655   8.371   8.099   7.899  0.2447 -0.5487  0.3952
   21MOL0     C 2656   8.248   8.140   7.816  0.5209 -0.7068  0.2372
   21MOL0     N 2657   8.169   8.023   7.793  0.0480 -0.0506 -0.3413
   21MOL0     C 2658   8.173   7.956   7.676 -0.1259  0.3724 -0.1033
   21MOL0     C 2659   8.059   7.886   7.676 -0.4333 -0.4504  0.7642
   21MOL0     C 2660   8.004   7.795   7.567 -0.3561 -0.0492 -0.2252
   21MOL0     C 2661   8.103   7.697   7.510 -0.4027 -0.1329  0.1677
   21MOL0     C 2662   8.125   7.579   7.615 -0.1197  0.0624  0.2082
   21MOL0     C 2663   8.232   7.611   7.717  0.3277 -0.1491  0.2456
   21MOL0     O 2664   8.355   7.638   7.649  0.0543 -0.1147  0.4431
   21MOL0     C 2665   8.451   7.713   7.707  0.5990 -0.1304 -0.3946
   21MOL0     C 2666   8.462   7.719   7.848 -0.3772  0.0241  0.5744
   21MOL0     C 2667   8.568   7.788   7.904  0.0376 -1.0096  0.6769
   21MOL0     C 2668   8.670   7.838   7.824 -0.4324 -0.5189 -0.6790
   21MOL0     C 2669   8.785   7.904   7.890 -0.0800 -0.2602  0.0182
   21MOL0     O 2670   8.759   7.983   8.007  0.4685  0.3018  0.4495
   21MOL0     C 2671   8.861   8.040   8.079 -0.7048 -0.5606 -0.2391
   21MOL0     C 2672   8.990   7.986   8.100  0.4170 -1.0500 -0.8159
   21MOL0     C 2673   9.082   8.047   8.186  0.3024 -0.3058 -0.6120
   21MOL0     C 2674   9.047   8.168   8.255 -0.3267 -0.5035 -0.1687
   21MOL0     O 2675   9.126   8.210   8.355  0.2910  0.7065 -0.0792
   21MOL0     C 2676   9.248   8.253   8.304 -0.4652  0.4195 -0.7659
   21MOL0     C 2677   9.339   8.326   8.412 -0.0532 -0.3034 -0.5964
   21MOL0     C 2678   9.300   8.474   8.444 -0.0483  0.6945 -0.3182
   21MOL0     C 2679   9.406   8.552   8.517 -0.0005  0.3107 -1.2583
   21MOL0     C 2680   9.537   8.575   8.431  0.3481  0.0131 -0.1052
   21MOL0     C 2681   9.646   8.658   8.503 -0.0845  0.1891 -0.3078
   21MOL0     C 2682   9.634   8.667   8.657  0.2660  0.1287 -0.2429
   21MOL0     C 2683   9.760   8.732   8.706  0.0027 -0.5165  0.3266
   21MOL0    Cl 2684   9.744   8.751   8.874 -0.5135 -0.0604  0.0188
   21MOL0     C 2685   8.910   8.221   8.243  0.3827  0.9686  0.0710
   21MOL0     C 2686   8.813   8.148   8.166 -0.7826 -0.3307  0.3991
   21MOL0     O 2687   8.895   7.884   7.836 -0.6167 -0.2235  0.9872
   21MOL0     C 2688   8.671   7.825   7.683  0.4355  0.2238 -0.5427
   21MOL0     C 2689   8.558   7.761   7.625  0.4063  0.4382 -0.2032
   21MOL0     N 2690   8.013   7.895   7.809  0.4377 -0.5100  1.0135
   21MOL0     N 2691   8.088   7.975   7.884  0.0308 -0.1749  0.1698
   21MOL0     C 2692   8.783   8.462   8.629  0.4349 -0.3191  0.7599
   21MOL0     C 2693   8.868   8.515   8.730  0.1449 -1.0521  0.0191
   21MOL0     C 2694   9.183   8.723   8.951 -0.1192  0.0796 -0.5398
   21MOL0     C 2695   9.321   8.721   8.938  0.5213  0.2833  0.8292
   21MOL0     C 2696   9.409   8.777   9.031 -0.0047  0.1069 -0.4788
   21MOL0     C 2697   9.356   8.858   9.135 -0.7297  0.8000 -0.1039
   21MOL0     O 2698   9.455   8.908   9.219 -0.3623  0.2491 -0.6123
   21MOL0     C 2699   9.426   9.035   9.264  0.3278  0.3353  0.5742
   21MOL0     C 2700   9.531   9.054   9.378 -0.2974 -0.7401  0.4014
   21MOL0     C 2701   9.496   8.961   9.498  0.3461  0.6102  0.9469
   21MOL0     C 2702   9.610   8.970   9.606  0.2577  0.0788  0.5080
   21MOL0     C 2703   9.620   9.106   9.664  0.0363  0.9204  0.0713
   21MOL0     C 2704   9.623   9.217   9.700 -0.1494 -0.1043 -0.3298
   21MOL0     C 2705   9.221   8.853   9.164  0.1443  0.1942 -0.4398
   21MOL0     C 2706   9.133   8.786   9.068  0.6029  0.4523 -0.3822
   21MOL0     H 2707   8.834   8.842   8.644 -0.9276 -0.4251  1.0846
   21MOL0     H 2708   8.665   8.745   8.484  2.0687 -0.3640 -2.1893
   21MOL0     H 2709   8.556   8.352   8.603 -0.8937 -2.5080 -0.0236
   21MOL0     H 2710   8.581   8.300   8.432 -1.7056 -0.1156 -0.5930
   21MOL0     H 2711   8.362   8.497   8.501 -0.9158 -1.7108  1.0363
   21MOL0     H 2712   8.333   8.325   8.504 -1.0832 -0.2761 -0.0194
   21MOL0     H 2713   8.448   8.441   8.250  0.9989 -2.2242  0.7346
   21MOL0     H 2714   8.272   8.447   8.301 -0.1177  0.6293  1.3876
   21MOL0     H 2715   8.451   8.200   8.280  0.4677  0.4202  1.4428
   21MOL0     H 2716   8.271   8.218   8.298 -0.8744  3.4179  2.1462
   21MOL0     H 2717   8.414   8.317   8.050 -0.7286 -1.8144 -0.4169
   21MOL0     H 2718   8.244   8.302   8.092  0.9775  2.8602  3.3300
   21MOL0     H 2719   8.264   8.046   8.084  0.0130 -0.6187 -0.5648
   21MOL0     H 2720   8.430   8.060   8.102 -0.6802  0.5219  1.1812
   21MOL0     H 2721   8.452   8.163   7.863  0.9870 -1.3626  0.5697
   21MOL0     H 2722   8.402   7.995   7.879  2.4018  0.0724  0.2699
   21MOL0     H 2723   8.271   8.195   7.724 -2.5329  0.5053  0.0939
   21MOL0     H 2724   8.196   8.222   7.866 -0.1383  0.4111 -2.1165
   21MOL0     H 2725   8.238   7.967   7.590  0.0897 -2.3256 -0.3709
   21MOL0     H 2726   7.974   7.864   7.488  1.8731  1.7896  0.4559
   21MOL0     H 2727   7.920   7.743   7.615  1.1355 -1.7920  0.6454
   21MOL0     H 2728   8.196   7.746   7.479 -1.0173  2.0113  1.5152
   21MOL0     H 2729   8.039   7.654   7.432 -3.8301  6.1248 -1.2242
   21MOL0     H 2730   8.032   7.568   7.673 -0.5295  2.6448  0.1657
   21MOL0     H 2731   8.135   7.477   7.577 -0.6866 -1.3310  3.4251
   21MOL0     H 2732   8.244   7.522   7.781 -1.0940 -1.9896 -1.8971
   21MOL0     H 2733   8.206   7.703   7.770 -3.5202  0.1840 -1.9262
   21MOL0     H 2734   8.382   7.682   7.912 -0.8094 -0.4160 -0.2065
   21MOL0     H 2735   8.573   7.804   8.012  0.1902 -0.1281  0.5458
   21MOL0     H 2736   9.025   7.903   8.040 -0.4619 -0.6884 -1.8509
   21MOL0     H 2737   9.185   8.016   8.197  0.9693  2.0962  0.7778
   21MOL0     H 2738   9.227   8.325   8.225 -1.9849 -0.0943 -0.8716
   21MOL0     H 2739   9.303   8.167   8.265  1.6338  1.5916 -0.5332
   21MOL0     H 2740   9.445   8.317   8.386 -0.1663 -0.4088 -1.0201
   21MOL0     H 2741   9.333   8.266   8.503 -1.1784  4.8967  3.2129
   21MOL0     H 2742   9.207   8.488   8.498  1.4427  2.0535  2.1069
   21MOL0     H 2743   9.284   8.528   8.350 -2.0564 -0.1974 -0.5241
   21MOL0     H 2744   9.370   8.654   8.532  2.9403  1.1029  1.6169
   21MOL0     H 2745   9.428   8.499   8.610  1.4125 -1.0004 -2.2866
   21MOL0     H 2746   9.517   8.629   8.338 -1.0833 -0.4198 -0.0711
   21MOL0     H 2747   9.585   8.480   8.407  0.1670  0.1212 -0.9156
   21MOL0     H 2748   9.639   8.759   8.462 -1.1848  0.9215  1.5455
   21MOL0     H 2749   9.746   8.623   8.479  1.4638  2.6572  2.0100
   21MOL0     H 2750   9.549   8.726   8.692  0.6327 -0.2689  1.4070
   21MOL0     H 2751   9.620   8.569   8.703 -0.2250 -0.4241 -1.5079
   21MOL0     H 2752   9.775   8.829   8.659  0.2789 -0.5872  0.2608
   21MOL0     H 2753   9.855   8.684   8.678  1.0115  0.4083  1.9787
   21MOL0     H 2754   8.873   8.290   8.318  0.7903 -0.2613  1.4401
   21MOL0     H 2755   8.711   8.184   8.160 -0.9633 -1.0062 -4.1595
   21MOL0     H 2756   8.751   7.858   7.618  1.5225 -1.2156  0.0082
   21MOL0     H 2757   8.544   7.743   7.519 -1.4101 -1.6329  0.3185
   21MOL0     H 2758   8.761   8.356   8.621  0.2714 -0.2550  0.3697
   21MOL0     H 2759   8.924   8.445   8.792  1.5785 -1.7198 -1.9350
   21MOL0     H 2760   9.351   8.665   8.850 -0.0094  0.4586  0.5380
   21MOL0     H 2761   9.516   8.769   9.014  0.2377 -0.1163  1.0026
   21MOL0     H 2762   9.323   9.053   9.296  0.1060 -1.5765  1.0556
   21MOL0     H 2763   9.444   9.100   9.178  1.5153 -0.8202 -0.0930
   21MOL0     H 2764   9.627   9.021   9.337 -0.8093 -2.5694  0.5514
   21MOL0     H 2765   9.529   9.159   9.407  0.7153 -0.8497  0.9379
   21MOL0     H 2766   9.485   8.855   9.473  0.6983  0.5076  1.2242
   21MOL0     H 2767   9.404   8.992   9.548 -0.5157  2.5825 -1.6772
   21MOL0     H 2768   9.583   8.906   9.691 -0.2125 -1.7028 -0.9240
   21MOL0     H 2769   9.711   8.945   9.574  0.0924 -0.1132  0.1280
   21MOL0     H 2770   9.619   9.322   9.722 -0.9603  0.1602 -1.6312
   21MOL0     H 2771   9.191   8.899   9.258 -1.8944 -0.6979 -0.5829
   21MOL0     H 2772   9.025   8.796   9.076  0.6425  0.3289  0.4069
   22MOL0     O 2773   3.431   0.248   4.332 -0.9116  0.3250 -0.1063
   22MOL0     C 2774   3.482   0.275   4.221 -0.5659 -0.1678  0.1046
   22MOL0     O 2775   3.418   0.323   4.111 -0.2723  0.7313  0.1558
   22MOL0     C 2776   3.283   0.328   4.121  0.2137 -0.2756 -0.1638
   22MOL0     C 2777   3.210   0.210   4.121  0.3840 -0.2787 -0.4015
   22MOL0     C 2778   3.065   0.203   4.125  0.1306  0.1157 -0.6532
   22MOL0     C 2779   2.995   0.324   4.128 -0.4161  0.1404 -0.0097
   22MOL0     O 2780   2.855   0.315   4.098  0.1925  0.0570 -0.7067
   22MOL0     C 2781   2.803   0.416   4.015 -0.8167  0.0563 -0.2406
   22MOL0     C 2782   2.655   0.404   3.993  0.2224 -0.0425  0.3955
   22MOL0     C 2783   2.606   0.513   3.884  0.0432  0.8774 -0.4958
   22MOL0     C 2784   2.453   0.501   3.872 -0.1714 -0.1385  0.5155
   22MOL0     C 2785   2.396   0.634   3.809 -0.3412 -0.4158  0.7279
   22MOL0     C 2786   2.252   0.676   3.848 -0.5661  0.1604 -0.5180
   22MOL0     C 2787   2.210   0.688   3.997 -0.4061 -0.3917  0.4061
   22MOL0     C 2788   2.283   0.805   4.071  0.5975 -0.0917  1.0314
   22MOL0     N 2789   2.264   0.936   4.002 -0.2323  0.4300 -0.6023
   22MOL0     C 2790   2.144   1.009   3.984  0.0022 -0.1218  0.2190
   22MOL0     C 2791   2.185   1.136   3.947  0.3519  0.2853 -0.2367
   22MOL0     C 2792   2.101   1.248   3.904  0.3670 -0.4195 -0.3231
   22MOL0     C 2793   2.053   1.253   3.759  0.3381 -0.5689  0.2567
   22MOL0     C 2794   2.110   1.370   3.679  0.1218 -0.1192  0.5896
   22MOL0     C 2795   2.057   1.386   3.535  0.5564  0.9201  0.0086
   22MOL0     O 2796   2.010   1.259   3.489  0.2820 -0.8823 -0.2731
   22MOL0     C 2797   1.914   1.269   3.391 -0.1860 -0.7152 -0.0262
   22MOL0     C 2798   1.793   1.263   3.449 -0.3021  0.2105 -0.1696
   22MOL0     C 2799   1.671   1.276   3.365 -0.8880  1.0131  0.1434
   22MOL0     C 2800   1.681   1.263   3.224 -0.0855  0.8290  0.2654
   22MOL0     C 2801   1.563   1.245   3.146 -0.0134  0.3906 -0.0384
   22MOL0     O 2802   1.578   1.261   3.005 -0.5955  0.0976 -0.4047
   22MOL0     C 2803   1.475   1.252   2.920  0.0520 -0.7471  0.2612
   22MOL0     C 2804   1.485   1.318   2.796 -0.1737 -0.1279  0.0221
   22MOL0     C 2805   1.390   1.313   2.693 -0.4436  0.8272  0.8632
   22MOL0     C 2806   1.274   1.233   2.714 -0.7078 -0.1228  0.4617
   22MOL0     O 2807   1.171   1.250   2.623 -0.5342 -0.1261  0.1382
   22MOL0     C 2808   1.033   1.232   2.663  0.0228  0.1051  0.0470
   22MOL0     C 2809   0.940   1.254   2.542  0.6271 -0.2438 -0.1814
   22MOL0     C 2810   0.871   1.131   2.481 -0.4100  0.1989  0.0399
   22MOL0     C 2811   0.975   1.015   2.446  0.0694 -0.7150  0.0678
   22MOL0     C 2812   0.913   0.911   2.345  0.0650 -0.5569 -0.4435
   22MOL0     C 2813   1.013   0.796   2.316 -0.1545  0.1564 -0.4921
   22MOL0     C 2814   0.945   0.679   2.250 -0.4583  0.0402 -1.0725
   22MOL0     C 2815   0.917   0.681   2.101 -0.4753 -0.6288 -0.6443
   22MOL0    Cl 2816   0.743   0.724   2.089  0.1312 -0.0123 -0.2355
   22MOL0     C 2817   1.257   1.168   2.839 -0.4491 -0.2741 -0.9059
   22MOL0     C 2818   1.361   1.180   2.938  0.5845 -1.3675  0.5356
   22MOL0     O 2819   1.467   1.198   3.209  0.9981 -0.0597 -0.5356
   22MOL0     C 2820   1.809   1.254   3.170  0.3792  0.1805  0.9682
   22MOL0     C 2821   1.919   1.258   3.251  0.6155 -0.3523 -0.1493
   22MOL0     N 2822   2.320   1.142   3.946  0.3641  0.2621  0.5733
   22MOL0     N 2823   2.366   1.024   3.977  0.7479  0.0980 -0.1578
   22MOL0     C 2824   3.068   0.444   4.132  0.1549  0.1474 -0.0460
   22MOL0     C 2825   3.209   0.451   4.137  0.3839  0.3789 -1.1197
   22MOL0     C 2826   3.633   0.275   4.226  0.3415  0.0664 -0.3413
   22MOL0     C 2827   3.694   0.218   4.348 -0.1667  0.1047  0.4207
   22MOL0     C 2828   3.834   0.233   4.359 -0.1123  1.1193 -0.5903
   22MOL0     C 2829   3.915   0.305   4.264  0.0084 -0.2707 -0.5553
   22MOL0     O 2830   4.052   0.326   4.279  0.4130 -0.1430 -0.6704
   22MOL0     C 2831   4.096   0.353   4.407 -0.2354  0.4660 -0.2762
   22MOL0     C 2832   4.249   0.344   4.399 -0.1559  0.4696  1.0118
   22MOL0     C 2833   4.294   0.198   4.377 -0.3924  0.8160  0.4215
   22MOL0     C 2834   4.454   0.172   4.371  0.3993  0.5104 -0.4965
   22MOL0     C 2835   4.522   0.279   4.297  0.3630  0.4265  0.1353
   22MOL0     C 2836   4.575   0.367   4.229 -0.3247  0.2967 -0.6657
   22MOL0     C 2837   3.854   0.358   4.151  0.4266  0.2368 -0.0781
   22MOL0     C 2838   3.719   0.341   4.137  0.0881 -0.7827 -0.4106
   22MOL0     H 2839   3.263   0.116   4.121  0.7914 -0.0610 -1.1433
   22MOL0     H 2840   3.010   0.111   4.116 -2.2072  1.3508  0.0851
   22MOL0     H 2841   2.849   0.403   3.916 -0.3784  2.0422 -0.3386
   22MOL0     H 2842   2.831   0.517   4.047  2.5479  0.8272 -4.5249
   22MOL0     H 2843   2.609   0.407   4.093 -0.2784  0.1637  0.1591
   22MOL0     H 2844   2.640   0.305   3.948  0.6617 -0.2868  0.7695
   22MOL0     H 2845   2.656   0.493   3.788 -2.3035 -3.0675 -1.1006
   22MOL0     H 2846   2.634   0.614   3.918  0.9829  0.6641 -0.5946
   22MOL0     H 2847   2.428   0.418   3.806  1.0750 -0.0012 -0.1756
   22MOL0     H 2848   2.401   0.485   3.967 -0.8737 -2.3802 -0.2039
   22MOL0     H 2849   2.400   0.638   3.700 -1.4513  1.5732  0.7135
   22MOL0     H 2850   2.454   0.723   3.835  1.5310 -1.0827 -0.9694
   22MOL0     H 2851   2.187   0.598   3.808  0.1445 -0.7655  0.0971
   22MOL0     H 2852   2.225   0.767   3.793 -1.5287  0.3129  0.1890
   22MOL0     H 2853   2.101   0.695   3.995 -0.6387 -2.7471  1.4280
   22MOL0     H 2854   2.231   0.597   4.054  0.7946 -1.1919 -1.2626
   22MOL0     H 2855   2.390   0.779   4.065 -0.0282 -2.7923  0.0275
   22MOL0     H 2856   2.251   0.827   4.173 -2.4446  2.1361 -0.2627
   22MOL0     H 2857   2.041   0.980   4.001 -0.3241  1.5173  1.2215
   22MOL0     H 2858   2.135   1.345   3.942 -4.3503  1.5589 -0.4043
   22MOL0     H 2859   2.005   1.250   3.956 -0.3317  3.2726 -1.4627
   22MOL0     H 2860   1.944   1.249   3.749  0.4127  1.5052 -2.4808
   22MOL0     H 2861   2.099   1.161   3.722 -3.1168 -2.8879  1.2168
   22MOL0     H 2862   2.082   1.459   3.738 -1.5371  0.1055 -0.4723
   22MOL0     H 2863   2.218   1.358   3.684 -0.1375 -2.3864  3.7070
   22MOL0     H 2864   2.135   1.423   3.467  0.1297  0.9077 -0.4934
   22MOL0     H 2865   1.972   1.455   3.533 -0.4294 -0.2525  0.1833
   22MOL0     H 2866   1.790   1.260   3.558 -1.9640 -1.0748 -0.2040
   22MOL0     H 2867   1.573   1.278   3.411 -0.8854  1.2781  0.1410
   22MOL0     H 2868   1.582   1.358   2.770 -0.1390  0.9111  1.6061
   22MOL0     H 2869   1.410   1.359   2.597 -4.0919 -1.1360 -1.0472
   22MOL0     H 2870   1.008   1.308   2.738  2.6060  2.1109 -0.9778
   22MOL0     H 2871   1.016   1.127   2.687  0.0688  0.3358  1.1437
   22MOL0     H 2872   1.004   1.298   2.464  2.1067  0.2622  1.2567
   22MOL0     H 2873   0.864   1.324   2.575 -2.3320 -1.8127 -3.0803
   22MOL0     H 2874   0.815   1.150   2.389 -1.3086 -3.1234 -0.2509
   22MOL0     H 2875   0.802   1.084   2.551  0.1373 -1.2727 -0.3648
   22MOL0     H 2876   1.051   1.064   2.384 -2.6042  0.3887 -2.6061
   22MOL0     H 2877   1.005   0.957   2.534  1.9432 -0.4191 -0.3310
   22MOL0     H 2878   0.879   0.952   2.250  0.4223 -2.6348 -1.5295
   22MOL0     H 2879   0.820   0.875   2.390  0.6286 -1.6475 -0.1152
   22MOL0     H 2880   1.072   0.765   2.403  2.0229  0.6856 -1.7038
   22MOL0     H 2881   1.094   0.822   2.248 -0.5096  2.5912 -0.0714
   22MOL0     H 2882   1.014   0.597   2.273 -1.4286 -0.1505  1.5477
   22MOL0     H 2883   0.867   0.650   2.321  1.8613 -0.1176  1.5976
   22MOL0     H 2884   0.953   0.587   2.058  3.5848 -0.4330  1.8789
   22MOL0     H 2885   0.973   0.761   2.052 -0.4818  0.7918  1.5727
   22MOL0     H 2886   1.169   1.107   2.853 -0.3686 -0.8129 -2.4991
   22MOL0     H 2887   1.350   1.128   3.032  0.5577  1.8246  2.4206
   22MOL0     H 2888   1.819   1.246   3.062 -1.3588  0.8866  0.7248
   22MOL0     H 2889   2.018   1.266   3.207  0.6969 -1.0056 -0.1014
   22MOL0     H 2890   3.020   0.540   4.120  1.0837  0.5804 -0.4920
   22MOL0     H 2891   3.268   0.541   4.148 -0.0475  0.4036  1.7497
   22MOL0     H 2892   3.636   0.172   4.427  0.4985 -0.1707  0.7618
   22MOL0     H 2893   3.871   0.172   4.441 -0.5288  0.6415 -0.7491
   22MOL0     H 2894   4.055   0.299   4.492 -1.9213  2.1856  0.0798
   22MOL0     H 2895   4.072   0.458   4.430 -1.4419  0.7265 -2.5079
   22MOL0     H 2896   4.286   0.409   4.318 -0.1426 -0.0561  0.5865
   22MOL0     H 2897   4.287   0.394   4.488 -0.6059  4.4083 -0.7532
   22MOL0     H 2898   4.258   0.150   4.285  3.6551 -3.1600  0.5433
   22MOL0     H 2899   4.264   0.141   4.466  0.7903  1.7199  1.4351
   22MOL0     H 2900   4.498   0.190   4.470  1.9112  0.9060 -1.2058
   22MOL0     H 2901   4.472   0.078   4.319 -0.4034  0.2758 -0.3632
   22MOL0     H 2902   4.617   0.445   4.170 -3.5383  1.3118 -1.8524
   22MOL0     H 2903   3.929   0.402   4.085 -0.5611  1.0906 -0.6553
   22MOL0     H 2904   3.666   0.390   4.056 -1.1525 -0.7092  0.4114
   23MOL0     O 2905   5.559   6.706   5.016  0.2066  0.3727  0.3598
   23MOL0     C 2906   5.620   6.649   4.925  0.0116 -0.3980  0.3182
   23MOL0     O 2907   5.568   6.618   4.799  0.0718  0.9336 -0.0717
   23MOL0     C 2908   5.431   6.623   4.784  0.2381 -0.7967 -0.3476
   23MOL0     C 2909   5.338   6.545   4.864  0.2250 -0.6994 -0.0963
   23MOL0     C 2910   5.198   6.573   4.856 -1.1632 -0.1759  0.1751
   23MOL0     C 2911   5.154   6.651   4.751 -0.1613  0.3877 -0.0165
   23MOL0     O 2912   5.018   6.665   4.729 -0.9763 -0.3791  0.6223
   23MOL0     C 2913   4.968   6.788   4.684  0.2768 -0.3276  0.7701
   23MOL0     C 2914   4.825   6.801   4.746 -0.9858  0.1822 -0.4669
   23MOL0     C 2915   4.721   6.715   4.687  0.3887  0.6873 -0.2166
   23MOL0     C 2916   4.590   6.707   4.764  0.3211  0.4969  0.4834
   23MOL0     C 2917   4.475   6.795   4.713  0.3046  0.3278 -0.1770
   23MOL0     C 2918   4.365   6.808   4.815 -0.7100  0.4356 -0.7580
   23MOL0     C 2919   4.411   6.885   4.939 -0.1925 -0.4939 -0.3294
   23MOL0     C 2920   4.293   6.914   5.027  1.3274  0.5740 -0.0992
   23MOL0     N 2921   4.190   7.000   4.969  0.4545 -0.4418 -0.6010
   23MOL0     C 2922   4.049   6.975   4.954  0.0925 -0.5529 -0.3446
   23MOL0     C 2923   4.012   7.065   4.865  1.1632 -0.1880  0.6305
   23MOL0     C 2924   3.876   7.067   4.798  0.7939  0.1402  0.9899
   23MOL0     C 2925   3.837   7.207   4.771 -0.0754 -0.1778 -0.4259
   23MOL0     C 2926   3.685   7.216   4.724 -1.1538  0.8365  0.6285
   23MOL0     C 2927   3.693   7.268   4.583 -1.2143 -1.2061 -0.2725
   23MOL0     O 2928   3.570   7.333   4.551 -0.3581  0.9042 -0.3072
   23MOL0     C 2929   3.456   7.259   4.544 -0.5103 -0.2735  0.6972
   23MOL0     C 2930   3.329   7.325   4.542  0.4750  1.0118 -0.1939
   23MOL0     C 2931   3.210   7.249   4.531  0.1206 -0.6942  0.0821
   23MOL0     C 2932   3.214   7.107   4.527  0.1091 -0.2856 -0.0637
   23MOL0     C 2933   3.090   7.023   4.511  0.6816 -0.2200  0.6722
   23MOL0     O 2934   2.978   7.087   4.519  0.2985  0.4323  0.0322
   23MOL0     C 2935   2.856   7.028   4.490 -0.1526  0.2272 -0.0039
   23MOL0     C 2936   2.773   7.106   4.412 -0.3932  0.2475 -0.7490
   23MOL0     C 2937   2.651   7.040   4.361  0.2924 -0.5176  0.0352
   23MOL0     C 2938   2.614   6.900   4.388  0.8630 -0.2107 -0.4097
   23MOL0     O 2939   2.507   6.831   4.328  0.6213 -0.5986  0.4747
   23MOL0     C 2940   2.514   6.855   4.185 -0.4585  0.0053 -0.3874
   23MOL0     C 2941   2.376   6.809   4.122 -0.3228  0.1796  0.4040
   23MOL0     C 2942   2.375   6.812   3.970 -0.0840  0.2500  0.6442
   23MOL0     C 2943   2.235   6.770   3.915  0.1970 -0.1766  1.0627
   23MOL0     C 2944   2.256   6.739   3.766  0.2032  0.7484  0.2239
   23MOL0     C 2945   2.136   6.697   3.687  0.3109  0.6036 -0.3609
   23MOL0     C 2946   2.113   6.550   3.712  0.2386 -0.9179  0.0261
   23MOL0     C 2947   1.960   6.526   3.720  0.2641 -0.1087 -0.6997
   23MOL0    Cl 2948   1.937   6.353   3.773 -0.7516  0.2010  0.2932
   23MOL0     C 2949   2.704   6.830   4.470  0.0946 -0.5881 -0.4557
   23MOL0     C 2950   2.818   6.893   4.521  0.1500 -0.8341 -0.5108
   23MOL0     O 2951   3.098   6.901   4.484 -0.1754  0.3793  0.2659
   23MOL0     C 2952   3.334   7.045   4.538  0.3281  0.3229  0.1153
   23MOL0     C 2953   3.455   7.117   4.542  0.3207  0.0359  0.2890
   23MOL0     N 2954   4.115   7.150   4.839  0.4878 -0.5642  0.2631
   23MOL0     N 2955   4.225   7.110   4.900 -0.1865  0.5781  0.2517
   23MOL0     C 2956   5.241   6.702   4.657 -0.1441  0.0799 -0.1500
   23MOL0     C 2957   5.376   6.688   4.677  0.2786 -0.2750 -0.0275
   23MOL0     C 2958   5.767   6.630   4.916 -0.4202 -0.2076 -0.5730
   23MOL0     C 2959   5.849   6.611   4.804  0.3383  0.9253  0.6305
   23MOL0     C 2960   5.992   6.630   4.802  1.2578 -0.6914  0.2990
   23MOL0     C 2961   6.050   6.674   4.916  0.3525  0.3008 -0.7291
   23MOL0     O 2962   6.178   6.720   4.912 -0.0870  0.1804  0.1178
   23MOL0     C 2963   6.253   6.714   5.037  0.4082  0.0405  1.1902
   23MOL0     C 2964   6.276   6.841   5.109  0.3806 -0.4356 -0.3285
   23MOL0     C 2965   6.388   6.928   5.051  0.2585  0.2032  0.8861
   23MOL0     C 2966   6.457   7.039   5.139  0.2285 -0.0550  0.8543
   23MOL0     C 2967   6.596   7.068   5.092 -0.5283  0.3743  0.2877
   23MOL0     C 2968   6.703   7.075   5.030 -0.0335  0.4423  0.8598
   23MOL0     C 2969   5.969   6.685   5.035 -0.4441  0.4236 -0.1950
   23MOL0     C 2970   5.833   6.667   5.032  0.5495 -0.5311  0.0176
   23MOL0     H 2971   5.366   6.472   4.939  1.7156  1.2600  1.3752
   23MOL0     H 2972   5.124   6.526   4.920 -0.9111 -0.7091  0.0741
   23MOL0     H 2973   4.963   6.800   4.576  0.5851 -0.3035  0.7581
   23MOL0     H 2974   5.030   6.873   4.713  1.2608 -0.8024  0.1346
   23MOL0     H 2975   4.789   6.904   4.752 -0.0807  0.4580  0.4284
   23MOL0     H 2976   4.833   6.775   4.852  0.0644  0.7520 -0.3941
   23MOL0     H 2977   4.760   6.614   4.673 -3.5508 -0.9576 -0.5863
   23MOL0     H 2978   4.697   6.742   4.584  0.9802 -1.1975 -0.8939
   23MOL0     H 2979   4.564   6.602   4.749  1.6598  0.2691 -0.5004
   23MOL0     H 2980   4.606   6.716   4.872 -0.1439 -1.8507  0.8017
   23MOL0     H 2981   4.433   6.751   4.622  0.1057  1.2030 -0.5151
   23MOL0     H 2982   4.512   6.892   4.680 -0.7144  1.1305  0.9372
   23MOL0     H 2983   4.324   6.709   4.838 -0.7842  0.5384 -0.4471
   23MOL0     H 2984   4.293   6.874   4.766  2.1736  3.2413 -1.5969
   23MOL0     H 2985   4.485   6.821   4.988  0.4615 -0.6848 -1.5228
   23MOL0     H 2986   4.460   6.974   4.900  1.5790 -1.9552 -1.6102
   23MOL0     H 2987   4.326   6.964   5.119  0.7181  2.2595 -0.7504
   23MOL0     H 2988   4.246   6.830   5.078 -0.7144  2.7084  1.8404
   23MOL0     H 2989   4.009   6.878   4.985 -0.7089 -0.1458 -0.0768
   23MOL0     H 2990   3.797   7.026   4.862 -0.1310  1.0292  0.4506
   23MOL0     H 2991   3.876   7.011   4.704  1.0078  2.4583 -0.4726
   23MOL0     H 2992   3.911   7.249   4.701 -0.4837  1.3453  0.0292
   23MOL0     H 2993   3.842   7.265   4.863 -1.7337  0.3240 -0.6200
   23MOL0     H 2994   3.631   7.121   4.732  2.9715 -1.6189  2.9237
   23MOL0     H 2995   3.636   7.293   4.784 -1.4552  1.0935  0.0636
   23MOL0     H 2996   3.730   7.188   4.519  2.3390 -0.1732  0.2595
   23MOL0     H 2997   3.764   7.351   4.582 -1.3882 -1.0373  0.6230
   23MOL0     H 2998   3.319   7.433   4.541  0.6975  1.0317 -0.4425
   23MOL0     H 2999   3.118   7.303   4.514  0.7200  0.7612  1.2426
   23MOL0     H 3000   2.815   7.201   4.381  1.8180 -0.3947  0.0072
   23MOL0     H 3001   2.591   7.102   4.294  0.4958 -0.4563 -0.0923
   23MOL0     H 3002   2.585   6.782   4.145  0.4255  0.6357 -0.0057
   23MOL0     H 3003   2.537   6.955   4.148 -2.7673  0.2124 -1.4787
   23MOL0     H 3004   2.292   6.869   4.156 -2.1168 -1.1186 -1.4952
   23MOL0     H 3005   2.361   6.703   4.147  1.8181 -0.6980 -1.6676
   23MOL0     H 3006   2.460   6.750   3.939 -0.6332 -0.4778  0.5596
   23MOL0     H 3007   2.393   6.914   3.936 -1.0423  0.3620  0.4401
   23MOL0     H 3008   2.203   6.687   3.978  0.5940 -0.7504  0.5185
   23MOL0     H 3009   2.157   6.846   3.925 -2.4203 -2.1921 -2.1021
   23MOL0     H 3010   2.332   6.661   3.754  0.3879  0.4152  2.8540
   23MOL0     H 3011   2.291   6.832   3.720  1.9107  1.2251  2.3226
   23MOL0     H 3012   2.176   6.711   3.586  2.5879  0.7692  0.4853
   23MOL0     H 3013   2.050   6.759   3.716 -0.3549 -1.6815  3.1337
   23MOL0     H 3014   2.150   6.491   3.628  1.6598  0.7412 -0.5617
   23MOL0     H 3015   2.163   6.520   3.805 -0.3012 -0.0392  0.6154
   23MOL0     H 3016   1.918   6.549   3.621 -1.0687 -0.5800 -0.2575
   23MOL0     H 3017   1.902   6.597   3.779 -2.2808 -2.5290 -0.1265
   23MOL0     H 3018   2.704   6.726   4.503 -0.5620 -0.9838 -1.6297
   23MOL0     H 3019   2.876   6.831   4.589  1.2538 -0.9737 -1.5313
   23MOL0     H 3020   3.339   6.937   4.532  1.7635  0.3112  1.0293
   23MOL0     H 3021   3.547   7.061   4.531  0.2768 -0.0412  0.3110
   23MOL0     H 3022   5.211   6.741   4.561  1.2506 -1.9310 -1.4874
   23MOL0     H 3023   5.449   6.727   4.607  1.6211  1.2581  2.1053
   23MOL0     H 3024   5.799   6.590   4.710 -2.7100 -0.0693  2.3496
   23MOL0     H 3025   6.053   6.623   4.713  0.1742 -0.6508 -0.4740
   23MOL0     H 3026   6.347   6.660   5.020 -0.5109 -2.1671  2.7023
   23MOL0     H 3027   6.206   6.636   5.096 -3.3601 -1.1378 -2.8114
   23MOL0     H 3028   6.180   6.893   5.116  0.5096 -0.3714  1.1793
   23MOL0     H 3029   6.314   6.827   5.210  1.0388 -0.4349 -0.5705
   23MOL0     H 3030   6.344   6.977   4.963 -0.0077 -1.4168  0.0714
   23MOL0     H 3031   6.460   6.852   5.021  1.3648  2.4552 -2.9255
   23MOL0     H 3032   6.401   7.131   5.116 -2.3070 -1.4908  0.9190
   23MOL0     H 3033   6.447   7.008   5.243  1.7100 -3.4970  0.0903
   23MOL0     H 3034   6.788   7.082   4.965 -1.3197 -1.3895 -1.1570
   23MOL0     H 3035   6.008   6.704   5.134 -1.3674  0.7250  0.1205
   23MOL0     H 3036   5.777   6.699   5.119  1.0737  1.8601 -0.4674
   24MOL0     O 3037   3.325   8.619   2.096 -0.1159 -0.2199 -0.1025
   24MOL0     C 3038   3.277   8.627   2.210 -0.5411 -0.5437 -0.4320
   24MOL0     O 3039   3.149   8.611   2.246 -0.1519 -0.5118  0.6144
   24MOL0     C 3040   3.057   8.625   2.146  0.4512 -0.7776 -0.5611
   24MOL0     C 3041   3.047   8.538   2.034  0.3716  0.5405  0.2108
   24MOL0     C 3042   2.942   8.555   1.941 -0.3803 -0.2972 -0.6610
   24MOL0     C 3043   2.854   8.664   1.958 -0.1383  0.8777 -0.1746
   24MOL0     O 3044   2.765   8.704   1.865  0.1199  0.2405  0.6297
   24MOL0     C 3045   2.640   8.636   1.870  0.0826 -0.2880  1.6282
   24MOL0     C 3046   2.554   8.659   1.744 -0.2587 -0.1896  0.0848
   24MOL0     C 3047   2.429   8.578   1.737  0.5796  0.3018 -0.2762
   24MOL0     C 3048   2.338   8.611   1.854  0.7424 -0.7208  0.3259
   24MOL0     C 3049   2.200   8.558   1.854  0.5939  0.1487  0.3085
   24MOL0     C 3050   2.126   8.570   1.722  0.0721 -0.0410 -0.8819
   24MOL0     C 3051   1.982   8.509   1.724 -0.5018 -0.8569 -0.1697
   24MOL0     C 3052   1.967   8.358   1.745 -0.1116 -0.5490 -0.5206
   24MOL0     N 3053   1.831   8.314   1.758 -0.0545 -0.3338 -0.0310
   24MOL0     C 3054   1.752   8.272   1.655 -0.7588 -0.7273  0.4642
   24MOL0     C 3055   1.639   8.240   1.717  0.6780 -0.4649 -0.0542
   24MOL0     C 3056   1.506   8.220   1.648  0.0569 -0.3206  0.1667
   24MOL0     C 3057   1.468   8.341   1.556 -0.7811 -0.3959  0.1726
   24MOL0     C 3058   1.334   8.321   1.476 -0.2416 -0.2354 -0.0944
   24MOL0     C 3059   1.218   8.252   1.547  0.0264 -0.6577  0.3450
   24MOL0     O 3060   1.123   8.248   1.443 -0.5033  0.1795  0.6831
   24MOL0     C 3061   1.033   8.350   1.428 -0.0154  0.7733  0.1123
   24MOL0     C 3062   1.026   8.466   1.508  0.1060  0.5178 -0.2613
   24MOL0     C 3063   0.909   8.550   1.485  0.6427 -0.2365 -0.0194
   24MOL0     C 3064   0.829   8.544   1.369  0.3158 -0.4440 -0.2029
   24MOL0     C 3065   0.730   8.646   1.333 -0.8269  0.3722  0.1099
   24MOL0     O 3066   0.669   8.629   1.214  0.2570  0.1413 -0.0146
   24MOL0     C 3067   0.591   8.732   1.183  0.5106 -0.9626 -0.8312
   24MOL0     C 3068   0.630   8.801   1.066 -0.2346 -1.2179  0.3156
   24MOL0     C 3069   0.557   8.919   1.025  0.0826  0.1354 -0.3074
   24MOL0     C 3070   0.449   8.973   1.099  0.4998  0.3473 -0.0900
   24MOL0     O 3071   0.369   9.075   1.043 -0.3246 -0.1262 -0.7921
   24MOL0     C 3072   0.325   9.185   1.132  0.6061  1.1574 -1.0074
   24MOL0     C 3073   0.266   9.309   1.059 -0.8895  0.7655  0.0925
   24MOL0     C 3074   0.239   9.418   1.163 -0.4409 -0.5288 -0.1265
   24MOL0     C 3075   0.123   9.387   1.255 -0.0637 -0.1973 -0.3702
   24MOL0     C 3076   0.055   9.516   1.320 -0.4790  0.0190 -0.8636
   24MOL0     C 3077  -0.064   9.480   1.413  0.2029  0.0164  0.6597
   24MOL0     C 3078  -0.198   9.474   1.336  0.4804 -0.1578 -0.5308
   24MOL0     C 3079  -0.314   9.446   1.433  0.2714  0.6890 -0.3599
   24MOL0    Cl 3080  -0.327   9.578   1.555  0.0026  0.0425 -0.0954
   24MOL0     C 3081   0.423   8.910   1.224  0.4907  0.0130 -0.0198
   24MOL0     C 3082   0.486   8.790   1.269 -0.7283  0.3678 -0.3676
   24MOL0     O 3083   0.740   8.750   1.396 -0.3770  0.6645  0.3364
   24MOL0     C 3084   0.843   8.427   1.290 -0.1694  0.0681  0.0570
   24MOL0     C 3085   0.942   8.331   1.321  0.1818  0.5252 -0.8927
   24MOL0     N 3086   1.656   8.246   1.852 -0.4860 -0.2673 -1.1196
   24MOL0     N 3087   1.778   8.284   1.879  0.4865  0.0707  1.3499
   24MOL0     C 3088   2.856   8.738   2.074 -0.7480 -0.4402  0.4319
   24MOL0     C 3089   2.964   8.722   2.171  0.3489  0.1949  0.1006
   24MOL0     C 3090   3.375   8.642   2.331 -0.6288  0.0925 -0.0193
   24MOL0     C 3091   3.343   8.621   2.464  0.0330 -0.0149  0.4266
   24MOL0     C 3092   3.442   8.623   2.556 -0.8011 -0.3166  0.0481
   24MOL0     C 3093   3.571   8.672   2.532  0.1253  1.4594  0.7900
   24MOL0     O 3094   3.648   8.689   2.642 -0.0982  0.1417  0.1381
   24MOL0     C 3095   3.787   8.724   2.622 -0.3433 -0.3312 -0.1777
   24MOL0     C 3096   3.841   8.772   2.760  0.2505 -0.8819 -1.3169
   24MOL0     C 3097   3.995   8.804   2.765 -0.9901  0.0271 -0.1967
   24MOL0     C 3098   4.030   8.890   2.885 -0.3579 -0.0878 -0.1477
   24MOL0     C 3099   4.176   8.874   2.917 -0.4410 -0.0194 -0.2329
   24MOL0     C 3100   4.300   8.858   2.923  0.0477  0.4602  0.0875
   24MOL0     C 3101   3.608   8.695   2.397 -0.0058 -0.0917  0.2860
   24MOL0     C 3102   3.510   8.685   2.294 -0.1816  0.1143 -0.0116
   24MOL0     H 3103   3.118   8.456   2.030  0.7568  0.6600  3.0106
   24MOL0     H 3104   2.925   8.482   1.863  0.4940 -2.0314  0.7140
   24MOL0     H 3105   2.585   8.655   1.963 -4.4824 -1.7734 -0.4773
   24MOL0     H 3106   2.673   8.532   1.867  2.6048  0.4833 -0.8595
   24MOL0     H 3107   2.620   8.635   1.660 -0.8807  2.4211 -1.2681
   24MOL0     H 3108   2.537   8.767   1.734 -1.1621 -0.3029  0.3726
   24MOL0     H 3109   2.456   8.472   1.741 -1.1334 -0.2571 -2.0752
   24MOL0     H 3110   2.387   8.607   1.640  0.7424 -0.6254 -0.6338
   24MOL0     H 3111   2.398   8.578   1.939 -0.0092  0.4875  1.3620
   24MOL0     H 3112   2.332   8.720   1.860 -0.6939 -0.7278 -0.5354
   24MOL0     H 3113   2.149   8.608   1.937  4.2572  1.9977  1.6571
   24MOL0     H 3114   2.204   8.453   1.882 -4.0788  0.0825  1.5691
   24MOL0     H 3115   2.175   8.512   1.643  3.1932 -0.9644  1.5167
   24MOL0     H 3116   2.122   8.677   1.700  1.3265  0.1849 -0.1339
   24MOL0     H 3117   1.930   8.552   1.810  1.4705 -1.8391  1.6408
   24MOL0     H 3118   1.926   8.540   1.636 -0.4771  1.3929  0.5508
   24MOL0     H 3119   2.015   8.330   1.839 -0.1432 -2.2876 -0.9879
   24MOL0     H 3120   2.010   8.310   1.656  2.0832  0.4553 -0.0723
   24MOL0     H 3121   1.781   8.279   1.551 -0.1526 -0.2616  0.6596
   24MOL0     H 3122   1.427   8.226   1.723 -1.6408 -1.4553 -1.4368
   24MOL0     H 3123   1.501   8.128   1.590 -3.4681  0.2018 -0.5673
   24MOL0     H 3124   1.541   8.352   1.475 -1.8623 -1.5971 -1.0149
   24MOL0     H 3125   1.465   8.430   1.620 -1.5851 -1.2967  1.4391
   24MOL0     H 3126   1.299   8.420   1.444  1.8869  0.4655 -0.4058
   24MOL0     H 3127   1.360   8.276   1.380 -0.5974  1.9998 -1.3195
   24MOL0     H 3128   1.186   8.301   1.639 -1.5056  0.0959 -0.5580
   24MOL0     H 3129   1.243   8.147   1.565  0.2356 -0.8175 -0.7805
   24MOL0     H 3130   1.091   8.485   1.592 -0.9405  0.4637  0.5835
   24MOL0     H 3131   0.900   8.641   1.543 -2.6911  1.9802 -3.5088
   24MOL0     H 3132   0.712   8.764   1.004  0.8823  1.3030  0.1661
   24MOL0     H 3133   0.594   8.972   0.938  2.6981 -0.4997  0.3208
   24MOL0     H 3134   0.394   9.218   1.210  0.6873  1.7879 -1.3477
   24MOL0     H 3135   0.232   9.152   1.181  1.9415  0.2838  1.0639
   24MOL0     H 3136   0.170   9.278   1.016 -0.8513 -1.3702  1.4066
   24MOL0     H 3137   0.324   9.343   0.973  0.1922 -0.3119  0.3634
   24MOL0     H 3138   0.226   9.510   1.105  3.3928 -0.6637 -1.5381
   24MOL0     H 3139   0.323   9.437   1.232  0.1258 -4.3441  0.4593
   24MOL0     H 3140   0.040   9.334   1.206 -0.3609 -0.5356  0.4861
   24MOL0     H 3141   0.163   9.323   1.334 -0.1712 -0.7907 -0.7891
   24MOL0     H 3142   0.013   9.588   1.250 -0.2878  1.7618  0.7492
   24MOL0     H 3143   0.128   9.577   1.375 -0.5177  1.7681 -2.6574
   24MOL0     H 3144  -0.075   9.565   1.480 -0.0525  1.0976 -0.7015
   24MOL0     H 3145  -0.052   9.392   1.476  1.0213  0.4411  1.1091
   24MOL0     H 3146  -0.200   9.569   1.283  0.0190 -0.3825 -0.9288
   24MOL0     H 3147  -0.197   9.397   1.259  0.8445 -2.2863  1.4907
   24MOL0     H 3148  -0.305   9.344   1.472  5.8779  0.8927 -0.2228
   24MOL0     H 3149  -0.404   9.445   1.371 -2.3726 -0.8277  3.1289
   24MOL0     H 3150   0.350   8.951   1.293  3.2165 -0.0754  3.1218
   24MOL0     H 3151   0.444   8.745   1.359  0.6811 -0.2497  0.0046
   24MOL0     H 3152   0.786   8.406   1.200  1.3203 -0.4725 -0.7984
   24MOL0     H 3153   0.954   8.239   1.264 -2.0819  0.2702 -1.0686
   24MOL0     H 3154   2.780   8.816   2.076  0.8790  1.3359 -1.5808
   24MOL0     H 3155   2.980   8.792   2.252  1.1994  1.9873 -1.5263
   24MOL0     H 3156   3.248   8.577   2.490  0.4774 -1.8358 -0.8455
   24MOL0     H 3157   3.426   8.606   2.662  4.3557  2.6102  1.6393
   24MOL0     H 3158   3.806   8.803   2.549 -2.2787  0.7627  0.4174
   24MOL0     H 3159   3.840   8.637   2.583  3.0375  1.6599 -0.4710
   24MOL0     H 3160   3.786   8.857   2.801  5.9828  1.4939  2.9211
   24MOL0     H 3161   3.832   8.688   2.830  0.4772  0.1869  0.0282
   24MOL0     H 3162   4.024   8.859   2.675  2.5197  2.1319  2.0056
   24MOL0     H 3163   4.056   8.713   2.762  1.0740  1.3532  0.2874
   24MOL0     H 3164   4.013   8.997   2.873  2.3587  0.8711  2.9583
   24MOL0     H 3165   3.974   8.855   2.972  2.9682  0.5522  2.4815
   24MOL0     H 3166   4.407   8.850   2.923  0.1836  1.6020 -1.8206
   24MOL0     H 3167   3.702   8.743   2.374 -2.0224  4.1515 -0.2541
   24MOL0     H 3168   3.531   8.703   2.190  0.0934 -0.4222 -0.0556
   25MOL0     O 3169   6.362   9.689  10.486 -0.4077  0.5967  0.4697
   25MOL0     C 3170   6.443   9.606  10.536 -0.5692 -0.9728  0.5241
   25MOL0     O 3171   6.425   9.463  10.529 -0.1063 -0.5199  0.0343
   25MOL0     C 3172   6.339   9.395  10.443  0.1292  0.7970  0.6767
   25MOL0     C 3173   6.296   9.449  10.318 -0.7156  0.0206 -0.0421
   25MOL0     C 3174   6.212   9.377  10.233  0.1084 -0.1189  0.2250
   25MOL0     C 3175   6.170   9.251  10.276 -0.6331 -0.3495 -0.2785
   25MOL0     O 3176   6.095   9.173  10.195 -0.2009 -0.3574  0.2426
   25MOL0     C 3177   5.974   9.243  10.154  0.4131  0.1857 -0.5642
   25MOL0     C 3178   5.966   9.273  10.005  0.4285 -0.1296 -0.4563
   25MOL0     C 3179   5.826   9.306   9.942 -0.2773  0.1762 -0.4294
   25MOL0     C 3180   5.832   9.320   9.788  1.1729 -0.7685 -0.8465
   25MOL0     C 3181   5.696   9.309   9.725 -0.0572 -0.7770  0.5362
   25MOL0     C 3182   5.714   9.272   9.573  0.7244  0.7001 -0.0276
   25MOL0     C 3183   5.577   9.249   9.501 -0.7630  0.1152 -0.4683
   25MOL0     C 3184   5.493   9.377   9.481 -0.4257  0.8093 -0.9487
   25MOL0     N 3185   5.363   9.348   9.412 -0.6317  1.4147 -0.4743
   25MOL0     C 3186   5.262   9.270   9.455  0.1180  0.8478  0.7135
   25MOL0     C 3187   5.191   9.225   9.347 -0.1180  0.6456  0.6263
   25MOL0     C 3188   5.080   9.125   9.337 -0.0274  0.6763  0.0199
   25MOL0     C 3189   4.947   9.196   9.364 -0.5972 -0.7544  0.7111
   25MOL0     C 3190   4.825   9.111   9.373  0.3150  0.3267  1.0850
   25MOL0     C 3191   4.813   9.036   9.504 -0.7366  0.4645  1.0197
   25MOL0     O 3192   4.739   8.916   9.492  0.6274  0.2476  0.7088
   25MOL0     C 3193   4.599   8.920   9.499  0.1390  0.8421  0.0881
   25MOL0     C 3194   4.538   8.795   9.490 -0.0040  0.8215 -0.4669
   25MOL0     C 3195   4.400   8.776   9.490 -0.8661 -0.0351 -0.2427
   25MOL0     C 3196   4.320   8.889   9.506  0.0247 -0.7787 -0.3162
   25MOL0     C 3197   4.179   8.883   9.520  0.4330  0.7425  0.3703
   25MOL0     O 3198   4.113   8.962   9.604  0.2301  0.4177  0.0096
   25MOL0     C 3199   3.977   8.957   9.588 -0.2630  0.4300  0.4575
   25MOL0     C 3200   3.913   8.956   9.708 -0.2011 -0.6528  0.2549
   25MOL0     C 3201   3.779   8.946   9.717  1.2006 -0.3952 -0.4854
   25MOL0     C 3202   3.692   8.920   9.608  0.3059  0.3174  0.3663
   25MOL0     O 3203   3.557   8.898   9.631 -0.0009  0.1448  0.6090
   25MOL0     C 3204   3.474   8.965   9.538  0.5722  0.2420 -0.1884
   25MOL0     C 3205   3.326   8.958   9.573 -0.2427 -0.4019  0.1816
   25MOL0     C 3206   3.272   9.074   9.661 -0.2891 -0.4161 -0.6709
   25MOL0     C 3207   3.130   9.035   9.722 -0.1101  0.0345  0.7654
   25MOL0     C 3208   3.068   9.152   9.802  1.0311 -0.1071 -0.1637
   25MOL0     C 3209   3.032   9.278   9.716  0.4367  0.0190  0.9551
   25MOL0     C 3210   2.974   9.393   9.790  0.0646  0.2346  0.4405
   25MOL0     C 3211   2.854   9.466   9.726 -0.2625  0.2390 -0.0643
   25MOL0    Cl 3212   2.722   9.345   9.701 -0.0501  0.1660 -0.1507
   25MOL0     C 3213   3.756   8.927   9.476  1.0134 -1.0853 -0.0187
   25MOL0     C 3214   3.900   8.945   9.470  0.2527 -0.1900  0.1573
   25MOL0     O 3215   4.137   8.784   9.459 -0.2182  0.1235 -0.4090
   25MOL0     C 3216   4.376   9.012   9.504 -0.2057 -0.9392  0.8440
   25MOL0     C 3217   4.515   9.033   9.500  0.3924 -0.1515 -0.0467
   25MOL0     N 3218   5.248   9.291   9.240 -0.1525  0.4055 -0.5259
   25MOL0     N 3219   5.347   9.370   9.281  0.1863 -0.1279  0.2269
   25MOL0     C 3220   6.217   9.191  10.395 -0.2880  0.0998 -0.2670
   25MOL0     C 3221   6.298   9.266  10.484 -0.1422  0.0078  0.6027
   25MOL0     C 3222   6.561   9.656  10.607  1.0598 -1.1109 -0.5788
   25MOL0     C 3223   6.625   9.581  10.701 -0.6237  0.1260 -0.0889
   25MOL0     C 3224   6.728   9.641  10.777 -0.5474  0.1984  0.2128
   25MOL0     C 3225   6.767   9.777  10.757  0.7549 -0.8912  0.2943
   25MOL0     O 3226   6.880   9.817  10.826  0.7290 -0.5996  0.2083
   25MOL0     C 3227   6.906   9.959  10.830  0.1686 -0.5104 -0.4937
   25MOL0     C 3228   7.039   9.986  10.907  0.5545  0.1069  0.1250
   25MOL0     C 3229   7.036   9.927  11.049 -0.4392  0.2105 -1.0324
   25MOL0     C 3230   7.176   9.931  11.097 -0.0410  0.3078 -0.1231
   25MOL0     C 3231   7.191   9.881  11.232 -0.9548  0.8668  0.0095
   25MOL0     C 3232   7.188   9.833  11.339  0.1082 -0.0018  0.0202
   25MOL0     C 3233   6.694   9.855  10.660 -0.0229  0.5665 -0.6253
   25MOL0     C 3234   6.590   9.794  10.591  0.0831  0.2496  0.2314
   25MOL0     H 3235   6.319   9.553  10.295 -0.4944 -0.2601 -1.1054
   25MOL0     H 3236   6.175   9.428  10.145 -1.4859 -1.4928  0.0406
   25MOL0     H 3237   5.942   9.331  10.211  1.1805 -0.7589  1.4454
   25MOL0     H 3238   5.906   9.160  10.172  1.1902 -0.4386 -0.4403
   25MOL0     H 3239   6.004   9.180   9.961  2.1953 -0.7634  2.1508
   25MOL0     H 3240   6.027   9.362   9.985  0.7677 -0.6010 -1.5896
   25MOL0     H 3241   5.788   9.398   9.987  0.2169 -0.2454  0.9148
   25MOL0     H 3242   5.777   9.213   9.972 -1.0501  0.4482 -0.8418
   25MOL0     H 3243   5.877   9.419   9.774  0.9910 -0.7798 -1.5435
   25MOL0     H 3244   5.899   9.247   9.741  0.9170 -0.7755 -1.1992
   25MOL0     H 3245   5.638   9.401   9.738 -3.0452 -2.6496  1.5703
   25MOL0     H 3246   5.626   9.238   9.770  0.2846 -0.9467  0.8034
   25MOL0     H 3247   5.776   9.182   9.575  0.0990  0.2522 -0.3704
   25MOL0     H 3248   5.782   9.334   9.514  2.5430 -1.0648  0.1005
   25MOL0     H 3249   5.588   9.191   9.409 -1.3340 -1.3997  0.3824
   25MOL0     H 3250   5.520   9.182   9.566  2.7155 -0.5313  2.2124
   25MOL0     H 3251   5.554   9.446   9.422 -0.6470  2.2148  0.4096
   25MOL0     H 3252   5.476   9.431   9.574  2.1916  1.4421 -0.7611
   25MOL0     H 3253   5.233   9.247   9.557 -1.1865  1.5868  0.5224
   25MOL0     H 3254   5.106   9.039   9.399 -1.5697 -1.5096 -2.1445
   25MOL0     H 3255   5.063   9.086   9.236 -1.4070 -2.1463  1.2343
   25MOL0     H 3256   4.933   9.262   9.278 -0.9217 -1.2227  0.4021
   25MOL0     H 3257   4.941   9.258   9.453 -0.6904 -0.2276  0.3442
   25MOL0     H 3258   4.733   9.171   9.376 -0.3918 -0.7277  1.1253
   25MOL0     H 3259   4.822   9.040   9.290 -1.1212  0.4375  1.0080
   25MOL0     H 3260   4.775   9.103   9.582  2.0340 -0.9029  3.7276
   25MOL0     H 3261   4.911   9.004   9.539 -2.1458 -1.4433  3.5614
   25MOL0     H 3262   4.609   8.714   9.476  1.3642  1.5597  1.6252
   25MOL0     H 3263   4.352   8.680   9.472 -1.2287  0.2055 -0.5773
   25MOL0     H 3264   3.974   8.968   9.797  0.2194 -0.8033 -0.0085
   25MOL0     H 3265   3.739   8.928   9.816  1.2214  1.5380 -0.0977
   25MOL0     H 3266   3.480   8.918   9.439 -0.1966  1.5624 -0.8810
   25MOL0     H 3267   3.508   9.068   9.529  1.5858  0.4016  3.6578
   25MOL0     H 3268   3.304   8.858   9.611  0.2582 -1.2833 -1.7223
   25MOL0     H 3269   3.279   8.962   9.474  0.1683 -0.8342 -0.0381
   25MOL0     H 3270   3.263   9.168   9.606  1.4521 -0.4457 -1.0453
   25MOL0     H 3271   3.344   9.098   9.740 -0.0483 -0.4662 -0.8758
   25MOL0     H 3272   3.057   9.012   9.644 -2.1005  2.1996  1.8589
   25MOL0     H 3273   3.144   8.946   9.784  2.5900  0.9201  1.5529
   25MOL0     H 3274   3.146   9.187   9.870  0.8173 -0.8450  0.4793
   25MOL0     H 3275   2.978   9.111   9.850  0.2113  0.9127 -0.7858
   25MOL0     H 3276   2.972   9.242   9.632  4.1242 -0.6460 -1.6351
   25MOL0     H 3277   3.119   9.318   9.663 -1.0952  0.5040 -1.3523
   25MOL0     H 3278   2.943   9.356   9.889 -0.5037  0.6017  0.4014
   25MOL0     H 3279   3.052   9.465   9.817 -0.2705 -0.1149  2.5384
   25MOL0     H 3280   2.884   9.505   9.629 -0.7996  2.2131  0.5270
   25MOL0     H 3281   2.813   9.545   9.789  0.1775  1.0312 -0.7628
   25MOL0     H 3282   3.706   8.908   9.382 -1.4998 -1.0397  1.2182
   25MOL0     H 3283   3.949   8.944   9.373 -2.9927 -2.3203 -1.6665
   25MOL0     H 3284   4.310   9.097   9.516  2.0637  1.3504 -1.6456
   25MOL0     H 3285   4.552   9.135   9.498  1.7354 -0.6281 -1.3796
   25MOL0     H 3286   6.171   9.095  10.417 -0.1131 -0.0461 -0.5259
   25MOL0     H 3287   6.326   9.216  10.576  3.0279 -0.5312 -0.4940
   25MOL0     H 3288   6.601   9.480  10.733 -1.0337  0.4528  0.6417
   25MOL0     H 3289   6.790   9.589  10.849  3.3425  0.8031 -2.3697
   25MOL0     H 3290   6.836  10.004  10.901  2.2437  1.3058  0.5338
   25MOL0     H 3291   6.915  10.010  10.734  1.5782 -2.6081 -1.5265
   25MOL0     H 3292   7.130   9.940  10.866  2.2434  0.4993  3.1498
   25MOL0     H 3293   7.064  10.092  10.909  0.8962  0.2069 -3.3063
   25MOL0     H 3294   6.989   9.829  11.062 -2.2935  1.2144  0.2772
   25MOL0     H 3295   6.967   9.984  11.111 -0.7721  2.1950 -3.0660
   25MOL0     H 3296   7.228   9.859  11.033  0.0232 -0.3213  0.6226
   25MOL0     H 3297   7.228  10.027  11.103 -0.9214  0.7293  1.2806
   25MOL0     H 3298   7.186   9.777  11.431  0.8043 -1.1072 -0.6249
   25MOL0     H 3299   6.719   9.958  10.638 -2.1073  1.2302 -0.1198
   25MOL0     H 3300   6.540   9.849  10.513  0.3421  0.3554  0.1376
   26MOL0     O 3301   1.526   7.696   0.697  0.2307 -0.4165  0.3620
   26MOL0     C 3302   1.540   7.772   0.791 -0.3843  1.0552  0.2740
   26MOL0     O 3303   1.453   7.788   0.892  0.5601  0.4489  0.0509
   26MOL0     C 3304   1.331   7.726   0.876  0.0064 -0.1166 -0.0256
   26MOL0     C 3305   1.247   7.749   0.772 -0.3306 -0.1405  0.7508
   26MOL0     C 3306   1.118   7.693   0.773 -0.7780  0.1785 -0.4749
   26MOL0     C 3307   1.084   7.601   0.869  0.0115 -0.3928  0.0229
   26MOL0     O 3308   0.954   7.549   0.857  0.3097 -0.1144 -0.4579
   26MOL0     C 3309   0.881   7.517   0.977  0.3449 -0.3951  0.0413
   26MOL0     C 3310   0.745   7.457   0.959 -0.4227  0.1789  0.4429
   26MOL0     C 3311   0.703   7.436   1.111 -0.0908 -0.0676  0.9328
   26MOL0     C 3312   0.555   7.378   1.112 -0.5113 -0.9565  0.0458
   26MOL0     C 3313   0.502   7.320   1.242 -0.4309  0.7854  1.2787
   26MOL0     C 3314   0.468   7.431   1.352  0.0865  0.8420  0.1269
   26MOL0     C 3315   0.314   7.452   1.355  0.1505  0.6087  0.0899
   26MOL0     C 3316   0.238   7.340   1.422  0.2224 -0.0538  0.6940
   26MOL0     N 3317   0.094   7.364   1.440 -0.5200 -0.2433 -0.9411
   26MOL0     C 3318   0.026   7.298   1.541 -0.8873  0.2587  0.0579
   26MOL0     C 3319  -0.099   7.312   1.507 -0.6486 -0.5010 -0.3986
   26MOL0     C 3320  -0.221   7.278   1.597 -0.3531  0.4085  0.8428
   26MOL0     C 3321  -0.319   7.390   1.607  0.2766  0.6946 -0.7014
   26MOL0     C 3322  -0.441   7.370   1.692 -0.0937 -0.1735 -0.0202
   26MOL0     C 3323  -0.540   7.486   1.662 -0.3089  0.3140 -0.6523
   26MOL0     O 3324  -0.655   7.470   1.748  0.3526  0.0522 -0.2784
   26MOL0     C 3325  -0.736   7.571   1.788  0.7955 -0.0613 -0.0780
   26MOL0     C 3326  -0.814   7.558   1.898 -0.1342  0.0813 -0.2862
   26MOL0     C 3327  -0.880   7.665   1.950  0.2149 -0.6875 -0.6373
   26MOL0     C 3328  -0.892   7.778   1.876 -0.2181 -0.7055  0.5615
   26MOL0     C 3329  -0.986   7.888   1.920  0.7741 -0.2028  0.3460
   26MOL0     O 3330  -1.029   7.892   2.052  0.4668  0.1679  0.4166
   26MOL0     C 3331  -1.119   7.989   2.089 -0.7168  0.5464 -0.2719
   26MOL0     C 3332  -1.075   8.086   2.188 -0.1563 -0.2244  0.1115
   26MOL0     C 3333  -1.172   8.175   2.246  0.6583 -0.7078 -0.0475
   26MOL0     C 3334  -1.305   8.171   2.203 -0.0638  0.0612  0.2492
   26MOL0     O 3335  -1.392   8.270   2.245  0.9496 -0.5213  0.1197
   26MOL0     C 3336  -1.401   8.305   2.387 -0.3362  0.2075  0.0124
   26MOL0     C 3337  -1.533   8.282   2.459 -0.4543  0.1686  0.1299
   26MOL0     C 3338  -1.639   8.369   2.390  0.3718  0.1540 -0.2908
   26MOL0     C 3339  -1.779   8.362   2.461 -0.2512 -0.2299  0.5978
   26MOL0     C 3340  -1.794   8.456   2.587 -0.1144  0.4057 -0.0436
   26MOL0     C 3341  -1.930   8.427   2.652 -0.2500  0.3455  0.3681
   26MOL0     C 3342  -1.953   8.533   2.766 -0.2852 -0.6532 -0.5843
   26MOL0     C 3343  -2.089   8.513   2.837 -0.5741 -0.5269  0.1256
   26MOL0    Cl 3344  -2.132   8.342   2.875 -0.2207 -0.2521  0.1025
   26MOL0     C 3345  -1.346   8.076   2.108 -0.8676 -0.0313 -0.1272
   26MOL0     C 3346  -1.257   7.977   2.057 -0.2812  1.2483  0.4928
   26MOL0     O 3347  -1.033   7.948   1.827  0.2503 -0.3391 -0.1212
   26MOL0     C 3348  -0.818   7.792   1.754  0.2205  1.0316 -0.0623
   26MOL0     C 3349  -0.733   7.690   1.716 -0.5553 -0.4836 -0.3999
   26MOL0     N 3350  -0.104   7.383   1.394  0.2535 -1.0538 -0.1305
   26MOL0     N 3351   0.011   7.407   1.350 -0.0278  0.2504  0.8102
   26MOL0     C 3352   1.171   7.576   0.976 -0.5831  1.0613  0.0563
   26MOL0     C 3353   1.298   7.642   0.983  0.2567  0.9617  0.1112
   26MOL0     C 3354   1.659   7.866   0.800  0.5110 -0.8678 -0.1935
   26MOL0     C 3355   1.751   7.865   0.695 -0.0803 -0.3776 -0.1868
   26MOL0     C 3356   1.849   7.967   0.686  0.5226  0.1957  0.0640
   26MOL0     C 3357   1.855   8.067   0.786  0.2841 -0.4385  0.0732
   26MOL0     O 3358   1.951   8.162   0.784  0.2211  0.0857  0.4888
   26MOL0     C 3359   1.914   8.296   0.735  0.4070 -0.2177 -0.3943
   26MOL0     C 3360   1.875   8.404   0.836 -0.2526 -0.0367 -1.0532
   26MOL0     C 3361   1.979   8.419   0.959 -0.1394  0.1995  0.2821
   26MOL0     C 3362   2.111   8.492   0.913  0.6982  0.5344  0.1288
   26MOL0     C 3363   2.201   8.502   1.029  0.3184  0.0862  0.5820
   26MOL0     C 3364   2.284   8.512   1.112 -0.8122  0.4417  0.0404
   26MOL0     C 3365   1.755   8.073   0.891  0.0072  0.7992  0.4213
   26MOL0     C 3366   1.656   7.972   0.892 -0.4064 -0.5620 -0.9805
   26MOL0     H 3367   1.290   7.803   0.689 -1.2326 -0.3720  0.1151
   26MOL0     H 3368   1.052   7.715   0.689 -1.5159 -0.5629 -0.0968
   26MOL0     H 3369   0.870   7.602   1.045 -1.7528 -1.4690  1.1674
   26MOL0     H 3370   0.952   7.463   1.040  2.1378  2.3839  0.5862
   26MOL0     H 3371   0.741   7.359   0.910 -2.1672 -0.4577  1.7629
   26MOL0     H 3372   0.681   7.519   0.895  0.3313 -1.5369 -2.1216
   26MOL0     H 3373   0.690   7.530   1.166 -0.0480  0.1913  0.5035
   26MOL0     H 3374   0.775   7.378   1.169  1.1165  0.2014 -0.2492
   26MOL0     H 3375   0.497   7.465   1.081  0.5961 -0.1249  0.2498
   26MOL0     H 3376   0.545   7.301   1.034  2.7097  0.7999 -2.3492
   26MOL0     H 3377   0.581   7.250   1.274 -2.5484 -1.7648  1.2377
   26MOL0     H 3378   0.408   7.270   1.219  0.7283 -0.0786 -2.2837
   26MOL0     H 3379   0.521   7.521   1.321  2.9851 -0.4299  1.0836
   26MOL0     H 3380   0.514   7.398   1.445  0.0514 -1.0947 -0.4950
   26MOL0     H 3381   0.296   7.544   1.410 -0.2833  1.5820 -1.6136
   26MOL0     H 3382   0.273   7.464   1.254  1.1740 -2.1499 -0.7548
   26MOL0     H 3383   0.290   7.315   1.516 -0.2703 -1.7128  0.5591
   26MOL0     H 3384   0.245   7.242   1.372 -4.5915 -0.5968  0.6238
   26MOL0     H 3385   0.083   7.245   1.616  0.5080  0.2142 -0.9879
   26MOL0     H 3386  -0.192   7.253   1.700 -1.2973 -0.9246  0.8177
   26MOL0     H 3387  -0.252   7.181   1.558  4.0015 -0.0498 -2.1130
   26MOL0     H 3388  -0.348   7.408   1.503  2.1571 -1.0207 -1.5892
   26MOL0     H 3389  -0.269   7.480   1.645  4.5346 -1.0367 -1.6518
   26MOL0     H 3390  -0.480   7.268   1.689 -0.7479 -0.0671  2.7484
   26MOL0     H 3391  -0.412   7.382   1.796 -3.2582  0.1725  0.9180
   26MOL0     H 3392  -0.573   7.470   1.560 -1.5973 -1.8848  0.0545
   26MOL0     H 3393  -0.482   7.579   1.662  1.5188 -0.7287 -2.7726
   26MOL0     H 3394  -0.814   7.462   1.949  0.8890  0.5517  0.6356
   26MOL0     H 3395  -0.944   7.662   2.038 -1.5175 -0.2442 -1.8102
   26MOL0     H 3396  -0.978   8.084   2.236 -1.1569 -2.3674  2.2793
   26MOL0     H 3397  -1.135   8.259   2.306  4.4160  0.2302 -3.2561
   26MOL0     H 3398  -1.376   8.412   2.386  1.0892 -0.0174 -3.2064
   26MOL0     H 3399  -1.317   8.252   2.434  0.4005 -2.2536 -3.6768
   26MOL0     H 3400  -1.526   8.311   2.564 -1.5233  1.7410 -0.2140
   26MOL0     H 3401  -1.560   8.176   2.449  1.9029 -0.7661  2.5174
   26MOL0     H 3402  -1.664   8.333   2.289  1.1456  0.8035 -0.7275
   26MOL0     H 3403  -1.600   8.471   2.375 -0.1703  0.2270 -1.2910
   26MOL0     H 3404  -1.860   8.377   2.389  1.9355 -1.6549 -2.3305
   26MOL0     H 3405  -1.788   8.259   2.496  1.8320 -0.3415  0.9067
   26MOL0     H 3406  -1.773   8.558   2.555  1.5435 -0.4740 -2.0578
   26MOL0     H 3407  -1.711   8.427   2.652 -1.1458 -0.5545  0.8883
   26MOL0     H 3408  -1.936   8.325   2.693 -1.2687  1.5936  3.6294
   26MOL0     H 3409  -2.008   8.441   2.577  1.6119 -2.2889 -2.3157
   26MOL0     H 3410  -1.872   8.513   2.837  0.2044 -0.8333 -1.1816
   26MOL0     H 3411  -1.929   8.637   2.739  0.2919 -0.3598  0.9286
   26MOL0     H 3412  -2.171   8.541   2.771 -3.6432 -1.5893  3.1860
   26MOL0     H 3413  -2.094   8.573   2.928 -0.4543 -2.1875  1.2758
   26MOL0     H 3414  -1.451   8.089   2.084 -0.4341  3.5112 -0.6611
   26MOL0     H 3415  -1.283   7.904   1.981  0.4394 -0.0526  1.4560
   26MOL0     H 3416  -0.824   7.882   1.693 -0.1337  1.1592  0.1533
   26MOL0     H 3417  -0.680   7.705   1.622 -2.1262  2.3338 -0.9362
   26MOL0     H 3418   1.151   7.506   1.057 -1.9764 -1.9444 -2.6190
   26MOL0     H 3419   1.368   7.609   1.058  0.2016  1.1610  0.2504
   26MOL0     H 3420   1.741   7.786   0.621 -0.3055 -0.4060 -0.1254
   26MOL0     H 3421   1.914   7.970   0.599  0.4528  2.4224  0.0270
   26MOL0     H 3422   1.828   8.284   0.669 -1.2343  0.6723  1.4816
   26MOL0     H 3423   1.995   8.330   0.669  1.3924 -2.0602 -0.1872
   26MOL0     H 3424   1.845   8.495   0.783  1.0248  0.4616 -0.9458
   26MOL0     H 3425   1.784   8.367   0.885  1.3044 -1.2392  1.0590
   26MOL0     H 3426   2.001   8.324   1.009 -3.0158 -0.2767  0.8415
   26MOL0     H 3427   1.929   8.472   1.041 -0.0178 -1.3112  1.3694
   26MOL0     H 3428   2.166   8.425   0.847 -0.4383  0.1151 -0.4297
   26MOL0     H 3429   2.090   8.587   0.863 -0.3362 -0.7448 -1.9877
   26MOL0     H 3430   2.357   8.522   1.190 -1.9987 -2.1887  1.6352
   26MOL0     H 3431   1.756   8.158   0.959  0.0011  1.1998 -0.0696
   26MOL0     H 3432   1.577   7.982   0.965 -0.0347 -0.3917 -0.5956
   27MOL0     O 3433   3.843   0.202   6.002 -1.2240 -0.7916 -0.5635
   27MOL0     C 3434   3.864   0.259   5.891  0.0346  0.4805 -0.6236
   27MOL0     O 3435   3.766   0.293   5.797 -0.0914 -0.1837  0.1519
   27MOL0     C 3436   3.631   0.271   5.819  0.3696  0.2663  0.3163
   27MOL0     C 3437   3.542   0.380   5.830  0.2660 -0.2359  0.3407
   27MOL0     C 3438   3.410   0.357   5.877  0.2211  0.1515 -0.2473
   27MOL0     C 3439   3.367   0.223   5.921 -0.4548 -1.7307  0.0306
   27MOL0     O 3440   3.242   0.204   5.979 -0.0526  0.0553  0.0541
   27MOL0     C 3441   3.205   0.073   6.036  0.2608 -0.8164  0.0276
   27MOL0     C 3442   3.057   0.068   6.066  0.8169  0.3130  0.4317
   27MOL0     C 3443   2.978   0.109   5.932  0.2375  0.2819  0.3446
   27MOL0     C 3444   2.824   0.075   5.950  0.3374 -0.4046  1.0421
   27MOL0     C 3445   2.742   0.124   5.825  0.4520  0.6658 -0.0573
   27MOL0     C 3446   2.586   0.107   5.854 -0.0695  0.5556 -0.1218
   27MOL0     C 3447   2.497   0.148   5.729  0.3360  0.6945 -0.5893
   27MOL0     C 3448   2.457   0.018   5.660  0.0957 -0.2090 -0.3534
   27MOL0     N 3449   2.389   0.043   5.533  0.1912  0.0356 -0.7977
   27MOL0     C 3450   2.254   0.022   5.520  0.1192 -0.5558 -0.6224
   27MOL0     C 3451   2.236   0.047   5.388  0.4287  0.0910 -0.7931
   27MOL0     C 3452   2.111   0.053   5.294  0.3932 -0.4605 -0.0889
   27MOL0     C 3453   2.111   0.174   5.208 -0.0270 -0.3655  0.1532
   27MOL0     C 3454   2.015   0.158   5.092  0.3430 -0.8397  0.4369
   27MOL0     C 3455   1.872   0.129   5.127 -0.4074 -0.2079 -0.1883
   27MOL0     O 3456   1.777   0.169   5.026 -0.3945  0.2659 -0.0922
   27MOL0     C 3457   1.646   0.141   5.051 -0.2437  0.5894 -0.0395
   27MOL0     C 3458   1.601   0.101   5.179 -0.0380  0.8593  0.2081
   27MOL0     C 3459   1.461   0.091   5.199 -0.6936  0.2743 -0.1847
   27MOL0     C 3460   1.369   0.120   5.107  0.9534  0.3487  1.0270
   27MOL0     C 3461   1.225   0.122   5.138  0.2735 -0.7087 -0.0678
   27MOL0     O 3462   1.188   0.088   5.267  0.1065  0.5020  0.4334
   27MOL0     C 3463   1.061   0.110   5.310 -1.0903  0.2608  0.7598
   27MOL0     C 3464   0.971   0.008   5.291  0.3883  0.3967  0.6289
   27MOL0     C 3465   0.843   0.017   5.348 -0.7774  0.4177  0.1563
   27MOL0     C 3466   0.814   0.128   5.426  0.0899 -0.6533  0.1419
   27MOL0     O 3467   0.691   0.161   5.481 -0.8359  0.4770  0.2468
   27MOL0     C 3468   0.583   0.080   5.440  1.0055 -0.3586  0.1961
   27MOL0     C 3469   0.465   0.138   5.510  0.5269 -0.1691 -0.3183
   27MOL0     C 3470   0.421   0.271   5.456  1.1820 -0.1090  0.2093
   27MOL0     C 3471   0.274   0.319   5.491 -0.0252  0.7155 -0.3981
   27MOL0     C 3472   0.227   0.276   5.633  0.1161 -0.8080 -0.1698
   27MOL0     C 3473   0.101   0.344   5.670 -0.3177  0.4579 -0.5942
   27MOL0     C 3474   0.048   0.280   5.793  0.4141  0.3806 -0.8400
   27MOL0     C 3475  -0.065   0.361   5.860  0.7262 -0.1803  0.4649
   27MOL0    Cl 3476   0.008   0.500   5.938  0.1546 -0.4539  0.3127
   27MOL0     C 3477   0.908   0.233   5.442  0.0383 -0.7151 -0.5478
   27MOL0     C 3478   1.029   0.231   5.375  0.8124  0.5743  0.2988
   27MOL0     O 3479   1.155   0.156   5.048 -0.3933  0.3648 -0.0661
   27MOL0     C 3480   1.412   0.161   4.974 -0.1706 -0.6710 -0.2060
   27MOL0     C 3481   1.554   0.168   4.944 -0.6510  0.8321 -0.6812
   27MOL0     N 3482   2.354   0.086   5.331  0.1269  0.5962 -0.2126
   27MOL0     N 3483   2.445   0.093   5.420  0.3421 -0.0692  0.2476
   27MOL0     C 3484   3.458   0.125   5.904  0.2925 -0.0718 -1.0055
   27MOL0     C 3485   3.578   0.145   5.840 -0.0134  0.3644 -1.1331
   27MOL0     C 3486   4.000   0.288   5.853  0.3548 -0.2741  0.3995
   27MOL0     C 3487   4.109   0.243   5.925 -0.9288 -0.7546  0.1819
   27MOL0     C 3488   4.241   0.278   5.891  0.1401  0.4818 -0.2184
   27MOL0     C 3489   4.276   0.361   5.777 -0.5357  0.4050 -0.2849
   27MOL0     O 3490   4.403   0.392   5.742 -0.5993  0.0171 -0.1753
   27MOL0     C 3491   4.438   0.435   5.608  0.2918 -0.1427 -0.0848
   27MOL0     C 3492   4.593   0.458   5.600  0.0042  0.2596 -0.4567
   27MOL0     C 3493   4.648   0.523   5.721 -0.3696 -0.4947 -0.0219
   27MOL0     C 3494   4.788   0.575   5.706 -0.1847  0.4357 -0.1857
   27MOL0     C 3495   4.844   0.644   5.825  0.5760 -1.2782  0.8535
   27MOL0     C 3496   4.893   0.717   5.912  0.9140  1.3306  0.2661
   27MOL0     C 3497   4.168   0.398   5.705  0.9730 -0.1236 -0.2202
   27MOL0     C 3498   4.032   0.369   5.739 -0.6898  0.0785 -0.7926
   27MOL0     H 3499   3.581   0.477   5.800 -1.5533 -0.3166 -2.5846
   27MOL0     H 3500   3.343   0.440   5.902 -1.1696 -1.2506  0.9437
   27MOL0     H 3501   3.267   0.058   6.125  1.9670 -1.4250 -1.2185
   27MOL0     H 3502   3.229  -0.012   5.971  0.6006  1.2964 -2.7742
   27MOL0     H 3503   3.027   0.144   6.139 -0.1194  0.1081  0.2776
   27MOL0     H 3504   3.021  -0.029   6.104 -4.2755  0.5966 -2.6958
   27MOL0     H 3505   3.013   0.042   5.854 -2.2634 -1.0046  0.2036
   27MOL0     H 3506   2.998   0.212   5.901  2.1385  0.1535  1.0712
   27MOL0     H 3507   2.822  -0.034   5.960  2.2320 -0.9459 -2.7675
   27MOL0     H 3508   2.787   0.123   6.041  3.0521  0.4102  1.8215
   27MOL0     H 3509   2.774   0.068   5.737  1.5618 -0.5372  1.0563
   27MOL0     H 3510   2.764   0.230   5.809 -1.6974  1.0746 -0.6421
   27MOL0     H 3511   2.571   0.166   5.944 -1.3851 -1.3026  0.9596
   27MOL0     H 3512   2.573   0.001   5.879 -0.3784  0.4002 -0.8826
   27MOL0     H 3513   2.417   0.211   5.771  0.2905  1.4661 -1.7760
   27MOL0     H 3514   2.545   0.219   5.661  0.3410  0.2414 -1.0603
   27MOL0     H 3515   2.396  -0.042   5.727 -0.8471  2.0638  0.9418
   27MOL0     H 3516   2.547  -0.038   5.634  0.0296 -0.8419  0.7101
   27MOL0     H 3517   2.179  -0.002   5.594  3.1383 -2.8933  1.9668
   27MOL0     H 3518   2.022   0.043   5.357  0.2067 -0.3968 -0.3424
   27MOL0     H 3519   2.115  -0.042   5.239  1.4591  0.1220 -1.0497
   27MOL0     H 3520   2.211   0.193   5.167  0.1156  3.4762  1.8865
   27MOL0     H 3521   2.087   0.268   5.258  2.3960  0.2226  0.3195
   27MOL0     H 3522   2.010   0.250   5.032  3.2598 -1.8428 -1.5411
   27MOL0     H 3523   2.055   0.078   5.029  0.3632 -0.7306  0.3090
   27MOL0     H 3524   1.860   0.189   5.218 -1.2106  1.1007 -1.1259
   27MOL0     H 3525   1.864   0.021   5.143 -1.2202  0.0813  1.6258
   27MOL0     H 3526   1.668   0.078   5.262  3.0876 -2.5351 -2.8696
   27MOL0     H 3527   1.428   0.058   5.297  0.3501  1.7439  0.7014
   27MOL0     H 3528   0.968  -0.078   5.226  0.3278  0.3778  0.6566
   27MOL0     H 3529   0.768  -0.060   5.333 -0.1391 -0.2107  0.1201
   27MOL0     H 3530   0.612  -0.020   5.475  3.2064  0.0275 -0.3672
   27MOL0     H 3531   0.569   0.067   5.332 -0.0021 -0.4534  0.3291
   27MOL0     H 3532   0.487   0.159   5.615 -2.7761  2.9367 -0.0407
   27MOL0     H 3533   0.372   0.081   5.499 -1.1235  2.4126 -0.6120
   27MOL0     H 3534   0.426   0.266   5.347  3.0060 -2.9348  0.3472
   27MOL0     H 3535   0.479   0.361   5.477 -1.6697  2.3911 -1.7784
   27MOL0     H 3536   0.271   0.428   5.486 -1.6523  0.6651 -1.1941
   27MOL0     H 3537   0.204   0.269   5.424  1.7038 -3.6907  0.7086
   27MOL0     H 3538   0.298   0.295   5.714  0.0911 -4.4572  0.8769
   27MOL0     H 3539   0.212   0.168   5.628 -0.2420 -0.8731  1.7334
   27MOL0     H 3540   0.024   0.338   5.593  0.4964 -2.0893 -1.3306
   27MOL0     H 3541   0.123   0.449   5.688  1.1464  0.2321 -0.9237
   27MOL0     H 3542   0.016   0.178   5.770 -1.0919  0.8198 -0.8320
   27MOL0     H 3543   0.131   0.277   5.865 -0.0498  1.8099 -0.1950
   27MOL0     H 3544  -0.116   0.306   5.940 -1.7546  0.0095 -0.8739
   27MOL0     H 3545  -0.140   0.381   5.783  0.9885 -1.1104 -0.0472
   27MOL0     H 3546   0.871   0.321   5.494  0.3924 -1.4437  0.9673
   27MOL0     H 3547   1.100   0.313   5.371  1.4180  0.1561  1.9970
   27MOL0     H 3548   1.341   0.200   4.902 -1.9103  0.7319  2.1064
   27MOL0     H 3549   1.588   0.186   4.843 -3.2740 -0.5094 -1.8922
   27MOL0     H 3550   3.435   0.022   5.929  2.4670  0.2725  3.2510
   27MOL0     H 3551   3.640   0.058   5.819  2.6705  2.2409 -1.4744
   27MOL0     H 3552   4.089   0.180   6.012 -0.8586 -0.6279  0.2903
   27MOL0     H 3553   4.311   0.255   5.971 -0.4770  2.9623  1.1205
   27MOL0     H 3554   4.390   0.534   5.600 -1.4831 -0.9269  0.3371
   27MOL0     H 3555   4.402   0.372   5.526  3.8957 -1.2664 -0.9538
   27MOL0     H 3556   4.647   0.362   5.593  2.2879  1.4536 -0.1251
   27MOL0     H 3557   4.614   0.531   5.522  3.6641  1.4613  1.4115
   27MOL0     H 3558   4.643   0.447   5.800 -1.8663 -1.8017 -1.3183
   27MOL0     H 3559   4.586   0.611   5.744 -0.0371 -0.0378 -0.8507
   27MOL0     H 3560   4.845   0.482   5.697 -0.6575  0.0623  0.5480
   27MOL0     H 3561   4.796   0.628   5.611  1.8515 -0.2908 -0.4720
   27MOL0     H 3562   4.942   0.777   5.986  1.8200  1.7661 -0.6639
   27MOL0     H 3563   4.199   0.456   5.619  1.3612  0.0157  0.0121
   27MOL0     H 3564   3.953   0.406   5.674  0.0862 -0.8875 -2.3535
   28MOL0     O 3565   8.661   2.906   8.676 -0.1765  1.1267  0.1498
   28MOL0     C 3566   8.666   2.812   8.759 -0.1320  0.3889 -0.0445
   28MOL0     O 3567   8.558   2.751   8.825  0.4603 -0.7088 -0.1336
   28MOL0     C 3568   8.432   2.765   8.772  0.1249 -0.3655 -0.0152
   28MOL0     C 3569   8.393   2.801   8.639 -1.4788 -0.5649 -0.0610
   28MOL0     C 3570   8.257   2.792   8.600 -0.5630  0.1953 -0.3138
   28MOL0     C 3571   8.152   2.751   8.684 -0.0756  0.0471  0.9929
   28MOL0     O 3572   8.022   2.765   8.647  0.0084  0.4462 -0.0606
   28MOL0     C 3573   7.915   2.714   8.732 -1.1204 -0.3316  0.3209
   28MOL0     C 3574   7.779   2.738   8.655  0.1106 -0.0156  0.0143
   28MOL0     C 3575   7.671   2.689   8.753  0.8238 -0.1339  0.8264
   28MOL0     C 3576   7.539   2.664   8.685  1.0484 -0.3183 -0.2800
   28MOL0     C 3577   7.439   2.581   8.767 -0.1142 -0.2992  0.5536
   28MOL0     C 3578   7.308   2.550   8.696 -0.4091  0.2744 -0.1577
   28MOL0     C 3579   7.309   2.497   8.549 -0.0506 -0.1398 -0.5813
   28MOL0     C 3580   7.167   2.505   8.497 -0.0280 -0.3659 -0.6506
   28MOL0     N 3581   7.162   2.463   8.360  0.4354 -0.0300 -1.0368
   28MOL0     C 3582   7.174   2.546   8.247 -0.4345  0.5514  0.2748
   28MOL0     C 3583   7.178   2.460   8.142  0.0991 -0.4752 -0.1355
   28MOL0     C 3584   7.195   2.494   7.996 -0.2720  0.1179 -0.4771
   28MOL0     C 3585   7.054   2.521   7.944 -0.2509 -0.1496  0.3696
   28MOL0     C 3586   6.961   2.391   7.930 -0.5361  0.2515  0.5155
   28MOL0     C 3587   6.828   2.403   8.002  0.4219  0.0317 -0.4907
   28MOL0     O 3588   6.765   2.277   7.983  0.1962 -0.2749 -0.5776
   28MOL0     C 3589   6.643   2.267   8.048  0.5179 -0.8528 -0.3470
   28MOL0     C 3590   6.628   2.274   8.187 -0.7017  0.9109 -1.0130
   28MOL0     C 3591   6.508   2.281   8.246 -0.2283  0.0544  0.1642
   28MOL0     C 3592   6.390   2.279   8.175  0.0861  0.8158  0.0738
   28MOL0     C 3593   6.256   2.270   8.242  0.5716  1.1077  0.5278
   28MOL0     O 3594   6.143   2.264   8.171 -0.1301 -0.5035  0.1323
   28MOL0     C 3595   6.027   2.221   8.227 -0.5192 -0.4230 -0.1966
   28MOL0     C 3596   6.017   2.084   8.228 -0.1104 -0.4835 -0.1283
   28MOL0     C 3597   5.905   2.030   8.284 -0.2024  0.3895 -0.2695
   28MOL0     C 3598   5.803   2.115   8.337 -0.0320 -0.4243  0.7848
   28MOL0     O 3599   5.701   2.047   8.398  0.0045  0.7088 -0.2734
   28MOL0     C 3600   5.587   2.117   8.442  0.4157  0.2204 -0.3679
   28MOL0     C 3601   5.497   2.031   8.531 -0.0180 -0.2227  0.1255
   28MOL0     C 3602   5.434   1.908   8.461  0.3063  0.4812  0.0216
   28MOL0     C 3603   5.356   1.828   8.570  0.0522  0.0935 -0.0304
   28MOL0     C 3604   5.453   1.753   8.673 -0.0581  0.0703  0.5019
   28MOL0     C 3605   5.383   1.633   8.732 -0.4289  0.4645 -0.5699
   28MOL0     C 3606   5.447   1.597   8.869  0.5796 -0.2553 -0.1500
   28MOL0     C 3607   5.574   1.518   8.862 -0.3191  0.5425 -0.6543
   28MOL0    Cl 3608   5.547   1.349   8.807 -0.3328  0.2605 -0.4366
   28MOL0     C 3609   5.815   2.252   8.335 -0.7195 -0.1508  0.2776
   28MOL0     C 3610   5.934   2.305   8.286 -0.6819  0.1971 -0.3325
   28MOL0     O 3611   6.255   2.258   8.364 -0.3295  0.3771 -0.1191
   28MOL0     C 3612   6.405   2.274   8.036 -0.0490  0.3931  0.5770
   28MOL0     C 3613   6.524   2.273   7.975  0.4253  0.5472  0.1493
   28MOL0     N 3614   7.151   2.332   8.200  0.6076  0.6661  0.6254
   28MOL0     N 3615   7.129   2.338   8.323 -0.4933 -0.0490 -0.1744
   28MOL0     C 3616   8.191   2.704   8.809 -0.1768 -0.2372  0.1044
   28MOL0     C 3617   8.328   2.716   8.853  0.6181 -0.4638  0.3710
   28MOL0     C 3618   8.792   2.761   8.794 -1.2005 -0.5398 -0.3208
   28MOL0     C 3619   8.905   2.800   8.715 -0.1396  0.7731 -0.4351
   28MOL0     C 3620   9.031   2.758   8.740 -0.0173 -0.0007  0.2528
   28MOL0     C 3621   9.058   2.661   8.842  0.3726  0.4154 -0.0727
   28MOL0     O 3622   9.178   2.610   8.878 -0.0728  0.2678  0.1549
   28MOL0     C 3623   9.297   2.644   8.807  0.5930 -0.0174 -0.5503
   28MOL0     C 3624   9.403   2.649   8.920 -0.8624 -0.2607  0.4060
   28MOL0     C 3625   9.541   2.695   8.872  0.2781 -0.1880 -0.3331
   28MOL0     C 3626   9.630   2.581   8.833 -0.0913  0.2390 -0.1977
   28MOL0     C 3627   9.571   2.497   8.730  0.5347 -0.6682  1.2669
   28MOL0     C 3628   9.517   2.420   8.649  0.0015  0.1062 -0.0940
   28MOL0     C 3629   8.953   2.615   8.911  1.1134  0.0371 -1.0608
   28MOL0     C 3630   8.820   2.663   8.886  0.9661  0.1585  0.7981
   28MOL0     H 3631   8.465   2.822   8.561 -0.1380  1.8432  1.6869
   28MOL0     H 3632   8.222   2.830   8.505 -0.2011  1.5943  0.0817
   28MOL0     H 3633   7.912   2.778   8.820 -0.1777 -0.0465  0.1530
   28MOL0     H 3634   7.925   2.610   8.766  0.8147  0.0825  1.1471
   28MOL0     H 3635   7.789   2.665   8.575 -0.6936  1.7780 -1.8197
   28MOL0     H 3636   7.768   2.836   8.608 -1.8203  0.1298  0.6949
   28MOL0     H 3637   7.653   2.753   8.839 -0.0180  1.5884 -0.5754
   28MOL0     H 3638   7.699   2.592   8.797  0.9747  0.0371  1.1081
   28MOL0     H 3639   7.489   2.758   8.656 -0.1032 -1.4073 -2.0529
   28MOL0     H 3640   7.567   2.620   8.589  1.5259 -0.7205  0.0432
   28MOL0     H 3641   7.419   2.642   8.856  0.8842  2.3522 -0.9386
   28MOL0     H 3642   7.491   2.492   8.804  3.9459  0.2549 -3.1345
   28MOL0     H 3643   7.247   2.641   8.693  2.7193  2.6481  1.8216
   28MOL0     H 3644   7.267   2.480   8.769  0.0039 -0.4851 -0.6359
   28MOL0     H 3645   7.366   2.571   8.493 -1.3275  1.4176  0.1077
   28MOL0     H 3646   7.342   2.393   8.541  0.5983 -0.1146  1.2638
   28MOL0     H 3647   7.116   2.602   8.505 -1.0602 -0.9921  1.1882
   28MOL0     H 3648   7.110   2.428   8.550  1.7552  0.0757  2.1347
   28MOL0     H 3649   7.187   2.654   8.252  2.3906  0.2438  1.5196
   28MOL0     H 3650   7.246   2.420   7.933  0.2361  1.4919 -1.7530
   28MOL0     H 3651   7.258   2.583   7.986  1.1325 -0.8712 -0.7020
   28MOL0     H 3652   7.055   2.570   7.846 -0.5848  0.9552  0.9111
   28MOL0     H 3653   6.999   2.588   8.009 -1.2257  1.3818 -1.8951
   28MOL0     H 3654   6.933   2.390   7.824 -0.8208 -2.3589  0.5482
   28MOL0     H 3655   7.013   2.296   7.948 -0.8678 -0.4537 -1.9312
   28MOL0     H 3656   6.765   2.480   7.956 -2.8587 -1.5979  0.9077
   28MOL0     H 3657   6.824   2.428   8.109 -0.2146 -0.0006 -0.4983
   28MOL0     H 3658   6.716   2.274   8.251 -1.4635  1.2925  0.0782
   28MOL0     H 3659   6.504   2.257   8.352  1.0348 -0.6648  0.0709
   28MOL0     H 3660   6.095   2.012   8.207  0.9105  0.3447  0.7121
   28MOL0     H 3661   5.893   1.922   8.278 -0.6293  0.3688  0.8047
   28MOL0     H 3662   5.536   2.161   8.356 -1.3627 -0.2088  0.4191
   28MOL0     H 3663   5.622   2.200   8.504  2.5868 -0.6771 -0.3168
   28MOL0     H 3664   5.410   2.093   8.555 -3.6476 -3.8776 -2.3519
   28MOL0     H 3665   5.542   2.000   8.626 -1.3023 -0.9389  0.5296
   28MOL0     H 3666   5.507   1.839   8.417 -1.4554 -1.7093  0.3320
   28MOL0     H 3667   5.361   1.951   8.393  2.2719  2.0889 -1.1640
   28MOL0     H 3668   5.286   1.904   8.608  0.0416  0.1694 -0.2030
   28MOL0     H 3669   5.305   1.743   8.524  0.7820 -0.9433  1.0132
   28MOL0     H 3670   5.489   1.832   8.739 -0.5030  0.2929  0.4800
   28MOL0     H 3671   5.537   1.714   8.615 -0.4751  0.7499 -0.5924
   28MOL0     H 3672   5.393   1.541   8.675  1.3213  0.4231 -0.2606
   28MOL0     H 3673   5.277   1.658   8.733 -0.3899  0.8122 -2.5306
   28MOL0     H 3674   5.480   1.687   8.922  3.1512  0.5255 -2.7945
   28MOL0     H 3675   5.367   1.548   8.925 -0.1720  1.5005  0.3840
   28MOL0     H 3676   5.636   1.524   8.952  1.0594 -1.0053 -1.4360
   28MOL0     H 3677   5.637   1.567   8.787  0.4373  1.5743  0.6220
   28MOL0     H 3678   5.737   2.322   8.365 -1.0785  0.4474 -1.8652
   28MOL0     H 3679   5.943   2.413   8.277  0.2624  0.1508 -0.1127
   28MOL0     H 3680   6.319   2.279   7.970 -0.2106  1.9309  0.8763
   28MOL0     H 3681   6.526   2.285   7.867 -1.0729 -2.2249 -0.2745
   28MOL0     H 3682   8.126   2.651   8.878 -1.6857 -1.8818 -2.3962
   28MOL0     H 3683   8.358   2.685   8.953 -2.6787 -1.2032  1.2549
   28MOL0     H 3684   8.882   2.866   8.631 -0.4393 -1.0115 -1.8206
   28MOL0     H 3685   9.107   2.787   8.667  0.2422 -0.9667  0.1210
   28MOL0     H 3686   9.279   2.739   8.756  1.4848 -0.3155 -1.4430
   28MOL0     H 3687   9.310   2.569   8.728  3.9745  1.4632 -1.5681
   28MOL0     H 3688   9.376   2.716   9.003  1.1140  1.7466 -0.4569
   28MOL0     H 3689   9.410   2.553   8.972 -0.3346 -0.7380 -0.5110
   28MOL0     H 3690   9.591   2.749   8.952 -1.4643 -1.2352  1.5619
   28MOL0     H 3691   9.531   2.767   8.790  0.3939  0.7742  0.4733
   28MOL0     H 3692   9.722   2.628   8.799 -0.3823  1.2148  0.3297
   28MOL0     H 3693   9.628   2.509   8.916 -2.6629 -0.7260 -1.0029
   28MOL0     H 3694   9.475   2.339   8.592 -0.1681 -0.5319  0.9089
   28MOL0     H 3695   8.971   2.539   8.987  1.2331  1.4424  0.3765
   28MOL0     H 3696   8.741   2.618   8.945  0.7720  1.1614  1.3169
   29MOL0     O 3697   8.040   5.407   4.933  0.8825 -0.5276  0.0302
   29MOL0     C 3698   7.979   5.514   4.954  0.0543  0.0544 -0.5479
   29MOL0     O 3699   7.865   5.522   5.035  0.2017 -0.6445  0.1175
   29MOL0     C 3700   7.808   5.406   5.097  0.4137 -0.3290 -0.0968
   29MOL0     C 3701   7.668   5.404   5.107 -0.3903 -0.1004 -0.4719
   29MOL0     C 3702   7.597   5.301   5.164  0.7713  0.5091 -0.6678
   29MOL0     C 3703   7.662   5.187   5.211 -0.2471  0.6122 -0.3512
   29MOL0     O 3704   7.588   5.077   5.258  0.3201 -0.6333 -0.0783
   29MOL0     C 3705   7.656   4.965   5.323  0.6703 -0.3850  1.4039
   29MOL0     C 3706   7.548   4.866   5.362 -0.3929 -0.2251  0.3682
   29MOL0     C 3707   7.449   4.911   5.470 -0.0087 -0.2518 -0.3097
   29MOL0     C 3708   7.330   4.812   5.519 -0.6798  0.2235 -0.2415
   29MOL0     C 3709   7.226   4.883   5.610 -1.2677  0.2348  0.4362
   29MOL0     C 3710   7.129   4.777   5.644  0.3286 -0.0778 -0.1188
   29MOL0     C 3711   7.020   4.838   5.739  0.4074  0.3404  0.3789
   29MOL0     C 3712   6.910   4.921   5.658 -0.1051  0.7800  0.0005
   29MOL0     N 3713   6.803   4.830   5.636 -0.4192  0.5423 -0.2395
   29MOL0     C 3714   6.799   4.739   5.538  0.1866  0.5587 -0.6795
   29MOL0     C 3715   6.690   4.667   5.569 -0.8056 -1.3088  0.2988
   29MOL0     C 3716   6.633   4.560   5.486 -0.4966  0.6907  0.0206
   29MOL0     C 3717   6.485   4.585   5.438 -0.0636 -0.3252 -0.3014
   29MOL0     C 3718   6.388   4.471   5.473 -0.0525 -0.4892 -0.2847
   29MOL0     C 3719   6.263   4.483   5.394  0.1911  0.2360  0.9044
   29MOL0     O 3720   6.156   4.405   5.449  0.2805  0.1936 -0.1224
   29MOL0     C 3721   6.021   4.431   5.403 -0.4956  0.1426 -0.4489
   29MOL0     C 3722   5.922   4.363   5.477 -0.0072  0.3758 -0.0417
   29MOL0     C 3723   5.787   4.380   5.455  0.8873 -0.3536 -0.9607
   29MOL0     C 3724   5.742   4.459   5.348  0.4782 -0.4797 -0.9965
   29MOL0     C 3725   5.597   4.472   5.319 -0.3440 -0.5898  0.0921
   29MOL0     O 3726   5.513   4.404   5.396  0.2616  0.3939  1.1168
   29MOL0     C 3727   5.377   4.416   5.361  0.9059  0.1929 -0.3780
   29MOL0     C 3728   5.308   4.318   5.297  0.7575 -1.0827  0.0049
   29MOL0     C 3729   5.171   4.331   5.277  0.4825  0.3737 -1.1516
   29MOL0     C 3730   5.095   4.435   5.340  0.1542 -0.2102 -0.5731
   29MOL0     O 3731   4.958   4.425   5.316 -0.7088  0.6146  0.1125
   29MOL0     C 3732   4.885   4.527   5.381  0.5437  0.0582 -0.7473
   29MOL0     C 3733   4.732   4.507   5.348  0.2850  0.0809  0.1146
   29MOL0     C 3734   4.703   4.558   5.201  0.2812  0.4189  0.8228
   29MOL0     C 3735   4.572   4.507   5.157 -0.1369 -0.4187  0.7881
   29MOL0     C 3736   4.544   4.575   5.021  0.1807 -0.3713 -0.2118
   29MOL0     C 3737   4.400   4.552   4.973  0.6260 -0.2557  0.5704
   29MOL0     C 3738   4.384   4.595   4.825 -0.5541  0.4558 -0.2842
   29MOL0     C 3739   4.236   4.619   4.794  0.4468  0.5682  0.5851
   29MOL0    Cl 3740   4.163   4.462   4.757  0.0457 -0.5192 -0.0771
   29MOL0     C 3741   5.167   4.528   5.415  0.4864  0.1151  0.2740
   29MOL0     C 3742   5.305   4.524   5.417 -0.2885  0.1258 -0.2994
   29MOL0     O 3743   5.563   4.549   5.235  0.0778 -0.4697  0.3751
   29MOL0     C 3744   5.836   4.508   5.268 -0.8200  0.0938 -0.7480
   29MOL0     C 3745   5.977   4.499   5.294 -0.2084 -0.2055  0.1054
   29MOL0     N 3746   6.639   4.708   5.687 -0.0885  0.1811 -0.5119
   29MOL0     N 3747   6.710   4.806   5.725 -0.0472 -0.1215  0.3731
   29MOL0     C 3748   7.807   5.189   5.209 -0.3598 -0.6606 -0.2596
   29MOL0     C 3749   7.869   5.298   5.156  0.0337  0.0748  1.0037
   29MOL0     C 3750   8.031   5.647   4.897  0.1146  0.1706  0.7285
   29MOL0     C 3751   7.968   5.768   4.925  0.5561  0.0903  0.3875
   29MOL0     C 3752   8.027   5.882   4.870 -0.8060 -0.2654  0.2304
   29MOL0     C 3753   8.140   5.888   4.790  0.2563  0.4259 -0.1830
   29MOL0     O 3754   8.179   6.006   4.742  0.0133  0.3408 -0.1622
   29MOL0     C 3755   8.271   6.028   4.637  0.8420  0.4880  0.3578
   29MOL0     C 3756   8.197   6.002   4.504  0.2762  0.1766  0.9961
   29MOL0     C 3757   8.296   6.028   4.383  0.4893  0.2081  0.0800
   29MOL0     C 3758   8.225   6.050   4.247 -0.5903  0.3515 -0.1380
   29MOL0     C 3759   8.334   6.097   4.159  0.1785 -0.1055  0.7129
   29MOL0     C 3760   8.417   6.155   4.083 -0.1239  1.1681 -0.0792
   29MOL0     C 3761   8.194   5.768   4.755 -0.9112  0.2042 -0.0128
   29MOL0     C 3762   8.138   5.648   4.808  0.6962  0.1473  0.4244
   29MOL0     H 3763   7.626   5.501   5.081  0.8644  0.2935 -1.0912
   29MOL0     H 3764   7.488   5.298   5.168  0.8190 -1.0251  0.1043
   29MOL0     H 3765   7.716   5.016   5.399 -1.8607  4.4708  0.5282
   29MOL0     H 3766   7.730   4.912   5.263  0.1613  0.0255  0.3966
   29MOL0     H 3767   7.599   4.781   5.409  1.0459  1.4468  2.0238
   29MOL0     H 3768   7.485   4.841   5.277 -0.9637  2.6307 -0.1780
   29MOL0     H 3769   7.396   5.002   5.439  0.0046 -0.1719 -0.1020
   29MOL0     H 3770   7.505   4.941   5.558  1.3137  0.1721 -1.2751
   29MOL0     H 3771   7.284   4.777   5.426  1.1476 -0.6851 -0.8538
   29MOL0     H 3772   7.381   4.728   5.567 -2.9945  0.3443  2.7003
   29MOL0     H 3773   7.176   4.951   5.541  0.7496 -0.4725 -1.8694
   29MOL0     H 3774   7.270   4.936   5.695  1.5249  0.0332 -0.7800
   29MOL0     H 3775   7.176   4.701   5.708  2.6402  1.0853 -0.3229
   29MOL0     H 3776   7.084   4.725   5.560 -1.2751  1.0469  0.0225
   29MOL0     H 3777   6.969   4.762   5.798  0.9617  1.1522  1.9561
   29MOL0     H 3778   7.073   4.895   5.815  1.6277 -0.0524 -0.1570
   29MOL0     H 3779   6.937   4.971   5.565 -0.0598 -0.2989 -0.5879
   29MOL0     H 3780   6.871   4.993   5.731  0.3029  1.7800 -0.7471
   29MOL0     H 3781   6.871   4.734   5.457 -1.3794 -1.0136 -2.0454
   29MOL0     H 3782   6.642   4.464   5.537 -1.4453  1.0096  0.8216
   29MOL0     H 3783   6.692   4.553   5.394 -0.0843 -1.7452  0.4107
   29MOL0     H 3784   6.490   4.591   5.329  0.3715 -0.4054 -0.2844
   29MOL0     H 3785   6.451   4.678   5.485  1.5003  0.3840 -0.5278
   29MOL0     H 3786   6.431   4.372   5.460  1.0482 -0.4783  2.4282
   29MOL0     H 3787   6.374   4.480   5.582  1.4594  1.8378 -0.2120
   29MOL0     H 3788   6.287   4.454   5.291 -0.7212  3.0170 -0.1937
   29MOL0     H 3789   6.234   4.588   5.401 -1.7770 -0.3020  1.4123
   29MOL0     H 3790   5.955   4.304   5.562  1.5927  0.6783 -0.4072
   29MOL0     H 3791   5.714   4.327   5.515  3.0561 -0.9530  1.2780
   29MOL0     H 3792   5.367   4.238   5.252 -0.7709 -2.6510  0.6838
   29MOL0     H 3793   5.128   4.251   5.217  1.1416 -3.6056  3.0827
   29MOL0     H 3794   4.909   4.628   5.347 -4.7055  1.3074 -1.6475
   29MOL0     H 3795   4.899   4.540   5.489  0.1817 -0.4291 -0.6378
   29MOL0     H 3796   4.658   4.558   5.409  0.0222  1.4104 -1.2724
   29MOL0     H 3797   4.723   4.398   5.349 -0.0217  0.0741  2.4135
   29MOL0     H 3798   4.782   4.533   5.130 -2.1662  1.6945 -2.5872
   29MOL0     H 3799   4.701   4.668   5.195  1.6575  0.3791 -1.6575
   29MOL0     H 3800   4.563   4.398   5.149 -0.6394 -0.2608 -1.6579
   29MOL0     H 3801   4.499   4.538   5.233 -0.4530 -0.6307  0.5714
   29MOL0     H 3802   4.617   4.538   4.948  0.2222  0.6097 -0.6940
   29MOL0     H 3803   4.563   4.682   5.031  1.1479 -0.7280  2.7214
   29MOL0     H 3804   4.329   4.607   5.035 -1.8691 -1.7256 -0.8247
   29MOL0     H 3805   4.361   4.451   4.983  2.8475 -1.2536 -0.1227
   29MOL0     H 3806   4.443   4.684   4.802 -3.0216  1.8684 -1.4956
   29MOL0     H 3807   4.425   4.513   4.765 -1.5465  0.5709 -1.1439
   29MOL0     H 3808   4.216   4.675   4.702 -1.1009 -0.0628  0.4995
   29MOL0     H 3809   4.186   4.682   4.868 -2.0810 -2.5341  1.7786
   29MOL0     H 3810   5.116   4.608   5.468  1.7182  0.9516  0.2625
   29MOL0     H 3811   5.358   4.596   5.478 -1.7345  0.5504  0.5119
   29MOL0     H 3812   5.826   4.580   5.187  2.8313  1.6565  0.0052
   29MOL0     H 3813   6.053   4.542   5.228 -0.3604  0.4305  0.3398
   29MOL0     H 3814   7.864   5.110   5.257 -0.0843 -1.9775 -2.5882
   29MOL0     H 3815   7.978   5.299   5.161  0.0970 -0.5936 -0.0806
   29MOL0     H 3816   7.875   5.767   4.980  0.8569 -0.8860  0.9123
   29MOL0     H 3817   7.981   5.979   4.884  0.8880  0.7658 -0.9915
   29MOL0     H 3818   8.363   5.976   4.666  1.9432  2.3949  0.4533
   29MOL0     H 3819   8.311   6.130   4.633  0.5275  0.7883  3.1371
   29MOL0     H 3820   8.167   5.896   4.509 -0.4518  0.3348  0.1896
   29MOL0     H 3821   8.104   6.057   4.491 -1.0831 -1.8197  1.6625
   29MOL0     H 3822   8.368   5.945   4.374  1.3587  0.8075  1.2274
   29MOL0     H 3823   8.357   6.116   4.404  0.7206 -0.2478  1.4711
   29MOL0     H 3824   8.184   5.955   4.212 -1.5495  1.5597 -2.5538
   29MOL0     H 3825   8.144   6.124   4.247  1.6638  2.9975  1.2368
   29MOL0     H 3826   8.484   6.199   4.012  1.9146 -1.3405  0.1357
   29MOL0     H 3827   8.286   5.765   4.698 -0.7189 -2.5153  0.3264
   29MOL0     H 3828   8.179   5.548   4.799 -2.4210 -1.4315  2.1236
   30MOL0     O 3829   4.490   0.402   5.271 -0.7848 -0.4152 -0.0042
   30MOL0     C 3830   4.441   0.399   5.161  0.5890  0.2164 -0.1113
   30MOL0     O 3831   4.314   0.434   5.137 -0.4916  0.8221  1.0383
   30MOL0     C 3832   4.233   0.473   5.245 -0.2785  0.1088 -0.9700
   30MOL0     C 3833   4.124   0.396   5.282 -0.2397  0.2368 -0.3532
   30MOL0     C 3834   4.027   0.446   5.366 -0.4076  0.1723  0.8124
   30MOL0     C 3835   4.056   0.565   5.438  0.4490  0.3744 -1.1629
   30MOL0     O 3836   3.975   0.631   5.531 -0.6583 -0.1151  0.9798
   30MOL0     C 3837   3.837   0.640   5.498 -0.5035  0.2268 -0.5309
   30MOL0     C 3838   3.818   0.760   5.406  0.2374  1.2490 -0.5458
   30MOL0     C 3839   3.824   0.877   5.494 -0.2301 -0.0952  0.0933
   30MOL0     C 3840   3.802   1.010   5.418 -0.2790  0.1250  0.7802
   30MOL0     C 3841   3.652   1.015   5.350  0.4778 -0.3314 -0.1527
   30MOL0     C 3842   3.612   1.153   5.296 -0.2346  0.3480 -0.4129
   30MOL0     C 3843   3.474   1.137   5.233  0.7199 -0.4410 -0.4000
   30MOL0     C 3844   3.359   1.164   5.337  0.7372  0.8878  0.3314
   30MOL0     N 3845   3.223   1.160   5.290 -0.1556 -0.2316 -0.4208
   30MOL0     C 3846   3.150   1.270   5.245 -0.4820  0.0937 -0.3908
   30MOL0     C 3847   3.022   1.226   5.235 -0.1960 -0.3039 -0.4135
   30MOL0     C 3848   2.891   1.302   5.205 -0.1777  0.5185  0.2818
   30MOL0     C 3849   2.908   1.389   5.075  0.2851 -0.5843  1.0871
   30MOL0     C 3850   2.810   1.502   5.054 -0.1937 -0.1751 -0.1457
   30MOL0     C 3851   2.666   1.448   5.049 -0.1707  0.2299 -0.3755
   30MOL0     O 3852   2.576   1.555   5.043  0.3777 -0.3260  0.4010
   30MOL0     C 3853   2.445   1.545   5.020  0.8150  0.6260  0.7560
   30MOL0     C 3854   2.367   1.658   5.004  0.0464 -0.3627 -0.6537
   30MOL0     C 3855   2.232   1.647   4.974 -0.5935 -0.1984  0.4333
   30MOL0     C 3856   2.163   1.525   4.976 -0.1841 -0.7043  0.2529
   30MOL0     C 3857   2.021   1.523   4.950 -0.0126  0.8447  0.3601
   30MOL0     O 3858   1.951   1.621   5.000  0.3791 -0.5120  0.0947
   30MOL0     C 3859   1.814   1.614   4.981  0.6051  0.6031 -0.2767
   30MOL0     C 3860   1.718   1.508   5.026 -0.4452  0.7564  0.2715
   30MOL0     C 3861   1.580   1.515   4.999  0.6857 -1.2450 -0.1773
   30MOL0     C 3862   1.517   1.630   4.947  0.1610 -0.0352  0.2089
   30MOL0     O 3863   1.382   1.632   4.951 -0.1306 -1.1572  0.2430
   30MOL0     C 3864   1.314   1.729   4.875 -0.0438  0.6243 -0.4751
   30MOL0     C 3865   1.165   1.718   4.871  0.2462 -0.3210  0.2645
   30MOL0     C 3866   1.096   1.757   4.996  0.9938  0.9198 -0.0751
   30MOL0     C 3867   0.934   1.752   4.984 -0.9542  0.3197  0.2287
   30MOL0     C 3868   0.856   1.847   5.081  0.7787  0.0276  0.5607
   30MOL0     C 3869   0.703   1.829   5.043 -0.3337 -0.3065 -0.4944
   30MOL0     C 3870   0.617   1.899   5.139  0.1685 -0.3946 -0.0247
   30MOL0     C 3871   0.467   1.901   5.100  0.3554 -0.1641 -0.4324
   30MOL0    Cl 3872   0.443   2.007   4.948  0.6435  0.0731 -0.0063
   30MOL0     C 3873   1.603   1.736   4.907 -0.2311  0.3030 -0.2945
   30MOL0     C 3874   1.745   1.724   4.923  0.4552 -0.5461  1.0464
   30MOL0     O 3875   1.973   1.421   4.899 -0.1979  0.1099 -0.2360
   30MOL0     C 3876   2.239   1.409   4.989 -0.8982  0.5299 -0.0253
   30MOL0     C 3877   2.379   1.421   5.005 -0.4243 -0.4721 -0.4401
   30MOL0     N 3878   3.028   1.095   5.274  1.1945 -0.0815  0.9234
   30MOL0     N 3879   3.143   1.051   5.296  0.9064  0.0908  0.2541
   30MOL0     C 3880   4.181   0.627   5.429 -0.5482  0.4418  0.9877
   30MOL0     C 3881   4.265   0.596   5.319  0.3689 -0.2997 -0.1614
   30MOL0     C 3882   4.525   0.349   5.047 -0.7482 -0.5010  0.0699
   30MOL0     C 3883   4.472   0.347   4.915  0.1768 -0.4746 -0.1169
   30MOL0     C 3884   4.547   0.296   4.809  0.5653  0.0297 -0.9777
   30MOL0     C 3885   4.673   0.256   4.831  0.3552  0.2176 -0.2823
   30MOL0     O 3886   4.746   0.209   4.728 -0.2535 -0.6466  0.2754
   30MOL0     C 3887   4.841   0.299   4.676  0.2028  0.1571 -0.0620
   30MOL0     C 3888   4.983   0.233   4.662 -0.3705 -0.0243 -0.2459
   30MOL0     C 3889   5.049   0.186   4.795  0.6188 -0.5289  0.1295
   30MOL0     C 3890   5.117   0.298   4.875 -0.1117 -0.1754  0.2908
   30MOL0     C 3891   5.122   0.249   5.016  0.5557  0.2227  0.8219
   30MOL0     C 3892   5.101   0.193   5.115  0.2732  0.5609 -0.1415
   30MOL0     C 3893   4.727   0.256   4.965 -0.1765 -0.0969  0.9020
   30MOL0     C 3894   4.662   0.307   5.074 -0.0006 -0.6324 -0.0739
   30MOL0     H 3895   4.105   0.308   5.221  0.6811 -1.1279  1.2448
   30MOL0     H 3896   3.940   0.383   5.378 -0.8469  0.7190  0.5522
   30MOL0     H 3897   3.772   0.658   5.584 -0.7672  0.2443 -0.7328
   30MOL0     H 3898   3.802   0.552   5.445 -2.5183  0.9722 -0.4962
   30MOL0     H 3899   3.720   0.753   5.358 -1.0429 -1.5862  2.1118
   30MOL0     H 3900   3.888   0.750   5.322 -0.4129 -1.4313 -0.8849
   30MOL0     H 3901   3.928   0.887   5.525  0.8603 -3.8997 -1.8149
   30MOL0     H 3902   3.756   0.871   5.580 -0.5036 -0.9476 -0.1733
   30MOL0     H 3903   3.811   1.088   5.494  0.0832 -0.3071  1.1865
   30MOL0     H 3904   3.886   1.023   5.349  0.3403 -0.2650  1.4522
   30MOL0     H 3905   3.581   0.989   5.429  2.9796  1.5937  2.9589
   30MOL0     H 3906   3.633   0.941   5.272  2.2778 -1.8420  0.7719
   30MOL0     H 3907   3.670   1.184   5.209 -0.8560  1.3635 -0.4896
   30MOL0     H 3908   3.611   1.224   5.380 -2.5097  1.4208 -1.2386
   30MOL0     H 3909   3.473   1.203   5.145 -0.2770 -2.7504 -2.2477
   30MOL0     H 3910   3.460   1.037   5.190  1.8012 -1.1993  0.9621
   30MOL0     H 3911   3.377   1.264   5.377 -0.6183  0.9970  0.7427
   30MOL0     H 3912   3.370   1.104   5.428 -0.6416  1.8821  1.1890
   30MOL0     H 3913   3.184   1.371   5.226  0.3369 -0.4552 -1.9715
   30MOL0     H 3914   2.862   1.370   5.286  2.0631  2.6141 -0.5510
   30MOL0     H 3915   2.804   1.237   5.190 -0.3564  1.1304 -1.5586
   30MOL0     H 3916   2.910   1.326   4.986  1.7984 -2.5451  2.4116
   30MOL0     H 3917   3.010   1.430   5.078  0.5290 -1.0068 -0.6811
   30MOL0     H 3918   2.809   1.576   5.134 -2.8392 -0.2195 -0.0314
   30MOL0     H 3919   2.825   1.542   4.953 -0.4272 -1.9309 -0.9228
   30MOL0     H 3920   2.641   1.399   5.143  1.5613  1.4075  0.7553
   30MOL0     H 3921   2.651   1.378   4.967 -0.8202 -1.9382  1.4991
   30MOL0     H 3922   2.412   1.756   4.993 -1.4598  0.4891  0.4382
   30MOL0     H 3923   2.182   1.742   4.955  1.2381  0.4504 -1.5940
   30MOL0     H 3924   1.763   1.422   5.074 -1.8009  0.3490  0.8634
   30MOL0     H 3925   1.515   1.433   5.031 -0.8721 -0.0823 -0.2181
   30MOL0     H 3926   1.344   1.717   4.771  0.5091  2.3704 -0.5525
   30MOL0     H 3927   1.343   1.825   4.920 -0.1762 -0.5642  2.3720
   30MOL0     H 3928   1.132   1.615   4.854 -0.9175  0.2276 -0.8874
   30MOL0     H 3929   1.124   1.772   4.785  2.4469 -1.3695 -1.5674
   30MOL0     H 3930   1.129   1.858   5.021  1.2355  0.3291  2.2174
   30MOL0     H 3931   1.126   1.695   5.081 -1.0967 -0.7100 -0.4294
   30MOL0     H 3932   0.902   1.764   4.880  0.0363 -0.7775 -0.2186
   30MOL0     H 3933   0.905   1.648   4.995  2.7794 -1.3141 -2.9958
   30MOL0     H 3934   0.878   1.951   5.052 -0.4047  0.5384  1.4075
   30MOL0     H 3935   0.885   1.822   5.183  4.0535 -0.5612 -0.4047
   30MOL0     H 3936   0.674   1.725   5.058 -1.4336  0.4500  3.8798
   30MOL0     H 3937   0.685   1.858   4.939  0.5353  0.6253 -0.3991
   30MOL0     H 3938   0.625   1.853   5.237  1.5581 -0.8331 -0.3197
   30MOL0     H 3939   0.650   2.001   5.161 -0.4650 -0.3298  0.6377
   30MOL0     H 3940   0.409   1.941   5.183  0.1135 -0.9888 -0.1983
   30MOL0     H 3941   0.421   1.802   5.089 -3.2107  1.2347  0.6365
   30MOL0     H 3942   1.572   1.833   4.869  3.4691  1.4509 -0.7461
   30MOL0     H 3943   1.800   1.810   4.885  1.0713 -1.9593 -1.5377
   30MOL0     H 3944   2.203   1.307   4.982  1.7375 -0.3788 -2.3882
   30MOL0     H 3945   2.442   1.332   5.005  1.1492  0.5780 -1.6700
   30MOL0     H 3946   4.204   0.706   5.499  2.3289 -1.7118  2.6865
   30MOL0     H 3947   4.362   0.641   5.300  1.0195 -2.9238 -4.3341
   30MOL0     H 3948   4.374   0.383   4.887  0.1636 -1.4092 -1.3815
   30MOL0     H 3949   4.485   0.298   4.719 -1.4866 -1.6516  0.3025
   30MOL0     H 3950   4.849   0.389   4.738 -0.8208 -1.7339  3.0252
   30MOL0     H 3951   4.803   0.334   4.579  1.0429  2.9955  0.5240
   30MOL0     H 3952   4.962   0.150   4.595 -0.7480 -0.3457  0.2682
   30MOL0     H 3953   5.048   0.301   4.606  0.1088  0.3442  0.7334
   30MOL0     H 3954   5.125   0.122   4.749  0.0743  0.1724 -1.8372
   30MOL0     H 3955   4.965   0.142   4.850  0.8092 -0.2368  0.6639
   30MOL0     H 3956   5.214   0.336   4.841 -0.6544 -0.6260 -1.8997
   30MOL0     H 3957   5.062   0.392   4.873  2.6868  1.6617  1.7484
   30MOL0     H 3958   5.079   0.164   5.216  2.2686  0.3780  0.2777
   30MOL0     H 3959   4.826   0.212   4.972  0.7104  1.9521  2.2019
   30MOL0     H 3960   4.707   0.310   5.173 -0.1676 -1.9553  0.0572
   31MOL0     O 3961   5.548   9.175   7.545  0.1266  0.8024 -0.0995
   31MOL0     C 3962   5.492   9.246   7.632  0.4375 -0.6670  0.8227
   31MOL0     O 3963   5.359   9.241   7.657 -0.4233 -0.0893 -0.4228
   31MOL0     C 3964   5.279   9.162   7.570  0.4856 -0.2726 -0.5913
   31MOL0     C 3965   5.173   9.102   7.633  0.4656  0.0222  0.2911
   31MOL0     C 3966   5.074   9.026   7.564  1.1064 -0.8640  0.8862
   31MOL0     C 3967   5.082   9.020   7.423 -0.2457  0.2908 -0.3917
   31MOL0     O 3968   4.994   8.963   7.334  0.6952  0.8517 -0.8863
   31MOL0     C 3969   4.857   8.959   7.360  0.3827  0.5957  0.9633
   31MOL0     C 3970   4.820   8.828   7.419  0.4421 -0.1342 -0.6908
   31MOL0     C 3971   4.875   8.701   7.364 -0.1885 -0.0822 -0.6928
   31MOL0     C 3972   4.823   8.669   7.216  0.3355 -0.3361  0.0508
   31MOL0     C 3973   4.677   8.611   7.209  0.0421  0.2775 -0.0083
   31MOL0     C 3974   4.662   8.475   7.283 -0.4528  0.1567  0.2033
   31MOL0     C 3975   4.514   8.432   7.302 -1.4879  0.1504 -0.6954
   31MOL0     C 3976   4.460   8.358   7.183 -0.3818  0.7937  0.0066
   31MOL0     N 3977   4.321   8.324   7.193  0.3979  0.9636 -0.5598
   31MOL0     C 3978   4.227   8.302   7.094  0.2491 -0.2072 -0.5197
   31MOL0     C 3979   4.109   8.277   7.158 -0.9673  0.5441  0.0414
   31MOL0     C 3980   3.993   8.242   7.076  0.3371  0.6348 -0.3575
   31MOL0     C 3981   3.995   8.092   7.037 -0.6132  0.7361 -0.6032
   31MOL0     C 3982   3.950   7.995   7.154  0.1363 -1.0210  0.1190
   31MOL0     C 3983   3.825   8.020   7.245  0.6385  0.9125  0.3751
   31MOL0     O 3984   3.721   8.002   7.146  0.6330  0.7260  0.9485
   31MOL0     C 3985   3.591   8.028   7.178 -0.0436  0.1404 -0.6178
   31MOL0     C 3986   3.499   8.050   7.067  0.6998 -0.0446 -0.1876
   31MOL0     C 3987   3.365   8.041   7.100  0.3961  0.2765 -0.1776
   31MOL0     C 3988   3.311   8.006   7.231  0.2572  0.6478  0.3435
   31MOL0     C 3989   3.169   7.998   7.263 -0.2597 -0.0860  0.6468
   31MOL0     O 3990   3.084   7.991   7.158 -0.1718 -0.5134 -0.4031
   31MOL0     C 3991   2.952   7.949   7.170 -0.3790 -0.1417  0.1549
   31MOL0     C 3992   2.889   7.899   7.050 -1.0121  0.0724 -0.1757
   31MOL0     C 3993   2.751   7.862   7.052 -0.3442  0.3889 -0.1309
   31MOL0     C 3994   2.660   7.883   7.156 -0.1833 -0.9052  0.2255
   31MOL0     O 3995   2.520   7.861   7.146  0.0602  1.2519  0.0955
   31MOL0     C 3996   2.436   7.892   7.261  0.8577 -0.0282  0.5362
   31MOL0     C 3997   2.286   7.855   7.243 -0.4465  0.2880 -0.6503
   31MOL0     C 3998   2.219   7.941   7.135  0.5024  0.4032  0.8814
   31MOL0     C 3999   2.078   7.884   7.130 -0.0196 -0.8415  0.7077
   31MOL0     C 4000   2.015   7.935   6.986 -0.4917 -0.2619 -0.0871
   31MOL0     C 4001   1.872   7.893   6.988  0.1249 -0.1109  0.2286
   31MOL0     C 4002   1.794   7.995   7.067  1.1576  0.0088  0.1949
   31MOL0     C 4003   1.648   7.937   7.083  0.0559 -0.3005 -0.1608
   31MOL0    Cl 4004   1.570   7.889   6.930  0.1092  0.1114  0.4799
   31MOL0     C 4005   2.724   7.933   7.273  0.3256 -1.0043  0.4311
   31MOL0     C 4006   2.867   7.953   7.278 -0.0197  0.0623 -0.2605
   31MOL0     O 4007   3.134   7.989   7.382 -0.0658 -0.5447 -0.1419
   31MOL0     C 4008   3.406   7.987   7.339  0.2053 -0.1047  0.2834
   31MOL0     C 4009   3.548   7.985   7.310  0.7951 -0.5058 -0.6417
   31MOL0     N 4010   4.139   8.259   7.287 -0.0053  0.4700  0.5798
   31MOL0     N 4011   4.258   8.280   7.308 -0.6684  0.1936 -0.5737
   31MOL0     C 4012   5.181   9.092   7.356  0.5007 -0.7732  1.0786
   31MOL0     C 4013   5.279   9.157   7.430  0.1460 -0.3882 -0.4484
   31MOL0     C 4014   5.577   9.329   7.719 -0.6759 -0.3567  0.7637
   31MOL0     C 4015   5.513   9.411   7.813 -0.2516  0.8010 -0.1155
   31MOL0     C 4016   5.592   9.508   7.875  0.1144  0.5876  0.0596
   31MOL0     C 4017   5.732   9.510   7.861 -0.2643  0.8192 -0.8409
   31MOL0     O 4018   5.808   9.600   7.938 -0.3414  0.4106  0.0338
   31MOL0     C 4019   5.925   9.552   8.001  0.1967  1.0121 -0.5369
   31MOL0     C 4020   6.037   9.631   7.942 -0.2935  0.2887  0.7287
   31MOL0     C 4021   6.153   9.636   8.047 -0.5055  0.4411  0.2593
   31MOL0     C 4022   6.297   9.650   7.972 -0.7516 -0.3207  0.8619
   31MOL0     C 4023   6.300   9.780   7.899  0.1642  0.5697  0.2661
   31MOL0     C 4024   6.314   9.892   7.851  0.4505  0.2143 -0.2297
   31MOL0     C 4025   5.795   9.426   7.769  0.6325 -0.6377  0.7651
   31MOL0     C 4026   5.716   9.339   7.693 -0.0335 -0.8493  0.1958
   31MOL0     H 4027   5.173   9.117   7.741  1.8665 -1.1216  0.4819
   31MOL0     H 4028   4.987   8.987   7.615 -0.9287 -0.0401 -1.7332
   31MOL0     H 4029   4.807   8.971   7.263 -0.5131  1.3348  1.4935
   31MOL0     H 4030   4.827   9.045   7.422 -0.8924  2.0886 -1.5224
   31MOL0     H 4031   4.712   8.816   7.419  0.0653  2.6478 -0.2209
   31MOL0     H 4032   4.854   8.821   7.523 -1.1776 -2.7909 -0.2492
   31MOL0     H 4033   4.847   8.619   7.430  0.3667 -0.3212 -0.7500
   31MOL0     H 4034   4.982   8.716   7.349  0.0968 -2.0588 -0.8736
   31MOL0     H 4035   4.824   8.765   7.164 -0.9177  0.8022  1.9720
   31MOL0     H 4036   4.889   8.592   7.173 -1.7225 -1.6605 -0.8919
   31MOL0     H 4037   4.636   8.607   7.108 -1.4977 -0.1219  0.5968
   31MOL0     H 4038   4.609   8.680   7.260 -0.8820 -1.3218  1.0068
   31MOL0     H 4039   4.712   8.494   7.378 -0.0105 -0.7856  0.1660
   31MOL0     H 4040   4.708   8.397   7.221  0.5897  0.4621  0.5754
   31MOL0     H 4041   4.512   8.358   7.383 -0.2057  1.2399  0.3818
   31MOL0     H 4042   4.462   8.518   7.345  0.0811  1.3584 -1.1266
   31MOL0     H 4043   4.517   8.267   7.164 -2.5084  0.0070 -3.3197
   31MOL0     H 4044   4.483   8.408   7.088 -1.4539 -0.6665 -1.0514
   31MOL0     H 4045   4.227   8.305   6.985 -3.9109 -0.8282 -0.6617
   31MOL0     H 4046   3.996   8.290   6.978  0.0949 -2.0955 -1.8033
   31MOL0     H 4047   3.900   8.271   7.125  0.0972 -1.1474  0.3280
   31MOL0     H 4048   4.094   8.057   7.009  0.2095  1.0046  1.7713
   31MOL0     H 4049   3.934   8.062   6.952 -0.1579 -2.7456  0.1425
   31MOL0     H 4050   3.957   7.894   7.113 -0.8060 -1.0376 -0.0347
   31MOL0     H 4051   4.034   8.005   7.223  0.2944 -0.5678 -0.1372
   31MOL0     H 4052   3.808   8.117   7.292 -0.1691  0.2790  1.4615
   31MOL0     H 4053   3.807   7.940   7.319 -2.2752  0.8658 -0.2452
   31MOL0     H 4054   3.534   8.081   6.969  2.0785  2.2786  0.9668
   31MOL0     H 4055   3.290   8.044   7.022  0.1275 -0.4383  0.0393
   31MOL0     H 4056   2.950   7.905   6.960 -0.8674 -0.5473 -0.1190
   31MOL0     H 4057   2.710   7.817   6.962 -1.6400 -0.9343  1.0758
   31MOL0     H 4058   2.442   8.002   7.258  0.0480  0.0476 -2.7413
   31MOL0     H 4059   2.479   7.847   7.351 -0.1970  1.6600  1.9532
   31MOL0     H 4060   2.234   7.882   7.336  1.0177 -0.3686  0.3969
   31MOL0     H 4061   2.264   7.748   7.238 -2.3133  0.6674 -1.4879
   31MOL0     H 4062   2.270   7.903   7.046 -2.3553  2.2433 -1.7482
   31MOL0     H 4063   2.230   8.050   7.142 -0.7503  0.8427 -2.2373
   31MOL0     H 4064   2.075   7.775   7.131 -1.4099 -0.8438 -0.5378
   31MOL0     H 4065   2.028   7.922   7.220 -1.8836  1.4252 -1.1243
   31MOL0     H 4066   2.067   7.887   6.902 -1.4264  0.4527 -1.0971
   31MOL0     H 4067   2.035   8.042   6.983  1.0650 -0.5349 -0.6005
   31MOL0     H 4068   1.861   7.793   7.031 -2.9254 -0.0787 -0.2372
   31MOL0     H 4069   1.835   7.881   6.886 -1.2169 -1.3135  0.8145
   31MOL0     H 4070   1.842   8.020   7.162 -0.7026 -0.6660  1.3470
   31MOL0     H 4071   1.785   8.089   7.011  2.9108  0.0882 -0.0353
   31MOL0     H 4072   1.572   8.006   7.122 -1.5274 -1.8323 -0.3760
   31MOL0     H 4073   1.645   7.854   7.154 -0.2002  0.7900  1.1337
   31MOL0     H 4074   2.663   7.949   7.361 -0.8027 -3.0283  0.0920
   31MOL0     H 4075   2.904   7.990   7.372 -0.5447 -0.7052  0.2618
   31MOL0     H 4076   3.370   7.958   7.437 -0.9894  1.6660  0.3983
   31MOL0     H 4077   3.613   7.963   7.395  1.9392  0.5581 -1.2188
   31MOL0     H 4078   5.183   9.089   7.248  4.2890  1.8126  0.8826
   31MOL0     H 4079   5.352   9.225   7.386  0.0450  0.4710  0.6657
   31MOL0     H 4080   5.410   9.397   7.842 -0.3865  1.9804  0.0135
   31MOL0     H 4081   5.549   9.578   7.946  0.0747 -0.7430  1.3841
   31MOL0     H 4082   5.937   9.444   7.992  0.0440  0.8216  1.1454
   31MOL0     H 4083   5.922   9.583   8.106 -0.3166 -0.7762  0.0130
   31MOL0     H 4084   6.063   9.589   7.845 -1.6753  0.6005  0.2059
   31MOL0     H 4085   5.997   9.731   7.923 -2.7667 -0.5278  1.2530
   31MOL0     H 4086   6.153   9.545   8.108  2.0406  1.0556  1.2991
   31MOL0     H 4087   6.133   9.714   8.121 -0.3758  0.8547 -0.1393
   31MOL0     H 4088   6.387   9.658   8.032  1.1530  2.0440 -1.9998
   31MOL0     H 4089   6.292   9.567   7.901 -4.3098 -0.6237  1.2496
   31MOL0     H 4090   6.332   9.980   7.792 -5.3199  1.6789 -0.3823
   31MOL0     H 4091   5.902   9.432   7.752  0.4062  0.4767 -0.4321
   31MOL0     H 4092   5.750   9.281   7.607 -2.3508 -1.4649 -0.3814
   32MOL0     O 4093   3.847   8.500   8.422 -1.1165 -0.0372 -0.0401
   32MOL0     C 4094   3.924   8.474   8.512  0.8563 -1.2898 -0.7327
   32MOL0     O 4095   3.879   8.444   8.639  0.5779 -0.1893 -0.5629
   32MOL0     C 4096   3.744   8.421   8.660  0.3839 -0.4306  0.1041
   32MOL0     C 4097   3.673   8.318   8.596 -0.1853  0.0671  0.0964
   32MOL0     C 4098   3.539   8.304   8.627  0.6306  0.6395  0.2363
   32MOL0     C 4099   3.466   8.389   8.717 -0.4336 -0.1679  0.0737
   32MOL0     O 4100   3.335   8.370   8.731  0.2747  0.6125  0.4406
   32MOL0     C 4101   3.265   8.446   8.832 -0.1139 -0.7600  0.2828
   32MOL0     C 4102   3.119   8.415   8.793  0.2471 -0.2801  0.9156
   32MOL0     C 4103   3.033   8.420   8.912  0.1562  0.0584 -0.0867
   32MOL0     C 4104   2.901   8.383   8.857 -0.0994 -0.6411 -0.1971
   32MOL0     C 4105   2.808   8.413   8.978  0.6260  0.8464 -0.0992
   32MOL0     C 4106   2.777   8.563   9.003 -0.3468  0.2327  0.1679
   32MOL0     C 4107   2.651   8.574   9.092  0.3379  1.3464  0.8126
   32MOL0     C 4108   2.575   8.705   9.082  0.6805 -0.6327  0.0981
   32MOL0     N 4109   2.455   8.705   9.171 -0.8042 -0.5153 -0.3840
   32MOL0     C 4110   2.353   8.613   9.174  0.5761  0.2695  0.7793
   32MOL0     C 4111   2.263   8.662   9.261 -0.3507  0.7485 -0.4183
   32MOL0     C 4112   2.142   8.569   9.296  0.4311 -0.1702  0.6007
   32MOL0     C 4113   2.019   8.654   9.337  0.2549  0.2985  0.3638
   32MOL0     C 4114   1.961   8.734   9.220  0.1508 -0.3421  0.2926
   32MOL0     C 4115   1.827   8.796   9.268 -0.5218  0.2275  0.2044
   32MOL0     O 4116   1.723   8.707   9.239  0.8130 -0.0860  0.6445
   32MOL0     C 4117   1.595   8.744   9.273  0.4181 -0.3165 -0.1991
   32MOL0     C 4118   1.547   8.876   9.269  0.1871  0.3513  0.7865
   32MOL0     C 4119   1.412   8.907   9.289  0.1585 -1.0795  0.7501
   32MOL0     C 4120   1.320   8.808   9.331  0.0331  0.2515  0.3541
   32MOL0     C 4121   1.175   8.830   9.352  0.2472 -0.1221  0.0897
   32MOL0     O 4122   1.085   8.733   9.356  0.5012  0.2289 -0.4746
   32MOL0     C 4123   0.956   8.758   9.392  0.2018  0.4657 -0.6457
   32MOL0     C 4124   0.863   8.695   9.314 -0.5835 -0.0995  0.1756
   32MOL0     C 4125   0.726   8.718   9.336 -0.4656 -0.1397 -0.1863
   32MOL0     C 4126   0.684   8.799   9.450 -0.3273 -0.0189  0.2202
   32MOL0     O 4127   0.553   8.795   9.472 -0.5024  0.5373 -0.2393
   32MOL0     C 4128   0.500   8.892   9.564 -0.3906 -0.2460 -0.3578
   32MOL0     C 4129   0.351   8.890   9.530  0.7935 -0.1493  0.0679
   32MOL0     C 4130   0.263   8.981   9.625  0.3069 -0.3556 -0.2815
   32MOL0     C 4131   0.113   8.980   9.596  1.1209 -1.2501 -0.7795
   32MOL0     C 4132   0.048   9.050   9.704 -0.1789 -0.7812  0.0103
   32MOL0     C 4133  -0.110   9.037   9.691 -1.1081  0.1141  0.2148
   32MOL0     C 4134  -0.177   9.074   9.833  0.3101 -0.4825 -0.6051
   32MOL0     C 4135  -0.322   9.108   9.819  0.0377 -0.3014  0.3652
   32MOL0    Cl 4136  -0.388   9.192   9.962 -0.1053  0.1221  0.2623
   32MOL0     C 4137   0.783   8.855   9.532 -0.0452  0.3286  0.2398
   32MOL0     C 4138   0.917   8.835   9.502 -0.5191 -0.5956 -0.7499
   32MOL0     O 4139   1.142   8.950   9.346  0.5300  0.0470  0.0022
   32MOL0     C 4140   1.376   8.680   9.332  1.1289  0.6104 -0.6857
   32MOL0     C 4141   1.505   8.641   9.310  0.1709  0.7670  0.2389
   32MOL0     N 4142   2.311   8.785   9.310 -0.3053  0.0021 -0.4641
   32MOL0     N 4143   2.426   8.806   9.262 -0.0635  0.6444 -0.4428
   32MOL0     C 4144   3.539   8.485   8.782 -0.4488  0.0153  0.0197
   32MOL0     C 4145   3.674   8.504   8.752 -0.2095  0.0053  0.2472
   32MOL0     C 4146   4.074   8.456   8.480 -0.4806  0.0002 -0.6674
   32MOL0     C 4147   4.164   8.449   8.585 -0.4687  0.3361 -0.0286
   32MOL0     C 4148   4.305   8.439   8.564 -0.3189  0.5051  0.1896
   32MOL0     C 4149   4.350   8.437   8.433 -0.6718 -0.1609  0.4545
   32MOL0     O 4150   4.478   8.428   8.386 -0.5161  0.3047 -0.0763
   32MOL0     C 4151   4.580   8.385   8.480  0.3530 -0.1584  0.0870
   32MOL0     C 4152   4.563   8.237   8.515  0.5078 -0.0345  0.0182
   32MOL0     C 4153   4.616   8.130   8.413 -0.0957 -0.0879  0.7780
   32MOL0     C 4154   4.583   8.174   8.274  0.4091 -0.1439 -0.0077
   32MOL0     C 4155   4.613   8.079   8.176 -0.2712  0.0744  0.1531
   32MOL0     C 4156   4.635   8.005   8.080  0.3882  0.3335  0.5253
   32MOL0     C 4157   4.259   8.444   8.329  0.2597 -0.2223 -0.4176
   32MOL0     C 4158   4.121   8.452   8.353 -0.2255  0.2635 -0.2810
   32MOL0     H 4159   3.728   8.242   8.542 -1.7273 -1.0274 -0.0196
   32MOL0     H 4160   3.486   8.214   8.599  1.9370  0.1439 -0.7098
   32MOL0     H 4161   3.278   8.555   8.826 -1.8651 -0.4620  1.3188
   32MOL0     H 4162   3.283   8.409   8.934 -2.4636 -0.5291  0.8463
   32MOL0     H 4163   3.108   8.324   8.734 -1.3570 -1.1903  2.5191
   32MOL0     H 4164   3.076   8.492   8.727 -1.6342 -2.6372 -0.7878
   32MOL0     H 4165   3.033   8.520   8.956 -1.4562 -1.0018  2.5928
   32MOL0     H 4166   3.056   8.340   8.983 -0.9888 -2.1526 -2.0465
   32MOL0     H 4167   2.866   8.433   8.767  0.4994 -1.4948 -0.9251
   32MOL0     H 4168   2.899   8.277   8.830  2.4500 -0.7524 -0.1102
   32MOL0     H 4169   2.842   8.378   9.076 -0.9267  3.8313  1.6692
   32MOL0     H 4170   2.721   8.355   8.946  1.2988  0.8429 -2.0039
   32MOL0     H 4171   2.751   8.619   8.912  0.2973 -0.9988 -0.8147
   32MOL0     H 4172   2.859   8.619   9.048  1.5996 -1.9309 -0.4719
   32MOL0     H 4173   2.584   8.488   9.079  2.6111 -0.4932  0.5544
   32MOL0     H 4174   2.686   8.568   9.196  3.2733 -1.4446 -0.1726
   32MOL0     H 4175   2.542   8.715   8.978  0.1757 -0.5458  0.2676
   32MOL0     H 4176   2.644   8.785   9.112  1.5244 -2.2683  2.8344
   32MOL0     H 4177   2.345   8.514   9.131 -0.0962 -1.2635  4.0987
   32MOL0     H 4178   2.163   8.500   9.378  0.2624  2.3565  2.9180
   32MOL0     H 4179   2.116   8.516   9.204 -2.5087  0.7355  0.8206
   32MOL0     H 4180   2.053   8.720   9.417  1.6896  1.9221 -1.4932
   32MOL0     H 4181   1.945   8.580   9.373  3.9397 -4.5192 -0.8699
   32MOL0     H 4182   2.033   8.814   9.199  0.4619 -1.0353 -1.4421
   32MOL0     H 4183   1.954   8.669   9.132  1.4687 -1.5824  1.0613
   32MOL0     H 4184   1.807   8.880   9.200 -0.2550 -0.5911 -0.9129
   32MOL0     H 4185   1.821   8.822   9.374 -1.6267  1.0961 -0.0583
   32MOL0     H 4186   1.608   8.957   9.231 -0.7378 -0.3052 -2.4370
   32MOL0     H 4187   1.380   9.011   9.281  1.3741 -0.8275 -3.1173
   32MOL0     H 4188   0.904   8.636   9.233 -3.1086  1.5387 -2.4798
   32MOL0     H 4189   0.654   8.671   9.271 -0.1967 -2.5000  1.0933
   32MOL0     H 4190   0.540   8.993   9.551 -1.4359  0.2052 -0.1236
   32MOL0     H 4191   0.515   8.854   9.665  0.8106  1.2546  0.0612
   32MOL0     H 4192   0.312   8.788   9.530 -1.5752  0.5605  3.3779
   32MOL0     H 4193   0.334   8.921   9.426  1.2970  4.0098  1.0394
   32MOL0     H 4194   0.291   9.086   9.607 -2.3172  0.3903 -0.4063
   32MOL0     H 4195   0.291   8.955   9.728  1.6965  0.3061 -0.4602
   32MOL0     H 4196   0.088   9.032   9.503  0.9434  0.0542 -0.0314
   32MOL0     H 4197   0.074   8.881   9.574 -1.5333  0.3873 -4.5903
   32MOL0     H 4198   0.068   9.157   9.701 -0.5867 -0.7023  0.0255
   32MOL0     H 4199   0.080   9.008   9.800  2.8324 -0.0768 -0.5652
   32MOL0     H 4200  -0.138   8.931   9.687  1.7540 -0.7236  0.0020
   32MOL0     H 4201  -0.150   9.094   9.607  2.0417  1.5990 -0.4490
   32MOL0     H 4202  -0.168   8.993   9.906  1.5923  1.5293  1.6254
   32MOL0     H 4203  -0.131   9.164   9.874 -1.1078  1.4567 -3.0242
   32MOL0     H 4204  -0.376   9.014   9.808 -0.1504 -0.1024 -0.4576
   32MOL0     H 4205  -0.336   9.171   9.731 -2.0005 -1.0463  0.0958
   32MOL0     H 4206   0.747   8.928   9.604 -0.8846 -2.0226  2.3556
   32MOL0     H 4207   0.989   8.894   9.557 -0.2124  0.0628 -1.8293
   32MOL0     H 4208   1.308   8.598   9.351 -0.4299  2.2102  1.2100
   32MOL0     H 4209   1.538   8.538   9.321  2.1516  1.2999 -0.2419
   32MOL0     H 4210   3.498   8.553   8.856 -0.5595 -1.0343  0.9505
   32MOL0     H 4211   3.732   8.582   8.801 -0.1152 -0.3799  0.7636
   32MOL0     H 4212   4.130   8.436   8.688  3.0570  2.0031  1.5029
   32MOL0     H 4213   4.365   8.400   8.645  2.2583  2.6525 -0.5403
   32MOL0     H 4214   4.569   8.441   8.573 -1.0899 -1.7517  0.9418
   32MOL0     H 4215   4.675   8.397   8.428 -0.3517 -0.6125 -1.3890
   32MOL0     H 4216   4.635   8.214   8.595  1.1025 -1.1384 -0.7999
   32MOL0     H 4217   4.472   8.204   8.566  0.1952 -3.7822 -2.5476
   32MOL0     H 4218   4.571   8.031   8.427 -2.3473  0.7202 -0.2746
   32MOL0     H 4219   4.725   8.121   8.426  0.5032  2.4945 -1.5611
   32MOL0     H 4220   4.477   8.202   8.272  1.2380  3.4274 -1.9143
   32MOL0     H 4221   4.641   8.264   8.252  2.0213 -1.4016 -1.0606
   32MOL0     H 4222   4.659   7.939   7.999  0.6288  0.0751  0.8045
   32MOL0     H 4223   4.298   8.439   8.228  0.1631 -0.3303 -0.4489
   32MOL0     H 4224   4.051   8.469   8.272 -0.6928 -0.6708 -0.0904
   33MOL0     O 4225   9.106   2.600   4.403 -0.6084 -0.0990 -0.4633
   33MOL0     C 4226   9.098   2.603   4.278  0.2887 -1.1062  0.1710
   33MOL0     O 4227   8.994   2.654   4.214  0.2460 -0.1265 -0.6062
   33MOL0     C 4228   8.888   2.700   4.289 -0.0364  0.6384 -0.6805
   33MOL0     C 4229   8.833   2.635   4.393 -0.1900 -0.5000 -0.2838
   33MOL0     C 4230   8.722   2.681   4.465 -0.4552 -0.4985 -0.9551
   33MOL0     C 4231   8.675   2.811   4.446 -0.1296  0.7936  0.2721
   33MOL0     O 4232   8.568   2.857   4.528  0.5215  0.0367  0.4215
   33MOL0     C 4233   8.481   2.955   4.474  0.9456 -0.4947 -0.4716
   33MOL0     C 4234   8.365   2.974   4.569 -0.2408  0.3845 -0.0882
   33MOL0     C 4235   8.273   3.085   4.509 -0.0513  0.3242  0.7954
   33MOL0     C 4236   8.166   3.126   4.608 -0.3329  0.4857  1.1830
   33MOL0     C 4237   8.034   3.158   4.532  0.1434  0.1645 -1.2531
   33MOL0     C 4238   7.907   3.165   4.631 -1.1723 -0.1976 -0.6599
   33MOL0     C 4239   7.778   3.154   4.550  0.6238  0.9373 -0.3947
   33MOL0     C 4240   7.639   3.168   4.631  0.1703 -0.8578  0.3263
   33MOL0     N 4241   7.637   3.295   4.706  0.4046  0.3235  0.0436
   33MOL0     C 4242   7.583   3.411   4.662 -0.2333  0.2030  0.7076
   33MOL0     C 4243   7.577   3.493   4.769 -0.1820  0.1364  0.0066
   33MOL0     C 4244   7.516   3.631   4.776  0.0096  0.2133  0.0947
   33MOL0     C 4245   7.369   3.610   4.822 -0.7467  0.0472  0.5801
   33MOL0     C 4246   7.293   3.734   4.866 -0.0192  0.5173 -0.9440
   33MOL0     C 4247   7.217   3.819   4.765  0.1794 -0.2035  0.5173
   33MOL0     O 4248   7.115   3.906   4.819  0.0942  0.2316 -0.2524
   33MOL0     C 4249   7.016   3.845   4.896 -0.1456 -0.1176  0.4919
   33MOL0     C 4250   6.934   3.744   4.842 -0.7283  0.5466  0.0762
   33MOL0     C 4251   6.826   3.681   4.908 -0.2592 -0.4548 -0.3707
   33MOL0     C 4252   6.798   3.715   5.042  0.1361  0.0228  1.2672
   33MOL0     C 4253   6.693   3.650   5.115 -0.0429  0.5759  0.4295
   33MOL0     O 4254   6.610   3.572   5.046 -0.1347  0.0464  0.0274
   33MOL0     C 4255   6.491   3.540   5.090  0.4536 -1.0827  0.1187
   33MOL0     C 4256   6.419   3.604   5.192 -0.1075 -0.3934 -0.4911
   33MOL0     C 4257   6.289   3.573   5.211  0.4296  0.3511 -0.1117
   33MOL0     C 4258   6.225   3.469   5.142 -0.6191 -0.2031 -0.3287
   33MOL0     O 4259   6.099   3.427   5.151  0.6576  0.0609  0.8852
   33MOL0     C 4260   6.012   3.493   5.246 -0.7539 -0.5673  0.0719
   33MOL0     C 4261   5.886   3.406   5.267  0.5273 -1.5975 -0.4101
   33MOL0     C 4262   5.798   3.483   5.358  0.2604  0.2456 -0.7407
   33MOL0     C 4263   5.654   3.420   5.381 -0.6918  0.4010 -0.3648
   33MOL0     C 4264   5.563   3.388   5.263  0.9383 -0.0111  0.7977
   33MOL0     C 4265   5.450   3.295   5.324  1.0409 -1.1286  0.7296
   33MOL0     C 4266   5.337   3.259   5.227  0.4247 -0.3129 -0.1704
   33MOL0     C 4267   5.286   3.118   5.233  0.5466 -0.7817 -0.7455
   33MOL0    Cl 4268   5.402   2.987   5.246 -0.2941  0.1518 -0.1755
   33MOL0     C 4269   6.305   3.401   5.048  0.0365  0.8494 -1.2735
   33MOL0     C 4270   6.433   3.440   5.012 -0.6204  0.1014 -0.5271
   33MOL0     O 4271   6.701   3.664   5.233  0.4067  0.4654  0.2780
   33MOL0     C 4272   6.887   3.811   5.095 -0.0201 -0.5709  0.7203
   33MOL0     C 4273   6.986   3.880   5.023 -0.3908  0.6043 -0.3702
   33MOL0     N 4274   7.620   3.425   4.880 -0.4056  0.4364 -0.1186
   33MOL0     N 4275   7.656   3.303   4.839 -0.0810 -0.1525 -0.0723
   33MOL0     C 4276   8.733   2.882   4.344 -0.4725 -0.4055  0.9186
   33MOL0     C 4277   8.838   2.827   4.272 -0.3089  0.3136  0.2057
   33MOL0     C 4278   9.218   2.559   4.197 -0.0257 -0.2090  0.3877
   33MOL0     C 4279   9.317   2.480   4.247  0.4803 -0.1965  0.6554
   33MOL0     C 4280   9.420   2.430   4.170 -0.0878  0.6167 -0.3525
   33MOL0     C 4281   9.429   2.464   4.036 -0.0031  0.6112  0.9049
   33MOL0     O 4282   9.536   2.423   3.963  0.0775  0.3598 -0.0975
   33MOL0     C 4283   9.663   2.479   4.005  0.2226  0.1019  0.7746
   33MOL0     C 4284   9.700   2.615   3.936  0.5854 -0.0073  0.0652
   33MOL0     C 4285   9.832   2.680   3.982 -0.6808  0.5005  0.6651
   33MOL0     C 4286   9.936   2.655   3.865  0.6013 -0.0741  1.2711
   33MOL0     C 4287   9.983   2.518   3.860  1.2795  0.0543  0.0310
   33MOL0     C 4288  10.028   2.408   3.858 -0.1460  0.1052  0.3251
   33MOL0     C 4289   9.340   2.553   3.981  0.3633  0.0430  0.2109
   33MOL0     C 4290   9.226   2.599   4.062 -0.4363  0.4364  0.0104
   33MOL0     H 4291   8.877   2.547   4.438  2.7921 -0.5509 -2.9465
   33MOL0     H 4292   8.675   2.616   4.539 -1.3205  2.3273  1.1706
   33MOL0     H 4293   8.448   2.927   4.374  3.0745 -2.6196 -0.6824
   33MOL0     H 4294   8.532   3.052   4.476  0.0683 -0.0283  1.1401
   33MOL0     H 4295   8.389   2.992   4.674  0.6835  0.2143 -0.2610
   33MOL0     H 4296   8.311   2.878   4.569 -1.1874  0.8996  0.5624
   33MOL0     H 4297   8.233   3.053   4.412  2.9801 -3.4635  0.5600
   33MOL0     H 4298   8.336   3.172   4.486  0.9075 -0.7625 -0.8685
   33MOL0     H 4299   8.141   3.037   4.666 -1.8878 -0.1211 -0.3465
   33MOL0     H 4300   8.201   3.208   4.672  3.4810  0.3892 -0.4921
   33MOL0     H 4301   8.017   3.073   4.466  0.8767 -2.3057  1.5397
   33MOL0     H 4302   8.051   3.258   4.489 -0.0745 -0.1641 -2.1212
   33MOL0     H 4303   7.915   3.267   4.669 -0.2063  1.9756 -5.7627
   33MOL0     H 4304   7.910   3.096   4.716 -1.2155 -0.2802 -0.7249
   33MOL0     H 4305   7.778   3.226   4.467 -3.3232 -0.9278 -2.2728
   33MOL0     H 4306   7.767   3.064   4.489 -2.5195 -1.0965  2.8541
   33MOL0     H 4307   7.634   3.086   4.704 -1.0566  0.5006  1.8591
   33MOL0     H 4308   7.555   3.169   4.561  1.0950 -0.8817 -0.7996
   33MOL0     H 4309   7.536   3.425   4.565 -0.4348 -2.7638  0.2663
   33MOL0     H 4310   7.515   3.675   4.675  0.6629  2.8108  1.1469
   33MOL0     H 4311   7.571   3.703   4.837  2.7540 -1.1885 -0.5599
   33MOL0     H 4312   7.366   3.545   4.910 -1.5146 -0.2032  0.3763
   33MOL0     H 4313   7.307   3.573   4.740 -0.5242  5.1031 -2.2866
   33MOL0     H 4314   7.234   3.693   4.949  0.8083  1.1658 -0.0210
   33MOL0     H 4315   7.360   3.799   4.922  0.6348  0.9997 -2.2639
   33MOL0     H 4316   7.178   3.754   4.686  1.4591  2.3257 -2.4330
   33MOL0     H 4317   7.297   3.879   4.719  0.0637 -2.3508 -2.8371
   33MOL0     H 4318   6.951   3.717   4.739  1.3174  0.9671  0.2752
   33MOL0     H 4319   6.766   3.599   4.870  2.0088 -2.4858  0.1255
   33MOL0     H 4320   6.454   3.691   5.246  0.2420 -1.1103  0.4585
   33MOL0     H 4321   6.227   3.628   5.281 -0.2882  0.7872 -1.0670
   33MOL0     H 4322   5.996   3.599   5.221 -2.6580 -0.6968  0.5759
   33MOL0     H 4323   6.065   3.502   5.341 -0.0500  1.4326 -0.4452
   33MOL0     H 4324   5.917   3.309   5.307  0.1458 -0.3244  3.3666
   33MOL0     H 4325   5.842   3.396   5.167 -1.6031 -1.3331  0.4515
   33MOL0     H 4326   5.789   3.587   5.325  1.8798 -0.4026 -3.6706
   33MOL0     H 4327   5.840   3.475   5.458 -0.6151 -1.9978 -0.4878
   33MOL0     H 4328   5.682   3.339   5.449  5.7656  3.7156  1.7415
   33MOL0     H 4329   5.604   3.487   5.451  0.3793 -0.6964  1.5269
   33MOL0     H 4330   5.617   3.339   5.181 -0.0155  3.4433 -2.1681
   33MOL0     H 4331   5.522   3.480   5.220 -1.8545  0.2262  3.5798
   33MOL0     H 4332   5.402   3.346   5.409 -1.4003  0.3141 -1.3721
   33MOL0     H 4333   5.506   3.213   5.368  1.7156  0.0431  2.1525
   33MOL0     H 4334   5.256   3.332   5.235  0.9590  0.4338 -1.1765
   33MOL0     H 4335   5.371   3.280   5.125  0.1011 -1.7392 -0.5925
   33MOL0     H 4336   5.218   3.103   5.149 -1.1717  1.6381  0.1274
   33MOL0     H 4337   5.226   3.105   5.323  0.8143  0.5242 -0.3594
   33MOL0     H 4338   6.269   3.312   4.996  1.3398 -1.7556  1.9350
   33MOL0     H 4339   6.483   3.382   4.935  0.4784 -1.1582  1.0599
   33MOL0     H 4340   6.858   3.841   5.195  1.4008 -1.0321  1.3048
   33MOL0     H 4341   7.047   3.962   5.058  0.9936  0.5070 -2.3641
   33MOL0     H 4342   8.695   2.975   4.303  0.5738 -0.3631 -0.0029
   33MOL0     H 4343   8.862   2.889   4.186 -2.5577  0.3890 -0.4334
   33MOL0     H 4344   9.310   2.457   4.353 -2.7062  0.9689  0.7977
   33MOL0     H 4345   9.491   2.359   4.212  0.6395  2.5718  1.9617
   33MOL0     H 4346   9.749   2.412   3.996 -0.7575 -1.1445  0.3842
   33MOL0     H 4347   9.661   2.497   4.113  2.0676  0.5471  0.7674
   33MOL0     H 4348   9.693   2.601   3.828 -1.5352 -3.5165  0.4864
   33MOL0     H 4349   9.615   2.678   3.962 -1.1864 -2.0646 -0.3849
   33MOL0     H 4350   9.871   2.639   4.076  0.0922 -0.7458 -0.1537
   33MOL0     H 4351   9.819   2.787   4.000 -1.0987  1.0939 -2.5309
   33MOL0     H 4352   9.893   2.666   3.765  1.2081  0.4318  1.0611
   33MOL0     H 4353  10.027   2.714   3.876  2.1753 -1.4848 -2.5726
   33MOL0     H 4354  10.067   2.308   3.851  0.1553  0.2945 -1.0171
   33MOL0     H 4355   9.349   2.574   3.874 -0.8237  1.0549  0.2801
   33MOL0     H 4356   9.151   2.662   4.015 -0.5315  0.6970  0.5150
   34MOL0     O 4357   1.361   2.509   0.652 -0.9382 -0.0679  0.7818
   34MOL0     C 4358   1.381   2.419   0.571  0.6673 -0.0231  0.0202
   34MOL0     O 4359   1.285   2.330   0.530 -0.0794 -0.1118  0.2259
   34MOL0     C 4360   1.153   2.351   0.565  0.0301 -0.1460 -0.0015
   34MOL0     C 4361   1.062   2.435   0.505  0.3673 -1.0497 -0.0159
   34MOL0     C 4362   0.922   2.433   0.528 -1.2075 -0.5481  0.3150
   34MOL0     C 4363   0.877   2.342   0.631 -0.5229  0.9660  1.4108
   34MOL0     O 4364   0.743   2.335   0.660  0.5053 -0.0570 -0.2974
   34MOL0     C 4365   0.671   2.262   0.563 -0.3839 -0.3063 -0.1636
   34MOL0     C 4366   0.639   2.131   0.623  0.1201  0.4714  0.0679
   34MOL0     C 4367   0.530   2.056   0.547 -0.0244  0.1317  0.4643
   34MOL0     C 4368   0.568   1.990   0.408  0.0827 -0.3188 -0.5156
   34MOL0     C 4369   0.512   2.077   0.289  0.8266 -0.2146 -0.1496
   34MOL0     C 4370   0.359   2.066   0.282  0.1744 -0.0087  0.0229
   34MOL0     C 4371   0.301   2.126   0.151  0.1052 -0.0734  0.2658
   34MOL0     C 4372   0.153   2.107   0.127 -0.3083 -0.1842 -0.0813
   34MOL0     N 4373   0.111   2.146  -0.005  0.2231 -0.2619  0.0272
   34MOL0     C 4374   0.065   2.274  -0.040 -0.4805  0.3390 -0.4003
   34MOL0     C 4375   0.002   2.248  -0.151  0.7723 -0.4648  0.2646
   34MOL0     C 4376  -0.087   2.347  -0.236 -0.6137  0.5785 -0.5707
   34MOL0     C 4377  -0.218   2.371  -0.166  0.5322  0.1121 -0.0143
   34MOL0     C 4378  -0.314   2.464  -0.246  0.5544 -0.1668 -0.8222
   34MOL0     C 4379  -0.461   2.437  -0.208  0.1810  0.1190  0.4620
   34MOL0     O 4380  -0.490   2.470  -0.073  0.9126  0.3107 -0.1314
   34MOL0     C 4381  -0.615   2.504  -0.045  0.1527 -0.3040  0.1586
   34MOL0     C 4382  -0.728   2.439  -0.097  0.0459  0.4974  0.4563
   34MOL0     C 4383  -0.855   2.480  -0.059  0.0009  0.2818 -0.1253
   34MOL0     C 4384  -0.879   2.594   0.023  1.0443  0.6635 -0.4963
   34MOL0     C 4385  -1.021   2.640   0.063  0.4176  0.0664  0.0657
   34MOL0     O 4386  -1.122   2.544   0.084  0.7009  0.1897  0.4074
   34MOL0     C 4387  -1.258   2.569   0.091 -0.2523  0.1867 -0.4297
   34MOL0     C 4388  -1.317   2.685   0.144  0.4468 -0.3421  0.5819
   34MOL0     C 4389  -1.458   2.699   0.147 -0.3805 -0.4649 -0.3908
   34MOL0     C 4390  -1.535   2.599   0.085 -0.7789 -0.1560  0.8844
   34MOL0     O 4391  -1.667   2.609   0.068  0.0408 -0.0526  0.6338
   34MOL0     C 4392  -1.733   2.737   0.075  0.1268  0.0286  0.3021
   34MOL0     C 4393  -1.871   2.747   0.016  0.8373  0.3054  0.3417
   34MOL0     C 4394  -1.925   2.889   0.037  0.1955 -0.0860  0.0045
   34MOL0     C 4395  -2.069   2.910  -0.017  0.3069 -0.6667 -0.1921
   34MOL0     C 4396  -2.184   2.901   0.088  0.4130  0.3027 -0.7089
   34MOL0     C 4397  -2.313   2.900   0.016 -0.3687  0.1337  0.4906
   34MOL0     C 4398  -2.430   2.912   0.113  0.4549  0.0598 -0.2789
   34MOL0     C 4399  -2.430   2.810   0.233 -0.3125  0.2832 -0.8060
   34MOL0    Cl 4400  -2.599   2.797   0.301  0.3193  0.1647  0.0617
   34MOL0     C 4401  -1.470   2.484   0.029  1.3352  0.0244  0.4249
   34MOL0     C 4402  -1.340   2.465   0.043  0.2707  1.1366  1.0258
   34MOL0     O 4403  -1.037   2.765   0.067 -0.2851 -0.1304  0.0960
   34MOL0     C 4404  -0.768   2.659   0.066 -0.5630 -0.1713 -0.6401
   34MOL0     C 4405  -0.646   2.611   0.039 -0.0301  0.0126 -0.5834
   34MOL0     N 4406  -0.004   2.113  -0.187  1.0918 -0.5892 -0.2747
   34MOL0     N 4407   0.060   2.053  -0.090  0.0591  0.1406  0.3519
   34MOL0     C 4408   0.961   2.254   0.698 -0.4333  0.3420  1.0323
   34MOL0     C 4409   1.094   2.259   0.652 -0.1391  0.2674 -0.6523
   34MOL0     C 4410   1.511   2.413   0.496 -1.2336  0.0993 -0.5887
   34MOL0     C 4411   1.611   2.511   0.521  0.2259 -0.0123 -0.9749
   34MOL0     C 4412   1.730   2.530   0.450  0.0005  0.2966  0.6006
   34MOL0     C 4413   1.762   2.429   0.358  0.3805 -0.6638  0.1752
   34MOL0     O 4414   1.877   2.438   0.289 -0.4137 -0.8161 -0.0236
   34MOL0     C 4415   1.946   2.568   0.281 -0.0641 -0.5208 -0.1413
   34MOL0     C 4416   2.080   2.538   0.208 -0.2653 -0.3895 -0.5912
   34MOL0     C 4417   2.200   2.594   0.296 -0.7591  0.0129 -0.3434
   34MOL0     C 4418   2.333   2.541   0.251  0.6362 -0.2370 -0.3700
   34MOL0     C 4419   2.441   2.607   0.326  0.4192  1.3650  0.3100
   34MOL0     C 4420   2.520   2.671   0.391 -0.1910  0.2694  0.0989
   34MOL0     C 4421   1.672   2.331   0.332  0.3583 -0.3921  0.1022
   34MOL0     C 4422   1.547   2.319   0.398  1.1274  0.5674 -0.2418
   34MOL0     H 4423   1.101   2.510   0.437 -4.2755  1.6248 -0.1648
   34MOL0     H 4424   0.857   2.504   0.479 -0.8521  0.7802  1.6792
   34MOL0     H 4425   0.711   2.243   0.463 -2.1607 -3.3815 -0.4156
   34MOL0     H 4426   0.573   2.306   0.544 -0.0403 -0.6247 -3.2335
   34MOL0     H 4427   0.588   2.155   0.717  0.0848 -2.0905  0.7629
   34MOL0     H 4428   0.729   2.070   0.627  0.0423  0.4093  1.0234
   34MOL0     H 4429   0.452   2.130   0.527  1.8845  1.3202 -3.5938
   34MOL0     H 4430   0.501   1.968   0.605 -1.0722 -1.0211 -1.6815
   34MOL0     H 4431   0.677   1.986   0.393  0.5699  2.4379  1.4572
   34MOL0     H 4432   0.534   1.886   0.408  3.7513 -1.6893  1.3386
   34MOL0     H 4433   0.566   2.049   0.198  0.3705  0.0200 -0.4947
   34MOL0     H 4434   0.541   2.180   0.313  0.0689  0.4685 -2.0001
   34MOL0     H 4435   0.308   2.111   0.368 -1.1190  0.9684 -1.2126
   34MOL0     H 4436   0.335   1.959   0.285  3.7128 -0.9556 -0.5053
   34MOL0     H 4437   0.327   2.231   0.132  0.3525 -0.4636 -1.8400
   34MOL0     H 4438   0.349   2.071   0.069 -3.7951 -0.9327 -1.6749
   34MOL0     H 4439   0.100   2.175   0.194  0.0188  2.8195 -2.6333
   34MOL0     H 4440   0.134   2.002   0.152 -2.2545 -0.0213 -0.6778
   34MOL0     H 4441   0.054   2.363   0.021 -3.7696  0.0467 -0.3957
   34MOL0     H 4442  -0.097   2.309  -0.338  0.5392  1.5085 -1.0616
   34MOL0     H 4443  -0.034   2.443  -0.239 -1.2160  0.9786  0.7648
   34MOL0     H 4444  -0.207   2.401  -0.061  1.4224 -0.0571 -0.0498
   34MOL0     H 4445  -0.254   2.268  -0.170 -0.3729  0.3865  0.7268
   34MOL0     H 4446  -0.287   2.562  -0.204 -0.0928 -0.7223  0.9954
   34MOL0     H 4447  -0.303   2.472  -0.354  0.7592  1.0814 -0.7255
   34MOL0     H 4448  -0.481   2.329  -0.211  1.0560 -0.0500  0.4254
   34MOL0     H 4449  -0.524   2.494  -0.278 -3.6229 -3.1296  0.8377
   34MOL0     H 4450  -0.724   2.364  -0.175 -2.1906  0.1194  0.6597
   34MOL0     H 4451  -0.942   2.430  -0.102  0.5731 -0.5301 -0.3669
   34MOL0     H 4452  -1.256   2.759   0.195  0.5381 -0.4515  0.6332
   34MOL0     H 4453  -1.491   2.789   0.197  0.7067  0.5150 -1.3615
   34MOL0     H 4454  -1.679   2.804   0.007 -2.0727 -1.5711 -3.3426
   34MOL0     H 4455  -1.741   2.781   0.175 -1.4377  1.0255 -0.2195
   34MOL0     H 4456  -1.945   2.679   0.060 -0.2319  1.8189  0.9711
   34MOL0     H 4457  -1.864   2.729  -0.092 -1.3497 -2.9100  0.5829
   34MOL0     H 4458  -1.855   2.960  -0.008 -1.8823  1.1328 -1.4564
   34MOL0     H 4459  -1.925   2.898   0.146 -0.4725 -1.2888  0.1224
   34MOL0     H 4460  -2.088   3.007  -0.064 -1.7840 -0.7708  0.3434
   34MOL0     H 4461  -2.088   2.838  -0.096 -3.9772  0.8233 -0.7775
   34MOL0     H 4462  -2.183   2.982   0.161 -0.7693 -1.6195  1.5905
   34MOL0     H 4463  -2.180   2.805   0.141 -1.6418  0.4859 -0.1126
   34MOL0     H 4464  -2.315   2.817  -0.056  0.1035  0.5891 -0.0590
   34MOL0     H 4465  -2.321   2.998  -0.031 -1.2298  1.4672  3.2033
   34MOL0     H 4466  -2.427   3.008   0.165 -0.2860 -1.2133  2.2550
   34MOL0     H 4467  -2.522   2.909   0.054  1.0138  1.2101 -1.2708
   34MOL0     H 4468  -2.367   2.841   0.316 -0.8533 -0.4762 -0.0952
   34MOL0     H 4469  -2.397   2.708   0.213 -1.6185 -0.4371  0.5135
   34MOL0     H 4470  -1.537   2.416  -0.021  1.9763  0.2619 -0.7931
   34MOL0     H 4471  -1.291   2.380  -0.004 -1.2397  1.2763 -0.9238
   34MOL0     H 4472  -0.771   2.741   0.137  0.5408 -0.5179 -0.1723
   34MOL0     H 4473  -0.555   2.642   0.089  0.0656  1.2548 -1.5033
   34MOL0     H 4474   0.921   2.180   0.766  0.5913  1.1609  2.6036
   34MOL0     H 4475   1.146   2.172   0.692 -5.8984 -3.3754  0.0708
   34MOL0     H 4476   1.584   2.593   0.587  0.1156  0.6387 -1.8132
   34MOL0     H 4477   1.785   2.623   0.457 -0.7361  0.9024 -1.1041
   34MOL0     H 4478   1.962   2.599   0.384 -1.4371 -1.7536  0.4812
   34MOL0     H 4479   1.892   2.645   0.224  1.5531  1.5522  0.9986
   34MOL0     H 4480   2.100   2.431   0.210  2.3927  0.0060  2.6697
   34MOL0     H 4481   2.086   2.576   0.106 -2.6847  0.6033 -0.4462
   34MOL0     H 4482   2.188   2.567   0.401  1.4131  1.7755  0.4441
   34MOL0     H 4483   2.192   2.703   0.288 -2.3080  0.1703  2.1879
   34MOL0     H 4484   2.327   2.432   0.258  0.9511 -0.3516 -1.6482
   34MOL0     H 4485   2.347   2.557   0.144  2.1638 -2.6328 -0.5904
   34MOL0     H 4486   2.584   2.727   0.457 -1.0416  2.4263 -0.7979
   34MOL0     H 4487   1.707   2.254   0.265  1.2560  0.8067 -0.8349
   34MOL0     H 4488   1.473   2.244   0.374 -1.7915  2.6149  1.6330
   35MOL0     O 4489   1.843   5.110   6.325 -0.4407  0.4191  0.0990
   35MOL0     C 4490   1.812   5.123   6.206  0.1860  0.5956  0.2748
   35MOL0     O 4491   1.686   5.126   6.158  0.0092  0.1097 -0.6933
   35MOL0     C 4492   1.565   5.151   6.232 -1.4390  0.1797 -0.3719
   35MOL0     C 4493   1.548   5.164   6.372 -1.1799  0.4615 -0.6102
   35MOL0     C 4494   1.420   5.177   6.430 -0.8741 -0.0720  1.1466
   35MOL0     C 4495   1.309   5.185   6.349  0.1680  1.1903 -0.1195
   35MOL0     O 4496   1.204   5.231   6.411  0.1993 -0.0830 -0.2760
   35MOL0     C 4497   1.085   5.146   6.401  0.3436  0.7215 -1.0732
   35MOL0     C 4498   0.971   5.205   6.488  0.6408  0.3134 -0.0864
   35MOL0     C 4499   0.873   5.096   6.519  0.2290  0.0516 -0.7274
   35MOL0     C 4500   0.744   5.133   6.603 -0.2044  0.1786 -1.1123
   35MOL0     C 4501   0.650   5.009   6.611 -0.9779 -0.2056  0.0517
   35MOL0     C 4502   0.549   5.049   6.727 -0.7375  0.2423  0.4612
   35MOL0     C 4503   0.414   4.979   6.726  0.3335 -0.1871  0.0495
   35MOL0     C 4504   0.337   4.992   6.597 -1.0028 -0.7324  0.7114
   35MOL0     N 4505   0.198   4.975   6.621  0.2513  0.4361 -0.5261
   35MOL0     C 4506   0.132   4.856   6.651 -0.0497  0.3237  0.5553
   35MOL0     C 4507   0.004   4.891   6.690 -0.8742 -0.2303  0.2246
   35MOL0     C 4508  -0.103   4.788   6.698  0.3015 -0.7606 -0.6361
   35MOL0     C 4509  -0.243   4.863   6.725 -0.3875  0.3752 -0.2418
   35MOL0     C 4510  -0.352   4.764   6.716 -0.2435  0.6340 -0.2898
   35MOL0     C 4511  -0.494   4.830   6.725  0.2395 -0.3842 -0.1137
   35MOL0     O 4512  -0.524   4.911   6.610  0.6378 -0.1265  0.3031
   35MOL0     C 4513  -0.647   4.974   6.619 -0.5897 -0.6659  0.0232
   35MOL0     C 4514  -0.757   4.953   6.704 -0.4040 -0.7943 -0.5105
   35MOL0     C 4515  -0.863   5.051   6.712  0.8170  0.1177 -0.1656
   35MOL0     C 4516  -0.850   5.168   6.647 -0.3721  0.5692  0.3481
   35MOL0     C 4517  -0.942   5.280   6.674  0.0603  0.7739  0.6235
   35MOL0     O 4518  -0.902   5.404   6.638  0.3205  0.6014 -0.4554
   35MOL0     C 4519  -1.001   5.503   6.653 -0.9558  0.6991 -0.2411
   35MOL0     C 4520  -1.009   5.582   6.764 -0.1802  0.2949  0.2655
   35MOL0     C 4521  -1.104   5.689   6.774 -1.1899  0.0780 -0.4036
   35MOL0     C 4522  -1.190   5.709   6.670  0.3218 -0.8225  0.2700
   35MOL0     O 4523  -1.291   5.805   6.687  0.0185 -0.1119  0.1908
   35MOL0     C 4524  -1.370   5.788   6.799  1.0640 -0.0041 -0.4893
   35MOL0     C 4525  -1.514   5.852   6.780  0.4020  0.3884  0.1245
   35MOL0     C 4526  -1.592   5.786   6.657  0.3863 -0.2729 -0.0416
   35MOL0     C 4527  -1.744   5.816   6.645  0.8398 -0.1854 -0.3076
   35MOL0     C 4528  -1.840   5.737   6.740  0.3259 -0.2864  0.7088
   35MOL0     C 4529  -1.980   5.811   6.756 -0.2897  0.5942 -0.1648
   35MOL0     C 4530  -2.079   5.760   6.647  0.6340  0.3140  0.0182
   35MOL0     C 4531  -2.194   5.856   6.601 -0.0865  0.2886 -0.3881
   35MOL0    Cl 4532  -2.302   5.875   6.735  0.2772  0.0297 -0.3532
   35MOL0     C 4533  -1.177   5.635   6.554 -0.0673 -0.2516  0.6240
   35MOL0     C 4534  -1.089   5.528   6.547  0.5535  0.1202  0.1064
   35MOL0     O 4535  -1.058   5.252   6.726  0.5163 -0.7238  0.7210
   35MOL0     C 4536  -0.736   5.190   6.564 -0.4306  0.2666 -0.4012
   35MOL0     C 4537  -0.641   5.094   6.548 -0.5282 -0.1868 -0.7094
   35MOL0     N 4538   0.004   5.033   6.685 -0.5778 -0.2092  0.1049
   35MOL0     N 4539   0.115   5.081   6.635  0.2141 -0.1383 -0.8725
   35MOL0     C 4540   1.325   5.163   6.212 -0.4732  0.5950 -0.5133
   35MOL0     C 4541   1.455   5.149   6.155 -0.0089 -0.2742 -0.2056
   35MOL0     C 4542   1.919   5.144   6.106 -0.2172 -0.5269 -0.0216
   35MOL0     C 4543   1.889   5.117   5.975  0.0494  0.2725  0.6921
   35MOL0     C 4544   1.983   5.130   5.871  0.7716  0.1989  1.6302
   35MOL0     C 4545   2.115   5.161   5.899  0.7905 -0.1231 -1.2117
   35MOL0     O 4546   2.200   5.174   5.785  0.5735  0.3446 -0.9022
   35MOL0     C 4547   2.340   5.200   5.796 -0.4984  0.1036  0.2718
   35MOL0     C 4548   2.392   5.268   5.664  0.1050  0.4077  0.0121
   35MOL0     C 4549   2.545   5.299   5.677 -0.0379 -0.0624  0.4806
   35MOL0     C 4550   2.597   5.340   5.542 -1.3700  0.8727 -0.1337
   35MOL0     C 4551   2.745   5.323   5.553  0.7373 -0.2007  0.2662
   35MOL0     C 4552   2.857   5.294   5.561 -0.9230 -0.0676 -0.2771
   35MOL0     C 4553   2.149   5.185   6.035  0.6773  1.0036 -0.4391
   35MOL0     C 4554   2.053   5.171   6.135  0.2027  0.2506  0.2904
   35MOL0     H 4555   1.632   5.170   6.440 -1.3657 -2.1585 -0.0597
   35MOL0     H 4556   1.410   5.176   6.539  0.8560 -2.7208  1.3629
   35MOL0     H 4557   1.115   5.051   6.446  0.5981 -0.1896 -3.0395
   35MOL0     H 4558   1.055   5.120   6.299 -3.1617  1.8424 -0.4454
   35MOL0     H 4559   0.928   5.278   6.419  3.2366  0.9450 -1.1825
   35MOL0     H 4560   1.003   5.257   6.579  0.7040 -0.6702  0.4682
   35MOL0     H 4561   0.933   5.026   6.578  1.1393  0.1273 -1.5409
   35MOL0     H 4562   0.838   5.057   6.423 -1.7649  1.9908 -0.8736
   35MOL0     H 4563   0.784   5.148   6.704  3.6015  0.9449 -2.5337
   35MOL0     H 4564   0.700   5.227   6.568 -0.1480  0.2150 -1.0867
   35MOL0     H 4565   0.704   4.917   6.630  1.9178  0.9379 -1.8844
   35MOL0     H 4566   0.600   4.993   6.515  1.5323 -0.3522 -1.3058
   35MOL0     H 4567   0.521   5.154   6.732 -2.0008 -0.0861  0.6822
   35MOL0     H 4568   0.593   5.017   6.822 -2.9195 -2.1778  0.7858
   35MOL0     H 4569   0.421   4.874   6.755  2.3709  0.5276  2.4769
   35MOL0     H 4570   0.351   5.027   6.801 -0.3863 -0.0077 -0.6643
   35MOL0     H 4571   0.380   4.916   6.531  0.6286  2.4503 -2.2114
   35MOL0     H 4572   0.356   5.088   6.550  0.7298 -0.7837  1.2061
   35MOL0     H 4573   0.181   4.762   6.629 -1.1289 -0.0307 -0.4425
   35MOL0     H 4574  -0.085   4.721   6.782 -0.9242  0.6054  0.7610
   35MOL0     H 4575  -0.100   4.740   6.600 -0.4709 -0.9641 -0.5616
   35MOL0     H 4576  -0.262   4.944   6.654  1.1311  3.4120  2.5156
   35MOL0     H 4577  -0.241   4.910   6.824  1.5774 -0.5676  0.2275
   35MOL0     H 4578  -0.357   4.716   6.618  0.0771  1.5066 -0.7412
   35MOL0     H 4579  -0.344   4.689   6.796  0.0062 -0.7913 -1.6095
   35MOL0     H 4580  -0.503   4.876   6.824  1.3466  0.3291 -0.3220
   35MOL0     H 4581  -0.560   4.744   6.729 -0.0516 -0.2110 -0.9520
   35MOL0     H 4582  -0.764   4.852   6.743 -4.3699 -1.1563 -1.6555
   35MOL0     H 4583  -0.951   5.048   6.775 -0.3120  0.4858 -1.6808
   35MOL0     H 4584  -0.946   5.554   6.848 -1.1374 -2.7190  0.0701
   35MOL0     H 4585  -1.110   5.749   6.865 -1.3043  1.2587 -1.1741
   35MOL0     H 4586  -1.322   5.832   6.887  1.4866 -0.2404 -0.6022
   35MOL0     H 4587  -1.393   5.685   6.825 -4.8506  0.3558 -2.5945
   35MOL0     H 4588  -1.503   5.960   6.769 -1.0387  0.2944 -5.1810
   35MOL0     H 4589  -1.575   5.838   6.870 -0.2128  2.4085  0.0620
   35MOL0     H 4590  -1.590   5.677   6.663  0.3464 -0.2464  0.5059
   35MOL0     H 4591  -1.546   5.832   6.569  0.6015  1.0426  0.7189
   35MOL0     H 4592  -1.767   5.919   6.670 -0.7449 -0.5978  0.0307
   35MOL0     H 4593  -1.780   5.787   6.546 -0.2552 -2.8719  0.7810
   35MOL0     H 4594  -1.792   5.735   6.839 -0.7113 -1.7909  1.2132
   35MOL0     H 4595  -1.848   5.634   6.705  0.9295 -0.0653 -0.1157
   35MOL0     H 4596  -1.969   5.919   6.771  1.8668  0.5965 -1.3292
   35MOL0     H 4597  -2.021   5.771   6.850 -0.8275  0.5087 -0.4320
   35MOL0     H 4598  -2.037   5.736   6.548 -0.8675  0.8851 -0.7967
   35MOL0     H 4599  -2.124   5.674   6.697  0.5897  1.2270  1.6161
   35MOL0     H 4600  -2.258   5.806   6.528 -1.8977 -2.1930  2.6494
   35MOL0     H 4601  -2.161   5.953   6.562 -2.7416  1.3230 -0.2952
   35MOL0     H 4602  -1.239   5.659   6.468  0.4748  2.2651  0.8644
   35MOL0     H 4603  -1.064   5.479   6.453 -0.8929 -4.3193  1.7842
   35MOL0     H 4604  -0.725   5.284   6.510  1.5853  0.8120  0.8318
   35MOL0     H 4605  -0.555   5.121   6.487 -0.8167  1.2237 -0.5358
   35MOL0     H 4606   1.241   5.150   6.144 -1.2776 -1.0928  0.7268
   35MOL0     H 4607   1.475   5.140   6.048 -3.0964 -1.6986 -0.7642
   35MOL0     H 4608   1.790   5.079   5.952 -0.9441  3.0646 -0.0558
   35MOL0     H 4609   1.949   5.118   5.769 -1.8202  0.3331  2.4037
   35MOL0     H 4610   2.373   5.099   5.818 -2.2763 -0.8036 -0.9591
   35MOL0     H 4611   2.361   5.264   5.882 -0.7389  1.1368 -0.4187
   35MOL0     H 4612   2.361   5.205   5.580 -0.7019 -3.9472  3.2002
   35MOL0     H 4613   2.353   5.370   5.660  0.8529  0.6972  0.0082
   35MOL0     H 4614   2.588   5.200   5.695 -1.0280 -0.6050  0.0037
   35MOL0     H 4615   2.576   5.368   5.755  0.2052  0.4831 -0.0887
   35MOL0     H 4616   2.560   5.283   5.456  0.4733 -2.2782  0.9736
   35MOL0     H 4617   2.570   5.446   5.538  0.2899  1.4213  1.4139
   35MOL0     H 4618   2.964   5.290   5.569 -0.8414  0.4569 -0.9906
   35MOL0     H 4619   2.248   5.208   6.072  0.1473  0.6212  1.3399
   35MOL0     H 4620   2.064   5.215   6.233 -3.1215  0.6584  0.5750
   36MOL0     O 4621   7.477  11.049  11.193  0.1538 -0.0191  0.3230
   36MOL0     C 4622   7.533  10.963  11.269  0.9562  0.0826 -0.0161
   36MOL0     O 4623   7.669  10.954  11.287 -0.3215  0.0380  0.2708
   36MOL0     C 4624   7.762  11.052  11.265  0.3129  0.6564 -0.0005
   36MOL0     C 4625   7.900  11.014  11.260  0.4228  0.3991  0.1602
   36MOL0     C 4626   8.005  11.110  11.248  0.4295 -0.0549  0.5109
   36MOL0     C 4627   7.974  11.243  11.221  0.0918  0.3059  0.3723
   36MOL0     O 4628   8.073  11.331  11.175 -0.3732 -0.5246 -0.3142
   36MOL0     C 4629   8.148  11.294  11.056 -0.2837 -0.4528  0.8487
   36MOL0     C 4630   8.265  11.395  11.029  0.5516  0.0230 -0.4154
   36MOL0     C 4631   8.366  11.400  11.146 -0.5757  0.3041 -0.2735
   36MOL0     C 4632   8.471  11.513  11.134  0.4392  0.2575 -0.2540
   36MOL0     C 4633   8.599  11.490  11.213  0.3280 -0.2281 -0.2891
   36MOL0     C 4634   8.703  11.606  11.225 -0.1176 -0.0748 -0.1829
   36MOL0     C 4635   8.643  11.748  11.248 -0.6296  0.2785  1.0304
   36MOL0     C 4636   8.765  11.847  11.239  0.0570 -0.5522  0.2066
   36MOL0     N 4637   8.722  11.981  11.237  0.1884 -0.3238  0.9983
   36MOL0     C 4638   8.695  12.060  11.342  0.6506  1.0531 -0.1826
   36MOL0     C 4639   8.670  12.181  11.285  0.1841  0.1596  0.2803
   36MOL0     C 4640   8.643  12.313  11.355  0.4211  0.4600  0.3075
   36MOL0     C 4641   8.496  12.328  11.389 -0.5281 -0.2247 -0.1817
   36MOL0     C 4642   8.399  12.311  11.261  0.6993  0.2055  0.0509
   36MOL0     C 4643   8.275  12.378  11.297  0.7815  0.3253 -1.3149
   36MOL0     O 4644   8.177  12.351  11.210 -0.6639  0.0330 -0.4771
   36MOL0     C 4645   8.051  12.387  11.224  0.4085  0.3267  0.3228
   36MOL0     C 4646   7.957  12.326  11.137 -0.3226 -0.2053  1.0666
   36MOL0     C 4647   7.824  12.372  11.131 -0.2243  0.4885  0.3831
   36MOL0     C 4648   7.775  12.476  11.202 -0.4189  0.7163 -0.7921
   36MOL0     C 4649   7.642  12.536  11.174  0.1877  0.0035  0.4810
   36MOL0     O 4650   7.546  12.460  11.114  0.2048 -0.2693 -0.2282
   36MOL0     C 4651   7.410  12.491  11.094 -0.3642 -0.1971 -0.4020
   36MOL0     C 4652   7.340  12.604  11.149 -0.4898  0.4575  0.1903
   36MOL0     C 4653   7.194  12.611  11.135 -0.0152  0.9465  1.1848
   36MOL0     C 4654   7.133  12.496  11.065  0.5002  0.2078  0.0305
   36MOL0     O 4655   7.004  12.465  11.068 -0.0794 -0.4891 -0.0864
   36MOL0     C 4656   6.900  12.550  11.017  0.5455 -0.0680 -0.2260
   36MOL0     C 4657   6.777  12.542  11.117  0.0863 -0.2522  0.0936
   36MOL0     C 4658   6.648  12.601  11.054 -0.7443  0.0619 -0.4480
   36MOL0     C 4659   6.531  12.596  11.158 -0.4100  0.2768 -0.3899
   36MOL0     C 4660   6.388  12.619  11.091  0.8145  0.3782  0.1188
   36MOL0     C 4661   6.345  12.768  11.079 -0.4473  0.7468  0.6131
   36MOL0     C 4662   6.349  12.842  11.220 -0.3691 -0.1235  0.2807
   36MOL0     C 4663   6.274  12.981  11.218  0.3135  0.0039  0.2384
   36MOL0    Cl 4664   6.315  13.087  11.075 -0.0909 -0.0622 -0.2824
   36MOL0     C 4665   7.208  12.386  11.022 -0.2191  0.2471 -0.1420
   36MOL0     C 4666   7.344  12.396  11.024  0.4462  0.9333  0.1293
   36MOL0     O 4667   7.624  12.653  11.208  0.6946 -0.5058 -0.3289
   36MOL0     C 4668   7.868  12.527  11.300  0.3387  0.0730 -0.3018
   36MOL0     C 4669   8.000  12.484  11.312 -1.2924  0.5455  0.0695
   36MOL0     N 4670   8.672  12.175  11.145  0.4753  0.4059 -0.4965
   36MOL0     N 4671   8.705  12.056  11.120  0.0737 -0.6013 -0.2490
   36MOL0     C 4672   7.837  11.282  11.226 -0.5153  0.3262 -0.0703
   36MOL0     C 4673   7.735  11.191  11.245 -0.2951 -0.9282 -0.7799
   36MOL0     C 4674   7.445  10.862  11.326  0.4622  0.3443 -0.3193
   36MOL0     C 4675   7.488  10.751  11.407 -0.6214  0.7658 -0.0328
   36MOL0     C 4676   7.405  10.646  11.448 -0.6413 -0.8110 -0.3969
   36MOL0     C 4677   7.272  10.655  11.410  0.2958  0.3434 -0.2012
   36MOL0     O 4678   7.193  10.566  11.478 -0.7128 -0.3094 -0.1569
   36MOL0     C 4679   7.066  10.534  11.416  0.8718  0.4374 -0.1090
   36MOL0     C 4680   7.015  10.410  11.503 -0.0974 -0.1571  0.5631
   36MOL0     C 4681   6.871  10.367  11.454  0.2821  1.3236  0.2263
   36MOL0     C 4682   6.769  10.482  11.454 -0.1015  0.2071 -0.1455
   36MOL0     C 4683   6.634  10.436  11.415 -0.0208 -0.5322  0.1150
   36MOL0     C 4684   6.522  10.404  11.395 -0.4807 -0.7413 -1.1334
   36MOL0     C 4685   7.225  10.754  11.322 -0.3681 -0.3535  0.3649
   36MOL0     C 4686   7.311  10.856  11.284 -0.2906 -0.8579 -0.3612
   36MOL0     H 4687   7.928  10.909  11.267 -0.8487 -0.5674 -4.9213
   36MOL0     H 4688   8.108  11.076  11.240  1.7690  3.6513 -0.3714
   36MOL0     H 4689   8.079  11.302  10.971  0.5334  1.9547  0.3298
   36MOL0     H 4690   8.200  11.198  11.051  3.2993  1.3042  1.1404
   36MOL0     H 4691   8.237  11.498  11.004  1.8825  0.5971  0.3310
   36MOL0     H 4692   8.322  11.371  10.939 -0.1407 -0.4336 -0.7394
   36MOL0     H 4693   8.413  11.301  11.154 -0.8060  0.0386 -1.9343
   36MOL0     H 4694   8.311  11.420  11.238 -0.4810  0.7006 -0.3003
   36MOL0     H 4695   8.495  11.514  11.027 -0.8717 -0.5996 -0.5813
   36MOL0     H 4696   8.417  11.595  11.182 -0.5463  0.0230 -0.9171
   36MOL0     H 4697   8.649  11.410  11.159  0.6937  0.7783 -1.4849
   36MOL0     H 4698   8.563  11.454  11.311 -1.1423 -0.7288 -0.9773
   36MOL0     H 4699   8.761  11.595  11.133 -1.3315 -1.9910 -0.7863
   36MOL0     H 4700   8.769  11.579  11.308  0.7542  2.0592 -0.1220
   36MOL0     H 4701   8.569  11.770  11.171 -0.3358 -0.4596  0.5239
   36MOL0     H 4702   8.604  11.755  11.349  0.3613  1.3735  1.3697
   36MOL0     H 4703   8.828  11.825  11.152  1.1172  4.1264 -0.4327
   36MOL0     H 4704   8.827  11.831  11.327 -1.1188  2.1444  1.6352
   36MOL0     H 4705   8.709  12.035  11.447  0.3247 -1.3319 -0.6556
   36MOL0     H 4706   8.667  12.392  11.283  0.3353  1.4747  1.3801
   36MOL0     H 4707   8.699  12.330  11.447  2.9317 -0.6668 -0.8978
   36MOL0     H 4708   8.491  12.431  11.423 -0.8548 -0.3052  0.0153
   36MOL0     H 4709   8.473  12.263  11.474 -1.4114  0.5247  0.1623
   36MOL0     H 4710   8.446  12.358  11.175  0.2267  1.1590  0.2968
   36MOL0     H 4711   8.384  12.205  11.243  2.6103 -0.0686 -0.1394
   36MOL0     H 4712   8.289  12.487  11.302  4.0063  0.0713 -2.1033
   36MOL0     H 4713   8.245  12.356  11.400  0.5430  4.0664 -0.4326
   36MOL0     H 4714   8.005  12.256  11.068  3.2890  2.4742  0.5348
   36MOL0     H 4715   7.760  12.334  11.052 -1.0417  3.7110 -0.6747
   36MOL0     H 4716   7.391  12.679  11.210 -1.6458  1.0102  0.5071
   36MOL0     H 4717   7.139  12.696  11.174 -0.7307  0.0722  2.1627
   36MOL0     H 4718   6.863  12.509  10.923 -0.3095  0.7511 -0.2675
   36MOL0     H 4719   6.918  12.656  10.994 -1.1312  0.2460 -0.2494
   36MOL0     H 4720   6.815  12.592  11.206 -0.0560 -1.7873  1.0487
   36MOL0     H 4721   6.765  12.437  11.147 -0.5725  0.2066  1.4997
   36MOL0     H 4722   6.613  12.554  10.962  1.2304 -0.4236 -1.0016
   36MOL0     H 4723   6.684  12.701  11.030  1.3114 -0.6247 -0.3866
   36MOL0     H 4724   6.523  12.499  11.209  1.2767 -0.7773 -1.9947
   36MOL0     H 4725   6.544  12.672  11.236 -1.3558 -3.2112  3.5469
   36MOL0     H 4726   6.306  12.572  11.145  1.7984  0.2939  1.6212
   36MOL0     H 4727   6.389  12.585  10.987  2.2078 -2.0316  0.8081
   36MOL0     H 4728   6.243  12.784  11.043 -1.0521  0.1212  1.9708
   36MOL0     H 4729   6.408  12.810  11.000  3.7760 -2.1610  2.1065
   36MOL0     H 4730   6.297  12.781  11.295 -0.4112 -0.6709 -0.1838
   36MOL0     H 4731   6.451  12.858  11.255 -0.4419 -0.8693  0.8585
   36MOL0     H 4732   6.283  13.038  11.311 -1.7796  0.3514  0.2746
   36MOL0     H 4733   6.164  12.983  11.221  0.2920  1.3608 -0.9740
   36MOL0     H 4734   7.163  12.291  10.994  0.6576 -0.2242  0.0002
   36MOL0     H 4735   7.401  12.306  11.001 -0.3024  0.0817  1.4874
   36MOL0     H 4736   7.836  12.609  11.363  2.1613 -0.1980  1.0598
   36MOL0     H 4737   8.066  12.535  11.381 -2.3292  2.0773 -0.0324
   36MOL0     H 4738   7.809  11.384  11.204  1.3497  0.6728 -1.0342
   36MOL0     H 4739   7.632  11.224  11.240 -0.0435 -0.0418 -0.3326
   36MOL0     H 4740   7.593  10.755  11.432 -1.2479  2.7760  2.8696
   36MOL0     H 4741   7.441  10.571  11.517 -0.1560  0.4622  0.7737
   36MOL0     H 4742   7.076  10.501  11.312  1.4363  1.3183 -0.3393
   36MOL0     H 4743   7.008  10.626  11.413  0.0867 -0.0396  0.0143
   36MOL0     H 4744   7.086  10.328  11.488 -0.9607 -1.2745  2.2206
   36MOL0     H 4745   7.007  10.435  11.610 -1.8739  1.3353  0.1373
   36MOL0     H 4746   6.823  10.292  11.518 -4.4246  2.3029 -1.7407
   36MOL0     H 4747   6.891  10.329  11.354  0.3363 -0.7130  0.9695
   36MOL0     H 4748   6.759  10.510  11.559  0.4477  0.5151 -0.1761
   36MOL0     H 4749   6.803  10.563  11.389  2.2877  0.3270  1.1298
   36MOL0     H 4750   6.418  10.387  11.372 -0.7223 -1.4995  0.3665
   36MOL0     H 4751   7.124  10.780  11.293  0.0975  0.7490 -0.3211
   36MOL0     H 4752   7.281  10.928  11.208  1.0796  1.4836  1.1949
   37MOL0     O 4753   2.592   4.990   3.349 -1.0453 -0.2501 -0.2116
   37MOL0     C 4754   2.679   5.039   3.281 -1.0086 -0.0679 -0.4266
   37MOL0     O 4755   2.666   5.142   3.186  0.3486 -0.4640 -0.0244
   37MOL0     C 4756   2.532   5.181   3.169 -0.1838 -0.0221 -0.8705
   37MOL0     C 4757   2.506   5.308   3.203  0.7066  0.6903 -0.8685
   37MOL0     C 4758   2.384   5.369   3.173 -0.2119  0.1033  0.4439
   37MOL0     C 4759   2.284   5.297   3.107 -0.1316 -0.7718  0.0650
   37MOL0     O 4760   2.166   5.354   3.078  0.1489  0.2184 -0.0829
   37MOL0     C 4761   2.183   5.465   2.981  0.5076 -0.4973  0.2929
   37MOL0     C 4762   2.051   5.543   2.985  0.9357  0.2305 -0.0492
   37MOL0     C 4763   1.930   5.496   2.894  0.1447 -0.0519  0.2473
   37MOL0     C 4764   1.830   5.604   2.866  0.4696  0.0066 -0.1827
   37MOL0     C 4765   1.709   5.553   2.788 -0.8893  0.2006 -0.7341
   37MOL0     C 4766   1.608   5.660   2.746 -0.3646 -0.1281 -0.1365
   37MOL0     C 4767   1.474   5.585   2.709 -0.2782  0.0436 -0.0204
   37MOL0     C 4768   1.350   5.652   2.767 -0.5498  0.1612  0.0611
   37MOL0     N 4769   1.329   5.794   2.724  0.3600 -0.7107  0.6061
   37MOL0     C 4770   1.407   5.914   2.744 -0.7816 -0.5639  0.2886
   37MOL0     C 4771   1.357   6.021   2.679  0.0616  0.1576  0.4196
   37MOL0     C 4772   1.408   6.162   2.678  0.1240  0.1288 -0.3404
   37MOL0     C 4773   1.454   6.209   2.541 -0.0216 -0.9827  0.4211
   37MOL0     C 4774   1.544   6.330   2.535 -0.0056  0.2347  1.6352
   37MOL0     C 4775   1.559   6.378   2.393  0.2155  0.5405  0.6625
   37MOL0     O 4776   1.660   6.487   2.382  1.0326  0.2268 -0.1423
   37MOL0     C 4777   1.794   6.470   2.365  0.8437  0.2381  0.2177
   37MOL0     C 4778   1.867   6.580   2.326 -0.2348  0.0039  0.1290
   37MOL0     C 4779   2.005   6.577   2.323 -0.3955  0.1811  1.5009
   37MOL0     C 4780   2.070   6.455   2.342 -0.1105  0.6889 -0.0746
   37MOL0     C 4781   2.213   6.440   2.352 -0.2869 -1.0357  0.3483
   37MOL0     O 4782   2.267   6.315   2.374  0.0854  0.6784 -0.1660
   37MOL0     C 4783   2.397   6.283   2.416 -0.0502  0.0761  0.6960
   37MOL0     C 4784   2.420   6.153   2.446 -0.6052  0.5983  0.2747
   37MOL0     C 4785   2.542   6.112   2.502 -0.4862 -0.2045 -0.3820
   37MOL0     C 4786   2.645   6.209   2.530 -0.0583  0.2700  0.3539
   37MOL0     O 4787   2.760   6.159   2.594 -0.4628 -0.6882 -0.4775
   37MOL0     C 4788   2.858   6.252   2.646  0.2704 -0.0563  0.3265
   37MOL0     C 4789   2.976   6.167   2.689  0.1375  0.3424  0.5979
   37MOL0     C 4790   3.091   6.268   2.751  0.2240 -0.5264  0.4334
   37MOL0     C 4791   3.040   6.329   2.881  0.1006 -0.4455 -0.0816
   37MOL0     C 4792   3.151   6.400   2.963  0.4193 -0.8640 -0.0795
   37MOL0     C 4793   3.270   6.312   2.998  0.4094  0.0460 -0.0141
   37MOL0     C 4794   3.343   6.348   3.127 -0.2565  1.0648 -0.8333
   37MOL0     C 4795   3.398   6.486   3.110  0.0187 -0.3146 -0.3740
   37MOL0    Cl 4796   3.520   6.485   2.969  0.4381  0.2730 -0.0535
   37MOL0     C 4797   2.618   6.341   2.488 -0.6890  0.6021 -0.4734
   37MOL0     C 4798   2.502   6.372   2.431  0.0929 -0.1125  0.2691
   37MOL0     O 4799   2.272   6.545   2.353  0.0294  0.3118  0.0441
   37MOL0     C 4800   1.994   6.334   2.344 -0.2095 -0.6579 -0.7448
   37MOL0     C 4801   1.858   6.345   2.372  0.4767  0.4169 -0.8259
   37MOL0     N 4802   1.246   5.975   2.617 -0.5642  0.3549  0.1393
   37MOL0     N 4803   1.234   5.843   2.640  0.8248  0.1765  0.1052
   37MOL0     C 4804   2.306   5.166   3.071 -0.8461  1.0839 -0.5092
   37MOL0     C 4805   2.427   5.102   3.110 -0.9646 -1.5901 -0.4581
   37MOL0     C 4806   2.817   4.976   3.292  0.3010  0.5943 -0.4075
   37MOL0     C 4807   2.914   4.989   3.188 -0.2003 -0.0256 -0.2977
   37MOL0     C 4808   3.043   4.934   3.190 -1.1849 -0.1855 -0.2058
   37MOL0     C 4809   3.087   4.873   3.307 -0.4369  0.0051  1.0414
   37MOL0     O 4810   3.207   4.808   3.318  0.6436  0.4856 -0.3332
   37MOL0     C 4811   3.310   4.903   3.343 -0.5758  0.5634  1.1080
   37MOL0     C 4812   3.440   4.836   3.353 -0.1094 -0.1235 -0.7092
   37MOL0     C 4813   3.463   4.771   3.494  0.5443 -1.1290  0.1551
   37MOL0     C 4814   3.582   4.671   3.485  0.1950 -0.3808 -0.5029
   37MOL0     C 4815   3.541   4.534   3.463  0.0155 -0.7721 -0.0645
   37MOL0     C 4816   3.510   4.421   3.428 -0.3420  0.3032 -0.5873
   37MOL0     C 4817   3.000   4.865   3.415  0.0169  0.1442 -0.1382
   37MOL0     C 4818   2.865   4.911   3.410 -0.5013 -0.1855 -0.2290
   37MOL0     H 4819   2.582   5.363   3.257  0.4516  2.3011 -2.0729
   37MOL0     H 4820   2.367   5.473   3.200 -1.7568 -0.2295  0.8212
   37MOL0     H 4821   2.214   5.423   2.885  3.5772  3.3400 -0.6474
   37MOL0     H 4822   2.265   5.534   3.003  1.6805 -2.7053  3.7943
   37MOL0     H 4823   2.084   5.634   2.935 -1.4170 -0.0945 -2.3902
   37MOL0     H 4824   2.015   5.557   3.088  0.2455 -1.9248  0.0656
   37MOL0     H 4825   1.881   5.404   2.929  1.1826 -1.0162 -0.7510
   37MOL0     H 4826   1.975   5.472   2.798  1.0561 -4.1585  1.5061
   37MOL0     H 4827   1.782   5.642   2.957 -3.7814  1.6918 -2.7942
   37MOL0     H 4828   1.882   5.690   2.822  0.6692  0.9441  1.7624
   37MOL0     H 4829   1.664   5.483   2.859 -1.2364  1.1723  0.0298
   37MOL0     H 4830   1.753   5.508   2.699  1.8204  3.1443 -1.0634
   37MOL0     H 4831   1.655   5.727   2.674  0.6809 -1.5161 -0.7909
   37MOL0     H 4832   1.594   5.714   2.840  0.5096 -0.9959  0.5086
   37MOL0     H 4833   1.469   5.573   2.601 -0.9207 -3.4074  0.2722
   37MOL0     H 4834   1.475   5.482   2.747 -0.0935  0.5382  1.4016
   37MOL0     H 4835   1.339   5.634   2.875 -0.3322 -3.8748 -0.4668
   37MOL0     H 4836   1.270   5.588   2.729 -1.4265  0.3949  1.4241
   37MOL0     H 4837   1.505   5.912   2.791 -0.9966 -2.2162  0.7436
   37MOL0     H 4838   1.484   6.177   2.754 -0.5828  1.0532  0.2036
   37MOL0     H 4839   1.332   6.232   2.714  2.4675  1.8211  1.5716
   37MOL0     H 4840   1.371   6.225   2.472 -0.4920  0.6000  1.3028
   37MOL0     H 4841   1.507   6.125   2.496 -2.9381 -3.8690  1.9582
   37MOL0     H 4842   1.492   6.412   2.585  1.9219  3.6087 -1.3954
   37MOL0     H 4843   1.638   6.317   2.589  2.1470  1.8963 -1.4178
   37MOL0     H 4844   1.458   6.412   2.366  0.8725  1.8492 -0.2631
   37MOL0     H 4845   1.584   6.296   2.325  0.1764 -0.6460  2.0419
   37MOL0     H 4846   1.817   6.671   2.297 -1.2149 -0.9783 -1.4482
   37MOL0     H 4847   2.067   6.663   2.297  0.0262 -0.1147  1.5137
   37MOL0     H 4848   2.345   6.082   2.414  1.2685 -0.3185 -2.4588
   37MOL0     H 4849   2.545   6.006   2.526  0.7139 -0.4596 -1.5050
   37MOL0     H 4850   2.802   6.301   2.726 -0.4195  0.8785 -0.7086
   37MOL0     H 4851   2.898   6.315   2.567  0.4184 -2.4703 -1.6654
   37MOL0     H 4852   3.012   6.100   2.610 -2.0050 -0.2900  0.0915
   37MOL0     H 4853   2.932   6.104   2.766 -0.0235  0.8322  0.9115
   37MOL0     H 4854   3.125   6.344   2.681 -1.6982  1.4771  1.5620
   37MOL0     H 4855   3.174   6.201   2.777  1.0915  0.5137  0.3854
   37MOL0     H 4856   2.952   6.393   2.873 -0.5915 -1.5505 -1.9097
   37MOL0     H 4857   3.001   6.247   2.942  0.3639  0.7047  1.7065
   37MOL0     H 4858   3.106   6.428   3.058 -1.8427  2.4637 -1.9237
   37MOL0     H 4859   3.182   6.488   2.906 -3.9916  1.7709  1.1358
   37MOL0     H 4860   3.345   6.317   2.919 -0.8755  0.5962 -1.2486
   37MOL0     H 4861   3.239   6.208   3.007  1.1770 -0.0860  1.2317
   37MOL0     H 4862   3.274   6.325   3.208 -2.0847 -3.6787 -3.3163
   37MOL0     H 4863   3.429   6.282   3.146 -1.2988 -0.3178 -0.7785
   37MOL0     H 4864   3.448   6.517   3.202 -0.7581  1.0604 -0.3825
   37MOL0     H 4865   3.319   6.561   3.099  0.5347  0.6612  1.9511
   37MOL0     H 4866   2.693   6.418   2.499 -1.7377  1.5182  0.4912
   37MOL0     H 4867   2.490   6.475   2.398  1.0568  0.0164  0.2847
   37MOL0     H 4868   2.048   6.241   2.358 -1.5578 -1.0667  2.5874
   37MOL0     H 4869   1.802   6.253   2.382  0.7660  0.0995 -2.0793
   37MOL0     H 4870   2.232   5.097   3.032  1.3637 -0.5906 -1.9416
   37MOL0     H 4871   2.447   5.002   3.072  1.8178 -1.0219 -0.7183
   37MOL0     H 4872   2.879   5.033   3.096 -1.0563  1.3233  0.6367
   37MOL0     H 4873   3.105   4.945   3.102  0.3857  4.9407  1.2282
   37MOL0     H 4874   3.278   4.959   3.432 -1.1390  0.3360  1.0480
   37MOL0     H 4875   3.315   4.968   3.255 -0.3192 -2.6182 -1.4045
   37MOL0     H 4876   3.441   4.759   3.275  0.5633  0.7548 -1.6071
   37MOL0     H 4877   3.524   4.904   3.335 -1.1512  1.3006 -0.3408
   37MOL0     H 4878   3.378   4.714   3.532  0.9452 -1.4248  0.6306
   37MOL0     H 4879   3.477   4.860   3.556  0.0368  2.0881 -3.9626
   37MOL0     H 4880   3.641   4.708   3.400 -3.0947  2.9291 -1.6653
   37MOL0     H 4881   3.640   4.675   3.578 -0.7289 -0.0061  0.0729
   37MOL0     H 4882   3.478   4.321   3.407 -1.7951  0.0148  2.5098
   37MOL0     H 4883   3.033   4.821   3.509 -1.5763  0.7208  0.7242
   37MOL0     H 4884   2.797   4.899   3.494 -0.8539  0.4452 -0.4222
   38MOL0     O 4885   7.949   6.201   7.566  0.0790  0.3449  0.4245
   38MOL0     C 4886   7.913   6.283   7.476 -1.2324  0.2420 -0.3733
   38MOL0     O 4887   7.794   6.350   7.465  0.1305  0.3353  0.4265
   38MOL0     C 4888   7.685   6.336   7.553  0.3692  0.0048 -0.4549
   38MOL0     C 4889   7.646   6.212   7.599 -0.4566  0.7224  0.4723
   38MOL0     C 4890   7.534   6.193   7.687  0.4201  0.4039 -0.4758
   38MOL0     C 4891   7.460   6.302   7.729 -0.7221 -0.7296  0.1876
   38MOL0     O 4892   7.363   6.280   7.816  0.8088 -0.2912 -0.1293
   38MOL0     C 4893   7.317   6.385   7.903 -0.0267 -0.7316  1.1605
   38MOL0     C 4894   7.247   6.317   8.021  0.5404 -0.1859 -0.0934
   38MOL0     C 4895   7.119   6.247   7.983 -0.2698 -0.4601 -0.3750
   38MOL0     C 4896   7.047   6.160   8.084 -0.3457  0.0969 -0.1479
   38MOL0     C 4897   7.142   6.054   8.136  0.4951  0.2238 -0.2511
   38MOL0     C 4898   7.075   5.953   8.235  0.7038  0.9204  0.0427
   38MOL0     C 4899   6.961   5.863   8.178  0.4440 -0.8251 -0.0672
   38MOL0     C 4900   7.014   5.781   8.056  0.3528  0.3348 -1.3307
   38MOL0     N 4901   6.948   5.648   8.049 -0.2773 -0.1084 -0.1266
   38MOL0     C 4902   6.833   5.609   7.985 -0.5520 -0.0400 -0.2485
   38MOL0     C 4903   6.804   5.491   8.048  0.1704 -0.4307  0.2858
   38MOL0     C 4904   6.691   5.391   8.025  0.7141 -0.4959  0.3292
   38MOL0     C 4905   6.553   5.450   8.055 -0.1885 -0.5679  0.2621
   38MOL0     C 4906   6.511   5.448   8.201 -0.0097  1.0362  0.1805
   38MOL0     C 4907   6.368   5.488   8.230 -0.3754 -0.3052 -0.5386
   38MOL0     O 4908   6.336   5.462   8.367 -0.0186 -0.1183  0.0324
   38MOL0     C 4909   6.210   5.409   8.386  0.1519  0.5213 -0.0941
   38MOL0     C 4910   6.186   5.272   8.376 -0.3145  0.2402 -0.6629
   38MOL0     C 4911   6.053   5.226   8.373  0.7765  1.2515 -0.2165
   38MOL0     C 4912   5.941   5.314   8.380 -0.1858  0.7276  0.3766
   38MOL0     C 4913   5.803   5.264   8.407  0.2069  0.4074 -0.1276
   38MOL0     O 4914   5.782   5.132   8.383 -0.1562  0.3613 -0.8579
   38MOL0     C 4915   5.652   5.074   8.391  0.1824 -1.0024 -0.4652
   38MOL0     C 4916   5.645   4.953   8.465  0.3424  0.2096 -0.2280
   38MOL0     C 4917   5.524   4.890   8.487  0.8193  0.4000  0.0870
   38MOL0     C 4918   5.399   4.937   8.441 -0.0445 -0.3881  0.3249
   38MOL0     O 4919   5.282   4.874   8.482  0.2181 -0.6057  0.6305
   38MOL0     C 4920   5.160   4.915   8.433  0.1899  0.3919  0.6651
   38MOL0     C 4921   5.059   4.798   8.455 -0.4476 -0.2238 -0.3759
   38MOL0     C 4922   4.949   4.797   8.347  0.4112 -0.4675 -0.9808
   38MOL0     C 4923   4.864   4.677   8.338 -0.4543  0.7585  0.0900
   38MOL0     C 4924   4.736   4.707   8.254  0.0852 -0.2973 -0.5540
   38MOL0     C 4925   4.757   4.721   8.112  0.1916 -0.0455 -0.4432
   38MOL0     C 4926   4.624   4.755   8.048  0.1147  0.0764  0.1902
   38MOL0     C 4927   4.640   4.818   7.917  0.7509 -0.3871  0.3479
   38MOL0    Cl 4928   4.725   4.715   7.798 -0.0327  0.1944  0.0100
   38MOL0     C 4929   5.407   5.070   8.379 -0.0240 -0.0694  0.2745
   38MOL0     C 4930   5.534   5.137   8.348  0.7563 -0.3344 -0.3041
   38MOL0     O 4931   5.714   5.335   8.452 -0.2288  0.0315  0.2957
   38MOL0     C 4932   5.971   5.454   8.397  0.4629  0.1626 -0.5751
   38MOL0     C 4933   6.106   5.496   8.395  0.7615 -0.2992 -0.8261
   38MOL0     N 4934   6.904   5.449   8.126 -0.3486 -0.3742 -0.1568
   38MOL0     N 4935   6.985   5.552   8.137 -0.1038 -0.4479 -0.5771
   38MOL0     C 4936   7.503   6.428   7.691  0.1537  0.4300 -0.1322
   38MOL0     C 4937   7.614   6.442   7.601 -0.0655  0.6091  0.2048
   38MOL0     C 4938   8.014   6.329   7.375 -0.8235 -0.4793  0.1993
   38MOL0     C 4939   7.980   6.425   7.279  0.8918 -0.2786  0.6326
   38MOL0     C 4940   8.080   6.471   7.196  0.4590  0.0809 -0.2177
   38MOL0     C 4941   8.212   6.419   7.197 -0.4712 -0.1934 -0.3745
   38MOL0     O 4942   8.313   6.460   7.112  0.2191 -0.3478 -0.0519
   38MOL0     C 4943   8.300   6.594   7.059  0.0461  0.0941  1.1712
   38MOL0     C 4944   8.448   6.640   7.020  0.9619  0.3027 -0.1064
   38MOL0     C 4945   8.497   6.563   6.895 -0.7389  0.5628 -0.3558
   38MOL0     C 4946   8.625   6.641   6.839  0.1160 -1.0899 -0.8932
   38MOL0     C 4947   8.749   6.613   6.911 -0.2473  0.5394 -0.5144
   38MOL0     C 4948   8.856   6.616   6.966  0.4484 -0.5082 -0.7025
   38MOL0     C 4949   8.247   6.329   7.295  1.0513  0.2512  0.3644
   38MOL0     C 4950   8.155   6.288   7.386  0.5732 -0.3192 -0.1566
   38MOL0     H 4951   7.698   6.130   7.552 -0.5600  0.7908  0.2373
   38MOL0     H 4952   7.504   6.099   7.733 -1.2325  1.3408  0.4583
   38MOL0     H 4953   7.243   6.445   7.849  0.9028  1.0959  1.8472
   38MOL0     H 4954   7.399   6.452   7.928  0.2443 -0.2952 -0.7127
   38MOL0     H 4955   7.224   6.387   8.101  0.2006 -0.0921 -0.2702
   38MOL0     H 4956   7.321   6.248   8.063  1.0681  0.0256 -0.6492
   38MOL0     H 4957   7.136   6.183   7.896  1.5558 -1.6561  0.8024
   38MOL0     H 4958   7.047   6.321   7.948  2.7835  2.2728 -1.4323
   38MOL0     H 4959   7.007   6.218   8.168 -2.9725 -2.4609  0.5043
   38MOL0     H 4960   6.965   6.109   8.032 -0.4812  1.9231 -1.8368
   38MOL0     H 4961   7.237   6.084   8.183  0.7667  0.1812 -0.7647
   38MOL0     H 4962   7.184   6.000   8.050  3.8645  1.5108  0.4018
   38MOL0     H 4963   7.029   6.009   8.317 -2.0959 -0.7992 -0.2244
   38MOL0     H 4964   7.155   5.884   8.265 -0.1969 -0.7837 -1.2581
   38MOL0     H 4965   6.930   5.801   8.262  2.6473 -0.5410  1.0430
   38MOL0     H 4966   6.879   5.927   8.146 -1.3400 -2.5642  0.8141
   38MOL0     H 4967   7.121   5.760   8.064 -0.1932 -1.9890  1.6442
   38MOL0     H 4968   6.996   5.835   7.962  0.1998  0.8100 -1.0330
   38MOL0     H 4969   6.782   5.682   7.922  1.6190  2.0735  0.2742
   38MOL0     H 4970   6.712   5.305   8.089  0.2783 -0.3450  0.6816
   38MOL0     H 4971   6.700   5.354   7.922  2.2922 -1.0148  0.6220
   38MOL0     H 4972   6.477   5.400   7.995 -1.4482  1.6176 -0.0460
   38MOL0     H 4973   6.550   5.553   8.021 -1.1486 -0.4285  0.7120
   38MOL0     H 4974   6.518   5.343   8.229 -0.2997  0.2060 -2.6353
   38MOL0     H 4975   6.582   5.509   8.258  0.4193  0.3881  0.3488
   38MOL0     H 4976   6.300   5.431   8.167  0.9044 -1.2775 -1.0645
   38MOL0     H 4977   6.357   5.596   8.216  1.0932  0.3491  2.5350
   38MOL0     H 4978   6.268   5.201   8.371  1.1138  1.7452  0.4266
   38MOL0     H 4979   6.025   5.121   8.364 -0.6030  1.5905 -0.0331
   38MOL0     H 4980   5.736   4.908   8.503 -0.5124 -0.5633  0.9886
   38MOL0     H 4981   5.527   4.794   8.537  1.6040  0.8288  0.8788
   38MOL0     H 4982   5.174   4.933   8.326  0.6852 -0.1635  0.6336
   38MOL0     H 4983   5.119   5.007   8.476  0.2275  2.0994 -2.6996
   38MOL0     H 4984   5.017   4.804   8.556  1.2861  0.8862  0.3171
   38MOL0     H 4985   5.122   4.708   8.460  0.5318  0.4053  5.0154
   38MOL0     H 4986   4.987   4.821   8.247  1.0706  2.8084 -0.0405
   38MOL0     H 4987   4.893   4.880   8.388 -0.6610 -1.3773 -0.5606
   38MOL0     H 4988   4.924   4.594   8.300  0.5867  0.8071  1.5424
   38MOL0     H 4989   4.832   4.658   8.441 -1.2209 -1.4248 -0.4988
   38MOL0     H 4990   4.689   4.793   8.302 -0.0238 -1.1774  0.9912
   38MOL0     H 4991   4.671   4.619   8.263  0.4223 -0.5090 -0.1350
   38MOL0     H 4992   4.790   4.629   8.062 -0.1674 -0.3260 -0.1780
   38MOL0     H 4993   4.825   4.801   8.081 -1.0578  1.2002 -0.0113
   38MOL0     H 4994   4.568   4.665   8.019 -1.6822  1.3357 -0.3977
   38MOL0     H 4995   4.563   4.821   8.109  0.0450 -1.7170  2.1863
   38MOL0     H 4996   4.694   4.913   7.912 -0.4112  0.2167 -2.4298
   38MOL0     H 4997   4.539   4.847   7.888  1.2363  2.2475  1.0164
   38MOL0     H 4998   5.322   5.130   8.348  2.6667  4.0424  0.0844
   38MOL0     H 4999   5.539   5.240   8.313 -1.9980 -0.5080 -1.4759
   38MOL0     H 5000   5.903   5.537   8.417  2.5744  1.4599  1.7443
   38MOL0     H 5001   6.131   5.599   8.372  1.2276 -0.7583 -2.4729
   38MOL0     H 5002   7.450   6.516   7.726 -2.9427 -2.0247  1.9040
   38MOL0     H 5003   7.629   6.545   7.571 -0.3614  0.1058 -1.8496
   38MOL0     H 5004   7.877   6.460   7.273  0.2184 -2.0451  1.1279
   38MOL0     H 5005   8.062   6.541   7.116  1.7743 -2.1042 -2.5665
   38MOL0     H 5006   8.248   6.673   7.113 -3.4944 -0.3707 -1.2381
   38MOL0     H 5007   8.234   6.587   6.972  0.2708 -0.1246  1.0157
   38MOL0     H 5008   8.443   6.747   7.001 -1.9257  0.5238  1.2991
   38MOL0     H 5009   8.516   6.628   7.105 -0.2552  2.9554  1.3809
   38MOL0     H 5010   8.424   6.567   6.814  1.2329 -4.1275 -2.7758
   38MOL0     H 5011   8.534   6.461   6.907 -0.7252  0.4690 -1.1831
   38MOL0     H 5012   8.637   6.613   6.734  0.3908 -1.6042 -0.7280
   38MOL0     H 5013   8.620   6.750   6.849 -2.3745 -1.3312  3.2395
   38MOL0     H 5014   8.957   6.628   7.000  0.4855 -2.1465 -0.1713
   38MOL0     H 5015   8.354   6.316   7.308  1.5567  3.9086  0.9180
   38MOL0     H 5016   8.185   6.213   7.459  1.4506  0.5068  0.3427
   39MOL0     O 5017   0.570   8.191   9.640 -0.0206  0.3946  0.0037
   39MOL0     C 5018   0.516   8.102   9.705  0.3319  0.9566  0.3080
   39MOL0     O 5019   0.574   7.992   9.758  0.2521  0.0216 -0.0891
   39MOL0     C 5020   0.705   7.978   9.726  0.2666  0.1876  0.2502
   39MOL0     C 5021   0.806   8.070   9.750 -0.1057  0.4591  0.2232
   39MOL0     C 5022   0.939   8.047   9.698 -1.1300  0.0562  0.9608
   39MOL0     C 5023   0.972   7.937   9.615  0.5574 -0.6606 -1.2152
   39MOL0     O 5024   1.104   7.919   9.581  0.3440  0.1855  0.5284
   39MOL0     C 5025   1.151   7.795   9.528 -0.0147 -0.9655  0.6003
   39MOL0     C 5026   1.273   7.830   9.449 -0.4533 -0.0169 -0.5008
   39MOL0     C 5027   1.237   7.925   9.327  0.3863  0.5989 -0.3867
   39MOL0     C 5028   1.357   7.955   9.235  0.0942  0.0271 -0.6081
   39MOL0     C 5029   1.328   8.039   9.111  0.5383  0.0447  0.0011
   39MOL0     C 5030   1.242   7.963   9.007  0.6437 -0.7006 -0.2937
   39MOL0     C 5031   1.306   7.911   8.881 -0.4820 -0.3323  0.2297
   39MOL0     C 5032   1.194   7.860   8.789 -0.3575  0.9907 -1.0944
   39MOL0     N 5033   1.263   7.850   8.658 -0.7897 -1.1196  0.4424
   39MOL0     C 5034   1.212   7.920   8.552  0.5190 -0.2131  0.0422
   39MOL0     C 5035   1.295   7.885   8.452 -0.1495 -0.5204  0.7313
   39MOL0     C 5036   1.281   7.930   8.305  0.8800  0.9760 -0.7918
   39MOL0     C 5037   1.125   7.923   8.261 -0.4229 -0.2861  0.2970
   39MOL0     C 5038   1.056   7.781   8.278  0.8089 -0.8920 -0.8096
   39MOL0     C 5039   0.908   7.777   8.248 -0.5002  0.0452  0.0877
   39MOL0     O 5040   0.848   7.860   8.351  0.0383 -0.8274  0.3060
   39MOL0     C 5041   0.713   7.843   8.366 -0.0858 -0.5029 -0.6101
   39MOL0     C 5042   0.623   7.800   8.263  0.0717 -0.4798  0.3465
   39MOL0     C 5043   0.483   7.788   8.289 -0.0030  0.3704 -0.5495
   39MOL0     C 5044   0.431   7.825   8.419 -0.8871  0.4322  0.7398
   39MOL0     C 5045   0.283   7.839   8.434 -0.1211  0.6828 -0.5646
   39MOL0     O 5046   0.211   7.823   8.325 -0.6093  0.4814  0.2473
   39MOL0     C 5047   0.079   7.860   8.317 -0.2707  0.0178  0.0469
   39MOL0     C 5048  -0.022   7.799   8.396 -0.0164 -0.1082 -0.2533
   39MOL0     C 5049  -0.154   7.846   8.387  0.2027 -0.9798 -0.2301
   39MOL0     C 5050  -0.184   7.961   8.312 -0.1539  0.5063 -0.2114
   39MOL0     O 5051  -0.307   8.016   8.301  0.7803  0.1806 -0.5317
   39MOL0     C 5052  -0.422   7.940   8.335  0.5533 -0.9338 -0.3549
   39MOL0     C 5053  -0.532   8.047   8.352 -0.2060  0.1083 -0.6392
   39MOL0     C 5054  -0.664   7.996   8.399  1.0209  0.1291  0.2402
   39MOL0     C 5055  -0.675   7.944   8.546 -0.3219 -0.2100 -0.2577
   39MOL0     C 5056  -0.632   8.049   8.651 -0.4252  0.0614 -0.4447
   39MOL0     C 5057  -0.713   8.178   8.663 -0.3412  0.6051 -0.6576
   39MOL0     C 5058  -0.858   8.145   8.694 -0.0399  0.0451 -0.4476
   39MOL0     C 5059  -0.882   8.072   8.830 -0.1864  0.0120  0.3894
   39MOL0    Cl 5060  -1.038   7.975   8.831 -0.1404 -0.2061 -0.1925
   39MOL0     C 5061  -0.079   8.022   8.242  0.5493  0.0004  0.6093
   39MOL0     C 5062   0.050   7.970   8.248  0.6139  0.0303  0.1986
   39MOL0     O 5063   0.240   7.867   8.547 -0.3498 -0.2644 -0.0579
   39MOL0     C 5064   0.521   7.868   8.514  1.2346  0.4316  0.4915
   39MOL0     C 5065   0.654   7.882   8.490 -0.6973  0.2813 -0.5235
   39MOL0     N 5066   1.389   7.789   8.489 -0.7329  0.6033  0.8938
   39MOL0     N 5067   1.366   7.771   8.615 -0.0472 -0.0726  0.0705
   39MOL0     C 5068   0.868   7.843   9.599 -0.5088 -0.4507  0.3045
   39MOL0     C 5069   0.737   7.860   9.652  0.0627 -0.5042 -0.0587
   39MOL0     C 5070   0.377   8.127   9.757 -0.4640  0.3494  0.5236
   39MOL0     C 5071   0.303   8.247   9.735 -1.1117 -0.0258  0.1855
   39MOL0     C 5072   0.170   8.244   9.774 -0.8650 -0.0917  0.3617
   39MOL0     C 5073   0.111   8.133   9.835  0.1028 -0.2946 -0.1819
   39MOL0     O 5074  -0.019   8.137   9.879  1.0361 -0.4011  0.8094
   39MOL0     C 5075  -0.079   8.262   9.909 -0.0896  0.6762 -0.4916
   39MOL0     C 5076  -0.233   8.235   9.922  0.7388  0.3865 -0.3016
   39MOL0     C 5077  -0.281   8.154   9.798 -0.2639 -1.1070 -0.0747
   39MOL0     C 5078  -0.291   7.998   9.818 -0.1374 -0.3378  0.9209
   39MOL0     C 5079  -0.423   7.954   9.879 -0.0828 -0.7753  0.5474
   39MOL0     C 5080  -0.527   7.934   9.936 -0.4260 -0.1999 -0.2204
   39MOL0     C 5081   0.184   8.018   9.856 -0.2542  0.6627 -0.1113
   39MOL0     C 5082   0.315   8.013   9.817 -0.4049 -0.1346 -0.6228
   39MOL0     H 5083   0.788   8.159   9.809 -0.2239  1.4014 -1.1903
   39MOL0     H 5084   1.022   8.115   9.718  0.9610 -1.9440 -0.3971
   39MOL0     H 5085   1.077   7.751   9.462 -0.5956 -0.4073  0.8661
   39MOL0     H 5086   1.178   7.716   9.598  0.2359 -2.9891 -1.6400
   39MOL0     H 5087   1.307   7.733   9.412  1.3019  0.1454  0.5341
   39MOL0     H 5088   1.354   7.869   9.511  0.9812 -0.5718 -1.9496
   39MOL0     H 5089   1.203   8.018   9.372 -0.2827  0.2896 -0.2514
   39MOL0     H 5090   1.158   7.868   9.278 -0.0585 -3.1424  4.0194
   39MOL0     H 5091   1.420   8.016   9.299 -1.2720  1.9704 -1.0278
   39MOL0     H 5092   1.411   7.868   9.197  0.2480 -0.4877  0.7376
   39MOL0     H 5093   1.421   8.067   9.061  0.9781  0.8956  1.2666
   39MOL0     H 5094   1.286   8.136   9.138 -1.1477  0.4085 -3.3714
   39MOL0     H 5095   1.171   8.040   8.974 -0.5892 -2.2358 -1.3763
   39MOL0     H 5096   1.192   7.882   9.061  0.7232  0.9794  2.5026
   39MOL0     H 5097   1.370   7.978   8.822  2.2573 -3.3863 -0.5431
   39MOL0     H 5098   1.364   7.822   8.907  0.0739 -0.2334 -0.6183
   39MOL0     H 5099   1.115   7.935   8.776 -1.2515  0.3998  0.5896
   39MOL0     H 5100   1.159   7.765   8.830  2.4280  0.8576  1.3036
   39MOL0     H 5101   1.124   7.983   8.541  0.2678 -0.6460 -0.5059
   39MOL0     H 5102   1.335   7.856   8.246 -1.5191 -0.2495 -1.6047
   39MOL0     H 5103   1.329   8.026   8.286  5.8017 -0.7606  1.3141
   39MOL0     H 5104   1.127   7.951   8.155 -0.5997 -0.0750  0.3471
   39MOL0     H 5105   1.066   7.998   8.315 -0.9993 -1.5303  1.4544
   39MOL0     H 5106   1.115   7.714   8.215  2.9751 -0.8829  1.0919
   39MOL0     H 5107   1.082   7.746   8.378  1.3947  1.6600  0.0214
   39MOL0     H 5108   0.866   7.679   8.272 -3.7604  1.4251  0.6952
   39MOL0     H 5109   0.879   7.814   8.149  0.0085  2.6711  0.8250
   39MOL0     H 5110   0.647   7.789   8.158 -1.2887  0.3286 -0.0768
   39MOL0     H 5111   0.413   7.768   8.209 -0.8807  0.0164  0.2736
   39MOL0     H 5112   0.001   7.707   8.450  0.4480 -0.4068 -0.9516
   39MOL0     H 5113  -0.222   7.774   8.431 -0.0482 -0.1752  0.7462
   39MOL0     H 5114  -0.410   7.896   8.434  0.6403 -0.0142  0.0505
   39MOL0     H 5115  -0.441   7.873   8.251 -1.8061 -1.6533  0.6759
   39MOL0     H 5116  -0.553   8.090   8.253 -1.5692  2.2548  0.5009
   39MOL0     H 5117  -0.492   8.119   8.424 -1.5102 -1.0940  1.3810
   39MOL0     H 5118  -0.703   7.910   8.344  0.0251  1.0684 -0.5826
   39MOL0     H 5119  -0.738   8.074   8.377  0.7957 -0.7061 -2.4202
   39MOL0     H 5120  -0.782   7.928   8.561 -1.0428  2.4909 -1.7545
   39MOL0     H 5121  -0.623   7.848   8.553 -0.9741 -0.9530 -3.7772
   39MOL0     H 5122  -0.525   8.064   8.630 -0.2697  2.5221  1.6444
   39MOL0     H 5123  -0.629   8.003   8.750  1.1281  2.9720  0.9612
   39MOL0     H 5124  -0.720   8.223   8.564 -0.4783 -0.2418 -1.0446
   39MOL0     H 5125  -0.665   8.245   8.734 -0.7493 -1.0301  1.2669
   39MOL0     H 5126  -0.915   8.238   8.705  1.9401  1.4003 -1.2347
   39MOL0     H 5127  -0.902   8.087   8.612 -0.4011  0.2870 -0.4287
   39MOL0     H 5128  -0.881   8.151   8.905  2.8427  2.0784 -1.6298
   39MOL0     H 5129  -0.798   8.006   8.850 -0.8703 -0.8096  0.6015
   39MOL0     H 5130  -0.109   8.114   8.194 -1.4041 -1.2468 -0.7241
   39MOL0     H 5131   0.129   8.028   8.202  0.0552  1.0688  0.5268
   39MOL0     H 5132   0.491   7.900   8.613  0.7135 -0.6658  0.7005
   39MOL0     H 5133   0.714   7.928   8.568 -0.2521  0.7828 -1.1473
   39MOL0     H 5134   0.882   7.752   9.542  0.8173 -2.0101  2.9508
   39MOL0     H 5135   0.657   7.788   9.653  0.9445 -1.5314 -0.8768
   39MOL0     H 5136   0.354   8.335   9.698  1.8016 -1.7441 -0.2196
   39MOL0     H 5137   0.122   8.341   9.774 -0.3815  0.1561  0.6917
   39MOL0     H 5138  -0.068   8.339   9.832  0.4687  0.2049 -0.8853
   39MOL0     H 5139  -0.032   8.301  10.000  2.7494 -0.8145 -1.2129
   39MOL0     H 5140  -0.267   8.186  10.014 -4.9888  0.7939 -1.8325
   39MOL0     H 5141  -0.291   8.327   9.929  1.8522  1.0361  0.6128
   39MOL0     H 5142  -0.214   8.177   9.714  0.9598  3.3391  1.8178
   39MOL0     H 5143  -0.375   8.192   9.756  0.6270  0.1783 -0.9952
   39MOL0     H 5144  -0.291   7.954   9.718 -0.6251  0.1653  0.6905
   39MOL0     H 5145  -0.205   7.957   9.870  0.3410 -2.5091 -1.4013
   39MOL0     H 5146  -0.618   7.937   9.992  0.4884  0.0941  1.3020
   39MOL0     H 5147   0.134   7.935   9.905  2.9357 -0.3955  1.6021
   39MOL0     H 5148   0.364   7.921   9.847 -1.7686  0.0173  2.3846
   40MOL0     O 5149   2.365   8.568   7.312 -0.3168  0.1097  0.3980
   40MOL0     C 5150   2.416   8.455   7.326  0.2592 -0.1523  0.3964
   40MOL0     O 5151   2.356   8.334   7.293 -0.6028  0.2684 -0.3407
   40MOL0     C 5152   2.230   8.345   7.251 -0.2897 -0.1802 -0.0438
   40MOL0     C 5153   2.123   8.344   7.344  0.7488 -0.9403  0.1191
   40MOL0     C 5154   1.989   8.371   7.298 -0.3164  0.3863  0.5393
   40MOL0     C 5155   1.965   8.370   7.155 -0.6254  0.3767  0.5554
   40MOL0     O 5156   1.839   8.369   7.090 -0.8673  0.2061  0.4329
   40MOL0     C 5157   1.721   8.318   7.155  0.7603 -0.1434 -0.7625
   40MOL0     C 5158   1.636   8.444   7.190  0.0380 -0.9237  0.9475
   40MOL0     C 5159   1.510   8.419   7.272  0.5917 -0.4994 -0.1032
   40MOL0     C 5160   1.543   8.411   7.417  0.3448  0.2504  0.0007
   40MOL0     C 5161   1.433   8.347   7.508 -0.3854 -0.0636 -0.9019
   40MOL0     C 5162   1.430   8.410   7.650 -0.3232  0.2351  0.4051
   40MOL0     C 5163   1.300   8.385   7.722  1.2880  0.2143 -0.7734
   40MOL0     C 5164   1.291   8.245   7.792 -0.1033 -0.7274 -0.1499
   40MOL0     N 5165   1.179   8.205   7.872  0.5890  0.4767  0.4248
   40MOL0     C 5166   1.139   8.254   7.995 -0.6866  0.0958  0.4190
   40MOL0     C 5167   1.021   8.190   8.019 -0.2395 -0.0466 -0.1563
   40MOL0     C 5168   0.931   8.206   8.140  0.5470 -0.5906 -0.2449
   40MOL0     C 5169   0.784   8.243   8.092 -0.5073  0.5920 -0.1261
   40MOL0     C 5170   0.699   8.277   8.213 -0.0597  0.3538 -0.5590
   40MOL0     C 5171   0.634   8.160   8.286 -0.1021 -0.0240  0.0370
   40MOL0     O 5172   0.502   8.141   8.227  0.6635  0.1921 -0.3568
   40MOL0     C 5173   0.387   8.197   8.286  0.3317 -0.5574 -0.2825
   40MOL0     C 5174   0.360   8.212   8.427  0.7541  0.0381  0.9003
   40MOL0     C 5175   0.233   8.275   8.457 -0.9456  0.2195  0.1438
   40MOL0     C 5176   0.149   8.324   8.353  0.0236  0.0872  0.1447
   40MOL0     C 5177   0.018   8.377   8.388 -0.2368 -0.4128 -0.0538
   40MOL0     O 5178  -0.017   8.363   8.522 -0.3495 -0.4242 -0.1705
   40MOL0     C 5179  -0.144   8.398   8.552  0.1581  0.5582  0.1568
   40MOL0     C 5180  -0.256   8.326   8.519  0.6255  0.3985 -0.3594
   40MOL0     C 5181  -0.386   8.375   8.539 -0.4485  0.3719  0.4073
   40MOL0     C 5182  -0.397   8.496   8.608  0.6690  0.3515 -0.4698
   40MOL0     O 5183  -0.523   8.525   8.644  0.8041 -0.6117 -0.1876
   40MOL0     C 5184  -0.568   8.667   8.648 -0.2029  0.5174 -0.5186
   40MOL0     C 5185  -0.691   8.698   8.729  0.0234 -0.8791 -0.2686
   40MOL0     C 5186  -0.817   8.608   8.688 -0.5690 -0.4584 -0.8693
   40MOL0     C 5187  -0.938   8.651   8.771 -0.2471 -0.3112  0.5975
   40MOL0     C 5188  -1.070   8.618   8.703  0.3459  0.0104 -0.2562
   40MOL0     C 5189  -1.091   8.470   8.700 -0.3354  0.4953 -0.5190
   40MOL0     C 5190  -1.239   8.414   8.697 -0.0491  0.4988 -0.0051
   40MOL0     C 5191  -1.310   8.425   8.559 -0.2219 -0.3237  0.0267
   40MOL0    Cl 5192  -1.449   8.318   8.543  0.0240  0.1566 -0.0041
   40MOL0     C 5193  -0.292   8.555   8.656 -0.2668 -0.0718  0.6892
   40MOL0     C 5194  -0.160   8.517   8.625  0.9589 -0.1070  0.4649
   40MOL0     O 5195  -0.055   8.415   8.292  0.0386  0.2022  0.6521
   40MOL0     C 5196   0.178   8.305   8.219 -0.1340  0.7686 -0.3967
   40MOL0     C 5197   0.304   8.248   8.192  0.6652  0.3607 -0.0379
   40MOL0     N 5198   1.002   8.108   7.907  1.5021  0.2728 -0.1159
   40MOL0     N 5199   1.092   8.120   7.816  0.0246 -0.8205  0.0009
   40MOL0     C 5200   2.076   8.372   7.064  0.7594 -0.6956 -0.6630
   40MOL0     C 5201   2.206   8.357   7.114 -0.6196 -0.2251 -0.6424
   40MOL0     C 5202   2.544   8.442   7.394 -0.3695  0.6982  0.9279
   40MOL0     C 5203   2.601   8.316   7.408 -0.7090 -0.5764  1.4890
   40MOL0     C 5204   2.729   8.304   7.462 -0.5481  0.3281  0.1765
   40MOL0     C 5205   2.789   8.418   7.515  0.3802 -0.0033  0.6501
   40MOL0     O 5206   2.909   8.405   7.576 -0.0858  0.6029  0.1472
   40MOL0     C 5207   3.032   8.466   7.520 -0.6825 -0.1183 -0.4492
   40MOL0     C 5208   3.051   8.428   7.375  0.5750  0.4547 -0.4186
   40MOL0     C 5209   3.199   8.449   7.318  0.1116  0.5372  1.0073
   40MOL0     C 5210   3.308   8.381   7.402  0.4076 -0.0601 -0.6310
   40MOL0     C 5211   3.436   8.372   7.329 -0.2823  0.4463 -0.1476
   40MOL0     C 5212   3.546   8.352   7.280  0.7201  0.5195 -0.6372
   40MOL0     C 5213   2.728   8.545   7.519 -0.8682  0.7335 -0.7230
   40MOL0     C 5214   2.605   8.557   7.452  0.1607  0.8683  0.1103
   40MOL0     H 5215   2.125   8.326   7.451 -2.1386 -1.1717  0.2260
   40MOL0     H 5216   1.911   8.384   7.372 -1.5335 -2.4388 -0.0995
   40MOL0     H 5217   1.752   8.272   7.249 -1.2603  0.0680  0.0474
   40MOL0     H 5218   1.658   8.250   7.097 -2.9855  1.7875  0.6925
   40MOL0     H 5219   1.623   8.484   7.089  3.5294 -4.1461 -1.0833
   40MOL0     H 5220   1.698   8.519   7.238  0.2722 -1.7461  1.9596
   40MOL0     H 5221   1.468   8.322   7.245  0.3183 -0.4354  0.0881
   40MOL0     H 5222   1.441   8.499   7.244 -0.0259 -0.9472  0.1247
   40MOL0     H 5223   1.636   8.353   7.422  1.8321  2.5816  0.9311
   40MOL0     H 5224   1.574   8.512   7.441  1.7990  0.5588 -2.7979
   40MOL0     H 5225   1.464   8.243   7.520 -2.3718 -0.6188 -0.1854
   40MOL0     H 5226   1.335   8.358   7.461 -0.7615  2.4649  0.3058
   40MOL0     H 5227   1.438   8.518   7.638 -1.5116  0.3688  0.7069
   40MOL0     H 5228   1.520   8.384   7.706 -0.0231  2.6923  1.1639
   40MOL0     H 5229   1.301   8.466   7.795 -0.9722 -0.7942  0.4897
   40MOL0     H 5230   1.213   8.392   7.655  0.6269  0.8584  0.1217
   40MOL0     H 5231   1.369   8.234   7.869  0.7928  2.1226 -0.5123
   40MOL0     H 5232   1.295   8.175   7.709 -3.6846 -0.6556 -0.5047
   40MOL0     H 5233   1.193   8.331   8.049  0.7983 -1.0218  0.5850
   40MOL0     H 5234   0.970   8.274   8.216 -1.9718  0.1857  0.4710
   40MOL0     H 5235   0.921   8.113   8.196 -2.2345  0.2862  0.9171
   40MOL0     H 5236   0.742   8.156   8.042 -0.1677 -0.1014  0.7794
   40MOL0     H 5237   0.780   8.331   8.027  0.4873  1.5051  1.0005
   40MOL0     H 5238   0.770   8.314   8.287  1.1688 -2.5205 -0.1774
   40MOL0     H 5239   0.614   8.341   8.188 -0.6183  0.4206  1.3044
   40MOL0     H 5240   0.627   8.158   8.395  1.2870 -2.7399  0.1638
   40MOL0     H 5241   0.702   8.074   8.278  1.2926  1.1522 -1.3613
   40MOL0     H 5242   0.430   8.172   8.499  1.5816 -0.7240 -0.2922
   40MOL0     H 5243   0.195   8.271   8.559  0.0907  2.9936  0.7292
   40MOL0     H 5244  -0.259   8.225   8.480 -2.8437 -0.1541  1.0017
   40MOL0     H 5245  -0.469   8.311   8.511 -0.1579  0.4171 -0.5896
   40MOL0     H 5246  -0.589   8.699   8.546 -1.3838 -0.2412 -0.5338
   40MOL0     H 5247  -0.481   8.726   8.676  2.2317 -2.6853 -0.8242
   40MOL0     H 5248  -0.717   8.803   8.712  0.4557 -0.4293  1.6764
   40MOL0     H 5249  -0.670   8.683   8.835  2.5955 -1.5943 -0.8195
   40MOL0     H 5250  -0.796   8.503   8.709  1.4705  0.2680  1.1297
   40MOL0     H 5251  -0.832   8.615   8.580 -3.1364  0.2995 -0.5387
   40MOL0     H 5252  -0.938   8.602   8.869  2.0986 -1.6890 -0.0175
   40MOL0     H 5253  -0.939   8.760   8.782  1.6443 -0.2191  0.0846
   40MOL0     H 5254  -1.074   8.647   8.597 -3.5510 -0.6597 -0.4525
   40MOL0     H 5255  -1.155   8.664   8.753 -0.3187 -2.1234  0.7160
   40MOL0     H 5256  -1.046   8.435   8.793 -1.0702 -0.3596 -0.4697
   40MOL0     H 5257  -1.038   8.426   8.615 -0.8727  1.1773 -1.2250
   40MOL0     H 5258  -1.245   8.311   8.732  0.4982  0.7613  0.9118
   40MOL0     H 5259  -1.296   8.473   8.770 -0.4514  1.6179 -1.2002
   40MOL0     H 5260  -1.238   8.412   8.478  0.1815 -3.2540  0.7202
   40MOL0     H 5261  -1.342   8.529   8.552  3.2662  1.0616  2.0052
   40MOL0     H 5262  -0.298   8.648   8.712 -2.2352 -0.3916  1.0586
   40MOL0     H 5263  -0.073   8.562   8.670  0.3431  2.6065 -0.8289
   40MOL0     H 5264   0.125   8.334   8.128  1.4209  0.9129 -1.2861
   40MOL0     H 5265   0.339   8.232   8.090  2.5995 -0.8025  0.7369
   40MOL0     H 5266   2.048   8.374   6.959 -1.9691  2.4810 -0.0345
   40MOL0     H 5267   2.293   8.354   7.051 -1.1473 -0.2045 -1.3854
   40MOL0     H 5268   2.562   8.224   7.363  2.8364 -1.6828  0.3394
   40MOL0     H 5269   2.773   8.205   7.471 -0.4221  0.3387 -0.3324
   40MOL0     H 5270   3.116   8.447   7.588 -1.9304 -2.0019  0.6472
   40MOL0     H 5271   3.021   8.575   7.525  1.8894  0.1828  0.6096
   40MOL0     H 5272   3.017   8.325   7.357  0.3786  0.8257 -2.3453
   40MOL0     H 5273   2.983   8.498   7.327 -1.1285 -0.6484  0.2644
   40MOL0     H 5274   3.220   8.557   7.311 -0.2999  0.5692  0.1674
   40MOL0     H 5275   3.189   8.408   7.217 -1.2977  0.5374  1.1351
   40MOL0     H 5276   3.322   8.431   7.499 -0.0669 -1.3422  0.1249
   40MOL0     H 5277   3.276   8.280   7.427  2.4657 -0.0169  2.8421
   40MOL0     H 5278   3.628   8.333   7.214  0.1219  1.8560 -1.8351
   40MOL0     H 5279   2.781   8.630   7.560  0.7246 -1.2213  1.5188
   40MOL0     H 5280   2.560   8.656   7.448 -0.4515  0.5749 -2.8191
   41MOL0     O 5281   6.653   6.373   5.772  0.5270  0.1706 -0.3281
   41MOL0     C 5282   6.640   6.330   5.888 -0.6459 -0.1100  0.0927
   41MOL0     O 5283   6.519   6.294   5.949 -0.4135  0.0685 -0.0657
   41MOL0     C 5284   6.395   6.319   5.895 -1.5481 -0.9355 -0.4160
   41MOL0     C 5285   6.281   6.246   5.927 -0.7103  0.7068  0.0649
   41MOL0     C 5286   6.159   6.262   5.870  0.0879 -0.4927 -0.0625
   41MOL0     C 5287   6.142   6.357   5.771  0.1549  0.0315 -0.3361
   41MOL0     O 5288   6.011   6.369   5.738 -0.3449 -0.3628  0.0476
   41MOL0     C 5289   5.969   6.500   5.708  0.1955 -0.0122  0.2770
   41MOL0     C 5290   5.826   6.499   5.692 -0.5124  0.0167  0.0971
   41MOL0     C 5291   5.785   6.435   5.557  0.3485 -1.3719 -0.7294
   41MOL0     C 5292   5.644   6.497   5.505 -1.0252 -0.5108  0.3688
   41MOL0     C 5293   5.635   6.477   5.353  0.0766 -0.9698  0.9717
   41MOL0     C 5294   5.590   6.341   5.318 -0.0753 -0.0412 -0.3461
   41MOL0     C 5295   5.443   6.307   5.364 -0.9883 -0.4331  0.1197
   41MOL0     C 5296   5.368   6.246   5.245  0.7985  0.2018 -0.3450
   41MOL0     N 5297   5.225   6.273   5.250 -0.1400  0.6019 -0.2382
   41MOL0     C 5298   5.140   6.297   5.358  0.4836 -0.2776 -0.5615
   41MOL0     C 5299   5.021   6.318   5.303 -0.1882  0.5170  0.1895
   41MOL0     C 5300   4.892   6.344   5.384 -0.8316 -0.2541  0.1324
   41MOL0     C 5301   4.837   6.211   5.445  0.3412 -0.6505 -0.7812
   41MOL0     C 5302   4.758   6.127   5.341 -0.2256 -0.5812  0.5597
   41MOL0     C 5303   4.686   6.013   5.413  0.0874 -0.2407  0.3457
   41MOL0     O 5304   4.599   6.062   5.513  0.2137 -0.1453 -0.1972
   41MOL0     C 5305   4.473   6.111   5.488  0.7507  0.0036 -0.1845
   41MOL0     C 5306   4.401   6.124   5.366  0.0663 -0.1748 -0.7113
   41MOL0     C 5307   4.270   6.169   5.373  0.3318  0.8905  0.6604
   41MOL0     C 5308   4.203   6.210   5.490 -0.8277  1.2773  0.6381
   41MOL0     C 5309   4.069   6.262   5.486 -1.2753 -0.2886  0.7918
   41MOL0     O 5310   3.998   6.255   5.602  0.2578 -0.1806 -0.2476
   41MOL0     C 5311   3.866   6.289   5.612  0.0977 -0.2606 -0.9286
   41MOL0     C 5312   3.780   6.342   5.514 -0.2444 -0.1690  0.2144
   41MOL0     C 5313   3.644   6.353   5.549 -0.3020  0.2452  0.2934
   41MOL0     C 5314   3.596   6.336   5.678  0.0172 -0.5549 -0.2164
   41MOL0     O 5315   3.463   6.380   5.694  0.3135 -0.3944  0.5016
   41MOL0     C 5316   3.422   6.400   5.831 -0.2010  0.8543 -0.1972
   41MOL0     C 5317   3.273   6.448   5.842 -0.5947 -0.0857  0.3503
   41MOL0     C 5318   3.264   6.600   5.827 -0.1099  0.2992  0.9859
   41MOL0     C 5319   3.110   6.631   5.803  0.1599 -0.7228 -0.6209
   41MOL0     C 5320   3.093   6.766   5.742  0.1114 -0.4555  0.2123
   41MOL0     C 5321   2.958   6.829   5.791  0.2237 -0.6801  0.3250
   41MOL0     C 5322   2.838   6.748   5.743  0.7850  0.3909  0.1958
   41MOL0     C 5323   2.709   6.821   5.757 -0.4647 -1.1397 -0.0306
   41MOL0    Cl 5324   2.649   6.803   5.932 -0.1644 -0.5167  0.2046
   41MOL0     C 5325   3.681   6.301   5.775 -0.2470 -0.0130  0.2280
   41MOL0     C 5326   3.819   6.274   5.745  0.5068  0.5419 -0.3757
   41MOL0     O 5327   4.025   6.311   5.379  0.2397  0.6199 -0.0662
   41MOL0     C 5328   4.275   6.201   5.610  0.2206  0.8447 -0.0726
   41MOL0     C 5329   4.402   6.143   5.610 -0.2749 -0.4959  0.0491
   41MOL0     N 5330   5.031   6.304   5.166 -0.1589  0.2868  0.0161
   41MOL0     N 5331   5.149   6.273   5.134  0.1371 -0.7053  0.3413
   41MOL0     C 5332   6.247   6.435   5.737  0.6622 -1.0367  0.3625
   41MOL0     C 5333   6.375   6.420   5.798  0.1935  0.2262  0.4870
   41MOL0     C 5334   6.752   6.271   5.948  0.1034 -0.1327 -0.5166
   41MOL0     C 5335   6.771   6.270   6.089  0.2106 -0.4781 -0.5103
   41MOL0     C 5336   6.884   6.219   6.150  0.1878 -0.8737 -0.0119
   41MOL0     C 5337   6.990   6.170   6.075 -0.5481 -0.3610  0.1191
   41MOL0     O 5338   7.102   6.127   6.142  0.0660 -0.0413 -0.3217
   41MOL0     C 5339   7.215   6.062   6.076  0.9935 -0.7836 -0.5419
   41MOL0     C 5340   7.174   5.910   6.063 -0.4438 -0.6785  0.5150
   41MOL0     C 5341   7.292   5.828   6.011  0.7380  0.0228  0.2148
   41MOL0     C 5342   7.261   5.678   6.028 -0.3757  0.1141 -1.0569
   41MOL0     C 5343   7.381   5.599   6.008  0.0600 -0.1085  0.8337
   41MOL0     C 5344   7.491   5.544   5.986  0.1174  0.8365 -0.2165
   41MOL0     C 5345   6.975   6.172   5.931  0.9035 -0.5414  0.0278
   41MOL0     C 5346   6.858   6.217   5.868  0.0749 -1.6902 -1.1335
   41MOL0     H 5347   6.269   6.168   6.001 -4.4373 -0.5716 -1.6550
   41MOL0     H 5348   6.071   6.211   5.908  0.5500 -1.7197 -0.5932
   41MOL0     H 5349   6.021   6.550   5.626 -0.1401  1.5544  0.9767
   41MOL0     H 5350   6.003   6.566   5.788 -0.3421  0.2562  0.2910
   41MOL0     H 5351   5.794   6.604   5.698 -0.6311  0.0374 -0.7636
   41MOL0     H 5352   5.772   6.450   5.773 -2.5300  3.2734  0.8954
   41MOL0     H 5353   5.777   6.326   5.571 -0.0591 -1.1251  1.3057
   41MOL0     H 5354   5.857   6.451   5.476 -0.0448 -1.7786 -1.1683
   41MOL0     H 5355   5.561   6.457   5.564 -0.9980  0.9929  1.4871
   41MOL0     H 5356   5.640   6.604   5.526 -3.0618 -0.5061  0.1825
   41MOL0     H 5357   5.727   6.491   5.297 -0.2480 -1.2009  0.3684
   41MOL0     H 5358   5.562   6.551   5.319 -0.2695 -0.7857  2.0682
   41MOL0     H 5359   5.662   6.266   5.353  0.0063 -0.4672 -1.4079
   41MOL0     H 5360   5.584   6.337   5.209  1.0561  0.8728 -0.4682
   41MOL0     H 5361   5.437   6.241   5.451  0.4229 -0.5992  0.1179
   41MOL0     H 5362   5.394   6.400   5.395 -3.8197 -1.5711 -0.6114
   41MOL0     H 5363   5.382   6.139   5.261 -1.1549 -0.0755 -0.1555
   41MOL0     H 5364   5.403   6.272   5.145  0.9089  1.4079 -0.0149
   41MOL0     H 5365   5.165   6.297   5.464 -0.7268  2.4574 -0.1891
   41MOL0     H 5366   4.814   6.381   5.317 -2.2011 -2.6669  0.2729
   41MOL0     H 5367   4.914   6.415   5.464 -3.1655 -0.0375  0.6579
   41MOL0     H 5368   4.773   6.249   5.525  0.8907 -1.0000 -0.1688
   41MOL0     H 5369   4.914   6.151   5.495 -0.8863 -1.7093 -0.1262
   41MOL0     H 5370   4.693   6.185   5.275 -0.3636 -0.9017  0.4104
   41MOL0     H 5371   4.826   6.082   5.267 -2.1527 -1.9172 -0.4766
   41MOL0     H 5372   4.761   5.949   5.460 -0.0268 -1.4285 -1.0068
   41MOL0     H 5373   4.625   5.958   5.341 -0.7910 -0.0363  0.9240
   41MOL0     H 5374   4.449   6.099   5.272 -1.0974  0.8329 -1.6090
   41MOL0     H 5375   4.211   6.169   5.282 -0.4178  3.8652  1.0602
   41MOL0     H 5376   3.806   6.373   5.413 -0.7528 -1.6354 -0.4027
   41MOL0     H 5377   3.585   6.401   5.471  4.1542  2.0338 -2.3518
   41MOL0     H 5378   3.473   6.487   5.875 -0.9961  1.6015 -0.7147
   41MOL0     H 5379   3.433   6.314   5.898  0.0222  1.6218  0.7779
   41MOL0     H 5380   3.228   6.422   5.938  1.4879  2.2981  2.1198
   41MOL0     H 5381   3.222   6.388   5.767 -0.0365  0.9985 -0.9425
   41MOL0     H 5382   3.320   6.617   5.735 -0.1405  0.7899  1.0515
   41MOL0     H 5383   3.308   6.640   5.919  0.1456  0.4230  0.8122
   41MOL0     H 5384   3.063   6.565   5.730  2.8708  0.6142 -3.8240
   41MOL0     H 5385   3.053   6.621   5.896  1.9947 -0.8446  0.5429
   41MOL0     H 5386   3.095   6.762   5.633  2.2910  1.4181  0.1019
   41MOL0     H 5387   3.183   6.825   5.766 -0.4385  2.0697 -3.2370
   41MOL0     H 5388   2.952   6.937   5.771  1.8528 -0.5655  0.3186
   41MOL0     H 5389   2.953   6.827   5.901 -0.0724  2.7254  0.5099
   41MOL0     H 5390   2.851   6.745   5.634  1.4229  0.3293  0.2704
   41MOL0     H 5391   2.831   6.654   5.797  3.7403  0.7815  1.4433
   41MOL0     H 5392   2.639   6.763   5.696  0.2614 -3.2608  1.0383
   41MOL0     H 5393   2.720   6.926   5.731  1.9401 -0.3807  3.3620
   41MOL0     H 5394   3.661   6.288   5.881  0.4323 -0.2294  0.3342
   41MOL0     H 5395   3.887   6.249   5.826  3.4885  2.2427 -2.1836
   41MOL0     H 5396   4.230   6.236   5.702 -0.2175  0.8895 -0.3013
   41MOL0     H 5397   4.465   6.145   5.699  1.6838 -0.7926 -1.2687
   41MOL0     H 5398   6.241   6.511   5.659  0.4815 -0.2826  1.0915
   41MOL0     H 5399   6.454   6.483   5.758  1.1763 -1.1090  0.2788
   41MOL0     H 5400   6.683   6.292   6.147  0.0966  0.0072 -0.8528
   41MOL0     H 5401   6.897   6.223   6.258 -1.5043 -0.0267  0.1922
   41MOL0     H 5402   7.295   6.084   6.147 -0.9352  0.6794  1.3204
   41MOL0     H 5403   7.249   6.109   5.983 -1.1674  1.2310 -0.4092
   41MOL0     H 5404   7.156   5.872   6.165  1.0523 -1.8660  0.3747
   41MOL0     H 5405   7.077   5.901   6.012 -0.9969  0.9906  1.2255
   41MOL0     H 5406   7.383   5.853   6.066 -1.6625  3.9286  2.9345
   41MOL0     H 5407   7.304   5.847   5.904 -1.8347  0.2768 -0.0797
   41MOL0     H 5408   7.209   5.649   6.120 -3.8543  2.9148 -1.9022
   41MOL0     H 5409   7.186   5.652   5.953  0.3434 -0.8553 -1.4601
   41MOL0     H 5410   7.584   5.491   5.981  0.6733  1.9016 -2.0448
   41MOL0     H 5411   7.059   6.146   5.867  3.0233  1.0118  2.0004
   41MOL0     H 5412   6.856   6.210   5.760 -1.8579 -1.1408 -1.1638
   42MOL0     O 5413   0.698   3.851   6.012  0.2943  0.2816  0.8339
   42MOL0     C 5414   0.755   3.851   6.123 -1.0042  0.8254  0.1156
   42MOL0     O 5415   0.693   3.837   6.247  0.6386 -0.0601 -0.2469
   42MOL0     C 5416   0.558   3.835   6.274  0.7674 -0.4728 -0.4503
   42MOL0     C 5417   0.461   3.836   6.179  0.0221  0.0851  0.2599
   42MOL0     C 5418   0.328   3.849   6.205 -0.8138 -0.3796  0.5867
   42MOL0     C 5419   0.288   3.839   6.334 -1.2370 -0.5398 -0.1193
   42MOL0     O 5420   0.158   3.851   6.370 -0.3270  0.0148  0.1327
   42MOL0     C 5421   0.046   3.847   6.275  0.4475  0.2860 -0.4162
   42MOL0     C 5422  -0.078   3.901   6.353 -0.8998  0.4843 -0.8567
   42MOL0     C 5423  -0.188   3.959   6.266  0.7401  0.1590 -0.2211
   42MOL0     C 5424  -0.278   4.056   6.341  0.0637 -0.1783  0.0735
   42MOL0     C 5425  -0.370   4.136   6.239 -0.3686  0.3865  0.0569
   42MOL0     C 5426  -0.469   4.053   6.165  0.2924  0.0137 -0.6882
   42MOL0     C 5427  -0.573   4.133   6.078 -1.0694 -0.2627 -0.1360
   42MOL0     C 5428  -0.607   4.273   6.136 -0.1618  0.1948  0.5717
   42MOL0     N 5429  -0.733   4.340   6.093  0.4046 -0.1020  0.8510
   42MOL0     C 5430  -0.853   4.283   6.083  0.3709 -0.1825 -1.3399
   42MOL0     C 5431  -0.940   4.378   6.045 -0.1481  0.2100 -0.3596
   42MOL0     C 5432  -1.090   4.378   6.038 -0.0004 -0.0660  0.6849
   42MOL0     C 5433  -1.143   4.503   6.097  0.3122  0.7654 -0.3496
   42MOL0     C 5434  -1.159   4.497   6.250 -0.5776  0.3374 -0.1555
   42MOL0     C 5435  -1.238   4.624   6.289  0.1635  1.0606  0.3148
   42MOL0     O 5436  -1.383   4.590   6.289 -0.2444  0.4918  0.3359
   42MOL0     C 5437  -1.479   4.688   6.305 -0.2148  0.4790  0.1893
   42MOL0     C 5438  -1.463   4.822   6.273  0.0954 -0.4593  0.1076
   42MOL0     C 5439  -1.562   4.919   6.302  0.4634  0.2846 -0.1009
   42MOL0     C 5440  -1.693   4.879   6.367  0.0538  0.2423  0.1032
   42MOL0     C 5441  -1.778   4.986   6.411 -0.4367 -0.2233 -0.4605
   42MOL0     O 5442  -1.900   4.951   6.464 -0.1409  0.2510 -0.9279
   42MOL0     C 5443  -1.989   5.041   6.501  0.0820  0.0865 -0.0959
   42MOL0     C 5444  -2.037   5.136   6.415  0.0356  0.4760  0.6182
   42MOL0     C 5445  -2.136   5.223   6.455  0.6137 -0.0341  0.4824
   42MOL0     C 5446  -2.200   5.210   6.584 -0.2629  0.1144  0.1429
   42MOL0     O 5447  -2.308   5.279   6.632 -0.4211  1.1572 -0.3045
   42MOL0     C 5448  -2.375   5.374   6.551  0.3285 -0.2484  0.3436
   42MOL0     C 5449  -2.461   5.471   6.641 -0.0069  1.0313 -0.1862
   42MOL0     C 5450  -2.557   5.546   6.567 -0.2782  0.0642  0.3020
   42MOL0     C 5451  -2.639   5.642   6.644  0.2110  0.6268  0.6552
   42MOL0     C 5452  -2.730   5.727   6.557 -0.2753 -0.2808 -0.9267
   42MOL0     C 5453  -2.664   5.818   6.452 -0.7130  1.0991  1.1933
   42MOL0     C 5454  -2.553   5.914   6.504 -0.4745  0.9360 -1.2651
   42MOL0     C 5455  -2.587   6.003   6.623 -0.2425 -0.0680  0.5092
   42MOL0    Cl 5456  -2.724   6.109   6.551  0.0386  0.0056 -0.3712
   42MOL0     C 5457  -2.147   5.113   6.670  0.5543 -0.8360  0.1543
   42MOL0     C 5458  -2.038   5.038   6.634  0.3794  1.1811  0.3021
   42MOL0     O 5459  -1.737   5.098   6.401 -0.3580 -0.1094  1.1706
   42MOL0     C 5460  -1.715   4.740   6.383 -0.6656 -0.5090 -0.9964
   42MOL0     C 5461  -1.607   4.649   6.357  0.2459  0.3026 -0.9874
   42MOL0     N 5462  -0.863   4.489   6.011 -0.4746  0.0746 -0.7692
   42MOL0     N 5463  -0.739   4.468   6.038 -0.1640 -0.3372 -0.4759
   42MOL0     C 5464   0.389   3.836   6.437 -0.5073  0.0894 -0.1386
   42MOL0     C 5465   0.524   3.833   6.406  0.1145  0.9996  0.6474
   42MOL0     C 5466   0.908   3.838   6.126 -0.1752  0.0052 -0.3881
   42MOL0     C 5467   0.984   3.792   6.018  1.1345  0.9983 -0.6048
   42MOL0     C 5468   1.123   3.769   6.030 -0.4164 -0.1347  0.2765
   42MOL0     C 5469   1.186   3.787   6.152 -0.1417  0.1795  0.8465
   42MOL0     O 5470   1.312   3.744   6.168 -0.1079  0.1520  0.7779
   42MOL0     C 5471   1.401   3.729   6.054 -0.3332 -0.1346  0.0700
   42MOL0     C 5472   1.534   3.707   6.132  0.6861  0.3452  0.1919
   42MOL0     C 5473   1.628   3.811   6.110 -0.7652  0.0410  0.0349
   42MOL0     C 5474   1.701   3.841   6.240 -0.2314  0.3159 -0.6820
   42MOL0     C 5475   1.763   3.720   6.304 -0.5661  0.5630  0.1973
   42MOL0     C 5476   1.803   3.618   6.352  0.3496 -0.1807  0.1494
   42MOL0     C 5477   1.115   3.822   6.266  0.6320 -0.2205 -0.9246
   42MOL0     C 5478   0.977   3.851   6.252 -0.5299  0.0637  0.7176
   42MOL0     H 5479   0.481   3.835   6.072  1.9802 -1.4349  0.5895
   42MOL0     H 5480   0.251   3.851   6.128 -3.2002  2.5354  2.8101
   42MOL0     H 5481   0.009   3.749   6.244  1.1694  0.2739 -1.2850
   42MOL0     H 5482   0.056   3.902   6.182 -0.6590 -1.5460 -1.6962
   42MOL0     H 5483  -0.035   3.976   6.420  1.9153 -0.5431 -1.3791
   42MOL0     H 5484  -0.114   3.825   6.423  0.0041  0.1208 -0.7645
   42MOL0     H 5485  -0.256   3.885   6.224 -2.8911  2.8218  0.4877
   42MOL0     H 5486  -0.136   4.008   6.182 -0.6907 -1.2145 -1.9960
   42MOL0     H 5487  -0.345   4.005   6.411  1.3427 -2.7213 -0.4587
   42MOL0     H 5488  -0.225   4.124   6.408  0.3045  0.2881 -0.5727
   42MOL0     H 5489  -0.309   4.185   6.162 -1.3198  2.9817  0.8351
   42MOL0     H 5490  -0.427   4.219   6.283  1.2134  1.4414  0.2006
   42MOL0     H 5491  -0.533   4.011   6.243  1.2117  0.1833  0.1764
   42MOL0     H 5492  -0.410   3.979   6.109  3.6782  1.9269  0.0503
   42MOL0     H 5493  -0.519   4.153   5.985 -0.0452 -1.9768  0.0416
   42MOL0     H 5494  -0.656   4.064   6.059  1.0835 -2.4906 -2.1274
   42MOL0     H 5495  -0.521   4.336   6.113 -1.6172  1.3461 -2.2343
   42MOL0     H 5496  -0.618   4.267   6.245  0.2692  1.1378  0.6755
   42MOL0     H 5497  -0.885   4.180   6.094  1.5356 -0.5776 -1.4623
   42MOL0     H 5498  -1.125   4.295   6.100 -1.5359  0.9543  1.2345
   42MOL0     H 5499  -1.126   4.378   5.935 -0.4766 -0.7928  0.8459
   42MOL0     H 5500  -1.242   4.525   6.056 -0.8791 -1.0122  1.4033
   42MOL0     H 5501  -1.089   4.597   6.081 -1.5752  2.0045  0.3252
   42MOL0     H 5502  -1.212   4.409   6.288 -1.2717 -0.4139 -2.6595
   42MOL0     H 5503  -1.058   4.505   6.292  0.1596  0.4431 -1.8555
   42MOL0     H 5504  -1.208   4.704   6.220 -1.2454  0.3734 -1.1724
   42MOL0     H 5505  -1.208   4.650   6.390  2.1431  0.0819  0.0246
   42MOL0     H 5506  -1.373   4.855   6.222 -0.8076  1.5317 -0.2934
   42MOL0     H 5507  -1.530   5.023   6.300 -0.6303  0.6247 -0.2526
   42MOL0     H 5508  -2.001   5.142   6.313 -0.4462  0.8614  0.4652
   42MOL0     H 5509  -2.178   5.286   6.377 -0.9054 -0.3565  1.0253
   42MOL0     H 5510  -2.445   5.324   6.484 -0.2868 -1.0262  1.5321
   42MOL0     H 5511  -2.306   5.441   6.499 -0.8387 -0.2768 -1.3068
   42MOL0     H 5512  -2.400   5.540   6.700  1.2259  0.1960 -0.4298
   42MOL0     H 5513  -2.497   5.407   6.721  2.4915 -0.3649 -0.0720
   42MOL0     H 5514  -2.626   5.467   6.535 -0.3250  0.1855  0.1077
   42MOL0     H 5515  -2.512   5.608   6.489 -1.1088  0.2943  0.0028
   42MOL0     H 5516  -2.694   5.568   6.704 -3.2230 -2.6049 -5.5047
   42MOL0     H 5517  -2.585   5.713   6.707 -0.7326  2.7771 -0.8760
   42MOL0     H 5518  -2.798   5.787   6.618 -0.4668 -2.2421  0.8814
   42MOL0     H 5519  -2.799   5.658   6.506 -1.6656  0.3095  0.0940
   42MOL0     H 5520  -2.747   5.869   6.402  0.3338  1.1677 -0.5115
   42MOL0     H 5521  -2.627   5.751   6.375 -5.1840 -0.5596  0.1756
   42MOL0     H 5522  -2.468   5.850   6.529 -2.6051 -1.6247 -0.1098
   42MOL0     H 5523  -2.530   5.966   6.410  1.9409  2.4028  0.0512
   42MOL0     H 5524  -2.499   6.053   6.664  0.0715 -0.1422 -0.0679
   42MOL0     H 5525  -2.637   5.951   6.706 -0.1800 -0.0427  0.5632
   42MOL0     H 5526  -2.181   5.102   6.772 -0.8625 -0.3317 -0.2452
   42MOL0     H 5527  -1.997   4.963   6.701  0.1301  0.4803 -0.3105
   42MOL0     H 5528  -1.811   4.709   6.424 -0.1432  0.4416  1.0386
   42MOL0     H 5529  -1.627   4.550   6.396 -1.9150  1.1992  0.3409
   42MOL0     H 5530   0.354   3.831   6.539 -0.8820  0.3297 -0.2535
   42MOL0     H 5531   0.606   3.836   6.477 -0.1160  0.6975  0.9315
   42MOL0     H 5532   0.939   3.776   5.920  1.7622  2.1798 -1.1002
   42MOL0     H 5533   1.176   3.740   5.940  0.9224 -0.1324  1.0371
   42MOL0     H 5534   1.391   3.810   5.981 -1.6671 -2.4962 -2.5403
   42MOL0     H 5535   1.363   3.639   6.007  1.5628 -0.6553 -0.5580
   42MOL0     H 5536   1.517   3.697   6.240  2.7641 -1.2502  0.4313
   42MOL0     H 5537   1.556   3.603   6.105 -0.1265 -1.4815  5.2760
   42MOL0     H 5538   1.584   3.906   6.076  1.4408  1.1635  0.1215
   42MOL0     H 5539   1.696   3.785   6.029  0.1173  0.0102  0.7712
   42MOL0     H 5540   1.781   3.916   6.231  1.3669 -1.1310  0.6680
   42MOL0     H 5541   1.632   3.879   6.314  1.7159 -0.8861  1.9117
   42MOL0     H 5542   1.841   3.527   6.395 -0.8058 -1.7113 -1.8660
   42MOL0     H 5543   1.160   3.827   6.365 -5.0210  1.9135  2.0152
   42MOL0     H 5544   0.923   3.895   6.336 -0.7476  2.7699 -0.7334
   43MOL0     O 5545   3.204  11.127  10.951 -0.3741  0.5436 -0.2656
   43MOL0     C 5546   3.214  11.166  11.070 -0.2360 -0.3606 -0.1350
   43MOL0     O 5547   3.106  11.163  11.162  0.3890  0.6200  0.0446
   43MOL0     C 5548   2.994  11.094  11.131 -0.0451  0.1396  1.6893
   43MOL0     C 5549   2.999  10.960  11.143  0.2057 -0.1140 -0.1452
   43MOL0     C 5550   2.895  10.868  11.114  0.4240 -0.7929 -0.3103
   43MOL0     C 5551   2.777  10.913  11.063 -0.2425  0.3197 -0.0896
   43MOL0     O 5552   2.684  10.821  11.025 -0.1134  0.3318  0.3390
   43MOL0     C 5553   2.550  10.864  11.054  0.3947  0.0787  0.6706
   43MOL0     C 5554   2.450  10.748  11.049 -0.2658 -0.3646 -0.0258
   43MOL0     C 5555   2.310  10.799  11.064  0.6717  0.4037 -0.1177
   43MOL0     C 5556   2.200  10.689  11.094 -0.6279  0.1316  0.1168
   43MOL0     C 5557   2.061  10.739  11.090 -0.1019 -0.1079 -0.9861
   43MOL0     C 5558   1.968  10.621  11.118  0.4000 -0.3306  0.5148
   43MOL0     C 5559   1.818  10.665  11.131 -1.0365  0.4667 -0.2343
   43MOL0     C 5560   1.716  10.559  11.169 -0.2469 -0.0325  0.0942
   43MOL0     N 5561   1.707  10.447  11.071 -0.7854 -0.2355  0.6938
   43MOL0     C 5562   1.664  10.455  10.944  0.3477 -0.3020  0.4260
   43MOL0     C 5563   1.643  10.332  10.898  0.1945  0.1720 -0.2793
   43MOL0     C 5564   1.568  10.311  10.774 -0.1696  0.1714  0.3577
   43MOL0     C 5565   1.637  10.382  10.655 -0.1233  0.0182 -0.3096
   43MOL0     C 5566   1.583  10.351  10.516  0.2679  0.1699  0.2415
   43MOL0     C 5567   1.457  10.435  10.484 -0.0685 -0.0702  0.0599
   43MOL0     O 5568   1.437  10.454  10.341  0.5384 -0.2612  0.2108
   43MOL0     C 5569   1.317  10.498  10.292  0.8124  0.0666  0.1746
   43MOL0     C 5570   1.212  10.553  10.368 -0.4926 -0.4221 -0.5994
   43MOL0     C 5571   1.103  10.607  10.308  0.3891 -0.8898 -1.2285
   43MOL0     C 5572   1.079  10.607  10.169  0.2829  1.0965 -0.1049
   43MOL0     C 5573   0.960  10.685  10.119 -0.7462 -0.1730 -0.2953
   43MOL0     O 5574   0.875  10.741  10.205  0.0691  0.2537  0.1642
   43MOL0     C 5575   0.779  10.823  10.160 -0.1865 -0.0436  0.0829
   43MOL0     C 5576   0.649  10.797  10.176  0.4866  1.2393 -1.0642
   43MOL0     C 5577   0.550  10.897  10.168 -0.3885  0.1362  1.3679
   43MOL0     C 5578   0.593  11.028  10.128  0.3722  0.3384  0.0725
   43MOL0     O 5579   0.507  11.134  10.125  0.2613  0.8288  0.2821
   43MOL0     C 5580   0.437  11.154   9.998  0.1245 -0.6819 -0.2419
   43MOL0     C 5581   0.346  11.274  10.037 -0.0847  0.8973  0.0915
   43MOL0     C 5582   0.436  11.392  10.048  0.3906  0.2110 -0.4544
   43MOL0     C 5583   0.361  11.524  10.065  0.3280  0.3802 -0.1847
   43MOL0     C 5584   0.427  11.641   9.986 -0.1004 -0.7200 -0.3241
   43MOL0     C 5585   0.340  11.774   9.999 -0.7561  0.6094  0.1757
   43MOL0     C 5586   0.193  11.763   9.944 -0.0778 -0.2894 -0.7273
   43MOL0     C 5587   0.186  11.698   9.803  0.2432 -0.7714  0.5631
   43MOL0    Cl 5588   0.019  11.699   9.749  0.0511 -0.4654 -0.4703
   43MOL0     C 5589   0.726  11.060  10.097 -0.3458 -0.0476  0.1154
   43MOL0     C 5590   0.820  10.954  10.113  1.4931  0.6091 -0.3411
   43MOL0     O 5591   0.958  10.713   9.999  0.4717 -0.3240  0.8417
   43MOL0     C 5592   1.175  10.546  10.092  0.3725  0.6467  0.1554
   43MOL0     C 5593   1.300  10.498  10.154 -0.3855 -0.2501  0.7147
   43MOL0     N 5594   1.681  10.245  10.997 -0.0931  0.1113  0.5059
   43MOL0     N 5595   1.722  10.313  11.097 -0.1804  0.4576 -0.2769
   43MOL0     C 5596   2.764  11.060  11.050 -0.1179  0.8442  0.3745
   43MOL0     C 5597   2.869  11.150  11.092  0.7346 -0.2422 -0.7403
   43MOL0     C 5598   3.346  11.217  11.110  0.1394  0.0317  0.5527
   43MOL0     C 5599   3.375  11.244  11.241 -0.7017  0.5332 -0.5572
   43MOL0     C 5600   3.509  11.269  11.290  0.5017  0.2761 -0.7414
   43MOL0     C 5601   3.610  11.268  11.199 -1.0036 -0.1914  0.5227
   43MOL0     O 5602   3.742  11.290  11.241 -0.0040 -0.2726  0.0821
   43MOL0     C 5603   3.805  11.172  11.301  0.1700 -0.4389 -0.2762
   43MOL0     C 5604   3.955  11.195  11.332 -0.1059  0.2251  0.0947
   43MOL0     C 5605   4.036  11.238  11.212  0.8312 -0.8839  0.5133
   43MOL0     C 5606   4.190  11.209  11.240 -0.4617 -0.7008 -0.8590
   43MOL0     C 5607   4.244  11.323  11.320  0.6697  0.3381  0.1993
   43MOL0     C 5608   4.297  11.408  11.385  0.3419  0.4653 -0.0945
   43MOL0     C 5609   3.585  11.252  11.065  0.8230  0.1779 -0.3875
   43MOL0     C 5610   3.456  11.219  11.014 -0.2649  1.3728 -1.0263
   43MOL0     H 5611   3.094  10.912  11.163  0.1431  0.0733  0.6139
   43MOL0     H 5612   2.907  10.761  11.122  2.5744 -0.5808 -0.0470
   43MOL0     H 5613   2.524  10.942  10.982  0.5822 -1.6204 -1.3244
   43MOL0     H 5614   2.537  10.903  11.155  0.1933  1.1630  0.2346
   43MOL0     H 5615   2.476  10.679  11.130 -0.6582 -1.1061 -0.5260
   43MOL0     H 5616   2.460  10.698  10.952  0.7772  0.0627 -0.1561
   43MOL0     H 5617   2.283  10.839  10.966  1.2058  1.1649  0.0276
   43MOL0     H 5618   2.306  10.880  11.138  0.6574  0.0915  0.2242
   43MOL0     H 5619   2.214  10.604  11.028  0.8253 -1.0289  1.8103
   43MOL0     H 5620   2.221  10.649  11.194  0.0666  1.8082  0.6858
   43MOL0     H 5621   2.056  10.797  10.998  2.7989  0.3968 -0.9181
   43MOL0     H 5622   2.039  10.813  11.167  0.4744 -1.5739  0.6624
   43MOL0     H 5623   2.001  10.561  11.203 -0.1516 -0.2154  0.8178
   43MOL0     H 5624   1.986  10.544  11.042  1.2430 -1.6028  1.9515
   43MOL0     H 5625   1.816  10.747  11.203 -0.1557  0.3297 -0.0452
   43MOL0     H 5626   1.781  10.696  11.032 -0.3881 -1.6543 -1.1888
   43MOL0     H 5627   1.617  10.604  11.182 -1.6577 -2.7884 -0.3339
   43MOL0     H 5628   1.745  10.516  11.265  3.6600  2.3471  0.1914
   43MOL0     H 5629   1.631  10.539  10.885  2.6028  0.2990 -0.0630
   43MOL0     H 5630   1.468  10.353  10.781 -0.2388  0.1883 -0.5664
   43MOL0     H 5631   1.564  10.202  10.762  2.4627  0.2261 -2.0093
   43MOL0     H 5632   1.745  10.361  10.653  0.1375  1.3017 -1.0535
   43MOL0     H 5633   1.625  10.488  10.681 -1.8996 -0.2470  0.0661
   43MOL0     H 5634   1.654  10.366  10.434  1.7962 -1.4093  1.1986
   43MOL0     H 5635   1.553  10.246  10.510  1.6010 -0.3018  1.2632
   43MOL0     H 5636   1.475  10.530  10.536  1.1797 -0.3672  0.2156
   43MOL0     H 5637   1.368  10.384  10.521  1.8521 -3.9183 -0.0561
   43MOL0     H 5638   1.228  10.562  10.475 -1.7188 -0.7641 -0.3738
   43MOL0     H 5639   1.029  10.651  10.374  2.7601  1.8467 -0.2257
   43MOL0     H 5640   0.630  10.702  10.225 -2.2416  1.7860 -0.9063
   43MOL0     H 5641   0.447  10.882  10.198 -1.6770  0.9397 -2.1328
   43MOL0     H 5642   0.367  11.072   9.979 -0.7081 -1.5534  5.0245
   43MOL0     H 5643   0.504  11.172   9.913 -0.2185  0.0613 -0.3686
   43MOL0     H 5644   0.289  11.251  10.127 -0.4533 -0.7511 -0.5280
   43MOL0     H 5645   0.264  11.295   9.967 -0.6512 -0.2274  0.3995
   43MOL0     H 5646   0.492  11.402   9.955 -1.6406  1.4290 -1.6104
   43MOL0     H 5647   0.505  11.390  10.133 -0.8282  2.3716  0.6679
   43MOL0     H 5648   0.258  11.509  10.033  1.5718 -2.7437 -3.3717
   43MOL0     H 5649   0.360  11.558  10.169  0.1306  1.4886 -0.5365
   43MOL0     H 5650   0.440  11.609   9.883  1.5475  0.8560 -0.6639
   43MOL0     H 5651   0.522  11.652  10.040 -0.5130 -1.4557  0.5767
   43MOL0     H 5652   0.395  11.856   9.953  0.6251 -0.9836 -1.1365
   43MOL0     H 5653   0.323  11.804  10.103  3.9523 -2.1363  2.0372
   43MOL0     H 5654   0.132  11.695  10.003  1.1717  0.3469  1.4071
   43MOL0     H 5655   0.161  11.868   9.941  1.7054  0.4646  2.3457
   43MOL0     H 5656   0.228  11.598   9.810  0.4132 -0.8791 -1.4501
   43MOL0     H 5657   0.255  11.749   9.735 -1.5400  1.2861  0.1828
   43MOL0     H 5658   0.744  11.160  10.059  1.5340  0.2601  1.6305
   43MOL0     H 5659   0.924  10.970  10.085  1.2815  1.3205 -0.7475
   43MOL0     H 5660   1.144  10.532   9.989  1.3915 -0.8856  0.0223
   43MOL0     H 5661   1.371  10.459  10.082  0.8930  3.5262 -0.3284
   43MOL0     H 5662   2.665  11.093  11.023 -2.4386 -2.9045  3.2726
   43MOL0     H 5663   2.845  11.256  11.098 -1.7488 -0.8140  4.4598
   43MOL0     H 5664   3.293  11.216  11.306  0.2951 -1.1800  0.0232
   43MOL0     H 5665   3.526  11.283  11.396 -1.9742  3.4373 -0.5938
   43MOL0     H 5666   3.799  11.090  11.230  0.6237  0.7106 -1.6914
   43MOL0     H 5667   3.747  11.135  11.386 -0.2393 -2.4503 -1.3715
   43MOL0     H 5668   3.958  11.273  11.408 -0.5175 -1.6187  2.0983
   43MOL0     H 5669   3.986  11.096  11.368 -2.3795 -0.2680  0.8191
   43MOL0     H 5670   4.028  11.346  11.194 -1.5865 -1.2975 -1.4977
   43MOL0     H 5671   3.995  11.203  11.117 -0.3292  0.6757  0.3980
   43MOL0     H 5672   4.209  11.116  11.296  1.7964 -2.1207 -3.7072
   43MOL0     H 5673   4.242  11.198  11.145  0.9437  1.4945 -0.4274
   43MOL0     H 5674   4.328  11.496  11.438  2.8800  0.4613 -1.4284
   43MOL0     H 5675   3.665  11.262  10.991  0.0464  1.1903 -1.1191
   43MOL0     H 5676   3.443  11.187  10.911 -4.6597  0.4929 -0.4119
   44MOL0     O 5677   0.790   1.571   2.555 -0.1393  0.0778  0.2417
   44MOL0     C 5678   0.807   1.650   2.657 -0.0942  1.3622  0.7598
   44MOL0     O 5679   0.717   1.743   2.700  0.5521  0.0748 -0.3132
   44MOL0     C 5680   0.577   1.736   2.673  0.4698 -0.0316  0.2441
   44MOL0     C 5681   0.500   1.772   2.786  0.5053 -0.2123  0.3824
   44MOL0     C 5682   0.364   1.781   2.778  0.4934  0.1227 -0.0257
   44MOL0     C 5683   0.297   1.763   2.647 -0.1428  0.0233 -0.5011
   44MOL0     O 5684   0.164   1.772   2.616  0.4747  0.0126 -0.3574
   44MOL0     C 5685   0.063   1.763   2.724 -1.4771  0.2997  0.2037
   44MOL0     C 5686  -0.086   1.792   2.685  1.0329 -0.2207  0.1333
   44MOL0     C 5687  -0.185   1.812   2.796  0.5740 -0.0400 -0.7009
   44MOL0     C 5688  -0.321   1.851   2.740 -0.0141  0.2010 -0.2702
   44MOL0     C 5689  -0.429   1.862   2.850  0.4161 -0.5388  0.9032
   44MOL0     C 5690  -0.561   1.911   2.784  0.1575  0.2844  0.1598
   44MOL0     C 5691  -0.660   1.956   2.888  0.1654 -0.2503 -0.5387
   44MOL0     C 5692  -0.718   1.835   2.962 -0.3977 -0.1188 -0.9650
   44MOL0     N 5693  -0.827   1.866   3.059 -0.0019 -0.3241  0.1156
   44MOL0     C 5694  -0.953   1.918   3.029 -0.7995  0.7446  0.0787
   44MOL0     C 5695  -1.025   1.906   3.150 -0.9523  0.0074 -1.2676
   44MOL0     C 5696  -1.167   1.948   3.167  0.3384 -0.8202  0.7871
   44MOL0     C 5697  -1.197   2.075   3.085  0.8549 -0.1781  0.0391
   44MOL0     C 5698  -1.340   2.121   3.125  0.4255  0.2253 -0.1264
   44MOL0     C 5699  -1.349   2.274   3.106  0.3536  0.2125  0.0714
   44MOL0     O 5700  -1.485   2.311   3.107  0.1611 -0.7241  0.0587
   44MOL0     C 5701  -1.550   2.343   3.224  0.4402 -1.0673  0.3999
   44MOL0     C 5702  -1.498   2.319   3.349  0.9493 -0.1354  0.3524
   44MOL0     C 5703  -1.576   2.340   3.462 -0.3396 -0.3343  0.2343
   44MOL0     C 5704  -1.716   2.375   3.445 -0.5727  0.1174  0.0710
   44MOL0     C 5705  -1.805   2.383   3.560  0.0049 -0.7675  0.2184
   44MOL0     O 5706  -1.932   2.416   3.534 -0.4342 -0.2892 -0.3546
   44MOL0     C 5707  -2.027   2.403   3.631 -0.6218 -0.4814 -0.9722
   44MOL0     C 5708  -2.126   2.497   3.618  0.6015 -0.2791  0.1109
   44MOL0     C 5709  -2.236   2.504   3.708 -0.1770  0.5716  0.1211
   44MOL0     C 5710  -2.245   2.417   3.808  0.5926  0.7542 -0.3992
   44MOL0     O 5711  -2.361   2.439   3.886  0.6359  0.1512  0.6758
   44MOL0     C 5712  -2.381   2.337   3.986 -0.9011 -0.2811 -0.1316
   44MOL0     C 5713  -2.520   2.358   4.041  0.7868 -0.8357 -0.3995
   44MOL0     C 5714  -2.519   2.302   4.185 -0.5522 -0.6173 -0.2935
   44MOL0     C 5715  -2.655   2.254   4.234 -0.1967  0.5775  0.3161
   44MOL0     C 5716  -2.776   2.361   4.242 -0.0359  0.0242  0.4162
   44MOL0     C 5717  -2.737   2.482   4.314 -0.1380 -0.1523  0.1029
   44MOL0     C 5718  -2.860   2.571   4.335  0.2397  0.1285  0.1616
   44MOL0     C 5719  -2.953   2.510   4.438  0.3990  0.5724  0.8291
   44MOL0    Cl 5720  -2.902   2.517   4.609  0.0627  0.5888  0.4477
   44MOL0     C 5721  -2.151   2.309   3.822 -0.2351  0.8598 -0.9280
   44MOL0     C 5722  -2.042   2.297   3.731 -0.4271 -0.0686 -0.2037
   44MOL0     O 5723  -1.769   2.359   3.671  0.3720  0.2822  0.1323
   44MOL0     C 5724  -1.765   2.401   3.309  0.0612 -0.3240  1.1070
   44MOL0     C 5725  -1.681   2.387   3.202 -0.6134 -0.4179  0.2806
   44MOL0     N 5726  -0.946   1.846   3.244  0.3724 -0.0735 -0.3482
   44MOL0     N 5727  -0.830   1.823   3.188 -0.2216 -1.1464 -0.2804
   44MOL0     C 5728   0.386   1.738   2.537 -0.4570  0.2476 -0.0847
   44MOL0     C 5729   0.522   1.719   2.547 -0.7127  1.1049  0.1963
   44MOL0     C 5730   0.939   1.649   2.723 -0.2132 -1.3506 -0.0578
   44MOL0     C 5731   1.043   1.583   2.679  0.2303 -0.2025 -0.3961
   44MOL0     C 5732   1.168   1.596   2.737 -0.1192  0.1724  0.2563
   44MOL0     C 5733   1.178   1.679   2.852 -0.0907 -0.1879 -0.6683
   44MOL0     O 5734   1.291   1.697   2.920  0.1304 -0.4231  0.5932
   44MOL0     C 5735   1.417   1.675   2.852 -0.1425  0.5069 -0.9444
   44MOL0     C 5736   1.552   1.727   2.920 -0.6713 -0.9673  0.7104
   44MOL0     C 5737   1.556   1.712   3.073 -0.2613  0.2858 -0.5677
   44MOL0     C 5738   1.699   1.753   3.125  0.6943 -0.2247 -0.3581
   44MOL0     C 5739   1.713   1.699   3.262  0.3453 -0.5802 -0.4870
   44MOL0     C 5740   1.720   1.666   3.375  1.0383 -0.2938  0.1071
   44MOL0     C 5741   1.076   1.743   2.906 -0.0409  0.1138 -0.6353
   44MOL0     C 5742   0.950   1.726   2.842 -0.0315 -1.1265 -0.1192
   44MOL0     H 5743   0.545   1.773   2.885 -2.3786 -2.7442  1.8605
   44MOL0     H 5744   0.320   1.789   2.877  2.3851 -0.4159  0.9209
   44MOL0     H 5745   0.087   1.829   2.808  2.0492 -1.2981  0.6049
   44MOL0     H 5746   0.071   1.662   2.765 -1.1050 -0.0007 -0.5866
   44MOL0     H 5747  -0.130   1.714   2.623  1.4264 -0.5432  0.2575
   44MOL0     H 5748  -0.082   1.888   2.633 -2.5244 -0.3035 -0.5612
   44MOL0     H 5749  -0.147   1.888   2.865  0.0158 -0.0013 -0.4303
   44MOL0     H 5750  -0.207   1.728   2.863 -3.6460  2.5170  1.6152
   44MOL0     H 5751  -0.313   1.946   2.686  0.8030 -0.8806 -2.1312
   44MOL0     H 5752  -0.346   1.778   2.662 -3.2617 -0.9051  1.6300
   44MOL0     H 5753  -0.396   1.935   2.925 -0.2017  1.3395 -0.5775
   44MOL0     H 5754  -0.435   1.764   2.898 -2.0938  0.0832  1.9909
   44MOL0     H 5755  -0.604   1.833   2.720  1.8552  1.1071 -2.1469
   44MOL0     H 5756  -0.534   1.993   2.717 -1.0730  0.9794  0.4875
   44MOL0     H 5757  -0.612   2.010   2.970  2.2285  0.2311 -1.9863
   44MOL0     H 5758  -0.744   2.006   2.840 -1.2218 -1.3651  0.6310
   44MOL0     H 5759  -0.637   1.787   3.017 -0.8187  0.9680  0.7026
   44MOL0     H 5760  -0.758   1.760   2.894 -0.3321  0.7700 -2.0082
   44MOL0     H 5761  -0.997   1.946   2.934  0.9097 -1.3183 -1.4163
   44MOL0     H 5762  -1.182   1.977   3.272  0.7415 -3.1254  1.5557
   44MOL0     H 5763  -1.235   1.865   3.146 -0.0179 -0.1478 -0.8736
   44MOL0     H 5764  -1.183   2.047   2.980 -0.0171 -0.5197  0.0078
   44MOL0     H 5765  -1.124   2.153   3.112  0.4616 -0.2199  1.2877
   44MOL0     H 5766  -1.413   2.071   3.061  0.9545  0.9781 -1.3764
   44MOL0     H 5767  -1.363   2.100   3.230  1.8702  0.3444  0.2337
   44MOL0     H 5768  -1.308   2.308   3.010 -0.3063  3.1859  0.7692
   44MOL0     H 5769  -1.286   2.332   3.173  1.7474  1.2639 -2.0432
   44MOL0     H 5770  -1.395   2.286   3.359 -0.1172 -3.5357  1.7326
   44MOL0     H 5771  -1.539   2.343   3.564 -1.6795  0.1286  0.7335
   44MOL0     H 5772  -2.121   2.563   3.532  0.0281 -0.1663  0.1589
   44MOL0     H 5773  -2.319   2.569   3.683 -0.4508  0.1419 -0.1037
   44MOL0     H 5774  -2.310   2.370   4.062 -1.0285  2.4192 -1.0714
   44MOL0     H 5775  -2.365   2.236   3.947 -3.9757 -0.8717 -0.1106
   44MOL0     H 5776  -2.595   2.300   3.987 -2.5117  1.1362  1.7344
   44MOL0     H 5777  -2.547   2.462   4.062  4.0065  0.0316 -0.0683
   44MOL0     H 5778  -2.482   2.382   4.249 -2.5844 -1.0255  1.5114
   44MOL0     H 5779  -2.440   2.227   4.194  0.4803  0.2944 -1.3647
   44MOL0     H 5780  -2.687   2.161   4.187  1.5863 -0.3825  0.9009
   44MOL0     H 5781  -2.640   2.225   4.338  1.1184 -0.3053 -0.0888
   44MOL0     H 5782  -2.859   2.315   4.297  0.7169 -1.0428  0.6855
   44MOL0     H 5783  -2.813   2.371   4.139  0.5444 -0.8897  0.1080
   44MOL0     H 5784  -2.667   2.526   4.242  0.2350  0.9033  1.0848
   44MOL0     H 5785  -2.689   2.452   4.407 -0.6011  3.4721  1.6808
   44MOL0     H 5786  -2.832   2.668   4.376  0.7958 -1.1505  3.1073
   44MOL0     H 5787  -2.906   2.598   4.240 -0.3627  3.6893  1.3285
   44MOL0     H 5788  -2.994   2.414   4.406 -4.8509  1.9991  2.3907
   44MOL0     H 5789  -3.044   2.569   4.444 -0.7246 -0.5162 -2.8132
   44MOL0     H 5790  -2.152   2.239   3.904 -3.1444  1.9763  0.1151
   44MOL0     H 5791  -1.967   2.220   3.745  0.3417  0.7466  0.3256
   44MOL0     H 5792  -1.872   2.420   3.301  0.3336  1.7581  1.6913
   44MOL0     H 5793  -1.714   2.412   3.101  0.3737 -1.0204 -0.1975
   44MOL0     H 5794   0.337   1.725   2.441 -0.1896 -0.4415 -0.1360
   44MOL0     H 5795   0.576   1.687   2.459 -1.5385 -0.6198  0.2642
   44MOL0     H 5796   1.033   1.508   2.602 -0.4254 -2.9431  2.1527
   44MOL0     H 5797   1.252   1.552   2.684 -0.2946  0.7706 -0.5280
   44MOL0     H 5798   1.416   1.719   2.752  1.7087  1.3639 -0.6156
   44MOL0     H 5799   1.427   1.566   2.847  0.1884  0.5299 -0.7758
   44MOL0     H 5800   1.632   1.657   2.893 -0.1913 -0.5915  1.1242
   44MOL0     H 5801   1.576   1.826   2.880  0.2963 -2.0219 -1.4773
   44MOL0     H 5802   1.530   1.609   3.100 -3.9803  0.5348 -2.5587
   44MOL0     H 5803   1.483   1.778   3.121 -1.4678 -2.5040  1.7204
   44MOL0     H 5804   1.777   1.708   3.063  1.6008 -1.0496  1.3051
   44MOL0     H 5805   1.714   1.861   3.120  1.4057 -0.3164 -0.2824
   44MOL0     H 5806   1.713   1.625   3.474  1.0160  0.3989  0.3977
   44MOL0     H 5807   1.086   1.808   2.992  1.0882 -0.4966 -0.2867
   44MOL0     H 5808   0.880   1.802   2.875  0.9976  0.0010 -0.4777
   45MOL0     O 5809   3.123   9.819   6.751  0.1379  0.2094 -0.2003
   45MOL0     C 5810   3.137   9.734   6.667  0.9281  0.4505 -0.3738
   45MOL0     O 5811   3.040   9.659   6.612  0.4764 -0.2133  0.1559
   45MOL0     C 5812   2.912   9.671   6.660 -1.1193  0.2231  0.6911
   45MOL0     C 5813   2.878   9.582   6.757  0.3696  0.0685 -0.3534
   45MOL0     C 5814   2.748   9.579   6.816 -0.3137  0.4538  0.0801
   45MOL0     C 5815   2.652   9.674   6.767 -0.2659 -0.5171 -0.5225
   45MOL0     O 5816   2.526   9.699   6.820  0.0767  0.5943 -0.4126
   45MOL0     C 5817   2.483   9.627   6.933  0.0609  0.4236  0.3397
   45MOL0     C 5818   2.336   9.665   6.965  0.6384  0.1631  0.4316
   45MOL0     C 5819   2.229   9.622   6.868 -0.2359 -0.5096 -0.8180
   45MOL0     C 5820   2.095   9.688   6.911 -0.3585 -0.3060 -0.6525
   45MOL0     C 5821   1.971   9.658   6.819 -0.2527 -0.8468 -0.2840
   45MOL0     C 5822   1.856   9.709   6.905  0.0283  0.6708  0.9187
   45MOL0     C 5823   1.715   9.677   6.841 -0.0685  0.8753 -0.9202
   45MOL0     C 5824   1.612   9.768   6.898  1.2090 -0.0330 -0.4486
   45MOL0     N 5825   1.483   9.738   6.844 -0.0416 -0.3016  0.3891
   45MOL0     C 5826   1.398   9.640   6.891 -0.2066 -0.2198  0.1966
   45MOL0     C 5827   1.282   9.643   6.823 -0.4789 -0.0870 -0.3026
   45MOL0     C 5828   1.163   9.553   6.853  1.1244  1.0135  0.4554
   45MOL0     C 5829   1.069   9.543   6.734  0.3397  0.2424  0.2335
   45MOL0     C 5830   0.954   9.450   6.769  0.5563 -1.0528 -0.2845
   45MOL0     C 5831   0.851   9.455   6.662  0.0698  0.6093 -0.1234
   45MOL0     O 5832   0.742   9.358   6.695 -0.3058 -0.2761 -0.0213
   45MOL0     C 5833   0.636   9.384   6.620 -0.5036  0.8921  0.0007
   45MOL0     C 5834   0.628   9.363   6.482  0.0098 -0.0718 -0.3977
   45MOL0     C 5835   0.507   9.376   6.418  0.5341  0.4370  0.4812
   45MOL0     C 5836   0.394   9.417   6.484  0.1176  0.0810  0.0363
   45MOL0     C 5837   0.264   9.429   6.410 -1.2612 -0.5029  0.7271
   45MOL0     O 5838   0.269   9.464   6.279  0.1907  0.6169 -0.3949
   45MOL0     C 5839   0.151   9.471   6.216  0.5325 -0.2348 -0.1970
   45MOL0     C 5840   0.058   9.569   6.248  0.2969 -0.0331  0.1507
   45MOL0     C 5841  -0.055   9.593   6.181  0.3716  0.7875  0.5882
   45MOL0     C 5842  -0.085   9.499   6.078 -0.1757 -0.0875  0.8653
   45MOL0     O 5843  -0.207   9.507   6.023 -0.0074 -0.0369 -0.0360
   45MOL0     C 5844  -0.327   9.522   6.108  0.3667 -0.2579  0.2159
   45MOL0     C 5845  -0.435   9.453   6.030 -0.6375 -0.1363  0.9377
   45MOL0     C 5846  -0.565   9.446   6.114 -1.4189  0.7724  0.5381
   45MOL0     C 5847  -0.687   9.449   6.020  0.5834 -1.0721 -1.1353
   45MOL0     C 5848  -0.821   9.433   6.107  0.2669 -0.1775 -0.0616
   45MOL0     C 5849  -0.817   9.312   6.199 -0.4389  0.0208  0.3955
   45MOL0     C 5850  -0.949   9.294   6.270  0.7303  0.0086  1.1137
   45MOL0     C 5851  -0.952   9.166   6.359  0.5660 -0.2850 -0.5952
   45MOL0    Cl 5852  -0.967   9.018   6.254 -0.5446 -0.2200 -0.1097
   45MOL0     C 5853  -0.002   9.389   6.045  0.5666  0.6564 -0.5886
   45MOL0     C 5854   0.124   9.378   6.116 -0.2266 -0.9229  0.0703
   45MOL0     O 5855   0.167   9.437   6.485 -0.0629 -0.2738  0.2338
   45MOL0     C 5856   0.401   9.438   6.629  0.3852 -0.2472 -0.3065
   45MOL0     C 5857   0.520   9.416   6.696 -0.6145 -0.0018 -0.1283
   45MOL0     N 5858   1.298   9.743   6.720 -0.2231 -0.4812  0.3017
   45MOL0     N 5859   1.417   9.802   6.732  0.3612  0.6769  0.6296
   45MOL0     C 5860   2.691   9.755   6.659  0.0159  0.3578 -0.8089
   45MOL0     C 5861   2.815   9.752   6.606 -0.3563 -0.2047 -0.2735
   45MOL0     C 5862   3.272   9.724   6.622  0.2218 -0.1680  0.5001
   45MOL0     C 5863   3.381   9.791   6.682  0.3342  0.7484  1.4610
   45MOL0     C 5864   3.513   9.774   6.639  0.7770 -0.2097 -0.3059
   45MOL0     C 5865   3.531   9.689   6.526 -0.6171 -1.0590  0.0404
   45MOL0     O 5866   3.655   9.670   6.466 -0.3509  0.1562  0.4310
   45MOL0     C 5867   3.752   9.770   6.482  0.0995 -0.2942 -0.4061
   45MOL0     C 5868   3.882   9.723   6.413 -0.8685  0.8932  0.0216
   45MOL0     C 5869   3.973   9.841   6.392  0.2102 -0.4491  0.7996
   45MOL0     C 5870   4.108   9.799   6.330  0.0209  0.4043  0.2161
   45MOL0     C 5871   4.186   9.926   6.311  0.3767 -0.0717  0.8850
   45MOL0     C 5872   4.254  10.031   6.302  0.2007  0.8416  0.9626
   45MOL0     C 5873   3.419   9.633   6.458 -0.0970 -0.2332  0.7370
   45MOL0     C 5874   3.299   9.641   6.516 -0.1076  0.4694 -0.5325
   45MOL0     H 5875   2.955   9.519   6.801 -1.8910 -3.4156 -0.9685
   45MOL0     H 5876   2.721   9.516   6.901 -0.2000 -2.0324 -1.6338
   45MOL0     H 5877   2.539   9.656   7.022  0.8627 -0.4092  0.1229
   45MOL0     H 5878   2.500   9.519   6.921  5.0645  0.9589  0.7507
   45MOL0     H 5879   2.328   9.774   6.966 -0.3541  0.0963  1.7912
   45MOL0     H 5880   2.303   9.620   7.059  0.7138 -0.9380 -0.0490
   45MOL0     H 5881   2.207   9.515   6.862 -3.3590 -0.3100  3.0112
   45MOL0     H 5882   2.257   9.656   6.768  0.7475 -0.4376 -0.5256
   45MOL0     H 5883   2.075   9.641   7.008  1.0311  0.0352 -0.1780
   45MOL0     H 5884   2.102   9.794   6.936 -1.2696 -0.8635  2.3773
   45MOL0     H 5885   1.960   9.551   6.796  1.7611 -1.3148  0.6950
   45MOL0     H 5886   1.976   9.708   6.722  0.1847 -2.7913 -1.3115
   45MOL0     H 5887   1.854   9.818   6.916 -0.9496  0.6755  0.7621
   45MOL0     H 5888   1.850   9.663   7.004 -0.4608  2.6610  1.8575
   45MOL0     H 5889   1.699   9.672   6.733 -1.4839  1.9970 -0.7977
   45MOL0     H 5890   1.703   9.579   6.888 -2.3057  1.0723 -1.0170
   45MOL0     H 5891   1.635   9.869   6.864  0.3052 -0.7030 -3.3398
   45MOL0     H 5892   1.600   9.764   7.006  2.4592 -2.6790 -0.3265
   45MOL0     H 5893   1.420   9.584   6.982  1.5200  0.1094  0.0160
   45MOL0     H 5894   1.102   9.598   6.933 -2.5455 -0.0910 -1.5073
   45MOL0     H 5895   1.197   9.456   6.888  1.7803  0.2358 -2.1696
   45MOL0     H 5896   1.122   9.498   6.650 -1.4692  1.9347 -1.9750
   45MOL0     H 5897   1.033   9.640   6.699 -1.4855 -0.9140 -1.3229
   45MOL0     H 5898   0.994   9.349   6.767  2.8676 -0.2217  0.4282
   45MOL0     H 5899   0.901   9.460   6.864  1.3222 -2.1863  0.2805
   45MOL0     H 5900   0.906   9.417   6.575  1.7934 -0.3003  1.3030
   45MOL0     H 5901   0.811   9.557   6.655 -0.4988  0.3638 -0.5846
   45MOL0     H 5902   0.712   9.340   6.417  1.1402 -1.9969  1.6237
   45MOL0     H 5903   0.507   9.356   6.311 -0.5201  0.7356  0.4056
   45MOL0     H 5904   0.078   9.631   6.335 -0.8948 -1.3839  1.4330
   45MOL0     H 5905  -0.123   9.673   6.211 -0.8949 -0.8646  2.3870
   45MOL0     H 5906  -0.362   9.622   6.134  0.0439 -0.3880  0.2866
   45MOL0     H 5907  -0.307   9.473   6.204  0.1990  1.0252  0.9233
   45MOL0     H 5908  -0.402   9.351   6.008 -2.3524 -0.7592  1.1040
   45MOL0     H 5909  -0.463   9.500   5.935  0.9964 -0.5336  0.2170
   45MOL0     H 5910  -0.556   9.538   6.172  0.1934  3.2795 -3.3005
   45MOL0     H 5911  -0.561   9.365   6.188 -3.2845 -2.0669 -2.1936
   45MOL0     H 5912  -0.707   9.542   5.965 -0.5191 -1.1768 -0.9364
   45MOL0     H 5913  -0.688   9.374   5.941 -0.3088 -1.2979 -0.9264
   45MOL0     H 5914  -0.912   9.434   6.047 -1.8072  0.2430  2.8833
   45MOL0     H 5915  -0.814   9.523   6.169 -0.7849 -0.3590  0.3308
   45MOL0     H 5916  -0.736   9.317   6.272 -1.4245  1.4810  1.4743
   45MOL0     H 5917  -0.802   9.227   6.133 -0.3386  0.0138  0.4273
   45MOL0     H 5918  -0.979   9.382   6.328 -1.1961  1.1736 -1.4512
   45MOL0     H 5919  -1.033   9.291   6.200  0.1279  3.7974  1.4387
   45MOL0     H 5920  -1.038   9.166   6.426  3.4054 -1.7908  3.3919
   45MOL0     H 5921  -0.865   9.155   6.424  0.1800 -0.6504 -0.1386
   45MOL0     H 5922  -0.042   9.322   5.969  2.7199 -0.3268 -0.9260
   45MOL0     H 5923   0.194   9.297   6.098  1.7858  0.6996  0.2754
   45MOL0     H 5924   0.319   9.473   6.691 -0.0832  0.8534 -1.5112
   45MOL0     H 5925   0.528   9.429   6.804  0.3874 -1.1955 -0.0444
   45MOL0     H 5926   2.618   9.823   6.615 -3.2158 -2.4832 -0.3160
   45MOL0     H 5927   2.842   9.812   6.520 -1.1859 -1.2089 -1.2720
   45MOL0     H 5928   3.369   9.859   6.766  1.0035 -0.2364  2.3797
   45MOL0     H 5929   3.587   9.830   6.696 -1.8636  2.1644  1.0158
   45MOL0     H 5930   3.770   9.794   6.588 -1.4462 -0.4846 -0.0743
   45MOL0     H 5931   3.718   9.865   6.439  1.8866  0.8306  0.4974
   45MOL0     H 5932   3.930   9.645   6.473  4.6299  2.1270 -2.1311
   45MOL0     H 5933   3.858   9.686   6.314  0.6071  1.3369 -0.5327
   45MOL0     H 5934   3.995   9.890   6.487  0.0237  0.6871  0.2762
   45MOL0     H 5935   3.916   9.905   6.323  1.4190 -2.0222 -1.8467
   45MOL0     H 5936   4.164   9.731   6.395 -1.3645 -1.6239 -0.6428
   45MOL0     H 5937   4.109   9.749   6.233  3.0130  1.6629 -0.5363
   45MOL0     H 5938   4.318  10.115   6.286  1.3103  0.0966  1.3704
   45MOL0     H 5939   3.422   9.587   6.361  3.5191 -1.5748  1.3334
   45MOL0     H 5940   3.222   9.588   6.463  0.0820 -1.0317  0.6235
   46MOL0     O 5941   2.117   8.335   7.689 -0.0267  0.3909 -0.3266
   46MOL0     C 5942   2.119   8.381   7.801 -0.3163  0.6163 -0.0411
   46MOL0     O 5943   2.035   8.337   7.896 -0.5738  1.1547 -0.1457
   46MOL0     C 5944   1.930   8.248   7.881  0.1195  0.9913  0.9227
   46MOL0     C 5945   1.884   8.176   7.987 -0.2750 -0.1852 -0.6366
   46MOL0     C 5946   1.766   8.093   7.987 -0.2934  0.3222 -0.2797
   46MOL0     C 5947   1.691   8.081   7.860  0.1455  0.7730 -0.7332
   46MOL0     O 5948   1.571   8.017   7.848  0.6709 -0.1815 -0.1972
   46MOL0     C 5949   1.557   7.924   7.948  0.6403  0.0599  0.5179
   46MOL0     C 5950   1.436   7.819   7.935  0.1696 -0.0981  0.3327
   46MOL0     C 5951   1.306   7.891   7.892 -0.2381 -0.3672 -0.4473
   46MOL0     C 5952   1.187   7.792   7.881  0.3198 -0.4795 -0.2298
   46MOL0     C 5953   1.195   7.718   7.752  0.5096  0.7683  0.4214
   46MOL0     C 5954   1.093   7.598   7.767  0.9446  0.5462 -0.2303
   46MOL0     C 5955   1.099   7.510   7.652 -0.0149 -0.4193 -0.1745
   46MOL0     C 5956   1.018   7.380   7.679 -0.5113 -0.9244 -0.2558
   46MOL0     N 5957   1.010   7.307   7.560  0.2858  0.0582 -0.4311
   46MOL0     C 5958   0.899   7.296   7.480  0.2665 -0.4881 -0.1089
   46MOL0     C 5959   0.950   7.226   7.376 -0.0934  0.5482 -1.1627
   46MOL0     C 5960   0.873   7.206   7.249  0.9262 -0.0569  0.8131
   46MOL0     C 5961   0.738   7.131   7.257 -0.1395 -0.1635 -0.5051
   46MOL0     C 5962   0.619   7.190   7.180 -0.7122  1.4339 -0.4675
   46MOL0     C 5963   0.652   7.199   7.030 -0.6930  0.8413 -0.3701
   46MOL0     O 5964   0.566   7.284   6.957  0.0253  0.1504  0.6632
   46MOL0     C 5965   0.433   7.256   6.944 -0.0485  0.2438  0.0507
   46MOL0     C 5966   0.393   7.130   6.912  0.0617 -0.3266  0.4662
   46MOL0     C 5967   0.261   7.098   6.896  0.0761  0.3658  0.5784
   46MOL0     C 5968   0.159   7.194   6.934 -0.2539  0.3779 -0.1607
   46MOL0     C 5969   0.014   7.175   6.912 -0.4021  0.6295  0.6350
   46MOL0     O 5970  -0.074   7.278   6.948  0.1514 -0.8907  0.5203
   46MOL0     C 5971  -0.209   7.273   6.925 -0.1721 -0.5415 -0.7432
   46MOL0     C 5972  -0.292   7.173   6.982  0.5554 -0.0500 -0.0104
   46MOL0     C 5973  -0.431   7.170   6.962  0.8205 -0.8494 -0.0769
   46MOL0     C 5974  -0.486   7.284   6.910  0.2555 -0.4234  0.5348
   46MOL0     O 5975  -0.623   7.309   6.921 -0.2609  0.3058 -0.0144
   46MOL0     C 5976  -0.684   7.399   6.833 -0.1204 -0.0799  0.8722
   46MOL0     C 5977  -0.841   7.400   6.847 -0.5604 -0.4398 -0.0541
   46MOL0     C 5978  -0.900   7.455   6.979  0.1445 -0.2669 -0.4340
   46MOL0     C 5979  -1.050   7.425   6.976 -0.4785  0.2736  0.2135
   46MOL0     C 5980  -1.113   7.454   7.119 -1.1928 -0.3478  0.6294
   46MOL0     C 5981  -1.258   7.415   7.121 -0.4566 -1.0716 -1.5937
   46MOL0     C 5982  -1.318   7.428   7.265 -0.4968 -0.3516 -0.0522
   46MOL0     C 5983  -1.473   7.405   7.279 -0.3357  0.9547  1.4856
   46MOL0    Cl 5984  -1.567   7.517   7.194 -0.4964 -0.1382  0.5405
   46MOL0     C 5985  -0.408   7.384   6.849  1.2759  0.1362 -0.1301
   46MOL0     C 5986  -0.267   7.386   6.868  0.4510  0.7638 -0.2434
   46MOL0     O 5987  -0.018   7.069   6.859 -0.1942 -0.2844 -0.1098
   46MOL0     C 5988   0.195   7.322   6.963  0.5180 -0.4160 -0.4127
   46MOL0     C 5989   0.331   7.353   6.971  0.4379  0.0790  0.4740
   46MOL0     N 5990   1.075   7.184   7.396  0.0885 -0.4779  0.7407
   46MOL0     N 5991   1.112   7.241   7.502 -0.0172 -0.9449 -1.1268
   46MOL0     C 5992   1.742   8.149   7.749 -0.5593  0.5685  0.8107
   46MOL0     C 5993   1.850   8.238   7.762 -0.6285 -0.7404 -0.5007
   46MOL0     C 5994   2.239   8.457   7.835 -0.2029 -0.1866  0.0836
   46MOL0     C 5995   2.350   8.467   7.753 -0.1113 -0.9747 -0.3298
   46MOL0     C 5996   2.460   8.544   7.790  0.9039  0.6426  0.6018
   46MOL0     C 5997   2.467   8.625   7.901  0.0113 -0.2094 -0.2090
   46MOL0     O 5998   2.567   8.713   7.938 -0.6810  0.1496  0.4479
   46MOL0     C 5999   2.685   8.723   7.852  0.2018  0.8425  0.1373
   46MOL0     C 6000   2.788   8.803   7.923 -0.5319 -0.8234 -0.4475
   46MOL0     C 6001   2.929   8.762   7.869  0.0521 -0.0529  0.6846
   46MOL0     C 6002   3.020   8.678   7.959  0.0045 -0.1012  0.5578
   46MOL0     C 6003   3.151   8.655   7.907 -0.0557 -0.2188  0.4906
   46MOL0     C 6004   3.264   8.653   7.872 -0.4776 -1.1276  0.0147
   46MOL0     C 6005   2.351   8.614   7.984 -0.2166  0.1515 -1.4433
   46MOL0     C 6006   2.246   8.527   7.952  0.2500  0.6726  0.2909
   46MOL0     H 6007   1.941   8.182   8.079  1.3370  1.4646 -1.6829
   46MOL0     H 6008   1.732   8.039   8.074 -0.8627  1.7588  0.4225
   46MOL0     H 6009   1.528   7.974   8.042 -2.5303 -2.2964  0.9617
   46MOL0     H 6010   1.650   7.869   7.963  2.5966  2.1391 -2.7690
   46MOL0     H 6011   1.427   7.772   8.033 -0.1720 -0.5339  0.0981
   46MOL0     H 6012   1.469   7.739   7.868  0.5158  0.8124 -0.6229
   46MOL0     H 6013   1.311   7.946   7.797  0.2873 -0.1513 -0.3035
   46MOL0     H 6014   1.293   7.968   7.968  1.4327 -0.9781  0.5203
   46MOL0     H 6015   1.182   7.735   7.974 -1.4812 -0.5946 -0.3614
   46MOL0     H 6016   1.098   7.856   7.883  1.6251  1.4086  1.2797
   46MOL0     H 6017   1.296   7.684   7.729  1.1363  3.4097 -1.1081
   46MOL0     H 6018   1.152   7.776   7.669 -1.4070 -2.6523 -1.2338
   46MOL0     H 6019   0.997   7.649   7.785 -0.3952 -1.9733  0.1965
   46MOL0     H 6020   1.126   7.535   7.850  2.8356 -1.0423 -2.0805
   46MOL0     H 6021   1.067   7.556   7.558  0.0888 -3.7442 -1.9860
   46MOL0     H 6022   1.204   7.479   7.644  0.3781  0.1546  2.0275
   46MOL0     H 6023   0.913   7.404   7.699 -1.4630 -2.1065 -3.2874
   46MOL0     H 6024   1.062   7.315   7.756  2.0000 -0.4131 -1.1699
   46MOL0     H 6025   0.803   7.347   7.486  0.8133  1.6206 -4.6756
   46MOL0     H 6026   0.933   7.141   7.185  1.7186 -1.3175  2.7756
   46MOL0     H 6027   0.855   7.302   7.200  1.7410  1.0065  2.5100
   46MOL0     H 6028   0.698   7.147   7.357  0.4476 -0.8719 -0.1533
   46MOL0     H 6029   0.752   7.025   7.234 -1.8206 -0.2215 -1.4664
   46MOL0     H 6030   0.531   7.128   7.199 -0.4432  1.0106 -0.5994
   46MOL0     H 6031   0.603   7.290   7.220 -0.5442  0.8632  1.1013
   46MOL0     H 6032   0.658   7.102   6.979 -1.4447  1.0772 -0.9297
   46MOL0     H 6033   0.754   7.239   7.018 -0.2597 -0.2197 -0.3414
   46MOL0     H 6034   0.468   7.059   6.878  0.9433  1.3627 -1.3474
   46MOL0     H 6035   0.236   6.999   6.860 -1.3374  0.9275 -0.0564
   46MOL0     H 6036  -0.244   7.100   7.046  0.9985  3.0904  3.5876
   46MOL0     H 6037  -0.506   7.102   7.004 -0.5341  1.7765  2.0707
   46MOL0     H 6038  -0.666   7.374   6.728 -4.3259 -0.2517  0.0345
   46MOL0     H 6039  -0.656   7.505   6.839  0.2353 -0.1630  0.7427
   46MOL0     H 6040  -0.880   7.302   6.818 -0.3375 -0.3008 -0.8429
   46MOL0     H 6041  -0.875   7.466   6.767 -1.0944  0.1797  0.6653
   46MOL0     H 6042  -0.869   7.559   6.992  0.4890 -0.3074 -0.9288
   46MOL0     H 6043  -0.853   7.401   7.061  1.6348 -0.8523 -1.6245
   46MOL0     H 6044  -1.099   7.493   6.906  0.5121 -0.7672 -1.5444
   46MOL0     H 6045  -1.080   7.325   6.944  1.4812 -0.8193  1.5285
   46MOL0     H 6046  -1.111   7.561   7.142  0.3272 -0.1151 -0.3859
   46MOL0     H 6047  -1.048   7.403   7.191  0.8591 -3.0406 -2.7972
   46MOL0     H 6048  -1.267   7.308   7.097 -2.9471 -1.2127 -0.3708
   46MOL0     H 6049  -1.317   7.480   7.056  0.9231  2.1197  0.1486
   46MOL0     H 6050  -1.273   7.348   7.325  0.5785 -0.0001 -0.3737
   46MOL0     H 6051  -1.294   7.518   7.321  2.1244 -2.4189  2.4800
   46MOL0     H 6052  -1.501   7.415   7.385 -1.8743 -0.6961  1.2820
   46MOL0     H 6053  -1.504   7.309   7.237 -0.5716  2.4336 -2.0370
   46MOL0     H 6054  -0.439   7.467   6.786  1.0188 -2.1678 -3.2582
   46MOL0     H 6055  -0.200   7.466   6.839 -1.7932  2.4455 -1.0750
   46MOL0     H 6056   0.115   7.394   6.984 -0.5459 -1.8324  0.6081
   46MOL0     H 6057   0.361   7.452   7.004 -0.1094  0.5752 -0.4906
   46MOL0     H 6058   1.697   8.150   7.651 -0.4134  0.4112  0.7413
   46MOL0     H 6059   1.894   8.292   7.679  0.1785  2.3002  1.7346
   46MOL0     H 6060   2.364   8.395   7.673  1.0126  0.0878 -1.1312
   46MOL0     H 6061   2.553   8.533   7.734  1.4390 -1.4252  1.7665
   46MOL0     H 6062   2.654   8.760   7.754  0.9955 -0.9472 -0.8157
   46MOL0     H 6063   2.733   8.625   7.846  1.4428  1.3669  1.0719
   46MOL0     H 6064   2.775   8.911   7.916  3.1931 -0.2253 -0.2505
   46MOL0     H 6065   2.797   8.785   8.031  0.6421 -2.0397 -0.7125
   46MOL0     H 6066   2.977   8.855   7.840 -0.0154 -0.8235 -2.1848
   46MOL0     H 6067   2.920   8.697   7.781  0.2080  0.4517  0.2953
   46MOL0     H 6068   3.030   8.736   8.051 -0.5067  0.0524  0.5241
   46MOL0     H 6069   2.985   8.581   7.996 -0.3198 -0.0485  0.3953
   46MOL0     H 6070   3.365   8.642   7.837 -0.9904  1.7459 -2.8542
   46MOL0     H 6071   2.340   8.675   8.073  0.8403 -3.5724  1.5186
   46MOL0     H 6072   2.158   8.533   8.015 -1.4873 -2.2443 -1.6135
   47MOL0     O 6073   9.186   0.979   6.813 -0.6263  0.2075 -0.2560
   47MOL0     C 6074   9.172   1.100   6.845  0.4522 -1.2875  0.1619
   47MOL0     O 6075   9.274   1.180   6.871  1.1025 -0.4673 -0.2547
   47MOL0     C 6076   9.408   1.133   6.866  0.9671  0.0511 -0.0792
   47MOL0     C 6077   9.488   1.164   6.977 -0.2194 -0.2723  0.7140
   47MOL0     C 6078   9.630   1.156   6.972  0.7229  0.5589 -0.0574
   47MOL0     C 6079   9.681   1.085   6.875  0.4470 -0.6285 -0.1450
   47MOL0     O 6080   9.815   1.075   6.861 -0.2545  0.4663 -0.1532
   47MOL0     C 6081   9.862   0.944   6.881 -0.5322  0.4569 -0.3851
   47MOL0     C 6082  10.003   0.930   6.939  0.3650  0.9895 -0.1728
   47MOL0     C 6083  10.107   0.954   6.830 -0.4901 -0.0978 -0.1268
   47MOL0     C 6084  10.245   0.956   6.892 -1.3634 -0.7172 -0.0168
   47MOL0     C 6085  10.361   0.929   6.788  0.0843 -0.0086  0.2657
   47MOL0     C 6086  10.497   0.949   6.855  0.1614  0.3566 -0.2740
   47MOL0     C 6087  10.569   0.815   6.902 -0.1579 -0.6565  0.7614
   47MOL0     C 6088  10.638   0.744   6.782 -0.2804 -0.0658  0.2353
   47MOL0     N 6089  10.738   0.642   6.831 -1.3352  0.2752 -0.3061
   47MOL0     C 6090  10.720   0.544   6.925  0.7249 -0.1208  0.6411
   47MOL0     C 6091  10.834   0.483   6.946 -0.4922 -0.7513 -0.5369
   47MOL0     C 6092  10.870   0.373   7.044  0.2197 -1.0586  0.1773
   47MOL0     C 6093  10.746   0.309   7.098  0.6998  0.1875 -0.0389
   47MOL0     C 6094  10.673   0.233   6.992 -0.6400 -0.7843  0.7200
   47MOL0     C 6095  10.541   0.175   7.041 -0.3526 -0.0398  0.4608
   47MOL0     O 6096  10.442   0.263   7.097  0.1750 -1.4021  0.3557
   47MOL0     C 6097  10.318   0.209   7.124  0.0465  0.2735 -0.7732
   47MOL0     C 6098  10.292   0.072   7.112 -0.5791 -0.8336 -0.0001
   47MOL0     C 6099  10.157   0.018   7.126 -0.3568  0.3035  0.4567
   47MOL0     C 6100  10.053   0.110   7.144  0.2366 -0.3025 -0.6350
   47MOL0     C 6101   9.909   0.067   7.169  0.3763  0.8072 -1.0179
   47MOL0     O 6102   9.820   0.165   7.148 -0.4998 -0.4739  0.2440
   47MOL0     C 6103   9.689   0.129   7.172 -0.0045  0.7541  0.5002
   47MOL0     C 6104   9.614   0.027   7.103 -0.3546 -0.0721  0.5069
   47MOL0     C 6105   9.474   0.006   7.118  0.0612  0.0918  0.2659
   47MOL0     C 6106   9.406   0.085   7.214  0.2404  0.8219  0.1426
   47MOL0     O 6107   9.277   0.053   7.258  0.4632 -0.2316 -0.4236
   47MOL0     C 6108   9.175   0.052   7.159 -0.4733  0.2567  0.0450
   47MOL0     C 6109   9.040   0.081   7.227  0.4882  0.4066 -0.1295
   47MOL0     C 6110   8.921   0.028   7.143 -0.7400 -0.0394  0.1443
   47MOL0     C 6111   8.796   0.038   7.230 -0.1405  0.7351  1.1348
   47MOL0     C 6112   8.674   0.011   7.146  1.7971  0.5737 -0.6535
   47MOL0     C 6113   8.556  -0.017   7.234  0.0257  0.2315 -0.1611
   47MOL0     C 6114   8.431  -0.021   7.151  0.4756  0.1646 -0.1563
   47MOL0     C 6115   8.319  -0.073   7.245  0.0671  0.2608 -0.0947
   47MOL0    Cl 6116   8.166  -0.079   7.147  0.4414  0.3451 -0.0880
   47MOL0     C 6117   9.483   0.180   7.291  0.1101  0.4282 -1.3897
   47MOL0     C 6118   9.619   0.202   7.259  0.4453  0.1751 -0.3186
   47MOL0     O 6119   9.883  -0.052   7.193 -0.6022 -0.2709  0.7564
   47MOL0     C 6120  10.079   0.244   7.137 -0.0724 -0.2842 -0.7043
   47MOL0     C 6121  10.208   0.298   7.140 -0.0065  0.1130 -0.4367
   47MOL0     N 6122  10.923   0.549   6.860 -0.3406 -0.5361  0.2876
   47MOL0     N 6123  10.869   0.640   6.796  0.2478 -0.2927 -0.5079
   47MOL0     C 6124   9.600   1.022   6.776  0.6314 -0.6245  0.1637
   47MOL0     C 6125   9.463   1.045   6.773  0.4486  0.4746  0.7265
   47MOL0     C 6126   9.035   1.161   6.823  0.7830  0.6036 -0.5522
   47MOL0     C 6127   8.936   1.078   6.762 -0.8678 -0.5822  0.1441
   47MOL0     C 6128   8.812   1.142   6.735 -0.9266 -0.2117 -0.1022
   47MOL0     C 6129   8.776   1.265   6.788  0.5114  0.3461 -0.5399
   47MOL0     O 6130   8.644   1.310   6.749 -0.4486  0.4479 -0.7293
   47MOL0     C 6131   8.604   1.445   6.779  1.0795  0.3042  0.5467
   47MOL0     C 6132   8.461   1.461   6.749 -0.3445 -0.3028  0.1922
   47MOL0     C 6133   8.423   1.430   6.607 -0.3730  0.8169  0.5190
   47MOL0     C 6134   8.515   1.476   6.491  0.0346  0.7867 -0.6236
   47MOL0     C 6135   8.538   1.620   6.481  0.1920  0.2483  0.4389
   47MOL0     C 6136   8.552   1.740   6.490  0.4936 -0.6518  1.0354
   47MOL0     C 6137   8.871   1.338   6.853  0.6365 -0.0821 -0.6033
   47MOL0     C 6138   8.998   1.285   6.868  0.3314 -0.4874  0.0426
   47MOL0     H 6139   9.444   1.222   7.057  2.2356 -0.3423  2.2063
   47MOL0     H 6140   9.686   1.202   7.053  1.9352 -0.5488 -0.2330
   47MOL0     H 6141   9.874   0.904   6.780  3.3129  0.2760 -0.0175
   47MOL0     H 6142   9.788   0.891   6.940 -0.8861  1.4740  0.1130
   47MOL0     H 6143  10.025   0.829   6.975  3.2218  0.8385 -2.0669
   47MOL0     H 6144  10.014   0.993   7.028 -1.0329  0.6278  0.2840
   47MOL0     H 6145  10.090   1.045   6.772  1.7957  0.7303  0.4063
   47MOL0     H 6146  10.091   0.870   6.762 -1.9224  0.0271  0.0252
   47MOL0     H 6147  10.262   1.053   6.941 -3.1798 -0.5016  0.2461
   47MOL0     H 6148  10.253   0.872   6.961  0.2121 -2.3894 -2.1010
   47MOL0     H 6149  10.352   1.000   6.705 -0.2399 -0.6078 -0.2218
   47MOL0     H 6150  10.356   0.829   6.745  1.6582 -0.6273  1.4430
   47MOL0     H 6151  10.495   1.019   6.939 -0.6756 -1.2164  1.0782
   47MOL0     H 6152  10.566   0.994   6.783  0.5204 -1.0149 -0.8071
   47MOL0     H 6153  10.646   0.836   6.977 -0.3093 -0.9608  1.0045
   47MOL0     H 6154  10.498   0.754   6.959 -0.5991 -0.1943  0.7136
   47MOL0     H 6155  10.686   0.817   6.717 -0.8496 -1.5993 -2.0745
   47MOL0     H 6156  10.554   0.701   6.726 -0.6945 -1.5294  1.8868
   47MOL0     H 6157  10.621   0.516   6.960  0.1361 -2.2639 -2.3527
   47MOL0     H 6158  10.926   0.411   7.130 -1.3052 -0.8905  1.1409
   47MOL0     H 6159  10.936   0.299   6.997  1.6938 -0.6267  1.4854
   47MOL0     H 6160  10.682   0.382   7.147  2.6404  1.3614  0.8380
   47MOL0     H 6161  10.775   0.232   7.170 -0.1331 -1.2406 -1.1508
   47MOL0     H 6162  10.654   0.294   6.903  2.5697 -3.1967 -1.8729
   47MOL0     H 6163  10.737   0.153   6.954  0.9979  0.3533  0.9673
   47MOL0     H 6164  10.561   0.102   7.120 -3.8376 -0.8862  0.7427
   47MOL0     H 6165  10.507   0.118   6.953 -0.6908  0.5247  0.2210
   47MOL0     H 6166  10.372   0.001   7.093 -2.8786 -3.2881 -1.1244
   47MOL0     H 6167  10.134  -0.088   7.125 -2.5534  0.6360  2.6881
   47MOL0     H 6168   9.668  -0.034   7.031 -0.4849  0.6974 -0.2660
   47MOL0     H 6169   9.421  -0.069   7.061 -0.1813 -0.7511  1.5527
   47MOL0     H 6170   9.162  -0.049   7.118 -1.4632  0.2057  0.4574
   47MOL0     H 6171   9.195   0.117   7.073 -0.1356  0.0732 -0.0163
   47MOL0     H 6172   9.018   0.187   7.244 -0.7632  0.4700 -1.9429
   47MOL0     H 6173   9.049   0.035   7.326 -0.4535 -0.0316 -0.2430
   47MOL0     H 6174   8.945  -0.074   7.113  3.2273  0.8469 -0.2368
   47MOL0     H 6175   8.921   0.093   7.055 -0.1586  2.1433  1.6767
   47MOL0     H 6176   8.797  -0.031   7.315  1.6205 -1.2097 -0.3543
   47MOL0     H 6177   8.793   0.140   7.268  1.0970  0.3768  2.2591
   47MOL0     H 6178   8.685  -0.076   7.081  3.4014 -1.5971  2.2748
   47MOL0     H 6179   8.662   0.093   7.074  2.6493  1.7836  0.5196
   47MOL0     H 6180   8.540   0.060   7.310 -2.4209 -0.0788 -0.2892
   47MOL0     H 6181   8.573  -0.114   7.282  1.3403  0.1587 -0.7422
   47MOL0     H 6182   8.401   0.078   7.116 -1.1184 -0.0659  0.4954
   47MOL0     H 6183   8.438  -0.095   7.070  0.7735  0.1020 -0.0783
   47MOL0     H 6184   8.299  -0.022   7.339  3.0920  3.8224 -1.1334
   47MOL0     H 6185   8.341  -0.175   7.277 -2.4763  0.1592  1.5701
   47MOL0     H 6186   9.433   0.219   7.379  0.0109 -1.6740 -0.4578
   47MOL0     H 6187   9.672   0.277   7.317 -0.4770  0.6310 -0.0310
   47MOL0     H 6188  10.007   0.326   7.135  0.8902  0.5813 -0.5062
   47MOL0     H 6189  10.224   0.406   7.142 -2.4657  0.5244 -0.0134
   47MOL0     H 6190   9.652   0.974   6.694 -1.9703 -1.5572 -1.0387
   47MOL0     H 6191   9.407   1.005   6.688 -1.2925 -0.7273  2.3436
   47MOL0     H 6192   8.961   0.981   6.721 -1.4766 -0.3597 -0.7616
   47MOL0     H 6193   8.743   1.078   6.682 -1.1216  0.1048 -0.2288
   47MOL0     H 6194   8.651   1.526   6.722 -1.2389  0.1258 -1.8203
   47MOL0     H 6195   8.619   1.456   6.887 -3.1643  0.7855  1.2449
   47MOL0     H 6196   8.399   1.403   6.819 -1.4378 -0.0792 -0.5681
   47MOL0     H 6197   8.437   1.566   6.767 -0.6312 -0.5643  1.4821
   47MOL0     H 6198   8.325   1.477   6.589  0.5065  2.6928  0.3482
   47MOL0     H 6199   8.418   1.321   6.601  0.4259  0.8164 -0.2653
   47MOL0     H 6200   8.605   1.414   6.495 -0.0031  0.6202 -1.9085
   47MOL0     H 6201   8.472   1.448   6.394 -0.8978 -1.4647  0.3738
   47MOL0     H 6202   8.560   1.846   6.480 -2.5200 -0.5169 -2.2806
   47MOL0     H 6203   8.855   1.436   6.895  0.6219 -0.9697  1.6203
   47MOL0     H 6204   9.075   1.341   6.920  0.6754  0.1857 -1.1667
   48MOL0     O 6205   7.742   7.548   4.520 -0.1257  0.5628  0.0633
   48MOL0     C 6206   7.707   7.426   4.548 -0.6131 -0.5808  0.3373
   48MOL0     O 6207   7.575   7.385   4.571 -0.5360 -0.0170 -0.2325
   48MOL0     C 6208   7.469   7.468   4.521 -0.6470 -0.4586  0.1228
   48MOL0     C 6209   7.385   7.533   4.605 -0.4149  0.4577 -0.1547
   48MOL0     C 6210   7.277   7.601   4.543  0.4728  0.0070  0.2928
   48MOL0     C 6211   7.265   7.623   4.405 -0.2796  0.1264  0.2202
   48MOL0     O 6212   7.163   7.690   4.345  0.2321  0.2893 -0.3183
   48MOL0     C 6213   7.032   7.680   4.407 -1.1032  0.2772  0.0080
   48MOL0     C 6214   6.953   7.807   4.370 -0.1439  0.3682  0.4843
   48MOL0     C 6215   6.992   7.935   4.440 -0.0732 -0.0767  0.0629
   48MOL0     C 6216   7.134   7.964   4.428 -0.7025 -0.0120  0.1828
   48MOL0     C 6217   7.188   8.099   4.490  0.5430 -0.5559  0.6903
   48MOL0     C 6218   7.198   8.099   4.647 -0.1581 -0.5456 -0.2183
   48MOL0     C 6219   7.289   7.993   4.713 -0.1127  0.1620  0.2905
   48MOL0     C 6220   7.438   8.030   4.695 -0.3012  0.7078 -0.4561
   48MOL0     N 6221   7.499   8.017   4.554 -0.4088 -0.5147  0.1532
   48MOL0     C 6222   7.517   7.904   4.478 -1.2399  0.5899  0.8733
   48MOL0     C 6223   7.560   7.943   4.360  0.0405 -0.6831  0.4389
   48MOL0     C 6224   7.603   7.853   4.249  1.1967 -0.2495  0.4464
   48MOL0     C 6225   7.613   7.909   4.107 -0.2776  0.5746 -0.3960
   48MOL0     C 6226   7.497   7.969   4.033 -0.0026 -0.4511  0.0937
   48MOL0     C 6227   7.383   7.875   4.010 -0.0868  0.2627  0.2877
   48MOL0     O 6228   7.432   7.758   3.946 -0.1881 -0.4984 -0.3402
   48MOL0     C 6229   7.354   7.644   3.951  0.4480  0.0527 -0.8196
   48MOL0     C 6230   7.218   7.638   3.993 -0.1735 -0.1870 -0.5391
   48MOL0     C 6231   7.146   7.524   3.991 -0.0455  0.2778 -0.8187
   48MOL0     C 6232   7.205   7.400   3.963  0.5055  0.2813  0.0622
   48MOL0     C 6233   7.121   7.271   3.979  0.2903 -0.0099  0.2374
   48MOL0     O 6234   6.988   7.278   4.021  0.2865 -0.0934 -0.5712
   48MOL0     C 6235   6.937   7.161   4.054 -0.1800  0.3037 -0.1401
   48MOL0     C 6236   6.885   7.068   3.961 -0.2781  0.2404  0.5351
   48MOL0     C 6237   6.825   6.950   4.001 -0.7133 -0.0526  0.4398
   48MOL0     C 6238   6.795   6.927   4.138 -0.4237 -0.3467  0.9121
   48MOL0     O 6239   6.708   6.832   4.182 -0.0094 -0.1953  0.3107
   48MOL0     C 6240   6.635   6.755   4.087 -0.2904  0.5579  0.3281
   48MOL0     C 6241   6.515   6.690   4.145 -0.3818 -0.1142  0.2472
   48MOL0     C 6242   6.433   6.621   4.039  0.3378  0.1376 -0.2134
   48MOL0     C 6243   6.298   6.581   4.101 -0.1091  0.6568  0.5381
   48MOL0     C 6244   6.211   6.519   3.994 -0.1793 -0.1667  1.4344
   48MOL0     C 6245   6.057   6.543   4.001  0.1050 -0.2623  0.4200
   48MOL0     C 6246   5.978   6.456   3.895 -0.5055 -0.6611  0.6181
   48MOL0     C 6247   5.818   6.482   3.894 -0.4363 -0.7828  0.4397
   48MOL0    Cl 6248   5.730   6.338   3.856 -0.0819  0.2389  0.3466
   48MOL0     C 6249   6.841   7.021   4.230 -0.3999  0.0153  0.3414
   48MOL0     C 6250   6.914   7.136   4.190 -0.5410 -0.3253 -0.5270
   48MOL0     O 6251   7.177   7.166   3.964 -0.1726 -0.0685 -0.7059
   48MOL0     C 6252   7.350   7.407   3.932  0.1919 -0.2043 -0.0981
   48MOL0     C 6253   7.421   7.525   3.929  0.5667 -0.0825 -0.2269
   48MOL0     N 6254   7.582   8.078   4.359  0.8928 -0.7223  0.5733
   48MOL0     N 6255   7.539   8.122   4.469 -0.6894  0.3287  0.0458
   48MOL0     C 6256   7.366   7.571   4.322  0.1771  1.0376  0.5095
   48MOL0     C 6257   7.460   7.479   4.379  0.2466 -0.1552  0.5262
   48MOL0     C 6258   7.821   7.329   4.553  0.3557 -0.8851 -0.0212
   48MOL0     C 6259   7.952   7.372   4.580  0.1466  0.2700 -0.2431
   48MOL0     C 6260   8.052   7.279   4.578  0.2636  0.4959  0.4537
   48MOL0     C 6261   8.028   7.138   4.563 -0.2831  0.1350 -0.0961
   48MOL0     O 6262   8.132   7.045   4.569 -0.1268 -0.1037 -0.2311
   48MOL0     C 6263   8.260   7.065   4.626 -0.2758  0.0093 -1.2321
   48MOL0     C 6264   8.256   7.083   4.781  0.3355 -0.1428  0.4457
   48MOL0     C 6265   8.391   7.051   4.839  0.4569  0.7649 -1.1725
   48MOL0     C 6266   8.440   6.906   4.824 -0.3580  0.4639  0.4994
   48MOL0     C 6267   8.536   6.873   4.933 -0.4162  0.3932  0.3804
   48MOL0     C 6268   8.596   6.837   5.035 -0.4403  0.2738  0.0808
   48MOL0     C 6269   7.896   7.095   4.547  0.4091 -0.6942  0.8588
   48MOL0     C 6270   7.793   7.192   4.535 -0.0906  0.5495 -0.4205
   48MOL0     H 6271   7.384   7.520   4.713  1.3091 -4.0478 -0.4537
   48MOL0     H 6272   7.202   7.654   4.601 -2.6346 -1.4600 -2.0638
   48MOL0     H 6273   7.042   7.663   4.515  3.2908  1.5252 -0.0297
   48MOL0     H 6274   6.974   7.597   4.364  0.2335 -1.8117  1.9581
   48MOL0     H 6275   6.847   7.797   4.397 -0.1831  1.6247  0.8474
   48MOL0     H 6276   6.945   7.810   4.261 -0.0873 -2.5274  0.3150
   48MOL0     H 6277   6.969   7.936   4.547 -0.9409  1.1446 -0.1142
   48MOL0     H 6278   6.939   8.018   4.393 -1.4216 -1.6789 -1.3788
   48MOL0     H 6279   7.195   7.885   4.472  0.1317 -0.8004 -2.1898
   48MOL0     H 6280   7.160   7.961   4.321  3.4048 -0.4549  1.0185
   48MOL0     H 6281   7.107   8.170   4.470 -1.4160 -1.9547  3.0859
   48MOL0     H 6282   7.279   8.129   4.437  0.6840  0.5311  1.5029
   48MOL0     H 6283   7.100   8.070   4.685 -1.3653  2.9866 -0.3315
   48MOL0     H 6284   7.220   8.200   4.681 -3.7284 -0.4654  2.3627
   48MOL0     H 6285   7.264   7.984   4.819 -2.0493  1.2014 -0.0222
   48MOL0     H 6286   7.273   7.895   4.667 -1.7256  0.0590  1.0033
   48MOL0     H 6287   7.495   7.964   4.761  0.4766 -0.0523 -1.8271
   48MOL0     H 6288   7.451   8.132   4.734 -0.4114  0.5812 -0.0867
   48MOL0     H 6289   7.505   7.804   4.518 -1.7733  0.9822  1.7172
   48MOL0     H 6290   7.534   7.769   4.238  0.8912 -0.3502  2.7415
   48MOL0     H 6291   7.699   7.816   4.286  0.0975 -1.8798  1.7577
   48MOL0     H 6292   7.652   7.825   4.048 -2.5905 -3.2799  2.9957
   48MOL0     H 6293   7.694   7.982   4.116 -0.9679  1.1854  1.4048
   48MOL0     H 6294   7.463   8.057   4.086  2.5776 -0.1178  1.3363
   48MOL0     H 6295   7.530   8.001   3.933 -1.3346 -1.0079 -0.5601
   48MOL0     H 6296   7.307   7.914   3.942 -2.4668  0.3949  2.8279
   48MOL0     H 6297   7.332   7.848   4.103 -0.6334  0.6459  0.1025
   48MOL0     H 6298   7.166   7.730   4.017 -2.2040 -0.9334 -1.7595
   48MOL0     H 6299   7.041   7.518   4.019 -0.1090 -2.7460 -1.3666
   48MOL0     H 6300   6.888   7.087   3.855  0.2533 -1.5940  0.1961
   48MOL0     H 6301   6.789   6.887   3.920 -1.4959  0.5593  0.3025
   48MOL0     H 6302   6.702   6.680   4.043 -0.8684  0.6738 -0.7874
   48MOL0     H 6303   6.597   6.819   4.007  1.4544 -0.1345 -1.1328
   48MOL0     H 6304   6.445   6.761   4.190 -0.6374  0.8719 -1.6028
   48MOL0     H 6305   6.533   6.629   4.234  0.6065  2.3025  1.7822
   48MOL0     H 6306   6.488   6.530   4.015  0.0768 -0.3751  1.0467
   48MOL0     H 6307   6.427   6.683   3.949  1.5566 -3.5311 -3.0407
   48MOL0     H 6308   6.318   6.507   4.178  0.3824  0.6815  0.4423
   48MOL0     H 6309   6.239   6.654   4.157 -1.6370 -1.6425  2.0949
   48MOL0     H 6310   6.226   6.412   4.007  1.0029 -0.3872 -1.1563
   48MOL0     H 6311   6.248   6.554   3.897 -4.7429 -0.5872 -0.7260
   48MOL0     H 6312   6.048   6.649   3.978  1.9616 -0.1518 -0.0064
   48MOL0     H 6313   6.011   6.531   4.100 -0.0392 -0.3438  0.3431
   48MOL0     H 6314   6.021   6.463   3.794 -0.4666 -0.4105  0.6523
   48MOL0     H 6315   5.997   6.353   3.925  1.1386 -0.3371  0.7633
   48MOL0     H 6316   5.797   6.549   3.810  0.5356  1.3001  1.7987
   48MOL0     H 6317   5.779   6.522   3.988 -2.8192 -4.4453  1.2204
   48MOL0     H 6318   6.831   7.013   4.338 -1.9321 -1.2764  0.1384
   48MOL0     H 6319   6.944   7.198   4.274  3.3865 -0.6654 -1.4667
   48MOL0     H 6320   7.401   7.312   3.921  1.6706  0.6929 -1.3423
   48MOL0     H 6321   7.525   7.536   3.898  0.1939 -0.8240 -1.8560
   48MOL0     H 6322   7.352   7.583   4.215 -2.3678 -2.4399  0.2832
   48MOL0     H 6323   7.540   7.432   4.323  1.2535 -0.7362  2.3511
   48MOL0     H 6324   7.964   7.480   4.579 -3.3020  0.8081 -1.9829
   48MOL0     H 6325   8.158   7.301   4.585  0.9545 -1.9323 -1.0397
   48MOL0     H 6326   8.308   7.154   4.584  2.0402 -0.5238  0.0798
   48MOL0     H 6327   8.328   6.979   4.615 -0.3667 -0.6561  2.1666
   48MOL0     H 6328   8.230   7.187   4.801 -0.9600 -0.3538 -0.0674
   48MOL0     H 6329   8.179   7.017   4.823  0.3570 -0.5795 -0.1892
   48MOL0     H 6330   8.391   7.087   4.942  0.4722  1.9229 -1.5664
   48MOL0     H 6331   8.457   7.118   4.784 -1.0500  1.6585 -1.9491
   48MOL0     H 6332   8.352   6.843   4.843  1.2449 -1.6621  1.3143
   48MOL0     H 6333   8.483   6.888   4.725 -0.8581  1.1135  0.1562
   48MOL0     H 6334   8.638   6.811   5.130  1.0775  1.1461 -0.3203
   48MOL0     H 6335   7.867   6.992   4.531  1.7124 -0.9862  0.2970
   48MOL0     H 6336   7.694   7.165   4.501 -0.2422  1.4012 -0.6529
   49MOL0     O 6337   8.049   9.113   4.482 -0.0519 -0.7235 -0.1759
   49MOL0     C 6338   8.030   9.066   4.596  0.1431  0.9269  0.0038
   49MOL0     O 6339   7.907   9.027   4.646 -0.4473 -1.2345 -0.1567
   49MOL0     C 6340   7.808   9.029   4.562  0.4467  0.8053  0.5959
   49MOL0     C 6341   7.701   9.118   4.578  0.5277  0.0616 -0.4845
   49MOL0     C 6342   7.587   9.108   4.494  0.4247 -0.2379  0.2050
   49MOL0     C 6343   7.567   9.004   4.411 -0.6387  0.5530  0.1213
   49MOL0     O 6344   7.450   9.005   4.345 -0.3002 -0.8839  0.7008
   49MOL0     C 6345   7.397   8.889   4.284 -0.1493  0.0595  0.2039
   49MOL0     C 6346   7.243   8.885   4.288  0.1510 -0.1257 -0.1086
   49MOL0     C 6347   7.202   8.747   4.222 -0.8690 -0.5592 -0.3417
   49MOL0     C 6348   7.050   8.715   4.237  0.0363  0.3839  0.2468
   49MOL0     C 6349   7.017   8.574   4.193 -0.2635 -0.0380  0.2717
   49MOL0     C 6350   6.870   8.574   4.188  0.6560  0.1063  0.6492
   49MOL0     C 6351   6.828   8.424   4.174 -0.3319  0.0323  0.1711
   49MOL0     C 6352   6.826   8.347   4.314 -0.2825  0.0896  1.0843
   49MOL0     N 6353   6.746   8.221   4.312 -0.3609 -0.9817  0.7279
   49MOL0     C 6354   6.630   8.212   4.376  0.8000  0.5294  0.6220
   49MOL0     C 6355   6.578   8.099   4.326  0.0371  0.3380 -0.7552
   49MOL0     C 6356   6.467   8.027   4.395 -0.3944  0.2239  0.6125
   49MOL0     C 6357   6.337   8.038   4.305 -0.6499 -0.3528 -0.0208
   49MOL0     C 6358   6.239   7.943   4.360  0.1103  0.3479 -0.3907
   49MOL0     C 6359   6.124   7.909   4.260  0.0795 -0.2348 -0.0213
   49MOL0     O 6360   6.016   7.859   4.344 -0.0201 -0.4215  0.8658
   49MOL0     C 6361   5.912   7.804   4.278 -0.1220 -0.3766 -0.5493
   49MOL0     C 6362   5.820   7.739   4.355 -0.5560  0.0391  0.4916
   49MOL0     C 6363   5.703   7.675   4.308 -0.0708  0.1320 -0.1373
   49MOL0     C 6364   5.661   7.693   4.174  0.3047  0.7701 -0.7963
   49MOL0     C 6365   5.535   7.635   4.131 -0.2298 -0.0225 -0.3251
   49MOL0     O 6366   5.485   7.534   4.204  0.2363 -0.3819 -0.7931
   49MOL0     C 6367   5.376   7.473   4.161  1.0035  0.7368  0.5012
   49MOL0     C 6368   5.394   7.366   4.069  1.2917  0.0376  0.7217
   49MOL0     C 6369   5.284   7.273   4.049  0.2787  0.9054  0.1230
   49MOL0     C 6370   5.153   7.295   4.098 -0.3754  0.4472 -0.0991
   49MOL0     O 6371   5.035   7.219   4.080 -0.6688  0.5312  0.3338
   49MOL0     C 6372   4.945   7.277   3.988  0.2166 -0.7781 -0.4914
   49MOL0     C 6373   4.829   7.187   3.979  0.7043  0.0569  0.6611
   49MOL0     C 6374   4.723   7.227   3.874 -0.3774  0.0851 -0.2618
   49MOL0     C 6375   4.636   7.101   3.844 -0.2431  0.2495  0.6473
   49MOL0     C 6376   4.541   7.112   3.720  1.1378  0.3495 -0.9283
   49MOL0     C 6377   4.443   7.231   3.722 -0.4906  0.8239  1.0466
   49MOL0     C 6378   4.343   7.210   3.603 -0.0076  0.6983  0.1100
   49MOL0     C 6379   4.238   7.320   3.596 -0.1472  0.1424 -0.2626
   49MOL0    Cl 6380   4.320   7.467   3.575 -0.6283  0.1073 -0.1323
   49MOL0     C 6381   5.143   7.406   4.185 -0.4414  0.1871 -0.0015
   49MOL0     C 6382   5.251   7.491   4.217  0.4877  1.1537  0.8295
   49MOL0     O 6383   5.488   7.680   4.036  0.4585  0.0552  0.4808
   49MOL0     C 6384   5.760   7.764   4.094  0.3762  0.0746  0.8129
   49MOL0     C 6385   5.888   7.806   4.137  0.2619 -0.2091 -0.1648
   49MOL0     N 6386   6.651   8.055   4.215 -0.4403  0.0524 -0.1224
   49MOL0     N 6387   6.759   8.123   4.211  0.5326 -0.1303  0.2242
   49MOL0     C 6388   7.672   8.908   4.393  0.0087 -0.1292 -0.3369
   49MOL0     C 6389   7.789   8.920   4.469  0.7416 -0.2216  0.3903
   49MOL0     C 6390   8.147   9.037   4.668  0.2913 -0.2545  1.0372
   49MOL0     C 6391   8.272   9.068   4.623  0.9018  0.1874  0.6908
   49MOL0     C 6392   8.385   9.023   4.696 -0.2736 -0.0866  0.3045
   49MOL0     C 6393   8.370   8.950   4.816 -0.8602  0.2349  1.0152
   49MOL0     O 6394   8.477   8.899   4.890 -0.1130  0.3544  0.3320
   49MOL0     C 6395   8.616   8.935   4.867 -0.4341  0.2218 -0.0811
   49MOL0     C 6396   8.712   8.834   4.932  0.0054 -0.2836 -0.0238
   49MOL0     C 6397   8.691   8.687   4.893 -0.4355 -0.4643  0.3093
   49MOL0     C 6398   8.778   8.644   4.770 -0.6325 -0.5433 -0.1176
   49MOL0     C 6399   8.915   8.644   4.803 -0.7454  0.1590  0.0791
   49MOL0     C 6400   9.022   8.620   4.848 -0.1234 -0.2951 -0.0637
   49MOL0     C 6401   8.242   8.928   4.863 -0.6122  0.0753 -0.3445
   49MOL0     C 6402   8.134   8.968   4.788 -1.0526 -0.0761  0.3279
   49MOL0     H 6403   7.707   9.214   4.627 -1.4700  0.2692 -0.5998
   49MOL0     H 6404   7.509   9.184   4.492  1.8749  1.2767 -1.2633
   49MOL0     H 6405   7.436   8.801   4.336 -2.1377 -1.2994 -0.5120
   49MOL0     H 6406   7.431   8.881   4.181 -0.1262  1.2395  0.1055
   49MOL0     H 6407   7.214   8.973   4.230  1.8969 -1.1204 -2.6626
   49MOL0     H 6408   7.215   8.895   4.394  3.3265  1.3517  0.6910
   49MOL0     H 6409   7.263   8.662   4.254  0.0542  0.1525 -0.1733
   49MOL0     H 6410   7.218   8.740   4.114 -4.2408 -0.6930 -0.9677
   49MOL0     H 6411   7.007   8.725   4.337  0.3124 -3.2455  0.8635
   49MOL0     H 6412   7.002   8.794   4.179 -0.7942 -2.0127 -2.5701
   49MOL0     H 6413   7.067   8.500   4.256  0.3133 -1.2268 -1.4926
   49MOL0     H 6414   7.070   8.551   4.100  1.0226 -0.7171  1.1409
   49MOL0     H 6415   6.844   8.637   4.102  1.3183  0.1071  0.4456
   49MOL0     H 6416   6.820   8.616   4.276 -0.0657 -0.3115  0.4425
   49MOL0     H 6417   6.725   8.418   4.138 -0.0939 -1.4927 -0.3517
   49MOL0     H 6418   6.886   8.382   4.091  1.4040  1.8836  0.3734
   49MOL0     H 6419   6.784   8.418   4.386 -2.8706  1.4081 -1.5150
   49MOL0     H 6420   6.928   8.324   4.347  0.8311  2.1066 -0.6975
   49MOL0     H 6421   6.579   8.276   4.447 -2.8830  0.4948 -1.7583
   49MOL0     H 6422   6.454   8.076   4.491 -1.3964  2.1648 -0.4575
   49MOL0     H 6423   6.495   7.922   4.409 -0.1149  0.2635  0.3711
   49MOL0     H 6424   6.375   8.003   4.209  0.5063 -0.4301  0.4467
   49MOL0     H 6425   6.300   8.141   4.296  0.2636 -0.0031  0.1591
   49MOL0     H 6426   6.288   7.848   4.386 -0.8755 -0.4215 -1.2278
   49MOL0     H 6427   6.188   7.984   4.447  1.5229 -0.1916  0.7239
   49MOL0     H 6428   6.153   7.828   4.192  1.1883  0.1485 -0.0316
   49MOL0     H 6429   6.092   7.995   4.201 -2.0695  1.1993  2.9429
   49MOL0     H 6430   5.859   7.744   4.457  1.9655  0.7789 -0.4335
   49MOL0     H 6431   5.638   7.621   4.376  1.9846 -0.2662  1.5883
   49MOL0     H 6432   5.493   7.343   4.029  0.8129  0.8085 -1.0395
   49MOL0     H 6433   5.305   7.178   4.001  1.5391  1.3986 -0.3567
   49MOL0     H 6434   4.991   7.307   3.893  0.2056  3.5928  0.6559
   49MOL0     H 6435   4.918   7.374   4.032  1.6140 -1.1682  1.3615
   49MOL0     H 6436   4.782   7.194   4.077  1.5571  0.6400  1.0393
   49MOL0     H 6437   4.858   7.083   3.964 -0.5728 -0.5668  2.2740
   49MOL0     H 6438   4.777   7.256   3.783  3.6071 -1.8293  1.2719
   49MOL0     H 6439   4.654   7.307   3.902 -0.3779  1.1838 -3.0386
   49MOL0     H 6440   4.695   7.011   3.824  2.3918  1.4644  2.3995
   49MOL0     H 6441   4.574   7.087   3.933 -0.4003  3.0402  1.0808
   49MOL0     H 6442   4.468   7.030   3.716 -0.6297  1.8116 -0.3427
   49MOL0     H 6443   4.600   7.108   3.628  0.6316 -3.6103 -1.2826
   49MOL0     H 6444   4.499   7.325   3.724  0.2297  0.4420 -0.0725
   49MOL0     H 6445   4.394   7.218   3.819 -1.1182 -2.4843  0.4222
   49MOL0     H 6446   4.390   7.203   3.504 -1.1979 -1.2210 -0.3536
   49MOL0     H 6447   4.298   7.114   3.628  0.8330  0.2058 -0.2102
   49MOL0     H 6448   4.186   7.333   3.691 -0.5759  2.2411 -0.7195
   49MOL0     H 6449   4.162   7.290   3.522  1.0961  0.3115 -1.6468
   49MOL0     H 6450   5.057   7.412   4.250 -2.1506 -1.4829 -1.9441
   49MOL0     H 6451   5.232   7.569   4.290 -3.4590 -0.7218  2.0666
   49MOL0     H 6452   5.730   7.765   3.989  1.0587 -3.4937  0.4734
   49MOL0     H 6453   5.965   7.843   4.070 -1.3184  1.6504 -1.0555
   49MOL0     H 6454   7.666   8.823   4.325  0.5578  1.5383 -2.5759
   49MOL0     H 6455   7.868   8.846   4.468  0.0535 -1.1375  3.5905
   49MOL0     H 6456   8.284   9.121   4.528  3.0388 -0.3562  0.5973
   49MOL0     H 6457   8.485   9.055   4.670 -0.2139 -0.4318  0.1125
   49MOL0     H 6458   8.633   9.030   4.919  0.9545  0.8302 -1.5687
   49MOL0     H 6459   8.639   8.940   4.760  0.2212  0.1427  0.0472
   49MOL0     H 6460   8.813   8.873   4.919  0.7829 -2.3947 -0.7808
   49MOL0     H 6461   8.700   8.839   5.040  1.5250  2.0100  0.0975
   49MOL0     H 6462   8.587   8.670   4.865 -0.6064  2.1711 -0.8722
   49MOL0     H 6463   8.709   8.627   4.983 -1.4928  0.1523  0.9565
   49MOL0     H 6464   8.746   8.547   4.729 -3.1419  0.9357 -1.9592
   49MOL0     H 6465   8.747   8.718   4.695 -1.0676  2.1183  2.5224
   49MOL0     H 6466   9.126   8.613   4.870  1.3237 -1.3658 -5.7908
   49MOL0     H 6467   8.252   8.889   4.964  3.4178  0.9340 -0.2370
   49MOL0     H 6468   8.035   8.956   4.831 -0.2738  2.9672  3.3883
   50MOL0     O 6469   5.297   6.039   1.939  0.1861 -0.3134  0.6731
   50MOL0     C 6470   5.253   5.959   1.855 -0.0927  0.1757 -0.0138
   50MOL0     O 6471   5.136   5.891   1.860  0.5717 -0.8821  0.1555
   50MOL0     C 6472   5.063   5.905   1.978 -0.2294 -0.2199  0.2130
   50MOL0     C 6473   5.006   6.028   2.022 -0.4035 -0.4105 -0.0367
   50MOL0     C 6474   4.939   6.041   2.146  0.6508 -0.1033  0.3151
   50MOL0     C 6475   4.897   5.926   2.208  0.0920 -0.9206  0.6043
   50MOL0     O 6476   4.801   5.914   2.312 -0.0893 -0.1862  0.2872
   50MOL0     C 6477   4.685   6.003   2.294 -0.4027 -0.3138  0.2938
   50MOL0     C 6478   4.561   5.927   2.346 -0.0929 -0.4152  0.2210
   50MOL0     C 6479   4.439   6.026   2.326 -0.6639  1.5035  0.0117
   50MOL0     C 6480   4.312   5.935   2.329  0.4799  0.0769  0.4005
   50MOL0     C 6481   4.197   6.026   2.309  0.3538 -0.1920  0.5570
   50MOL0     C 6482   4.065   5.969   2.329  0.2845  0.3149  0.4453
   50MOL0     C 6483   4.032   5.881   2.460 -0.1009  0.5474  0.4074
   50MOL0     C 6484   3.879   5.866   2.475 -0.2938 -0.0833 -0.2846
   50MOL0     N 6485   3.835   5.791   2.595  0.1962  0.1576  0.5897
   50MOL0     C 6486   3.729   5.820   2.681 -0.1267  0.4843  0.1396
   50MOL0     C 6487   3.698   5.701   2.745  1.0731 -0.9015 -0.1217
   50MOL0     C 6488   3.592   5.666   2.853  0.1544 -0.2498  0.0334
   50MOL0     C 6489   3.440   5.649   2.813 -0.1271 -0.0316 -0.3356
   50MOL0     C 6490   3.427   5.567   2.685  0.3923  0.3471  1.2291
   50MOL0     C 6491   3.282   5.541   2.652  0.1940 -0.3748 -0.1807
   50MOL0     O 6492   3.211   5.664   2.645 -0.5223 -0.4162  0.6566
   50MOL0     C 6493   3.075   5.661   2.646 -0.6093 -0.5545 -0.1124
   50MOL0     C 6494   2.996   5.542   2.658 -0.9954 -0.0136 -1.0804
   50MOL0     C 6495   2.851   5.545   2.656 -0.5016  0.3779 -0.6508
   50MOL0     C 6496   2.788   5.667   2.632 -0.5393 -0.2737 -0.1234
   50MOL0     C 6497   2.643   5.670   2.629  1.1557  0.0822 -0.2249
   50MOL0     O 6498   2.576   5.568   2.578  0.7786  0.1007 -0.0524
   50MOL0     C 6499   2.435   5.568   2.553  0.2485 -0.0030 -0.4090
   50MOL0     C 6500   2.335   5.609   2.639 -0.4938 -0.8966 -0.8835
   50MOL0     C 6501   2.199   5.614   2.596  0.1756  0.7760 -0.3677
   50MOL0     C 6502   2.170   5.567   2.465  0.3269  0.0348 -0.4126
   50MOL0     O 6503   2.036   5.576   2.421  0.0310 -0.1128  0.9172
   50MOL0     C 6504   1.999   5.561   2.282 -0.5822  0.1214  0.0488
   50MOL0     C 6505   1.844   5.563   2.272  0.2351  0.8487  0.0437
   50MOL0     C 6506   1.783   5.675   2.350 -0.3468 -0.0919 -0.2533
   50MOL0     C 6507   1.636   5.701   2.339  0.0945 -0.0734  0.5762
   50MOL0     C 6508   1.612   5.834   2.274  0.2630  0.4010 -0.1081
   50MOL0     C 6509   1.465   5.874   2.302  0.8458  0.8768  0.1096
   50MOL0     C 6510   1.430   6.007   2.229 -0.6310  0.2466 -0.4777
   50MOL0     C 6511   1.280   6.021   2.225 -0.5506 -0.5004 -0.0545
   50MOL0    Cl 6512   1.248   6.133   2.084 -0.2668 -0.0116 -0.3333
   50MOL0     C 6513   2.275   5.532   2.378 -0.3435  0.5732 -0.1315
   50MOL0     C 6514   2.408   5.520   2.425 -0.2021 -0.4367 -0.7611
   50MOL0     O 6515   2.592   5.776   2.663 -0.7235 -0.7241  0.0224
   50MOL0     C 6516   2.876   5.785   2.627  0.3520  0.1212 -0.0777
   50MOL0     C 6517   3.014   5.781   2.638 -1.2011  0.7189 -0.2262
   50MOL0     N 6518   3.787   5.607   2.698 -0.5645  0.5518 -0.0006
   50MOL0     N 6519   3.863   5.661   2.613 -0.5401 -0.4721  0.6613
   50MOL0     C 6520   4.948   5.804   2.166  0.4250 -0.0245 -0.0444
   50MOL0     C 6521   5.038   5.790   2.060 -0.0107 -0.1675 -0.2676
   50MOL0     C 6522   5.336   5.934   1.729  0.6561  0.1638 -0.5690
   50MOL0     C 6523   5.294   5.841   1.632 -0.2020  0.2834 -1.2410
   50MOL0     C 6524   5.360   5.827   1.514 -0.0157 -0.3656 -0.1088
   50MOL0     C 6525   5.470   5.904   1.483  1.1933  0.5853  0.1349
   50MOL0     O 6526   5.525   5.887   1.363 -0.0899  0.7938  0.1167
   50MOL0     C 6527   5.667   5.891   1.346  0.2155 -0.6619 -0.4938
   50MOL0     C 6528   5.712   5.838   1.204 -0.2422  0.4218 -1.0238
   50MOL0     C 6529   5.702   5.949   1.096 -1.0807  0.6681 -0.5543
   50MOL0     C 6530   5.741   5.894   0.962 -0.1653 -0.5660  0.2564
   50MOL0     C 6531   5.685   5.969   0.846  0.6868  0.3202  0.3817
   50MOL0     C 6532   5.647   6.020   0.742  0.6600 -0.2466  0.6440
   50MOL0     C 6533   5.514   6.007   1.567 -0.3983 -0.3494  0.3512
   50MOL0     C 6534   5.447   6.015   1.696  1.1332  0.4797  0.7740
   50MOL0     H 6535   5.025   6.120   1.969  0.9871 -1.2261 -1.0167
   50MOL0     H 6536   4.889   6.136   2.166 -1.8053 -1.4648  1.0780
   50MOL0     H 6537   4.675   6.024   2.187 -0.8589  1.0497  0.5831
   50MOL0     H 6538   4.686   6.096   2.352 -2.4304  1.1725 -1.8625
   50MOL0     H 6539   4.585   5.895   2.448  3.1143  1.3796  0.1839
   50MOL0     H 6540   4.545   5.828   2.303  0.4015 -1.1103  1.5747
   50MOL0     H 6541   4.458   6.070   2.228  0.9407 -1.8094 -1.3322
   50MOL0     H 6542   4.437   6.111   2.395  1.5915  2.4069 -0.9268
   50MOL0     H 6543   4.314   5.850   2.259 -0.4647 -0.7178  1.3166
   50MOL0     H 6544   4.311   5.894   2.430  5.4532  0.3293  0.8087
   50MOL0     H 6545   4.194   6.058   2.204 -3.4829 -1.6406  0.0619
   50MOL0     H 6546   4.199   6.109   2.379 -2.8265  0.6924 -0.2476
   50MOL0     H 6547   4.032   5.911   2.242 -0.2062 -0.1950  0.9641
   50MOL0     H 6548   3.998   6.055   2.341  2.7320  1.9935  3.8556
   50MOL0     H 6549   4.078   5.784   2.443 -2.7878 -0.7451  0.0720
   50MOL0     H 6550   4.078   5.929   2.547 -0.0239 -0.0873  0.7233
   50MOL0     H 6551   3.836   5.821   2.385 -0.9589  2.2867 -1.2316
   50MOL0     H 6552   3.838   5.968   2.471  1.8986  0.9534  1.6354
   50MOL0     H 6553   3.667   5.905   2.706 -0.4582  0.3153 -0.1049
   50MOL0     H 6554   3.597   5.753   2.920 -3.8966 -1.4357  2.2212
   50MOL0     H 6555   3.628   5.579   2.908  1.7347 -2.6019 -4.2094
   50MOL0     H 6556   3.394   5.745   2.787 -0.2393 -0.6413 -2.5743
   50MOL0     H 6557   3.384   5.602   2.894  2.4002  0.4947  1.8506
   50MOL0     H 6558   3.468   5.621   2.599  2.1194  2.0168  3.0120
   50MOL0     H 6559   3.475   5.469   2.682  2.0348  1.1233 -2.0764
   50MOL0     H 6560   3.232   5.478   2.727 -2.1311  0.5770 -0.8364
   50MOL0     H 6561   3.263   5.499   2.553 -2.8755  1.0929 -0.3389
   50MOL0     H 6562   3.033   5.444   2.685 -1.5803 -0.2797 -1.2263
   50MOL0     H 6563   2.797   5.453   2.672 -0.4576  0.5176  0.3213
   50MOL0     H 6564   2.361   5.648   2.737  0.9589 -0.3904 -1.4450
   50MOL0     H 6565   2.124   5.654   2.663 -0.0236  0.2613 -0.2726
   50MOL0     H 6566   2.040   5.470   2.237 -2.2508 -0.4366 -0.4267
   50MOL0     H 6567   2.035   5.648   2.225 -2.7748  1.5569  0.7179
   50MOL0     H 6568   1.803   5.467   2.303 -0.1603  0.6534 -1.0179
   50MOL0     H 6569   1.814   5.560   2.166 -1.9808  0.0510  0.6452
   50MOL0     H 6570   1.834   5.768   2.323 -2.4084  0.3955 -2.9258
   50MOL0     H 6571   1.799   5.656   2.456  0.0341 -3.7994 -0.8474
   50MOL0     H 6572   1.591   5.622   2.278  2.1738  0.9271 -2.4759
   50MOL0     H 6573   1.598   5.708   2.442 -0.2790  3.9961  0.3296
   50MOL0     H 6574   1.636   5.827   2.168  1.5952 -3.0257  0.2859
   50MOL0     H 6575   1.678   5.909   2.320  1.4302 -0.8196  0.2885
   50MOL0     H 6576   1.437   5.886   2.407  0.4976 -1.5531  0.3615
   50MOL0     H 6577   1.395   5.795   2.272 -1.0809  2.0378  1.3614
   50MOL0     H 6578   1.488   6.086   2.277  1.3473 -0.5394 -1.4461
   50MOL0     H 6579   1.477   6.015   2.131  2.4905 -1.4692  0.7146
   50MOL0     H 6580   1.248   6.067   2.319 -3.2326 -3.0667  0.4223
   50MOL0     H 6581   1.228   5.925   2.221  2.1647 -2.1236  0.6643
   50MOL0     H 6582   2.257   5.521   2.272 -1.3918 -1.8110  0.2181
   50MOL0     H 6583   2.488   5.486   2.360 -0.0163  0.1831 -0.8625
   50MOL0     H 6584   2.822   5.878   2.609 -1.8633 -1.0740  0.1116
   50MOL0     H 6585   3.068   5.874   2.632 -1.3905  0.8350 -0.1357
   50MOL0     H 6586   4.923   5.708   2.209  0.8581 -0.5675 -0.9810
   50MOL0     H 6587   5.066   5.690   2.028 -2.3447 -0.8784 -0.2769
   50MOL0     H 6588   5.210   5.777   1.657  2.1398 -1.9029  1.7140
   50MOL0     H 6589   5.332   5.752   1.441 -0.6903 -0.2607  0.0401
   50MOL0     H 6590   5.709   5.827   1.424  0.1006 -0.9535 -0.6718
   50MOL0     H 6591   5.692   5.997   1.361  3.2713 -1.2005 -0.9776
   50MOL0     H 6592   5.818   5.813   1.216 -0.1088  0.8844 -1.2079
   50MOL0     H 6593   5.656   5.747   1.180 -2.9111  1.8079 -0.3849
   50MOL0     H 6594   5.754   6.043   1.117 -4.3035  2.1576  1.3685
   50MOL0     H 6595   5.596   5.970   1.082 -0.9688  1.6297 -0.0597
   50MOL0     H 6596   5.849   5.893   0.951  0.0555 -1.4026  2.1445
   50MOL0     H 6597   5.723   5.787   0.951  0.9863 -1.2452  3.7143
   50MOL0     H 6598   5.596   6.080   0.670 -1.7731  0.6663  2.9479
   50MOL0     H 6599   5.595   6.073   1.537 -1.2559  0.7158  0.3536
   50MOL0     H 6600   5.487   6.083   1.771  1.7416 -1.3059  2.1189
   51MOL0     O 6601   0.190  10.095   1.267 -0.9080 -0.3291  0.2797
   51MOL0     C 6602   0.173   9.982   1.223  0.5659 -0.7837  0.8255
   51MOL0     O 6603   0.061   9.908   1.240 -0.6158  0.4739 -0.1978
   51MOL0     C 6604  -0.057   9.959   1.283 -0.0420 -0.3056 -0.4749
   51MOL0     C 6605  -0.146   9.872   1.355  0.4684 -0.1627  0.2872
   51MOL0     C 6606  -0.268   9.913   1.393  1.1741  0.0430 -0.1954
   51MOL0     C 6607  -0.315  10.033   1.332  0.4331  0.4805 -0.4873
   51MOL0     O 6608  -0.443  10.079   1.342  0.4930 -0.3758  0.3115
   51MOL0     C 6609  -0.495  10.112   1.477  0.0361 -1.1506  0.0118
   51MOL0     C 6610  -0.565   9.992   1.548 -0.6830  0.3383 -0.0317
   51MOL0     C 6611  -0.668   9.925   1.452 -0.6902  0.0867 -0.4938
   51MOL0     C 6612  -0.761   9.844   1.545  0.3885 -0.1759  0.6751
   51MOL0     C 6613  -0.885   9.805   1.460 -0.1115  0.7009 -0.1819
   51MOL0     C 6614  -0.977   9.724   1.547 -0.1494  0.7313 -0.1437
   51MOL0     C 6615  -1.110   9.681   1.476 -1.1402  0.8707 -0.4301
   51MOL0     C 6616  -1.212   9.794   1.441  0.1920  0.2296 -0.4199
   51MOL0     N 6617  -1.275   9.862   1.563 -0.6237 -0.4903 -0.2572
   51MOL0     C 6618  -1.399   9.831   1.608 -0.7068  0.2145 -0.2560
   51MOL0     C 6619  -1.413   9.909   1.720  0.4767 -0.9891 -0.5432
   51MOL0     C 6620  -1.534   9.923   1.813  0.8180 -1.0820  0.3676
   51MOL0     C 6621  -1.522   9.839   1.945  0.7685  0.1719  1.3340
   51MOL0     C 6622  -1.660   9.826   2.015  0.2759 -0.2457 -0.8498
   51MOL0     C 6623  -1.743   9.954   2.013  0.1413  0.4166 -0.0403
   51MOL0     O 6624  -1.863   9.927   1.939 -0.5649 -1.1835 -0.4209
   51MOL0     C 6625  -1.951  10.033   1.948 -0.2718  1.0304 -0.0634
   51MOL0     C 6626  -1.907  10.165   1.938  0.3171  0.6588 -0.3325
   51MOL0     C 6627  -2.004  10.265   1.934  0.3925 -0.1011  0.0872
   51MOL0     C 6628  -2.147  10.237   1.922  0.1771 -0.4195  0.1652
   51MOL0     C 6629  -2.238  10.352   1.915 -0.3662 -1.0317  0.3773
   51MOL0     O 6630  -2.182  10.481   1.895 -0.0434 -0.6899 -0.1719
   51MOL0     C 6631  -2.252  10.603   1.912  0.1434  0.1721 -0.4470
   51MOL0     C 6632  -2.372  10.632   1.849  0.6442 -0.2353  0.4101
   51MOL0     C 6633  -2.433  10.751   1.874 -0.0457  0.3727  0.0489
   51MOL0     C 6634  -2.378  10.847   1.957  0.2154 -0.4536 -0.9362
   51MOL0     O 6635  -2.432  10.975   1.972  0.1161 -0.0257  0.3569
   51MOL0     C 6636  -2.577  10.983   1.967 -1.0753 -0.1914  0.4481
   51MOL0     C 6637  -2.631  11.108   2.047 -0.0109 -0.4868  1.4812
   51MOL0     C 6638  -2.785  11.121   2.054 -0.1217 -0.8123 -0.2579
   51MOL0     C 6639  -2.837  11.236   2.140  0.5379  0.0140  0.8152
   51MOL0     C 6640  -2.985  11.235   2.145  1.4960 -0.0122 -0.0356
   51MOL0     C 6641  -3.049  11.363   2.215  0.4272  0.1830  0.1489
   51MOL0     C 6642  -3.158  11.329   2.330  0.3082  0.2971  0.0540
   51MOL0     C 6643  -3.222  11.454   2.372 -0.4300 -0.7118 -0.0516
   51MOL0    Cl 6644  -3.091  11.565   2.453 -0.0750  0.0277 -0.0534
   51MOL0     C 6645  -2.252  10.814   2.027  1.0105  0.1417 -0.5184
   51MOL0     C 6646  -2.196  10.689   2.006  0.6204  0.6817  0.0822
   51MOL0     O 6647  -2.356  10.328   1.940  0.1658  0.5462 -0.1565
   51MOL0     C 6648  -2.185  10.103   1.925  0.4036 -0.3421 -0.5936
   51MOL0     C 6649  -2.083  10.001   1.940  0.5676  0.1448 -0.1746
   51MOL0     N 6650  -1.298   9.988   1.730  0.1846  0.7820  0.0470
   51MOL0     N 6651  -1.215   9.949   1.644 -0.1712 -0.2126  0.0514
   51MOL0     C 6652  -0.237  10.127   1.275  0.1679  0.4625  0.2002
   51MOL0     C 6653  -0.105  10.086   1.243 -0.2968  0.2361  1.0388
   51MOL0     C 6654   0.286   9.930   1.153  0.1199 -1.1537  1.4706
   51MOL0     C 6655   0.293   9.793   1.155 -0.8447 -0.6895  0.8451
   51MOL0     C 6656   0.402   9.730   1.084 -0.0503 -0.0838 -0.5962
   51MOL0     C 6657   0.505   9.805   1.024 -0.1310 -0.0919  0.5304
   51MOL0     O 6658   0.605   9.734   0.968 -0.3342  0.1429  0.2305
   51MOL0     C 6659   0.713   9.803   0.914 -0.8933 -0.0935  0.1572
   51MOL0     C 6660   0.824   9.712   0.862 -0.2801  0.9556 -0.4799
   51MOL0     C 6661   0.790   9.631   0.732  0.2071  0.3591  0.2399
   51MOL0     C 6662   0.913   9.546   0.692  0.8977 -0.0509  0.1444
   51MOL0     C 6663   0.886   9.501   0.560 -0.2834  0.1826  0.1394
   51MOL0     C 6664   0.886   9.445   0.455  0.3804 -0.0098  0.0192
   51MOL0     C 6665   0.491   9.944   1.026  0.8410 -0.2802 -0.3061
   51MOL0     C 6666   0.391  10.004   1.098  0.0570 -0.8625 -0.0139
   51MOL0     H 6667  -0.116   9.783   1.408  2.8348  1.8974  2.7289
   51MOL0     H 6668  -0.331   9.845   1.450 -1.0818 -0.1897 -2.7584
   51MOL0     H 6669  -0.571  10.190   1.477  0.4630 -0.6982  1.4547
   51MOL0     H 6670  -0.421  10.168   1.536  0.1406 -0.2079 -0.9865
   51MOL0     H 6671  -0.603  10.020   1.647  1.3868 -0.3724  1.0328
   51MOL0     H 6672  -0.491   9.916   1.575 -0.4269  0.8719  0.8283
   51MOL0     H 6673  -0.613   9.857   1.385 -2.6321  1.3183 -3.5510
   51MOL0     H 6674  -0.726   9.994   1.390 -2.7513  0.4886  1.7399
   51MOL0     H 6675  -0.700   9.756   1.566  0.7975 -0.0980 -0.1244
   51MOL0     H 6676  -0.787   9.892   1.639  0.5753 -3.4339  2.5474
   51MOL0     H 6677  -0.854   9.745   1.374  2.4223  0.4870  0.8229
   51MOL0     H 6678  -0.926   9.897   1.417  0.3956  1.5133  1.0387
   51MOL0     H 6679  -1.004   9.781   1.637  1.7013 -0.9774  1.6241
   51MOL0     H 6680  -0.925   9.635   1.586 -1.0919 -1.0534 -2.7110
   51MOL0     H 6681  -1.080   9.625   1.387  1.3186  1.5179 -0.0927
   51MOL0     H 6682  -1.170   9.612   1.537  0.5511  0.9387  1.4024
   51MOL0     H 6683  -1.293   9.759   1.376  1.0302  2.0228 -2.5996
   51MOL0     H 6684  -1.155   9.865   1.380 -0.3235  3.5526  2.6403
   51MOL0     H 6685  -1.472   9.770   1.556  0.6465 -0.8623 -0.9726
   51MOL0     H 6686  -1.625   9.918   1.753 -0.1048 -2.5735  1.8067
   51MOL0     H 6687  -1.527  10.025   1.850 -1.5158 -1.5866  2.4898
   51MOL0     H 6688  -1.451   9.881   2.016  0.7628  0.0441  1.4160
   51MOL0     H 6689  -1.484   9.740   1.922  1.1445 -0.1133  3.0462
   51MOL0     H 6690  -1.722   9.751   1.966 -0.2847  1.2914 -2.5966
   51MOL0     H 6691  -1.639   9.796   2.119  0.0221  1.8103 -0.1685
   51MOL0     H 6692  -1.689  10.036   1.965  0.3574  0.7096  0.6798
   51MOL0     H 6693  -1.763   9.984   2.117  0.8899  2.2256 -0.3816
   51MOL0     H 6694  -1.806  10.204   1.941  0.6872 -0.3117  0.4654
   51MOL0     H 6695  -1.966  10.367   1.925  0.2119  0.1200  1.6476
   51MOL0     H 6696  -2.424  10.564   1.782 -1.5886 -1.5942  3.2684
   51MOL0     H 6697  -2.512  10.774   1.803  3.1354  2.1797 -3.3117
   51MOL0     H 6698  -2.610  10.897   2.026  1.3941 -1.8272 -0.4132
   51MOL0     H 6699  -2.607  10.996   1.863  0.3398 -0.1709  0.0185
   51MOL0     H 6700  -2.596  11.201   2.002  0.0012 -1.6380 -1.0696
   51MOL0     H 6701  -2.586  11.098   2.146  1.2682 -2.9439  0.7323
   51MOL0     H 6702  -2.826  11.031   2.102  0.9620 -0.4362  1.4769
   51MOL0     H 6703  -2.836  11.131   1.958 -0.5729  1.7547  0.1812
   51MOL0     H 6704  -2.800  11.239   2.243  1.6235  2.4626  0.4232
   51MOL0     H 6705  -2.814  11.331   2.090 -0.7610  0.1152  0.3727
   51MOL0     H 6706  -3.015  11.140   2.190 -1.6701 -0.0676 -1.9361
   51MOL0     H 6707  -3.032  11.222   2.046  0.7402 -0.6720  0.3953
   51MOL0     H 6708  -3.083  11.434   2.139  1.3348  1.3311  0.7759
   51MOL0     H 6709  -2.960  11.418   2.249  0.1655  1.0686 -0.5582
   51MOL0     H 6710  -3.229  11.255   2.290 -0.5838  0.7479  0.7623
   51MOL0     H 6711  -3.108  11.280   2.413 -1.4558 -3.5013 -0.8669
   51MOL0     H 6712  -3.298  11.436   2.449  1.4604 -1.0141  1.8282
   51MOL0     H 6713  -3.270  11.513   2.293  0.5100 -0.0288 -0.1366
   51MOL0     H 6714  -2.200  10.880   2.095  0.6485  0.0285 -0.1246
   51MOL0     H 6715  -2.105  10.653   2.053  0.2696 -2.4724 -1.3730
   51MOL0     H 6716  -2.287  10.067   1.921 -0.7084  2.5744 -2.9309
   51MOL0     H 6717  -2.101   9.894   1.929 -0.8130  0.3774 -0.4073
   51MOL0     H 6718  -0.290  10.215   1.240  0.8035  0.2752 -1.2818
   51MOL0     H 6719  -0.048  10.156   1.183  0.2617 -0.7927  0.3457
   51MOL0     H 6720   0.222   9.732   1.209 -2.5775  0.6067  0.1193
   51MOL0     H 6721   0.424   9.626   1.102  1.3857  0.5211  1.5468
   51MOL0     H 6722   0.751   9.879   0.984 -0.6103 -1.5649  1.6599
   51MOL0     H 6723   0.673   9.855   0.826 -0.5826 -1.7548 -1.0060
   51MOL0     H 6724   0.911   9.766   0.824 -0.2727 -0.4008 -2.5559
   51MOL0     H 6725   0.854   9.652   0.949 -1.9608  2.3871  1.1723
   51MOL0     H 6726   0.762   9.695   0.648  0.3975  0.3674  0.1818
   51MOL0     H 6727   0.709   9.559   0.744  0.3818  0.1560  0.2164
   51MOL0     H 6728   0.996   9.618   0.693  1.5781 -0.8210  0.6484
   51MOL0     H 6729   0.932   9.457   0.754  0.0811 -0.8562 -0.7323
   51MOL0     H 6730   0.882   9.394   0.361 -0.1607  3.9102 -2.2876
   51MOL0     H 6731   0.554  10.017   0.975 -0.1167  2.1593  1.7973
   51MOL0     H 6732   0.389  10.112   1.089  2.5351 -0.9268 -3.1844
   52MOL0     O 6733   3.156   2.751   9.440  0.1014 -0.2547 -0.0376
   52MOL0     C 6734   3.088   2.743   9.336 -0.4371 -0.2538  0.2558
   52MOL0     O 6735   3.108   2.818   9.217  0.0450 -0.3424  0.9092
   52MOL0     C 6736   3.230   2.878   9.202 -0.2265  0.3824  0.0939
   52MOL0     C 6737   3.230   2.989   9.126 -0.3498  0.3057  0.8198
   52MOL0     C 6738   3.345   3.060   9.096  1.1182 -1.2297  0.0780
   52MOL0     C 6739   3.470   3.003   9.130 -0.7113  0.9860  0.8876
   52MOL0     O 6740   3.587   3.056   9.095 -0.2451 -0.1365 -0.1967
   52MOL0     C 6741   3.591   3.169   9.013 -0.2109 -0.0743  0.6990
   52MOL0     C 6742   3.735   3.189   8.978  0.2304  0.0168  0.0192
   52MOL0     C 6743   3.832   3.247   9.077  0.0684 -0.3866 -0.3973
   52MOL0     C 6744   3.981   3.238   9.032  0.3131 -0.4630 -0.3286
   52MOL0     C 6745   4.047   3.094   9.038 -0.3079  0.3393 -0.2427
   52MOL0     C 6746   4.192   3.117   8.980  0.3732 -0.1601  0.0350
   52MOL0     C 6747   4.273   2.988   8.949  0.3754 -0.3615  0.0996
   52MOL0     C 6748   4.411   3.032   8.897 -0.6853  0.4843  0.5408
   52MOL0     N 6749   4.470   3.138   8.971 -0.4893 -0.6075 -0.9311
   52MOL0     C 6750   4.490   3.269   8.926  1.5132 -0.5303  0.3355
   52MOL0     C 6751   4.562   3.324   9.028  1.5498 -0.3298  0.2981
   52MOL0     C 6752   4.610   3.463   9.044  1.1550 -0.1050 -0.1428
   52MOL0     C 6753   4.503   3.571   9.035 -0.0770  0.9977 -0.0145
   52MOL0     C 6754   4.451   3.567   8.893 -0.6439 -0.5103 -0.1307
   52MOL0     C 6755   4.437   3.718   8.856  0.3336  0.7315 -0.0396
   52MOL0     O 6756   4.320   3.785   8.905  0.2119  0.5585 -0.6200
   52MOL0     C 6757   4.204   3.710   8.887 -0.6715 -0.3247 -0.0276
   52MOL0     C 6758   4.118   3.686   8.997 -0.4714 -0.0605  0.4185
   52MOL0     C 6759   3.986   3.637   8.969  0.0104  0.1221 -0.8913
   52MOL0     C 6760   3.936   3.614   8.838 -0.8953  0.6496 -0.8854
   52MOL0     C 6761   3.806   3.567   8.833 -0.2061  0.1330  0.5320
   52MOL0     O 6762   3.720   3.616   8.925 -0.7346  0.1684 -0.1003
   52MOL0     C 6763   3.594   3.563   8.935  0.8188 -0.4335 -0.8688
   52MOL0     C 6764   3.544   3.517   9.057  0.0447  0.2161  0.1617
   52MOL0     C 6765   3.418   3.465   9.064 -0.8150 -0.0699 -0.8871
   52MOL0     C 6766   3.334   3.456   8.952 -0.4467 -1.1582  0.2929
   52MOL0     O 6767   3.209   3.395   8.952  0.0572 -0.1298  0.2840
   52MOL0     C 6768   3.163   3.316   8.838  0.2600 -0.3289 -0.1669
   52MOL0     C 6769   3.022   3.258   8.882 -0.3137 -0.0930  0.1434
   52MOL0     C 6770   2.961   3.160   8.776  0.3161 -0.5664 -0.6108
   52MOL0     C 6771   2.807   3.151   8.783 -0.7788  0.7911  0.0609
   52MOL0     C 6772   2.741   3.266   8.700  0.3221 -0.1235  1.0119
   52MOL0     C 6773   2.586   3.282   8.687  0.2822 -0.6055 -1.1567
   52MOL0     C 6774   2.516   3.155   8.624 -0.1163 -0.2232  0.6184
   52MOL0     C 6775   2.387   3.143   8.700  0.2899  0.3790  0.4329
   52MOL0    Cl 6776   2.406   3.090   8.871  0.2973  0.6245  0.2215
   52MOL0     C 6777   3.387   3.521   8.839  0.3679  0.0219 -0.0893
   52MOL0     C 6778   3.509   3.564   8.828  0.9696  0.1457  1.7708
   52MOL0     O 6779   3.773   3.515   8.724  0.0626 -1.8506 -0.4451
   52MOL0     C 6780   4.027   3.638   8.733 -0.7764 -0.4540  0.2685
   52MOL0     C 6781   4.156   3.686   8.762  0.3531  0.0754  1.5360
   52MOL0     N 6782   4.593   3.227   9.124 -0.2507 -0.0128  1.0235
   52MOL0     N 6783   4.541   3.117   9.087  0.2492  0.1681 -0.7726
   52MOL0     C 6784   3.467   2.891   9.213  0.1589 -0.0258 -0.2243
   52MOL0     C 6785   3.351   2.833   9.255 -0.3336  0.3895 -0.5610
   52MOL0     C 6786   2.971   2.653   9.335  0.4812  0.0552  0.4284
   52MOL0     C 6787   2.919   2.595   9.450 -0.2515 -0.4120  0.0964
   52MOL0     C 6788   2.808   2.511   9.453  0.3868 -0.3031  0.4632
   52MOL0     C 6789   2.745   2.483   9.331 -0.3914  0.7426 -0.1683
   52MOL0     O 6790   2.640   2.399   9.338  0.2593 -0.1373 -0.0822
   52MOL0     C 6791   2.576   2.351   9.216  0.2417  0.7280  0.7544
   52MOL0     C 6792   2.495   2.225   9.257  0.0474 -0.1809  0.0042
   52MOL0     C 6793   2.373   2.192   9.164 -0.5144 -0.2670  0.6997
   52MOL0     C 6794   2.423   2.133   9.021  0.5674 -0.5848 -0.9103
   52MOL0     C 6795   2.315   2.069   8.945  0.2731 -0.4691 -0.0155
   52MOL0     C 6796   2.208   2.012   8.919  0.2947 -0.5334  0.1496
   52MOL0     C 6797   2.800   2.538   9.213 -0.4782  0.0883 -0.2335
   52MOL0     C 6798   2.908   2.618   9.215  0.1793  0.1619  0.4051
   52MOL0     H 6799   3.133   3.024   9.091 -0.0910 -0.0499 -0.2885
   52MOL0     H 6800   3.326   3.151   9.040 -2.0010 -0.4919  2.0578
   52MOL0     H 6801   3.562   3.249   9.083 -1.6179 -0.6122  0.7679
   52MOL0     H 6802   3.540   3.167   8.917  0.4428  0.1441  0.3430
   52MOL0     H 6803   3.742   3.258   8.894 -1.5093 -0.4185 -0.5353
   52MOL0     H 6804   3.782   3.097   8.942  2.2911  1.7488 -1.9623
   52MOL0     H 6805   3.824   3.178   9.162 -3.2997  1.1510  0.6938
   52MOL0     H 6806   3.814   3.351   9.106  2.1596 -0.8477  3.1809
   52MOL0     H 6807   3.980   3.263   8.926 -0.5569  0.3601 -0.1349
   52MOL0     H 6808   4.047   3.304   9.089  0.0932 -2.2092  2.1349
   52MOL0     H 6809   4.001   3.013   8.981  2.0335  0.1392 -2.0222
   52MOL0     H 6810   4.046   3.072   9.145 -4.4316 -1.0070 -0.3886
   52MOL0     H 6811   4.240   3.165   9.066  1.6495 -3.6224  1.4442
   52MOL0     H 6812   4.187   3.184   8.894  3.0838 -2.0412 -1.7652
   52MOL0     H 6813   4.274   2.921   9.035 -0.4370  0.6783  0.9391
   52MOL0     H 6814   4.232   2.929   8.866 -0.5545  0.2800  0.0872
   52MOL0     H 6815   4.405   3.052   8.789 -2.1382 -0.9917  0.3216
   52MOL0     H 6816   4.476   2.948   8.920 -2.0538 -0.4199  1.2224
   52MOL0     H 6817   4.438   3.321   8.846  1.0544 -0.3828  0.7237
   52MOL0     H 6818   4.695   3.484   8.978 -0.5772  3.2821 -1.5240
   52MOL0     H 6819   4.654   3.471   9.143  0.1606 -0.3594  0.3319
   52MOL0     H 6820   4.551   3.667   9.055  2.0603  1.2709 -5.1214
   52MOL0     H 6821   4.427   3.555   9.112  0.7218 -0.6147  0.4997
   52MOL0     H 6822   4.520   3.524   8.819  3.2242  4.0326  0.3776
   52MOL0     H 6823   4.360   3.507   8.886 -0.1860 -1.2537  0.1205
   52MOL0     H 6824   4.431   3.732   8.747 -0.1834  0.4534 -0.0532
   52MOL0     H 6825   4.523   3.771   8.896 -0.6672  2.1608  0.2811
   52MOL0     H 6826   4.154   3.702   9.098  0.5388 -0.7157  0.1814
   52MOL0     H 6827   3.929   3.622   9.060  1.7284 -1.3165 -0.0007
   52MOL0     H 6828   3.611   3.508   9.142 -0.4771  1.9262  0.7902
   52MOL0     H 6829   3.392   3.421   9.160  3.0446  1.5727  1.1248
   52MOL0     H 6830   3.237   3.237   8.825 -1.8341 -1.9453 -3.7327
   52MOL0     H 6831   3.162   3.372   8.745  0.8466  1.6773  0.9683
   52MOL0     H 6832   2.957   3.346   8.889  0.8589  0.9161 -1.0345
   52MOL0     H 6833   3.038   3.209   8.979  1.8169  0.3673  0.0792
   52MOL0     H 6834   3.004   3.060   8.789 -1.5939 -1.2916  0.7790
   52MOL0     H 6835   2.995   3.201   8.681 -1.7311  0.2547 -1.0421
   52MOL0     H 6836   2.788   3.053   8.738 -0.0205  2.5571 -4.5670
   52MOL0     H 6837   2.778   3.151   8.889  1.3540  2.6130  0.7219
   52MOL0     H 6838   2.778   3.260   8.598 -4.1362  2.2214 -1.0484
   52MOL0     H 6839   2.775   3.358   8.749 -2.3945  0.5361  1.8913
   52MOL0     H 6840   2.570   3.372   8.627 -2.9295  1.2042  1.9548
   52MOL0     H 6841   2.546   3.298   8.788  0.3051  0.3399 -1.2892
   52MOL0     H 6842   2.478   3.181   8.525 -0.0982 -0.6612  0.4963
   52MOL0     H 6843   2.560   3.056   8.612 -1.2812 -0.6158 -0.6458
   52MOL0     H 6844   2.314   3.078   8.650 -0.6951  1.1623  0.8347
   52MOL0     H 6845   2.342   3.242   8.701 -3.0559 -0.9506 -1.4675
   52MOL0     H 6846   3.321   3.534   8.754  0.4340  6.2917  0.3805
   52MOL0     H 6847   3.541   3.624   8.743  2.7805 -1.4384  1.2574
   52MOL0     H 6848   4.007   3.614   8.629  1.5533  2.0896 -0.8904
   52MOL0     H 6849   4.219   3.705   8.675 -2.1020  1.8441 -0.0088
   52MOL0     H 6850   3.558   2.843   9.246 -0.3820 -1.4259 -0.6750
   52MOL0     H 6851   3.361   2.746   9.319 -0.2002  0.2569 -0.7631
   52MOL0     H 6852   2.968   2.620   9.544 -1.0316  0.8243  0.1879
   52MOL0     H 6853   2.759   2.475   9.543 -2.0007  2.6735  0.5156
   52MOL0     H 6854   2.654   2.313   9.149 -0.0748 -1.0723  1.3513
   52MOL0     H 6855   2.511   2.418   9.159 -0.0246 -0.6169 -0.6094
   52MOL0     H 6856   2.562   2.139   9.270  0.0164 -0.5573 -2.0441
   52MOL0     H 6857   2.456   2.245   9.357  0.9064  2.5858 -0.1316
   52MOL0     H 6858   2.300   2.273   9.162  0.3471  0.5235 -0.8909
   52MOL0     H 6859   2.313   2.110   9.204 -2.4692  1.2518  1.0195
   52MOL0     H 6860   2.463   2.217   8.964 -3.6271  1.3737 -1.3174
   52MOL0     H 6861   2.492   2.052   9.046 -1.9513 -1.7775  3.3012
   52MOL0     H 6862   2.114   1.965   8.900  0.1346  0.1149 -0.7381
   52MOL0     H 6863   2.762   2.505   9.117  1.2683 -1.7154 -0.3795
   52MOL0     H 6864   2.947   2.658   9.122  1.4331 -2.2298 -0.1848
   53MOL0     O 6865  10.713   7.565   4.787 -0.2192 -0.7351 -0.3735
   53MOL0     C 6866  10.777   7.588   4.890 -0.0181  0.4293  0.4001
   53MOL0     O 6867  10.722   7.631   5.009  0.5801 -0.1123 -1.3051
   53MOL0     C 6868  10.585   7.625   5.023 -0.2242 -0.0155  0.6239
   53MOL0     C 6869  10.534   7.739   5.077  0.1172  0.1523 -0.0418
   53MOL0     C 6870  10.401   7.757   5.104 -0.2422  0.5346 -0.1385
   53MOL0     C 6871  10.311   7.653   5.060  0.3602  0.1797 -0.4207
   53MOL0     O 6872  10.182   7.650   5.089 -0.2528  0.1156 -0.1701
   53MOL0     C 6873  10.141   7.768   5.164  0.0710  0.2889  0.9607
   53MOL0     C 6874   9.985   7.771   5.177 -0.0570  0.0473 -0.7078
   53MOL0     C 6875   9.930   7.908   5.221 -0.0234 -0.4612  0.0440
   53MOL0     C 6876   9.782   7.891   5.244  0.2791 -0.3800 -0.1746
   53MOL0     C 6877   9.705   8.016   5.259  0.7340 -1.2367  0.3235
   53MOL0     C 6878   9.740   8.084   5.388 -1.0375 -0.2511  0.6133
   53MOL0     C 6879   9.653   8.213   5.433 -0.9014  0.9887  0.5874
   53MOL0     C 6880   9.541   8.170   5.524  0.5468 -0.5206 -0.9005
   53MOL0     N 6881   9.402   8.186   5.465  0.0473  0.5216  0.2025
   53MOL0     C 6882   9.355   8.087   5.386  0.0038 -0.2830  0.1200
   53MOL0     C 6883   9.257   8.148   5.323 -0.7266 -0.1695  0.0274
   53MOL0     C 6884   9.176   8.093   5.207 -0.2088 -0.6328 -0.6203
   53MOL0     C 6885   9.034   8.136   5.206 -0.2740  0.5130  0.4687
   53MOL0     C 6886   8.987   8.139   5.063 -0.0483 -0.1118  0.2363
   53MOL0     C 6887   8.843   8.170   5.061 -0.5724 -0.2297  0.4997
   53MOL0     O 6888   8.837   8.309   5.091 -0.3121 -0.4221  0.5919
   53MOL0     C 6889   8.713   8.357   5.100 -0.1043 -0.2059  0.8540
   53MOL0     C 6890   8.602   8.326   5.023  0.9469  0.3135 -0.4544
   53MOL0     C 6891   8.483   8.396   5.044  0.2270 -0.4429  0.8575
   53MOL0     C 6892   8.470   8.502   5.131 -0.1927 -0.2831 -0.2377
   53MOL0     C 6893   8.346   8.584   5.143 -0.7836 -0.3947 -0.3908
   53MOL0     O 6894   8.248   8.549   5.057  0.0781  0.1917 -0.4651
   53MOL0     C 6895   8.125   8.615   5.038  0.0537 -1.0298 -0.7060
   53MOL0     C 6896   8.049   8.568   4.936  0.2059 -0.1194  0.2817
   53MOL0     C 6897   7.911   8.604   4.921  1.4348  0.2827 -0.4525
   53MOL0     C 6898   7.855   8.701   5.002  0.6585 -0.4958 -0.6875
   53MOL0     O 6899   7.719   8.730   4.981 -0.3223  0.2150  0.0841
   53MOL0     C 6900   7.649   8.853   5.025 -0.3310  0.3071  0.0378
   53MOL0     C 6901   7.671   8.971   4.927  0.5582  0.5925 -0.8099
   53MOL0     C 6902   7.607   9.110   4.968  0.3135  0.1959 -0.3234
   53MOL0     C 6903   7.455   9.133   4.929 -0.0358  0.2476  0.2477
   53MOL0     C 6904   7.408   9.263   4.983  0.8964 -0.3728 -0.7381
   53MOL0     C 6905   7.260   9.292   4.967  0.7261 -0.0735  0.0089
   53MOL0     C 6906   7.226   9.427   5.033 -0.1142  0.1174  0.5701
   53MOL0     C 6907   7.099   9.483   4.962  0.7496  0.0285 -0.2395
   53MOL0    Cl 6908   6.959   9.398   5.027 -0.0824  0.2155 -0.6012
   53MOL0     C 6909   7.936   8.761   5.100 -0.4658  0.5673 -0.0764
   53MOL0     C 6910   8.067   8.709   5.125  0.1214 -1.0513  0.0705
   53MOL0     O 6911   8.342   8.690   5.214 -0.9473  0.4189  0.5653
   53MOL0     C 6912   8.586   8.535   5.204 -0.1631 -0.0540  0.5256
   53MOL0     C 6913   8.700   8.463   5.190 -0.7459  0.2567 -0.1825
   53MOL0     N 6914   9.247   8.283   5.361  0.0452  0.3974  0.8409
   53MOL0     N 6915   9.334   8.302   5.460  0.3451 -0.0691  0.3454
   53MOL0     C 6916  10.365   7.530   5.008 -0.0334 -0.5067 -0.6096
   53MOL0     C 6917  10.501   7.520   4.982 -0.2833  0.6633  0.1289
   53MOL0     C 6918  10.922   7.572   4.875  0.3895  0.0907 -0.1683
   53MOL0     C 6919  10.984   7.544   4.754 -0.0601 -0.2669  0.0002
   53MOL0     C 6920  11.116   7.518   4.738 -0.2589 -0.4657 -1.0003
   53MOL0     C 6921  11.202   7.513   4.845 -0.1080  0.4396 -0.4096
   53MOL0     O 6922  11.334   7.481   4.812  0.6323  0.0598 -0.6240
   53MOL0     C 6923  11.395   7.537   4.693  0.9941  0.2127  0.4988
   53MOL0     C 6924  11.547   7.538   4.714 -0.0532  0.4799 -0.5604
   53MOL0     C 6925  11.589   7.647   4.812 -0.2684  0.1933  0.5382
   53MOL0     C 6926  11.748   7.650   4.836 -0.5615  0.2989 -0.4806
   53MOL0     C 6927  11.822   7.674   4.708  1.6832 -0.3761 -0.8832
   53MOL0     C 6928  11.891   7.699   4.613 -0.6270 -0.5304  0.2817
   53MOL0     C 6929  11.146   7.537   4.978  0.3657  0.2855  0.2754
   53MOL0     C 6930  11.006   7.571   4.993 -0.2294 -0.1291  0.1006
   53MOL0     H 6931  10.601   7.819   5.107  0.4667 -0.5264  1.0230
   53MOL0     H 6932  10.381   7.850   5.155  1.2470 -1.2219  4.1624
   53MOL0     H 6933  10.168   7.860   5.112  2.6749 -1.4105 -0.9127
   53MOL0     H 6934  10.187   7.760   5.263 -0.6182 -0.1180  1.2524
   53MOL0     H 6935   9.956   7.694   5.250  0.4920  1.8893  1.5605
   53MOL0     H 6936   9.951   7.745   5.077 -2.7642 -0.6454  0.3119
   53MOL0     H 6937   9.952   7.985   5.147  1.6611 -3.1242 -2.4258
   53MOL0     H 6938   9.978   7.943   5.313  0.3959  1.2641 -0.7984
   53MOL0     H 6939   9.736   7.840   5.159 -0.6952 -0.5261  0.4342
   53MOL0     H 6940   9.764   7.827   5.331  0.1959  1.1267  0.9547
   53MOL0     H 6941   9.598   7.999   5.245  0.3062  1.4114 -0.1653
   53MOL0     H 6942   9.725   8.088   5.180  0.8516 -3.0901 -1.4146
   53MOL0     H 6943   9.845   8.115   5.384 -1.2119  0.1553 -1.7359
   53MOL0     H 6944   9.729   8.013   5.470  1.6895  0.1183  1.4052
   53MOL0     H 6945   9.724   8.269   5.495  2.2616 -2.2061  0.1865
   53MOL0     H 6946   9.616   8.268   5.346  2.7682 -1.2243 -2.7391
   53MOL0     H 6947   9.544   8.241   5.607 -0.1184 -0.5713 -0.8228
   53MOL0     H 6948   9.557   8.071   5.568 -1.7215 -0.6597 -0.2355
   53MOL0     H 6949   9.389   7.985   5.368  1.1289  0.1806 -0.4989
   53MOL0     H 6950   9.174   7.984   5.208 -0.5457 -0.6256 -0.4189
   53MOL0     H 6951   9.231   8.124   5.117  1.4033  1.6300  1.0327
   53MOL0     H 6952   9.017   8.236   5.247  1.4144  1.1272 -0.2302
   53MOL0     H 6953   8.976   8.062   5.262  1.2921 -0.7343  0.5153
   53MOL0     H 6954   9.043   8.214   5.006  3.5667 -3.4391 -1.0317
   53MOL0     H 6955   9.018   8.045   5.017  0.3690  1.6551 -3.4829
   53MOL0     H 6956   8.790   8.130   5.148  0.5758  1.8230  2.2234
   53MOL0     H 6957   8.794   8.144   4.966 -3.8955  1.4857  1.5918
   53MOL0     H 6958   8.607   8.240   4.957  1.9653  1.2007 -1.5636
   53MOL0     H 6959   8.403   8.373   4.975 -0.2003 -1.0336  1.5309
   53MOL0     H 6960   8.086   8.485   4.877 -1.4231 -1.3966  0.9587
   53MOL0     H 6961   7.847   8.546   4.855  0.5538  1.4219 -0.6234
   53MOL0     H 6962   7.688   8.867   5.127  0.1169 -1.6805  0.1957
   53MOL0     H 6963   7.542   8.833   5.030  0.2045 -2.8192  1.4825
   53MOL0     H 6964   7.635   8.947   4.827 -0.9697 -1.8314  0.2173
   53MOL0     H 6965   7.779   8.986   4.917  0.9106 -1.1067  0.0175
   53MOL0     H 6966   7.656   9.190   4.911 -0.6129  2.2170  1.5594
   53MOL0     H 6967   7.626   9.131   5.073  0.4060 -1.2669 -0.0292
   53MOL0     H 6968   7.455   9.124   4.820 -0.1019 -1.0237  0.3410
   53MOL0     H 6969   7.393   9.058   4.978  0.0522  0.0437  0.0491
   53MOL0     H 6970   7.456   9.352   4.940 -1.2611  0.5385 -1.4259
   53MOL0     H 6971   7.422   9.277   5.090 -0.8370 -0.7607 -0.4302
   53MOL0     H 6972   7.209   9.218   5.029 -1.3874  0.2732 -1.2293
   53MOL0     H 6973   7.241   9.288   4.859 -2.5212 -1.9866  0.5080
   53MOL0     H 6974   7.210   9.424   5.141 -1.8019  1.8277  0.4149
   53MOL0     H 6975   7.309   9.496   5.015  0.3385 -1.0005 -2.0639
   53MOL0     H 6976   7.095   9.463   4.855  0.1382  1.0861 -0.4297
   53MOL0     H 6977   7.077   9.591   4.968 -2.3413 -0.3197 -2.5775
   53MOL0     H 6978   7.891   8.842   5.155  1.5360  0.7993  1.3558
   53MOL0     H 6979   8.114   8.751   5.213 -0.7530  1.8034 -0.7190
   53MOL0     H 6980   8.575   8.620   5.270 -1.8382 -0.4343  0.7731
   53MOL0     H 6981   8.785   8.497   5.248  0.8775  0.9493 -2.8068
   53MOL0     H 6982  10.287   7.462   4.974 -2.7491  0.1023  3.5890
   53MOL0     H 6983  10.544   7.428   4.944 -3.3270 -1.9724  2.4776
   53MOL0     H 6984  10.917   7.528   4.670  1.1561 -1.6255 -0.7704
   53MOL0     H 6985  11.148   7.519   4.634  0.2439  1.4543 -0.8675
   53MOL0     H 6986  11.355   7.637   4.675 -1.4714 -1.0970 -2.0717
   53MOL0     H 6987  11.364   7.477   4.607 -0.2699  1.2442  0.2013
   53MOL0     H 6988  11.576   7.436   4.742 -0.1645  0.6458  0.1685
   53MOL0     H 6989  11.585   7.569   4.616 -0.0871  2.6124  0.0594
   53MOL0     H 6990  11.537   7.647   4.908 -3.7017  0.7567 -1.1449
   53MOL0     H 6991  11.560   7.739   4.759 -0.5980 -1.3049 -2.0680
   53MOL0     H 6992  11.791   7.718   4.910  0.6849 -3.4177  2.5015
   53MOL0     H 6993  11.773   7.550   4.870 -4.5188 -0.4447  0.7324
   53MOL0     H 6994  11.962   7.717   4.536 -1.7674  2.1616 -0.2632
   53MOL0     H 6995  11.209   7.540   5.067  2.7315 -1.2452 -1.2062
   53MOL0     H 6996  10.969   7.580   5.094 -1.1524 -1.7148 -0.0635
   54MOL0     O 6997  11.262   7.906   4.374 -0.7199 -0.4340 -0.5520
   54MOL0     C 6998  11.258   7.826   4.281  0.2259 -0.6390 -0.9284
   54MOL0     O 6999  11.158   7.816   4.185 -0.2798  0.1001  0.5700
   54MOL0     C 7000  11.044   7.891   4.180  0.5452 -0.3276  0.1631
   54MOL0     C 7001  11.044   8.023   4.224 -0.1162 -0.5559  0.3210
   54MOL0     C 7002  10.936   8.119   4.200  0.4799  0.3701  0.2751
   54MOL0     C 7003  10.814   8.071   4.138  0.1969  0.8811 -0.6424
   54MOL0     O 7004  10.705   8.145   4.132  1.0328 -0.1937 -0.1342
   54MOL0     C 7005  10.703   8.289   4.168  0.3208 -0.1485 -0.2573
   54MOL0     C 7006  10.567   8.348   4.153 -1.1551  0.0032 -1.2674
   54MOL0     C 7007  10.480   8.301   4.278 -0.3769 -0.4950  0.6832
   54MOL0     C 7008  10.378   8.416   4.312  0.2210  0.0059 -0.1953
   54MOL0     C 7009  10.262   8.349   4.384  0.0250  0.4015 -0.1089
   54MOL0     C 7010  10.176   8.458   4.447  0.5171  0.6012  0.1673
   54MOL0     C 7011  10.048   8.396   4.511  0.1317 -0.3109 -1.0944
   54MOL0     C 7012   9.958   8.503   4.575 -0.3343 -0.7325 -0.0952
   54MOL0     N 7013   9.841   8.456   4.641  0.5067 -0.4887  0.6018
   54MOL0     C 7014   9.715   8.463   4.591  0.1561 -0.6886  0.0912
   54MOL0     C 7015   9.633   8.414   4.691  0.1115  0.5119  0.9461
   54MOL0     C 7016   9.481   8.393   4.712 -0.3331  0.4477  0.0352
   54MOL0     C 7017   9.422   8.482   4.820  0.0921  0.0268 -1.2052
   54MOL0     C 7018   9.434   8.425   4.962  0.0856 -0.3029  0.4924
   54MOL0     C 7019   9.319   8.495   5.047 -0.0466 -0.2629 -0.6921
   54MOL0     O 7020   9.351   8.630   5.066  0.2760  0.0747 -0.4695
   54MOL0     C 7021   9.257   8.725   5.094  0.6297 -0.0206  0.2453
   54MOL0     C 7022   9.158   8.704   5.195  0.1140  0.9642 -0.6205
   54MOL0     C 7023   9.061   8.790   5.229  0.6710  0.3409 -1.0614
   54MOL0     C 7024   9.049   8.902   5.153  0.1751 -0.3964  0.7969
   54MOL0     C 7025   8.929   8.984   5.163 -0.1367  0.6462  0.2863
   54MOL0     O 7026   8.831   8.940   5.242 -0.1112 -0.8428 -0.5467
   54MOL0     C 7027   8.719   9.017   5.259  0.0375  0.3030  0.0565
   54MOL0     C 7028   8.721   9.152   5.284 -0.3228 -0.4123  0.2149
   54MOL0     C 7029   8.594   9.220   5.290 -0.0595  0.6610  0.5248
   54MOL0     C 7030   8.477   9.155   5.263  1.2662  0.4505 -0.0868
   54MOL0     O 7031   8.358   9.228   5.247 -0.1159 -0.3061  0.3587
   54MOL0     C 7032   8.348   9.369   5.271 -0.1487  0.0778  0.1797
   54MOL0     C 7033   8.219   9.403   5.184  0.0870  1.8413  0.2248
   54MOL0     C 7034   8.196   9.554   5.172  0.4985  0.4903  0.5725
   54MOL0     C 7035   8.132   9.612   5.302 -0.4930  0.5238 -0.4344
   54MOL0     C 7036   7.990   9.581   5.337  0.2588 -0.0083  0.3779
   54MOL0     C 7037   7.887   9.666   5.275  0.0290  0.4197  0.1568
   54MOL0     C 7038   7.741   9.625   5.300  0.5861  0.2774 -0.0965
   54MOL0     C 7039   7.644   9.649   5.179 -0.1489 -0.1753 -0.9002
   54MOL0    Cl 7040   7.481   9.615   5.238  0.2022  0.0522  0.7656
   54MOL0     C 7041   8.479   9.019   5.234  0.5404 -1.1669 -0.0609
   54MOL0     C 7042   8.598   8.952   5.245  0.1853  0.1661 -0.5573
   54MOL0     O 7043   8.930   9.086   5.093  0.9570  0.2617  0.0714
   54MOL0     C 7044   9.133   8.920   5.042  0.0387 -0.7628  0.5002
   54MOL0     C 7045   9.241   8.832   5.015  0.2733 -0.0563 -0.0750
   54MOL0     N 7046   9.717   8.376   4.793 -0.0084 -0.4460 -0.0505
   54MOL0     N 7047   9.838   8.397   4.762  0.5680 -0.5796 -0.0320
   54MOL0     C 7048  10.815   7.940   4.094 -0.9228 -0.3528  0.6979
   54MOL0     C 7049  10.931   7.851   4.115 -0.1825  0.8201 -0.0556
   54MOL0     C 7050  11.367   7.738   4.264 -0.6774 -0.4815 -0.7504
   54MOL0     C 7051  11.375   7.651   4.162  0.0641  0.6626 -0.8829
   54MOL0     C 7052  11.484   7.570   4.144  0.0702 -0.1333  0.1823
   54MOL0     C 7053  11.596   7.566   4.232 -0.3463  0.3744 -0.1264
   54MOL0     O 7054  11.697   7.477   4.194  0.2308  0.7989 -1.0160
   54MOL0     C 7055  11.830   7.500   4.249  0.5010  0.1929  0.0545
   54MOL0     C 7056  11.892   7.622   4.195  0.1974 -0.0454 -0.1922
   54MOL0     C 7057  11.922   7.611   4.054 -0.1751 -0.3812  0.2173
   54MOL0     C 7058  11.803   7.660   3.970  0.2701 -0.1689  0.3760
   54MOL0     C 7059  11.838   7.685   3.829 -0.2458  0.6402 -1.0736
   54MOL0     C 7060  11.853   7.711   3.717 -0.0293 -0.0568 -0.7642
   54MOL0     C 7061  11.591   7.660   4.329 -0.9148  0.5471  1.0573
   54MOL0     C 7062  11.482   7.741   4.344  0.7814 -0.0900 -0.7163
   54MOL0     H 7063  11.124   8.074   4.277 -1.2759 -1.9082  3.6425
   54MOL0     H 7064  10.934   8.218   4.243 -1.2685  0.4206  0.1694
   54MOL0     H 7065  10.778   8.341   4.108 -1.7799  3.8812  0.3161
   54MOL0     H 7066  10.735   8.301   4.271  1.4935  0.4252 -0.6757
   54MOL0     H 7067  10.515   8.333   4.057  0.2425  1.5739 -2.3214
   54MOL0     H 7068  10.579   8.457   4.157 -2.0367  0.1739 -2.4289
   54MOL0     H 7069  10.554   8.288   4.358 -0.1202  1.6065  0.8600
   54MOL0     H 7070  10.431   8.207   4.254 -0.4029 -1.0012  2.5514
   54MOL0     H 7071  10.413   8.492   4.383  1.4399  0.8578 -1.6558
   54MOL0     H 7072  10.344   8.459   4.218  1.4618  1.0023 -0.2199
   54MOL0     H 7073  10.300   8.276   4.455 -1.5373 -2.9372 -2.4691
   54MOL0     H 7074  10.212   8.290   4.307  1.4644 -3.6993  1.8030
   54MOL0     H 7075  10.141   8.530   4.373 -0.8698  0.1204  0.3238
   54MOL0     H 7076  10.231   8.510   4.526  0.4961 -1.2867  1.5067
   54MOL0     H 7077   9.993   8.348   4.430 -0.2620  0.8439 -1.5197
   54MOL0     H 7078  10.083   8.325   4.587  0.7381  0.3434 -0.7562
   54MOL0     H 7079   9.928   8.569   4.494 -1.4671 -0.1316  0.7714
   54MOL0     H 7080  10.012   8.564   4.648 -0.2161  0.1471 -0.9031
   54MOL0     H 7081   9.677   8.499   4.495  2.4105  0.9709 -0.2796
   54MOL0     H 7082   9.468   8.285   4.727 -0.6912 -0.1578 -3.6330
   54MOL0     H 7083   9.429   8.415   4.618  1.6428 -0.4206 -1.3305
   54MOL0     H 7084   9.316   8.493   4.795 -0.2769 -3.0190 -1.2694
   54MOL0     H 7085   9.475   8.578   4.818  2.8410 -1.3982 -1.0614
   54MOL0     H 7086   9.415   8.318   4.956 -1.8173  0.0348 -0.4152
   54MOL0     H 7087   9.531   8.442   5.009  1.1363 -1.6064 -1.1176
   54MOL0     H 7088   9.319   8.452   5.147 -1.3827 -0.1998 -0.6552
   54MOL0     H 7089   9.221   8.482   5.001 -1.4096  3.1005  0.9686
   54MOL0     H 7090   9.156   8.615   5.257  2.5200  1.4354  0.2465
   54MOL0     H 7091   8.993   8.779   5.312  1.5186  0.2662 -0.3646
   54MOL0     H 7092   8.813   9.208   5.290  0.0596 -0.9147 -0.7349
   54MOL0     H 7093   8.584   9.325   5.313  1.7285  1.3779 -1.6176
   54MOL0     H 7094   8.438   9.420   5.235  1.6978 -2.8469  0.2784
   54MOL0     H 7095   8.315   9.389   5.373  0.5174  1.2737  0.1744
   54MOL0     H 7096   8.132   9.343   5.211  0.0927  1.8472  0.2601
   54MOL0     H 7097   8.231   9.382   5.078 -2.6456  0.9980  0.0269
   54MOL0     H 7098   8.124   9.568   5.090 -0.8470 -0.6425  1.5100
   54MOL0     H 7099   8.290   9.603   5.146 -0.2129  1.4946 -0.1737
   54MOL0     H 7100   8.189   9.574   5.387 -1.4963 -1.5584 -0.6338
   54MOL0     H 7101   8.146   9.720   5.292 -1.4415  0.6054 -1.0318
   54MOL0     H 7102   7.984   9.583   5.446 -1.0479 -1.0102  0.3536
   54MOL0     H 7103   7.980   9.480   5.296  0.8539  0.5301 -1.1683
   54MOL0     H 7104   7.898   9.645   5.168 -3.7702 -2.1289  0.0978
   54MOL0     H 7105   7.904   9.771   5.300 -2.2596  0.4161  2.0796
   54MOL0     H 7106   7.738   9.517   5.315  2.8134 -0.0615 -1.6013
   54MOL0     H 7107   7.706   9.669   5.394  0.0441 -2.4866  1.0721
   54MOL0     H 7108   7.670   9.584   5.095 -1.3942 -2.4150  0.3526
   54MOL0     H 7109   7.636   9.756   5.158  1.7082  0.1604 -0.0845
   54MOL0     H 7110   8.394   8.955   5.212 -0.3769 -0.7679  2.0093
   54MOL0     H 7111   8.606   8.845   5.233  2.4467  0.2029  0.1841
   54MOL0     H 7112   9.120   9.013   4.988 -2.0035 -1.5604 -0.4693
   54MOL0     H 7113   9.310   8.849   4.932  0.6636 -0.8986  0.0707
   54MOL0     H 7114  10.723   7.904   4.050 -1.4415  1.3912  0.2794
   54MOL0     H 7115  10.924   7.748   4.084  1.1026  0.8151 -0.3816
   54MOL0     H 7116  11.300   7.643   4.084 -1.7912  0.8474  0.7951
   54MOL0     H 7117  11.481   7.503   4.059  0.8950  0.1631 -0.0970
   54MOL0     H 7118  11.887   7.411   4.221 -1.5633 -1.6646  1.4135
   54MOL0     H 7119  11.822   7.500   4.358 -1.7046 -1.6492 -0.0234
   54MOL0     H 7120  11.826   7.709   4.202 -0.9534 -0.9192  0.1235
   54MOL0     H 7121  11.984   7.634   4.252  0.3983  1.1496 -0.7285
   54MOL0     H 7122  11.963   7.516   4.020  0.2598  0.8056 -2.8798
   54MOL0     H 7123  12.007   7.678   4.038  0.3096 -1.1621 -0.5501
   54MOL0     H 7124  11.734   7.575   3.967  1.6760 -1.3259 -0.4446
   54MOL0     H 7125  11.738   7.736   4.015 -1.0493 -1.6020  1.0135
   54MOL0     H 7126  11.871   7.751   3.619  1.8571  3.3422  0.7782
   54MOL0     H 7127  11.670   7.666   4.404 -0.7821  1.3190  0.8669
   54MOL0     H 7128  11.492   7.815   4.423 -0.5200  0.9484 -1.4651
   55MOL0     O 7129   4.285   1.866   2.875 -0.5840  0.3244  0.3647
   55MOL0     C 7130   4.201   1.890   2.963 -0.3187 -0.0581 -0.2057
   55MOL0     O 7131   4.069   1.922   2.943  0.1574 -0.2778  0.5309
   55MOL0     C 7132   4.010   1.911   2.813  0.4962 -0.2271 -1.0662
   55MOL0     C 7133   3.895   1.987   2.778 -0.8079  0.2319 -0.3661
   55MOL0     C 7134   3.849   1.983   2.650 -0.1593 -0.1607 -0.0756
   55MOL0     C 7135   3.890   1.894   2.557  0.1113  0.1174  0.1311
   55MOL0     O 7136   3.828   1.894   2.434 -0.8339 -0.2911  0.5237
   55MOL0     C 7137   3.863   1.796   2.335  0.3205 -0.1666  0.1657
   55MOL0     C 7138   3.751   1.811   2.231  1.1705  0.2360  0.4460
   55MOL0     C 7139   3.627   1.718   2.265 -0.5353  0.6691 -0.5552
   55MOL0     C 7140   3.510   1.730   2.157 -0.0901 -0.5683 -0.7592
   55MOL0     C 7141   3.371   1.730   2.223  0.4688 -0.0368 -0.5526
   55MOL0     C 7142   3.261   1.716   2.122  0.3729  0.4833  0.6616
   55MOL0     C 7143   3.126   1.737   2.181  0.6871  0.5499 -0.2177
   55MOL0     C 7144   3.016   1.719   2.080 -0.0084 -0.7008  0.4225
   55MOL0     N 7145   2.884   1.702   2.137  0.3455  0.0777 -0.4633
   55MOL0     C 7146   2.809   1.785   2.223  0.4299  0.6026  0.1699
   55MOL0     C 7147   2.699   1.713   2.241  0.4952 -0.5876 -0.1151
   55MOL0     C 7148   2.576   1.779   2.306 -0.8294 -0.2086  0.0173
   55MOL0     C 7149   2.451   1.691   2.287 -0.1598 -0.3945  0.0988
   55MOL0     C 7150   2.328   1.739   2.363 -0.4104 -0.3404 -1.0549
   55MOL0     C 7151   2.193   1.682   2.330 -0.2067  0.2253  0.1344
   55MOL0     O 7152   2.097   1.762   2.399  0.2901 -0.3871 -0.2164
   55MOL0     C 7153   1.965   1.723   2.407  0.1270  0.1562  0.1197
   55MOL0     C 7154   1.876   1.788   2.491  0.0917  0.2469 -0.8175
   55MOL0     C 7155   1.743   1.761   2.502  0.4763 -0.0608 -0.4544
   55MOL0     C 7156   1.686   1.680   2.408 -0.1739 -0.0669 -0.6978
   55MOL0     C 7157   1.546   1.645   2.414  1.0412  0.3664  1.1574
   55MOL0     O 7158   1.503   1.598   2.298  0.0137  0.1402  0.1094
   55MOL0     C 7159   1.377   1.550   2.278  1.5327 -1.1361 -0.2028
   55MOL0     C 7160   1.275   1.633   2.232 -0.4703 -0.5554  0.7635
   55MOL0     C 7161   1.152   1.597   2.200 -0.1756 -0.6792  0.1369
   55MOL0     C 7162   1.115   1.464   2.205  0.6940  1.3987  0.1495
   55MOL0     O 7163   0.988   1.437   2.165 -0.2127  0.3257  0.0850
   55MOL0     C 7164   0.882   1.483   2.252 -0.0063 -1.1571 -0.0302
   55MOL0     C 7165   0.789   1.588   2.191  0.3377  0.3765 -0.4807
   55MOL0     C 7166   0.649   1.530   2.178  0.8385  0.9177 -0.0549
   55MOL0     C 7167   0.550   1.629   2.114 -0.2151 -0.4298 -0.3481
   55MOL0     C 7168   0.411   1.576   2.092  0.5629  0.9056 -0.5237
   55MOL0     C 7169   0.328   1.669   2.007  1.4435 -0.8493 -0.4589
   55MOL0     C 7170   0.189   1.611   1.992 -0.6217 -0.2224  0.0747
   55MOL0     C 7171   0.107   1.682   1.883 -0.5527  0.0479  1.0242
   55MOL0    Cl 7172  -0.032   1.576   1.843 -0.1903 -0.0171 -0.2612
   55MOL0     C 7173   1.218   1.373   2.243  0.0345  0.1387  1.0290
   55MOL0     C 7174   1.345   1.417   2.275 -0.6508  0.2292  0.2859
   55MOL0     O 7175   1.473   1.669   2.514 -0.6097 -0.1825 -0.5959
   55MOL0     C 7176   1.767   1.607   2.306  0.0968  0.5448 -0.5551
   55MOL0     C 7177   1.909   1.628   2.314 -0.8638 -0.7765 -0.4629
   55MOL0     N 7178   2.717   1.585   2.191 -0.1608  0.8388 -0.2197
   55MOL0     N 7179   2.831   1.574   2.141 -0.2062 -0.2671 -0.2228
   55MOL0     C 7180   3.989   1.812   2.593 -0.2454 -0.0471  0.1457
   55MOL0     C 7181   4.049   1.815   2.718  1.4264 -0.1385 -0.2267
   55MOL0     C 7182   4.259   1.893   3.103 -0.0923 -0.4280  0.9206
   55MOL0     C 7183   4.391   1.849   3.122 -0.5437  0.0589  0.0140
   55MOL0     C 7184   4.451   1.852   3.246  0.0911 -0.1814 -0.1558
   55MOL0     C 7185   4.388   1.920   3.355  0.0991 -0.2727 -0.7179
   55MOL0     O 7186   4.468   1.930   3.469  0.2955  0.2596 -0.7836
   55MOL0     C 7187   4.393   1.953   3.592 -0.5362  0.3057  0.3437
   55MOL0     C 7188   4.491   1.949   3.712 -0.1030  0.4359 -0.3624
   55MOL0     C 7189   4.607   2.048   3.687  0.8157 -0.2863  0.3733
   55MOL0     C 7190   4.711   2.057   3.803  0.4344 -1.3245  0.1254
   55MOL0     C 7191   4.769   2.197   3.811  0.1531  0.0184  0.0090
   55MOL0     C 7192   4.817   2.303   3.812 -0.7224 -0.6952 -0.2662
   55MOL0     C 7193   4.251   1.963   3.333 -1.2946 -0.1317  0.5337
   55MOL0     C 7194   4.198   1.951   3.208 -0.1622  1.0506  0.2648
   55MOL0     H 7195   3.855   2.064   2.842  1.0360  1.9509 -1.1553
   55MOL0     H 7196   3.761   2.041   2.625 -1.5967 -1.1884  2.2194
   55MOL0     H 7197   3.850   1.698   2.382 -2.2507  0.1610  0.2885
   55MOL0     H 7198   3.966   1.807   2.299  0.5102 -3.2529 -0.5229
   55MOL0     H 7199   3.800   1.768   2.143  0.1476  0.6106 -0.3171
   55MOL0     H 7200   3.724   1.912   2.200  1.8909  0.3139  0.0417
   55MOL0     H 7201   3.581   1.753   2.359  3.1900  1.0162  1.3178
   55MOL0     H 7202   3.654   1.617   2.297  1.0086  0.7729 -1.4484
   55MOL0     H 7203   3.517   1.810   2.083  1.5374 -2.7491 -3.1738
   55MOL0     H 7204   3.526   1.642   2.093  2.5953  0.7989 -2.1811
   55MOL0     H 7205   3.351   1.823   2.276 -1.5178 -0.0408 -1.1960
   55MOL0     H 7206   3.360   1.645   2.292 -3.3053 -1.8111 -3.0086
   55MOL0     H 7207   3.264   1.618   2.072 -0.7280 -0.4416  2.3300
   55MOL0     H 7208   3.278   1.788   2.041  2.5073  0.6333  1.1684
   55MOL0     H 7209   3.103   1.663   2.258 -0.7139  2.6449  1.4835
   55MOL0     H 7210   3.111   1.830   2.236  0.8011 -1.3462  3.3107
   55MOL0     H 7211   3.034   1.634   2.013 -0.5043  0.7694 -1.7092
   55MOL0     H 7212   3.029   1.805   2.014  1.0704 -1.3405 -0.2431
   55MOL0     H 7213   2.835   1.882   2.263  2.4255 -0.0054  0.4640
   55MOL0     H 7214   2.556   1.874   2.255  1.2569 -0.7923 -2.0424
   55MOL0     H 7215   2.590   1.809   2.411  1.0331  2.6504 -0.9389
   55MOL0     H 7216   2.484   1.592   2.319 -0.8547 -0.4345  0.7047
   55MOL0     H 7217   2.426   1.678   2.181  2.0654 -0.6328 -0.4436
   55MOL0     H 7218   2.354   1.723   2.468 -1.6615  0.2958 -0.6332
   55MOL0     H 7219   2.314   1.846   2.347 -2.3665 -0.2501  0.8228
   55MOL0     H 7220   2.193   1.575   2.354 -1.4084  0.2348  0.2181
   55MOL0     H 7221   2.168   1.683   2.224  1.7085 -1.8378 -0.4273
   55MOL0     H 7222   1.930   1.860   2.552  3.9241  0.1487 -3.6825
   55MOL0     H 7223   1.675   1.799   2.577 -1.2105 -0.3023 -1.7841
   55MOL0     H 7224   1.302   1.738   2.224 -0.3059 -0.6615 -0.2337
   55MOL0     H 7225   1.082   1.674   2.169  1.2675  0.8773  0.6266
   55MOL0     H 7226   0.924   1.525   2.344  1.6039  0.8368 -1.5863
   55MOL0     H 7227   0.834   1.391   2.288  1.0577 -2.1351 -1.0226
   55MOL0     H 7228   0.824   1.606   2.089 -0.1825 -3.2548 -1.4524
   55MOL0     H 7229   0.797   1.677   2.254  4.4028 -1.2438  1.6810
   55MOL0     H 7230   0.609   1.517   2.280  3.5506  0.5319  1.0322
   55MOL0     H 7231   0.653   1.435   2.125  0.6071  0.8838 -0.0142
   55MOL0     H 7232   0.559   1.722   2.172  1.7343 -1.4176  1.0522
   55MOL0     H 7233   0.584   1.648   2.012 -2.2337 -1.6210 -1.3197
   55MOL0     H 7234   0.368   1.552   2.190  0.1953  0.2405 -0.8426
   55MOL0     H 7235   0.418   1.476   2.049  1.6690  0.0890  1.4114
   55MOL0     H 7236   0.374   1.660   1.908 -2.3019 -2.1370 -2.3089
   55MOL0     H 7237   0.340   1.770   2.046  1.4656 -1.3956  1.0158
   55MOL0     H 7238   0.197   1.509   1.954 -0.3616  0.2029 -1.0491
   55MOL0     H 7239   0.138   1.611   2.089  0.4140  1.9324  0.6919
   55MOL0     H 7240   0.164   1.694   1.791 -0.6687  0.2477  0.9763
   55MOL0     H 7241   0.073   1.783   1.910 -0.7202  0.3403 -0.2150
   55MOL0     H 7242   1.209   1.268   2.266  3.3076 -0.4146  0.3814
   55MOL0     H 7243   1.427   1.354   2.308 -1.5675 -1.0327  0.1987
   55MOL0     H 7244   1.730   1.538   2.231 -0.5194  1.4019 -1.0675
   55MOL0     H 7245   1.972   1.595   2.232  1.7954  2.5111  0.0472
   55MOL0     H 7246   4.037   1.745   2.522  0.7473 -1.5112  2.0829
   55MOL0     H 7247   4.122   1.738   2.741  0.7812 -0.1552  2.0368
   55MOL0     H 7248   4.451   1.809   3.041 -0.9332 -0.1110 -0.1942
   55MOL0     H 7249   4.558   1.832   3.250  0.4493  1.6918  1.5060
   55MOL0     H 7250   4.315   1.878   3.611  1.5783 -1.2813  3.8734
   55MOL0     H 7251   4.359   2.057   3.591  3.4605  1.8014 -0.1167
   55MOL0     H 7252   4.445   1.956   3.811 -0.1398 -0.8169 -0.2866
   55MOL0     H 7253   4.539   1.852   3.705  0.2790  0.6431 -0.6494
   55MOL0     H 7254   4.564   2.147   3.671 -1.6578 -1.1790  1.0133
   55MOL0     H 7255   4.676   2.025   3.606  1.8770 -0.5781  1.3267
   55MOL0     H 7256   4.662   2.027   3.896  2.5892  1.2881  2.2683
   55MOL0     H 7257   4.795   1.989   3.789 -0.5985 -2.1289 -3.0718
   55MOL0     H 7258   4.856   2.403   3.818  1.6810 -1.6273  1.5035
   55MOL0     H 7259   4.200   2.014   3.414 -0.0232 -1.0324  1.9553
   55MOL0     H 7260   4.107   2.006   3.186  0.2970  0.9542 -2.0925
   56MOL0     O 7261   3.417   7.263   8.298  0.1900 -0.5068 -0.9590
   56MOL0     C 7262   3.486   7.366   8.316  0.1772  1.3462 -0.2482
   56MOL0     O 7263   3.454   7.486   8.273 -0.2294  0.8308 -0.0637
   56MOL0     C 7264   3.326   7.523   8.253 -0.0946 -0.9677 -0.4284
   56MOL0     C 7265   3.318   7.645   8.185  0.2945  0.3155  0.9199
   56MOL0     C 7266   3.191   7.705   8.163 -0.1594  0.5880  0.4975
   56MOL0     C 7267   3.073   7.632   8.184 -0.9534  0.3379  0.1427
   56MOL0     O 7268   2.949   7.652   8.135 -0.2288  1.2141 -0.7980
   56MOL0     C 7269   2.926   7.778   8.068 -0.3136  0.7437  0.2604
   56MOL0     C 7270   2.791   7.756   7.999  0.6089  0.6580 -0.1076
   56MOL0     C 7271   2.679   7.758   8.106  0.2373  0.2301  0.9593
   56MOL0     C 7272   2.545   7.743   8.026 -0.1384  0.0595 -0.1087
   56MOL0     C 7273   2.424   7.739   8.118  0.1647 -0.0303 -0.0039
   56MOL0     C 7274   2.306   7.757   8.018  0.4495  0.1440 -0.0930
   56MOL0     C 7275   2.166   7.751   8.099 -1.0952 -0.0465 -0.3027
   56MOL0     C 7276   2.045   7.823   8.018 -0.6429  0.7097 -0.1594
   56MOL0     N 7277   1.924   7.838   8.105 -0.9488 -0.4976  0.5949
   56MOL0     C 7278   1.918   7.912   8.220 -0.4421  0.1227 -0.2179
   56MOL0     C 7279   1.798   7.875   8.283 -0.5043 -0.0163 -0.0098
   56MOL0     C 7280   1.742   7.907   8.418 -0.8743 -0.5229 -0.4385
   56MOL0     C 7281   1.660   8.040   8.417 -0.6620  0.7224 -0.0478
   56MOL0     C 7282   1.635   8.101   8.558  0.2471  0.1579 -0.1055
   56MOL0     C 7283   1.643   8.255   8.560 -0.0736  0.1487  0.2392
   56MOL0     O 7284   1.523   8.332   8.512 -0.6993 -0.0586 -0.2466
   56MOL0     C 7285   1.402   8.320   8.576 -0.5775 -0.1281  0.6265
   56MOL0     C 7286   1.291   8.324   8.500 -0.5449  0.3227 -0.5305
   56MOL0     C 7287   1.166   8.312   8.553 -0.0366 -0.9363 -0.2098
   56MOL0     C 7288   1.142   8.287   8.696 -1.0951 -0.8143 -0.6310
   56MOL0     C 7289   1.006   8.285   8.753 -0.1795  0.2674 -0.1688
   56MOL0     O 7290   0.907   8.245   8.675  0.5179  0.8410  0.5075
   56MOL0     C 7291   0.784   8.210   8.726 -0.0241 -0.4891 -0.1724
   56MOL0     C 7292   0.769   8.100   8.801 -0.3010  0.6258 -0.5326
   56MOL0     C 7293   0.651   8.070   8.865 -0.1235  0.4333  0.0200
   56MOL0     C 7294   0.536   8.141   8.835  0.3724 -0.9584  0.3699
   56MOL0     O 7295   0.422   8.092   8.882  0.0372 -0.5003  0.1251
   56MOL0     C 7296   0.305   8.117   8.808 -0.5142 -1.2612  0.2703
   56MOL0     C 7297   0.188   8.036   8.862 -0.2844 -0.1669  0.6888
   56MOL0     C 7298   0.058   8.102   8.805  0.6990  0.1924  0.0084
   56MOL0     C 7299  -0.068   8.021   8.849 -0.1702 -0.5215  0.2642
   56MOL0     C 7300  -0.196   8.111   8.850 -0.3998  0.0562 -0.0547
   56MOL0     C 7301  -0.324   8.041   8.905 -0.1836 -0.4068  0.2065
   56MOL0     C 7302  -0.330   8.056   9.063  0.3682 -0.2551 -0.3201
   56MOL0     C 7303  -0.460   7.992   9.107  0.2174 -0.0289 -0.3509
   56MOL0    Cl 7304  -0.604   8.077   9.036  0.5381 -0.1259  0.3927
   56MOL0     C 7305   0.549   8.267   8.766 -0.0596  0.6191 -0.6035
   56MOL0     C 7306   0.675   8.294   8.704  0.2551  0.4838 -0.1752
   56MOL0     O 7307   0.992   8.316   8.873 -0.8746 -0.4540  0.2589
   56MOL0     C 7308   1.260   8.278   8.780 -0.1668  0.0118 -0.3212
   56MOL0     C 7309   1.388   8.291   8.716  0.3958 -0.1787  0.2760
   56MOL0     N 7310   1.738   7.779   8.196  0.2029 -0.1562  0.4562
   56MOL0     N 7311   1.809   7.762   8.091  0.6603 -0.2686  0.0967
   56MOL0     C 7312   3.086   7.512   8.248  0.4095 -0.0373 -0.7857
   56MOL0     C 7313   3.211   7.459   8.287  0.1787  0.2015 -0.8377
   56MOL0     C 7314   3.593   7.381   8.408  0.4568  0.5419 -0.2814
   56MOL0     C 7315   3.635   7.274   8.487  0.0128  0.0601  0.4308
   56MOL0     C 7316   3.746   7.284   8.577 -0.5702  0.3094 -0.6863
   56MOL0     C 7317   3.815   7.406   8.591 -0.2381  0.7499 -0.9811
   56MOL0     O 7318   3.924   7.428   8.680  0.2057 -0.1342  0.0441
   56MOL0     C 7319   3.985   7.308   8.729 -0.7118  0.5167 -0.2566
   56MOL0     C 7320   4.115   7.342   8.800  0.0657 -0.4491 -0.5208
   56MOL0     C 7321   4.185   7.219   8.849  1.5259 -0.1213  0.5873
   56MOL0     C 7322   4.303   7.268   8.925 -0.0471  0.3490 -0.4000
   56MOL0     C 7323   4.373   7.146   8.972 -1.4305 -0.1002  0.0940
   56MOL0     C 7324   4.438   7.047   9.013  0.0926  1.0479 -0.1250
   56MOL0     C 7325   3.773   7.515   8.512  0.2524  0.1741  0.2909
   56MOL0     C 7326   3.659   7.504   8.427 -0.1525  0.1336 -0.3563
   56MOL0     H 7327   3.407   7.700   8.156 -0.0165  2.1554  3.2122
   56MOL0     H 7328   3.189   7.802   8.115 -2.0372  0.5847  0.4801
   56MOL0     H 7329   3.005   7.808   7.999 -0.6077 -1.2329 -1.0059
   56MOL0     H 7330   2.916   7.856   8.144  2.0719 -0.2465  1.6941
   56MOL0     H 7331   2.797   7.660   7.947  1.0070  0.9922 -0.6978
   56MOL0     H 7332   2.769   7.829   7.920 -2.1356 -1.3341 -1.3403
   56MOL0     H 7333   2.681   7.858   8.149  0.4749 -2.0250  7.2897
   56MOL0     H 7334   2.689   7.691   8.192  1.6796 -3.3017 -1.6969
   56MOL0     H 7335   2.537   7.817   7.946 -1.8149  2.3283  2.0387
   56MOL0     H 7336   2.554   7.647   7.974  2.0051  1.9081 -3.5574
   56MOL0     H 7337   2.421   7.815   8.197  0.1174 -1.6856  1.6360
   56MOL0     H 7338   2.412   7.642   8.167 -2.1084  0.4696  0.5428
   56MOL0     H 7339   2.311   7.676   7.945 -0.2756 -1.2862  1.3793
   56MOL0     H 7340   2.318   7.849   7.960  1.8270 -0.0271 -0.1040
   56MOL0     H 7341   2.133   7.649   8.123  0.3909 -0.0955  1.8388
   56MOL0     H 7342   2.185   7.798   8.196 -0.3115  1.9656 -1.3718
   56MOL0     H 7343   2.015   7.748   7.943 -2.4276  1.1631  0.0424
   56MOL0     H 7344   2.078   7.908   7.957  4.4214 -0.4591  0.5122
   56MOL0     H 7345   1.997   7.981   8.247 -1.3423  1.0978 -0.0388
   56MOL0     H 7346   1.835   7.902   8.475 -0.1995 -1.9672 -1.5876
   56MOL0     H 7347   1.671   7.831   8.452 -2.6775  1.4646  0.4370
   56MOL0     H 7348   1.568   8.029   8.359 -2.2185 -1.0331  2.5399
   56MOL0     H 7349   1.718   8.111   8.357  0.7612  1.1489  1.7369
   56MOL0     H 7350   1.536   8.076   8.597 -0.5828  0.2795 -2.0009
   56MOL0     H 7351   1.706   8.057   8.628  1.0493 -1.8360 -2.0392
   56MOL0     H 7352   1.728   8.290   8.500  0.0773  2.4213  1.6558
   56MOL0     H 7353   1.665   8.278   8.665 -1.0417 -3.2038  1.2834
   56MOL0     H 7354   1.298   8.334   8.392 -1.2122 -1.9907 -0.8383
   56MOL0     H 7355   1.086   8.330   8.482  0.7402  1.6504 -0.5418
   56MOL0     H 7356   0.857   8.036   8.812 -0.8390 -0.4577 -2.1274
   56MOL0     H 7357   0.633   7.977   8.918  2.8963 -1.7098 -2.3923
   56MOL0     H 7358   0.321   8.101   8.701 -0.4286  2.1148 -0.3415
   56MOL0     H 7359   0.287   8.224   8.820  1.8477 -0.3916 -2.6181
   56MOL0     H 7360   0.190   8.035   8.972 -0.8898 -0.2446  0.6988
   56MOL0     H 7361   0.197   7.930   8.837 -0.9669 -0.4057  1.4076
   56MOL0     H 7362   0.043   8.109   8.697 -1.6720 -0.6621  0.2164
   56MOL0     H 7363   0.065   8.197   8.860  2.2461 -0.7133  1.4666
   56MOL0     H 7364  -0.076   7.932   8.787 -1.1389  0.5149 -1.1808
   56MOL0     H 7365  -0.056   7.985   8.952  1.5656 -0.3519  0.1513
   56MOL0     H 7366  -0.210   8.137   8.745  1.0851 -2.3110 -0.9054
   56MOL0     H 7367  -0.159   8.197   8.907  1.0482 -0.5279 -0.0821
   56MOL0     H 7368  -0.321   7.938   8.870  0.9933 -0.2424 -0.2216
   56MOL0     H 7369  -0.408   8.091   8.855 -1.3981 -0.5277  2.0175
   56MOL0     H 7370  -0.248   8.016   9.123  0.9540  2.3214  0.7336
   56MOL0     H 7371  -0.345   8.162   9.087  0.6571 -0.3491  0.2963
   56MOL0     H 7372  -0.454   7.979   9.216 -0.1261 -3.8205 -0.6342
   56MOL0     H 7373  -0.463   7.888   9.071 -0.5051 -0.4912  0.9618
   56MOL0     H 7374   0.470   8.339   8.748 -1.1013 -0.4515 -0.4392
   56MOL0     H 7375   0.698   8.386   8.651  1.3237 -0.7509 -1.9437
   56MOL0     H 7376   1.250   8.271   8.888 -0.0729  1.0375 -0.2360
   56MOL0     H 7377   1.477   8.293   8.778 -0.8821  2.1614  2.2101
   56MOL0     H 7378   2.997   7.456   8.277 -0.2164  1.1445 -0.3610
   56MOL0     H 7379   3.201   7.372   8.351  0.5400  0.5235 -0.3386
   56MOL0     H 7380   3.584   7.180   8.472 -0.5658  0.4382 -0.0028
   56MOL0     H 7381   3.775   7.195   8.631  2.9400  0.3470 -2.2088
   56MOL0     H 7382   4.013   7.242   8.647 -0.4728  0.1820  0.0899
   56MOL0     H 7383   3.920   7.243   8.787  0.2913  1.1289  1.6678
   56MOL0     H 7384   4.176   7.401   8.730  0.4064  1.0417  0.9604
   56MOL0     H 7385   4.093   7.399   8.891  0.4742 -0.6530 -0.2902
   56MOL0     H 7386   4.222   7.154   8.770  3.3316  0.8096  0.5991
   56MOL0     H 7387   4.119   7.168   8.919 -0.8529  0.6597 -0.9729
   56MOL0     H 7388   4.377   7.320   8.864  0.5366  0.3466  0.2986
   56MOL0     H 7389   4.266   7.327   9.010 -0.8848 -2.7734  1.5561
   56MOL0     H 7390   4.491   6.968   9.062 -0.5980  1.1454  0.8148
   56MOL0     H 7391   3.830   7.606   8.529 -0.4145  0.5459  0.5603
   56MOL0     H 7392   3.626   7.599   8.388 -3.3868 -0.4605  0.6392
   57MOL0     O 7393   5.319   8.312  10.408 -0.0707  0.8012 -0.2773
   57MOL0     C 7394   5.232   8.299  10.322  0.0320  0.0071  0.4232
   57MOL0     O 7395   5.234   8.365  10.194  0.2918  0.2084 -0.1057
   57MOL0     C 7396   5.324   8.462  10.156  0.3704 -0.1651  1.4883
   57MOL0     C 7397   5.463   8.464  10.181  1.0807  0.7600 -0.7097
   57MOL0     C 7398   5.543   8.564  10.142  0.4811 -0.2826 -0.6294
   57MOL0     C 7399   5.491   8.673  10.069  1.0998  0.5222  0.1652
   57MOL0     O 7400   5.551   8.782  10.013  0.1071 -0.3649  0.5090
   57MOL0     C 7401   5.696   8.789  10.000  0.0973  0.8840 -0.3129
   57MOL0     C 7402   5.752   8.900   9.915 -0.3464 -0.4224  1.0407
   57MOL0     C 7403   5.899   8.873   9.881  0.7420 -0.6108  0.7943
   57MOL0     C 7404   5.985   8.870  10.000  0.6679  1.0966 -0.7177
   57MOL0     C 7405   6.129   8.859   9.976 -0.1465  0.2207 -0.1330
   57MOL0     C 7406   6.214   8.845  10.102 -0.6692 -0.2094  0.3770
   57MOL0     C 7407   6.362   8.787  10.083  0.2504 -1.4244  0.1908
   57MOL0     C 7408   6.451   8.784  10.208 -0.9091 -0.2586 -0.1211
   57MOL0     N 7409   6.535   8.905  10.220 -0.2275 -0.0882 -0.2137
   57MOL0     C 7410   6.497   9.034  10.231 -1.0642  0.0787  0.5592
   57MOL0     C 7411   6.600   9.104  10.175 -0.5422 -0.6715  0.1303
   57MOL0     C 7412   6.608   9.257  10.162 -0.1688  1.1986  0.4137
   57MOL0     C 7413   6.593   9.280  10.008  0.2374  0.9027 -0.3140
   57MOL0     C 7414   6.599   9.422   9.955  0.8343  0.3560  0.4428
   57MOL0     C 7415   6.546   9.424   9.812 -0.5565 -0.3071  0.8866
   57MOL0     O 7416   6.408   9.419   9.796  0.4397  0.2589  0.0843
   57MOL0     C 7417   6.340   9.409   9.672  0.1614  0.6316  0.2456
   57MOL0     C 7418   6.201   9.399   9.674  0.5900 -0.4271 -0.1931
   57MOL0     C 7419   6.129   9.401   9.556  0.0797  0.2784  0.8915
   57MOL0     C 7420   6.195   9.418   9.433 -0.2709 -1.2188 -0.5907
   57MOL0     C 7421   6.127   9.447   9.300  0.5867  0.3222  1.1047
   57MOL0     O 7422   6.007   9.380   9.275  0.0283  0.0814  0.1050
   57MOL0     C 7423   5.959   9.373   9.145  0.4121  1.5898  0.2224
   57MOL0     C 7424   6.040   9.358   9.030 -0.1304  0.0836  0.4971
   57MOL0     C 7425   5.982   9.339   8.902  0.3204 -0.1229 -0.6559
   57MOL0     C 7426   5.840   9.332   8.893  0.6714  0.4552 -0.0923
   57MOL0     O 7427   5.795   9.331   8.761 -0.0388  0.4458  0.1942
   57MOL0     C 7428   5.661   9.288   8.742 -0.4286 -0.0014  0.5947
   57MOL0     C 7429   5.669   9.159   8.653  0.0670 -0.2714  0.4271
   57MOL0     C 7430   5.553   9.159   8.558 -0.6370  0.8039  0.0842
   57MOL0     C 7431   5.553   9.018   8.492 -0.1958 -0.0205 -0.7606
   57MOL0     C 7432   5.501   9.035   8.347 -0.2111 -0.1800  0.3325
   57MOL0     C 7433   5.543   8.922   8.255 -0.1568 -0.4036  0.7815
   57MOL0     C 7434   5.472   8.781   8.289 -1.3577  0.9065  0.0364
   57MOL0     C 7435   5.538   8.670   8.208  0.8153 -0.0559  0.5604
   57MOL0    Cl 7436   5.700   8.636   8.254  0.1283  0.5519 -0.2142
   57MOL0     C 7437   5.760   9.358   9.013 -0.7975 -0.6358 -0.6482
   57MOL0     C 7438   5.820   9.366   9.138 -0.1275  0.0010  0.1933
   57MOL0     O 7439   6.189   9.509   9.215 -0.1990 -0.1112  0.2390
   57MOL0     C 7440   6.340   9.417   9.430  0.1194  0.0200 -0.5330
   57MOL0     C 7441   6.409   9.416   9.550  0.4719  0.6390  0.6073
   57MOL0     N 7442   6.693   9.016  10.136 -0.3035 -1.0123  0.9337
   57MOL0     N 7443   6.657   8.898  10.164 -0.1123  0.5779  0.1109
   57MOL0     C 7444   5.350   8.668  10.029 -0.3211  1.0324 -0.1768
   57MOL0     C 7445   5.267   8.577  10.092 -0.0404 -0.3955 -0.4795
   57MOL0     C 7446   5.128   8.202  10.351 -0.2352  0.7567 -0.1310
   57MOL0     C 7447   5.110   8.135  10.472  0.2591  0.1756  0.5568
   57MOL0     C 7448   5.011   8.038  10.495 -0.5969  0.6955 -0.2925
   57MOL0     C 7449   4.913   8.007  10.406 -0.3316 -0.4955  0.2410
   57MOL0     O 7450   4.807   7.933  10.452 -0.6573 -0.2707  0.0946
   57MOL0     C 7451   4.702   7.898  10.358 -0.0444  0.3460  0.6608
   57MOL0     C 7452   4.731   7.778  10.272  0.5523  0.2341  0.5275
   57MOL0     C 7453   4.776   7.655  10.346  0.0847  0.4472 -0.4433
   57MOL0     C 7454   4.698   7.616  10.470  0.7627 -0.5019  0.0245
   57MOL0     C 7455   4.557   7.609  10.439 -0.2015 -0.2974 -0.1427
   57MOL0     C 7456   4.445   7.602  10.396  0.3700  0.0931 -0.3019
   57MOL0     C 7457   4.932   8.068  10.276 -0.8596  0.0635 -0.2841
   57MOL0     C 7458   5.036   8.161  10.251 -0.7137 -0.1684  0.4469
   57MOL0     H 7459   5.494   8.375  10.234 -1.8020 -0.1212 -0.3418
   57MOL0     H 7460   5.648   8.545  10.160  0.9537  1.2383 -1.6378
   57MOL0     H 7461   5.739   8.697   9.959  0.6040 -0.2640  2.5569
   57MOL0     H 7462   5.742   8.795  10.100 -3.2708  1.4157  1.3493
   57MOL0     H 7463   5.745   8.995   9.969 -0.8368 -0.5726  1.2487
   57MOL0     H 7464   5.699   8.901   9.819  2.3410  0.1134 -0.5580
   57MOL0     H 7465   5.927   8.958   9.819 -2.3793 -0.4669 -0.5910
   57MOL0     H 7466   5.913   8.784   9.817 -0.4599  0.1720 -0.6193
   57MOL0     H 7467   5.959   8.957  10.061 -0.2536  0.3843 -0.0634
   57MOL0     H 7468   5.957   8.790  10.069 -1.5479  2.9349  0.6617
   57MOL0     H 7469   6.170   8.946   9.924 -0.0538  0.7999  0.8826
   57MOL0     H 7470   6.142   8.766   9.919  0.7370 -0.3453  0.9637
   57MOL0     H 7471   6.158   8.778  10.169 -0.3589  0.3024  1.1542
   57MOL0     H 7472   6.221   8.938  10.160 -2.2060  0.8868 -1.1068
   57MOL0     H 7473   6.359   8.686  10.040 -1.4324 -0.7024 -1.5404
   57MOL0     H 7474   6.415   8.845  10.006  0.6408 -0.7201  0.9837
   57MOL0     H 7475   6.523   8.702  10.202  0.4010  0.8777 -0.3720
   57MOL0     H 7476   6.400   8.773  10.305 -1.5498 -1.2278 -0.5537
   57MOL0     H 7477   6.404   9.077  10.267 -1.8795  0.0943 -1.4198
   57MOL0     H 7478   6.705   9.297  10.192 -0.3252  2.0442 -0.1695
   57MOL0     H 7479   6.528   9.304  10.220 -2.8528 -2.1402 -0.2904
   57MOL0     H 7480   6.497   9.231   9.987 -0.5532  1.3776  1.9395
   57MOL0     H 7481   6.685   9.237   9.968 -0.6612  0.5556 -2.1004
   57MOL0     H 7482   6.533   9.479  10.020  1.8512  0.1038  1.7362
   57MOL0     H 7483   6.704   9.453   9.958  1.0846 -0.2924 -0.9206
   57MOL0     H 7484   6.590   9.350   9.744 -0.6120  0.7604 -0.3513
   57MOL0     H 7485   6.579   9.523   9.778 -0.3699 -1.6369 -3.3990
   57MOL0     H 7486   6.154   9.395   9.772 -1.0438 -2.1868 -0.9898
   57MOL0     H 7487   6.020   9.393   9.563  0.0003 -1.6497 -1.2637
   57MOL0     H 7488   6.147   9.372   9.031 -0.4173  4.1448 -1.9126
   57MOL0     H 7489   6.041   9.329   8.812 -0.5347 -0.9381 -1.1512
   57MOL0     H 7490   5.610   9.373   8.696  0.1427  1.2784  2.2145
   57MOL0     H 7491   5.608   9.276   8.838  0.6356 -2.5950  0.9276
   57MOL0     H 7492   5.664   9.075   8.723  0.4000 -0.9100 -0.2968
   57MOL0     H 7493   5.758   9.163   8.590  0.1581  0.2624  0.5845
   57MOL0     H 7494   5.577   9.245   8.495  0.3338  0.9890  0.7056
   57MOL0     H 7495   5.454   9.177   8.601 -0.5138 -0.0972  0.7560
   57MOL0     H 7496   5.654   8.976   8.492 -1.1500 -2.8186  3.1548
   57MOL0     H 7497   5.499   8.947   8.556  2.9425 -0.0003  2.1581
   57MOL0     H 7498   5.546   9.125   8.305 -2.4875 -0.3469 -2.8830
   57MOL0     H 7499   5.392   9.047   8.342 -0.0277  1.3293 -0.5273
   57MOL0     H 7500   5.651   8.910   8.268 -0.1265  0.7094  1.6437
   57MOL0     H 7501   5.527   8.946   8.150  0.2752  0.6437  0.9488
   57MOL0     H 7502   5.478   8.748   8.393 -1.4138 -1.9569 -0.7957
   57MOL0     H 7503   5.366   8.780   8.259 -1.0107 -2.3959 -1.5669
   57MOL0     H 7504   5.535   8.696   8.102 -1.6840  3.5256  1.3418
   57MOL0     H 7505   5.486   8.574   8.210  0.7530 -0.0321  0.1783
   57MOL0     H 7506   5.654   9.378   8.998 -0.7023 -0.8281 -1.6360
   57MOL0     H 7507   5.768   9.372   9.233  2.7700  1.8675  1.8118
   57MOL0     H 7508   6.382   9.440   9.333 -0.9409 -0.8045 -1.2153
   57MOL0     H 7509   6.516   9.437   9.547 -0.0984  4.2419  0.7476
   57MOL0     H 7510   5.311   8.754   9.975  1.3405  1.5933 -0.5343
   57MOL0     H 7511   5.159   8.584  10.080 -0.4438  3.1377  3.0329
   57MOL0     H 7512   5.178   8.156  10.554  1.4804 -1.1264 -0.0862
   57MOL0     H 7513   5.019   7.983  10.588 -1.3579 -0.6156 -0.9698
   57MOL0     H 7514   4.673   7.983  10.297  0.9946  1.9911  2.3586
   57MOL0     H 7515   4.611   7.871  10.413  0.5360 -2.3178  0.4768
   57MOL0     H 7516   4.640   7.750  10.219  0.0518  0.0193  1.4678
   57MOL0     H 7517   4.808   7.807  10.200  0.8641  1.3120  1.2523
   57MOL0     H 7518   4.883   7.660  10.371 -0.0685 -0.5224  0.4588
   57MOL0     H 7519   4.765   7.571  10.277  1.0141 -0.1953  0.1671
   57MOL0     H 7520   4.737   7.525  10.517 -0.1757  0.0238  1.9271
   57MOL0     H 7521   4.718   7.693  10.545  0.0129  0.9279 -1.2023
   57MOL0     H 7522   4.345   7.591  10.359  0.5332  0.2325 -0.7823
   57MOL0     H 7523   4.862   8.059  10.193 -3.2423  3.6818  1.1031
   57MOL0     H 7524   5.034   8.211  10.155 -2.9201  2.9427  1.9306
   58MOL0     O 7525  11.007   2.531   5.234  0.7296 -0.7560 -0.5665
   58MOL0     C 7526  11.082   2.516   5.329 -0.8587  0.2735  0.1778
   58MOL0     O 7527  11.060   2.426   5.437 -0.6040  0.1908  0.6221
   58MOL0     C 7528  10.936   2.371   5.460 -0.0659 -0.0570  0.8434
   58MOL0     C 7529  10.816   2.407   5.402  0.0143  0.0220 -0.2066
   58MOL0     C 7530  10.691   2.361   5.432  0.4411  0.3442  0.6262
   58MOL0     C 7531  10.676   2.250   5.513  0.1067  1.3641 -0.5977
   58MOL0     O 7532  10.555   2.181   5.541 -0.6382  0.3250  0.3025
   58MOL0     C 7533  10.439   2.213   5.471  0.9283 -0.4809  0.1068
   58MOL0     C 7534  10.323   2.142   5.547  0.3225  0.2465  0.7954
   58MOL0     C 7535  10.204   2.228   5.525 -0.7836 -0.3292 -0.0455
   58MOL0     C 7536  10.085   2.168   5.598 -0.7325  0.4023  0.5135
   58MOL0     C 7537   9.971   2.257   5.623  0.5264 -0.3706  0.9115
   58MOL0     C 7538  10.002   2.374   5.723  0.0185 -0.3201  0.3598
   58MOL0     C 7539  10.008   2.513   5.643 -0.5672  0.1020 -0.5961
   58MOL0     C 7540   9.873   2.567   5.598 -0.4786  0.0198 -0.2123
   58MOL0     N 7541   9.789   2.597   5.714  0.2108 -0.3338  0.9955
   58MOL0     C 7542   9.791   2.707   5.803 -0.0060 -0.0904  0.0035
   58MOL0     C 7543   9.680   2.688   5.884 -0.6053 -0.1720 -0.0393
   58MOL0     C 7544   9.637   2.792   5.987  0.1471  1.0959 -0.3842
   58MOL0     C 7545   9.498   2.776   6.041 -0.0380  0.5906  1.2346
   58MOL0     C 7546   9.464   2.898   6.124 -0.5013  0.0026 -0.3102
   58MOL0     C 7547   9.325   2.892   6.183  0.4480  0.4773 -0.6993
   58MOL0     O 7548   9.240   2.980   6.104 -1.1143  0.1048  0.1577
   58MOL0     C 7549   9.110   2.999   6.150  0.7877  0.4340  0.1125
   58MOL0     C 7550   9.050   2.928   6.259 -0.0184 -0.4285 -0.2037
   58MOL0     C 7551   8.922   2.957   6.289  0.4520 -1.0733 -0.6095
   58MOL0     C 7552   8.854   3.059   6.224 -0.1097 -0.3355  0.3593
   58MOL0     C 7553   8.716   3.084   6.270  0.3059  0.4582 -0.6782
   58MOL0     O 7554   8.645   2.996   6.354 -0.0386 -0.6458  0.0457
   58MOL0     C 7555   8.532   3.026   6.424  0.3838 -0.4977 -0.3162
   58MOL0     C 7556   8.469   3.153   6.433 -0.6059  0.3047 -0.1747
   58MOL0     C 7557   8.354   3.174   6.512  0.4886  0.0686 -0.1011
   58MOL0     C 7558   8.300   3.061   6.578 -0.6145  0.6689  0.7632
   58MOL0     O 7559   8.186   3.059   6.646  0.2482 -0.7515  0.2410
   58MOL0     C 7560   8.077   3.128   6.583  0.7990 -0.3930 -1.0184
   58MOL0     C 7561   7.952   3.056   6.639  0.4628  0.4988  0.0253
   58MOL0     C 7562   7.827   3.121   6.570 -0.0266 -0.3593 -0.5593
   58MOL0     C 7563   7.691   3.053   6.591  0.2499 -0.3270  0.2365
   58MOL0     C 7564   7.581   3.151   6.568 -0.3731 -1.0266 -0.5634
   58MOL0     C 7565   7.435   3.093   6.581 -0.2769 -0.3117 -0.8123
   58MOL0     C 7566   7.399   2.973   6.485 -0.3269 -0.8964  0.3513
   58MOL0     C 7567   7.246   2.949   6.478 -0.3802 -0.3335  0.4537
   58MOL0    Cl 7568   7.190   2.901   6.627 -0.0191 -0.1689  0.0184
   58MOL0     C 7569   8.368   2.939   6.578  0.5601  1.4043  0.3819
   58MOL0     C 7570   8.483   2.923   6.503 -0.1014  0.6363  0.3788
   58MOL0     O 7571   8.675   3.193   6.235  0.0963  0.4030  0.3445
   58MOL0     C 7572   8.916   3.135   6.126 -0.7531  0.1037 -1.1419
   58MOL0     C 7573   9.039   3.103   6.086  0.3872 -0.6596  0.6226
   58MOL0     N 7574   9.635   2.559   5.849  0.4047 -0.3969  0.1743
   58MOL0     N 7575   9.686   2.517   5.746  0.6142 -0.2263 -0.5888
   58MOL0     C 7576  10.798   2.212   5.581 -0.6492  0.0967  0.7889
   58MOL0     C 7577  10.931   2.265   5.552  0.2152  0.6956 -0.4165
   58MOL0     C 7578  11.218   2.584   5.322  0.5201  0.1252 -1.5685
   58MOL0     C 7579  11.318   2.539   5.405 -0.9757  0.3783  0.1879
   58MOL0     C 7580  11.445   2.598   5.407  0.1866 -0.3679 -0.5439
   58MOL0     C 7581  11.479   2.706   5.321  0.4413  1.1023  0.0752
   58MOL0     O 7582  11.597   2.764   5.325 -0.0624 -0.2306 -0.7612
   58MOL0     C 7583  11.632   2.868   5.230  0.9842  1.1662  0.1114
   58MOL0     C 7584  11.770   2.908   5.259 -0.2709  0.6537 -0.4507
   58MOL0     C 7585  11.874   2.820   5.187  0.9737 -0.4334 -0.1146
   58MOL0     C 7586  12.023   2.875   5.187  0.0991 -0.0888 -0.1032
   58MOL0     C 7587  12.046   2.953   5.069  0.2215  0.2044  0.2739
   58MOL0     C 7588  12.049   3.003   4.964 -0.9187  0.6532  0.4543
   58MOL0     C 7589  11.381   2.734   5.226 -0.0993  0.0178  0.0018
   58MOL0     C 7590  11.254   2.676   5.227 -0.3109  0.0500  0.1126
   58MOL0     H 7591  10.814   2.495   5.338  0.8910  0.0801 -0.1699
   58MOL0     H 7592  10.614   2.405   5.369  0.6333  0.5628  0.5416
   58MOL0     H 7593  10.448   2.175   5.368  0.9255  0.3700 -0.2132
   58MOL0     H 7594  10.423   2.321   5.475 -0.5082 -0.6515  5.2218
   58MOL0     H 7595  10.333   2.131   5.655 -0.7422 -1.5549  0.7519
   58MOL0     H 7596  10.326   2.044   5.499 -0.3705  0.7532 -0.3288
   58MOL0     H 7597  10.179   2.255   5.422  0.4810  0.9848 -0.0428
   58MOL0     H 7598  10.236   2.319   5.577  2.2649 -1.0251 -0.5331
   58MOL0     H 7599  10.055   2.089   5.529  2.1071  1.8327 -2.6162
   58MOL0     H 7600  10.111   2.122   5.694 -4.3380  0.4328  1.6684
   58MOL0     H 7601   9.890   2.203   5.673 -0.6337  2.3381  2.1877
   58MOL0     H 7602   9.938   2.299   5.528  0.9017  0.3412  1.0852
   58MOL0     H 7603  10.100   2.349   5.765 -1.0572 -4.0020  1.0398
   58MOL0     H 7604   9.928   2.376   5.803 -1.4937 -3.0484 -0.8297
   58MOL0     H 7605  10.068   2.576   5.709  2.3872 -0.2845 -2.7211
   58MOL0     H 7606  10.077   2.493   5.561 -0.8409 -0.5818 -0.6638
   58MOL0     H 7607   9.818   2.502   5.530 -1.3594 -2.1785  2.4404
   58MOL0     H 7608   9.885   2.657   5.536 -1.6980  0.3980  0.0719
   58MOL0     H 7609   9.862   2.788   5.797 -1.6520  1.6469  2.2127
   58MOL0     H 7610   9.644   2.893   5.943 -1.0003  1.0426 -0.7177
   58MOL0     H 7611   9.712   2.782   6.066  0.4959 -0.3793 -0.8714
   58MOL0     H 7612   9.494   2.686   6.103  0.2070 -1.8099 -1.9636
   58MOL0     H 7613   9.424   2.770   5.961  1.2276  0.7813  0.0049
   58MOL0     H 7614   9.530   2.906   6.210  0.2441 -0.2257 -0.8500
   58MOL0     H 7615   9.470   2.998   6.078 -3.8405  1.1154  1.3303
   58MOL0     H 7616   9.340   2.942   6.279  2.8353  2.3614 -1.9366
   58MOL0     H 7617   9.281   2.793   6.195  2.7046 -0.2833  2.6336
   58MOL0     H 7618   9.110   2.850   6.305  2.7284  1.6765  0.0239
   58MOL0     H 7619   8.871   2.887   6.354 -1.4531 -0.2655 -1.1880
   58MOL0     H 7620   8.506   3.228   6.364 -0.3196 -1.1058 -1.6169
   58MOL0     H 7621   8.303   3.265   6.541 -0.2956 -0.1836 -0.6691
   58MOL0     H 7622   8.075   3.117   6.474  1.1723  1.0358 -1.1954
   58MOL0     H 7623   8.074   3.234   6.609  1.2229 -0.3767 -1.0284
   58MOL0     H 7624   7.943   3.068   6.747  0.8810 -1.2550  0.2893
   58MOL0     H 7625   7.937   2.952   6.609 -2.5329  0.7565  0.3403
   58MOL0     H 7626   7.846   3.144   6.465 -0.5435 -0.0982 -0.6041
   58MOL0     H 7627   7.823   3.219   6.619  0.1350 -0.8999  0.5868
   58MOL0     H 7628   7.676   2.963   6.531  1.1009 -0.1147 -0.3136
   58MOL0     H 7629   7.696   3.021   6.695  1.5813  1.0055  0.6264
   58MOL0     H 7630   7.592   3.204   6.473 -0.3254  2.4442  1.1931
   58MOL0     H 7631   7.586   3.233   6.641 -0.9908 -0.3332 -1.2917
   58MOL0     H 7632   7.353   3.164   6.567 -0.2952 -0.3889 -1.1244
   58MOL0     H 7633   7.433   3.052   6.682  3.8342 -0.2874 -0.5302
   58MOL0     H 7634   7.427   3.007   6.385 -0.0066 -2.1612 -0.0024
   58MOL0     H 7635   7.454   2.882   6.509  1.7198  0.2877  0.3523
   58MOL0     H 7636   7.228   2.868   6.407  1.4815  0.0211 -0.5142
   58MOL0     H 7637   7.198   3.038   6.435 -0.3904 -0.5597 -0.0069
   58MOL0     H 7638   8.319   2.861   6.634 -2.3205  2.2749 -0.7713
   58MOL0     H 7639   8.551   2.838   6.512  2.1880  2.1266 -1.5918
   58MOL0     H 7640   8.878   3.222   6.075  3.5005  0.9021 -3.3122
   58MOL0     H 7641   9.086   3.171   6.015 -1.3979  0.9276  0.8853
   58MOL0     H 7642  10.790   2.125   5.646  3.4747 -0.8189  0.3626
   58MOL0     H 7643  11.020   2.231   5.605 -0.9338 -1.6556  0.1240
   58MOL0     H 7644  11.308   2.449   5.466  2.0164 -1.4849 -1.8125
   58MOL0     H 7645  11.527   2.568   5.472  0.0857  0.1383 -0.1712
   58MOL0     H 7646  11.567   2.955   5.247  1.4993  1.1608  2.5309
   58MOL0     H 7647  11.616   2.827   5.130 -3.0897 -1.2172  1.4795
   58MOL0     H 7648  11.776   3.014   5.231 -1.7087  1.1124  0.8221
   58MOL0     H 7649  11.782   2.904   5.367 -0.4761  2.0271 -0.3494
   58MOL0     H 7650  11.835   2.812   5.085  2.3455  1.8556 -0.9000
   58MOL0     H 7651  11.882   2.722   5.235 -0.0779 -2.0856 -3.0344
   58MOL0     H 7652  12.047   2.936   5.275  0.3936 -2.7700  1.8262
   58MOL0     H 7653  12.083   2.784   5.194 -0.7238 -0.6132  0.4937
   58MOL0     H 7654  12.060   3.058   4.873  1.0882 -1.3953 -0.6463
   58MOL0     H 7655  11.404   2.807   5.149  0.9772  1.2752  1.4434
   58MOL0     H 7656  11.184   2.708   5.150 -0.2519  2.1851  0.8627
   59MOL0     O 7657  10.396   1.398   9.543  0.3177 -0.5835  1.2316
   59MOL0     C 7658  10.510   1.385   9.497  0.6638  0.5384  0.0514
   59MOL0     O 7659  10.556   1.271   9.447 -0.3300 -0.5500 -0.1863
   59MOL0     C 7660  10.483   1.153   9.450 -0.2921 -0.5914  0.3332
   59MOL0     C 7661  10.361   1.145   9.383  0.0609 -0.4252 -0.4507
   59MOL0     C 7662  10.294   1.020   9.374 -0.3675  0.3884  0.6195
   59MOL0     C 7663  10.356   0.902   9.431  0.1029  0.1854 -0.1154
   59MOL0     O 7664  10.293   0.783   9.428  0.0694  0.2988 -0.4538
   59MOL0     C 7665  10.303   0.708   9.554  0.0927  0.4008  0.8166
   59MOL0     C 7666  10.375   0.576   9.531  0.3893  0.0441  0.5407
   59MOL0     C 7667  10.362   0.474   9.650 -0.2526 -0.0980 -1.0764
   59MOL0     C 7668  10.374   0.333   9.614  0.2047 -0.5670 -0.1996
   59MOL0     C 7669  10.392   0.237   9.738  0.1562 -0.3695 -0.6773
   59MOL0     C 7670  10.398   0.097   9.697  0.7128  1.0275  0.5716
   59MOL0     C 7671  10.460   0.011   9.805  0.3037  0.8417 -0.1173
   59MOL0     C 7672  10.444  -0.136   9.767  0.5260 -0.6814  0.5165
   59MOL0     N 7673  10.482  -0.219   9.882 -0.3216 -0.2072 -0.0516
   59MOL0     C 7674  10.396  -0.257   9.976 -0.1077  0.4231  0.1613
   59MOL0     C 7675  10.462  -0.354  10.047 -0.1540  0.9107  0.0413
   59MOL0     C 7676  10.405  -0.435  10.167  0.0910  0.0335 -0.8346
   59MOL0     C 7677  10.245  -0.427  10.170  0.3217 -0.2986  0.0103
   59MOL0     C 7678  10.202  -0.525  10.283 -0.5993  0.0298  0.3587
   59MOL0     C 7679  10.054  -0.544  10.286 -0.2014 -1.5974 -0.1575
   59MOL0     O 7680  10.037  -0.639  10.390  0.1185 -0.1436  0.0720
   59MOL0     C 7681   9.913  -0.695  10.420 -0.9687  0.2104  0.0168
   59MOL0     C 7682   9.790  -0.631  10.385 -0.4250  0.9084  0.3697
   59MOL0     C 7683   9.665  -0.695  10.399 -0.5591  0.1272  0.9424
   59MOL0     C 7684   9.660  -0.824  10.464  0.3627  0.4939 -0.4408
   59MOL0     C 7685   9.523  -0.877  10.497 -0.3938  0.1611  0.3179
   59MOL0     O 7686   9.432  -0.821  10.422  0.2336  0.0369 -0.0583
   59MOL0     C 7687   9.302  -0.823  10.470  0.1281  1.1641  0.1462
   59MOL0     C 7688   9.224  -0.941  10.449  0.1345 -0.1776  0.9729
   59MOL0     C 7689   9.113  -0.955  10.528  0.5427  0.2948  1.1333
   59MOL0     C 7690   9.062  -0.861  10.610  0.0611  0.4108 -0.0899
   59MOL0     O 7691   8.940  -0.861  10.672  0.2852 -0.3177 -0.8019
   59MOL0     C 7692   8.833  -0.936  10.602 -0.4613 -0.0824  0.1726
   59MOL0     C 7693   8.699  -0.865  10.630 -0.2178  0.4833 -0.3224
   59MOL0     C 7694   8.587  -0.965  10.618 -0.8635 -0.2467  0.2472
   59MOL0     C 7695   8.441  -0.904  10.620 -0.3481  0.0230 -0.2113
   59MOL0     C 7696   8.342  -1.010  10.634 -0.5074 -0.2254  0.8053
   59MOL0     C 7697   8.202  -0.956  10.604 -0.0822 -0.3858 -0.8568
   59MOL0     C 7698   8.101  -1.068  10.591  0.3486  0.4940  0.0860
   59MOL0     C 7699   7.974  -1.049  10.678  0.6994 -0.5863 -0.2947
   59MOL0    Cl 7700   8.019  -1.027  10.847 -0.5132 -0.4979  0.1475
   59MOL0     C 7701   9.141  -0.751  10.637 -0.3617 -0.5539  1.6412
   59MOL0     C 7702   9.265  -0.734  10.562  0.2773 -0.2694 -0.2167
   59MOL0     O 7703   9.514  -0.963  10.583 -0.4417  0.3699  0.6900
   59MOL0     C 7704   9.784  -0.884  10.498 -0.9982  0.0343  0.2713
   59MOL0     C 7705   9.906  -0.817  10.480 -0.1395 -0.0537  1.1300
   59MOL0     N 7706  10.593  -0.356  10.001 -0.1038  0.7918  0.0578
   59MOL0     N 7707  10.600  -0.273   9.908 -0.6935  0.6185 -0.5087
   59MOL0     C 7708  10.478   0.911   9.498 -0.0027  0.0585 -0.0143
   59MOL0     C 7709  10.546   1.033   9.500 -0.2265  0.4844 -0.3401
   59MOL0     C 7710  10.590   1.503   9.503  0.4554 -0.8245  0.8931
   59MOL0     C 7711  10.718   1.512   9.436 -0.1207  0.6815  0.3633
   59MOL0     C 7712  10.806   1.614   9.450  0.2939 -0.2556  0.7290
   59MOL0     C 7713  10.770   1.734   9.520  0.1203  0.5123 -0.1001
   59MOL0     O 7714  10.862   1.837   9.539  0.0696 -0.2589  0.1404
   59MOL0     C 7715  10.979   1.839   9.461 -0.3915 -0.9816  0.1010
   59MOL0     C 7716  11.044   1.982   9.450  0.6681 -0.0491  0.7088
   59MOL0     C 7717  10.948   2.086   9.382 -0.3161 -0.2792 -0.0676
   59MOL0     C 7718  11.020   2.227   9.398  0.2299 -0.4669 -0.3856
   59MOL0     C 7719  11.155   2.224   9.332 -0.0649  0.3864  0.8125
   59MOL0     C 7720  11.270   2.228   9.287  0.0428  0.2944  1.0369
   59MOL0     C 7721  10.646   1.734   9.579  0.0715 -0.0483 -0.2880
   59MOL0     C 7722  10.550   1.624   9.566  0.0183 -0.4466 -0.0164
   59MOL0     H 7723  10.319   1.229   9.328 -1.0067 -0.2317  0.6133
   59MOL0     H 7724  10.204   1.013   9.314 -1.4383  2.5492  1.8832
   59MOL0     H 7725  10.199   0.684   9.580 -0.7653  1.2852 -1.5554
   59MOL0     H 7726  10.343   0.768   9.637  0.1744  1.6348 -0.0867
   59MOL0     H 7727  10.481   0.588   9.507 -0.0196 -1.1053 -2.3148
   59MOL0     H 7728  10.340   0.524   9.441 -0.3240 -1.1594  1.4952
   59MOL0     H 7729  10.258   0.476   9.686 -0.6972 -3.3523 -1.7801
   59MOL0     H 7730  10.414   0.501   9.742 -0.3418  0.5052 -1.1990
   59MOL0     H 7731  10.280   0.320   9.561  0.3669  1.0126 -0.9483
   59MOL0     H 7732  10.456   0.315   9.544  1.9986  0.8093  1.4222
   59MOL0     H 7733  10.302   0.244   9.800 -0.2049  2.3196 -1.3833
   59MOL0     H 7734  10.487   0.263   9.785  1.5142  1.0146 -3.8465
   59MOL0     H 7735  10.448   0.095   9.600 -0.1604  2.2179  0.0658
   59MOL0     H 7736  10.294   0.068   9.680  1.3498  0.1772 -2.4346
   59MOL0     H 7737  10.567   0.031   9.807  0.8705 -1.7104 -0.5542
   59MOL0     H 7738  10.414   0.038   9.900  0.7119  0.2869  0.2472
   59MOL0     H 7739  10.518  -0.158   9.690  0.3090  1.8585 -0.5294
   59MOL0     H 7740  10.345  -0.164   9.730  0.4194  0.3291  0.0148
   59MOL0     H 7741  10.296  -0.215   9.986  0.4294  2.4005 -1.9614
   59MOL0     H 7742  10.437  -0.386  10.260 -2.7610 -2.5884  1.7530
   59MOL0     H 7743  10.439  -0.539  10.161 -1.5013 -0.5981  0.4028
   59MOL0     H 7744  10.200  -0.453  10.073 -1.5381 -1.3283  1.1015
   59MOL0     H 7745  10.209  -0.327  10.195 -0.6773 -0.2109 -1.6052
   59MOL0     H 7746  10.247  -0.620  10.254 -0.5334  0.1762 -0.0341
   59MOL0     H 7747  10.245  -0.501  10.381  1.0949 -0.7671 -0.1485
   59MOL0     H 7748  10.020  -0.581  10.189 -0.0719  0.5795 -1.0818
   59MOL0     H 7749  10.014  -0.444  10.304  2.1767 -0.1190 -2.2698
   59MOL0     H 7750   9.790  -0.536  10.332 -0.8825  0.5199 -0.3392
   59MOL0     H 7751   9.576  -0.650  10.356  0.1949  0.9143  0.1862
   59MOL0     H 7752   9.259  -1.023  10.386 -0.8534  1.4230 -1.8164
   59MOL0     H 7753   9.057  -1.047  10.512  0.9438  0.4410 -1.5865
   59MOL0     H 7754   8.827  -1.036  10.645 -1.5563 -0.6822 -1.3067
   59MOL0     H 7755   8.860  -0.949  10.497  2.2316 -1.2348  0.9412
   59MOL0     H 7756   8.700  -0.785  10.555  1.0975  0.4747 -0.3401
   59MOL0     H 7757   8.684  -0.819  10.728  0.3950 -1.8305  0.9356
   59MOL0     H 7758   8.607  -1.034  10.700 -0.1693  1.0209  1.1752
   59MOL0     H 7759   8.595  -1.021  10.524 -1.6743 -0.5708  0.3602
   59MOL0     H 7760   8.437  -0.830  10.701  1.3387  0.7824 -0.7699
   59MOL0     H 7761   8.422  -0.841  10.532  2.2378  3.2331  1.3185
   59MOL0     H 7762   8.344  -1.048  10.736 -1.7497 -0.9167  0.5838
   59MOL0     H 7763   8.367  -1.091  10.564 -1.5736  0.7577 -0.7712
   59MOL0     H 7764   8.205  -0.907  10.507  0.6884 -1.0169 -1.1643
   59MOL0     H 7765   8.180  -0.891  10.689  4.0645 -3.3699  2.9524
   59MOL0     H 7766   8.071  -1.079  10.486  2.3521  0.7404 -0.5667
   59MOL0     H 7767   8.147  -1.164  10.613 -2.0861 -1.1822 -1.6219
   59MOL0     H 7768   7.899  -1.128  10.673 -0.4302  0.4740 -0.5019
   59MOL0     H 7769   7.928  -0.961  10.632 -1.4724 -1.4406  0.1537
   59MOL0     H 7770   9.105  -0.670  10.700  0.6684  1.1317  0.1700
   59MOL0     H 7771   9.339  -0.660  10.592  1.6743 -0.3954 -2.9749
   59MOL0     H 7772   9.775  -0.982  10.543 -1.7563 -0.0737 -0.1062
   59MOL0     H 7773  10.001  -0.858  10.512 -0.5451 -0.3628  1.9609
   59MOL0     H 7774  10.529   0.822   9.532  0.0723  0.0132 -0.2394
   59MOL0     H 7775  10.645   1.052   9.541  0.0195  2.8532 -1.8593
   59MOL0     H 7776  10.747   1.424   9.379  1.6303  1.1310  0.5000
   59MOL0     H 7777  10.896   1.594   9.393  1.4754 -0.7186  2.6664
   59MOL0     H 7778  10.962   1.808   9.358  0.8184  2.4537 -1.2740
   59MOL0     H 7779  11.059   1.775   9.500 -0.7475  0.0210  2.6994
   59MOL0     H 7780  11.067   2.020   9.550 -1.6378  2.0832  0.5074
   59MOL0     H 7781  11.140   1.975   9.398 -0.8755 -0.1081 -2.3452
   59MOL0     H 7782  10.860   2.085   9.446  0.5449 -2.4338  1.1938
   59MOL0     H 7783  10.919   2.067   9.278 -0.1085  0.6001 -0.2950
   59MOL0     H 7784  10.956   2.302   9.350  0.6335  1.5368  2.0254
   59MOL0     H 7785  11.031   2.239   9.506  2.3182 -0.4692 -0.5672
   59MOL0     H 7786  11.368   2.235   9.242  0.1062  0.7150  1.2351
   59MOL0     H 7787  10.599   1.818   9.628 -0.0191 -0.7483  0.8573
   59MOL0     H 7788  10.453   1.638   9.612  2.0352  2.7154  3.9436
   60MOL0     O 7789   1.553   9.384   7.062  0.2587  0.1936  0.7206
   60MOL0     C 7790   1.563   9.376   7.181  0.3567 -1.5016  0.4297
   60MOL0     O 7791   1.470   9.339   7.262  0.7681 -0.2779 -0.7853
   60MOL0     C 7792   1.338   9.352   7.218 -0.2168 -0.1082  0.2501
   60MOL0     C 7793   1.287   9.265   7.123  0.4795  0.4296  0.0404
   60MOL0     C 7794   1.156   9.276   7.090  0.5522 -0.2811  0.2058
   60MOL0     C 7795   1.066   9.375   7.134  0.1535  0.6563  0.1906
   60MOL0     O 7796   0.932   9.371   7.103 -0.2761 -0.8092 -0.2452
   60MOL0     C 7797   0.840   9.457   7.176  0.5012 -0.1501 -1.0535
   60MOL0     C 7798   0.695   9.428   7.141 -0.8764 -0.4826  0.1363
   60MOL0     C 7799   0.656   9.296   7.214 -0.0538 -0.0030  0.6797
   60MOL0     C 7800   0.674   9.176   7.120 -0.7668  0.5861  0.4039
   60MOL0     C 7801   0.575   9.184   6.998 -0.7910  0.1728 -0.5530
   60MOL0     C 7802   0.574   9.053   6.915 -0.3677  0.7425  1.4652
   60MOL0     C 7803   0.520   9.071   6.775 -0.1758 -0.7501  0.3350
   60MOL0     C 7804   0.375   9.122   6.790  0.3795  0.3045 -0.5479
   60MOL0     N 7805   0.277   9.037   6.867  0.1197  0.5053 -0.7083
   60MOL0     C 7806   0.253   8.898   6.846 -0.2732 -0.0748 -0.7284
   60MOL0     C 7807   0.157   8.863   6.938  1.0370  0.1609 -0.4052
   60MOL0     C 7808   0.100   8.715   6.975  0.1933 -0.6096 -0.5821
   60MOL0     C 7809  -0.050   8.713   6.915 -0.5090 -0.0031 -0.1754
   60MOL0     C 7810  -0.124   8.584   6.950 -0.4778 -0.5598  0.6171
   60MOL0     C 7811  -0.223   8.619   7.056 -0.6824  0.2389  1.3957
   60MOL0     O 7812  -0.338   8.689   7.003 -0.2231 -0.4993  1.0007
   60MOL0     C 7813  -0.449   8.699   7.076  0.5923 -0.2067  0.1713
   60MOL0     C 7814  -0.453   8.674   7.212 -0.0405  0.0908 -0.4127
   60MOL0     C 7815  -0.571   8.699   7.285  0.8064 -0.4502  0.2431
   60MOL0     C 7816  -0.680   8.757   7.220  0.3130 -0.3117 -0.9783
   60MOL0     C 7817  -0.803   8.790   7.287  0.5279  0.5977 -0.1062
   60MOL0     O 7818  -0.913   8.809   7.203  0.5042 -0.3203 -0.1716
   60MOL0     C 7819  -1.045   8.815   7.254  0.1797 -0.5816  0.6279
   60MOL0     C 7820  -1.095   8.869   7.374 -0.3583 -0.8384 -0.0612
   60MOL0     C 7821  -1.233   8.871   7.397 -0.1578 -0.9337  0.1525
   60MOL0     C 7822  -1.318   8.810   7.317 -0.1590 -0.2691  0.2773
   60MOL0     O 7823  -1.454   8.801   7.344  0.4863  0.5185 -0.1396
   60MOL0     C 7824  -1.494   8.824   7.486  0.1721  0.1975  1.2487
   60MOL0     C 7825  -1.631   8.783   7.518  0.5211  0.5316 -1.0405
   60MOL0     C 7826  -1.660   8.641   7.454  0.1041 -0.6571 -0.3008
   60MOL0     C 7827  -1.779   8.581   7.514  0.8633 -0.6058  0.3423
   60MOL0     C 7828  -1.804   8.461   7.421  0.3066  0.5457 -0.1708
   60MOL0     C 7829  -1.903   8.360   7.477  0.6715  0.5790  0.6351
   60MOL0     C 7830  -1.941   8.239   7.382  0.3637  0.4372  0.4434
   60MOL0     C 7831  -2.008   8.293   7.256 -0.1754 -0.0715  0.4393
   60MOL0    Cl 7832  -2.167   8.361   7.289 -0.0727 -0.0650  0.1805
   60MOL0     C 7833  -1.270   8.748   7.203 -0.7897  0.4218  0.1810
   60MOL0     C 7834  -1.137   8.764   7.164  0.2928  1.2691  0.4199
   60MOL0     O 7835  -0.807   8.785   7.413  0.1734  0.4639 -0.4710
   60MOL0     C 7836  -0.665   8.774   7.086  0.5689  0.2402  0.5934
   60MOL0     C 7837  -0.550   8.746   7.011 -0.1794  0.8228 -0.5820
   60MOL0     N 7838   0.122   8.983   7.012  0.1262 -0.0216 -0.6529
   60MOL0     N 7839   0.202   9.079   6.976 -0.0195  0.2937  0.0024
   60MOL0     C 7840   1.126   9.467   7.219 -0.1284  0.2974 -0.1426
   60MOL0     C 7841   1.261   9.455   7.268 -0.0729 -0.2386  0.8525
   60MOL0     C 7842   1.698   9.401   7.243 -0.5996 -0.6614  0.2062
   60MOL0     C 7843   1.709   9.441   7.377 -0.0769 -0.6614  0.0567
   60MOL0     C 7844   1.835   9.470   7.441  0.2755  0.7096 -0.5508
   60MOL0     C 7845   1.952   9.452   7.362  0.1521  0.2708  0.5225
   60MOL0     O 7846   2.084   9.482   7.400  0.4825  0.0960  0.4689
   60MOL0     C 7847   2.105   9.579   7.512  0.0304 -0.2960 -0.5049
   60MOL0     C 7848   2.253   9.613   7.518 -0.5044 -0.0681  0.2371
   60MOL0     C 7849   2.352   9.492   7.540 -0.3336 -0.0851  0.3457
   60MOL0     C 7850   2.500   9.552   7.556 -0.7428 -0.2300  0.2185
   60MOL0     C 7851   2.573   9.588   7.432  0.5201 -0.1955  0.5145
   60MOL0     C 7852   2.623   9.596   7.322 -0.1076 -0.2812 -0.0319
   60MOL0     C 7853   1.940   9.426   7.230  0.2233  1.1151  0.2277
   60MOL0     C 7854   1.814   9.393   7.169 -0.2846  0.6786  0.1290
   60MOL0     H 7855   1.342   9.182   7.081 -0.0182  0.8362 -1.4905
   60MOL0     H 7856   1.114   9.203   7.021 -3.3470  1.6831  0.2729
   60MOL0     H 7857   0.863   9.564   7.178 -0.1411  0.0919  3.2564
   60MOL0     H 7858   0.844   9.440   7.284  0.6291  0.4521 -0.9633
   60MOL0     H 7859   0.684   9.424   7.033  2.9270 -2.1557 -0.3621
   60MOL0     H 7860   0.634   9.503   7.192 -0.3453 -0.1517  0.3014
   60MOL0     H 7861   0.548   9.298   7.232 -1.0043  1.4841 -3.8096
   60MOL0     H 7862   0.721   9.272   7.298  3.5961 -3.3851 -2.6759
   60MOL0     H 7863   0.777   9.169   7.084 -0.8104  0.8835  0.2209
   60MOL0     H 7864   0.658   9.087   7.182  0.2569 -0.7109 -1.1106
   60MOL0     H 7865   0.621   9.253   6.926  1.2684 -0.6104 -0.0616
   60MOL0     H 7866   0.476   9.208   7.038 -0.9556 -1.5344  0.1291
   60MOL0     H 7867   0.516   8.972   6.960  0.5933 -1.3003 -0.8191
   60MOL0     H 7868   0.671   9.004   6.900 -0.4513  1.6138 -4.1431
   60MOL0     H 7869   0.588   9.137   6.721  1.3766 -2.8102 -0.3582
   60MOL0     H 7870   0.526   8.976   6.720  0.7143  0.6227 -2.0661
   60MOL0     H 7871   0.326   9.129   6.692  1.7415 -0.3001 -1.2957
   60MOL0     H 7872   0.372   9.228   6.815 -0.3028  0.7437 -2.3202
   60MOL0     H 7873   0.307   8.824   6.788  2.8602  1.6500 -0.2473
   60MOL0     H 7874   0.101   8.708   7.085 -0.0061  3.3851 -0.1805
   60MOL0     H 7875   0.168   8.636   6.944  2.5388  0.3047  1.7853
   60MOL0     H 7876  -0.052   8.729   6.807 -0.4328  5.0222  0.3161
   60MOL0     H 7877  -0.100   8.804   6.951 -0.7039 -0.6423  1.2231
   60MOL0     H 7878  -0.181   8.546   6.865  0.2773  1.2848 -0.7994
   60MOL0     H 7879  -0.051   8.509   6.982 -0.1051 -0.7205 -0.5660
   60MOL0     H 7880  -0.165   8.674   7.131  0.5082  0.0994  0.5973
   60MOL0     H 7881  -0.257   8.532   7.113 -6.1996  0.5187 -0.8903
   60MOL0     H 7882  -0.378   8.620   7.270 -1.1816  2.2556  3.4602
   60MOL0     H 7883  -0.590   8.650   7.380  1.7422 -0.2930  0.5221
   60MOL0     H 7884  -1.014   8.920   7.424  0.0134 -0.6092 -0.8794
   60MOL0     H 7885  -1.265   8.923   7.487 -2.4879  0.7835 -1.5365
   60MOL0     H 7886  -1.481   8.931   7.506  0.0492 -0.0145  2.5228
   60MOL0     H 7887  -1.426   8.769   7.551  0.8906 -1.5703 -0.8846
   60MOL0     H 7888  -1.704   8.859   7.490 -1.2826 -0.3170  1.1055
   60MOL0     H 7889  -1.645   8.775   7.626 -1.0655  0.4513 -1.2316
   60MOL0     H 7890  -1.569   8.581   7.470  1.0450  0.3216 -1.7165
   60MOL0     H 7891  -1.681   8.641   7.346 -2.2126 -1.3495  0.1041
   60MOL0     H 7892  -1.768   8.552   7.618 -3.1963 -0.8704  0.8463
   60MOL0     H 7893  -1.858   8.658   7.512  3.0759  1.8488 -2.5784
   60MOL0     H 7894  -1.709   8.409   7.406 -1.2377 -1.9733 -1.8618
   60MOL0     H 7895  -1.835   8.496   7.322 -0.0046 -2.8640 -1.4152
   60MOL0     H 7896  -1.992   8.419   7.501  1.6804  2.6490 -0.5321
   60MOL0     H 7897  -1.860   8.323   7.571  1.5305  0.9321  0.3889
   60MOL0     H 7898  -1.850   8.183   7.360  2.0456  2.4830  1.7531
   60MOL0     H 7899  -2.013   8.167   7.424 -1.5954  2.3626  0.5781
   60MOL0     H 7900  -2.024   8.212   7.185  2.3596 -0.9695  0.7827
   60MOL0     H 7901  -1.949   8.373   7.209 -2.2293  0.2398 -1.8070
   60MOL0     H 7902  -1.343   8.707   7.135 -0.2252  1.7003 -1.2668
   60MOL0     H 7903  -1.115   8.717   7.068 -2.1042  0.1107  0.3548
   60MOL0     H 7904  -0.752   8.805   7.029 -1.3798 -4.5327  0.4980
   60MOL0     H 7905  -0.551   8.746   6.903  1.5159  0.7501 -0.6368
   60MOL0     H 7906   1.073   9.559   7.239 -1.0016 -0.1930 -0.1806
   60MOL0     H 7907   1.319   9.531   7.318  0.9170 -0.2535 -0.2398
   60MOL0     H 7908   1.624   9.453   7.444  0.6496  1.4059  0.6654
   60MOL0     H 7909   1.832   9.494   7.547 -1.1204  0.6518 -0.5605
   60MOL0     H 7910   2.077   9.543   7.611  0.1124  2.6246  0.6668
   60MOL0     H 7911   2.039   9.666   7.503  1.9348  1.0094 -3.2398
   60MOL0     H 7912   2.286   9.670   7.430  0.4158 -0.2709  0.4335
   60MOL0     H 7913   2.257   9.687   7.598  2.9419  1.9058 -1.5085
   60MOL0     H 7914   2.334   9.421   7.459  2.6293  2.2457 -2.6373
   60MOL0     H 7915   2.323   9.447   7.636 -0.7586 -1.4797 -0.4141
   60MOL0     H 7916   2.510   9.639   7.622  0.3228 -2.1101  2.7190
   60MOL0     H 7917   2.566   9.494   7.622  0.8403  0.6173 -0.5492
   60MOL0     H 7918   2.666   9.626   7.229 -3.3244  1.1348 -1.1900
   60MOL0     H 7919   2.034   9.409   7.178 -0.2722  2.1241 -1.0423
   60MOL0     H 7920   1.812   9.349   7.070  2.0007 -2.3615  1.2633
   61MOL0     O 7921   5.605   7.139   7.159 -0.1945  0.6490  0.6613
   61MOL0     C 7922   5.642   7.244   7.226  0.9907  1.0594  0.9209
   61MOL0     O 7923   5.557   7.330   7.301 -0.2151 -0.3061 -0.0332
   61MOL0     C 7924   5.422   7.317   7.285 -0.3251  0.0562  0.8294
   61MOL0     C 7925   5.348   7.365   7.180 -0.0288  0.7356  0.0289
   61MOL0     C 7926   5.211   7.345   7.179  0.5524 -0.0099 -0.9475
   61MOL0     C 7927   5.145   7.259   7.266 -0.2474  0.2799 -0.0790
   61MOL0     O 7928   5.011   7.232   7.245  0.4246  0.0046 -0.2887
   61MOL0     C 7929   4.963   7.109   7.295 -0.0323  0.6071 -0.0800
   61MOL0     C 7930   4.818   7.106   7.242  0.1609 -0.6619 -0.2255
   61MOL0     C 7931   4.749   6.973   7.276  0.4372  0.3509 -0.0220
   61MOL0     C 7932   4.624   6.953   7.201  0.1258 -0.1113  0.4876
   61MOL0     C 7933   4.533   6.835   7.224  1.4333  0.4217  0.0417
   61MOL0     C 7934   4.466   6.849   7.371  0.1503  0.2309 -0.0239
   61MOL0     C 7935   4.380   6.718   7.411 -0.8513  0.1250 -0.2866
   61MOL0     C 7936   4.242   6.724   7.330 -0.6247 -0.2653  0.4133
   61MOL0     N 7937   4.149   6.822   7.380  0.2581 -0.6719  0.8429
   61MOL0     C 7938   4.094   6.926   7.298  0.0030  0.2149  0.7431
   61MOL0     C 7939   4.010   6.993   7.386 -0.6210 -0.3049 -0.3534
   61MOL0     C 7940   3.909   7.107   7.363  0.3504 -0.5075 -0.5638
   61MOL0     C 7941   3.774   7.035   7.357  1.4042 -0.1817 -0.4044
   61MOL0     C 7942   3.665   7.144   7.323 -0.8660  0.2328  0.0220
   61MOL0     C 7943   3.526   7.096   7.360  0.0276 -0.5581 -0.0525
   61MOL0     O 7944   3.431   7.194   7.313 -0.7090 -0.3416 -0.6753
   61MOL0     C 7945   3.304   7.159   7.332  0.3174 -0.7541  0.4320
   61MOL0     C 7946   3.250   7.050   7.405 -0.5682  0.1659 -0.1100
   61MOL0     C 7947   3.119   7.011   7.397 -0.5153  0.2220  0.0489
   61MOL0     C 7948   3.037   7.073   7.317  0.8315  0.3595 -0.1793
   61MOL0     C 7949   2.888   7.046   7.327  0.0990 -0.3730  0.7213
   61MOL0     O 7950   2.800   7.110   7.243  0.0395  0.0450  0.1442
   61MOL0     C 7951   2.667   7.079   7.239 -0.5340 -0.0968  0.2401
   61MOL0     C 7952   2.594   7.100   7.118 -0.0347  0.8561 -0.6681
   61MOL0     C 7953   2.457   7.076   7.104 -0.3002  0.6649 -0.5175
   61MOL0     C 7954   2.380   7.042   7.220 -0.2476 -0.3656  0.5687
   61MOL0     O 7955   2.249   7.022   7.204  0.0611 -0.0134 -0.4236
   61MOL0     C 7956   2.167   6.970   7.309  0.4106  1.1508 -0.5760
   61MOL0     C 7957   2.017   6.997   7.280 -0.6489 -0.0449  0.3514
   61MOL0     C 7958   1.938   6.926   7.385 -1.0891 -0.0118  1.0953
   61MOL0     C 7959   1.790   6.965   7.391 -0.5503 -0.5073 -0.4198
   61MOL0     C 7960   1.728   7.004   7.253 -0.3792  0.7743  0.0789
   61MOL0     C 7961   1.569   7.006   7.238 -0.7925  0.5191 -0.1509
   61MOL0     C 7962   1.513   7.141   7.280 -0.3567  0.5838  0.4249
   61MOL0     C 7963   1.366   7.129   7.282  0.1340  0.2334  0.3274
   61MOL0    Cl 7964   1.286   7.080   7.137  0.0315  0.2197 -0.4652
   61MOL0     C 7965   2.450   7.036   7.341  0.5126  0.3451  0.0237
   61MOL0     C 7966   2.584   7.065   7.357  0.6868  1.6691 -0.2245
   61MOL0     O 7967   2.855   6.976   7.424  1.0018 -0.0793 -0.1130
   61MOL0     C 7968   3.074   7.193   7.258  0.0605  0.0576 -0.1710
   61MOL0     C 7969   3.208   7.234   7.264 -1.0072  0.9944  0.0270
   61MOL0     N 7970   4.029   6.937   7.505 -0.4123  0.2302 -0.1470
   61MOL0     N 7971   4.113   6.836   7.513  0.3464 -0.0822 -1.1159
   61MOL0     C 7972   5.228   7.192   7.363  0.2828 -0.0099 -0.6270
   61MOL0     C 7973   5.360   7.224   7.367  0.3765 -0.5699  0.3910
   61MOL0     C 7974   5.791   7.261   7.228 -0.1066  0.2821 -0.3148
   61MOL0     C 7975   5.831   7.350   7.333 -0.3848  0.2396  0.0347
   61MOL0     C 7976   5.965   7.353   7.355  0.1937 -1.3328  0.0883
   61MOL0     C 7977   6.064   7.288   7.275  0.5179 -0.1323 -0.4410
   61MOL0     O 7978   6.193   7.277   7.295 -0.4195  0.0812  0.2840
   61MOL0     C 7979   6.255   7.361   7.392 -0.0162  0.7425  0.2986
   61MOL0     C 7980   6.407   7.340   7.387  0.6421  0.2121  0.4000
   61MOL0     C 7981   6.477   7.399   7.274  0.1367 -0.0524 -0.2936
   61MOL0     C 7982   6.634   7.405   7.287 -0.4972 -0.7204  0.2351
   61MOL0     C 7983   6.699   7.480   7.175  0.5599 -0.4066 -0.2123
   61MOL0     C 7984   6.748   7.564   7.106  0.1224  0.8289 -0.3797
   61MOL0     C 7985   6.013   7.205   7.176  0.7821 -0.2477 -0.5182
   61MOL0     C 7986   5.880   7.180   7.159  0.3143  0.2858 -0.2774
   61MOL0     H 7987   5.394   7.415   7.095  0.9197 -2.6813 -1.6745
   61MOL0     H 7988   5.155   7.412   7.113 -2.5271  0.5957  1.9588
   61MOL0     H 7989   4.961   7.111   7.404 -1.0998  1.1248 -0.0961
   61MOL0     H 7990   5.025   7.023   7.267  0.7544  1.8553 -2.4860
   61MOL0     H 7991   4.815   7.124   7.135  0.3084  0.1815 -0.0920
   61MOL0     H 7992   4.755   7.184   7.285  0.5039 -1.1181  1.1673
   61MOL0     H 7993   4.728   6.987   7.383  2.7243 -0.1155  0.5298
   61MOL0     H 7994   4.819   6.890   7.266 -0.6034 -0.7358  1.2616
   61MOL0     H 7995   4.563   7.040   7.228 -0.6962 -0.9385  1.4066
   61MOL0     H 7996   4.641   6.951   7.093  0.0889 -4.7405  0.3355
   61MOL0     H 7997   4.585   6.739   7.223 -0.1863 -0.6866  3.7857
   61MOL0     H 7998   4.455   6.831   7.147  1.1803  1.9982  0.1867
   61MOL0     H 7999   4.401   6.937   7.371 -3.0009 -1.9074 -0.4875
   61MOL0     H 8000   4.540   6.874   7.447 -2.8562  2.8966  2.3215
   61MOL0     H 8001   4.433   6.627   7.382 -0.4555  0.2258  0.1091
   61MOL0     H 8002   4.363   6.721   7.519 -0.4979  0.9161 -0.2479
   61MOL0     H 8003   4.195   6.625   7.329 -0.3157 -0.4599 -2.4874
   61MOL0     H 8004   4.260   6.752   7.226 -1.0446 -3.9591 -0.8183
   61MOL0     H 8005   4.106   6.936   7.190 -0.6718  1.1841  0.7548
   61MOL0     H 8006   3.931   7.177   7.282  0.4665  1.3403  0.9820
   61MOL0     H 8007   3.898   7.174   7.448  0.9985  1.1952 -1.7724
   61MOL0     H 8008   3.753   6.993   7.456  1.6450 -1.3797 -0.8428
   61MOL0     H 8009   3.762   6.957   7.281 -2.1288 -0.7303  0.5337
   61MOL0     H 8010   3.682   7.233   7.383 -0.5705 -0.4566  0.9819
   61MOL0     H 8011   3.676   7.160   7.215  0.0873  1.3778  0.2700
   61MOL0     H 8012   3.513   7.079   7.468  0.1452  0.1654  0.0829
   61MOL0     H 8013   3.509   6.999   7.314 -2.2719 -0.7290  1.0139
   61MOL0     H 8014   3.318   6.988   7.462  2.9615  0.3386 -3.6371
   61MOL0     H 8015   3.096   6.920   7.452 -2.5494 -1.1251 -2.7864
   61MOL0     H 8016   2.648   7.147   7.036  3.7505  0.2795  1.3092
   61MOL0     H 8017   2.405   7.066   7.010 -1.8468 -0.4484  0.4008
   61MOL0     H 8018   2.194   7.020   7.403  1.1797  0.5918 -0.4876
   61MOL0     H 8019   2.179   6.862   7.319 -0.5683  1.0830  0.0286
   61MOL0     H 8020   1.996   6.969   7.176  2.2805 -0.3202 -0.2374
   61MOL0     H 8021   1.994   7.104   7.282 -1.7136 -0.2046 -1.0939
   61MOL0     H 8022   1.975   6.946   7.486 -1.2554  0.8837  0.9793
   61MOL0     H 8023   1.939   6.823   7.347 -0.7924  0.5095 -0.3643
   61MOL0     H 8024   1.734   6.885   7.440  0.5985  0.5804  2.9438
   61MOL0     H 8025   1.769   7.051   7.455  3.5625 -0.6433  1.3851
   61MOL0     H 8026   1.756   6.916   7.194 -1.7846  0.3637 -0.0005
   61MOL0     H 8027   1.770   7.096   7.211  1.8260  0.2578  0.9894
   61MOL0     H 8028   1.540   6.926   7.307  3.3163 -0.5678  0.5829
   61MOL0     H 8029   1.539   6.986   7.134  0.7921 -1.0941 -0.3455
   61MOL0     H 8030   1.543   7.173   7.380 -0.7355  1.2242  0.3385
   61MOL0     H 8031   1.544   7.217   7.207 -0.7762  0.4554  0.1078
   61MOL0     H 8032   1.317   7.221   7.315 -2.8457 -1.5913  1.4025
   61MOL0     H 8033   1.338   7.057   7.360 -1.7797 -1.2126 -1.5563
   61MOL0     H 8034   2.391   7.001   7.426 -1.6713 -0.7647 -1.8100
   61MOL0     H 8035   2.617   7.070   7.461  2.0363 -0.9476 -0.4625
   61MOL0     H 8036   3.002   7.254   7.204 -0.1478 -0.0200  0.0141
   61MOL0     H 8037   3.230   7.326   7.210 -0.4007  0.0139 -1.4687
   61MOL0     H 8038   5.190   7.124   7.438 -1.1142  1.7767  0.3618
   61MOL0     H 8039   5.425   7.169   7.435 -0.5813 -1.8271  0.3466
   61MOL0     H 8040   5.764   7.423   7.377  0.6292  1.4755 -0.4419
   61MOL0     H 8041   6.004   7.424   7.427  0.1088 -1.4924  0.2921
   61MOL0     H 8042   6.224   7.332   7.492 -2.8132  0.2274 -0.6450
   61MOL0     H 8043   6.236   7.469   7.382  2.6850  1.2764 -0.0225
   61MOL0     H 8044   6.437   7.393   7.478 -2.0376 -1.2518  2.2896
   61MOL0     H 8045   6.431   7.234   7.402 -2.6025 -0.6135  0.4576
   61MOL0     H 8046   6.438   7.501   7.262 -0.2444  0.1070  1.8674
   61MOL0     H 8047   6.454   7.342   7.184  0.0290  0.3600 -0.5308
   61MOL0     H 8048   6.660   7.452   7.383 -3.8009  0.9161  0.4494
   61MOL0     H 8049   6.674   7.303   7.284 -2.1038 -1.4007  0.6298
   61MOL0     H 8050   6.806   7.636   7.052  1.3305 -1.3102 -2.0558
   61MOL0     H 8051   6.084   7.147   7.119  1.8503  1.6139 -1.1881
   61MOL0     H 8052   5.847   7.098   7.096 -4.0033  1.9927 -0.5586
   62MOL0     O 8053   3.700   3.009   7.196 -0.5404 -0.2544  0.4875
   62MOL0     C 8054   3.758   3.032   7.088 -0.2910 -0.4571 -0.5119
   62MOL0     O 8055   3.711   3.003   6.964 -0.2164 -0.3619 -0.2223
   62MOL0     C 8056   3.579   2.973   6.954  0.0376  0.3393 -0.5064
   62MOL0     C 8057   3.460   3.049   6.993 -0.0792  0.3881  0.5822
   62MOL0     C 8058   3.328   3.006   6.953 -1.1028 -0.3625  0.2684
   62MOL0     C 8059   3.305   2.883   6.885 -0.3174  0.5839  0.5992
   62MOL0     O 8060   3.189   2.828   6.860 -0.0409  0.8649  0.0755
   62MOL0     C 8061   3.071   2.868   6.930  0.7067  0.2776 -0.0590
   62MOL0     C 8062   2.985   2.963   6.844 -0.2099 -1.1036 -1.0618
   62MOL0     C 8063   2.897   2.880   6.752 -0.2166 -0.3295  0.0690
   62MOL0     C 8064   2.760   2.857   6.802 -0.3965 -0.3831 -0.4311
   62MOL0     C 8065   2.658   2.797   6.700  0.0705 -0.3130 -0.1778
   62MOL0     C 8066   2.611   2.901   6.605  0.4425  0.4600  0.3020
   62MOL0     C 8067   2.501   2.842   6.517  0.4475 -0.6758 -0.0124
   62MOL0     C 8068   2.440   2.940   6.409  0.7627  0.2097 -0.5806
   62MOL0     N 8069   2.311   2.897   6.349 -0.4142  0.2203 -0.6102
   62MOL0     C 8070   2.304   2.835   6.224  0.3962  0.1259 -0.0363
   62MOL0     C 8071   2.180   2.783   6.213  0.3667 -0.2063 -0.8612
   62MOL0     C 8072   2.137   2.685   6.107  0.9721 -0.3193 -0.5280
   62MOL0     C 8073   2.065   2.559   6.162  0.7545  0.6607  0.3182
   62MOL0     C 8074   2.082   2.427   6.086  0.8462 -0.0709  0.7926
   62MOL0     C 8075   2.093   2.431   5.935 -0.5719 -0.4467 -0.8746
   62MOL0     O 8076   1.994   2.517   5.877  0.2910  0.1074 -0.3731
   62MOL0     C 8077   1.874   2.460   5.829  0.0987 -0.6751 -0.3283
   62MOL0     C 8078   1.795   2.562   5.773  0.2179  0.1122 -0.3261
   62MOL0     C 8079   1.661   2.529   5.724 -0.4684 -0.0677 -0.2244
   62MOL0     C 8080   1.613   2.398   5.721  0.0003 -0.4938 -0.4664
   62MOL0     C 8081   1.492   2.365   5.647  0.2631 -0.1164  0.1194
   62MOL0     O 8082   1.423   2.474   5.597 -0.0001 -0.2329 -0.2546
   62MOL0     C 8083   1.280   2.464   5.575 -0.3085 -0.5847  0.2481
   62MOL0     C 8084   1.230   2.531   5.463  0.2158  0.2714  0.3159
   62MOL0     C 8085   1.096   2.513   5.421  0.0397 -0.5216 -0.7228
   62MOL0     C 8086   1.017   2.422   5.489  0.3720 -0.6736 -0.7464
   62MOL0     O 8087   0.905   2.411   5.417 -0.0930  0.6287 -0.8983
   62MOL0     C 8088   0.809   2.315   5.466  0.5808  0.2195  0.0890
   62MOL0     C 8089   0.663   2.350   5.410 -0.7221  0.1166 -0.5178
   62MOL0     C 8090   0.552   2.256   5.468 -0.1797 -0.4369 -0.4132
   62MOL0     C 8091   0.428   2.294   5.395  0.6103  0.1316  0.6334
   62MOL0     C 8092   0.291   2.248   5.449 -0.5828 -0.0181  0.0275
   62MOL0     C 8093   0.271   2.100   5.449 -0.2718  0.6628  0.0175
   62MOL0     C 8094   0.126   2.068   5.471 -0.2892 -0.6611 -0.8848
   62MOL0     C 8095   0.099   1.930   5.541 -1.0882 -0.2170 -0.2729
   62MOL0    Cl 8096  -0.073   1.892   5.561  0.3610  0.2086  0.3785
   62MOL0     C 8097   1.052   2.371   5.613  0.4852 -0.4832  0.6518
   62MOL0     C 8098   1.190   2.391   5.651  0.0794  0.9714 -0.7362
   62MOL0     O 8099   1.452   2.250   5.661 -0.0677 -0.1399  0.0358
   62MOL0     C 8100   1.706   2.302   5.773  0.4553 -0.2251 -0.5156
   62MOL0     C 8101   1.828   2.333   5.835 -0.3837  0.1804 -0.0155
   62MOL0     N 8102   2.111   2.824   6.330 -0.7945 -0.5498  0.0096
   62MOL0     N 8103   2.191   2.907   6.407  0.5709 -0.2258  0.3167
   62MOL0     C 8104   3.421   2.807   6.841 -0.1976 -0.6843 -0.5276
   62MOL0     C 8105   3.550   2.855   6.879  0.1024  0.6172 -0.6955
   62MOL0     C 8106   3.896   3.070   7.099 -0.7754 -0.3157 -0.1344
   62MOL0     C 8107   3.974   3.028   7.214 -0.2387 -0.9015 -0.0059
   62MOL0     C 8108   4.113   3.057   7.227 -0.3271 -0.2614  0.2727
   62MOL0     C 8109   4.171   3.140   7.137 -0.2963  0.3491 -0.5591
   62MOL0     O 8110   4.294   3.187   7.156 -0.0665  0.2672 -0.1398
   62MOL0     C 8111   4.341   3.319   7.107  0.0377 -0.5897  0.4251
   62MOL0     C 8112   4.441   3.375   7.210  0.9498 -0.1693  0.5018
   62MOL0     C 8113   4.382   3.409   7.345 -0.1692 -0.0187 -0.0473
   62MOL0     C 8114   4.298   3.535   7.330  0.2931  0.5525  0.4656
   62MOL0     C 8115   4.383   3.654   7.324 -0.5675 -0.0952  0.2664
   62MOL0     C 8116   4.465   3.741   7.319 -0.3986 -0.7703  0.0273
   62MOL0     C 8117   4.100   3.177   7.016  0.5221 -0.0494  0.9785
   62MOL0     C 8118   3.962   3.140   7.000  0.0431  0.1851 -0.5061
   62MOL0     H 8119   3.473   3.141   7.049 -1.0360 -0.7502  2.8293
   62MOL0     H 8120   3.238   3.061   6.976 -3.0361 -3.2793  0.0882
   62MOL0     H 8121   3.090   2.910   7.030  1.9589 -0.0343 -0.1473
   62MOL0     H 8122   3.008   2.781   6.954 -1.6770  1.3810 -1.9541
   62MOL0     H 8123   3.055   3.028   6.790 -1.8538  2.2520  0.4977
   62MOL0     H 8124   2.925   3.021   6.914 -0.2964 -1.9816 -0.3890
   62MOL0     H 8125   2.946   2.784   6.737 -1.3307 -0.8075 -0.6063
   62MOL0     H 8126   2.901   2.923   6.652 -0.6036 -0.0698  0.1610
   62MOL0     H 8127   2.774   2.788   6.885 -2.6372  1.4669  1.6299
   62MOL0     H 8128   2.713   2.948   6.839 -0.4391 -0.3794 -0.4947
   62MOL0     H 8129   2.571   2.767   6.761 -0.6292  5.3808  2.2640
   62MOL0     H 8130   2.697   2.711   6.645  0.9890  0.6709 -1.1031
   62MOL0     H 8131   2.688   2.936   6.537 -0.8687  1.6008 -0.6491
   62MOL0     H 8132   2.577   2.989   6.662  1.0104 -0.2124  1.7288
   62MOL0     H 8133   2.555   2.761   6.468 -1.3424 -2.0102  0.1198
   62MOL0     H 8134   2.430   2.814   6.595  1.8623  1.2869  2.1057
   62MOL0     H 8135   2.511   2.965   6.330  0.1244 -1.2738 -1.6787
   62MOL0     H 8136   2.434   3.039   6.456  0.9199  0.1946 -0.5301
   62MOL0     H 8137   2.393   2.803   6.169  0.4303 -0.9741  0.6176
   62MOL0     H 8138   2.221   2.662   6.041  2.5450  0.5666  1.0522
   62MOL0     H 8139   2.061   2.740   6.050  1.3339  0.5835 -0.1604
   62MOL0     H 8140   1.958   2.581   6.164  0.5639 -0.2886  0.9516
   62MOL0     H 8141   2.088   2.540   6.267  0.6773  1.9563  0.5897
   62MOL0     H 8142   2.169   2.379   6.132 -0.0170 -0.1553  2.4411
   62MOL0     H 8143   1.995   2.365   6.110 -0.2302  1.0186 -0.1873
   62MOL0     H 8144   2.091   2.334   5.886 -0.2546  0.4537 -2.7904
   62MOL0     H 8145   2.191   2.473   5.912 -0.5483  0.4632  0.7210
   62MOL0     H 8146   1.830   2.663   5.790  0.8976 -0.2354  0.3670
   62MOL0     H 8147   1.605   2.615   5.688  0.4007  0.5903 -0.0472
   62MOL0     H 8148   1.290   2.592   5.397  0.8975 -1.7876 -1.0569
   62MOL0     H 8149   1.058   2.571   5.338  0.8366 -0.2694 -0.9210
   62MOL0     H 8150   0.793   2.315   5.574 -0.7487  0.9010 -0.0864
   62MOL0     H 8151   0.841   2.215   5.435  2.8199  1.0005 -0.3079
   62MOL0     H 8152   0.666   2.352   5.301  2.4681 -0.6710 -0.5382
   62MOL0     H 8153   0.625   2.445   5.448  0.4436 -0.2982  1.8606
   62MOL0     H 8154   0.542   2.273   5.576  2.3463  0.0318 -0.1998
   62MOL0     H 8155   0.572   2.150   5.451  2.6561  0.0509 -0.5444
   62MOL0     H 8156   0.419   2.400   5.369  0.9129 -0.0735 -0.3379
   62MOL0     H 8157   0.449   2.249   5.298  2.5928  2.3602 -0.0590
   62MOL0     H 8158   0.208   2.285   5.388  0.0573 -0.6853 -1.2928
   62MOL0     H 8159   0.274   2.287   5.550  2.8777 -3.1121  2.0842
   62MOL0     H 8160   0.326   2.066   5.537  2.4087 -0.0403 -1.7949
   62MOL0     H 8161   0.311   2.051   5.360 -2.0040  0.6915 -0.8108
   62MOL0     H 8162   0.087   2.147   5.536  1.7554 -0.3616  0.0697
   62MOL0     H 8163   0.077   2.076   5.374 -2.7872  2.2487  0.4656
   62MOL0     H 8164   0.138   1.935   5.643 -2.0852  0.3017  0.1001
   62MOL0     H 8165   0.150   1.849   5.487  1.9848  0.3836  1.4862
   62MOL0     H 8166   0.984   2.299   5.659  1.6449 -4.0756 -2.7020
   62MOL0     H 8167   1.223   2.336   5.739  1.5966  2.6461 -0.1857
   62MOL0     H 8168   1.671   2.199   5.766 -1.0657 -0.1325  3.2388
   62MOL0     H 8169   1.876   2.251   5.887 -1.2890  1.0726  2.3446
   62MOL0     H 8170   3.424   2.713   6.787 -0.8909 -1.8472  1.3640
   62MOL0     H 8171   3.635   2.794   6.851 -1.2929 -0.0904 -3.8065
   62MOL0     H 8172   3.930   2.985   7.303  0.7231  2.0418  2.0158
   62MOL0     H 8173   4.159   3.028   7.321  0.0239 -0.8092 -0.0657
   62MOL0     H 8174   4.264   3.394   7.087 -1.0988 -1.5122  1.2252
   62MOL0     H 8175   4.392   3.314   7.011 -0.8469  2.0268 -0.2660
   62MOL0     H 8176   4.516   3.299   7.235 -0.8444 -1.0882  3.5629
   62MOL0     H 8177   4.490   3.466   7.174 -1.4377  1.2432  0.6707
   62MOL0     H 8178   4.453   3.418   7.428  0.5095  0.2685 -0.6474
   62MOL0     H 8179   4.317   3.326   7.373 -0.2288 -0.9490 -2.6370
   62MOL0     H 8180   4.233   3.529   7.243 -0.1311 -3.2581  0.8675
   62MOL0     H 8181   4.230   3.549   7.414 -0.9791 -3.0952  0.2300
   62MOL0     H 8182   4.553   3.801   7.333 -0.0955 -1.2594  0.2519
   62MOL0     H 8183   4.155   3.232   6.940 -1.7571  0.1587 -0.6289
   62MOL0     H 8184   3.915   3.157   6.903 -0.7863  2.5549  0.2425
   63MOL0     O 8185   6.651   1.377   7.383 -0.3014 -0.3079  1.1164
   63MOL0     C 8186   6.628   1.294   7.295  0.1172 -0.8445 -0.2203
   63MOL0     O 8187   6.504   1.256   7.250  0.8965 -0.1766  0.3983
   63MOL0     C 8188   6.382   1.295   7.300 -0.9032  0.3719 -0.2537
   63MOL0     C 8189   6.289   1.326   7.201  0.3847 -0.4392 -1.0819
   63MOL0     C 8190   6.167   1.391   7.242 -0.5937 -0.7759 -0.4562
   63MOL0     C 8191   6.133   1.400   7.380  0.8019  0.4756 -0.6628
   63MOL0     O 8192   6.009   1.446   7.408  0.6104 -0.2717  0.2214
   63MOL0     C 8193   5.954   1.411   7.530  0.1153  0.1615 -1.2259
   63MOL0     C 8194   5.797   1.429   7.526  0.1684  0.5451 -0.9927
   63MOL0     C 8195   5.733   1.361   7.647 -0.0802 -0.2700  0.1999
   63MOL0     C 8196   5.592   1.304   7.620 -0.6382 -0.0385  0.2649
   63MOL0     C 8197   5.511   1.275   7.743  0.3012 -1.3467 -0.7644
   63MOL0     C 8198   5.566   1.162   7.830  0.3595 -0.4770 -0.1861
   63MOL0     C 8199   5.473   1.107   7.936 -0.1463 -0.2785 -0.5332
   63MOL0     C 8200   5.362   1.024   7.882 -0.8833 -0.0592 -0.5425
   63MOL0     N 8201   5.274   0.984   7.999  0.4588  0.1862  0.0142
   63MOL0     C 8202   5.162   0.908   7.980  0.1271  0.5123  0.6891
   63MOL0     C 8203   5.099   0.907   8.101  0.3354  0.6488  0.4419
   63MOL0     C 8204   4.988   0.815   8.133  0.2101  0.2582 -0.4489
   63MOL0     C 8205   4.852   0.869   8.101  0.6925  0.3037  0.1212
   63MOL0     C 8206   4.814   0.844   7.955 -0.5850  0.3743 -0.7124
   63MOL0     C 8207   4.675   0.904   7.927  0.3357  1.0455  1.0167
   63MOL0     O 8208   4.581   0.842   8.009  0.4360  0.4176 -0.2576
   63MOL0     C 8209   4.451   0.826   7.985  0.0480  0.0744 -0.3948
   63MOL0     C 8210   4.385   0.756   8.095  0.0083 -0.2644  0.1565
   63MOL0     C 8211   4.250   0.725   8.083 -0.2118  0.1440  0.3685
   63MOL0     C 8212   4.178   0.766   7.966  0.3870  0.6717 -0.7637
   63MOL0     C 8213   4.036   0.736   7.957  0.0274 -0.0319  0.9698
   63MOL0     O 8214   4.001   0.623   8.031 -0.3176 -0.4238 -0.2446
   63MOL0     C 8215   3.876   0.591   8.027  0.3334 -0.7439 -0.7012
   63MOL0     C 8216   3.784   0.609   8.134 -0.2450 -0.0971 -0.9447
   63MOL0     C 8217   3.655   0.568   8.121  0.1515 -0.2389  1.0172
   63MOL0     C 8218   3.617   0.491   8.009  0.9065 -0.3448  0.2529
   63MOL0     O 8219   3.485   0.454   7.995  1.0187  0.6188 -0.1272
   63MOL0     C 8220   3.442   0.320   8.004 -0.2894  0.3766  0.1663
   63MOL0     C 8221   3.315   0.310   7.924  0.1716 -0.2900 -0.9098
   63MOL0     C 8222   3.260   0.169   7.934  0.5228 -0.0990 -0.0368
   63MOL0     C 8223   3.111   0.159   7.888  0.1887  0.4648  0.9452
   63MOL0     C 8224   3.045   0.029   7.944  0.4242  0.2230 -1.2199
   63MOL0     C 8225   2.903  -0.003   7.901 -1.0357 -0.0718  0.5281
   63MOL0     C 8226   2.810   0.113   7.931 -0.0002  0.3948 -0.0654
   63MOL0     C 8227   2.667   0.058   7.909 -0.2830 -0.0760 -0.0996
   63MOL0    Cl 8228   2.635   0.027   7.735 -0.3881 -0.1484  0.3207
   63MOL0     C 8229   3.707   0.473   7.900  0.5109 -0.6839 -0.0855
   63MOL0     C 8230   3.836   0.519   7.914  0.8086 -0.4055  0.5597
   63MOL0     O 8231   3.958   0.798   7.887  1.0425 -0.2724 -0.8643
   63MOL0     C 8232   4.249   0.843   7.870 -0.6866  0.2264 -0.8262
   63MOL0     C 8233   4.383   0.863   7.881 -0.0148  0.0073  0.7832
   63MOL0     N 8234   5.168   0.984   8.194  0.9084  0.1574 -0.0100
   63MOL0     N 8235   5.269   1.029   8.131  0.0223 -0.2815  0.4183
   63MOL0     C 8236   6.230   1.351   7.473  0.6857 -0.0895  0.1862
   63MOL0     C 8237   6.356   1.305   7.435  0.3946 -0.2073  0.0057
   63MOL0     C 8238   6.732   1.218   7.234  0.1528 -0.6316  0.0955
   63MOL0     C 8239   6.865   1.223   7.284 -0.2788 -0.1111 -0.7352
   63MOL0     C 8240   6.972   1.149   7.236  0.1371 -0.8955  0.3505
   63MOL0     C 8241   6.966   1.102   7.102  0.1562 -0.7578 -0.4620
   63MOL0     O 8242   7.069   1.062   7.023  0.7754 -0.2979 -0.6893
   63MOL0     C 8243   7.172   1.160   7.004  1.1216  0.3678  0.1895
   63MOL0     C 8244   7.282   1.081   6.933  0.0380 -0.0090 -0.3895
   63MOL0     C 8245   7.327   0.957   7.013  0.3217  0.3154  0.5581
   63MOL0     C 8246   7.419   0.867   6.930 -0.6875 -0.3388 -0.0650
   63MOL0     C 8247   7.493   0.759   7.001 -0.7353  0.4346  0.7427
   63MOL0     C 8248   7.552   0.668   7.056  0.5328 -0.2140  0.8328
   63MOL0     C 8249   6.842   1.095   7.050  0.7566 -0.1285 -0.3661
   63MOL0     C 8250   6.720   1.148   7.106 -0.9365 -0.1221 -0.7029
   63MOL0     H 8251   6.314   1.312   7.096 -0.0201 -2.0629 -0.9844
   63MOL0     H 8252   6.090   1.428   7.175 -0.5009 -1.0338 -0.7083
   63MOL0     H 8253   5.982   1.474   7.615 -0.8019 -1.8891  0.7195
   63MOL0     H 8254   5.977   1.310   7.565 -1.2006 -0.3482 -1.7424
   63MOL0     H 8255   5.764   1.369   7.440 -3.0950 -2.0853  1.7998
   63MOL0     H 8256   5.766   1.532   7.509 -1.2035  0.6082  1.4801
   63MOL0     H 8257   5.731   1.429   7.733 -0.2328  0.7015 -0.5509
   63MOL0     H 8258   5.798   1.279   7.676  0.8520 -0.3437 -1.9645
   63MOL0     H 8259   5.542   1.382   7.561  0.4002  0.8335  0.5124
   63MOL0     H 8260   5.601   1.210   7.565  2.4279  0.4241 -0.1648
   63MOL0     H 8261   5.409   1.250   7.710 -0.8775 -1.2976  2.5240
   63MOL0     H 8262   5.497   1.374   7.788  0.4987 -0.5484 -2.3649
   63MOL0     H 8263   5.647   1.207   7.886  0.6566 -2.5525  1.1888
   63MOL0     H 8264   5.609   1.077   7.776  1.4926  0.2959 -0.5154
   63MOL0     H 8265   5.536   1.039   7.993 -1.1524 -1.3797 -0.7044
   63MOL0     H 8266   5.440   1.197   7.990 -2.8651  0.4754 -3.1536
   63MOL0     H 8267   5.404   0.939   7.828 -1.4585 -0.7138  0.0199
   63MOL0     H 8268   5.301   1.083   7.813  0.3209 -0.4478 -2.0077
   63MOL0     H 8269   5.137   0.848   7.893 -0.6052 -1.0104  1.9096
   63MOL0     H 8270   4.991   0.803   8.242 -2.0679 -1.9042 -0.5388
   63MOL0     H 8271   5.009   0.716   8.092  0.4604 -0.5706  1.5484
   63MOL0     H 8272   4.846   0.975   8.128  0.9167 -0.0339  1.5922
   63MOL0     H 8273   4.776   0.821   8.164  2.7086 -2.4394  0.6717
   63MOL0     H 8274   4.884   0.894   7.888  1.6226 -0.7315  0.6676
   63MOL0     H 8275   4.814   0.738   7.926 -3.9363  0.7718 -2.7401
   63MOL0     H 8276   4.657   0.896   7.820 -1.9669 -2.3589  1.5275
   63MOL0     H 8277   4.671   1.010   7.955  4.8294  0.8771  3.2384
   63MOL0     H 8278   4.439   0.742   8.188 -2.1313  1.6757  1.8304
   63MOL0     H 8279   4.215   0.662   8.164 -1.5354 -0.0117 -0.2970
   63MOL0     H 8280   3.816   0.649   8.229  1.2068 -2.6393 -0.2572
   63MOL0     H 8281   3.583   0.598   8.197 -2.2606  0.9437 -1.5774
   63MOL0     H 8282   3.437   0.297   8.111  3.9315 -2.5666  0.0130
   63MOL0     H 8283   3.508   0.243   7.962 -1.0966  0.0391 -0.5046
   63MOL0     H 8284   3.329   0.342   7.821  0.3917 -0.2612 -0.8719
   63MOL0     H 8285   3.243   0.379   7.969  1.8975  1.8881 -1.3303
   63MOL0     H 8286   3.261   0.133   8.038  0.6012 -2.4917 -0.8213
   63MOL0     H 8287   3.323   0.110   7.867 -2.8498 -4.9566  0.5465
   63MOL0     H 8288   3.052   0.241   7.929  0.4114  1.4544 -0.6288
   63MOL0     H 8289   3.107   0.173   7.780 -2.2049 -6.0047 -0.2531
   63MOL0     H 8290   3.045   0.021   8.054  0.4043 -0.9077 -1.2927
   63MOL0     H 8291   3.109  -0.054   7.916 -0.9825 -1.9379  1.4811
   63MOL0     H 8292   2.872  -0.094   7.953 -1.5184 -1.4162 -1.9424
   63MOL0     H 8293   2.901  -0.026   7.794  0.1786  0.4730  0.3776
   63MOL0     H 8294   2.825   0.147   8.034 -0.0538  0.6723 -0.1474
   63MOL0     H 8295   2.825   0.201   7.869 -0.4069 -0.1084 -0.8884
   63MOL0     H 8296   2.599   0.134   7.948  2.9976  2.6640  0.7325
   63MOL0     H 8297   2.642  -0.033   7.964 -3.2380 -0.7503 -2.2929
   63MOL0     H 8298   3.667   0.429   7.808 -1.4835 -1.3872  1.0506
   63MOL0     H 8299   3.903   0.515   7.828 -1.8301 -0.3185 -1.6213
   63MOL0     H 8300   4.209   0.896   7.784 -0.6409 -0.7861 -1.4935
   63MOL0     H 8301   4.440   0.899   7.796  0.3789 -3.1281 -0.4493
   63MOL0     H 8302   6.199   1.350   7.577 -1.5291 -0.3832 -0.4270
   63MOL0     H 8303   6.428   1.272   7.509 -1.9333 -1.8462  1.6775
   63MOL0     H 8304   6.883   1.283   7.372 -3.2434 -0.9579  0.5564
   63MOL0     H 8305   7.070   1.160   7.282  1.4669  2.0316 -2.7796
   63MOL0     H 8306   7.198   1.185   7.107 -1.0110  2.2762  0.3571
   63MOL0     H 8307   7.141   1.248   6.946 -3.2640 -1.5023 -0.7574
   63MOL0     H 8308   7.248   1.050   6.834 -0.6091 -1.9260  0.3991
   63MOL0     H 8309   7.370   1.144   6.916 -2.0849  3.6475  0.8828
   63MOL0     H 8310   7.241   0.894   7.039 -1.2666  2.9624  2.0540
   63MOL0     H 8311   7.381   0.978   7.105 -0.1056  1.6903  0.5088
   63MOL0     H 8312   7.352   0.822   6.856 -0.8123  2.0658 -1.5165
   63MOL0     H 8313   7.495   0.926   6.879  1.2734 -1.5823  1.2766
   63MOL0     H 8314   7.617   0.600   7.108  2.9666 -0.4219 -2.1336
   63MOL0     H 8315   6.835   1.056   6.948  0.8623  0.1291 -0.4715
   63MOL0     H 8316   6.626   1.146   7.052 -1.1203  2.7434 -0.6523
   64MOL0     O 8317   5.351   2.702   6.137 -0.1486 -0.0151  0.4342
   64MOL0     C 8318   5.427   2.650   6.044  0.3408  0.0769 -0.0034
   64MOL0     O 8319   5.457   2.506   6.032  0.4010  0.4348  1.1076
   64MOL0     C 8320   5.393   2.418   6.111 -0.2353  1.2610  0.5573
   64MOL0     C 8321   5.253   2.408   6.095 -0.0940 -1.3841  0.8305
   64MOL0     C 8322   5.181   2.328   6.179 -0.1220 -0.0554 -0.0275
   64MOL0     C 8323   5.244   2.265   6.289 -0.9973 -0.2796  0.0346
   64MOL0     O 8324   5.156   2.196   6.366 -0.0939  0.9770  0.2951
   64MOL0     C 8325   5.216   2.154   6.496 -0.4747 -0.4758 -0.3815
   64MOL0     C 8326   5.115   2.076   6.571 -0.6415  0.1305 -0.1392
   64MOL0     C 8327   4.993   2.164   6.603  0.0534  0.2393  0.0200
   64MOL0     C 8328   4.906   2.093   6.704 -1.0605  0.0446 -0.1400
   64MOL0     C 8329   4.798   2.193   6.742  0.6076 -0.5276 -0.1221
   64MOL0     C 8330   4.685   2.136   6.830  0.0596  0.3769 -0.5656
   64MOL0     C 8331   4.549   2.194   6.794 -0.1345  0.9774 -0.6468
   64MOL0     C 8332   4.436   2.137   6.888 -0.2416  0.0619  0.9731
   64MOL0     N 8333   4.302   2.198   6.870  0.0964 -0.1344  1.2299
   64MOL0     C 8334   4.259   2.310   6.793 -0.6559 -0.0464 -0.4883
   64MOL0     C 8335   4.127   2.316   6.823 -1.0575  0.0843  0.2811
   64MOL0     C 8336   4.021   2.387   6.742  0.0922 -0.0524  0.0943
   64MOL0     C 8337   4.013   2.530   6.789  0.4984  0.8989 -0.6026
   64MOL0     C 8338   3.972   2.539   6.948  0.1342 -0.1168  0.2448
   64MOL0     C 8339   3.904   2.669   6.988  0.1578 -0.6665  0.1639
   64MOL0     O 8340   3.972   2.778   6.944  0.4264  0.0489  0.0978
   64MOL0     C 8341   4.098   2.799   6.985 -0.7121  0.1141  0.1058
   64MOL0     C 8342   4.192   2.851   6.893 -0.7304 -0.9170 -1.0398
   64MOL0     C 8343   4.326   2.883   6.938  0.2897 -0.1889  0.1266
   64MOL0     C 8344   4.370   2.849   7.067  0.8658  0.0820  0.8011
   64MOL0     C 8345   4.508   2.889   7.108  0.1175 -0.2720 -0.6657
   64MOL0     O 8346   4.593   2.930   7.014  0.1279 -0.4430 -0.6588
   64MOL0     C 8347   4.710   2.991   7.045 -0.9863  0.6099  0.1821
   64MOL0     C 8348   4.733   3.116   6.990  0.0399  0.5551  0.2474
   64MOL0     C 8349   4.859   3.170   7.012  0.5226  0.9149 -0.0707
   64MOL0     C 8350   4.958   3.101   7.086  0.3804 -0.3556 -0.2374
   64MOL0     O 8351   5.077   3.169   7.091 -0.4731 -0.0798 -0.0404
   64MOL0     C 8352   5.187   3.125   7.172  0.4177 -0.1699 -0.1427
   64MOL0     C 8353   5.265   3.249   7.207 -0.3911 -0.0238  0.2575
   64MOL0     C 8354   5.370   3.302   7.108 -0.8991 -0.8142 -0.4874
   64MOL0     C 8355   5.305   3.351   6.979  0.3586  0.7075 -0.5239
   64MOL0     C 8356   5.390   3.453   6.903  0.3744  0.6784  0.4143
   64MOL0     C 8357   5.521   3.386   6.835  0.7283  0.0810 -0.3809
   64MOL0     C 8358   5.614   3.480   6.768  1.2886 -0.7304  0.3425
   64MOL0     C 8359   5.733   3.411   6.701 -0.3704  0.9198 -0.4980
   64MOL0    Cl 8360   5.680   3.289   6.588  0.2399  0.3358  0.2902
   64MOL0     C 8361   4.933   2.970   7.132 -0.7936 -0.6131  0.0469
   64MOL0     C 8362   4.809   2.914   7.111  0.0461  0.1402 -0.6181
   64MOL0     O 8363   4.529   2.890   7.227  0.2387 -0.4383  0.1517
   64MOL0     C 8364   4.277   2.789   7.160  0.6017  1.3113  0.8630
   64MOL0     C 8365   4.142   2.762   7.111 -0.5121 -0.2343  0.4646
   64MOL0     N 8366   4.095   2.223   6.919 -0.5887 -0.2872 -0.2923
   64MOL0     N 8367   4.199   2.146   6.944 -0.6753 -0.2994  0.3682
   64MOL0     C 8368   5.381   2.270   6.307 -0.0048  0.4894 -0.5119
   64MOL0     C 8369   5.459   2.345   6.213  0.3999 -0.2165  0.0621
   64MOL0     C 8370   5.499   2.746   5.958  0.3692  0.5590  0.3450
   64MOL0     C 8371   5.577   2.701   5.850  0.9452  0.2183  0.3165
   64MOL0     C 8372   5.631   2.779   5.753  0.0777  0.1404 -0.3075
   64MOL0     C 8373   5.603   2.915   5.768  0.2279  0.7377  1.5682
   64MOL0     O 8374   5.644   3.010   5.673  0.2643  0.2134  0.0927
   64MOL0     C 8375   5.657   2.954   5.546 -0.6642 -0.7490  0.4232
   64MOL0     C 8376   5.807   2.940   5.494  0.3531  0.7449 -0.7781
   64MOL0     C 8377   5.821   2.859   5.368  0.2969  0.4218 -0.3114
   64MOL0     C 8378   5.827   2.931   5.234 -0.9534 -0.0878 -0.3693
   64MOL0     C 8379   5.964   3.001   5.237  0.8693 -0.0402 -0.2977
   64MOL0     C 8380   6.065   3.073   5.242 -0.5427  0.3094  0.4074
   64MOL0     C 8381   5.530   2.968   5.871  0.1454 -0.7131  0.1517
   64MOL0     C 8382   5.480   2.887   5.973 -0.1030  0.4883 -0.0560
   64MOL0     H 8383   5.201   2.453   6.011  2.6378  1.3623  0.4020
   64MOL0     H 8384   5.074   2.322   6.162 -0.0283 -4.1573 -0.2335
   64MOL0     H 8385   5.243   2.241   6.556 -0.2212 -1.1723  0.5365
   64MOL0     H 8386   5.309   2.096   6.489 -0.0892  0.0899  0.0388
   64MOL0     H 8387   5.156   2.037   6.665 -1.1572 -1.1794 -0.4323
   64MOL0     H 8388   5.086   1.994   6.505 -0.4145 -0.8175  0.9178
   64MOL0     H 8389   4.932   2.175   6.513 -1.3228 -2.3525  0.5336
   64MOL0     H 8390   5.024   2.266   6.626 -1.7962  1.8538 -3.8109
   64MOL0     H 8391   4.872   1.997   6.664  0.3335 -0.2679 -0.6592
   64MOL0     H 8392   4.966   2.061   6.790  1.0742 -1.9508 -2.1900
   64MOL0     H 8393   4.756   2.214   6.644  4.6201  1.3458 -1.6655
   64MOL0     H 8394   4.822   2.291   6.784 -1.3179  0.6083 -1.5616
   64MOL0     H 8395   4.711   2.148   6.935  0.4286 -1.1581 -0.4503
   64MOL0     H 8396   4.690   2.027   6.818 -0.7136  0.1230  1.1437
   64MOL0     H 8397   4.550   2.301   6.818  1.2311  0.4833  1.9716
   64MOL0     H 8398   4.532   2.182   6.687 -0.6355  2.1532 -0.7160
   64MOL0     H 8399   4.462   2.146   6.994 -0.1612  0.1297  0.9487
   64MOL0     H 8400   4.432   2.031   6.865  1.8373 -0.0677  1.0308
   64MOL0     H 8401   4.308   2.376   6.722 -0.8736  0.6892  0.0353
   64MOL0     H 8402   3.926   2.334   6.745 -0.2480  0.2711 -2.5499
   64MOL0     H 8403   4.042   2.386   6.634 -1.3368  0.0768 -0.2005
   64MOL0     H 8404   3.935   2.580   6.731 -0.2599  4.6094  3.1191
   64MOL0     H 8405   4.108   2.578   6.767  0.9117 -0.2423 -1.4031
   64MOL0     H 8406   3.904   2.455   6.962 -1.8370  0.9782 -2.0307
   64MOL0     H 8407   4.064   2.524   7.005  0.4406  0.9105  0.0406
   64MOL0     H 8408   3.900   2.665   7.097  0.5618  0.1338  0.2072
   64MOL0     H 8409   3.799   2.667   6.957 -1.5762 -0.1786  5.1165
   64MOL0     H 8410   4.162   2.893   6.798  1.5499  1.0993 -0.9676
   64MOL0     H 8411   4.386   2.930   6.860 -2.7266 -0.0011 -2.3086
   64MOL0     H 8412   4.659   3.170   6.931 -1.3917 -2.7409 -1.2330
   64MOL0     H 8413   4.893   3.268   6.978  1.3601  0.8899  0.6498
   64MOL0     H 8414   5.243   3.047   7.118  3.7439  0.0536  2.6328
   64MOL0     H 8415   5.145   3.088   7.265 -3.4033 -1.5724 -2.2083
   64MOL0     H 8416   5.320   3.227   7.298  1.9536 -0.1059 -1.1044
   64MOL0     H 8417   5.204   3.331   7.246  2.8170  1.8217  1.8024
   64MOL0     H 8418   5.459   3.241   7.088  0.2566  0.6229  0.0697
   64MOL0     H 8419   5.416   3.382   7.167 -0.6039 -2.1292  1.1587
   64MOL0     H 8420   5.279   3.264   6.918  0.7813 -0.8777  1.4661
   64MOL0     H 8421   5.215   3.405   7.010  0.0295  0.1833 -0.5560
   64MOL0     H 8422   5.405   3.541   6.968 -1.0392  0.0962  1.5952
   64MOL0     H 8423   5.332   3.484   6.816  0.8918  0.2523 -0.0839
   64MOL0     H 8424   5.484   3.302   6.776 -0.8399 -0.1888  0.9283
   64MOL0     H 8425   5.578   3.344   6.919 -0.5895  2.7131  2.0010
   64MOL0     H 8426   5.560   3.530   6.688 -0.2349 -0.7767  1.2995
   64MOL0     H 8427   5.647   3.556   6.839  2.7654 -1.4336  0.4552
   64MOL0     H 8428   5.792   3.359   6.778 -3.5269 -1.1699  0.7290
   64MOL0     H 8429   5.796   3.492   6.665  1.5316  1.0194  2.6438
   64MOL0     H 8430   5.014   2.915   7.179 -0.7766 -2.4371 -1.9499
   64MOL0     H 8431   4.792   2.810   7.135 -0.1859  0.7654  2.3480
   64MOL0     H 8432   4.313   2.759   7.258 -1.2801 -2.5239  0.5415
   64MOL0     H 8433   4.064   2.725   7.177 -1.9339  0.4062 -0.7846
   64MOL0     H 8434   5.438   2.233   6.392 -1.5970 -0.5619  0.1439
   64MOL0     H 8435   5.565   2.362   6.229  0.2957 -0.1425  0.7003
   64MOL0     H 8436   5.600   2.596   5.835  2.3391  0.3409  1.3913
   64MOL0     H 8437   5.687   2.733   5.672  2.4673  0.8035  0.8736
   64MOL0     H 8438   5.625   3.035   5.481 -0.8971 -1.4572 -0.3596
   64MOL0     H 8439   5.594   2.867   5.527 -0.7106 -0.4858 -0.7022
   64MOL0     H 8440   5.852   3.039   5.481  0.5150  0.5632 -1.6800
   64MOL0     H 8441   5.862   2.888   5.573 -1.1347  0.8393  0.3551
   64MOL0     H 8442   5.743   2.782   5.367 -0.3652  1.0519 -2.6632
   64MOL0     H 8443   5.919   2.815   5.387 -0.1247 -1.0083 -1.2832
   64MOL0     H 8444   5.822   2.870   5.143 -2.5223  0.3194 -0.5944
   64MOL0     H 8445   5.737   2.992   5.221 -1.7647 -1.4420 -1.4271
   64MOL0     H 8446   6.163   3.116   5.253 -0.5266  0.2261  0.5979
   64MOL0     H 8447   5.507   3.072   5.889 -1.2775 -1.2207  1.4490
   64MOL0     H 8448   5.420   2.925   6.056 -1.2300  1.3560 -1.2202
   65MOL0     O 8449   5.837   1.575   4.241  0.6214  0.2079  0.5282
   65MOL0     C 8450   5.883   1.521   4.142  0.4832 -0.4834 -0.1560
   65MOL0     O 8451   5.822   1.439   4.055  0.4809 -0.8180 -0.0404
   65MOL0     C 8452   5.685   1.443   4.067  0.2455 -0.2253  0.2092
   65MOL0     C 8453   5.617   1.324   4.043 -0.0037 -0.5117  0.1914
   65MOL0     C 8454   5.475   1.325   4.048 -0.1537 -0.2275 -0.2407
   65MOL0     C 8455   5.401   1.435   4.051 -0.2726 -0.2674  0.7041
   65MOL0     O 8456   5.269   1.413   4.040 -0.2053 -1.3543  0.4799
   65MOL0     C 8457   5.187   1.509   3.974 -0.0067  0.3712 -0.4815
   65MOL0     C 8458   5.051   1.461   3.949  0.4155  0.1216  0.1868
   65MOL0     C 8459   4.967   1.545   3.854 -0.6332 -0.4737 -0.0824
   65MOL0     C 8460   5.041   1.612   3.727 -0.7245 -0.6014 -0.3647
   65MOL0     C 8461   4.960   1.693   3.633  0.0655 -0.5338 -0.1123
   65MOL0     C 8462   4.878   1.603   3.548  0.3915 -0.5263  0.1170
   65MOL0     C 8463   4.820   1.673   3.422  0.1012  0.8407  1.7177
   65MOL0     C 8464   4.762   1.579   3.319 -0.6241 -0.0409  0.0078
   65MOL0     N 8465   4.647   1.501   3.361 -0.0575 -0.1228 -0.0384
   65MOL0     C 8466   4.516   1.520   3.329 -0.2015  0.4656 -0.3699
   65MOL0     C 8467   4.447   1.437   3.417 -0.9557 -0.4943 -0.0092
   65MOL0     C 8468   4.302   1.427   3.447  0.0664 -0.1522 -0.1395
   65MOL0     C 8469   4.219   1.556   3.440 -0.1789 -0.3638  0.0379
   65MOL0     C 8470   4.075   1.528   3.476  0.6129 -0.0856 -0.9749
   65MOL0     C 8471   3.979   1.644   3.468  0.3820 -0.7375  0.1427
   65MOL0     O 8472   3.980   1.704   3.336 -0.1196  0.2708 -0.0962
   65MOL0     C 8473   3.882   1.794   3.298  0.1366 -0.1485 -0.0806
   65MOL0     C 8474   3.799   1.871   3.386 -0.3810  0.6342 -0.2905
   65MOL0     C 8475   3.692   1.944   3.340 -0.5017  0.0281 -0.9310
   65MOL0     C 8476   3.665   1.950   3.203 -0.2381  0.9660 -0.2085
   65MOL0     C 8477   3.540   2.006   3.146 -0.5231 -0.2093 -0.0235
   65MOL0     O 8478   3.523   1.993   3.014  0.8376 -0.0498 -0.4888
   65MOL0     C 8479   3.395   2.015   2.960  0.3138 -0.1390  0.5874
   65MOL0     C 8480   3.275   1.976   3.025  0.2801 -0.1970  0.7165
   65MOL0     C 8481   3.153   1.976   2.953 -0.1812 -0.2409 -0.0211
   65MOL0     C 8482   3.155   2.015   2.820  0.2714  0.2706 -0.0831
   65MOL0     O 8483   3.030   2.033   2.764 -0.2515 -0.2355 -0.5452
   65MOL0     C 8484   3.011   2.147   2.673 -0.3883  0.4186 -0.9164
   65MOL0     C 8485   2.886   2.122   2.598  0.7092  0.1598  0.8570
   65MOL0     C 8486   2.758   2.120   2.689 -1.1943  0.6110 -0.7683
   65MOL0     C 8487   2.637   2.109   2.604  0.3729 -0.2812  0.3148
   65MOL0     C 8488   2.502   2.127   2.667  0.5462 -0.1157 -0.0136
   65MOL0     C 8489   2.374   2.114   2.577 -0.2445 -0.3147 -0.9130
   65MOL0     C 8490   2.254   2.113   2.677  0.2212 -0.9083  0.0483
   65MOL0     C 8491   2.187   1.974   2.680 -0.0611  0.8625 -0.4674
   65MOL0    Cl 8492   2.299   1.843   2.738 -0.1659  0.4458  0.0005
   65MOL0     C 8493   3.275   2.047   2.760 -0.5401  0.1418  0.1761
   65MOL0     C 8494   3.394   2.041   2.830 -0.2261  0.2274  0.1560
   65MOL0     O 8495   3.460   2.063   3.220  0.1879  0.0199  0.0057
   65MOL0     C 8496   3.758   1.899   3.118  0.0848  0.5035 -1.2043
   65MOL0     C 8497   3.867   1.822   3.166  0.5123  0.4475  0.0910
   65MOL0     N 8498   4.543   1.372   3.493  0.1482 -0.0719  0.8875
   65MOL0     N 8499   4.653   1.414   3.462  0.1823  0.3450 -0.1335
   65MOL0     C 8500   5.469   1.559   4.065 -0.5849  0.3883 -0.8172
   65MOL0     C 8501   5.610   1.560   4.076 -0.2823 -0.5013 -0.2006
   65MOL0     C 8502   6.028   1.541   4.127  0.8661  0.5156 -0.2304
   65MOL0     C 8503   6.103   1.614   4.220  0.8098 -0.2327 -0.1347
   65MOL0     C 8504   6.239   1.638   4.200 -0.2227  1.0406 -0.4510
   65MOL0     C 8505   6.304   1.611   4.079 -0.4817  0.5059 -0.2982
   65MOL0     O 8506   6.439   1.632   4.069  0.2172  0.1936  0.1058
   65MOL0     C 8507   6.510   1.604   3.948 -0.0745 -0.7069 -0.0089
   65MOL0     C 8508   6.657   1.660   3.967 -0.2093  1.0659  0.1133
   65MOL0     C 8509   6.749   1.568   4.043  0.0952 -1.0050 -0.0529
   65MOL0     C 8510   6.890   1.622   4.045  0.0071  0.8550  0.4951
   65MOL0     C 8511   6.922   1.734   4.138  0.3521 -0.3117  0.4168
   65MOL0     C 8512   6.943   1.814   4.229 -0.6316 -0.1807 -0.4492
   65MOL0     C 8513   6.225   1.554   3.977 -0.3741  0.3182 -0.1441
   65MOL0     C 8514   6.088   1.515   4.006  1.4747 -0.9310 -0.9034
   65MOL0     H 8515   5.667   1.228   4.034  1.6116  0.4755 -2.7501
   65MOL0     H 8516   5.426   1.228   4.041 -2.7530  0.9146  0.8047
   65MOL0     H 8517   5.234   1.533   3.878 -0.3412  0.2755 -0.6685
   65MOL0     H 8518   5.183   1.600   4.036  5.0690 -0.1306  1.0840
   65MOL0     H 8519   4.987   1.450   4.036 -1.2564  1.9133 -0.7472
   65MOL0     H 8520   5.058   1.368   3.892 -1.7722  0.1589 -0.2306
   65MOL0     H 8521   4.927   1.628   3.912 -0.1251 -1.0051  1.0556
   65MOL0     H 8522   4.886   1.482   3.816 -1.7826 -1.2129  3.2959
   65MOL0     H 8523   5.118   1.687   3.751 -0.9906  0.8000 -3.3852
   65MOL0     H 8524   5.096   1.531   3.679 -0.7117 -1.4900  1.0790
   65MOL0     H 8525   5.022   1.758   3.571  2.1515 -1.3535  1.0245
   65MOL0     H 8526   4.885   1.753   3.685 -3.2822 -2.2399 -2.5262
   65MOL0     H 8527   4.783   1.572   3.592 -0.3015 -0.1108 -1.0281
   65MOL0     H 8528   4.943   1.519   3.520  2.2141  0.8546  0.0067
   65MOL0     H 8529   4.745   1.748   3.448  0.7010  3.5085 -3.0345
   65MOL0     H 8530   4.908   1.727   3.387  0.5675  0.7172  2.6865
   65MOL0     H 8531   4.830   1.506   3.274 -1.9123 -1.4059  0.1735
   65MOL0     H 8532   4.734   1.631   3.227 -0.9184 -2.1989 -1.2041
   65MOL0     H 8533   4.470   1.603   3.276 -0.6844 -0.9893 -2.3171
   65MOL0     H 8534   4.294   1.375   3.543 -0.4760 -1.1754 -0.7241
   65MOL0     H 8535   4.259   1.360   3.372 -1.8406  3.4340 -2.5588
   65MOL0     H 8536   4.224   1.610   3.345 -1.7676 -1.2511 -0.5895
   65MOL0     H 8537   4.272   1.625   3.506  2.8461 -2.7696  0.3834
   65MOL0     H 8538   4.035   1.452   3.408  0.1434 -1.1525  0.4432
   65MOL0     H 8539   4.068   1.483   3.575 -1.0319  0.2555 -0.9004
   65MOL0     H 8540   4.005   1.724   3.538 -2.3341  0.0725  0.3689
   65MOL0     H 8541   3.876   1.616   3.492 -0.4384  0.6018 -1.6362
   65MOL0     H 8542   3.813   1.847   3.491 -1.2159  0.5326 -0.2017
   65MOL0     H 8543   3.622   2.000   3.401  0.9000  0.4659  0.3471
   65MOL0     H 8544   3.272   1.945   3.129  0.3761 -0.7984  0.5402
   65MOL0     H 8545   3.065   1.949   3.011 -0.2474 -1.4918 -0.6626
   65MOL0     H 8546   3.091   2.163   2.601  0.5463  2.1851  0.4125
   65MOL0     H 8547   2.983   2.230   2.739 -2.2129  0.0953 -1.2274
   65MOL0     H 8548   2.878   2.022   2.556 -1.2602  1.2892 -1.6619
   65MOL0     H 8549   2.881   2.201   2.523 -2.0142  0.3338  1.1435
   65MOL0     H 8550   2.749   2.204   2.758  0.1687 -0.8086  1.2592
   65MOL0     H 8551   2.764   2.029   2.750  0.5591  0.0999 -1.6343
   65MOL0     H 8552   2.632   2.181   2.522 -3.0576 -0.7151 -0.0053
   65MOL0     H 8553   2.629   2.005   2.571 -1.2909  0.4654 -1.8247
   65MOL0     H 8554   2.496   2.223   2.719  0.2823  0.3232 -0.8503
   65MOL0     H 8555   2.487   2.053   2.746 -2.9994  0.3934 -0.0523
   65MOL0     H 8556   2.375   2.027   2.510  0.7102  0.5195 -2.0163
   65MOL0     H 8557   2.361   2.203   2.516  1.3624  0.6414  0.0543
   65MOL0     H 8558   2.290   2.138   2.777  4.8629 -1.0720 -1.3353
   65MOL0     H 8559   2.185   2.191   2.645  1.0615  0.4181  1.3124
   65MOL0     H 8560   2.145   1.943   2.584 -1.4085 -0.7796  0.5884
   65MOL0     H 8561   2.100   1.990   2.744 -1.1175  3.4192 -2.3576
   65MOL0     H 8562   3.271   2.080   2.657 -0.4546  0.5287  0.2956
   65MOL0     H 8563   3.488   2.064   2.782  0.0528  1.6779  1.3184
   65MOL0     H 8564   3.752   1.909   3.010  3.1037  1.8649 -1.3437
   65MOL0     H 8565   3.943   1.775   3.104  0.4184 -1.1176  1.1076
   65MOL0     H 8566   5.406   1.646   4.073 -0.5964  0.5140 -2.0308
   65MOL0     H 8567   5.662   1.654   4.084 -3.2235  1.1016  2.0236
   65MOL0     H 8568   6.061   1.636   4.317 -0.3280 -1.3392 -0.3433
   65MOL0     H 8569   6.306   1.685   4.271  2.2771 -1.5423 -0.9081
   65MOL0     H 8570   6.460   1.654   3.864  1.7270 -0.0218 -0.7320
   65MOL0     H 8571   6.512   1.499   3.919 -0.0650 -0.4473 -0.9855
   65MOL0     H 8572   6.703   1.683   3.870  0.5818  2.0083  0.6885
   65MOL0     H 8573   6.658   1.758   4.015  2.3117  0.9417  0.4521
   65MOL0     H 8574   6.746   1.469   3.996  3.2164 -0.8286 -0.8521
   65MOL0     H 8575   6.726   1.551   4.149  1.2381 -1.6984  0.1058
   65MOL0     H 8576   6.952   1.537   4.073 -0.6914  0.9778  2.5965
   65MOL0     H 8577   6.915   1.658   3.945  2.4306 -0.2367  0.6345
   65MOL0     H 8578   6.957   1.883   4.309 -1.6723  1.2313 -1.4323
   65MOL0     H 8579   6.272   1.529   3.882 -3.0924 -1.2860 -1.1768
   65MOL0     H 8580   6.028   1.480   3.923 -1.9789 -0.2100  1.0833
   66MOL0     O 8581   1.476   8.917   5.134  0.5122  0.2652  0.7275
   66MOL0     C 8582   1.521   8.990   5.041  0.0971  0.2469  0.0951
   66MOL0     O 8583   1.450   9.048   4.937  0.4688 -0.1033 -0.2299
   66MOL0     C 8584   1.317   9.013   4.920  0.7508  0.1751 -0.1976
   66MOL0     C 8585   1.223   9.111   4.884  0.3009 -0.9940 -0.3843
   66MOL0     C 8586   1.088   9.074   4.867 -0.7708 -0.5069 -0.4629
   66MOL0     C 8587   1.041   8.952   4.898 -0.8095  0.8620 -0.3458
   66MOL0     O 8588   0.903   8.928   4.878 -0.2062  0.3301  0.9020
   66MOL0     C 8589   0.823   8.968   4.982 -0.4893 -0.0993 -0.8202
   66MOL0     C 8590   0.683   8.926   4.947  0.0815  0.3443  0.9210
   66MOL0     C 8591   0.576   8.981   5.044  0.1168  0.8880  0.2775
   66MOL0     C 8592   0.429   8.950   5.017  0.1935  0.0048 -0.0371
   66MOL0     C 8593   0.316   9.006   5.110 -0.2273  0.4944 -0.4819
   66MOL0     C 8594   0.308   9.155   5.105 -0.2223 -0.3569 -0.0163
   66MOL0     C 8595   0.197   9.231   5.191 -0.9794  0.2235  0.4484
   66MOL0     C 8596   0.063   9.194   5.133 -1.1848  0.5048 -0.2953
   66MOL0     N 8597  -0.038   9.286   5.191 -0.5507  0.4829 -0.5480
   66MOL0     C 8598  -0.047   9.424   5.164  0.2043  0.0751  0.0090
   66MOL0     C 8599  -0.154   9.460   5.233 -0.2861 -0.1756 -0.0197
   66MOL0     C 8600  -0.226   9.598   5.232 -1.2185  0.6081 -1.1125
   66MOL0     C 8601  -0.122   9.713   5.243 -0.6449  0.0645  0.9377
   66MOL0     C 8602  -0.197   9.846   5.276  0.3877  0.2293  0.1766
   66MOL0     C 8603  -0.118   9.969   5.229  0.9021  0.0867  0.1274
   66MOL0     O 8604   0.025   9.978   5.245 -0.1493  0.0095 -0.1519
   66MOL0     C 8605   0.068  10.092   5.186 -0.2889  1.8780  0.3602
   66MOL0     C 8606   0.166  10.077   5.095  0.1592 -0.6251  0.2672
   66MOL0     C 8607   0.216  10.185   5.011 -0.3902 -0.3411 -0.3531
   66MOL0     C 8608   0.175  10.315   5.043 -0.6581  0.4490 -0.0377
   66MOL0     C 8609   0.238  10.432   4.973  0.3915  0.3086  1.5765
   66MOL0     O 8610   0.208  10.551   5.035  0.2621 -0.1478 -0.0215
   66MOL0     C 8611   0.229  10.670   4.976  0.6155  0.8189  0.4884
   66MOL0     C 8612   0.350  10.725   4.969 -0.5170  0.7928 -0.4066
   66MOL0     C 8613   0.368  10.859   4.927 -0.0454 -0.2418 -0.6280
   66MOL0     C 8614   0.260  10.933   4.875 -0.0460 -0.6697 -0.5449
   66MOL0     O 8615   0.281  11.061   4.829  0.4465 -0.1995  0.2730
   66MOL0     C 8616   0.384  11.067   4.728 -0.2969  0.2378  0.5305
   66MOL0     C 8617   0.394  11.215   4.691  0.7102 -0.0324 -1.1588
   66MOL0     C 8618   0.521  11.250   4.616  0.6454 -0.0252  0.3409
   66MOL0     C 8619   0.551  11.397   4.576  0.3201 -0.3779  0.1635
   66MOL0     C 8620   0.699  11.440   4.549 -0.4092  0.5458 -0.0388
   66MOL0     C 8621   0.794  11.422   4.667 -0.2225  0.7080 -0.0215
   66MOL0     C 8622   0.923  11.501   4.641  0.3746  0.6954  0.1363
   66MOL0     C 8623   1.028  11.482   4.759 -0.3890  0.2057  0.0829
   66MOL0    Cl 8624   1.144  11.341   4.719  0.1330 -0.6346  0.0386
   66MOL0     C 8625   0.136  10.863   4.868  0.5795  0.8014  0.2111
   66MOL0     C 8626   0.121  10.734   4.925  0.8377  0.1277 -0.0260
   66MOL0     O 8627   0.308  10.422   4.872 -0.0405 -0.0398  0.1501
   66MOL0     C 8628   0.077  10.331   5.145  0.2248 -0.0425 -1.1699
   66MOL0     C 8629   0.021  10.220   5.208 -0.3534  0.7659 -0.2472
   66MOL0     N 8630  -0.193   9.349   5.308  0.5177  0.5744  0.0306
   66MOL0     N 8631  -0.121   9.245   5.287 -0.1194 -0.0217 -0.2192
   66MOL0     C 8632   1.136   8.851   4.913  0.3545 -0.1175  0.4654
   66MOL0     C 8633   1.278   8.880   4.925  0.0783  0.3994  1.0886
   66MOL0     C 8634   1.672   9.014   5.061 -0.5872  0.1044  0.6735
   66MOL0     C 8635   1.730   9.000   5.181 -0.1212 -0.4535 -1.3408
   66MOL0     C 8636   1.861   9.048   5.207  0.1039  0.0910 -0.0596
   66MOL0     C 8637   1.934   9.099   5.099  0.6660 -0.6788 -1.4716
   66MOL0     O 8638   2.056   9.144   5.107 -0.1700  0.0122  0.5931
   66MOL0     C 8639   2.132   9.149   5.230 -0.6894 -0.3144  0.1122
   66MOL0     C 8640   2.279   9.195   5.199  0.0541 -0.1066 -0.5116
   66MOL0     C 8641   2.290   9.345   5.151  1.1743 -0.4864  0.3130
   66MOL0     C 8642   2.426   9.415   5.120 -0.1637 -0.2244 -0.3394
   66MOL0     C 8643   2.522   9.322   5.046 -0.2856 -0.3099 -0.5329
   66MOL0     C 8644   2.598   9.241   4.999 -0.4655 -0.6629  0.3186
   66MOL0     C 8645   1.875   9.094   4.974  0.4260 -0.1073 -0.8150
   66MOL0     C 8646   1.742   9.064   4.951 -0.2968 -0.3084 -0.6632
   66MOL0     H 8647   1.245   9.216   4.868  0.1810 -1.1282 -1.5121
   66MOL0     H 8648   1.023   9.150   4.825 -2.3395  0.1588  2.8484
   66MOL0     H 8649   0.822   9.078   4.977 -2.5494 -0.0318 -0.0742
   66MOL0     H 8650   0.852   8.930   5.080  1.1646 -1.5665 -1.8227
   66MOL0     H 8651   0.661   8.819   4.946 -1.9761  0.7110 -0.6522
   66MOL0     H 8652   0.673   8.963   4.844  0.8338 -0.4961  0.5352
   66MOL0     H 8653   0.593   9.087   5.065 -5.5779  1.9745  1.1732
   66MOL0     H 8654   0.587   8.946   5.147 -2.0184  1.2556  0.6951
   66MOL0     H 8655   0.394   8.965   4.914  2.4951 -2.3657 -1.2639
   66MOL0     H 8656   0.418   8.842   5.027  1.6268 -0.5439 -3.2202
   66MOL0     H 8657   0.344   8.974   5.211  1.6771 -1.1332 -1.4531
   66MOL0     H 8658   0.216   8.969   5.087 -0.4078 -0.7179  1.9126
   66MOL0     H 8659   0.286   9.170   4.999 -1.9471 -3.6743 -0.2351
   66MOL0     H 8660   0.410   9.196   5.112 -0.0283 -0.5038 -1.6237
   66MOL0     H 8661   0.197   9.203   5.297 -1.2501 -3.4712 -0.3906
   66MOL0     H 8662   0.219   9.336   5.173  0.8097 -0.1467  0.2964
   66MOL0     H 8663   0.037   9.093   5.167 -2.5943  1.4194  1.5603
   66MOL0     H 8664   0.060   9.198   5.024 -1.3976  2.5531 -0.2541
   66MOL0     H 8665   0.006   9.482   5.090 -1.2320  1.5210  0.0612
   66MOL0     H 8666  -0.293   9.601   5.318 -2.5663  3.0409 -2.1187
   66MOL0     H 8667  -0.276   9.594   5.134  0.3495  0.4378 -1.9321
   66MOL0     H 8668  -0.056   9.734   5.158 -0.8831  0.9307  0.9554
   66MOL0     H 8669  -0.057   9.696   5.330  1.8080  3.4112  0.0008
   66MOL0     H 8670  -0.298   9.836   5.236  0.2412  2.6401 -0.1801
   66MOL0     H 8671  -0.209   9.856   5.384  0.4566 -2.6959  0.5382
   66MOL0     H 8672  -0.164  10.047   5.289  0.1857 -1.4442  1.6541
   66MOL0     H 8673  -0.135   9.988   5.123  0.0814 -0.8371  0.0759
   66MOL0     H 8674   0.219   9.983   5.079  0.7633  0.1422 -3.0971
   66MOL0     H 8675   0.293  10.169   4.937 -1.2313  1.9808 -1.8504
   66MOL0     H 8676   0.432  10.663   5.005  0.6798  2.9086  0.6803
   66MOL0     H 8677   0.458  10.919   4.937 -2.4565  3.7865 -1.3248
   66MOL0     H 8678   0.377  11.006   4.637  4.6183 -0.8505  0.6009
   66MOL0     H 8679   0.483  11.040   4.766  1.2828  0.5643 -2.9274
   66MOL0     H 8680   0.390  11.276   4.782  0.7714  1.1570 -1.9312
   66MOL0     H 8681   0.308  11.246   4.630  1.1146  0.4359 -1.5045
   66MOL0     H 8682   0.536  11.189   4.526  1.6979  0.3554  0.2431
   66MOL0     H 8683   0.603  11.221   4.683 -0.1305  0.9774  1.7705
   66MOL0     H 8684   0.497  11.422   4.483  3.5836 -1.9878 -2.3589
   66MOL0     H 8685   0.518  11.448   4.666  1.3913  0.7395 -0.0610
   66MOL0     H 8686   0.685  11.548   4.539  1.0104  0.9979  2.1490
   66MOL0     H 8687   0.725  11.387   4.458 -3.6667 -0.9907 -0.2398
   66MOL0     H 8688   0.813  11.317   4.689 -0.7932  0.4482 -0.6991
   66MOL0     H 8689   0.742  11.460   4.755 -2.6299 -1.5028 -0.3737
   66MOL0     H 8690   0.967  11.472   4.545 -3.2128  0.5642 -1.6162
   66MOL0     H 8691   0.889  11.605   4.635 -1.0399  0.1839 -2.7045
   66MOL0     H 8692   0.983  11.467   4.858 -1.8699  0.1925 -0.5686
   66MOL0     H 8693   1.090  11.572   4.758  1.7138 -1.1343  1.3225
   66MOL0     H 8694   0.055  10.907   4.812 -0.4036 -0.6306  0.4596
   66MOL0     H 8695   0.023  10.688   4.926  0.7713  0.2542  1.5389
   66MOL0     H 8696   0.045  10.429   5.179  3.9587  0.4511  1.5585
   66MOL0     H 8697  -0.050  10.235   5.289 -0.1764 -2.2414  0.6003
   66MOL0     H 8698   1.099   8.750   4.903 -0.1701  0.1228 -0.0751
   66MOL0     H 8699   1.357   8.806   4.937 -1.3165 -1.5920 -1.0037
   66MOL0     H 8700   1.682   8.952   5.265  0.0355  0.4462 -0.7165
   66MOL0     H 8701   1.901   9.030   5.307 -1.3345 -2.5173  0.1289
   66MOL0     H 8702   2.143   9.060   5.292  2.1560  0.7647  1.3116
   66MOL0     H 8703   2.081   9.209   5.305 -2.5250 -3.5152  1.6329
   66MOL0     H 8704   2.341   9.178   5.287  1.2252  0.6593 -1.1640
   66MOL0     H 8705   2.313   9.133   5.116  0.5726 -0.7186  0.1500
   66MOL0     H 8706   2.232   9.403   5.224 -0.3223 -0.7883 -0.6111
   66MOL0     H 8707   2.232   9.359   5.060  2.1011 -1.4097 -0.4348
   66MOL0     H 8708   2.413   9.507   5.063  1.8465  0.5010  0.2898
   66MOL0     H 8709   2.480   9.456   5.206  1.2319  2.3056 -2.3026
   66MOL0     H 8710   2.661   9.174   4.944 -2.5173 -0.3833 -2.5815
   66MOL0     H 8711   1.940   9.110   4.889 -0.5216 -1.4052 -1.8127
   66MOL0     H 8712   1.688   9.064   4.857 -0.4625  2.1161 -0.6207
   67MOL0     O 8713   1.286   9.188   6.724 -1.0110 -0.8257 -0.1908
   67MOL0     C 8714   1.342   9.208   6.611 -0.3843  0.9548 -0.5901
   67MOL0     O 8715   1.290   9.186   6.490  0.4810  0.1093 -0.2526
   67MOL0     C 8716   1.170   9.124   6.461 -0.2788  0.2768  0.7781
   67MOL0     C 8717   1.150   9.084   6.326  0.0515  0.1121 -0.2279
   67MOL0     C 8718   1.028   9.032   6.286 -0.1135  0.3823  0.3342
   67MOL0     C 8719   0.925   9.000   6.377 -0.7382 -0.3579 -0.4424
   67MOL0     O 8720   0.811   8.948   6.328  0.2610 -0.7581  0.7335
   67MOL0     C 8721   0.685   8.987   6.389 -0.4625  1.1469 -0.1201
   67MOL0     C 8722   0.558   8.947   6.297 -0.5484 -0.1579 -0.6517
   67MOL0     C 8723   0.439   8.997   6.367  0.1796 -0.2851 -0.3362
   67MOL0     C 8724   0.312   8.956   6.290  0.6412 -0.2573 -0.3932
   67MOL0     C 8725   0.181   9.024   6.334 -0.2542  1.0037 -0.1717
   67MOL0     C 8726   0.119   8.944   6.447 -0.1692  0.3164  0.4017
   67MOL0     C 8727  -0.007   9.017   6.491  0.1532 -0.8166  0.1251
   67MOL0     C 8728  -0.070   8.967   6.623 -0.8628 -0.1550 -0.3533
   67MOL0     N 8729  -0.165   9.053   6.687 -0.1172  0.4584  0.7544
   67MOL0     C 8730  -0.151   9.106   6.815  0.7152 -0.0363  0.0681
   67MOL0     C 8731  -0.279   9.158   6.844 -0.5612  1.3796  0.0059
   67MOL0     C 8732  -0.330   9.203   6.976  0.5618  0.1075 -0.4591
   67MOL0     C 8733  -0.464   9.151   7.005 -0.1450  0.3349  0.1272
   67MOL0     C 8734  -0.488   9.170   7.157  0.3260 -0.3585 -0.1743
   67MOL0     C 8735  -0.636   9.169   7.190 -0.4533 -0.0141  0.0093
   67MOL0     O 8736  -0.650   9.214   7.324 -0.3029  0.6005 -0.0069
   67MOL0     C 8737  -0.770   9.219   7.382  0.3337  0.1734  0.1635
   67MOL0     C 8738  -0.896   9.184   7.319 -0.2329 -0.3679 -0.0450
   67MOL0     C 8739  -1.019   9.195   7.391 -0.5489 -0.7766  0.2704
   67MOL0     C 8740  -1.016   9.220   7.527  0.9274 -0.2716  0.0644
   67MOL0     C 8741  -1.147   9.229   7.598 -0.4381  0.6942  0.0304
   67MOL0     O 8742  -1.141   9.289   7.721  0.1524  0.9096  0.7515
   67MOL0     C 8743  -1.243   9.370   7.755 -0.1902 -0.1081  0.5060
   67MOL0     C 8744  -1.295   9.364   7.884 -0.0702  1.2071  0.6870
   67MOL0     C 8745  -1.422   9.423   7.922  0.6666 -1.0132  0.2910
   67MOL0     C 8746  -1.484   9.512   7.830 -0.7171  0.7308  0.3045
   67MOL0     O 8747  -1.594   9.583   7.876 -0.5995 -0.5276  0.0244
   67MOL0     C 8748  -1.687   9.630   7.778  0.4975  0.6755  0.3036
   67MOL0     C 8749  -1.644   9.771   7.746 -0.2040  0.2532  0.8124
   67MOL0     C 8750  -1.723   9.825   7.631  1.0585 -0.8051  0.2825
   67MOL0     C 8751  -1.737   9.978   7.658  0.6633 -0.2929 -0.2427
   67MOL0     C 8752  -1.615  10.042   7.581 -0.1057 -0.8060 -0.5539
   67MOL0     C 8753  -1.634  10.192   7.575 -0.4858 -0.2688  0.3883
   67MOL0     C 8754  -1.517  10.265   7.513 -0.5865 -0.4138 -0.2041
   67MOL0     C 8755  -1.553  10.365   7.404 -0.3129 -0.1979  0.7831
   67MOL0    Cl 8756  -1.590  10.283   7.246  0.1806 -0.1031  0.1067
   67MOL0     C 8757  -1.422   9.527   7.693  0.4145  0.3251  1.0107
   67MOL0     C 8758  -1.300   9.460   7.667  0.0884 -0.1645 -0.1636
   67MOL0     O 8759  -1.242   9.183   7.540  0.8866  0.2041  0.1673
   67MOL0     C 8760  -0.896   9.249   7.590 -0.2935 -0.7457 -0.8342
   67MOL0     C 8761  -0.777   9.245   7.520  0.1948 -0.0292 -0.5308
   67MOL0     N 8762  -0.353   9.139   6.729 -0.4475 -0.5403 -0.3760
   67MOL0     N 8763  -0.289   9.071   6.647  0.5422 -0.1998  0.6307
   67MOL0     C 8764   0.943   9.030   6.509 -0.9754 -0.2554 -0.2646
   67MOL0     C 8765   1.067   9.096   6.548 -0.6932  0.4631 -0.2964
   67MOL0     C 8766   1.489   9.240   6.603  0.1314 -0.2533 -0.1427
   67MOL0     C 8767   1.547   9.294   6.714 -0.3100  0.2467 -0.1464
   67MOL0     C 8768   1.684   9.327   6.697 -0.5835  0.7784  0.1534
   67MOL0     C 8769   1.758   9.291   6.586 -0.8901  0.7032 -0.1587
   67MOL0     O 8770   1.896   9.314   6.598 -0.5543 -0.1206  0.6727
   67MOL0     C 8771   1.968   9.293   6.482 -0.3474  0.3598  0.8518
   67MOL0     C 8772   2.112   9.326   6.499 -0.7113  0.0928  0.2544
   67MOL0     C 8773   2.179   9.248   6.611  0.5774  0.6807 -0.4696
   67MOL0     C 8774   2.331   9.255   6.586  0.0514 -0.1646 -0.1272
   67MOL0     C 8775   2.379   9.387   6.563  0.5143  0.0771  0.5988
   67MOL0     C 8776   2.414   9.497   6.522  0.9018 -0.7185 -1.5056
   67MOL0     C 8777   1.692   9.236   6.476  0.2648  0.0914  0.2105
   67MOL0     C 8778   1.556   9.212   6.483 -0.2321 -0.4304  0.1472
   67MOL0     H 8779   1.233   9.094   6.256 -0.5333 -1.6266 -1.2111
   67MOL0     H 8780   1.027   9.002   6.181  0.5791 -1.1855  0.7357
   67MOL0     H 8781   0.677   9.093   6.414 -0.3919  0.9517  0.7661
   67MOL0     H 8782   0.682   8.937   6.487  2.4034 -0.4146 -0.7010
   67MOL0     H 8783   0.549   8.841   6.272 -0.5604 -0.3617  0.1927
   67MOL0     H 8784   0.560   8.996   6.199 -0.1265 -1.6390 -1.4246
   67MOL0     H 8785   0.446   9.104   6.392  1.5648 -0.4128 -0.1204
   67MOL0     H 8786   0.435   8.956   6.469 -4.2521 -0.7629 -0.5218
   67MOL0     H 8787   0.329   8.986   6.186  1.2873  4.0886  0.7804
   67MOL0     H 8788   0.285   8.850   6.292  3.2091 -0.9735  2.2046
   67MOL0     H 8789   0.104   9.014   6.256 -1.8005  0.0803  1.4141
   67MOL0     H 8790   0.191   9.132   6.349  0.5491  1.1509 -1.5645
   67MOL0     H 8791   0.189   8.938   6.531  1.7074  0.3541 -1.0981
   67MOL0     H 8792   0.098   8.842   6.415 -3.0759  0.4232  1.6634
   67MOL0     H 8793   0.021   9.121   6.510 -3.7313  0.2995  0.6045
   67MOL0     H 8794  -0.080   9.012   6.410 -1.2392 -0.4874  1.3059
   67MOL0     H 8795   0.013   8.945   6.692 -1.6761 -1.3384  0.2788
   67MOL0     H 8796  -0.113   8.868   6.607  0.8383 -1.5347  2.8165
   67MOL0     H 8797  -0.061   9.114   6.876 -0.0905  3.0400  1.0316
   67MOL0     H 8798  -0.338   9.312   6.971  0.6677  0.2048  0.9643
   67MOL0     H 8799  -0.261   9.161   7.050  1.9056 -0.5035 -1.9861
   67MOL0     H 8800  -0.472   9.049   6.968  0.7404  1.0982 -2.3884
   67MOL0     H 8801  -0.539   9.201   6.943 -0.5278 -2.1012 -1.4974
   67MOL0     H 8802  -0.439   9.089   7.212  3.2788  2.3468  1.5170
   67MOL0     H 8803  -0.441   9.260   7.199  4.0918 -3.2146  2.4992
   67MOL0     H 8804  -0.684   9.073   7.169  1.1561 -1.1595  1.2882
   67MOL0     H 8805  -0.677   9.250   7.128  3.7345  2.7491  0.4439
   67MOL0     H 8806  -0.907   9.144   7.219 -0.4628 -1.8067  0.5375
   67MOL0     H 8807  -1.106   9.166   7.332 -0.9715  1.9765 -0.6271
   67MOL0     H 8808  -1.265   9.293   7.961 -2.4300  0.1527  0.7247
   67MOL0     H 8809  -1.460   9.418   8.023 -1.6961  0.5187 -0.4473
   67MOL0     H 8810  -1.782   9.631   7.832  0.5333  0.7199  0.3661
   67MOL0     H 8811  -1.701   9.572   7.687  0.1278  0.6600  0.3678
   67MOL0     H 8812  -1.538   9.768   7.718  0.0643 -2.3471  1.7625
   67MOL0     H 8813  -1.652   9.827   7.840 -0.3369  0.1703  0.8511
   67MOL0     H 8814  -1.820   9.775   7.637  1.0499 -0.8794 -0.4749
   67MOL0     H 8815  -1.696   9.800   7.528 -0.5230  0.8175 -0.5701
   67MOL0     H 8816  -1.828  10.016   7.609  0.3966 -1.8546 -1.0328
   67MOL0     H 8817  -1.755  10.006   7.762 -0.9909  1.2224 -0.8738
   67MOL0     H 8818  -1.612  10.017   7.475  1.0952  1.2037 -1.0330
   67MOL0     H 8819  -1.523  10.023   7.637  0.0352  2.6122  0.6082
   67MOL0     H 8820  -1.649  10.227   7.677  2.0360 -2.4662  1.6384
   67MOL0     H 8821  -1.724  10.208   7.514  0.8432 -0.9410 -1.8969
   67MOL0     H 8822  -1.453  10.304   7.593 -0.7187 -1.4337  0.4257
   67MOL0     H 8823  -1.455  10.189   7.463 -0.0309 -0.3397  0.3500
   67MOL0     H 8824  -1.467  10.428   7.380 -0.0090 -1.1515 -0.7249
   67MOL0     H 8825  -1.634  10.430   7.437 -1.8644 -0.9159 -1.3592
   67MOL0     H 8826  -1.453   9.597   7.616  1.9357  1.4683  1.3835
   67MOL0     H 8827  -1.253   9.478   7.571  0.4340 -1.1830 -0.1945
   67MOL0     H 8828  -0.906   9.274   7.695  1.1716  0.4549 -0.9391
   67MOL0     H 8829  -0.678   9.260   7.561  0.4737 -0.1334 -1.1500
   67MOL0     H 8830   0.868   8.995   6.578 -0.7961  1.3588  0.8090
   67MOL0     H 8831   1.071   9.131   6.651  0.1672 -1.9529  0.5400
   67MOL0     H 8832   1.506   9.304   6.813  1.5886 -3.4170  1.2357
   67MOL0     H 8833   1.727   9.374   6.784 -2.3140  2.0608  0.3914
   67MOL0     H 8834   1.921   9.349   6.401  2.4429  2.1907  0.3675
   67MOL0     H 8835   1.967   9.189   6.448  1.0235  0.5450  0.2193
   67MOL0     H 8836   2.160   9.307   6.403 -0.3676  0.3513  0.3727
   67MOL0     H 8837   2.127   9.430   6.532  0.8981  0.1746 -0.6203
   67MOL0     H 8838   2.146   9.144   6.616  0.5045  0.7440  0.3886
   67MOL0     H 8839   2.161   9.284   6.712  3.2543  0.6329  0.0806
   67MOL0     H 8840   2.386   9.217   6.673  0.8685  0.6523 -0.2765
   67MOL0     H 8841   2.358   9.194   6.500  3.8675  3.4832 -1.8245
   67MOL0     H 8842   2.444   9.594   6.488 -1.3329 -0.3133 -2.4940
   67MOL0     H 8843   1.748   9.206   6.388  0.2469 -1.7751  0.7952
   67MOL0     H 8844   1.511   9.172   6.393  1.1772 -0.4773 -0.5686
   68MOL0     O 8845   7.953  10.730   1.380  0.3903  0.2899  0.0278
   68MOL0     C 8846   7.885  10.829   1.393 -0.2273 -0.3356  0.1000
   68MOL0     O 8847   7.916  10.951   1.355 -0.2881 -0.5915 -0.5022
   68MOL0     C 8848   8.048  10.976   1.324 -0.1713  0.7135 -0.4515
   68MOL0     C 8849   8.094  11.088   1.385 -0.3196 -1.0025  0.2144
   68MOL0     C 8850   8.230  11.117   1.383 -0.1873  0.0756 -0.2490
   68MOL0     C 8851   8.318  11.041   1.320 -0.7918  0.8622  0.4555
   68MOL0     O 8852   8.453  11.065   1.297 -0.2301 -0.8153  0.2730
   68MOL0     C 8853   8.485  11.200   1.268  1.5118 -0.3318  0.5904
   68MOL0     C 8854   8.602  11.227   1.160  0.2862 -0.7116 -0.0766
   68MOL0     C 8855   8.730  11.155   1.172 -0.2982  0.1057  0.0228
   68MOL0     C 8856   8.808  11.164   1.044  0.2520  0.9055  0.3154
   68MOL0     C 8857   8.952  11.108   1.052 -0.3822  0.1933  0.4422
   68MOL0     C 8858   9.046  11.219   1.107 -0.9474 -0.5631  0.4553
   68MOL0     C 8859   9.195  11.177   1.101  0.5944  0.3221 -0.0877
   68MOL0     C 8860   9.236  11.042   1.163 -0.6953  0.3515  0.2365
   68MOL0     N 8861   9.378  11.054   1.215  0.6299  0.7330 -0.0585
   68MOL0     C 8862   9.491  11.094   1.155 -0.6676  0.2295  0.2181
   68MOL0     C 8863   9.593  11.070   1.234 -0.1510 -0.1172 -0.0522
   68MOL0     C 8864   9.738  11.089   1.200  0.0449 -0.1530  1.2763
   68MOL0     C 8865   9.757  11.244   1.173 -0.2288 -0.4151 -0.1001
   68MOL0     C 8866   9.903  11.280   1.112 -0.9252 -0.1837 -0.0968
   68MOL0     C 8867  10.018  11.222   1.200 -0.1463  0.9630 -1.3948
   68MOL0     O 8868  10.062  11.101   1.143  0.2786 -0.1185 -0.0962
   68MOL0     C 8869  10.160  11.037   1.212  0.4719  0.0920 -0.4341
   68MOL0     C 8870  10.223  10.940   1.139  0.9544 -0.2070  0.2751
   68MOL0     C 8871  10.311  10.859   1.201 -0.2225 -0.5666  0.1184
   68MOL0     C 8872  10.355  10.878   1.336 -0.3845  0.4209 -0.0651
   68MOL0     C 8873  10.471  10.794   1.391 -0.2089 -0.9704  0.2956
   68MOL0     O 8874  10.524  10.693   1.306 -0.2051 -0.5201  0.0720
   68MOL0     C 8875  10.649  10.633   1.325 -0.5133 -0.4235  0.4751
   68MOL0     C 8876  10.760  10.682   1.403 -0.5723 -1.0201  0.2694
   68MOL0     C 8877  10.888  10.624   1.404 -1.0387  0.4572  0.3157
   68MOL0     C 8878  10.914  10.508   1.339  0.3251  0.0797 -0.3032
   68MOL0     O 8879  11.030  10.444   1.351 -0.2616 -0.4947  0.3991
   68MOL0     C 8880  11.096  10.445   1.478  0.3201 -0.2464  0.0520
   68MOL0     C 8881  11.204  10.340   1.477  0.0383 -0.3060 -0.3323
   68MOL0     C 8882  11.332  10.403   1.548  0.2599 -0.0040  0.7351
   68MOL0     C 8883  11.460  10.314   1.526  0.3944 -0.9955  0.1237
   68MOL0     C 8884  11.597  10.364   1.583 -0.1069 -0.2912  0.2134
   68MOL0     C 8885  11.716  10.254   1.576  1.0341 -0.0080 -0.2948
   68MOL0     C 8886  11.779  10.251   1.439 -1.2501  0.0204 -0.0130
   68MOL0     C 8887  11.802  10.107   1.388 -0.4607  1.5395  0.4361
   68MOL0    Cl 8888  11.939  10.029   1.471  0.4355  0.0408  0.1961
   68MOL0     C 8889  10.809  10.457   1.264 -0.9597  0.3680 -1.3669
   68MOL0     C 8890  10.689  10.525   1.249 -0.2240  0.8071  0.2680
   68MOL0     O 8891  10.506  10.813   1.508 -0.2481  0.1227  0.1789
   68MOL0     C 8892  10.304  10.982   1.413  0.8153  0.7830 -1.1721
   68MOL0     C 8893  10.202  11.058   1.349  0.0214 -0.2062  0.6337
   68MOL0     N 8894   9.545  11.015   1.353  0.2194  0.1111  0.0533
   68MOL0     N 8895   9.415  11.016   1.338 -0.0241 -0.0308 -0.4135
   68MOL0     C 8896   8.278  10.934   1.251  0.9427 -0.0046  0.2540
   68MOL0     C 8897   8.138  10.896   1.255  0.5562 -0.8604  1.4245
   68MOL0     C 8898   7.758  10.820   1.465 -0.6550  0.4097  0.5319
   68MOL0     C 8899   7.697  10.697   1.493 -0.1657 -0.6402  0.7545
   68MOL0     C 8900   7.577  10.690   1.564 -0.3544 -0.4341  0.1576
   68MOL0     C 8901   7.514  10.801   1.610 -0.0443  0.3864 -0.2158
   68MOL0     O 8902   7.394  10.795   1.670 -1.1597  0.4623 -0.4187
   68MOL0     C 8903   7.406  10.822   1.809 -0.1967 -0.5876  0.6271
   68MOL0     C 8904   7.269  10.771   1.871 -0.3652 -0.1627 -0.0269
   68MOL0     C 8905   7.158  10.877   1.850  0.1062  0.5601 -0.0964
   68MOL0     C 8906   7.077  10.850   1.721 -0.1559 -0.6605 -0.1891
   68MOL0     C 8907   6.956  10.772   1.755 -0.5832  0.4828  0.0669
   68MOL0     C 8908   6.845  10.724   1.784  0.2640 -0.2198 -0.5245
   68MOL0     C 8909   7.574  10.919   1.578  0.3065 -0.4611 -0.2022
   68MOL0     C 8910   7.690  10.932   1.505  0.3116 -0.0319  0.1866
   68MOL0     H 8911   8.032  11.162   1.436  2.1922  1.8767 -0.6439
   68MOL0     H 8912   8.275  11.206   1.425  1.5720  0.1666 -2.1601
   68MOL0     H 8913   8.522  11.241   1.362  0.8750 -1.7187  1.4663
   68MOL0     H 8914   8.396  11.246   1.223 -0.3394 -2.5513  1.8072
   68MOL0     H 8915   8.617  11.334   1.143 -0.9777 -0.9155 -3.0682
   68MOL0     H 8916   8.556  11.193   1.067 -1.4481 -1.5702  1.0412
   68MOL0     H 8917   8.720  11.050   1.203  1.2037  0.6593  2.7179
   68MOL0     H 8918   8.784  11.207   1.252 -2.2066  1.3271  0.5908
   68MOL0     H 8919   8.758  11.112   0.962  0.0000  2.7705 -0.7832
   68MOL0     H 8920   8.816  11.271   1.020 -0.5550  0.9749  0.3060
   68MOL0     H 8921   8.987  11.076   0.953 -1.2936 -2.6735  0.9310
   68MOL0     H 8922   8.957  11.014   1.108  3.3125 -1.1628 -1.7558
   68MOL0     H 8923   9.021  11.254   1.208  2.8105 -0.3908  1.4694
   68MOL0     H 8924   9.035  11.306   1.041 -0.9130  1.2478  2.7150
   68MOL0     H 8925   9.227  11.166   0.997 -2.6788 -2.6413 -0.9639
   68MOL0     H 8926   9.257  11.254   1.148 -1.2904  0.7700  1.8250
   68MOL0     H 8927   9.229  10.959   1.091  0.7058 -0.2628  0.7726
   68MOL0     H 8928   9.169  11.014   1.244  0.9021  1.4532  2.0102
   68MOL0     H 8929   9.506  11.126   1.053 -1.0949 -1.5325 -0.4389
   68MOL0     H 8930   9.752  11.029   1.109 -3.0211  0.2264  0.4330
   68MOL0     H 8931   9.802  11.049   1.278  0.6728 -0.1022  0.7922
   68MOL0     H 8932   9.748  11.298   1.267 -0.7908 -1.6846  0.5899
   68MOL0     H 8933   9.678  11.276   1.105 -0.2420 -0.0116  0.1032
   68MOL0     H 8934   9.915  11.239   1.011  1.3829 -0.8784  0.4124
   68MOL0     H 8935   9.911  11.389   1.116  0.7594 -0.2271 -1.3414
   68MOL0     H 8936   9.990  11.202   1.304  1.1441  1.2676 -0.9722
   68MOL0     H 8937  10.098  11.297   1.205  0.2354  0.5353 -0.9840
   68MOL0     H 8938  10.226  10.934   1.031  0.4377  0.6030  0.2096
   68MOL0     H 8939  10.365  10.784   1.146  0.2739 -1.0342  1.2154
   68MOL0     H 8940  10.745  10.764   1.472  1.0475 -0.2084 -0.3074
   68MOL0     H 8941  10.962  10.669   1.469  0.1020 -1.7594  0.6315
   68MOL0     H 8942  11.026  10.410   1.555 -2.6104 -2.4053 -3.2872
   68MOL0     H 8943  11.135  10.543   1.506  2.1709 -1.4758  2.0534
   68MOL0     H 8944  11.225  10.315   1.373  0.3296  0.4453 -0.4615
   68MOL0     H 8945  11.176  10.246   1.525 -0.2231  0.3099  0.7589
   68MOL0     H 8946  11.325  10.421   1.656  2.5857  1.3588  0.7449
   68MOL0     H 8947  11.346  10.499   1.496  0.2979 -1.5944 -2.3996
   68MOL0     H 8948  11.443  10.214   1.567  2.5713 -1.9534 -1.1533
   68MOL0     H 8949  11.469  10.299   1.418 -1.2243  1.7061 -0.4834
   68MOL0     H 8950  11.579  10.389   1.688 -2.5733  0.3011 -0.2845
   68MOL0     H 8951  11.629  10.460   1.541 -2.2910  0.8435  1.0013
   68MOL0     H 8952  11.664  10.158   1.587  0.6833 -0.3450 -3.8176
   68MOL0     H 8953  11.788  10.274   1.656 -1.0224  0.3295  1.5722
   68MOL0     H 8954  11.709  10.309   1.378 -2.3831  1.1164  2.2036
   68MOL0     H 8955  11.870  10.313   1.442 -0.5955 -0.7083 -2.5969
   68MOL0     H 8956  11.829  10.109   1.282 -1.9588 -0.8047 -0.0732
   68MOL0     H 8957  11.717  10.039   1.397  1.5173 -1.3498 -1.0799
   68MOL0     H 8958  10.823  10.368   1.203 -0.2465 -0.9253  0.5985
   68MOL0     H 8959  10.604  10.501   1.186 -0.3001  1.7929 -0.0205
   68MOL0     H 8960  10.318  11.002   1.518 -0.5300 -1.2127 -0.5507
   68MOL0     H 8961  10.160  11.138   1.409 -2.6485  0.2109 -1.5853
   68MOL0     H 8962   8.338  10.867   1.191  0.4252  0.6513 -1.0454
   68MOL0     H 8963   8.111  10.807   1.199 -3.5876  1.2406 -0.3678
   68MOL0     H 8964   7.749  10.604   1.470  1.2471  0.0795  0.9343
   68MOL0     H 8965   7.529  10.592   1.570 -0.2578 -0.4083  1.7324
   68MOL0     H 8966   7.410  10.930   1.827 -0.9289 -0.2568 -1.0569
   68MOL0     H 8967   7.499  10.775   1.842  1.4404 -0.3672 -3.2027
   68MOL0     H 8968   7.235  10.674   1.833 -1.0463 -0.0060  0.1699
   68MOL0     H 8969   7.296  10.759   1.976  1.1756 -1.0400 -0.4898
   68MOL0     H 8970   7.201  10.977   1.834 -3.9328  2.1704 -2.6858
   68MOL0     H 8971   7.094  10.866   1.938 -4.0853  0.0033 -2.9405
   68MOL0     H 8972   7.044  10.943   1.674  0.4391  1.9803  4.1074
   68MOL0     H 8973   7.127  10.796   1.640 -1.9361 -2.2355 -0.3172
   68MOL0     H 8974   6.747  10.682   1.797 -0.1701  1.4827  2.7143
   68MOL0     H 8975   7.526  11.006   1.622 -2.5839 -1.7687 -0.5418
   68MOL0     H 8976   7.735  11.029   1.488 -1.4748  0.6456 -1.0029
   69MOL0     O 8977  11.104   9.072  10.707  0.2554 -0.1575 -0.1610
   69MOL0     C 8978  11.082   8.957  10.667  0.0457 -0.1190 -0.3962
   69MOL0     O 8979  10.958   8.903  10.665  0.0842  0.1562 -0.0032
   69MOL0     C 8980  10.851   8.981  10.704 -0.6321  0.6505 -0.0533
   69MOL0     C 8981  10.849   9.040  10.838  0.9677 -0.1061  0.2196
   69MOL0     C 8982  10.747   9.115  10.881 -0.1323  0.0444 -0.5370
   69MOL0     C 8983  10.627   9.116  10.807 -0.4512 -1.0018 -0.7883
   69MOL0     O 8984  10.524   9.195  10.864 -0.8900  0.3729  0.3936
   69MOL0     C 8985  10.393   9.197  10.806  0.1826  0.9336 -0.1916
   69MOL0     C 8986  10.375   9.313  10.705  0.0631 -0.1445  0.7001
   69MOL0     C 8987  10.233   9.308  10.652  0.9128  0.3805  0.2948
   69MOL0     C 8988  10.204   9.427  10.554 -0.5052  0.3074 -0.2311
   69MOL0     C 8989  10.077   9.424  10.455 -0.3881 -0.3777  0.1989
   69MOL0     C 8990   9.946   9.386  10.527 -0.3705  0.1908  0.6402
   69MOL0     C 8991   9.840   9.374  10.429 -0.1218  0.9477 -0.0165
   69MOL0     C 8992   9.709   9.297  10.485  0.9069 -0.4681  1.1303
   69MOL0     N 8993   9.592   9.329  10.400 -0.2635  0.1682  0.2615
   69MOL0     C 8994   9.510   9.442  10.423 -0.2432  0.3631 -0.4196
   69MOL0     C 8995   9.401   9.418  10.342 -0.4502 -0.5984 -0.3153
   69MOL0     C 8996   9.296   9.521  10.316  0.2213  0.2732  0.1498
   69MOL0     C 8997   9.169   9.506  10.405  0.3533  0.1608  0.0901
   69MOL0     C 8998   9.121   9.364  10.397 -0.2987 -0.5308  0.6458
   69MOL0     C 8999   8.973   9.363  10.446  0.3883  0.4690 -0.3301
   69MOL0     O 9000   8.879   9.417  10.345 -0.9755  0.3088 -0.1743
   69MOL0     C 9001   8.746   9.422  10.373  0.4853 -0.6726  0.6448
   69MOL0     C 9002   8.659   9.432  10.265  0.6806 -1.0147  0.5118
   69MOL0     C 9003   8.521   9.428  10.267  0.3856  0.3250  0.2798
   69MOL0     C 9004   8.456   9.412  10.391 -0.0891 -0.5808 -0.3424
   69MOL0     C 9005   8.310   9.418  10.406 -0.1424  0.0704 -1.0097
   69MOL0     O 9006   8.237   9.413  10.288  0.0585 -0.1339 -0.7222
   69MOL0     C 9007   8.101   9.415  10.299 -0.9358  0.0102 -0.0943
   69MOL0     C 9008   8.034   9.529  10.330  0.0365 -0.9517 -0.0660
   69MOL0     C 9009   7.892   9.523  10.335  0.2534  0.4423  0.4874
   69MOL0     C 9010   7.823   9.406  10.305  0.4953  1.2023  0.1669
   69MOL0     O 9011   7.688   9.409  10.309  0.0266 -0.3398  0.4327
   69MOL0     C 9012   7.614   9.328  10.212  0.6676 -0.3770  0.0431
   69MOL0     C 9013   7.482   9.394  10.178  0.5554  0.3972 -0.2004
   69MOL0     C 9014   7.476   9.539  10.147 -1.0910 -0.3097 -0.0046
   69MOL0     C 9015   7.568   9.577  10.032 -1.0863  0.1558 -0.6706
   69MOL0     C 9016   7.564   9.723  10.015 -0.2299 -0.0594 -0.4164
   69MOL0     C 9017   7.642   9.797  10.131 -0.2580  0.4690 -0.1741
   69MOL0     C 9018   7.708   9.936  10.110  0.3172  0.0794 -0.1562
   69MOL0     C 9019   7.853   9.914  10.101 -0.5938  0.7219  0.0726
   69MOL0    Cl 9020   7.924  10.075  10.062 -0.1848  0.1880 -0.3089
   69MOL0     C 9021   7.902   9.287  10.274  0.3496  0.3328 -0.1110
   69MOL0     C 9022   8.037   9.298  10.273 -0.0831  0.0173 -0.4722
   69MOL0     O 9023   8.262   9.442  10.521  0.4609 -0.8894 -0.5927
   69MOL0     C 9024   8.541   9.398  10.508  0.2254  0.7636 -0.2411
   69MOL0     C 9025   8.688   9.401  10.495 -0.4761 -0.3624  0.6905
   69MOL0     N 9026   9.412   9.299  10.281  0.0843  0.3579  0.2352
   69MOL0     N 9027   9.522   9.243  10.318 -0.2503 -0.1547 -0.4409
   69MOL0     C 9028  10.621   9.052  10.690  0.1823 -0.0227 -0.2037
   69MOL0     C 9029  10.733   8.988  10.640 -0.2984  0.5968  0.0390
   69MOL0     C 9030  11.198   8.872  10.636 -0.1062 -1.3657  0.4199
   69MOL0     C 9031  11.178   8.737  10.588  0.0720 -0.4417  0.2593
   69MOL0     C 9032  11.272   8.663  10.538  0.1989 -0.9065  0.6873
   69MOL0     C 9033  11.401   8.704  10.539 -0.2199  0.1174  0.0036
   69MOL0     O 9034  11.492   8.608  10.496 -0.8142  0.2053 -1.2588
   69MOL0     C 9035  11.635   8.624  10.499  0.3196  0.0349  0.1489
   69MOL0     C 9036  11.682   8.531  10.393  0.8434  0.3954 -0.3359
   69MOL0     C 9037  11.832   8.539  10.360  0.8967  0.2644 -0.3565
   69MOL0     C 9038  11.882   8.416  10.291  0.3057 -0.2223  0.8239
   69MOL0     C 9039  12.007   8.435  10.212 -0.1473  0.3384  0.0755
   69MOL0     C 9040  12.105   8.458  10.141 -0.0265  0.0190  0.4693
   69MOL0     C 9041  11.435   8.834  10.579  0.1381  0.3543 -0.3380
   69MOL0     C 9042  11.334   8.923  10.634 -0.5805 -0.6737 -1.1927
   69MOL0     H 9043  10.937   9.044  10.902  0.7860 -0.1704  0.4738
   69MOL0     H 9044  10.745   9.186  10.964  0.0343 -1.7198  1.0536
   69MOL0     H 9045  10.320   9.208  10.886  1.1264  0.9129  0.7012
   69MOL0     H 9046  10.373   9.100  10.760 -1.4419  1.0397  0.2319
   69MOL0     H 9047  10.453   9.305  10.629 -0.3897  0.5780  0.1412
   69MOL0     H 9048  10.387   9.412  10.750 -0.2731  1.8016 -3.0119
   69MOL0     H 9049  10.161   9.316  10.734  0.5205 -1.1004  0.1195
   69MOL0     H 9050  10.208   9.218  10.596  0.8229  0.0143  0.9181
   69MOL0     H 9051  10.184   9.518  10.612  1.6031  1.0597 -0.5803
   69MOL0     H 9052  10.295   9.440  10.495 -0.4371 -3.0908 -1.0812
   69MOL0     H 9053  10.092   9.352  10.374  0.7644  0.3513 -0.2639
   69MOL0     H 9054  10.061   9.523  10.412 -1.0287 -0.3140  0.5651
   69MOL0     H 9055   9.926   9.450  10.613 -1.3875 -0.2682  0.7523
   69MOL0     H 9056   9.968   9.290  10.574  3.4893  1.2599  1.3856
   69MOL0     H 9057   9.810   9.475  10.399 -1.1349  0.3227 -1.1800
   69MOL0     H 9058   9.866   9.314  10.341 -0.4293 -2.6560  2.1662
   69MOL0     H 9059   9.685   9.339  10.582 -0.4091 -1.0311  1.0639
   69MOL0     H 9060   9.736   9.191  10.478  1.7282 -0.2118  0.0415
   69MOL0     H 9061   9.531   9.530  10.483 -1.3409  0.9757 -0.8866
   69MOL0     H 9062   9.280   9.525  10.208  2.6229  2.6424 -0.2279
   69MOL0     H 9063   9.338   9.620  10.336  1.2569 -0.2505  0.7314
   69MOL0     H 9064   9.091   9.573  10.369 -0.8510  1.8281  5.1120
   69MOL0     H 9065   9.189   9.527  10.510 -1.4346 -2.2792  0.9996
   69MOL0     H 9066   9.136   9.332  10.294  1.2705  3.1751 -0.4342
   69MOL0     H 9067   9.182   9.295  10.457  0.6588 -1.6690 -1.5144
   69MOL0     H 9068   8.968   9.425  10.536 -2.8235 -0.4297  0.2649
   69MOL0     H 9069   8.936   9.264  10.474 -1.3427  0.8013 -1.2629
   69MOL0     H 9070   8.696   9.449  10.164  0.3791 -0.2282  0.5287
   69MOL0     H 9071   8.466   9.447  10.176  0.4754  0.0002  0.1580
   69MOL0     H 9072   8.088   9.616  10.365 -0.7770 -0.3551 -0.2635
   69MOL0     H 9073   7.819   9.590  10.379 -0.9521 -1.6510  1.8928
   69MOL0     H 9074   7.593   9.226  10.245  1.7691 -0.2536  1.2124
   69MOL0     H 9075   7.672   9.324  10.119 -0.8792 -1.7207 -0.9127
   69MOL0     H 9076   7.415   9.384  10.264 -1.0979  0.1109 -1.4708
   69MOL0     H 9077   7.437   9.337  10.096 -2.8294 -0.1073  1.8146
   69MOL0     H 9078   7.504   9.596  10.236  0.7193  1.5208 -1.6550
   69MOL0     H 9079   7.372   9.567  10.127 -0.7104  0.4611 -0.9916
   69MOL0     H 9080   7.673   9.551  10.045 -0.9169 -1.1832 -3.7999
   69MOL0     H 9081   7.547   9.520   9.941 -1.0932 -0.6584 -0.1635
   69MOL0     H 9082   7.465   9.765   9.998  0.6472  1.4936 -2.0579
   69MOL0     H 9083   7.616   9.748   9.922 -2.3240  0.8351 -1.4111
   69MOL0     H 9084   7.716   9.732  10.179  2.1397  0.8510 -3.0487
   69MOL0     H 9085   7.555   9.812  10.195  0.2256 -2.1815  1.2648
   69MOL0     H 9086   7.671   9.982  10.018  1.9503 -0.7113 -1.2690
   69MOL0     H 9087   7.684   9.995  10.200 -0.0952 -1.4083  0.7369
   69MOL0     H 9088   7.881   9.838  10.028 -2.3375  0.4542 -0.3724
   69MOL0     H 9089   7.882   9.881  10.201 -1.1487  1.2488  0.4198
   69MOL0     H 9090   7.863   9.187  10.257 -0.5744  0.2746  2.0973
   69MOL0     H 9091   8.103   9.214  10.249 -0.4326 -0.8641  1.4965
   69MOL0     H 9092   8.499   9.412  10.607  0.6770  2.2851 -0.2391
   69MOL0     H 9093   8.752   9.404  10.582 -0.4762 -0.0716  0.6824
   69MOL0     H 9094  10.526   9.027  10.643  0.4652 -1.6178  0.0330
   69MOL0     H 9095  10.717   8.919  10.558 -0.8199  1.8070 -0.9103
   69MOL0     H 9096  11.078   8.695  10.602  0.9624 -2.1035  2.3326
   69MOL0     H 9097  11.248   8.561  10.513  0.9314 -0.2322 -3.4066
   69MOL0     H 9098  11.665   8.597  10.601 -1.5197 -3.7698 -0.1534
   69MOL0     H 9099  11.668   8.727  10.479  1.5908 -0.1672  1.0598
   69MOL0     H 9100  11.651   8.433  10.430  0.3752  0.6074 -0.1655
   69MOL0     H 9101  11.638   8.556  10.296  1.8275  0.2866 -0.8201
   69MOL0     H 9102  11.882   8.533  10.457  2.2273 -0.4755 -1.0611
   69MOL0     H 9103  11.874   8.629  10.315  3.3826 -0.9977 -0.7204
   69MOL0     H 9104  11.906   8.331  10.356 -1.7876 -1.8774 -0.4023
   69MOL0     H 9105  11.801   8.378  10.228  1.3282 -1.8895  0.4524
   69MOL0     H 9106  12.188   8.466  10.074 -1.5218  1.5321 -1.3214
   69MOL0     H 9107  11.535   8.875  10.582 -1.0750  3.5426  2.0423
   69MOL0     H 9108  11.351   9.024  10.669 -2.5153 -1.0453  1.0892
   70MOL0     O 9109   0.161   6.001   2.565 -0.3136 -0.2319 -1.1506
   70MOL0     C 9110   0.201   5.890   2.523 -0.4428 -0.1149 -0.6711
   70MOL0     O 9111   0.122   5.791   2.481  1.1425  0.2733  0.3806
   70MOL0     C 9112  -0.010   5.828   2.457 -1.3286 -1.4352 -0.3520
   70MOL0     C 9113  -0.109   5.783   2.547 -0.1798  0.0265  0.4177
   70MOL0     C 9114  -0.240   5.810   2.529 -0.0828 -0.4608 -0.2925
   70MOL0     C 9115  -0.279   5.871   2.404 -0.3843 -0.9629  0.9633
   70MOL0     O 9116  -0.413   5.883   2.375 -0.6850 -0.7473 -0.2651
   70MOL0     C 9117  -0.513   5.861   2.473 -0.7183 -0.8958  0.4899
   70MOL0     C 9118  -0.634   5.944   2.441 -0.4566 -0.5288 -1.3581
   70MOL0     C 9119  -0.742   5.947   2.549  0.3495  0.0717 -0.6225
   70MOL0     C 9120  -0.865   6.014   2.491 -0.5570  0.7386  0.4185
   70MOL0     C 9121  -0.970   6.032   2.600 -1.1395 -0.0622  0.0269
   70MOL0     C 9122  -1.117   6.065   2.572  0.4198  0.6347  0.7855
   70MOL0     C 9123  -1.194   6.063   2.701 -0.2264 -0.8601  0.3153
   70MOL0     C 9124  -1.184   5.926   2.773  0.9322  1.0272  0.4207
   70MOL0     N 9125  -1.296   5.914   2.866 -0.0109 -0.2019  0.0708
   70MOL0     C 9126  -1.428   5.944   2.846  0.1342  0.1887  0.0397
   70MOL0     C 9127  -1.485   5.938   2.969 -0.7645  0.2679  0.0723
   70MOL0     C 9128  -1.632   5.963   2.999  0.7645 -0.0295  0.2638
   70MOL0     C 9129  -1.710   5.837   2.950  0.9858  0.1012  0.4579
   70MOL0     C 9130  -1.864   5.845   2.970 -0.6563 -0.5000 -0.1955
   70MOL0     C 9131  -1.900   5.712   3.038 -0.6459  0.1974 -0.0679
   70MOL0     O 9132  -2.043   5.707   3.045  0.1055 -0.0912 -0.2619
   70MOL0     C 9133  -2.096   5.615   3.137 -0.2240  0.0573  0.0734
   70MOL0     C 9134  -2.227   5.636   3.190 -0.8111 -0.8665 -0.8295
   70MOL0     C 9135  -2.271   5.558   3.298 -0.2691  0.7157  0.0099
   70MOL0     C 9136  -2.207   5.444   3.345 -0.6061  0.1333  0.8567
   70MOL0     C 9137  -2.272   5.347   3.430  0.0479  0.4128  0.1501
   70MOL0     O 9138  -2.400   5.358   3.449 -0.7433 -0.6074 -0.8328
   70MOL0     C 9139  -2.459   5.275   3.544 -0.5980 -0.6012  0.1627
   70MOL0     C 9140  -2.403   5.241   3.674  0.1380 -0.7523 -0.7297
   70MOL0     C 9141  -2.474   5.158   3.769  0.6483  0.5581  0.6505
   70MOL0     C 9142  -2.616   5.141   3.754 -0.8042 -0.9065  0.2448
   70MOL0     O 9143  -2.683   5.078   3.852 -0.6236  0.2421  0.2928
   70MOL0     C 9144  -2.781   5.164   3.908 -0.6067 -0.8066  1.1212
   70MOL0     C 9145  -2.867   5.084   4.003 -0.5333  0.4779  0.0075
   70MOL0     C 9146  -3.007   5.141   4.026  0.3147 -0.3815  0.5263
   70MOL0     C 9147  -3.006   5.280   4.083  0.4364  0.0224  0.3565
   70MOL0     C 9148  -3.136   5.307   4.161 -0.2389 -0.3067  0.4683
   70MOL0     C 9149  -3.146   5.462   4.206 -0.2409 -0.1130  0.5090
   70MOL0     C 9150  -3.276   5.500   4.263 -0.2537 -0.0471  0.0300
   70MOL0     C 9151  -3.278   5.647   4.305  0.8006 -0.0209  0.6625
   70MOL0    Cl 9152  -3.185   5.663   4.454 -0.1306  0.3751  0.2741
   70MOL0     C 9153  -2.673   5.186   3.632  0.9677 -0.7872  0.1985
   70MOL0     C 9154  -2.596   5.245   3.528  0.3580 -0.0037 -0.0381
   70MOL0     O 9155  -2.199   5.257   3.469  0.8101  0.3020 -0.2878
   70MOL0     C 9156  -2.080   5.416   3.279 -0.3710 -0.1215  1.0356
   70MOL0     C 9157  -2.025   5.503   3.178  0.0924 -0.4351 -0.0751
   70MOL0     N 9158  -1.385   5.904   3.064  0.1337  0.1208  0.2749
   70MOL0     N 9159  -1.271   5.879   3.001 -1.0517 -0.6453 -0.0669
   70MOL0     C 9160  -0.173   5.927   2.317  0.4044 -0.7385 -1.0263
   70MOL0     C 9161  -0.043   5.911   2.346 -0.1572  0.2956 -0.0901
   70MOL0     C 9162   0.345   5.872   2.550  1.1559 -0.1183 -0.4216
   70MOL0     C 9163   0.420   5.937   2.649  0.1092 -0.6787 -0.2421
   70MOL0     C 9164   0.557   5.922   2.667  0.5570 -1.1122 -0.1097
   70MOL0     C 9165   0.623   5.841   2.577  0.8689  0.5574 -0.0884
   70MOL0     O 9166   0.757   5.838   2.576  0.7282  0.5359  0.1146
   70MOL0     C 9167   0.817   5.706   2.601  0.4752 -0.7062 -1.1666
   70MOL0     C 9168   0.825   5.687   2.755  0.2786  0.2397  0.0106
   70MOL0     C 9169   0.931   5.787   2.820  0.8250  0.8224 -0.1461
   70MOL0     C 9170   0.952   5.757   2.971  0.1970 -0.2895 -0.2648
   70MOL0     C 9171   1.027   5.627   2.991 -0.2566 -0.6190  0.2572
   70MOL0     C 9172   1.079   5.518   2.989 -0.8997 -0.0174 -0.3537
   70MOL0     C 9173   0.546   5.773   2.476 -0.2264  0.2259 -0.0194
   70MOL0     C 9174   0.407   5.788   2.464  0.1482  0.6259  0.6250
   70MOL0     H 9175  -0.080   5.715   2.627 -1.4949 -0.9630  0.0987
   70MOL0     H 9176  -0.310   5.777   2.604 -0.2917  2.8133  1.1322
   70MOL0     H 9177  -0.475   5.883   2.573  0.0747 -1.3458  0.2945
   70MOL0     H 9178  -0.539   5.755   2.474 -1.4021 -0.7314  0.3564
   70MOL0     H 9179  -0.680   5.887   2.359 -2.6876  0.9711 -1.2093
   70MOL0     H 9180  -0.616   6.048   2.414 -2.1730 -0.8228 -4.0493
   70MOL0     H 9181  -0.716   6.010   2.635 -1.0827 -0.4134  0.1919
   70MOL0     H 9182  -0.767   5.848   2.587 -1.0684 -0.7518 -3.4322
   70MOL0     H 9183  -0.841   6.111   2.448  1.3435 -0.0202 -0.3605
   70MOL0     H 9184  -0.909   5.952   2.413 -2.1126  1.5696  0.6035
   70MOL0     H 9185  -0.944   6.109   2.674 -1.8593 -0.4795  0.7266
   70MOL0     H 9186  -0.967   5.937   2.653  0.3713 -1.0091 -1.6316
   70MOL0     H 9187  -1.166   5.995   2.505  1.8415 -1.0353  1.3935
   70MOL0     H 9188  -1.114   6.167   2.534 -1.9697  0.3253 -0.3634
   70MOL0     H 9189  -1.164   6.141   2.771  0.4407 -1.1399  0.3497
   70MOL0     H 9190  -1.298   6.096   2.689  0.2536  0.1028 -1.6382
   70MOL0     H 9191  -1.092   5.926   2.832  1.4781  2.0350 -0.3971
   70MOL0     H 9192  -1.175   5.848   2.697  2.2677 -0.3989  1.9478
   70MOL0     H 9193  -1.476   5.966   2.751  0.0201  0.5241  0.1731
   70MOL0     H 9194  -1.662   6.059   2.958 -0.3680  0.4723  2.1451
   70MOL0     H 9195  -1.621   5.974   3.107  5.1079  3.9057 -0.2978
   70MOL0     H 9196  -1.662   5.752   2.999  2.5727  1.6556  1.7411
   70MOL0     H 9197  -1.689   5.814   2.845 -1.5112 -0.9459  0.1271
   70MOL0     H 9198  -1.888   5.920   3.046 -1.3953 -1.5298  0.6086
   70MOL0     H 9199  -1.926   5.868   2.883  1.4724  1.1632 -1.3627
   70MOL0     H 9200  -1.851   5.693   3.133  0.0793 -0.4729 -0.5587
   70MOL0     H 9201  -1.872   5.632   2.968  5.2503  3.0135 -1.5703
   70MOL0     H 9202  -2.286   5.722   3.161 -2.1294 -1.3746  0.2332
   70MOL0     H 9203  -2.367   5.569   3.348  0.2986 -2.2129  2.0358
   70MOL0     H 9204  -2.304   5.275   3.703 -0.1032  0.0254 -0.7983
   70MOL0     H 9205  -2.431   5.142   3.867 -0.0228 -0.0521  0.8542
   70MOL0     H 9206  -2.844   5.209   3.830 -1.7051 -0.1617  2.3187
   70MOL0     H 9207  -2.737   5.248   3.963 -1.3384 -0.3436  1.0241
   70MOL0     H 9208  -2.812   5.097   4.096  1.0385  0.5714 -0.8947
   70MOL0     H 9209  -2.859   4.976   3.991  1.2661  0.3114  2.1454
   70MOL0     H 9210  -3.055   5.081   4.103  2.8283  0.0147  2.5073
   70MOL0     H 9211  -3.074   5.128   3.940 -0.4519  3.1689  0.4300
   70MOL0     H 9212  -2.916   5.304   4.140 -0.4450 -0.6662  2.1127
   70MOL0     H 9213  -3.017   5.344   3.995  0.3814  0.0927  0.4142
   70MOL0     H 9214  -3.125   5.246   4.251 -0.0382 -0.5970  0.2441
   70MOL0     H 9215  -3.225   5.274   4.106 -1.8479 -0.7459  3.1439
   70MOL0     H 9216  -3.135   5.519   4.113  0.0970 -1.4795 -0.3241
   70MOL0     H 9217  -3.060   5.483   4.271 -0.4944  0.2616  0.7244
   70MOL0     H 9218  -3.345   5.483   4.179 -0.1333  1.3629 -0.3833
   70MOL0     H 9219  -3.303   5.430   4.342  0.1205  0.1539  0.3373
   70MOL0     H 9220  -3.381   5.677   4.323  1.1670 -0.1169  3.3512
   70MOL0     H 9221  -3.222   5.705   4.231 -0.8774  0.2462 -0.4510
   70MOL0     H 9222  -2.778   5.167   3.610 -0.2347  2.7635  2.1846
   70MOL0     H 9223  -2.641   5.263   3.432  1.0427  0.7149 -0.2320
   70MOL0     H 9224  -2.028   5.321   3.294 -1.2913 -1.2074 -1.9423
   70MOL0     H 9225  -1.929   5.470   3.139  0.0155 -2.4420  1.2649
   70MOL0     H 9226  -0.198   5.956   2.215  2.9685 -0.6627 -1.7121
   70MOL0     H 9227   0.033   5.952   2.280 -0.7367  1.5071 -0.0250
   70MOL0     H 9228   0.366   6.013   2.705  0.2438 -0.1400 -0.8216
   70MOL0     H 9229   0.622   5.985   2.725  1.6543 -2.9772  0.7791
   70MOL0     H 9230   0.917   5.725   2.561 -0.1919  1.4890 -1.9745
   70MOL0     H 9231   0.779   5.617   2.551  2.2725 -2.2540  0.0964
   70MOL0     H 9232   0.730   5.694   2.810  0.1509  1.3219 -0.3347
   70MOL0     H 9233   0.867   5.588   2.772  0.3524 -0.0277 -1.5680
   70MOL0     H 9234   0.892   5.889   2.813  2.5808  1.4900 -1.0041
   70MOL0     H 9235   1.029   5.785   2.770  1.8767  0.3802  1.8103
   70MOL0     H 9236   1.009   5.831   3.028 -3.1631  1.5243  1.0200
   70MOL0     H 9237   0.856   5.748   3.022 -0.7484  1.5471 -1.6011
   70MOL0     H 9238   1.118   5.419   3.001 -1.9693 -1.1197 -4.5287
   70MOL0     H 9239   0.603   5.703   2.414 -1.3367  0.1556 -0.9888
   70MOL0     H 9240   0.343   5.732   2.396 -1.9785 -0.8220  3.5582
   71MOL0     O 9241   7.708  10.311   8.332  0.1874 -0.0527 -0.0620
   71MOL0     C 9242   7.706  10.261   8.446  0.3278  0.1053 -0.4305
   71MOL0     O 9243   7.602  10.195   8.514 -0.3094 -0.1805 -0.3642
   71MOL0     C 9244   7.486  10.162   8.446 -0.3603 -0.4935  0.3702
   71MOL0     C 9245   7.480  10.134   8.309  0.1342 -0.0794  0.0494
   71MOL0     C 9246   7.361  10.086   8.248 -0.0742  0.2847  0.4209
   71MOL0     C 9247   7.241  10.070   8.321 -0.3562  0.2297  0.8454
   71MOL0     O 9248   7.114  10.044   8.268  0.4228 -0.6688  0.6184
   71MOL0     C 9249   7.108   9.990   8.134 -0.2754 -0.2341  0.1224
   71MOL0     C 9250   6.971   9.959   8.076  0.5247 -0.8392  0.6296
   71MOL0     C 9251   6.873  10.074   8.083 -0.4972 -0.8574 -0.0536
   71MOL0     C 9252   6.759  10.048   7.988 -0.8948 -0.7701  0.6151
   71MOL0     C 9253   6.783  10.093   7.836  0.0967 -0.0247 -0.2764
   71MOL0     C 9254   6.650  10.104   7.765  0.6683 -0.5738 -0.1988
   71MOL0     C 9255   6.668  10.177   7.629 -0.2193  0.4875  0.0317
   71MOL0     C 9256   6.586  10.134   7.514 -0.0858  0.5737 -0.5436
   71MOL0     N 9257   6.442  10.141   7.541  0.5303  0.4413  0.1350
   71MOL0     C 9258   6.369  10.249   7.593 -0.4833 -0.2920 -0.4264
   71MOL0     C 9259   6.240  10.209   7.592  0.5909 -0.0160 -0.9619
   71MOL0     C 9260   6.126  10.281   7.652  0.9037  0.4092  0.4466
   71MOL0     C 9261   6.083  10.227   7.785 -0.2338 -0.0517 -0.5470
   71MOL0     C 9262   6.180  10.251   7.892  0.8505 -0.0877  0.0951
   71MOL0     C 9263   6.143  10.164   8.009  0.4927 -0.1801  0.5177
   71MOL0     O 9264   6.025  10.215   8.061  0.9420  0.9700  0.5783
   71MOL0     C 9265   5.930  10.115   8.092 -0.6185  0.0542  0.1572
   71MOL0     C 9266   5.797  10.140   8.066  1.0608  0.1881  0.3000
   71MOL0     C 9267   5.691  10.055   8.100  1.2201  0.3025 -0.6208
   71MOL0     C 9268   5.714   9.938   8.170 -0.0205  0.5721  0.2253
   71MOL0     C 9269   5.612   9.836   8.174  0.4435  1.1253  0.3807
   71MOL0     O 9270   5.640   9.730   8.253  0.2195 -0.5622 -0.8663
   71MOL0     C 9271   5.543   9.639   8.266 -0.3948 -0.1333 -0.4083
   71MOL0     C 9272   5.563   9.515   8.206 -0.3467 -1.0003 -0.2535
   71MOL0     C 9273   5.473   9.417   8.237  0.4892  0.6661  0.3365
   71MOL0     C 9274   5.353   9.448   8.307  0.5603 -0.0164 -0.8265
   71MOL0     O 9275   5.263   9.336   8.302  0.2143  0.0740 -0.3446
   71MOL0     C 9276   5.127   9.353   8.363  0.5626 -0.6807 -0.7951
   71MOL0     C 9277   5.060   9.218   8.375 -0.1434  0.1003  0.3445
   71MOL0     C 9278   5.001   9.178   8.237  1.3614  0.7467 -0.4639
   71MOL0     C 9279   4.973   9.024   8.234  0.1306 -0.1341  0.0187
   71MOL0     C 9280   4.917   8.978   8.099 -0.3193  0.8142  0.8001
   71MOL0     C 9281   4.902   8.816   8.077  0.5154 -0.0352 -0.8033
   71MOL0     C 9282   4.834   8.744   8.193 -0.5295  0.1896  0.2384
   71MOL0     C 9283   4.798   8.597   8.165  0.9595 -0.1403  0.3417
   71MOL0    Cl 9284   4.926   8.488   8.194  0.0769 -0.0706 -0.0734
   71MOL0     C 9285   5.335   9.568   8.377 -0.9364 -0.2955  0.3419
   71MOL0     C 9286   5.434   9.658   8.348  0.6455  0.4206  1.0280
   71MOL0     O 9287   5.507   9.843   8.118 -0.3852 -0.6253  0.5103
   71MOL0     C 9288   5.847   9.915   8.209 -0.0042 -0.7208  0.0851
   71MOL0     C 9289   5.954   9.999   8.170  0.0751  0.5004  0.0307
   71MOL0     N 9290   6.229  10.082   7.541  0.0865 -0.8114 -0.2094
   71MOL0     N 9291   6.348  10.038   7.507 -0.2431 -0.7019  0.1767
   71MOL0     C 9292   7.246  10.105   8.460  0.1241 -0.2369 -0.0234
   71MOL0     C 9293   7.371  10.155   8.517  0.0104 -0.1861  0.6048
   71MOL0     C 9294   7.832  10.249   8.526  0.9144  0.4276  0.1902
   71MOL0     C 9295   7.833  10.158   8.633 -0.3056 -0.0394  0.0235
   71MOL0     C 9296   7.945  10.150   8.715 -0.3367  0.3370 -0.0973
   71MOL0     C 9297   8.053  10.224   8.684 -0.0284  0.4543 -0.9485
   71MOL0     O 9298   8.162  10.202   8.772  0.2041 -0.2556 -0.5602
   71MOL0     C 9299   8.302  10.242   8.746  0.8911  0.2793  0.2435
   71MOL0     C 9300   8.386  10.131   8.703 -0.7347 -0.2472 -0.5212
   71MOL0     C 9301   8.437  10.038   8.818 -0.2565 -0.2224  0.2579
   71MOL0     C 9302   8.516   9.917   8.764 -0.1207 -0.3787  0.0570
   71MOL0     C 9303   8.650   9.945   8.726 -0.6977 -1.2597 -1.0247
   71MOL0     C 9304   8.759   9.994   8.709  0.4823  0.7178  0.4541
   71MOL0     C 9305   8.055  10.319   8.579 -0.5560  0.9713 -0.3250
   71MOL0     C 9306   7.950  10.326   8.494  0.1210 -0.4163 -0.3859
   71MOL0     H 9307   7.566  10.156   8.247 -1.4913  1.7351 -1.7002
   71MOL0     H 9308   7.374  10.066   8.142 -0.1706 -0.6187  0.5679
   71MOL0     H 9309   7.161   9.894   8.140  0.7689  0.3972  1.0981
   71MOL0     H 9310   7.166  10.054   8.067 -3.3483  1.6043 -0.9970
   71MOL0     H 9311   6.926   9.870   8.121 -0.5313 -1.3766 -1.3565
   71MOL0     H 9312   6.981   9.933   7.971 -1.3306 -3.1792  0.9281
   71MOL0     H 9313   6.930  10.165   8.061  0.6495 -1.3358  0.8465
   71MOL0     H 9314   6.836  10.091   8.185  0.1773  0.6024 -0.0300
   71MOL0     H 9315   6.743   9.940   7.981 -0.6238 -0.7754 -0.0269
   71MOL0     H 9316   6.670  10.101   8.024  2.7919  5.6321  1.8300
   71MOL0     H 9317   6.850  10.023   7.785  0.0667 -0.0160 -0.3283
   71MOL0     H 9318   6.830  10.192   7.838  1.9858 -0.8391 -1.2441
   71MOL0     H 9319   6.576  10.168   7.812  0.8445 -0.5499  0.0479
   71MOL0     H 9320   6.606  10.005   7.747 -5.0102  1.4035  0.7424
   71MOL0     H 9321   6.660  10.285   7.647  1.6107  1.0123 -1.9786
   71MOL0     H 9322   6.771  10.153   7.602 -0.2935 -2.8070  2.1522
   71MOL0     H 9323   6.621  10.031   7.505  1.6239  1.1464 -0.8598
   71MOL0     H 9324   6.608  10.195   7.425  2.5631  3.7569  2.0117
   71MOL0     H 9325   6.407  10.350   7.604  0.3324 -0.6651  0.3246
   71MOL0     H 9326   6.045  10.277   7.578  3.0527 -0.7092 -2.0102
   71MOL0     H 9327   6.148  10.388   7.664 -1.0719  0.9201 -0.1481
   71MOL0     H 9328   6.070  10.119   7.774  0.4775 -0.0600 -1.3977
   71MOL0     H 9329   5.983  10.270   7.800 -0.1199  0.9007 -2.1593
   71MOL0     H 9330   6.277  10.208   7.864  0.5782 -1.2560  0.8824
   71MOL0     H 9331   6.183  10.360   7.902  0.9037  0.0509 -1.2491
   71MOL0     H 9332   6.229  10.171   8.075  0.9515  1.0288 -0.1535
   71MOL0     H 9333   6.136  10.063   7.968 -2.1656 -0.2618  0.9684
   71MOL0     H 9334   5.771  10.232   8.015  2.7531  0.2975 -0.4267
   71MOL0     H 9335   5.590  10.060   8.062 -1.0290 -1.9654  4.1554
   71MOL0     H 9336   5.653   9.498   8.148 -0.0979  1.5377 -0.7643
   71MOL0     H 9337   5.483   9.321   8.186  1.5870  0.3421  1.1305
   71MOL0     H 9338   5.066   9.418   8.300 -0.7756 -1.1326 -0.0023
   71MOL0     H 9339   5.141   9.390   8.465  2.8056  1.0733 -1.6514
   71MOL0     H 9340   4.987   9.213   8.457  1.1483 -1.6129  1.4567
   71MOL0     H 9341   5.144   9.153   8.402 -0.7140 -0.8929 -0.2412
   71MOL0     H 9342   5.063   9.218   8.156  2.3974  2.9962  1.3574
   71MOL0     H 9343   4.908   9.234   8.227  0.2344 -1.0643 -0.5332
   71MOL0     H 9344   5.065   8.967   8.249 -0.6247 -1.1106  1.1559
   71MOL0     H 9345   4.910   9.000   8.320  0.5570  1.3376  0.7813
   71MOL0     H 9346   4.984   9.021   8.025  0.8182 -0.5811  0.9662
   71MOL0     H 9347   4.815   9.017   8.090 -0.9605  0.0111  3.5251
   71MOL0     H 9348   5.003   8.776   8.063  0.2660 -0.0731 -2.8631
   71MOL0     H 9349   4.845   8.790   7.987 -0.5965 -0.2310 -0.0729
   71MOL0     H 9350   4.893   8.742   8.286 -0.5758 -3.4352  0.3251
   71MOL0     H 9351   4.743   8.799   8.219 -0.1860  0.4174  1.0115
   71MOL0     H 9352   4.773   8.588   8.059  0.8528 -0.2987  0.3798
   71MOL0     H 9353   4.713   8.569   8.228 -0.0780 -1.7360 -1.6613
   71MOL0     H 9354   5.239   9.584   8.425 -2.4678 -2.4794 -1.7495
   71MOL0     H 9355   5.416   9.753   8.396 -1.4261 -0.0389  1.2441
   71MOL0     H 9356   5.865   9.823   8.264  1.1419 -1.5216 -1.5246
   71MOL0     H 9357   6.054   9.973   8.204 -0.7842  1.4690  3.6278
   71MOL0     H 9358   7.148  10.101   8.506  0.5761  3.1646  1.4852
   71MOL0     H 9359   7.371  10.181   8.622  6.0180  0.0661  0.8786
   71MOL0     H 9360   7.760  10.081   8.657  1.2831 -0.7591  2.9279
   71MOL0     H 9361   7.941  10.074   8.793 -1.9620 -0.9848 -1.3835
   71MOL0     H 9362   8.340  10.302   8.829 -0.3307  2.2474 -0.5706
   71MOL0     H 9363   8.305  10.312   8.662 -1.2110  0.8117  0.5720
   71MOL0     H 9364   8.328  10.065   8.638  1.2175 -2.6424  0.0093
   71MOL0     H 9365   8.469  10.152   8.635 -2.0503  2.1409 -1.5003
   71MOL0     H 9366   8.347  10.005   8.871 -0.2818  2.5823  2.2129
   71MOL0     H 9367   8.492  10.099   8.891  1.4309 -2.4769  0.9628
   71MOL0     H 9368   8.519   9.829   8.828  0.1972 -1.3788 -1.2959
   71MOL0     H 9369   8.458   9.888   8.676  0.3743 -0.6226 -0.1934
   71MOL0     H 9370   8.852  10.045   8.695 -0.5102  2.5069  0.0587
   71MOL0     H 9371   8.145  10.377   8.563 -0.6072  1.4556  0.9712
   71MOL0     H 9372   7.950  10.382   8.401  1.6438  0.4640  0.1004
   72MOL0     O 9373   9.159  10.691   9.091  0.4296 -0.8781  0.4262
   72MOL0     C 9374   9.232  10.742   9.009 -0.4719  0.5460  0.3540
   72MOL0     O 9375   9.248  10.871   9.001  0.7034 -1.0079  0.0113
   72MOL0     C 9376   9.188  10.962   9.086  0.6039  0.1318  0.1860
   72MOL0     C 9377   9.232  10.999   9.211  0.1766  0.2369 -0.5940
   72MOL0     C 9378   9.161  11.081   9.301 -0.2163 -0.2292 -0.1422
   72MOL0     C 9379   9.046  11.146   9.254 -0.2143  0.4722 -0.4154
   72MOL0     O 9380   8.984  11.227   9.347  0.0321  0.2162 -0.4855
   72MOL0     C 9381   8.840  11.212   9.362  0.3849  0.0848 -0.1593
   72MOL0     C 9382   8.761  11.340   9.397 -0.1587 -1.2425  0.5281
   72MOL0     C 9383   8.630  11.317   9.470  1.6527  0.1171  0.0443
   72MOL0     C 9384   8.642  11.234   9.602  0.0738 -0.7413 -0.3323
   72MOL0     C 9385   8.511  11.154   9.630  0.2183  0.6922 -0.0187
   72MOL0     C 9386   8.383  11.240   9.643 -0.8358  0.0202  0.4928
   72MOL0     C 9387   8.254  11.170   9.666  0.8490 -0.2538  0.4511
   72MOL0     C 9388   8.238  11.122   9.811  0.4423  0.3198  0.0460
   72MOL0     N 9389   8.117  11.045   9.839  0.1122  0.4071  0.1711
   72MOL0     C 9390   7.997  11.064   9.772  0.2596 -1.0703 -1.2842
   72MOL0     C 9391   7.905  10.986   9.831  0.1327  0.2199 -0.3611
   72MOL0     C 9392   7.758  10.963   9.781 -1.0617  0.1678 -0.3984
   72MOL0     C 9393   7.671  11.085   9.815 -0.7395  0.5142 -0.2630
   72MOL0     C 9394   7.523  11.063   9.774  0.7388  0.2289 -0.4888
   72MOL0     C 9395   7.446  11.196   9.792  0.3890  0.2356 -0.0635
   72MOL0     O 9396   7.374  11.199   9.915  0.4467  0.5348 -0.1069
   72MOL0     C 9397   7.239  11.152   9.919  0.1495  0.3221 -0.2258
   72MOL0     C 9398   7.167  11.192  10.030 -0.5382  0.7058  0.5606
   72MOL0     C 9399   7.033  11.152  10.045 -0.1648 -0.2921  0.4190
   72MOL0     C 9400   6.970  11.065   9.952  0.4519 -0.5522 -0.7931
   72MOL0     C 9401   6.826  11.024   9.971 -0.1405  0.2068  0.3073
   72MOL0     O 9402   6.745  11.098  10.045 -0.7352 -0.3395  0.6035
   72MOL0     C 9403   6.617  11.040  10.066  0.8374 -0.5868  0.1844
   72MOL0     C 9404   6.590  10.965  10.181  0.3577 -0.7711 -0.6407
   72MOL0     C 9405   6.467  10.915  10.225 -0.0911 -0.2776  0.3964
   72MOL0     C 9406   6.356  10.929  10.140 -0.3279  0.3604 -0.3103
   72MOL0     O 9407   6.224  10.895  10.171 -0.9323 -0.1576 -0.2374
   72MOL0     C 9408   6.200  10.862  10.309  0.8186 -0.6053 -0.2652
   72MOL0     C 9409   6.040  10.870  10.333  0.1089 -0.1313  0.0102
   72MOL0     C 9410   6.012  10.870  10.484 -0.5340 -0.8472  0.6076
   72MOL0     C 9411   5.865  10.915  10.498 -1.2389 -0.9255 -0.6506
   72MOL0     C 9412   5.764  10.808  10.484 -1.1206 -0.0685 -0.3134
   72MOL0     C 9413   5.675  10.810  10.360 -0.2041  0.2781  0.5079
   72MOL0     C 9414   5.596  10.683  10.344  0.8613 -0.7927 -0.6889
   72MOL0     C 9415   5.451  10.712  10.356  0.2844  0.7523 -0.0878
   72MOL0    Cl 9416   5.374  10.556  10.330 -0.6511  0.0539 -0.1363
   72MOL0     C 9417   6.378  10.997  10.013  0.1436  0.2001 -0.3154
   72MOL0     C 9418   6.508  11.038   9.976 -0.6754 -0.1277  0.2544
   72MOL0     O 9419   6.793  10.926   9.904  1.2043 -0.5700  0.1881
   72MOL0     C 9420   7.049  11.011   9.841 -0.5578 -1.2909 -0.6089
   72MOL0     C 9421   7.178  11.068   9.817  0.4180 -0.6514 -0.4303
   72MOL0     N 9422   7.973  10.915   9.936  0.8179 -0.0054 -0.0493
   72MOL0     N 9423   8.095  10.958   9.941  0.2073  0.1843 -0.0842
   72MOL0     C 9424   9.014  11.133   9.114  0.7091 -0.1877 -0.6756
   72MOL0     C 9425   9.078  11.031   9.037 -0.3163 -0.2220  0.1763
   72MOL0     C 9426   9.313  10.657   8.927 -0.5145 -0.4100  0.5523
   72MOL0     C 9427   9.299  10.517   8.908 -0.4110 -0.2859  0.0454
   72MOL0     C 9428   9.375  10.432   8.825  0.6183 -0.2063 -0.7563
   72MOL0     C 9429   9.486  10.493   8.757 -0.9197  0.2765  0.6192
   72MOL0     O 9430   9.576  10.420   8.682 -0.1676  0.2916 -0.4028
   72MOL0     C 9431   9.692  10.389   8.761  0.0692 -0.1398  0.1740
   72MOL0     C 9432   9.675  10.280   8.864  0.3082  0.0017 -1.5958
   72MOL0     C 9433   9.807  10.227   8.922  0.3686  0.0070  0.0134
   72MOL0     C 9434   9.801  10.144   9.052 -0.4974 -0.4876 -0.0244
   72MOL0     C 9435   9.936  10.113   9.099  0.5297  0.2797 -0.3249
   72MOL0     C 9436  10.044  10.096   9.152  0.0625 -0.3784  0.3782
   72MOL0     C 9437   9.510  10.631   8.782 -0.1554 -0.0154 -0.2838
   72MOL0     C 9438   9.427  10.714   8.857  1.0042 -0.0533 -0.4619
   72MOL0     H 9439   9.324  10.964   9.256  1.6150  1.4935 -2.4088
   72MOL0     H 9440   9.202  11.103   9.399  1.6275  0.9482 -1.1100
   72MOL0     H 9441   8.838  11.135   9.439  0.1334 -0.2639 -0.5101
   72MOL0     H 9442   8.793  11.170   9.272 -0.5514  0.8178 -0.0304
   72MOL0     H 9443   8.745  11.404   9.309  4.9222  0.4796  0.5047
   72MOL0     H 9444   8.818  11.404   9.466 -0.2678  0.0602 -0.5474
   72MOL0     H 9445   8.567  11.273   9.392  0.0422  1.2843  0.6378
   72MOL0     H 9446   8.594  11.416   9.499  3.7355  0.2439  2.5182
   72MOL0     H 9447   8.735  11.178   9.598  0.0545 -0.7029 -2.9953
   72MOL0     H 9448   8.664  11.306   9.681  0.8793 -2.1963  0.8136
   72MOL0     H 9449   8.516  11.095   9.722 -4.9737 -0.5087 -0.2039
   72MOL0     H 9450   8.485  11.090   9.546  1.3858  1.6049 -1.1071
   72MOL0     H 9451   8.382  11.295   9.548  0.7161 -1.2132 -0.2778
   72MOL0     H 9452   8.396  11.322   9.714 -3.8592  1.9104 -0.9138
   72MOL0     H 9453   8.178  11.247   9.649  0.8189  0.0360  1.8346
   72MOL0     H 9454   8.234  11.094   9.590 -0.4043 -0.2096  0.7039
   72MOL0     H 9455   8.225  11.211   9.874  1.0701  1.3309 -1.1903
   72MOL0     H 9456   8.322  11.054   9.827 -0.6501 -0.2632  4.8472
   72MOL0     H 9457   7.982  11.132   9.689  1.4132  2.3138  1.0601
   72MOL0     H 9458   7.718  10.875   9.832 -1.7984 -0.0582 -1.3350
   72MOL0     H 9459   7.752  10.958   9.672 -0.0991 -0.7880 -0.4241
   72MOL0     H 9460   7.709  11.170   9.757  2.3666  1.0047  2.2520
   72MOL0     H 9461   7.673  11.113   9.920 -2.5591  0.3718 -0.1633
   72MOL0     H 9462   7.518  11.039   9.667 -4.6155  1.1081 -0.6690
   72MOL0     H 9463   7.484  10.975   9.826 -0.6116 -0.0393 -1.8657
   72MOL0     H 9464   7.374  11.208   9.711 -0.9297 -0.5494  0.9669
   72MOL0     H 9465   7.520  11.277   9.789  1.7840 -1.0132 -2.4043
   72MOL0     H 9466   7.209  11.262  10.101  2.2364 -0.2968  0.0504
   72MOL0     H 9467   6.972  11.179  10.130 -0.0370  2.3556 -0.2518
   72MOL0     H 9468   6.673  10.967  10.250  0.5393 -4.2655 -0.5822
   72MOL0     H 9469   6.456  10.860  10.318  3.3198 -0.2961  0.9162
   72MOL0     H 9470   6.240  10.938  10.377 -3.6076  2.0488 -0.1597
   72MOL0     H 9471   6.239  10.762  10.329 -1.0487 -2.0418 -3.0495
   72MOL0     H 9472   5.990  10.780  10.297 -1.4689  0.3131  0.9802
   72MOL0     H 9473   6.001  10.959  10.281 -0.7956 -2.1520 -3.0417
   72MOL0     H 9474   6.068  10.944  10.542 -3.1438  1.3830  0.4942
   72MOL0     H 9475   6.028  10.765  10.506 -1.6407 -1.6669 -2.1125
   72MOL0     H 9476   5.863  10.962  10.597 -2.1847  0.6515 -1.3718
   72MOL0     H 9477   5.840  10.992  10.425  1.9922  0.2540 -0.6781
   72MOL0     H 9478   5.700  10.804  10.572  1.3680  0.9145  1.6379
   72MOL0     H 9479   5.821  10.715  10.477  3.2827  2.1755  1.9078
   72MOL0     H 9480   5.734  10.831  10.270  1.7528  0.7863  1.8356
   72MOL0     H 9481   5.604  10.892  10.375 -1.9243 -1.2380  1.0104
   72MOL0     H 9482   5.614  10.635  10.247 -3.3503 -0.7041 -1.7100
   72MOL0     H 9483   5.612  10.607  10.421  0.4597 -1.5623 -1.3384
   72MOL0     H 9484   5.418  10.782  10.278  0.4704  1.2036  0.2362
   72MOL0     H 9485   5.421  10.765  10.447 -1.3951  2.8228 -1.7399
   72MOL0     H 9486   6.294  11.018   9.948 -1.1327  0.6473  1.4158
   72MOL0     H 9487   6.513  11.087   9.879  1.3385  1.0778  0.9091
   72MOL0     H 9488   7.006  10.944   9.768 -0.4217 -0.5259 -1.3990
   72MOL0     H 9489   7.223  11.039   9.722 -1.5863  0.0994 -1.6638
   72MOL0     H 9490   8.932  11.187   9.068 -0.6025 -0.4008  1.3033
   72MOL0     H 9491   9.042  11.005   8.937  1.1216 -1.1551 -0.1272
   72MOL0     H 9492   9.213  10.474   8.959 -1.3377  1.3610 -0.0487
   72MOL0     H 9493   9.340  10.330   8.814  1.5243 -0.5661 -0.4049
   72MOL0     H 9494   9.730  10.481   8.806 -0.1690  0.7811 -1.4158
   72MOL0     H 9495   9.760  10.346   8.687  0.6516 -1.2093  1.2971
   72MOL0     H 9496   9.605  10.314   8.940  0.2950 -0.6119 -1.3260
   72MOL0     H 9497   9.624  10.194   8.820 -3.6992  1.2712  0.1148
   72MOL0     H 9498   9.873  10.313   8.940 -2.9159  2.9433 -0.7796
   72MOL0     H 9499   9.852  10.159   8.849 -0.9129 -3.7108  2.4292
   72MOL0     H 9500   9.740  10.202   9.123 -1.3220 -1.2062 -0.1244
   72MOL0     H 9501   9.755  10.046   9.036 -4.6105  0.9777  1.2916
   72MOL0     H 9502  10.130  10.080   9.214  0.9172  2.6441  0.1352
   72MOL0     H 9503   9.594  10.689   8.746 -0.9894  0.3937 -1.6725
   72MOL0     H 9504   9.443  10.820   8.875  1.8681 -0.6463  2.7232
   73MOL0     O 9505   8.721   7.261   4.563  0.2783  0.3120 -0.7241
   73MOL0     C 9506   8.804   7.352   4.589  0.3748 -0.7085  0.2837
   73MOL0     O 9507   8.812   7.425   4.703  0.0342  0.5657  0.3739
   73MOL0     C 9508   8.703   7.416   4.780  0.4061  0.0543  0.8130
   73MOL0     C 9509   8.694   7.322   4.883 -0.2797  0.0175 -0.3542
   73MOL0     C 9510   8.590   7.319   4.981  0.2098 -0.0981 -0.9910
   73MOL0     C 9511   8.489   7.411   4.966 -0.5714 -0.2434 -0.3480
   73MOL0     O 9512   8.385   7.404   5.062 -0.4909 -0.2542  0.3488
   73MOL0     C 9513   8.266   7.480   5.039 -0.3035  0.3441 -0.3505
   73MOL0     C 9514   8.154   7.429   5.140 -0.2802 -0.5654  0.7823
   73MOL0     C 9515   8.014   7.473   5.099  0.2387  0.4869  0.9867
   73MOL0     C 9516   7.983   7.409   4.961 -0.0079  0.3856 -0.1617
   73MOL0     C 9517   7.833   7.421   4.936  0.1926 -0.4742  0.0069
   73MOL0     C 9518   7.780   7.556   4.911 -0.0763 -0.6252 -0.4076
   73MOL0     C 9519   7.622   7.562   4.898 -0.1712  1.3427 -0.4017
   73MOL0     C 9520   7.535   7.584   5.021 -0.4587 -1.4079 -0.6647
   73MOL0     N 9521   7.392   7.587   4.973  0.4907 -0.4081 -0.0646
   73MOL0     C 9522   7.311   7.470   4.976 -0.1173  0.0706  0.6048
   73MOL0     C 9523   7.195   7.514   4.927  0.1844  0.3776 -0.2686
   73MOL0     C 9524   7.074   7.422   4.927 -0.6906  0.0003  0.2900
   73MOL0     C 9525   7.063   7.324   4.812  0.5338 -0.6954  0.7134
   73MOL0     C 9526   7.010   7.379   4.684  0.3029 -0.3795  0.7645
   73MOL0     C 9527   6.859   7.392   4.684 -0.6367  0.5235 -0.8264
   73MOL0     O 9528   6.816   7.252   4.688  0.4394 -0.4161  0.4592
   73MOL0     C 9529   6.679   7.228   4.692 -0.1158 -0.7744 -0.3703
   73MOL0     C 9530   6.633   7.102   4.678  0.7968  0.1757  0.1488
   73MOL0     C 9531   6.502   7.068   4.700  0.8665  0.1914  0.2626
   73MOL0     C 9532   6.409   7.168   4.724  1.2955 -0.5209  0.9447
   73MOL0     C 9533   6.265   7.127   4.742 -0.0851 -0.1157 -0.2829
   73MOL0     O 9534   6.178   7.229   4.748  0.6006 -0.1759  0.9585
   73MOL0     C 9535   6.051   7.209   4.791 -0.3930  0.8574 -0.7122
   73MOL0     C 9536   6.012   7.114   4.886 -0.1283  0.1252  0.5876
   73MOL0     C 9537   5.877   7.103   4.926 -0.4656 -0.3995 -0.5187
   73MOL0     C 9538   5.778   7.182   4.864  0.2091  0.3553  0.4610
   73MOL0     O 9539   5.643   7.169   4.883  0.0668  1.0120 -0.0628
   73MOL0     C 9540   5.597   7.036   4.930  0.7604 -1.1303  0.7654
   73MOL0     C 9541   5.464   7.010   4.857  0.7276 -0.0346 -0.4693
   73MOL0     C 9542   5.365   7.113   4.907  0.7135 -0.0423 -0.2881
   73MOL0     C 9543   5.224   7.077   4.865  0.6845  0.0364  0.3894
   73MOL0     C 9544   5.119   7.178   4.909  0.1889  0.5695 -0.2309
   73MOL0     C 9545   4.977   7.114   4.904  0.6552  0.3020  0.5219
   73MOL0     C 9546   4.857   7.201   4.925  1.3781 -0.3297  0.7449
   73MOL0     C 9547   4.737   7.129   4.868  0.0162 -0.3841 -1.4200
   73MOL0    Cl 9548   4.591   7.226   4.903 -0.6307  0.1894  0.1619
   73MOL0     C 9549   5.829   7.271   4.764  0.2488  0.0329 -1.0538
   73MOL0     C 9550   5.957   7.276   4.721  0.4908  0.5043 -0.2929
   73MOL0     O 9551   6.239   7.012   4.728  0.3579  0.5808 -0.6105
   73MOL0     C 9552   6.446   7.300   4.719 -0.6457  0.1065 -0.7844
   73MOL0     C 9553   6.581   7.330   4.717 -0.3033  0.3287 -0.0457
   73MOL0     N 9554   7.205   7.646   4.893  0.1202  0.4732 -0.2295
   73MOL0     N 9555   7.326   7.688   4.918 -0.0320 -0.5240 -0.5051
   73MOL0     C 9556   8.500   7.511   4.856  0.9731  0.0720 -0.3201
   73MOL0     C 9557   8.604   7.510   4.766  0.7813  0.1273  0.1592
   73MOL0     C 9558   8.935   7.361   4.515  1.0183  0.2085 -0.0524
   73MOL0     C 9559   8.954   7.274   4.408  0.9630  0.0090 -0.6375
   73MOL0     C 9560   9.064   7.284   4.324  0.0953 -0.2900  0.3471
   73MOL0     C 9561   9.156   7.386   4.333 -0.1558 -0.9417 -0.1660
   73MOL0     O 9562   9.277   7.399   4.265  0.3581  0.0384 -0.3387
   73MOL0     C 9563   9.319   7.276   4.204 -0.2892 -0.2954  0.4355
   73MOL0     C 9564   9.423   7.216   4.306  0.1210  0.2429  0.4132
   73MOL0     C 9565   9.548   7.305   4.308 -0.0723 -0.3547  0.7725
   73MOL0     C 9566   9.674   7.231   4.368  0.3771 -0.5836  0.4242
   73MOL0     C 9567   9.652   7.185   4.506  0.1508  1.1185  0.1439
   73MOL0     C 9568   9.636   7.156   4.626  0.8596 -0.1593  0.5436
   73MOL0     C 9569   9.140   7.474   4.443 -0.1066 -0.0210  0.3101
   73MOL0     C 9570   9.028   7.459   4.532 -1.4442  0.6361  0.3977
   73MOL0     H 9571   8.772   7.247   4.879 -3.0461 -3.2558  1.5016
   73MOL0     H 9572   8.597   7.240   5.055  1.5704  3.3105  2.9140
   73MOL0     H 9573   8.234   7.464   4.936 -0.1071  0.4017 -0.4204
   73MOL0     H 9574   8.286   7.586   5.056 -1.7089  0.6731 -0.6826
   73MOL0     H 9575   8.176   7.458   5.243  1.5820 -0.2518  0.3226
   73MOL0     H 9576   8.145   7.320   5.142 -0.2661 -0.7131 -2.3067
   73MOL0     H 9577   8.000   7.582   5.099  1.6828  0.7050 -0.2267
   73MOL0     H 9578   7.940   7.436   5.170 -1.8169  1.7112 -0.4086
   73MOL0     H 9579   8.033   7.473   4.888  2.2178  0.0653  0.9966
   73MOL0     H 9580   8.030   7.312   4.944  2.5698  1.6339 -0.7837
   73MOL0     H 9581   7.780   7.365   5.013 -2.7611  1.5421 -0.3930
   73MOL0     H 9582   7.828   7.356   4.848  3.7050  0.3366 -0.9611
   73MOL0     H 9583   7.822   7.586   4.815 -0.6641  0.1400 -0.4361
   73MOL0     H 9584   7.814   7.630   4.984  0.3831  0.6732 -1.8762
   73MOL0     H 9585   7.610   7.644   4.827  0.3527  2.5292  0.8513
   73MOL0     H 9586   7.582   7.473   4.847 -1.6901  1.3122  0.7753
   73MOL0     H 9587   7.561   7.683   5.058  1.9152 -1.5753 -1.6424
   73MOL0     H 9588   7.552   7.498   5.086  0.0676 -2.7102 -2.4133
   73MOL0     H 9589   7.340   7.372   5.012 -0.0958  0.8322  2.8125
   73MOL0     H 9590   6.982   7.480   4.937  0.1249  1.9585 -2.5133
   73MOL0     H 9591   7.071   7.360   5.017 -1.9469 -1.2370 -0.5742
   73MOL0     H 9592   7.005   7.237   4.846  0.8851 -2.4176 -2.6209
   73MOL0     H 9593   7.170   7.299   4.805  1.5997  3.2960  0.7406
   73MOL0     H 9594   7.046   7.480   4.666  0.1109 -0.1546  1.5830
   73MOL0     H 9595   7.052   7.315   4.606 -0.8668 -0.4201  0.1618
   73MOL0     H 9596   6.840   7.431   4.584  1.4725  1.2813 -0.9829
   73MOL0     H 9597   6.825   7.459   4.764 -1.0025  0.8849 -1.2752
   73MOL0     H 9598   6.708   7.027   4.656  1.9063  1.2745  0.1000
   73MOL0     H 9599   6.472   6.964   4.692  2.8364 -0.4306  0.5655
   73MOL0     H 9600   6.090   7.044   4.916  0.6052 -0.2039 -1.8359
   73MOL0     H 9601   5.851   7.035   5.008  0.2895 -0.3471 -0.2300
   73MOL0     H 9602   5.586   7.028   5.038  1.8141  0.2478  0.9994
   73MOL0     H 9603   5.669   6.962   4.892  2.6716  1.1189 -0.2231
   73MOL0     H 9604   5.429   6.908   4.875  0.1802 -0.0216 -1.4163
   73MOL0     H 9605   5.485   7.031   4.752  2.6906  4.2772  0.5519
   73MOL0     H 9606   5.379   7.212   4.861  2.0288  0.2293  0.6416
   73MOL0     H 9607   5.377   7.123   5.015  0.0554  2.4272 -0.3805
   73MOL0     H 9608   5.219   7.081   4.756  0.9672  0.0057  0.3749
   73MOL0     H 9609   5.204   6.976   4.900 -2.0500 -0.0811 -1.1724
   73MOL0     H 9610   5.110   7.272   4.853  1.0013  0.4997 -0.4948
   73MOL0     H 9611   5.141   7.198   5.015 -1.6355  1.4490  0.0260
   73MOL0     H 9612   4.975   7.039   4.984  0.6427  0.4246  0.6380
   73MOL0     H 9613   4.966   7.066   4.807  0.0733  0.1790  0.6481
   73MOL0     H 9614   4.848   7.235   5.029 -3.9313  3.0279 -0.3970
   73MOL0     H 9615   4.862   7.296   4.871  0.6055  0.6415  2.3188
   73MOL0     H 9616   4.732   7.031   4.915 -2.0044 -1.3398 -3.4267
   73MOL0     H 9617   4.729   7.114   4.759  0.0374  1.6259 -1.7397
   73MOL0     H 9618   5.756   7.323   4.703  1.2252  1.2398 -1.2220
   73MOL0     H 9619   5.979   7.348   4.643 -0.3928 -0.3706 -1.3867
   73MOL0     H 9620   6.378   7.384   4.735  0.6647  1.0957 -0.2499
   73MOL0     H 9621   6.610   7.435   4.721  0.5993  0.0792  3.0768
   73MOL0     H 9622   8.428   7.590   4.837  1.3318  1.1074  2.2726
   73MOL0     H 9623   8.613   7.577   4.681  2.2368 -1.2786 -0.8423
   73MOL0     H 9624   8.871   7.204   4.399 -1.6549  2.9121 -0.7257
   73MOL0     H 9625   9.047   7.212   4.243  0.8862 -1.0923  0.8725
   73MOL0     H 9626   9.377   7.302   4.115  3.6006  2.0321  3.3087
   73MOL0     H 9627   9.239   7.209   4.170 -1.2313 -0.3601  2.6067
   73MOL0     H 9628   9.380   7.201   4.406  0.5188 -2.1104  0.2920
   73MOL0     H 9629   9.449   7.122   4.258 -1.8262 -0.0037 -0.2345
   73MOL0     H 9630   9.532   7.398   4.364  1.0101 -0.1680  0.7922
   73MOL0     H 9631   9.579   7.339   4.209 -2.4812  1.9563  0.7005
   73MOL0     H 9632   9.678   7.137   4.312 -0.7806  0.3164 -1.2436
   73MOL0     H 9633   9.768   7.284   4.347 -1.3784  3.2123  1.2586
   73MOL0     H 9634   9.639   7.119   4.727  3.0850  2.2043  1.4513
   73MOL0     H 9635   9.211   7.554   4.459  0.6025 -0.8642  1.5625
   73MOL0     H 9636   9.011   7.544   4.598  2.3854  0.8136  1.3391
   74MOL0     O 9637   5.981   7.159   3.104 -0.0520  0.4668  0.0942
   74MOL0     C 9638   6.053   7.062   3.058  0.7737 -0.8499  0.4940
   74MOL0     O 9639   6.036   6.929   3.080  0.0497  0.4425 -0.8766
   74MOL0     C 9640   5.933   6.876   3.147 -1.2608  0.2724  0.0454
   74MOL0     C 9641   5.798   6.882   3.114  0.4799  0.2485 -0.4851
   74MOL0     C 9642   5.692   6.819   3.188  0.5245  0.2846  0.9632
   74MOL0     C 9643   5.729   6.722   3.286 -0.7157  0.4316  0.1244
   74MOL0     O 9644   5.636   6.637   3.344  0.1474 -0.4132 -0.1454
   74MOL0     C 9645   5.639   6.592   3.480 -0.3022  0.4605  0.0331
   74MOL0     C 9646   5.507   6.542   3.527 -0.2526 -0.4278 -0.6524
   74MOL0     C 9647   5.521   6.486   3.671  0.5949  0.3779  0.5583
   74MOL0     C 9648   5.382   6.438   3.709  0.8694 -0.2554  0.6671
   74MOL0     C 9649   5.363   6.376   3.860 -0.2415 -0.7859  0.2704
   74MOL0     C 9650   5.218   6.378   3.905  1.0882 -0.2864 -0.4671
   74MOL0     C 9651   5.132   6.277   3.816 -0.7433  0.6480 -0.0806
   74MOL0     C 9652   4.993   6.256   3.876  0.3303  0.6703 -0.0583
   74MOL0     N 9653   4.902   6.187   3.774 -0.3706  0.0881  0.1117
   74MOL0     C 9654   4.910   6.050   3.740  0.3609  0.0262 -0.1626
   74MOL0     C 9655   4.787   6.015   3.693 -0.8201  0.1330  0.2046
   74MOL0     C 9656   4.741   5.887   3.628 -0.9160  0.8590 -0.4576
   74MOL0     C 9657   4.589   5.873   3.613  0.5209 -0.1867 -0.3001
   74MOL0     C 9658   4.527   5.875   3.751 -1.0410 -0.0062  0.0414
   74MOL0     C 9659   4.375   5.853   3.767 -0.0022 -0.7398 -0.0661
   74MOL0     O 9660   4.338   5.727   3.711  0.2223  0.1003  0.0880
   74MOL0     C 9661   4.205   5.687   3.717 -1.0543 -0.3735 -0.1504
   74MOL0     C 9662   4.111   5.743   3.802  0.7117 -0.2619 -0.4064
   74MOL0     C 9663   3.979   5.704   3.786 -0.2197 -1.1671  0.5682
   74MOL0     C 9664   3.935   5.613   3.691  1.0585  0.3172  0.1968
   74MOL0     C 9665   3.791   5.575   3.669 -0.1246  0.2546 -0.4097
   74MOL0     O 9666   3.701   5.640   3.745 -0.3828  0.4327 -0.2864
   74MOL0     C 9667   3.567   5.636   3.711  0.2280  0.1581  0.1747
   74MOL0     C 9668   3.516   5.695   3.590  0.3497  0.1795 -0.1805
   74MOL0     C 9669   3.384   5.691   3.562  0.1021 -0.0007  0.7366
   74MOL0     C 9670   3.295   5.610   3.653 -0.1499  0.0525 -0.2624
   74MOL0     O 9671   3.164   5.584   3.627  0.0833 -0.3836 -0.1188
   74MOL0     C 9672   3.109   5.676   3.542  0.6669 -0.0379 -0.3924
   74MOL0     C 9673   2.963   5.644   3.546 -0.7334 -0.2310  0.5152
   74MOL0     C 9674   2.874   5.752   3.474  0.1436 -0.1602  0.0071
   74MOL0     C 9675   2.729   5.716   3.474  0.3038 -0.8449 -0.8044
   74MOL0     C 9676   2.640   5.819   3.420 -0.3097  0.0910  0.0013
   74MOL0     C 9677   2.491   5.779   3.439 -0.0737  0.4549 -0.0061
   74MOL0     C 9678   2.407   5.872   3.368 -0.6206  0.3344 -0.2336
   74MOL0     C 9679   2.269   5.824   3.341 -0.1622  0.3728 -0.2338
   74MOL0    Cl 9680   2.236   5.782   3.170  0.2013  0.4126 -0.0912
   74MOL0     C 9681   3.337   5.563   3.779  0.9204 -0.1262  0.0517
   74MOL0     C 9682   3.474   5.575   3.804  0.2933  0.6125 -0.4020
   74MOL0     O 9683   3.768   5.496   3.580 -0.2054 -0.1192  0.1315
   74MOL0     C 9684   4.029   5.545   3.613 -0.6559  0.1223 -0.4743
   74MOL0     C 9685   4.167   5.584   3.630 -0.0900  0.4397 -0.0648
   74MOL0     N 9686   4.711   6.131   3.710 -0.6535  0.4587 -0.0851
   74MOL0     N 9687   4.782   6.235   3.748  0.2658 -0.2656  0.0848
   74MOL0     C 9688   5.861   6.708   3.317 -0.4002 -0.0848 -0.3045
   74MOL0     C 9689   5.955   6.791   3.253 -0.8323  0.1420 -0.0819
   74MOL0     C 9690   6.162   7.097   2.956 -0.3468  0.6065 -0.5458
   74MOL0     C 9691   6.162   7.205   2.874 -0.2203 -0.3579  0.1275
   74MOL0     C 9692   6.275   7.229   2.796 -0.1046 -0.2540  0.8629
   74MOL0     C 9693   6.389   7.150   2.794  0.2446 -0.2102 -0.3856
   74MOL0     O 9694   6.500   7.182   2.728 -0.6988  0.7441 -0.0985
   74MOL0     C 9695   6.527   7.312   2.679  0.5176 -0.2213  0.2208
   74MOL0     C 9696   6.495   7.321   2.531 -0.1961  0.3123  0.0773
   74MOL0     C 9697   6.508   7.461   2.470  0.9515 -0.0288  0.3749
   74MOL0     C 9698   6.426   7.472   2.340  0.0272 -0.0757  0.6355
   74MOL0     C 9699   6.439   7.610   2.293  0.3653 -0.0286 -0.3907
   74MOL0     C 9700   6.417   7.725   2.264  0.2972 -0.3694  0.2254
   74MOL0     C 9701   6.385   7.034   2.874 -0.1023  0.4870 -0.2137
   74MOL0     C 9702   6.269   7.006   2.950  0.5774 -0.4814  0.4173
   74MOL0     H 9703   5.775   6.945   3.028  1.1057  0.8847 -0.1886
   74MOL0     H 9704   5.589   6.836   3.159  1.0671  1.3414 -0.4453
   74MOL0     H 9705   5.658   6.674   3.550 -0.4087  0.9992 -0.5576
   74MOL0     H 9706   5.712   6.512   3.491  0.2302  0.6975 -1.6109
   74MOL0     H 9707   5.476   6.463   3.459  0.9097 -1.3154 -0.1937
   74MOL0     H 9708   5.430   6.619   3.517  0.3029  0.0948 -1.0059
   74MOL0     H 9709   5.562   6.555   3.745  0.4565  1.3926 -0.2897
   74MOL0     H 9710   5.586   6.398   3.661  0.8954  0.7735 -6.9307
   74MOL0     H 9711   5.313   6.521   3.688  0.4126 -0.6017  0.7743
   74MOL0     H 9712   5.351   6.353   3.647  0.7428  0.0928  0.2495
   74MOL0     H 9713   5.416   6.438   3.933 -1.6850  0.0930  0.6098
   74MOL0     H 9714   5.416   6.281   3.874  0.9800 -0.0537  0.7752
   74MOL0     H 9715   5.184   6.480   3.884 -0.5090 -0.2490  1.8770
   74MOL0     H 9716   5.197   6.338   4.004  0.3464 -1.2148 -0.9831
   74MOL0     H 9717   5.129   6.314   3.713  3.7186  2.1200  0.1194
   74MOL0     H 9718   5.191   6.185   3.815 -0.4172  0.8013  1.8759
   74MOL0     H 9719   4.955   6.357   3.895  1.4635  0.8378  1.5312
   74MOL0     H 9720   4.987   6.201   3.970 -1.9834  0.5054 -0.2395
   74MOL0     H 9721   4.992   5.978   3.735 -1.9137 -2.8144  0.7360
   74MOL0     H 9722   4.778   5.802   3.686  3.7406  0.9242 -2.9324
   74MOL0     H 9723   4.807   5.888   3.541  3.3769 -0.0198  2.4963
   74MOL0     H 9724   4.560   5.789   3.549 -0.1872 -0.1485 -0.0397
   74MOL0     H 9725   4.551   5.963   3.563  0.8914 -0.4656 -1.0968
   74MOL0     H 9726   4.574   5.791   3.803  1.2198  1.9607  1.3575
   74MOL0     H 9727   4.555   5.969   3.800 -1.9013  0.2723  0.0152
   74MOL0     H 9728   4.322   5.934   3.715  1.0185 -1.5740 -2.6227
   74MOL0     H 9729   4.355   5.850   3.874 -0.7256  4.1307  0.1899
   74MOL0     H 9730   4.141   5.819   3.873 -1.3980 -1.3414  1.8057
   74MOL0     H 9731   3.903   5.755   3.845 -1.4775  2.1107 -3.4435
   74MOL0     H 9732   3.579   5.733   3.510 -1.3690  1.8797 -0.8084
   74MOL0     H 9733   3.354   5.725   3.464  1.3607  1.0511  0.6900
   74MOL0     H 9734   3.138   5.665   3.437  0.0942  2.1271 -0.8336
   74MOL0     H 9735   3.122   5.782   3.569  2.0219  0.5361 -3.0439
   74MOL0     H 9736   2.930   5.646   3.650  0.8028  2.1342  1.0226
   74MOL0     H 9737   2.943   5.550   3.493 -3.3066  1.0752 -1.0764
   74MOL0     H 9738   2.906   5.766   3.370  0.8414  0.7796  0.3422
   74MOL0     H 9739   2.885   5.852   3.516 -1.6335  0.0302  0.1066
   74MOL0     H 9740   2.714   5.624   3.417 -2.5324 -1.8694  1.3604
   74MOL0     H 9741   2.694   5.700   3.576  0.0277  0.4947 -0.6750
   74MOL0     H 9742   2.668   5.813   3.315 -1.7679 -5.2179 -0.3521
   74MOL0     H 9743   2.666   5.915   3.466  0.5149 -2.0489  4.6263
   74MOL0     H 9744   2.462   5.764   3.543  0.4490  0.3676  0.1288
   74MOL0     H 9745   2.471   5.684   3.388 -1.1868 -0.2259  1.6371
   74MOL0     H 9746   2.397   5.956   3.438  1.3504  1.5073 -1.2634
   74MOL0     H 9747   2.460   5.910   3.280  2.4678 -0.4292  1.1702
   74MOL0     H 9748   2.197   5.898   3.378  1.5834  0.5652  3.1875
   74MOL0     H 9749   2.255   5.732   3.398  0.2608 -1.0826 -2.3861
   74MOL0     H 9750   3.281   5.511   3.856  0.8823 -0.5223 -0.2378
   74MOL0     H 9751   3.523   5.533   3.892  1.5110  1.0189 -0.8537
   74MOL0     H 9752   4.005   5.464   3.545 -1.6138  1.3744 -1.6807
   74MOL0     H 9753   4.241   5.537   3.567 -0.0833  0.5379 -0.1309
   74MOL0     H 9754   5.885   6.648   3.404  2.0529  0.2614 -0.6762
   74MOL0     H 9755   6.060   6.768   3.272  0.0469  1.2844 -2.8972
   74MOL0     H 9756   6.077   7.272   2.879  0.2374  0.2717 -0.3381
   74MOL0     H 9757   6.277   7.321   2.738  1.2908 -0.6376  0.2504
   74MOL0     H 9758   6.632   7.331   2.702  0.8150 -2.1805  0.6760
   74MOL0     H 9759   6.472   7.389   2.734  1.0678  0.7424 -0.5365
   74MOL0     H 9760   6.562   7.250   2.482  1.1178  0.7412  1.1810
   74MOL0     H 9761   6.388   7.298   2.531 -0.2229  0.3309  1.8131
   74MOL0     H 9762   6.615   7.480   2.458  0.8140  0.1842 -0.5663
   74MOL0     H 9763   6.462   7.528   2.543  0.2619 -2.1883  2.0351
   74MOL0     H 9764   6.455   7.401   2.262 -1.2493  0.2062 -0.1285
   74MOL0     H 9765   6.319   7.454   2.354 -0.0820 -0.5501 -0.6072
   74MOL0     H 9766   6.391   7.828   2.248 -0.9679 -1.0158 -2.4556
   74MOL0     H 9767   6.470   6.969   2.894  0.3962  0.8459 -1.0852
   74MOL0     H 9768   6.261   6.909   2.999  2.0932 -1.2175 -0.7091
   75MOL0     O 9769   9.137   7.616   7.549  0.6298 -0.4310  0.8252
   75MOL0     C 9770   9.169   7.521   7.479  0.6209  0.4053  0.5004
   75MOL0     O 9771   9.094   7.466   7.382 -0.0814 -0.4738  0.4301
   75MOL0     C 9772   8.964   7.503   7.359  0.0613 -0.8065 -0.2409
   75MOL0     C 9773   8.862   7.478   7.445 -0.4011 -1.1755  0.7312
   75MOL0     C 9774   8.731   7.498   7.411 -0.2169 -1.0466 -1.0078
   75MOL0     C 9775   8.701   7.552   7.281 -0.7282 -0.1266  0.4945
   75MOL0     O 9776   8.571   7.571   7.239  0.7339 -1.0891 -0.0114
   75MOL0     C 9777   8.469   7.489   7.303 -0.2297  0.3830 -0.1473
   75MOL0     C 9778   8.356   7.477   7.201  0.1427 -0.1956 -0.1110
   75MOL0     C 9779   8.234   7.419   7.253 -1.6142  0.5824  0.5140
   75MOL0     C 9780   8.151   7.362   7.136  0.1979  0.5428 -0.7602
   75MOL0     C 9781   8.016   7.314   7.190  0.6186  0.2785 -0.3676
   75MOL0     C 9782   7.951   7.217   7.089 -0.4232 -0.3760  0.3994
   75MOL0     C 9783   7.811   7.157   7.128  0.0707 -0.1688  0.0606
   75MOL0     C 9784   7.756   7.033   7.055  0.4987  0.6268  1.1000
   75MOL0     N 9785   7.612   7.037   7.066  0.2837  0.0889 -0.1445
   75MOL0     C 9786   7.532   7.086   6.972 -0.7810 -0.6089  0.6174
   75MOL0     C 9787   7.408   7.102   7.029 -0.2508 -0.3948 -0.3111
   75MOL0     C 9788   7.286   7.166   6.972  0.1780  0.1500 -0.1002
   75MOL0     C 9789   7.290   7.314   7.016  0.1329 -0.9991  0.3864
   75MOL0     C 9790   7.157   7.373   7.015 -0.4012  0.1654  0.2263
   75MOL0     C 9791   7.100   7.425   6.880 -0.2955 -0.2932 -0.0676
   75MOL0     O 9792   7.111   7.328   6.777  0.0775  0.2029  0.4302
   75MOL0     C 9793   7.011   7.232   6.764  0.3229  0.5998  0.5358
   75MOL0     C 9794   6.891   7.216   6.837 -0.1343  0.6889 -0.2465
   75MOL0     C 9795   6.790   7.132   6.794  0.2246 -0.7152  0.1296
   75MOL0     C 9796   6.804   7.056   6.678 -0.2686 -0.3528  0.1951
   75MOL0     C 9797   6.681   6.986   6.616 -0.7378 -0.0926 -0.1055
   75MOL0     O 9798   6.592   6.947   6.698  0.4417  0.2923 -0.0921
   75MOL0     C 9799   6.458   6.936   6.664  0.6507  0.3686  0.4854
   75MOL0     C 9800   6.384   6.906   6.782 -0.3659  0.3135  0.6888
   75MOL0     C 9801   6.243   6.894   6.781 -0.0182  0.0538 -0.1470
   75MOL0     C 9802   6.172   6.926   6.662  0.3326  0.9702 -0.4647
   75MOL0     O 9803   6.036   6.897   6.666  0.2593 -0.4306 -0.4470
   75MOL0     C 9804   5.969   6.855   6.547 -0.3310  0.3094 -0.2966
   75MOL0     C 9805   5.830   6.825   6.590  0.3521  0.0393  0.5834
   75MOL0     C 9806   5.725   6.773   6.482 -0.4930  0.5606  0.6770
   75MOL0     C 9807   5.598   6.724   6.541 -0.4566 -0.1808  0.5069
   75MOL0     C 9808   5.509   6.659   6.435  0.0837  0.2141  0.3049
   75MOL0     C 9809   5.382   6.641   6.502  0.4266 -0.5114  0.1204
   75MOL0     C 9810   5.299   6.522   6.429 -0.4884  0.2341 -0.5211
   75MOL0     C 9811   5.214   6.576   6.320 -0.0258 -0.5629 -0.1744
   75MOL0    Cl 9812   5.103   6.455   6.283 -0.1787 -0.2065  0.2203
   75MOL0     C 9813   6.245   6.945   6.546 -0.1694 -0.2687 -0.0883
   75MOL0     C 9814   6.385   6.962   6.547 -1.4170  0.2729 -0.6044
   75MOL0     O 9815   6.686   6.954   6.501  0.9371  0.3691  0.2259
   75MOL0     C 9816   6.928   7.065   6.613 -0.2516 -0.2599 -0.0413
   75MOL0     C 9817   7.027   7.150   6.650 -0.2956  0.2103  0.1698
   75MOL0     N 9818   7.428   7.064   7.164 -0.6284 -1.3338 -0.7273
   75MOL0     N 9819   7.549   7.023   7.180  0.1531  0.0498  0.0184
   75MOL0     C 9820   8.806   7.568   7.194  0.1027 -0.0287  0.4446
   75MOL0     C 9821   8.936   7.553   7.231 -0.1717 -0.5597  0.0455
   75MOL0     C 9822   9.291   7.451   7.517 -0.6025 -0.2371 -1.0100
   75MOL0     C 9823   9.412   7.504   7.572  0.8630 -0.2984  0.4442
   75MOL0     C 9824   9.524   7.428   7.581 -0.3464 -0.2177  0.0937
   75MOL0     C 9825   9.527   7.296   7.557 -0.1090  0.7080  0.5071
   75MOL0     O 9826   9.642   7.226   7.562  0.1007  1.0115 -0.3418
   75MOL0     C 9827   9.649   7.080   7.536 -0.3815  0.2009  0.1396
   75MOL0     C 9828   9.770   7.021   7.598  0.0776 -0.4038  0.9209
   75MOL0     C 9829   9.909   7.070   7.551 -0.6365 -0.4311 -0.0594
   75MOL0     C 9830   9.954   7.024   7.417  0.8529  0.0489 -0.2824
   75MOL0     C 9831  10.078   7.090   7.385 -0.8846 -0.5223 -0.0516
   75MOL0     C 9832  10.181   7.139   7.345 -0.5123 -1.5325  0.5165
   75MOL0     C 9833   9.404   7.241   7.514 -0.5978  0.7469  0.4004
   75MOL0     C 9834   9.288   7.314   7.495 -0.5684 -0.4758 -0.2136
   75MOL0     H 9835   8.884   7.436   7.543  0.6470 -1.0766  0.5515
   75MOL0     H 9836   8.654   7.471   7.482  2.2883 -1.5104  1.7280
   75MOL0     H 9837   8.425   7.538   7.391  0.5735  0.1255  0.4105
   75MOL0     H 9838   8.498   7.387   7.331 -3.4136 -0.4729  0.4843
   75MOL0     H 9839   8.389   7.411   7.121 -2.0722  2.7903 -3.8677
   75MOL0     H 9840   8.344   7.579   7.161  2.0239  0.3756  0.6727
   75MOL0     H 9841   8.180   7.501   7.303  3.1293  3.4321  1.5974
   75MOL0     H 9842   8.270   7.343   7.321  0.3380 -0.0220 -1.1036
   75MOL0     H 9843   8.133   7.430   7.053  2.5543 -0.5219 -2.2435
   75MOL0     H 9844   8.210   7.280   7.092  2.1679  0.8086  1.1936
   75MOL0     H 9845   7.949   7.394   7.221  0.9359  0.1827  0.5853
   75MOL0     H 9846   8.036   7.263   7.284  0.2845  0.5428 -0.1524
   75MOL0     H 9847   8.020   7.135   7.068  2.7941  1.3470  3.2892
   75MOL0     H 9848   7.928   7.265   6.993  1.0213 -0.3363  0.0504
   75MOL0     H 9849   7.817   7.120   7.230 -1.7050 -0.4807  0.0813
   75MOL0     H 9850   7.741   7.240   7.116  1.5098  1.0497 -0.2251
   75MOL0     H 9851   7.811   6.947   7.094  1.5139  0.1749 -1.1733
   75MOL0     H 9852   7.771   7.032   6.946  3.6809 -1.2469  1.4013
   75MOL0     H 9853   7.561   7.108   6.870  0.2492 -4.2980 -0.0197
   75MOL0     H 9854   7.202   7.109   7.013  0.6318  1.2568  2.5595
   75MOL0     H 9855   7.291   7.170   6.863  2.4034  2.5276 -0.0041
   75MOL0     H 9856   7.359   7.371   6.953  0.1327 -1.8603 -0.4065
   75MOL0     H 9857   7.317   7.319   7.122 -3.8586 -0.7090  1.5857
   75MOL0     H 9858   7.077   7.312   7.058 -0.3155  0.3030  0.5844
   75MOL0     H 9859   7.160   7.452   7.090 -0.1935  0.1057  0.2815
   75MOL0     H 9860   7.158   7.515   6.858  0.0897 -0.1979  1.2519
   75MOL0     H 9861   6.996   7.460   6.877  0.4771  2.0842 -1.9462
   75MOL0     H 9862   6.874   7.277   6.925  1.1909  0.8956 -0.1208
   75MOL0     H 9863   6.688   7.148   6.828  0.0943  0.3259 -0.7173
   75MOL0     H 9864   6.436   6.874   6.871  0.7475 -0.1870 -0.1162
   75MOL0     H 9865   6.193   6.875   6.876 -1.5616 -0.7508 -1.0840
   75MOL0     H 9866   6.012   6.763   6.505 -1.5547 -0.2402 -0.3766
   75MOL0     H 9867   5.970   6.942   6.481 -1.0098  1.2971  0.9474
   75MOL0     H 9868   5.789   6.908   6.648  1.8984 -0.2380  2.1284
   75MOL0     H 9869   5.838   6.746   6.665 -3.2296 -2.8741 -1.7130
   75MOL0     H 9870   5.763   6.701   6.410 -0.8019  0.5697  0.5067
   75MOL0     H 9871   5.695   6.858   6.420 -0.6585 -0.5542 -0.8042
   75MOL0     H 9872   5.624   6.650   6.618 -1.3976 -1.2182 -0.1409
   75MOL0     H 9873   5.544   6.799   6.599 -1.8580 -0.1839 -0.7505
   75MOL0     H 9874   5.557   6.566   6.405  0.7870  0.7447 -0.2345
   75MOL0     H 9875   5.498   6.728   6.351  0.2917  1.4274  1.2574
   75MOL0     H 9876   5.331   6.737   6.488  1.7920  0.1346 -0.5728
   75MOL0     H 9877   5.377   6.626   6.611 -0.2084  2.4799  0.6005
   75MOL0     H 9878   5.355   6.430   6.408  1.7687  1.1715  1.0667
   75MOL0     H 9879   5.224   6.497   6.504 -0.2836  0.7169 -0.1534
   75MOL0     H 9880   5.270   6.600   6.229  0.1785 -3.0260 -0.7736
   75MOL0     H 9881   5.155   6.663   6.348  0.8198  0.3908 -1.2325
   75MOL0     H 9882   6.191   6.943   6.452 -2.3758 -0.8314  1.1265
   75MOL0     H 9883   6.429   6.991   6.453  1.1781  0.0479  0.4419
   75MOL0     H 9884   6.948   7.010   6.522 -0.0972  0.9031 -0.7325
   75MOL0     H 9885   7.114   7.162   6.587 -0.5275  2.1340  0.1643
   75MOL0     H 9886   8.791   7.599   7.090 -1.3730 -1.2004  0.2784
   75MOL0     H 9887   9.008   7.584   7.157  1.3400  1.2137  2.1444
   75MOL0     H 9888   9.412   7.607   7.607  0.1963  0.3098 -1.2328
   75MOL0     H 9889   9.618   7.474   7.610 -1.0080  0.4014  1.3240
   75MOL0     H 9890   9.651   7.062   7.428  0.4526  2.6150 -0.3068
   75MOL0     H 9891   9.565   7.036   7.590 -0.1997  2.0005  1.9686
   75MOL0     H 9892   9.771   7.051   7.704  1.8003  1.1714  0.5262
   75MOL0     H 9893   9.780   6.912   7.597  1.3322 -0.3105  0.7625
   75MOL0     H 9894   9.982   7.038   7.626 -1.0113  2.4201  1.6745
   75MOL0     H 9895   9.915   7.179   7.552 -0.4937 -0.3958 -1.4671
   75MOL0     H 9896   9.965   6.915   7.410  0.7383 -0.1349  1.7871
   75MOL0     H 9897   9.887   7.063   7.340  1.8528 -0.7432 -1.6087
   75MOL0     H 9898  10.273   7.175   7.304 -2.2383  1.1031 -1.3177
   75MOL0     H 9899   9.389   7.138   7.483 -0.4700  1.5015 -2.4133
   75MOL0     H 9900   9.195   7.269   7.460  0.0704 -1.8580 -0.2181
   76MOL0     O 9901   0.182   7.905   3.512  0.8117  0.2469  0.0578
   76MOL0     C 9902   0.258   7.943   3.607  0.0381  0.7898  0.5940
   76MOL0     O 9903   0.234   7.920   3.738 -0.4985 -0.0517 -0.3553
   76MOL0     C 9904   0.120   7.845   3.765  0.0434 -0.9015 -0.1635
   76MOL0     C 9905   0.120   7.707   3.781  0.1853  0.0385  0.0291
   76MOL0     C 9906   0.014   7.626   3.821 -0.2955  0.3103  0.4745
   76MOL0     C 9907  -0.106   7.688   3.840 -0.1890  0.2891  0.3694
   76MOL0     O 9908  -0.219   7.625   3.881  0.5438  0.5408  0.2648
   76MOL0     C 9909  -0.210   7.487   3.908 -0.8878  0.2112 -0.5410
   76MOL0     C 9910  -0.344   7.424   3.947  1.0612  0.0892 -0.0533
   76MOL0     C 9911  -0.469   7.510   3.906  0.6110  0.5170  0.1888
   76MOL0     C 9912  -0.596   7.419   3.923 -0.1931 -0.5401 -0.8180
   76MOL0     C 9913  -0.727   7.509   3.937  0.1200  0.0609  0.3044
   76MOL0     C 9914  -0.846   7.408   3.948 -0.9393  0.4734  0.3289
   76MOL0     C 9915  -0.982   7.482   3.949 -0.9388 -0.1115  0.0269
   76MOL0     C 9916  -1.086   7.380   3.952  0.6588  0.1702 -0.2540
   76MOL0     N 9917  -1.218   7.447   3.984 -0.5160  0.6851  0.4133
   76MOL0     C 9918  -1.302   7.529   3.905 -0.4096 -0.2562 -0.5219
   76MOL0     C 9919  -1.424   7.531   3.965  0.1272  0.6475 -0.6188
   76MOL0     C 9920  -1.554   7.602   3.930  0.0245  0.8422 -0.1992
   76MOL0     C 9921  -1.671   7.503   3.943 -0.0228  0.2226  0.4063
   76MOL0     C 9922  -1.807   7.562   3.903 -0.4521 -0.3263 -0.1269
   76MOL0     C 9923  -1.848   7.682   3.993  0.8611 -0.3478  0.3051
   76MOL0     O 9924  -1.985   7.716   3.964  0.1440 -0.1941  0.6419
   76MOL0     C 9925  -2.075   7.732   4.061 -0.1644  0.1114  0.0685
   76MOL0     C 9926  -2.193   7.771   4.002 -0.5754  0.0491  0.6027
   76MOL0     C 9927  -2.313   7.789   4.073 -0.3873 -0.1108 -0.5200
   76MOL0     C 9928  -2.310   7.766   4.215  0.4633 -0.1731 -0.3026
   76MOL0     C 9929  -2.428   7.794   4.302  0.4548 -0.0177 -0.0255
   76MOL0     O 9930  -2.423   7.743   4.428  0.5843 -0.3092 -0.4765
   76MOL0     C 9931  -2.507   7.786   4.527  0.3915 -0.4483 -0.0255
   76MOL0     C 9932  -2.638   7.822   4.498 -0.7273 -0.1038  0.2598
   76MOL0     C 9933  -2.721   7.872   4.602 -0.6165 -0.8620  0.1772
   76MOL0     C 9934  -2.667   7.883   4.728  0.0344 -0.2147 -0.7557
   76MOL0     O 9935  -2.747   7.967   4.802  0.3766 -0.0039  0.3691
   76MOL0     C 9936  -2.756   7.937   4.936 -0.7416 -0.3802 -0.4944
   76MOL0     C 9937  -2.873   8.013   4.996 -0.4023 -0.2015 -0.6502
   76MOL0     C 9938  -2.997   7.948   4.943 -0.1597 -0.0655 -1.7649
   76MOL0     C 9939  -3.112   8.009   5.016  0.6060 -0.4470  0.3098
   76MOL0     C 9940  -3.244   7.937   4.993 -0.1553  0.4341  0.9819
   76MOL0     C 9941  -3.358   7.991   5.085  0.0598  0.2769 -0.6200
   76MOL0     C 9942  -3.463   8.093   5.045  0.2473 -0.5141 -0.4123
   76MOL0     C 9943  -3.457   8.147   4.900 -0.2047  1.1590 -1.0531
   76MOL0    Cl 9944  -3.541   8.031   4.787  0.0197  0.5607  0.0312
   76MOL0     C 9945  -2.541   7.849   4.764  0.7674  0.2397  0.0631
   76MOL0     C 9946  -2.461   7.795   4.657 -0.0593 -1.5483  0.2036
   76MOL0     O 9947  -2.521   7.865   4.253 -0.3587  0.0876  0.1166
   76MOL0     C 9948  -2.187   7.731   4.278 -0.2000 -0.3740  0.1343
   76MOL0     C 9949  -2.071   7.716   4.198  0.4008 -0.1385 -0.0337
   76MOL0     N 9950  -1.414   7.445   4.077  0.6026 -0.8000  0.9392
   76MOL0     N 9951  -1.299   7.398   4.087 -0.4261  0.2454  0.1059
   76MOL0     C 9952  -0.112   7.830   3.821  0.2270 -0.4137 -0.3309
   76MOL0     C 9953   0.003   7.907   3.797  0.3682 -0.3176  0.0646
   76MOL0     C 9954   0.384   8.007   3.559  0.5461 -0.1457 -0.3805
   76MOL0     C 9955   0.415   8.010   3.426  0.4735 -0.2515  0.2967
   76MOL0     C 9956   0.534   8.082   3.383 -0.5856 -0.1462  0.1545
   76MOL0     C 9957   0.622   8.146   3.479 -0.0281 -0.4188 -0.9650
   76MOL0     O 9958   0.743   8.208   3.458 -0.4575  0.5773  0.5887
   76MOL0     C 9959   0.804   8.201   3.324 -0.7144 -0.3798  0.2901
   76MOL0     C 9960   0.890   8.077   3.298 -0.9990  0.5614 -0.1787
   76MOL0     C 9961   1.016   8.067   3.381  0.2953  0.2687  0.3275
   76MOL0     C 9962   0.999   8.051   3.527  0.3851 -0.5996  0.0344
   76MOL0     C 9963   0.936   7.922   3.557 -0.7164  0.1430  0.1278
   76MOL0     C 9964   0.887   7.814   3.577 -0.1337  0.4669 -0.6737
   76MOL0     C 9965   0.580   8.137   3.617  0.5109 -0.2024 -0.1219
   76MOL0     C 9966   0.465   8.070   3.655 -0.5197 -0.0053  0.2941
   76MOL0     H 9967   0.216   7.658   3.778 -0.4017 -1.0976 -1.5230
   76MOL0     H 9968   0.029   7.519   3.835 -2.4348 -0.4322 -2.0571
   76MOL0     H 9969  -0.141   7.461   3.989 -1.8204  2.0489  0.9221
   76MOL0     H 9970  -0.173   7.437   3.818  1.8038  0.5727  0.2987
   76MOL0     H 9971  -0.343   7.409   4.055  1.1235  3.0669  0.4299
   76MOL0     H 9972  -0.342   7.330   3.890 -2.4134  0.8057 -1.6118
   76MOL0     H 9973  -0.471   7.560   3.809 -2.5183  2.6690  1.1899
   76MOL0     H 9974  -0.484   7.594   3.975 -1.8838  0.9806 -0.8164
   76MOL0     H 9975  -0.601   7.353   3.836  2.6908 -1.5068 -0.3438
   76MOL0     H 9976  -0.586   7.345   4.003  2.9474  2.7797  2.2490
   76MOL0     H 9977  -0.754   7.581   3.859 -1.8766  2.0280  2.6356
   76MOL0     H 9978  -0.721   7.572   4.027  0.0956  1.9824 -0.9795
   76MOL0     H 9979  -0.843   7.358   4.045  1.7581  0.6859  0.4141
   76MOL0     H 9980  -0.848   7.335   3.867 -1.0911  0.8619 -0.0246
   76MOL0     H 9981  -0.997   7.545   4.036 -1.1944 -2.6158  1.9206
   76MOL0     H 9982  -0.985   7.541   3.857  2.9388  1.3884  0.6743
   76MOL0     H 9983  -1.065   7.309   4.032  0.9476  1.9961  1.3617
   76MOL0     H 9984  -1.092   7.332   3.854  1.4484 -1.3173  0.3833
   76MOL0     H 9985  -1.276   7.588   3.818  2.3548 -0.3419  0.1225
   76MOL0     H 9986  -1.552   7.629   3.823  0.8214 -0.3265 -0.4966
   76MOL0     H 9987  -1.566   7.690   3.994 -1.1087  0.8408 -0.3834
   76MOL0     H 9988  -1.692   7.480   4.048 -0.4598 -0.6231  0.1422
   76MOL0     H 9989  -1.638   7.414   3.890 -2.0743 -2.3566  3.1441
   76MOL0     H 9990  -1.808   7.606   3.803  1.7951 -1.7349 -0.8352
   76MOL0     H 9991  -1.884   7.486   3.919 -2.0272  1.6230  2.4376
   76MOL0     H 9992  -1.793   7.774   3.972  1.4930 -0.7988 -0.0633
   76MOL0     H 9993  -1.821   7.652   4.095  1.9668 -0.4914 -0.0156
   76MOL0     H 9994  -2.199   7.785   3.895  0.9596 -0.7000  0.3875
   76MOL0     H 9995  -2.398   7.833   4.022 -0.9209  2.0246  2.0020
   76MOL0     H 9996  -2.693   7.821   4.404 -3.3370  1.6793  1.6448
   76MOL0     H 9997  -2.826   7.897   4.588 -1.0443 -3.3188 -1.6720
   76MOL0     H 9998  -2.664   7.969   4.985 -0.0211 -1.4164 -1.1364
   76MOL0     H 9999  -2.765   7.829   4.951  0.5111 -0.7242 -1.9546
   76MOL0     H10000  -2.869   8.121   4.978  5.8814  0.6769  2.8020
   76MOL0     H10001  -2.874   8.011   5.106  3.0528 -1.0907 -0.5000
   76MOL0     H10002  -2.987   7.840   4.958  1.2485  0.0830 -1.4905
   76MOL0     H10003  -3.008   7.966   4.836 -0.2367 -0.6361 -1.8554
   76MOL0     H10004  -3.098   8.037   5.121  0.4593 -0.4259  0.3248
   76MOL0     H10005  -3.116   8.111   4.977  2.1362 -0.9961 -1.4300
   76MOL0     H10006  -3.218   7.834   5.020  3.8589  0.6517 -1.2711
   76MOL0     H10007  -3.283   7.936   4.891 -1.6444 -3.4800  1.4385
   76MOL0     H10008  -3.312   8.033   5.175  1.1466  3.3420 -2.4653
   76MOL0     H10009  -3.411   7.900   5.114  3.1708 -1.2126  0.9172
   76MOL0     H10010  -3.562   8.062   5.080  0.5629 -3.3754 -1.7698
   76MOL0     H10011  -3.439   8.177   5.111  1.6550  0.0704 -1.6056
   76MOL0     H10012  -3.351   8.167   4.879 -0.7395  2.2825 -2.9836
   76MOL0     H10013  -3.518   8.238   4.895  1.0111  2.4239  2.9777
   76MOL0     H10014  -2.515   7.846   4.869  0.2442 -0.3068  0.1817
   76MOL0     H10015  -2.357   7.765   4.664  0.3469 -1.0516 -2.5127
   76MOL0     H10016  -2.166   7.747   4.383  0.9456 -0.5284 -0.0531
   76MOL0     H10017  -1.975   7.698   4.244  1.0644 -0.8156 -1.6306
   76MOL0     H10018  -0.203   7.876   3.859 -0.8757 -0.4610 -2.7644
   76MOL0     H10019   0.010   8.015   3.794  0.2761 -0.2316  1.8425
   76MOL0     H10020   0.349   7.954   3.362 -0.1483  1.4068 -0.5703
   76MOL0     H10021   0.561   8.081   3.278 -2.0537 -3.6418 -0.3128
   76MOL0     H10022   0.880   8.279   3.316  0.7722 -1.6656  1.3166
   76MOL0     H10023   0.727   8.212   3.247 -0.0978  1.3628 -0.1127
   76MOL0     H10024   0.819   7.993   3.300 -1.9165  1.2906 -0.8645
   76MOL0     H10025   0.920   8.074   3.193  1.7109 -1.4011  0.5532
   76MOL0     H10026   1.084   8.150   3.361  0.9415 -0.5781 -1.1501
   76MOL0     H10027   1.074   7.980   3.350  1.4130  0.8677  0.6789
   76MOL0     H10028   1.099   8.047   3.572  0.6162 -0.1506 -0.4250
   76MOL0     H10029   0.938   8.129   3.573  2.0121  0.8201 -0.1103
   76MOL0     H10030   0.855   7.715   3.606  3.8430 -0.7821 -0.0265
   76MOL0     H10031   0.648   8.161   3.698 -4.0460  2.1438  3.4771
   76MOL0     H10032   0.432   8.069   3.759 -1.7025 -0.8811 -0.0708
   77MOL0     O10033   1.236   4.308   7.079 -0.5329  0.1155  0.1556
   77MOL0     C10034   1.250   4.247   7.181  0.6408  0.9992  0.9111
   77MOL0     O10035   1.144   4.184   7.242  0.0565  0.0805 -0.2984
   77MOL0     C10036   1.008   4.222   7.227 -0.2103  0.5783 -0.2663
   77MOL0     C10037   0.928   4.156   7.315  0.4607 -0.3094 -0.1599
   77MOL0     C10038   0.783   4.161   7.314 -0.2928 -0.3007 -0.4229
   77MOL0     C10039   0.719   4.234   7.214  0.0681 -0.2480 -0.0144
   77MOL0     O10040   0.582   4.257   7.203  0.1825  0.2985 -0.3581
   77MOL0     C10041   0.488   4.149   7.237 -0.4979  0.0036 -1.6101
   77MOL0     C10042   0.348   4.159   7.176 -0.4095  0.9725  0.3045
   77MOL0     C10043   0.260   4.032   7.204  0.0388 -0.8189  0.3862
   77MOL0     C10044   0.120   4.024   7.147  0.2488  1.2975  1.1752
   77MOL0     C10045   0.088   3.874   7.135 -0.8965 -0.1107 -0.2033
   77MOL0     C10046  -0.067   3.861   7.125 -0.4484  0.6031 -0.4437
   77MOL0     C10047  -0.122   3.806   7.262 -0.1799  1.5501 -0.0971
   77MOL0     C10048  -0.273   3.805   7.285  0.3483  0.4641 -0.5682
   77MOL0     N10049  -0.353   3.712   7.202 -0.7651  0.0911 -0.3090
   77MOL0     C10050  -0.317   3.582   7.172 -0.8814  0.0680  0.6728
   77MOL0     C10051  -0.414   3.525   7.097 -0.3870 -0.0580 -0.1409
   77MOL0     C10052  -0.417   3.393   7.034 -0.7779 -0.0896 -0.5909
   77MOL0     C10053  -0.419   3.284   7.143 -1.1706 -0.9985  0.3099
   77MOL0     C10054  -0.531   3.288   7.239 -1.0022 -0.8041  0.1662
   77MOL0     C10055  -0.668   3.310   7.175  0.1092 -0.7737  0.3567
   77MOL0     O10056  -0.765   3.271   7.269 -0.3117 -1.3273 -0.2747
   77MOL0     C10057  -0.890   3.314   7.249 -0.0734 -0.1489  1.3540
   77MOL0     C10058  -0.977   3.275   7.348  0.1919  0.6560 -0.2346
   77MOL0     C10059  -1.099   3.327   7.355 -0.7823  0.1447 -0.0243
   77MOL0     C10060  -1.147   3.410   7.257  0.8671 -1.0005  0.3267
   77MOL0     C10061  -1.277   3.460   7.271 -0.4126 -0.1569 -0.4154
   77MOL0     O10062  -1.318   3.556   7.178  0.2677 -0.1533 -0.0456
   77MOL0     C10063  -1.451   3.593   7.183 -0.4999  1.2388 -0.4150
   77MOL0     C10064  -1.484   3.715   7.232 -0.4372  0.5465 -0.5511
   77MOL0     C10065  -1.622   3.735   7.263  0.5976 -0.5173  0.5390
   77MOL0     C10066  -1.719   3.642   7.229  0.7731 -0.1878  0.6656
   77MOL0     O10067  -1.843   3.673   7.265 -0.7476 -0.0499  0.7322
   77MOL0     C10068  -1.943   3.590   7.218  0.4424  0.9884 -0.6098
   77MOL0     C10069  -2.077   3.633   7.264 -0.1645  0.9385 -0.0978
   77MOL0     C10070  -2.101   3.588   7.403  0.4543 -0.3391  0.2169
   77MOL0     C10071  -2.240   3.604   7.451 -0.7957  0.1809  0.5110
   77MOL0     C10072  -2.267   3.521   7.582 -0.7633  0.7213  0.1753
   77MOL0     C10073  -2.174   3.563   7.705 -0.3623 -0.0687  0.3060
   77MOL0     C10074  -2.207   3.473   7.825  0.6072 -0.2279 -0.2090
   77MOL0     C10075  -2.158   3.321   7.832  1.0390 -0.2790 -0.0362
   77MOL0    Cl10076  -1.980   3.300   7.838  0.0465  0.3559 -0.3331
   77MOL0     C10077  -1.687   3.532   7.161  0.4311  0.7028 -0.4705
   77MOL0     C10078  -1.552   3.493   7.152 -0.4398 -0.1020  0.3024
   77MOL0     O10079  -1.351   3.410   7.354  0.1317 -0.0987 -0.0788
   77MOL0     C10080  -1.071   3.442   7.143 -0.5749 -0.0987 -0.7062
   77MOL0     C10081  -0.939   3.387   7.139 -1.1813 -0.6148  0.1550
   77MOL0     N10082  -0.509   3.621   7.088  1.5728 -0.0278 -0.1207
   77MOL0     N10083  -0.471   3.731   7.135 -0.5112  0.4917  0.1521
   77MOL0     C10084   0.813   4.311   7.133 -0.1147 -0.5100  0.7816
   77MOL0     C10085   0.950   4.301   7.135 -0.2407 -0.5226 -0.0012
   77MOL0     C10086   1.386   4.244   7.231 -0.5358  0.2838  0.3500
   77MOL0     C10087   1.491   4.272   7.143 -0.4376  0.3983 -0.0122
   77MOL0     C10088   1.620   4.267   7.200 -0.0349 -0.2045 -0.3932
   77MOL0     C10089   1.643   4.251   7.344  0.8451 -0.5652 -0.0755
   77MOL0     O10090   1.763   4.257   7.407 -0.0560 -0.3741  0.4597
   77MOL0     C10091   1.887   4.282   7.332 -0.1145 -0.1637  0.7599
   77MOL0     C10092   1.908   4.430   7.325  0.2292 -0.5708 -0.1375
   77MOL0     C10093   2.052   4.463   7.291  0.7862  0.4248 -0.8923
   77MOL0     C10094   2.107   4.423   7.152  0.6288 -0.1791 -0.7964
   77MOL0     C10095   2.248   4.458   7.139  1.0281 -0.8515  0.7519
   77MOL0     C10096   2.366   4.491   7.145  0.5428  0.0079  0.8192
   77MOL0     C10097   1.532   4.237   7.423 -0.0468 -0.5430  0.2105
   77MOL0     C10098   1.400   4.232   7.370  0.0220 -0.0927 -0.2870
   77MOL0     H10099   0.970   4.092   7.392  0.3581 -1.3209 -0.9310
   77MOL0     H10100   0.720   4.112   7.388  1.1633  0.3406  1.3058
   77MOL0     H10101   0.481   4.158   7.346 -0.6881 -0.9811 -1.5324
   77MOL0     H10102   0.539   4.059   7.202  3.0408  1.6797 -1.3021
   77MOL0     H10103   0.360   4.157   7.067 -0.3797  2.5362  0.2519
   77MOL0     H10104   0.292   4.252   7.192 -2.4997 -0.1885  0.0055
   77MOL0     H10105   0.253   4.022   7.313  2.5417 -4.7840  0.3779
   77MOL0     H10106   0.314   3.946   7.163 -1.2928 -0.6270 -1.9878
   77MOL0     H10107   0.047   4.069   7.215  2.1347  1.9245  2.8660
   77MOL0     H10108   0.113   4.070   7.047 -3.3956  0.4915  0.9030
   77MOL0     H10109   0.122   3.822   7.225  1.4666  0.3984 -0.7452
   77MOL0     H10110   0.148   3.831   7.055  3.1949  3.5243  0.5113
   77MOL0     H10111  -0.106   3.792   7.049 -0.0544  0.9383 -0.9577
   77MOL0     H10112  -0.122   3.954   7.108 -1.3470  0.4300  1.3817
   77MOL0     H10113  -0.095   3.701   7.276  0.3294  1.7612  0.6321
   77MOL0     H10114  -0.077   3.856   7.349 -1.9714  0.1553  1.7382
   77MOL0     H10115  -0.323   3.901   7.270 -0.6854 -0.3587 -2.7945
   77MOL0     H10116  -0.293   3.776   7.388 -2.1991  0.6589 -0.9536
   77MOL0     H10117  -0.239   3.515   7.208 -1.4180 -0.0276  1.6939
   77MOL0     H10118  -0.315   3.376   6.997 -0.3683  1.7498 -0.4025
   77MOL0     H10119  -0.499   3.389   6.962  0.1779 -0.1150 -1.7179
   77MOL0     H10120  -0.328   3.296   7.203  0.4785  0.1569 -2.2428
   77MOL0     H10121  -0.422   3.184   7.099 -0.7423 -0.7470 -0.3083
   77MOL0     H10122  -0.529   3.212   7.318  1.0922 -0.0459  0.9061
   77MOL0     H10123  -0.509   3.380   7.294 -0.8105 -0.9902  0.4088
   77MOL0     H10124  -0.665   3.251   7.084 -0.2055 -2.0590  1.1557
   77MOL0     H10125  -0.684   3.417   7.159 -0.6126 -0.6852  1.5504
   77MOL0     H10126  -0.946   3.218   7.435  0.3857 -2.2283 -2.0705
   77MOL0     H10127  -1.168   3.309   7.436  0.8861  0.5305  1.5700
   77MOL0     H10128  -1.411   3.790   7.262  0.1379 -0.8438  1.8266
   77MOL0     H10129  -1.643   3.835   7.298  4.1946  1.5371 -2.4770
   77MOL0     H10130  -1.925   3.487   7.249  4.2231  1.5574 -0.4652
   77MOL0     H10131  -1.935   3.580   7.110  0.7857 -1.1439 -0.4201
   77MOL0     H10132  -2.150   3.591   7.195 -3.2396  1.7147  2.4184
   77MOL0     H10133  -2.094   3.741   7.260  2.6913  1.4715  0.3347
   77MOL0     H10134  -2.049   3.650   7.477 -2.0858  0.0461  1.8112
   77MOL0     H10135  -2.073   3.486   7.429 -0.3504  0.0373  2.9355
   77MOL0     H10136  -2.253   3.712   7.463  1.9201  0.4120  2.4148
   77MOL0     H10137  -2.310   3.568   7.375  2.0461 -2.1615 -1.2130
   77MOL0     H10138  -2.256   3.414   7.563 -0.5022  0.7308  0.2766
   77MOL0     H10139  -2.371   3.536   7.612 -0.1536  2.7356  1.4992
   77MOL0     H10140  -2.188   3.668   7.733 -1.2814  0.3435 -1.5039
   77MOL0     H10141  -2.072   3.549   7.669 -0.3543 -1.5738  0.8542
   77MOL0     H10142  -2.171   3.532   7.910 -1.4213  0.7210  0.0328
   77MOL0     H10143  -2.316   3.472   7.832  0.0525 -0.6518 -5.1205
   77MOL0     H10144  -2.193   3.259   7.749  0.3190 -0.5122  0.4287
   77MOL0     H10145  -2.206   3.266   7.914 -2.2310 -1.0688 -2.2678
   77MOL0     H10146  -1.761   3.458   7.132  1.0417 -0.7239  1.4007
   77MOL0     H10147  -1.529   3.396   7.109  0.2722  0.4276 -0.5470
   77MOL0     H10148  -1.098   3.495   7.052 -0.5620 -0.3108 -0.8335
   77MOL0     H10149  -0.876   3.394   7.050  0.0007 -1.9550  0.8390
   77MOL0     H10150   0.766   4.383   7.066  0.7206  1.4554  2.2085
   77MOL0     H10151   0.996   4.362   7.058 -2.9198  1.3314 -0.2824
   77MOL0     H10152   1.487   4.296   7.037 -0.2003  0.4941 -0.0024
   77MOL0     H10153   1.699   4.278   7.126 -0.0927  0.1016 -0.4099
   77MOL0     H10154   1.889   4.252   7.227  2.6028 -1.0108  0.9877
   77MOL0     H10155   1.974   4.233   7.376 -1.8439 -3.5262  0.7631
   77MOL0     H10156   1.847   4.480   7.249  0.1566  1.6062  1.2453
   77MOL0     H10157   1.881   4.476   7.421  1.2049 -1.8813  0.7925
   77MOL0     H10158   2.108   4.405   7.365  0.3525  0.4126 -0.5705
   77MOL0     H10159   2.057   4.572   7.299  1.3741  0.3533 -0.1636
   77MOL0     H10160   2.107   4.314   7.154  2.9138 -0.2254 -0.7668
   77MOL0     H10161   2.040   4.461   7.074  0.1932 -0.3890 -0.5312
   77MOL0     H10162   2.466   4.527   7.151  0.9724 -1.0994  0.5411
   77MOL0     H10163   1.547   4.241   7.531 -0.4336  0.1698  0.2468
   77MOL0     H10164   1.319   4.212   7.440 -0.1603 -0.0052 -0.4723
   78MOL0     O10165   5.736   7.522   7.760 -0.0063  0.5852  0.3576
   78MOL0     C10166   5.791   7.412   7.742  0.1951 -0.0886  0.0736
   78MOL0     O10167   5.729   7.298   7.713  0.0034 -0.1575  1.0170
   78MOL0     C10168   5.592   7.292   7.710 -0.2517  0.3433  0.1274
   78MOL0     C10169   5.506   7.395   7.667  0.4440  0.3630  0.9324
   78MOL0     C10170   5.367   7.377   7.666 -0.1896  0.2715 -0.1782
   78MOL0     C10171   5.309   7.263   7.716  0.3165 -1.1919  0.6172
   78MOL0     O10172   5.173   7.236   7.735 -0.1938  0.2981 -0.0120
   78MOL0     C10173   5.083   7.342   7.693 -0.8587  0.4071 -0.3991
   78MOL0     C10174   4.946   7.307   7.753  0.0317 -0.4370  0.4529
   78MOL0     C10175   4.835   7.398   7.694 -0.3090 -0.3401 -0.3543
   78MOL0     C10176   4.696   7.338   7.663 -0.5736 -0.1841  0.5856
   78MOL0     C10177   4.618   7.255   7.767 -0.1575  0.5562  0.5351
   78MOL0     C10178   4.488   7.198   7.706 -0.4238  0.0303 -0.6901
   78MOL0     C10179   4.393   7.141   7.815  0.4726  0.9121  0.5339
   78MOL0     C10180   4.252   7.099   7.756 -1.0092 -0.3941 -0.0917
   78MOL0     N10181   4.162   7.043   7.857 -0.0037 -0.8655 -0.5285
   78MOL0     C10182   4.051   6.958   7.841 -0.8733  0.3707  0.2111
   78MOL0     C10183   4.037   6.892   7.960 -0.2773 -0.0310 -0.0659
   78MOL0     C10184   3.926   6.791   7.982  0.9836  0.0045 -0.1004
   78MOL0     C10185   3.786   6.869   7.993 -0.1719  1.0505  0.2398
   78MOL0     C10186   3.678   6.773   8.043  1.2083 -0.4905 -0.3385
   78MOL0     C10187   3.539   6.841   8.032  0.7488 -0.0815 -0.1756
   78MOL0     O10188   3.433   6.762   8.099  0.6273  0.0849  0.2172
   78MOL0     C10189   3.306   6.811   8.086 -0.2532  1.5187 -0.0455
   78MOL0     C10190   3.212   6.727   8.138  0.1915  0.1312  0.1162
   78MOL0     C10191   3.083   6.754   8.137  0.3304 -0.3657 -0.5088
   78MOL0     C10192   3.043   6.890   8.113 -0.5783  0.6066 -0.3858
   78MOL0     C10193   2.911   6.937   8.161  0.0659  0.3741 -0.6899
   78MOL0     O10194   2.873   7.061   8.129  0.5308 -0.8008  0.5590
   78MOL0     C10195   2.743   7.102   8.133  0.5209  0.1931  0.1154
   78MOL0     C10196   2.643   7.030   8.059  0.3233 -0.7265  0.2949
   78MOL0     C10197   2.511   7.086   8.053  0.4848  0.0021 -0.2015
   78MOL0     C10198   2.479   7.218   8.105 -0.5723  0.6573 -0.2020
   78MOL0     O10199   2.360   7.280   8.078 -0.0905 -0.6388  0.6599
   78MOL0     C10200   2.278   7.231   7.973  0.0105 -0.0278 -0.4016
   78MOL0     C10201   2.181   7.340   7.925 -0.1801  0.7363  0.3715
   78MOL0     C10202   2.067   7.363   8.022 -0.3412 -0.4067  0.2437
   78MOL0     C10203   1.942   7.438   7.956 -0.8413 -0.6172 -0.4072
   78MOL0     C10204   1.840   7.336   7.898  0.5976  0.4734  0.1991
   78MOL0     C10205   1.735   7.414   7.811  0.9998  0.8671  0.5197
   78MOL0     C10206   1.639   7.310   7.750 -0.3564  0.4026 -0.3305
   78MOL0     C10207   1.555   7.362   7.629  0.0332 -0.2518  0.2147
   78MOL0    Cl10208   1.492   7.521   7.677  0.3044  0.3634 -0.1916
   78MOL0     C10209   2.581   7.270   8.180 -0.3913 -1.1314  0.1341
   78MOL0     C10210   2.710   7.221   8.197  0.4678 -0.0667 -0.3944
   78MOL0     O10211   2.840   6.856   8.217 -0.8723  0.1304 -0.0467
   78MOL0     C10212   3.137   6.979   8.066  0.2436  0.9083 -0.2183
   78MOL0     C10213   3.266   6.939   8.044 -0.3467 -0.6705  0.2341
   78MOL0     N10214   4.131   6.936   8.056  0.3984 -0.2399 -0.4564
   78MOL0     N10215   4.195   7.034   7.992  0.2054 -0.0463  0.0899
   78MOL0     C10216   5.398   7.159   7.750  0.8955  1.4909  0.2678
   78MOL0     C10217   5.538   7.169   7.751 -0.1900  0.4122  0.8801
   78MOL0     C10218   5.932   7.407   7.764  0.5707 -0.3052 -0.0684
   78MOL0     C10219   6.011   7.516   7.812  0.7851  1.0885 -0.1784
   78MOL0     C10220   6.146   7.513   7.827  0.8353  0.0210 -0.6034
   78MOL0     C10221   6.220   7.399   7.794  0.1799  0.6685  0.6911
   78MOL0     O10222   6.343   7.384   7.844  0.3865 -0.5697  0.9588
   78MOL0     C10223   6.402   7.253   7.855  0.9221  0.0040 -0.0892
   78MOL0     C10224   6.551   7.261   7.884 -0.7857  0.3778 -0.1237
   78MOL0     C10225   6.626   7.331   7.759  0.3941  0.5324  0.2665
   78MOL0     C10226   6.742   7.412   7.816  0.5366  0.4748 -0.6641
   78MOL0     C10227   6.848   7.337   7.880  0.1588  0.7231  0.4013
   78MOL0     C10228   6.945   7.282   7.929 -0.0652  0.0907 -0.2394
   78MOL0     C10229   6.146   7.285   7.757  0.1842 -0.6847  0.3319
   78MOL0     C10230   6.007   7.288   7.735  0.7215 -0.7052  0.4501
   78MOL0     H10231   5.534   7.489   7.621 -0.7212 -0.3574 -1.3697
   78MOL0     H10232   5.298   7.451   7.627  2.5347  1.2485 -3.7087
   78MOL0     H10233   5.074   7.338   7.584  0.6211  2.6512 -0.6928
   78MOL0     H10234   5.107   7.444   7.726 -1.2809  0.4924 -0.3425
   78MOL0     H10235   4.962   7.331   7.858  1.1755  1.4501 -0.1019
   78MOL0     H10236   4.929   7.199   7.744 -1.6954 -0.2164  0.7916
   78MOL0     H10237   4.870   7.446   7.602 -1.3123 -1.1665 -1.1957
   78MOL0     H10238   4.812   7.475   7.768 -2.3936  0.7337 -2.0138
   78MOL0     H10239   4.637   7.424   7.630  1.6050  0.5479 -1.7016
   78MOL0     H10240   4.703   7.270   7.578 -1.3654 -0.1193  0.4595
   78MOL0     H10241   4.603   7.314   7.858  0.3158  1.5468 -0.0056
   78MOL0     H10242   4.675   7.169   7.802 -0.5910  1.1392  2.8758
   78MOL0     H10243   4.504   7.126   7.626  0.4137 -0.5857  0.0141
   78MOL0     H10244   4.420   7.276   7.672 -0.4503  0.8963  1.1827
   78MOL0     H10245   4.448   7.059   7.862 -0.2618 -0.8329 -1.4699
   78MOL0     H10246   4.358   7.213   7.890 -1.2706  0.1314  0.5332
   78MOL0     H10247   4.254   7.011   7.691 -2.6574  0.1214 -0.8978
   78MOL0     H10248   4.201   7.178   7.701 -0.5620  1.0670  1.4883
   78MOL0     H10249   3.980   6.943   7.760 -1.2925  0.9056  0.4761
   78MOL0     H10250   3.940   6.735   8.075 -0.4189  2.5181  1.7454
   78MOL0     H10251   3.932   6.715   7.903 -2.8397 -1.1935  0.5173
   78MOL0     H10252   3.755   6.900   7.893 -0.5035 -0.9231 -0.3056
   78MOL0     H10253   3.807   6.956   8.057  1.6901 -1.9129  4.0589
   78MOL0     H10254   3.681   6.688   7.975  0.4502  0.8384 -2.1229
   78MOL0     H10255   3.699   6.752   8.148 -0.8505  0.7641  0.3896
   78MOL0     H10256   3.511   6.846   7.926 -0.5139 -0.4560  0.1258
   78MOL0     H10257   3.546   6.938   8.083 -2.6546 -0.5692  1.4546
   78MOL0     H10258   3.234   6.627   8.172  0.9898  0.0138 -0.7216
   78MOL0     H10259   3.007   6.690   8.181  1.7051 -0.9364  1.1512
   78MOL0     H10260   2.671   6.932   8.021  1.9113  0.3077 -1.3137
   78MOL0     H10261   2.449   7.015   7.998  0.7714 -1.9472  1.8396
   78MOL0     H10262   2.219   7.152   8.020 -2.1069  1.3414 -0.6201
   78MOL0     H10263   2.326   7.193   7.882 -2.2343  0.5473 -1.8924
   78MOL0     H10264   2.135   7.302   7.834 -0.5322  0.1467  0.7896
   78MOL0     H10265   2.231   7.428   7.885  0.8759 -0.6294 -1.5105
   78MOL0     H10266   2.124   7.427   8.091  1.5482 -0.8724 -0.8191
   78MOL0     H10267   2.036   7.270   8.071  2.1445 -0.0338  2.8235
   78MOL0     H10268   1.889   7.489   8.037  0.8629 -1.4506  1.3165
   78MOL0     H10269   1.978   7.509   7.881  0.5256 -0.4044  0.4220
   78MOL0     H10270   1.792   7.275   7.976 -1.5163 -1.7548 -2.5915
   78MOL0     H10271   1.891   7.262   7.835  0.7295 -0.4973  1.3958
   78MOL0     H10272   1.785   7.470   7.731  0.2585 -2.1298 -2.2314
   78MOL0     H10273   1.663   7.475   7.866 -1.5055 -0.7252 -0.8560
   78MOL0     H10274   1.698   7.222   7.722 -1.4113 -0.7812  1.0095
   78MOL0     H10275   1.570   7.277   7.827 -0.3476  1.2536  0.0577
   78MOL0     H10276   1.469   7.293   7.627  0.3000 -0.5795 -0.2854
   78MOL0     H10277   1.611   7.367   7.535 -0.1887 -0.2026  0.0822
   78MOL0     H10278   2.554   7.365   8.225 -0.5215 -1.6487  1.1813
   78MOL0     H10279   2.771   7.273   8.270 -0.3011  2.7830 -1.6379
   78MOL0     H10280   3.127   7.087   8.058 -2.1781  0.9468  2.0743
   78MOL0     H10281   3.338   7.007   8.001 -0.0910 -1.0455  0.0678
   78MOL0     H10282   5.365   7.057   7.764 -1.7472  2.2373  0.0125
   78MOL0     H10283   5.594   7.081   7.780 -1.2914 -1.3208 -1.8222
   78MOL0     H10284   5.952   7.599   7.850 -0.2209  1.1289 -1.7169
   78MOL0     H10285   6.199   7.593   7.878  3.0992 -0.6670 -1.7767
   78MOL0     H10286   6.404   7.189   7.767  1.3210  0.4592 -0.4213
   78MOL0     H10287   6.339   7.209   7.933 -0.2416 -0.1589 -1.0884
   78MOL0     H10288   6.566   7.329   7.967  1.5424  0.6047 -0.6523
   78MOL0     H10289   6.597   7.164   7.904 -0.1887  0.5859 -0.4589
   78MOL0     H10290   6.552   7.393   7.707  1.1272  0.2264 -1.1910
   78MOL0     H10291   6.667   7.256   7.691 -0.7574 -0.0194  0.1443
   78MOL0     H10292   6.785   7.470   7.734 -3.6321  2.5547 -1.6768
   78MOL0     H10293   6.708   7.486   7.889  1.2439  0.6100 -0.4628
   78MOL0     H10294   7.041   7.250   7.964 -0.1816  0.4852  0.4566
   78MOL0     H10295   6.197   7.196   7.722 -0.2442 -0.2507 -1.5164
   78MOL0     H10296   5.960   7.199   7.695  0.1798  0.2868 -1.2268
   79MOL0     O10297   4.571   8.096   5.083 -0.8291  0.2163 -0.3144
   79MOL0     C10298   4.580   8.135   5.197  0.6592 -0.4770  0.0478
   79MOL0     O10299   4.473   8.151   5.287  0.4468 -0.1392  0.1676
   79MOL0     C10300   4.335   8.130   5.259  0.6530 -0.0201 -0.3123
   79MOL0     C10301   4.279   8.038   5.169 -0.6267  0.4005  0.3527
   79MOL0     C10302   4.143   8.029   5.161 -0.1365  0.1142 -0.4317
   79MOL0     C10303   4.053   8.105   5.238  0.3743  0.2007  0.7790
   79MOL0     O10304   3.920   8.092   5.237  0.2682  0.2347 -0.4910
   79MOL0     C10305   3.849   7.969   5.216 -0.3475  0.1497 -0.5222
   79MOL0     C10306   3.695   7.994   5.244 -1.1331  0.2662 -0.2996
   79MOL0     C10307   3.614   8.036   5.120 -0.3196 -0.4891  0.0574
   79MOL0     C10308   3.467   8.020   5.127  0.4099 -0.4892 -0.1302
   79MOL0     C10309   3.391   8.099   5.223 -0.2315  0.3177 -0.2518
   79MOL0     C10310   3.270   8.016   5.269 -0.3194 -0.1780 -0.2701
   79MOL0     C10311   3.173   8.106   5.354  0.0304 -0.1071 -0.0038
   79MOL0     C10312   3.048   8.026   5.407 -0.0171 -0.5015  0.5944
   79MOL0     N10313   2.951   8.011   5.293 -0.2522 -1.0672 -0.5600
   79MOL0     C10314   2.961   7.941   5.173  0.4766  0.0249 -0.7901
   79MOL0     C10315   2.838   7.953   5.118 -0.6572  0.0981  0.2008
   79MOL0     C10316   2.795   7.875   4.988  0.1247 -0.1917  0.6122
   79MOL0     C10317   2.873   7.917   4.871  0.4392 -0.3496  1.2033
   79MOL0     C10318   2.828   7.852   4.747  0.7579  1.0709 -0.0402
   79MOL0     C10319   2.680   7.858   4.707  0.2497 -0.3586  0.1450
   79MOL0     O10320   2.611   7.748   4.762 -0.1254 -0.0169  0.3206
   79MOL0     C10321   2.480   7.742   4.717 -0.4034  0.6705  0.3587
   79MOL0     C10322   2.374   7.816   4.774 -0.8457  0.0339 -0.7030
   79MOL0     C10323   2.242   7.798   4.737  0.9533  0.5900  0.2886
   79MOL0     C10324   2.209   7.700   4.633 -0.4354 -0.3213  0.1350
   79MOL0     C10325   2.067   7.658   4.604 -0.4530  0.3866  0.6781
   79MOL0     O10326   2.044   7.535   4.548 -0.3066 -0.0812 -0.5297
   79MOL0     C10327   1.915   7.491   4.520 -1.0129  0.5258 -0.9644
   79MOL0     C10328   1.888   7.410   4.414  0.1269  0.5099 -0.9061
   79MOL0     C10329   1.760   7.353   4.402 -0.4427  0.0081  0.5188
   79MOL0     C10330   1.657   7.370   4.496 -0.2690 -0.7962 -0.0113
   79MOL0     O10331   1.540   7.307   4.469 -0.1366  0.1982 -0.5626
   79MOL0     C10332   1.415   7.324   4.546 -0.4018 -1.5271 -0.0278
   79MOL0     C10333   1.304   7.245   4.487 -1.5216  0.0196  0.5987
   79MOL0     C10334   1.270   7.293   4.342 -0.1458  0.8940 -0.9354
   79MOL0     C10335   1.137   7.225   4.309 -0.3149  0.3950 -0.6413
   79MOL0     C10336   1.070   7.298   4.197  0.6645  0.1674 -0.5173
   79MOL0     C10337   0.923   7.259   4.169 -0.3586 -0.6215  0.0808
   79MOL0     C10338   0.902   7.103   4.156  0.4025 -0.3814  0.3051
   79MOL0     C10339   0.821   7.071   4.038 -0.1248 -0.3043 -0.4241
   79MOL0    Cl10340   0.814   6.898   4.046 -0.1963 -0.0408  0.5458
   79MOL0     C10341   1.685   7.452   4.606  0.4305  0.7291 -0.5217
   79MOL0     C10342   1.814   7.504   4.618  0.5731 -0.1950  0.1254
   79MOL0     O10343   1.983   7.737   4.638 -0.3266  0.3385  0.3380
   79MOL0     C10344   2.316   7.633   4.579  0.5958 -0.6720  0.6935
   79MOL0     C10345   2.449   7.647   4.626  0.0003  0.3891 -0.2987
   79MOL0     N10346   2.753   8.023   5.200 -0.9251  0.6373 -0.4191
   79MOL0     N10347   2.824   8.054   5.298  0.7093  0.0443 -0.1441
   79MOL0     C10348   4.110   8.182   5.335 -0.6943 -0.3931  0.4467
   79MOL0     C10349   4.251   8.201   5.345  0.2960 -0.2878  0.4044
   79MOL0     C10350   4.722   8.160   5.255  0.8433 -0.0644 -0.0407
   79MOL0     C10351   4.839   8.107   5.205 -0.2048  0.3584 -0.2672
   79MOL0     C10352   4.963   8.128   5.259 -0.2149 -0.2005 -0.8855
   79MOL0     C10353   4.984   8.219   5.364  0.7729 -0.0436  0.1439
   79MOL0     O10354   5.113   8.252   5.407 -0.1740 -0.3087 -0.0605
   79MOL0     C10355   5.165   8.380   5.443 -0.0876  0.0469  0.5780
   79MOL0     C10356   5.321   8.393   5.451  0.3725  0.3347 -0.2407
   79MOL0     C10357   5.356   8.533   5.509 -0.6329  1.0076 -1.1880
   79MOL0     C10358   5.330   8.649   5.411 -0.0787 -0.3983 -0.2572
   79MOL0     C10359   5.404   8.633   5.286  0.1376 -0.6557 -0.9135
   79MOL0     C10360   5.452   8.619   5.177 -0.1379 -0.2768 -0.1280
   79MOL0     C10361   4.866   8.273   5.420 -1.0608  0.1270  0.1005
   79MOL0     C10362   4.740   8.243   5.371 -0.0434 -0.9160 -0.3456
   79MOL0     H10363   4.350   7.987   5.104 -1.6367 -0.9120  0.2314
   79MOL0     H10364   4.095   7.959   5.093 -0.3030 -0.8262  0.6267
   79MOL0     H10365   3.879   7.896   5.293  0.4847  1.2740  0.2608
   79MOL0     H10366   3.865   7.926   5.117 -0.7432 -2.8337  0.5894
   79MOL0     H10367   3.700   8.081   5.309 -1.4747  0.1954 -0.1761
   79MOL0     H10368   3.654   7.902   5.286  2.1105 -0.8238  0.6861
   79MOL0     H10369   3.659   7.981   5.037  1.0337  1.5625 -0.6624
   79MOL0     H10370   3.635   8.142   5.101  0.3301 -0.6175  0.0421
   79MOL0     H10371   3.427   8.043   5.028 -0.8072 -1.5679  0.0720
   79MOL0     H10372   3.449   7.914   5.147 -1.0304  0.0928  1.9809
   79MOL0     H10373   3.350   8.192   5.181 -3.2912  1.5867  4.6866
   79MOL0     H10374   3.457   8.117   5.308 -1.4656  0.8672  0.6135
   79MOL0     H10375   3.308   7.928   5.323 -1.2735  1.2338  2.9535
   79MOL0     H10376   3.225   7.975   5.179 -0.3293 -2.4465  0.6988
   79MOL0     H10377   3.234   8.144   5.436 -0.6594 -0.2326  0.5758
   79MOL0     H10378   3.140   8.190   5.293 -1.0116 -1.7506 -1.8487
   79MOL0     H10379   3.009   8.087   5.489  0.1195  1.3871 -0.6933
   79MOL0     H10380   3.087   7.933   5.449  0.3507 -0.2172  0.8881
   79MOL0     H10381   3.046   7.896   5.124  1.6252  0.8334  0.3997
   79MOL0     H10382   2.688   7.897   4.980 -0.2723 -1.2984  2.2839
   79MOL0     H10383   2.819   7.769   5.001  1.3040 -0.2523 -1.5140
   79MOL0     H10384   2.979   7.905   4.897  1.0740 -0.6103 -1.2282
   79MOL0     H10385   2.855   8.025   4.868 -1.4322 -0.6433 -0.1188
   79MOL0     H10386   2.885   7.906   4.671 -1.5811  1.0879 -1.8776
   79MOL0     H10387   2.864   7.749   4.738 -1.2459  0.2351  0.8544
   79MOL0     H10388   2.680   7.843   4.599  3.7870 -0.9239  0.1098
   79MOL0     H10389   2.627   7.948   4.740  1.4511 -0.2437  1.9088
   79MOL0     H10390   2.397   7.881   4.858  2.5042  0.7207 -1.9700
   79MOL0     H10391   2.156   7.841   4.786  0.6269  1.0744 -0.6911
   79MOL0     H10392   1.955   7.387   4.332 -0.2203  0.8614 -1.2916
   79MOL0     H10393   1.736   7.290   4.317 -0.5013  1.7769 -0.8090
   79MOL0     H10394   1.397   7.431   4.538  0.1284 -1.1374  2.8854
   79MOL0     H10395   1.434   7.311   4.653  1.1803 -0.7283 -0.1826
   79MOL0     H10396   1.211   7.253   4.544 -0.8985 -0.7547  1.7661
   79MOL0     H10397   1.323   7.137   4.482  1.2364  0.2891  2.7454
   79MOL0     H10398   1.353   7.276   4.273  0.7138  0.1500  0.2257
   79MOL0     H10399   1.263   7.402   4.350  2.3337  1.0907 -0.6157
   79MOL0     H10400   1.159   7.121   4.281  1.5627  0.0389  1.8080
   79MOL0     H10401   1.072   7.211   4.396  0.2409  3.3110  0.3568
   79MOL0     H10402   1.126   7.287   4.104  0.0376  0.5368 -0.9506
   79MOL0     H10403   1.077   7.402   4.232  0.3401  0.3721 -1.0528
   79MOL0     H10404   0.900   7.310   4.075  3.4544 -0.2187 -0.8243
   79MOL0     H10405   0.849   7.297   4.240 -0.6711 -2.0519  0.5539
   79MOL0     H10406   0.998   7.049   4.158 -1.2481 -3.7092 -1.8084
   79MOL0     H10407   0.855   7.062   4.246  1.0708  0.6332  1.1438
   79MOL0     H10408   0.862   7.098   3.940 -0.9473 -0.7291 -0.8975
   79MOL0     H10409   0.724   7.120   4.047  1.3127  2.3698  3.0977
   79MOL0     H10410   1.613   7.451   4.687 -2.5960  0.5239 -3.0061
   79MOL0     H10411   1.836   7.556   4.710  0.4242 -1.7366  1.0757
   79MOL0     H10412   2.304   7.559   4.501 -0.5059 -0.8119  0.9840
   79MOL0     H10413   2.529   7.601   4.568 -1.7953  0.2266 -2.7878
   79MOL0     H10414   4.053   8.232   5.413  1.4681 -0.3294  2.0815
   79MOL0     H10415   4.294   8.272   5.414  2.1737 -0.3399 -0.6578
   79MOL0     H10416   4.839   8.036   5.122 -2.0944  0.2822 -0.2450
   79MOL0     H10417   5.044   8.082   5.203 -1.3833 -1.5908 -1.4764
   79MOL0     H10418   5.124   8.399   5.543 -1.4840 -3.1879  0.7308
   79MOL0     H10419   5.139   8.457   5.370  3.7359  2.0610  1.0514
   79MOL0     H10420   5.359   8.317   5.520  3.6975 -0.2654 -2.4800
   79MOL0     H10421   5.358   8.370   5.350  1.6540  1.4495 -0.0522
   79MOL0     H10422   5.457   8.541   5.551 -0.2372  1.8523 -2.2454
   79MOL0     H10423   5.289   8.536   5.596  0.7809 -1.5605  0.0867
   79MOL0     H10424   5.224   8.661   5.389  0.6967  0.6541 -4.1547
   79MOL0     H10425   5.372   8.741   5.453  1.4217 -1.2135  0.0905
   79MOL0     H10426   5.487   8.614   5.076 -3.1263 -0.8397 -1.2385
   79MOL0     H10427   4.880   8.344   5.500 -0.8409  3.0275 -2.3414
   79MOL0     H10428   4.653   8.278   5.425  0.4829  2.0087 -1.1889
   80MOL0     O10429   0.047   0.362   1.097 -0.6099 -0.0882 -0.8923
   80MOL0     C10430   0.076   0.245   1.117 -0.0241  0.2535  0.1954
   80MOL0     O10431  -0.011   0.144   1.140  0.5517  0.4794  0.0303
   80MOL0     C10432  -0.147   0.145   1.120 -0.8774 -1.0255 -0.6888
   80MOL0     C10433  -0.214   0.036   1.169  0.9367  0.1646  0.6139
   80MOL0     C10434  -0.352   0.021   1.145  0.0139 -0.0941 -0.4404
   80MOL0     C10435  -0.420   0.110   1.066 -1.0780  0.5590  1.1746
   80MOL0     O10436  -0.558   0.106   1.035  0.3985  0.2999 -0.2045
   80MOL0     C10437  -0.629  -0.021   1.047  0.4263 -0.0833 -0.3188
   80MOL0     C10438  -0.778  -0.016   1.035 -0.3778  0.4450  0.2448
   80MOL0     C10439  -0.809   0.001   0.892  0.6528 -0.3927  0.3903
   80MOL0     C10440  -0.959  -0.010   0.885 -0.2609 -1.1895  0.4896
   80MOL0     C10441  -0.998   0.002   0.734  0.3621 -0.4476 -0.5305
   80MOL0     C10442  -1.157   0.006   0.709  0.6148  0.4868 -0.2109
   80MOL0     C10443  -1.231  -0.120   0.760 -0.6033  0.5880  0.8261
   80MOL0     C10444  -1.188  -0.255   0.687  0.2001  0.3768  0.4671
   80MOL0     N10445  -1.249  -0.268   0.551  0.2897  0.0545  0.5878
   80MOL0     C10446  -1.381  -0.275   0.523 -0.5379 -0.0235  0.1168
   80MOL0     C10447  -1.395  -0.247   0.390  0.0592 -0.5337 -0.5106
   80MOL0     C10448  -1.531  -0.211   0.327  0.3567  0.3469 -0.1446
   80MOL0     C10449  -1.594  -0.081   0.375  0.2359  0.0873 -0.3384
   80MOL0     C10450  -1.686  -0.037   0.261 -0.3594  0.5241 -0.3821
   80MOL0     C10451  -1.794   0.066   0.304  0.7873 -0.6883  0.8149
   80MOL0     O10452  -1.749   0.184   0.358  0.0928  0.4925 -0.8839
   80MOL0     C10453  -1.835   0.273   0.426  0.7870  0.3016  0.4969
   80MOL0     C10454  -1.773   0.372   0.508 -0.0735  0.3628  0.6852
   80MOL0     C10455  -1.845   0.449   0.593  0.7221 -0.6022  0.0672
   80MOL0     C10456  -1.988   0.440   0.585 -0.0718 -0.5179 -0.3030
   80MOL0     C10457  -2.064   0.540   0.663  0.2647 -0.1016  0.6152
   80MOL0     O10458  -2.186   0.514   0.679 -0.0337 -0.4331  0.2661
   80MOL0     C10459  -2.279   0.606   0.727 -0.2801 -0.2638 -0.1969
   80MOL0     C10460  -2.285   0.739   0.686  1.2475 -0.3223  0.5559
   80MOL0     C10461  -2.390   0.823   0.720  0.3755  0.5051 -0.1393
   80MOL0     C10462  -2.490   0.763   0.796  0.2349  0.1438  0.5455
   80MOL0     O10463  -2.604   0.844   0.799  0.3684 -0.2523  0.1625
   80MOL0     C10464  -2.673   0.826   0.927 -0.2893  0.1350  0.5521
   80MOL0     C10465  -2.763   0.945   0.941 -0.2146 -0.1080  0.0082
   80MOL0     C10466  -2.899   0.953   0.866  0.7687 -0.5370 -0.4365
   80MOL0     C10467  -2.981   1.085   0.913  0.5517 -0.3494  0.8724
   80MOL0     C10468  -3.121   1.061   0.843 -0.5164 -0.9360 -0.8317
   80MOL0     C10469  -3.213   1.181   0.851 -0.9999 -0.6244 -0.8001
   80MOL0     C10470  -3.275   1.204   0.991 -0.6900  0.3833  0.0258
   80MOL0     C10471  -3.378   1.313   0.986  0.2232  0.5157 -1.1814
   80MOL0    Cl10472  -3.523   1.263   0.896 -0.0820  0.7945  0.5618
   80MOL0     C10473  -2.490   0.631   0.846 -0.2043 -0.3415  0.3434
   80MOL0     C10474  -2.380   0.555   0.810  0.7630 -0.4008 -0.3617
   80MOL0     O10475  -2.012   0.644   0.687 -1.0970  0.0184 -0.2997
   80MOL0     C10476  -2.047   0.333   0.509  0.2678  0.3489  0.1880
   80MOL0     C10477  -1.976   0.256   0.423 -0.7883 -0.4627  0.2696
   80MOL0     N10478  -1.263  -0.237   0.342 -0.3314 -0.2319 -0.0802
   80MOL0     N10479  -1.181  -0.259   0.434  0.4424  0.1177 -0.1259
   80MOL0     C10480  -0.345   0.220   1.005 -1.0630 -0.6453  0.3691
   80MOL0     C10481  -0.208   0.240   1.036  1.0923 -0.3422 -0.4308
   80MOL0     C10482   0.220   0.220   1.101 -0.2125 -0.2811 -0.5211
   80MOL0     C10483   0.259   0.082   1.080 -0.4239 -0.3779  0.0943
   80MOL0     C10484   0.389   0.042   1.048  0.0571  0.3773  0.7935
   80MOL0     C10485   0.490   0.135   1.063 -0.4274 -0.3521 -0.1415
   80MOL0     O10486   0.622   0.099   1.036 -0.0519  0.4140  0.0909
   80MOL0     C10487   0.648   0.103   0.898 -0.1320 -0.0836  0.2627
   80MOL0     C10488   0.795   0.102   0.869  0.1212 -0.0225  0.3189
   80MOL0     C10489   0.882   0.215   0.925 -0.4607 -0.0646 -0.0904
   80MOL0     C10490   1.009   0.167   0.987 -0.8374 -0.1482 -0.4089
   80MOL0     C10491   1.083   0.074   0.899 -0.4667  0.6659  0.0772
   80MOL0     C10492   1.158   0.011   0.831  0.2353  0.3325  0.3377
   80MOL0     C10493   0.460   0.273   1.082 -0.1282 -0.1188  0.4514
   80MOL0     C10494   0.328   0.311   1.107 -0.3161 -0.1256  0.4622
   80MOL0     H10495  -0.166  -0.039   1.231  3.0067 -0.3903 -1.5379
   80MOL0     H10496  -0.403  -0.062   1.195 -1.3536  0.8778 -0.1539
   80MOL0     H10497  -0.605  -0.055   1.148  0.0781  0.3015 -0.1021
   80MOL0     H10498  -0.579  -0.086   0.975 -1.6886 -1.8480 -0.2734
   80MOL0     H10499  -0.816   0.068   1.095 -2.0143 -1.5655  2.2109
   80MOL0     H10500  -0.813  -0.113   1.070  1.0014 -0.8433 -1.7488
   80MOL0     H10501  -0.764  -0.088   0.846 -0.8602 -1.6234  1.1630
   80MOL0     H10502  -0.768   0.094   0.853 -0.2740  0.3516  1.1377
   80MOL0     H10503  -1.005  -0.103   0.921 -0.5308 -1.3610 -0.2757
   80MOL0     H10504  -1.003   0.070   0.944  1.0122 -1.5302  1.9813
   80MOL0     H10505  -0.958  -0.089   0.689 -1.1543 -2.4977  2.0294
   80MOL0     H10506  -0.961   0.094   0.687 -0.4115  0.3599  0.3950
   80MOL0     H10507  -1.184   0.032   0.606 -0.9698  1.6875  0.4609
   80MOL0     H10508  -1.195   0.091   0.766 -3.2307 -1.1730  0.0132
   80MOL0     H10509  -1.208  -0.128   0.867  1.3740 -0.4366  0.3735
   80MOL0     H10510  -1.337  -0.104   0.739 -0.6612 -0.0882  0.5552
   80MOL0     H10511  -1.227  -0.331   0.756  2.3826 -0.4565  0.8511
   80MOL0     H10512  -1.080  -0.268   0.691  0.0947 -0.1865  2.3111
   80MOL0     H10513  -1.451  -0.291   0.604  1.4239 -5.2233  1.1993
   80MOL0     H10514  -1.607  -0.286   0.353  0.0270 -0.1291 -2.3481
   80MOL0     H10515  -1.520  -0.207   0.219 -0.7767 -0.2122 -0.3016
   80MOL0     H10516  -1.523  -0.001   0.400 -1.1340  1.8618 -1.7804
   80MOL0     H10517  -1.648  -0.113   0.465  0.6860  1.1432  0.3375
   80MOL0     H10518  -1.625   0.010   0.184 -3.2639  1.8529 -2.0715
   80MOL0     H10519  -1.737  -0.122   0.213 -1.7361  1.6864 -1.0738
   80MOL0     H10520  -1.858   0.017   0.377 -1.1004  0.2438 -0.1547
   80MOL0     H10521  -1.844   0.111   0.218 -0.1961  1.9971  2.6543
   80MOL0     H10522  -1.666   0.391   0.508 -0.4591  3.4675 -2.1323
   80MOL0     H10523  -1.798   0.529   0.648  0.5232 -0.5639  0.1829
   80MOL0     H10524  -2.217   0.785   0.615  0.2055  2.3126  1.1442
   80MOL0     H10525  -2.398   0.924   0.679  1.2117  1.3877  1.7258
   80MOL0     H10526  -2.595   0.820   1.004  1.1342  1.0707 -0.7512
   80MOL0     H10527  -2.740   0.740   0.929 -0.8935  0.5921  2.3807
   80MOL0     H10528  -2.697   1.031   0.927  0.6572 -0.8851 -0.8198
   80MOL0     H10529  -2.784   0.948   1.049 -1.3334 -1.2300 -0.1542
   80MOL0     H10530  -2.959   0.862   0.873 -0.2609  0.0788 -0.9430
   80MOL0     H10531  -2.869   0.967   0.761  5.0938  0.5735  0.7763
   80MOL0     H10532  -2.995   1.077   1.021 -3.8994  1.6352  0.6759
   80MOL0     H10533  -2.939   1.180   0.879 -1.2149 -0.1050 -0.8392
   80MOL0     H10534  -3.165   0.969   0.882  0.4148 -1.3710 -0.7964
   80MOL0     H10535  -3.100   1.052   0.736  5.2325  3.5609 -0.5866
   80MOL0     H10536  -3.281   1.168   0.767 -0.8410 -0.0297 -1.0244
   80MOL0     H10537  -3.152   1.269   0.831  1.8445 -2.9214 -3.1032
   80MOL0     H10538  -3.317   1.110   1.029  2.7988 -0.1296  3.1636
   80MOL0     H10539  -3.194   1.230   1.060 -0.3610  1.7042 -0.8193
   80MOL0     H10540  -3.336   1.404   0.940 -3.2245  2.6861 -0.3776
   80MOL0     H10541  -3.414   1.338   1.086  3.2775  3.4807 -0.6022
   80MOL0     H10542  -2.569   0.576   0.897 -1.0895  2.2896  2.0403
   80MOL0     H10543  -2.363   0.461   0.861  1.7846  0.2256  0.4965
   80MOL0     H10544  -2.154   0.319   0.506  0.3048  0.1940 -2.1639
   80MOL0     H10545  -2.031   0.185   0.362 -0.8785 -0.3156  0.1794
   80MOL0     H10546  -0.393   0.294   0.942  2.4277  2.7084  1.2373
   80MOL0     H10547  -0.157   0.330   1.003 -1.3252  0.4442 -2.2798
   80MOL0     H10548   0.179   0.011   1.096 -2.1785  1.3141 -0.7329
   80MOL0     H10549   0.413  -0.062   1.024  1.1105  1.1600 -2.0164
   80MOL0     H10550   0.615   0.201   0.860  1.7944  0.4370 -0.1847
   80MOL0     H10551   0.593   0.027   0.841 -0.0610  0.5529 -0.6930
   80MOL0     H10552   0.841   0.009   0.903  4.2738  1.4334 -0.7025
   80MOL0     H10553   0.824   0.106   0.763  2.6524  0.4617  0.9542
   80MOL0     H10554   0.825   0.258   1.007 -0.7010  0.9610 -0.7727
   80MOL0     H10555   0.908   0.290   0.849  1.6838  1.8906  2.3782
   80MOL0     H10556   1.081   0.249   0.994 -1.5673  0.4690 -0.0410
   80MOL0     H10557   0.996   0.120   1.086 -2.1586 -1.2263 -1.0582
   80MOL0     H10558   1.223  -0.048   0.770 -0.5731  1.1451 -1.3803
   80MOL0     H10559   0.541   0.344   1.080  0.4348 -0.7492  0.6646
   80MOL0     H10560   0.300   0.412   1.135 -1.7807  0.6790 -3.2783
   81MOL0     O10561   4.147   6.477   0.124 -0.0506  0.1249 -0.7074
   81MOL0     C10562   4.137   6.518   0.241 -0.6705 -0.2603 -0.2070
   81MOL0     O10563   4.025   6.537   0.315 -0.0829  0.1903  0.6443
   81MOL0     C10564   3.912   6.499   0.250  0.5911  0.3171  0.0757
   81MOL0     C10565   3.880   6.359   0.251  1.1162  0.7959  0.4478
   81MOL0     C10566   3.772   6.306   0.166 -0.5957 -0.7611 -0.3726
   81MOL0     C10567   3.689   6.396   0.090 -0.3816 -0.5771  0.8015
   81MOL0     O10568   3.585   6.348   0.015  0.1811 -0.2765 -0.3833
   81MOL0     C10569   3.472   6.440   0.006  0.5446 -0.4886  0.3649
   81MOL0     C10570   3.348   6.355  -0.034 -0.2469  0.2794 -0.2151
   81MOL0     C10571   3.192   6.413  -0.018 -0.3534  0.1609 -0.0865
   81MOL0     C10572   3.080   6.336  -0.088 -0.9728  0.0633  0.2948
   81MOL0     C10573   2.941   6.379  -0.043 -0.4543 -0.1174 -0.4835
   81MOL0     C10574   2.824   6.300  -0.095 -0.0678  0.7679  0.4437
   81MOL0     C10575   2.750   6.365  -0.207 -0.7849 -1.1651 -0.3171
   81MOL0     C10576   2.619   6.296  -0.243 -0.7488  0.9579  0.1589
   81MOL0     N10577   2.519   6.304  -0.134 -0.3376 -0.1353  0.3984
   81MOL0     C10578   2.434   6.196  -0.101  0.7745 -0.1855 -0.5319
   81MOL0     C10579   2.334   6.241  -0.020 -0.4266  0.9080  1.0643
   81MOL0     C10580   2.239   6.144   0.057  0.6353  0.5092  0.3908
   81MOL0     C10581   2.100   6.134  -0.012 -0.2138 -0.4962 -0.0842
   81MOL0     C10582   2.014   6.031   0.062  0.7604 -0.8400  0.4931
   81MOL0     C10583   1.872   6.014  -0.004  0.1460  0.1683  0.1895
   81MOL0     O10584   1.828   6.136  -0.061  0.0520 -0.9256  0.7520
   81MOL0     C10585   1.688   6.150  -0.103  0.2714 -0.1828  0.3564
   81MOL0     C10586   1.605   6.035  -0.117 -0.2047 -0.2621  0.3683
   81MOL0     C10587   1.474   6.047  -0.173 -0.0892 -0.5797  1.0778
   81MOL0     C10588   1.423   6.170  -0.206  0.0261 -0.1112  0.8713
   81MOL0     C10589   1.283   6.180  -0.261  0.3422  0.0319  0.2049
   81MOL0     O10590   1.210   6.056  -0.293 -0.4262  0.1422  0.1571
   81MOL0     C10591   1.078   6.045  -0.285  0.5536  0.3027  0.3762
   81MOL0     C10592   0.988   6.076  -0.389  1.2240  0.4652 -0.9728
   81MOL0     C10593   0.849   6.068  -0.368 -0.3902  0.2549  0.1451
   81MOL0     C10594   0.789   6.019  -0.247  0.1422  0.2408  0.1726
   81MOL0     O10595   0.656   6.019  -0.212 -0.5040  0.4503  0.1626
   81MOL0     C10596   0.570   6.088  -0.296  0.9905 -0.2609 -0.2994
   81MOL0     C10597   0.434   6.071  -0.234 -0.4457  0.4526  0.5113
   81MOL0     C10598   0.380   5.929  -0.228  0.1384 -0.2478  0.0674
   81MOL0     C10599   0.395   5.855  -0.356  0.3459 -0.0482 -0.6066
   81MOL0     C10600   0.320   5.723  -0.358  0.1235 -0.0068 -0.0316
   81MOL0     C10601   0.299   5.674  -0.506 -0.0146  0.1852  0.7535
   81MOL0     C10602   0.244   5.539  -0.527 -0.1637  0.5478  0.1699
   81MOL0     C10603   0.312   5.437  -0.436  0.0999 -0.0930 -0.4097
   81MOL0    Cl10604   0.492   5.447  -0.451 -0.2059 -0.3997  0.1445
   81MOL0     C10605   0.882   5.976  -0.153  0.0103  1.0319 -1.1084
   81MOL0     C10606   1.020   5.990  -0.170  1.4651  0.3703 -0.3862
   81MOL0     O10607   1.233   6.290  -0.273 -0.6185 -0.2105 -0.1156
   81MOL0     C10608   1.502   6.285  -0.175  0.6388 -0.2973  0.2953
   81MOL0     C10609   1.628   6.277  -0.125 -0.0260  0.4892  0.1435
   81MOL0     N10610   2.355   6.373  -0.010  0.2571 -0.2090 -0.5636
   81MOL0     N10611   2.469   6.416  -0.070  0.3138 -0.0713 -0.2243
   81MOL0     C10612   3.720   6.539   0.095 -1.3470 -0.3170 -0.8830
   81MOL0     C10613   3.836   6.585   0.170 -0.5847 -0.2384  0.2591
   81MOL0     C10614   4.270   6.541   0.313  0.2105 -0.0256 -0.7043
   81MOL0     C10615   4.277   6.598   0.442  0.7583  0.9390 -1.1711
   81MOL0     C10616   4.396   6.640   0.500 -0.1116  0.3757  0.1721
   81MOL0     C10617   4.518   6.608   0.439 -0.2448  0.4563  0.1128
   81MOL0     O10618   4.625   6.614   0.524  0.3181  0.4613  0.3185
   81MOL0     C10619   4.704   6.741   0.510 -0.9516  0.7645 -0.6517
   81MOL0     C10620   4.800   6.755   0.635  0.4226  0.0061  0.2680
   81MOL0     C10621   4.941   6.828   0.609  0.1363  0.6074 -0.2131
   81MOL0     C10622   5.049   6.725   0.595 -0.7533  0.5722  0.7815
   81MOL0     C10623   5.054   6.622   0.700 -0.4461  0.2518  0.1756
   81MOL0     C10624   5.069   6.542   0.783  0.2340 -0.5402 -0.6027
   81MOL0     C10625   4.519   6.552   0.310 -0.0388 -0.4702 -0.7250
   81MOL0     C10626   4.394   6.513   0.250  0.0159 -0.0085  0.9047
   81MOL0     H10627   3.913   6.277   0.314 -0.5038  0.5160  0.9641
   81MOL0     H10628   3.750   6.200   0.164  0.5366 -1.0451  0.7545
   81MOL0     H10629   3.485   6.518  -0.069  3.3719  0.0839  1.3205
   81MOL0     H10630   3.458   6.492   0.102 -0.8150  4.0579 -1.9996
   81MOL0     H10631   3.357   6.263   0.024 -1.4983  0.9961  1.1929
   81MOL0     H10632   3.374   6.329  -0.137  3.0842 -0.7472  0.7638
   81MOL0     H10633   3.193   6.514  -0.062  3.1146  0.4135  0.2483
   81MOL0     H10634   3.177   6.419   0.090 -0.5314 -0.1904 -0.0927
   81MOL0     H10635   3.085   6.356  -0.195 -0.0893  0.9826  0.4935
   81MOL0     H10636   3.101   6.230  -0.071 -1.2133  0.1336  1.0623
   81MOL0     H10637   2.930   6.486  -0.064 -0.1311 -0.0402 -0.2748
   81MOL0     H10638   2.946   6.380   0.066  0.7659  1.5663 -0.5089
   81MOL0     H10639   2.744   6.291  -0.021 -1.3965  2.0915 -0.7918
   81MOL0     H10640   2.856   6.200  -0.127 -2.4938  0.2017 -0.4391
   81MOL0     H10641   2.724   6.469  -0.187 -2.0718 -1.2449 -1.4365
   81MOL0     H10642   2.811   6.354  -0.298 -0.6741  1.1144 -0.5611
   81MOL0     H10643   2.646   6.194  -0.271 -1.4258  0.7820  0.1387
   81MOL0     H10644   2.568   6.344  -0.328 -1.7983  1.6532  1.1476
   81MOL0     H10645   2.448   6.093  -0.133 -0.1509 -0.7808  0.9183
   81MOL0     H10646   2.234   6.186   0.158  0.0253 -1.9809  1.4908
   81MOL0     H10647   2.283   6.044   0.067  0.2446  0.3853  0.8925
   81MOL0     H10648   2.116   6.101  -0.115 -1.9366 -0.8831 -0.2595
   81MOL0     H10649   2.057   6.234  -0.017  1.5775  0.3089 -0.1467
   81MOL0     H10650   2.062   5.933   0.068  0.1461 -1.2919 -1.1903
   81MOL0     H10651   2.000   6.068   0.164 -0.0031 -0.4724  0.2644
   81MOL0     H10652   1.801   5.979   0.072  1.0884 -1.8349  0.2224
   81MOL0     H10653   1.884   5.955  -0.095 -0.1718  3.5158 -2.1777
   81MOL0     H10654   1.639   5.936  -0.087 -3.7615 -1.6317  0.3431
   81MOL0     H10655   1.424   5.955  -0.202 -0.6300  0.6557 -2.4198
   81MOL0     H10656   1.023   6.100  -0.489  0.4567  0.3621 -1.2715
   81MOL0     H10657   0.782   6.086  -0.451  1.5972 -0.4888 -1.6877
   81MOL0     H10658   0.565   6.058  -0.401 -2.4109  1.0130 -0.6321
   81MOL0     H10659   0.588   6.196  -0.286  1.6529 -0.4786  1.0278
   81MOL0     H10660   0.371   6.141  -0.290  1.4613  0.8223 -1.2864
   81MOL0     H10661   0.444   6.101  -0.129  2.7657 -2.3046  1.1599
   81MOL0     H10662   0.274   5.938  -0.203  0.2846 -1.4387  1.2175
   81MOL0     H10663   0.425   5.878  -0.142 -2.6440 -0.1546  1.7097
   81MOL0     H10664   0.352   5.911  -0.441 -0.1078  0.6588  0.0694
   81MOL0     H10665   0.499   5.838  -0.385  0.3393 -1.7171  0.2645
   81MOL0     H10666   0.224   5.730  -0.307  0.8104 -3.1649  2.0531
   81MOL0     H10667   0.379   5.651  -0.299  1.9277  0.6518 -0.9681
   81MOL0     H10668   0.392   5.679  -0.563 -1.6251 -0.2830 -2.1086
   81MOL0     H10669   0.230   5.745  -0.551  2.3864  4.3518  3.0546
   81MOL0     H10670   0.135   5.532  -0.523 -0.1709 -0.0931 -0.9285
   81MOL0     H10671   0.263   5.510  -0.630 -2.0935 -2.8161  0.6270
   81MOL0     H10672   0.277   5.338  -0.468 -3.2856  0.6219  0.6232
   81MOL0     H10673   0.292   5.451  -0.330  0.8164  0.0814 -0.2939
   81MOL0     H10674   0.849   5.937  -0.057  1.3273 -1.7560 -1.6862
   81MOL0     H10675   1.089   5.951  -0.097  2.7266 -0.9378 -2.1728
   81MOL0     H10676   1.473   6.380  -0.218 -2.9134 -1.9953 -1.5918
   81MOL0     H10677   1.675   6.370  -0.098 -0.8804  0.3461  2.3443
   81MOL0     H10678   3.658   6.619   0.056 -1.0821 -0.8734 -2.5165
   81MOL0     H10679   3.852   6.692   0.167 -0.5942 -0.2010  1.1781
   81MOL0     H10680   4.190   6.616   0.505  0.5799  0.5871 -1.3167
   81MOL0     H10681   4.397   6.679   0.602  2.4565 -0.6550  0.6122
   81MOL0     H10682   4.644   6.831   0.497  1.7553  3.2391  2.3784
   81MOL0     H10683   4.763   6.738   0.418 -3.7300 -1.4797 -2.5313
   81MOL0     H10684   4.746   6.824   0.699 -0.3262 -0.5966  0.2984
   81MOL0     H10685   4.825   6.665   0.693  1.8641  1.6470  2.3643
   81MOL0     H10686   4.972   6.898   0.688  1.2897 -1.1755  0.9694
   81MOL0     H10687   4.937   6.884   0.515 -0.0974 -0.1429 -0.6564
   81MOL0     H10688   5.048   6.680   0.496  0.8090 -0.0958  1.0400
   81MOL0     H10689   5.144   6.778   0.591 -0.4632  0.3021  2.9606
   81MOL0     H10690   5.070   6.463   0.855 -2.9288 -0.1426  0.0077
   81MOL0     H10691   4.610   6.531   0.256 -0.4236  1.4744 -2.2381
   81MOL0     H10692   4.395   6.473   0.149 -0.3478  0.9711  0.5028
   82MOL0     O10693   2.222   7.275   6.646 -0.4673 -0.4929 -0.0933
   82MOL0     C10694   2.319   7.198   6.660 -0.3264 -0.5385 -0.1736
   82MOL0     O10695   2.306   7.061   6.690  0.2724  0.5028  0.4892
   82MOL0     C10696   2.188   7.009   6.726 -0.4544  0.7245  0.9392
   82MOL0     C10697   2.120   7.056   6.841 -0.1942 -0.8367  0.5333
   82MOL0     C10698   1.991   7.001   6.880 -0.7798 -1.4020 -0.3607
   82MOL0     C10699   1.931   6.899   6.808 -0.4520 -0.4486 -0.5353
   82MOL0     O10700   1.807   6.846   6.831  0.7694  0.4132 -0.1826
   82MOL0     C10701   1.699   6.929   6.876 -0.4111 -0.2858 -0.9151
   82MOL0     C10702   1.663   7.034   6.771  0.5007  0.0909  0.1937
   82MOL0     C10703   1.553   7.127   6.808 -0.5070  0.3714 -0.7494
   82MOL0     C10704   1.423   7.055   6.791  0.2504  0.2520 -0.1487
   82MOL0     C10705   1.299   7.154   6.789 -0.0886  0.4332 -0.5556
   82MOL0     C10706   1.162   7.089   6.795 -0.7296 -0.5459 -0.6394
   82MOL0     C10707   1.057   7.189   6.838  0.4380 -0.5731  0.2680
   82MOL0     C10708   1.053   7.310   6.741 -0.2042  0.3242  0.3601
   82MOL0     N10709   1.009   7.262   6.614  0.3096 -0.2023  0.8085
   82MOL0     C10710   0.882   7.285   6.584  0.2463  0.6113  0.3146
   82MOL0     C10711   0.877   7.250   6.448 -0.7429  0.0376 -0.7068
   82MOL0     C10712   0.760   7.280   6.367 -0.4921  0.6532 -1.0088
   82MOL0     C10713   0.741   7.432   6.355  0.7141 -0.2534 -0.1954
   82MOL0     C10714   0.619   7.476   6.269 -0.0720  0.6031 -1.3365
   82MOL0     C10715   0.481   7.433   6.305  1.2214  0.5165  0.6507
   82MOL0     O10716   0.452   7.466   6.442 -0.9500 -0.4299  0.2866
   82MOL0     C10717   0.336   7.519   6.489  0.8870 -0.0838 -0.3071
   82MOL0     C10718   0.217   7.528   6.406 -0.8037  0.2015 -0.0463
   82MOL0     C10719   0.094   7.567   6.456 -0.6149 -0.4262  0.4298
   82MOL0     C10720   0.083   7.615   6.594  0.7285 -0.4874  0.1109
   82MOL0     C10721  -0.048   7.680   6.639  0.5315 -0.0024 -0.6035
   82MOL0     O10722  -0.143   7.717   6.546 -0.1448  0.3881  0.0351
   82MOL0     C10723  -0.263   7.745   6.595 -0.9916 -0.7468 -0.1885
   82MOL0     C10724  -0.364   7.652   6.558 -0.1066 -0.4541 -0.5527
   82MOL0     C10725  -0.493   7.668   6.604 -0.2934  0.1108 -0.0476
   82MOL0     C10726  -0.529   7.770   6.704 -0.6401  0.4365 -0.3916
   82MOL0     O10727  -0.659   7.792   6.746 -0.3283  0.3481 -1.0298
   82MOL0     C10728  -0.685   7.847   6.882  0.1784 -0.1477  0.4468
   82MOL0     C10729  -0.824   7.873   6.921  0.0203 -0.3899  0.3689
   82MOL0     C10730  -0.889   7.942   6.795  0.2835  0.9370  0.5568
   82MOL0     C10731  -1.037   7.995   6.823 -0.3373 -0.7936  0.1233
   82MOL0     C10732  -1.134   7.884   6.786 -0.7917  0.2539  1.0104
   82MOL0     C10733  -1.271   7.904   6.836  0.2162 -0.3733 -0.2320
   82MOL0     C10734  -1.270   7.877   6.991  0.7642 -0.3429 -0.3260
   82MOL0     C10735  -1.414   7.877   7.040  0.0709 -0.0537  0.3679
   82MOL0    Cl10736  -1.420   7.905   7.215  0.3910 -0.4878 -0.1016
   82MOL0     C10737  -0.419   7.857   6.743  0.9587 -0.4661 -0.8824
   82MOL0     C10738  -0.293   7.841   6.701  0.8651  0.9659 -0.0124
   82MOL0     O10739  -0.062   7.683   6.756 -0.0456 -0.3949 -0.5712
   82MOL0     C10740   0.191   7.585   6.671  0.0684 -0.0070 -0.0047
   82MOL0     C10741   0.309   7.537   6.622  0.2250 -0.0492 -0.1219
   82MOL0     N10742   1.006   7.218   6.400  0.2828 -0.4386  0.0900
   82MOL0     N10743   1.082   7.222   6.500 -0.4625 -0.3600 -0.2924
   82MOL0     C10744   2.012   6.850   6.697 -0.7591  1.5807 -0.6854
   82MOL0     C10745   2.133   6.899   6.660  0.2802  0.3058  0.2829
   82MOL0     C10746   2.450   7.267   6.666  0.0504 -0.4015  0.0583
   82MOL0     C10747   2.557   7.184   6.701  1.1377 -0.7688 -0.1935
   82MOL0     C10748   2.685   7.228   6.691 -0.8693 -0.2021  0.1723
   82MOL0     C10749   2.714   7.369   6.659 -0.3196 -0.6326  0.5954
   82MOL0     O10750   2.838   7.426   6.643 -0.9166  0.0686  0.1043
   82MOL0     C10751   2.954   7.342   6.639 -0.4189  0.1067  0.3433
   82MOL0     C10752   3.076   7.412   6.583  0.2250  0.6768 -0.7811
   82MOL0     C10753   3.194   7.313   6.549 -0.3214 -0.1301  0.8484
   82MOL0     C10754   3.214   7.203   6.653 -0.6376 -0.5138 -0.3681
   82MOL0     C10755   3.313   7.101   6.602  0.8316  0.1719  0.0600
   82MOL0     C10756   3.391   7.022   6.557  0.4677 -0.2379 -0.4391
   82MOL0     C10757   2.608   7.455   6.623 -0.3552 -0.3052 -0.5962
   82MOL0     C10758   2.481   7.404   6.639  0.4801 -0.3306 -0.0509
   82MOL0     H10759   2.160   7.137   6.900 -3.3607  0.9050  0.4834
   82MOL0     H10760   1.949   7.037   6.973 -0.6380 -1.4390 -0.2820
   82MOL0     H10761   1.722   6.977   6.972  0.0414 -2.2683  0.0161
   82MOL0     H10762   1.611   6.866   6.887 -0.5878  0.1997  0.7519
   82MOL0     H10763   1.623   6.986   6.680  2.7348  2.1088 -2.0104
   82MOL0     H10764   1.755   7.084   6.740  0.2491 -0.2483 -1.2032
   82MOL0     H10765   1.541   7.214   6.743 -1.2865 -0.7534 -2.1745
   82MOL0     H10766   1.571   7.165   6.909 -1.1076  1.1635 -0.9299
   82MOL0     H10767   1.419   6.974   6.717 -0.7344  0.2630 -0.1270
   82MOL0     H10768   1.405   6.991   6.877 -2.4319 -1.6807 -1.9658
   82MOL0     H10769   1.308   7.197   6.689  1.0203 -1.9147 -1.5596
   82MOL0     H10770   1.314   7.224   6.871  3.0301 -1.4043  0.6281
   82MOL0     H10771   1.173   7.014   6.873 -1.6920 -0.7934 -0.7307
   82MOL0     H10772   1.138   7.033   6.704  0.4249 -2.3202  0.1182
   82MOL0     H10773   0.963   7.133   6.845 -0.1379  0.3273 -0.1709
   82MOL0     H10774   1.082   7.218   6.940 -0.2542 -1.1550  0.6142
   82MOL0     H10775   1.151   7.351   6.717 -1.2137  2.3905 -0.4695
   82MOL0     H10776   0.984   7.390   6.771 -0.4269  0.3231 -0.1336
   82MOL0     H10777   0.806   7.336   6.643  0.2813  2.5140 -1.1884
   82MOL0     H10778   0.670   7.228   6.401 -0.1542 -1.6761 -3.3458
   82MOL0     H10779   0.780   7.246   6.265  3.8156  1.8101 -0.7705
   82MOL0     H10780   0.833   7.477   6.317  0.2186 -0.1367 -1.2908
   82MOL0     H10781   0.726   7.458   6.460 -1.3854 -0.6338 -0.3559
   82MOL0     H10782   0.621   7.585   6.272 -1.2746  0.6296 -1.0465
   82MOL0     H10783   0.644   7.454   6.165  0.3954 -0.5382 -1.0038
   82MOL0     H10784   0.479   7.324   6.298  1.2261  0.4798  1.1350
   82MOL0     H10785   0.421   7.473   6.223  2.3586  1.2236  0.1388
   82MOL0     H10786   0.213   7.509   6.299 -0.9157 -2.5817  0.3987
   82MOL0     H10787   0.001   7.572   6.401 -0.4860  1.3936  0.3093
   82MOL0     H10788  -0.333   7.578   6.484 -1.8096 -1.1023 -0.6532
   82MOL0     H10789  -0.568   7.601   6.564  0.9904  0.0772 -2.6375
   82MOL0     H10790  -0.628   7.939   6.894  1.7952 -1.3751  3.2020
   82MOL0     H10791  -0.636   7.777   6.951  0.9047 -0.5702 -0.4819
   82MOL0     H10792  -0.836   7.932   7.012 -2.1072 -1.1289  0.6071
   82MOL0     H10793  -0.868   7.774   6.934  2.1466 -1.3178  0.9519
   82MOL0     H10794  -0.896   7.873   6.711 -1.2152  2.3053 -0.5186
   82MOL0     H10795  -0.834   8.029   6.757 -0.0078 -0.0320 -2.3632
   82MOL0     H10796  -1.050   8.027   6.927  2.0573 -2.8758  1.1767
   82MOL0     H10797  -1.054   8.078   6.754 -0.9141 -2.0465 -1.2896
   82MOL0     H10798  -1.104   7.784   6.818 -3.2539 -1.0267 -0.3864
   82MOL0     H10799  -1.141   7.875   6.677  0.7954  2.5173  0.6482
   82MOL0     H10800  -1.344   7.837   6.790 -0.3124  0.1844 -0.2210
   82MOL0     H10801  -1.301   8.008   6.819  0.9362 -0.3938 -1.7297
   82MOL0     H10802  -1.214   7.791   7.028  1.2480  1.9875  5.2942
   82MOL0     H10803  -1.212   7.955   7.043  1.0863 -0.2609 -0.7994
   82MOL0     H10804  -1.468   7.786   7.011 -1.7103  0.4564  1.8826
   82MOL0     H10805  -1.474   7.954   6.990  2.6690  1.0497 -1.2441
   82MOL0     H10806  -0.429   7.942   6.810  1.2419  1.0329 -2.6400
   82MOL0     H10807  -0.215   7.911   6.730 -1.9340  3.1383  2.8768
   82MOL0     H10808   0.201   7.601   6.778 -1.1438  1.6457 -0.1023
   82MOL0     H10809   0.377   7.508   6.702  0.3147 -1.8332 -0.7889
   82MOL0     H10810   1.983   6.775   6.624  1.8094 -1.0952  0.8080
   82MOL0     H10811   2.188   6.856   6.576  3.1019  2.0197  1.1154
   82MOL0     H10812   2.543   7.078   6.720 -0.5471 -1.2289 -3.2515
   82MOL0     H10813   2.774   7.171   6.711 -0.2605  0.3866 -0.7725
   82MOL0     H10814   2.934   7.258   6.572  0.7605  0.1024 -0.0265
   82MOL0     H10815   2.969   7.294   6.736 -0.5111 -0.9979 -0.1707
   82MOL0     H10816   3.051   7.480   6.500  1.7122  0.4482 -1.4563
   82MOL0     H10817   3.111   7.479   6.662  1.8862  0.7870 -1.5635
   82MOL0     H10818   3.288   7.366   6.531  1.2468 -2.6960  0.9899
   82MOL0     H10819   3.164   7.264   6.456 -2.5964 -1.0109  1.9818
   82MOL0     H10820   3.259   7.259   6.736  1.9122  1.3476 -2.8005
   82MOL0     H10821   3.122   7.151   6.680  0.4132 -3.4703 -1.9125
   82MOL0     H10822   3.469   6.960   6.518  1.6665 -0.1058  1.6019
   82MOL0     H10823   2.610   7.555   6.580  1.8990 -0.8559 -1.9098
   82MOL0     H10824   2.392   7.466   6.639  0.8013  0.1568  1.1107
   83MOL0     O10825   0.647  10.586   1.762 -0.3322 -0.0584  0.2088
   83MOL0     C10826   0.666  10.601   1.640 -0.4153  0.0644  1.5020
   83MOL0     O10827   0.603  10.694   1.564 -0.5325  0.6201 -0.0456
   83MOL0     C10828   0.494  10.757   1.621 -0.1476  0.5974 -0.1740
   83MOL0     C10829   0.453  10.873   1.556 -1.4329  0.7362 -1.2223
   83MOL0     C10830   0.344  10.942   1.600 -0.2426  0.1572 -0.3473
   83MOL0     C10831   0.267  10.904   1.709 -0.0798 -0.6185  0.3570
   83MOL0     O10832   0.160  10.989   1.748 -0.1724 -0.0569 -0.1117
   83MOL0     C10833   0.162  11.020   1.886  0.0701  0.0947  0.4989
   83MOL0     C10834   0.024  11.060   1.920  0.0487  0.4146  0.7110
   83MOL0     C10835  -0.000  11.081   2.071  0.2827  0.1385  0.5685
   83MOL0     C10836  -0.143  11.096   2.124 -0.0272 -0.4316  0.4776
   83MOL0     C10837  -0.139  11.089   2.278  0.4238  0.0975  0.1892
   83MOL0     C10838  -0.259  11.164   2.343  0.1305  0.4561  0.6986
   83MOL0     C10839  -0.257  11.157   2.487 -0.1232  0.0012 -0.2681
   83MOL0     C10840  -0.382  11.223   2.536 -0.0219  0.1757  0.8494
   83MOL0     N10841  -0.420  11.215   2.676  0.3634 -0.6957  0.6520
   83MOL0     C10842  -0.502  11.126   2.734 -0.0767 -0.0967 -0.2609
   83MOL0     C10843  -0.546  11.187   2.849 -0.0410  0.3898  0.1240
   83MOL0     C10844  -0.644  11.126   2.953 -0.2847  0.5241  0.0127
   83MOL0     C10845  -0.778  11.097   2.895  0.3709 -0.8023  0.3119
   83MOL0     C10846  -0.866  11.033   2.999  0.1270  0.0652  0.1739
   83MOL0     C10847  -0.952  11.135   3.065 -0.8594  0.3627  1.0565
   83MOL0     O10848  -1.070  11.059   3.112 -0.6649 -0.4558 -0.1379
   83MOL0     C10849  -1.173  11.141   3.141  1.1017  0.9698 -0.1707
   83MOL0     C10850  -1.303  11.084   3.122 -0.4366 -0.4708 -0.0007
   83MOL0     C10851  -1.421  11.148   3.163  0.8448  0.8740  0.7058
   83MOL0     C10852  -1.422  11.278   3.217 -0.4185 -0.5360  1.3128
   83MOL0     C10853  -1.551  11.337   3.259 -0.5285 -0.2355  0.2319
   83MOL0     O10854  -1.658  11.258   3.284 -0.5628 -0.2130  0.6581
   83MOL0     C10855  -1.773  11.323   3.309 -0.2080  0.5159 -1.1318
   83MOL0     C10856  -1.795  11.341   3.444 -0.3853  0.7977  0.2600
   83MOL0     C10857  -1.918  11.403   3.481 -0.0907  0.1289  1.2268
   83MOL0     C10858  -2.011  11.450   3.395 -0.0121  0.0723 -0.4249
   83MOL0     O10859  -2.139  11.502   3.425 -0.2881 -0.1815  0.3210
   83MOL0     C10860  -2.158  11.521   3.562  0.6366  0.1244  0.6018
   83MOL0     C10861  -2.291  11.589   3.579  0.0982  0.2483 -0.2920
   83MOL0     C10862  -2.294  11.738   3.574  0.0173 -0.1442  0.3343
   83MOL0     C10863  -2.437  11.790   3.603  0.3622 -0.1515 -0.7404
   83MOL0     C10864  -2.450  11.942   3.613 -0.3174  0.1418  0.1635
   83MOL0     C10865  -2.597  11.973   3.651 -0.0364  0.9149  0.8095
   83MOL0     C10866  -2.594  12.104   3.723 -0.5493  0.9876  0.9647
   83MOL0     C10867  -2.729  12.128   3.791  0.1608  1.1114 -0.1020
   83MOL0    Cl10868  -2.851  12.166   3.664 -0.4482 -0.0014  0.6094
   83MOL0     C10869  -1.978  11.430   3.258 -0.1212 -0.0825 -0.0406
   83MOL0     C10870  -1.867  11.366   3.212 -0.3427 -0.2611 -0.1660
   83MOL0     O10871  -1.557  11.459   3.270  0.0056  0.0709 -0.4105
   83MOL0     C10872  -1.300  11.343   3.220  0.0594 -0.1219  0.0799
   83MOL0     C10873  -1.174  11.273   3.190  0.0091 -0.1148 -0.3385
   83MOL0     N10874  -0.488  11.313   2.860 -0.0675  0.9623  0.0820
   83MOL0     N10875  -0.411  11.322   2.756 -0.4732  0.1756 -0.2546
   83MOL0     C10876   0.295  10.786   1.773 -0.2197 -0.2637 -0.2755
   83MOL0     C10877   0.403  10.709   1.721 -0.8813  0.5339  0.2533
   83MOL0     C10878   0.781  10.523   1.586 -0.2882 -0.4858 -0.0916
   83MOL0     C10879   0.832  10.413   1.656 -0.0914  0.2884  0.2356
   83MOL0     C10880   0.940  10.333   1.611 -0.0710 -0.7231  0.4293
   83MOL0     C10881   0.995  10.372   1.486  1.1941 -0.1343  0.5293
   83MOL0     O10882   1.104  10.299   1.427 -0.9834 -0.5675 -0.1558
   83MOL0     C10883   1.072  10.173   1.376 -0.3059 -0.0683  0.9778
   83MOL0     C10884   1.201  10.076   1.381  0.1918 -0.6698  0.0708
   83MOL0     C10885   1.247  10.056   1.240  0.0513  0.6628  0.2085
   83MOL0     C10886   1.285  10.178   1.161 -0.2207 -0.6263 -0.4554
   83MOL0     C10887   1.279  10.147   1.015  0.0604 -0.0041  0.2153
   83MOL0     C10888   1.279  10.147   0.897  0.2629  0.1867 -0.0904
   83MOL0     C10889   0.939  10.487   1.419 -0.5200 -0.0848 -1.1971
   83MOL0     C10890   0.845  10.570   1.471 -0.2409 -0.3566 -0.9881
   83MOL0     H10891   0.512  10.914   1.475 -0.1996  0.5593 -0.4408
   83MOL0     H10892   0.331  11.044   1.565 -1.2397  1.2921  2.9364
   83MOL0     H10893   0.232  11.103   1.889  2.9459 -1.5398 -5.4473
   83MOL0     H10894   0.203  10.939   1.947  0.7993  1.3489  1.7313
   83MOL0     H10895  -0.043  10.978   1.891  1.2041 -0.0502 -0.8036
   83MOL0     H10896   0.002  11.156   1.872 -1.8776 -0.7750 -0.9402
   83MOL0     H10897   0.046  11.171   2.111 -2.9503  1.8432  0.7688
   83MOL0     H10898   0.046  10.995   2.121 -0.7356  0.9998  3.1623
   83MOL0     H10899  -0.178  11.191   2.082 -0.2449 -1.6730 -2.3547
   83MOL0     H10900  -0.211  11.015   2.099 -1.4429  0.6459  0.7155
   83MOL0     H10901  -0.039  11.128   2.302  0.3168  0.5496 -0.0778
   83MOL0     H10902  -0.133  10.983   2.303  1.2362 -0.1878 -1.0944
   83MOL0     H10903  -0.347  11.112   2.304  0.4196 -0.7427  1.5799
   83MOL0     H10904  -0.273  11.265   2.303  0.1886 -0.1476 -0.9560
   83MOL0     H10905  -0.247  11.056   2.526 -2.7516 -0.0857  0.3568
   83MOL0     H10906  -0.170  11.213   2.521  1.1702 -0.3700 -2.7064
   83MOL0     H10907  -0.465  11.182   2.479  1.7397 -0.7793 -1.1164
   83MOL0     H10908  -0.378  11.329   2.509 -4.7696  0.6170  1.0779
   83MOL0     H10909  -0.519  11.025   2.698  3.7665 -0.8566 -0.2930
   83MOL0     H10910  -0.649  11.194   3.038  0.0432 -0.8778  1.2001
   83MOL0     H10911  -0.613  11.030   2.996 -3.1037  0.3667  1.9484
   83MOL0     H10912  -0.774  11.039   2.803 -1.3095 -0.7121  0.1473
   83MOL0     H10913  -0.827  11.187   2.857 -0.6996 -1.8137 -0.7973
   83MOL0     H10914  -0.937  10.969   2.947 -3.0680 -0.2242  4.3913
   83MOL0     H10915  -0.812  10.979   3.077 -0.0910  1.5096  1.3685
   83MOL0     H10916  -0.984  11.209   2.991 -1.2785  0.7245  1.5946
   83MOL0     H10917  -0.900  11.181   3.149  1.3283 -0.7977  0.4109
   83MOL0     H10918  -1.325  10.990   3.071 -3.8003 -0.2810  0.8355
   83MOL0     H10919  -1.510  11.088   3.152  1.4719  0.2403 -1.2115
   83MOL0     H10920  -1.729  11.299   3.520 -0.3460  0.6160  0.1272
   83MOL0     H10921  -1.935  11.417   3.587  0.9929 -1.0824  1.5909
   83MOL0     H10922  -2.078  11.575   3.615  1.9949  1.1188 -2.2664
   83MOL0     H10923  -2.171  11.420   3.603 -0.1772 -0.4902 -1.0568
   83MOL0     H10924  -2.334  11.563   3.677  2.0613 -0.0526  0.5355
   83MOL0     H10925  -2.354  11.533   3.509  2.6728 -1.5009 -1.3537
   83MOL0     H10926  -2.262  11.757   3.471  1.2450 -4.0694 -0.1753
   83MOL0     H10927  -2.233  11.794   3.646  0.1912  0.2541 -0.1156
   83MOL0     H10928  -2.507  11.763   3.523 -0.6815  0.3174 -0.0136
   83MOL0     H10929  -2.458  11.744   3.700  1.4391 -1.6204 -1.1729
   83MOL0     H10930  -2.444  11.983   3.512  1.7136 -3.1942 -1.2202
   83MOL0     H10931  -2.369  11.974   3.679 -0.6681  3.2683 -0.7805
   83MOL0     H10932  -2.637  11.901   3.723  2.6968 -0.6156  0.9002
   83MOL0     H10933  -2.655  11.987   3.559 -0.0018  3.1899  1.0608
   83MOL0     H10934  -2.513  12.111   3.796  1.3452  0.3898 -0.9829
   83MOL0     H10935  -2.572  12.182   3.651  1.5965  1.4406  2.0401
   83MOL0     H10936  -2.726  12.220   3.851  1.4179  1.6153 -0.9013
   83MOL0     H10937  -2.749  12.042   3.855  0.3249  0.0411 -1.4407
   83MOL0     H10938  -2.048  11.460   3.181  0.0799  0.7132  0.0739
   83MOL0     H10939  -1.843  11.353   3.107  0.2861 -0.8248  0.0412
   83MOL0     H10940  -1.309  11.448   3.246  0.9544 -0.0158  0.0223
   83MOL0     H10941  -1.079  11.325   3.196 -0.3931  0.6161 -0.2600
   83MOL0     H10942   0.245  10.743   1.859  0.0170 -3.8160 -1.7610
   83MOL0     H10943   0.423  10.618   1.778  1.8528  0.9898  0.1893
   83MOL0     H10944   0.792  10.393   1.755  0.5544  1.9848  0.8805
   83MOL0     H10945   0.970  10.258   1.683  3.2497  1.7689  1.8999
   83MOL0     H10946   1.027  10.182   1.277 -2.9357 -4.4736  1.5202
   83MOL0     H10947   0.994  10.133   1.441  1.5250 -2.0576  2.0773
   83MOL0     H10948   1.285  10.114   1.440 -0.7640  0.0716  1.0067
   83MOL0     H10949   1.164   9.979   1.415  0.0680 -0.7277 -0.2231
   83MOL0     H10950   1.158  10.010   1.197  0.2242  2.4449 -2.2982
   83MOL0     H10951   1.335   9.992   1.247  1.2716  2.1669 -0.7134
   83MOL0     H10952   1.228  10.267   1.189  2.5116  0.7809  1.0969
   83MOL0     H10953   1.391  10.197   1.181 -0.3634  1.1252 -1.1842
   83MOL0     H10954   1.273  10.150   0.790 -0.8070  0.2657 -0.0406
   83MOL0     H10955   0.990  10.522   1.329 -0.1740  2.8357  0.0238
   83MOL0     H10956   0.823  10.663   1.420  0.5948  0.4016 -0.0002
   84MOL0     O10957   3.831   1.148   2.682 -0.5781 -0.4017  0.3538
   84MOL0     C10958   3.887   1.256   2.683 -0.0171 -0.1287  0.0428
   84MOL0     O10959   3.823   1.376   2.666 -0.5286 -0.6047  0.4479
   84MOL0     C10960   3.690   1.399   2.695 -0.4446  1.0978  0.3798
   84MOL0     C10961   3.646   1.530   2.676 -0.0615  0.0560  0.4479
   84MOL0     C10962   3.508   1.567   2.696  1.1816  0.5706  0.6381
   84MOL0     C10963   3.416   1.466   2.723 -0.6241 -0.1925  0.5304
   84MOL0     O10964   3.285   1.489   2.749 -0.0318  0.8703 -0.0034
   84MOL0     C10965   3.241   1.629   2.740  0.8365  0.0217 -0.1264
   84MOL0     C10966   3.094   1.631   2.707 -0.9453 -0.5929 -0.7685
   84MOL0     C10967   3.010   1.613   2.840 -0.2389  0.3917  1.4409
   84MOL0     C10968   2.872   1.672   2.826 -0.5882 -0.4083  0.0690
   84MOL0     C10969   2.782   1.595   2.738 -0.5423 -0.2712  1.3624
   84MOL0     C10970   2.634   1.642   2.749 -0.6517 -0.2427 -0.3176
   84MOL0     C10971   2.553   1.571   2.639 -0.2213 -0.3086  0.7337
   84MOL0     C10972   2.528   1.422   2.645 -0.1517 -0.6658  0.6115
   84MOL0     N10973   2.448   1.383   2.533  0.6075 -0.1598  0.3220
   84MOL0     C10974   2.494   1.371   2.399  0.1429  0.3175  0.9413
   84MOL0     C10975   2.385   1.331   2.323  0.7462 -0.7857 -0.0663
   84MOL0     C10976   2.392   1.304   2.170  0.4685  0.0463  0.0166
   84MOL0     C10977   2.279   1.373   2.083  0.1647  0.7530  0.3901
   84MOL0     C10978   2.151   1.295   2.086 -0.2116 -0.5718  0.1000
   84MOL0     C10979   2.040   1.368   2.004  1.2842  0.2741  0.1917
   84MOL0     O10980   1.904   1.326   2.034  0.6034  0.1920  0.0933
   84MOL0     C10981   1.802   1.396   1.972 -0.4563  0.4503 -0.5704
   84MOL0     C10982   1.674   1.353   2.022  0.5106 -0.1422  0.1661
   84MOL0     C10983   1.554   1.413   1.970  0.6603 -0.0514 -0.0370
   84MOL0     C10984   1.564   1.512   1.867 -0.2517 -0.4996 -0.8142
   84MOL0     C10985   1.433   1.580   1.817 -0.5391 -0.1456  0.0075
   84MOL0     O10986   1.318   1.513   1.844 -0.1717 -0.1856 -0.0054
   84MOL0     C10987   1.204   1.545   1.772 -0.6783 -0.0925 -0.7122
   84MOL0     C10988   1.191   1.595   1.647 -0.7260  1.1191  0.8121
   84MOL0     C10989   1.072   1.636   1.593  0.0609 -0.3132 -0.1061
   84MOL0     C10990   0.951   1.629   1.667 -0.0426  1.1027 -0.6912
   84MOL0     O10991   0.835   1.667   1.601  0.0307  0.4191 -0.0321
   84MOL0     C10992   0.714   1.629   1.673 -0.2233 -0.3960  0.1629
   84MOL0     C10993   0.599   1.685   1.586 -0.2323 -0.0193 -0.9338
   84MOL0     C10994   0.591   1.602   1.466 -0.9773  0.9906  0.7058
   84MOL0     C10995   0.467   1.632   1.379  0.5093  0.2512  0.0770
   84MOL0     C10996   0.445   1.773   1.338 -0.6576  0.0876  0.1991
   84MOL0     C10997   0.313   1.802   1.273  0.2100  0.5943 -0.3286
   84MOL0     C10998   0.272   1.946   1.258 -0.2290 -0.4780 -0.3172
   84MOL0     C10999   0.137   1.961   1.174  0.0269  0.6649  0.1434
   84MOL0    Cl11000   0.141   1.871   1.013  0.1007  0.2793 -0.6783
   84MOL0     C11001   0.962   1.578   1.795  0.1755 -0.6725 -1.0091
   84MOL0     C11002   1.090   1.534   1.847  0.7746 -0.5912 -0.4415
   84MOL0     O11003   1.446   1.684   1.753  0.5914  0.2755 -0.4842
   84MOL0     C11004   1.692   1.558   1.837  0.1577 -0.1763  0.4295
   84MOL0     C11005   1.811   1.508   1.889 -0.0787 -0.1802  0.2737
   84MOL0     N11006   2.270   1.326   2.407  0.1845 -0.8196  0.3412
   84MOL0     N11007   2.310   1.356   2.531 -0.0491 -0.1977  1.1102
   84MOL0     C11008   3.454   1.333   2.724  0.6260 -0.4154  0.3359
   84MOL0     C11009   3.587   1.298   2.713  0.0886 -0.2448 -0.3615
   84MOL0     C11010   4.038   1.255   2.678 -0.0881  1.4603 -0.0524
   84MOL0     C11011   4.104   1.128   2.670  0.2485  0.4668  0.5690
   84MOL0     C11012   4.240   1.115   2.647 -0.0507 -0.7071 -0.4965
   84MOL0     C11013   4.322   1.223   2.633 -0.3092 -0.6317  0.0649
   84MOL0     O11014   4.452   1.217   2.617 -0.1271 -0.0887  0.0453
   84MOL0     C11015   4.523   1.102   2.663  0.6069 -0.7482 -0.7008
   84MOL0     C11016   4.674   1.121   2.678 -0.6268 -0.1427 -0.1408
   84MOL0     C11017   4.737   1.217   2.575  0.5234 -0.0660  1.1863
   84MOL0     C11018   4.894   1.224   2.597  1.0988  0.6867 -0.1612
   84MOL0     C11019   4.945   1.092   2.558  0.0857 -0.1365 -0.0510
   84MOL0     C11020   4.998   0.995   2.517  0.7185 -0.6506 -0.8490
   84MOL0     C11021   4.259   1.354   2.635  0.0971 -0.5521 -0.2844
   84MOL0     C11022   4.121   1.369   2.669 -0.2672 -0.6588 -0.3548
   84MOL0     H11023   3.711   1.609   2.639  0.1022  0.2519  1.1511
   84MOL0     H11024   3.485   1.673   2.695  2.4404  0.8627  0.9423
   84MOL0     H11025   3.274   1.677   2.648 -3.0840  0.8639 -1.2721
   84MOL0     H11026   3.272   1.692   2.825  0.7393  1.5911 -1.2093
   84MOL0     H11027   3.074   1.539   2.651  0.1372 -2.1144  1.2059
   84MOL0     H11028   3.067   1.720   2.650 -0.4774  0.1716  0.1720
   84MOL0     H11029   3.056   1.673   2.919 -0.8082  0.7533  1.5044
   84MOL0     H11030   3.003   1.506   2.861  0.5739 -0.0852 -0.4592
   84MOL0     H11031   2.825   1.683   2.925  0.5234  0.0451  0.5650
   84MOL0     H11032   2.890   1.769   2.779  1.3954 -1.6959 -2.0444
   84MOL0     H11033   2.775   1.492   2.775 -2.9121 -0.8102 -0.3836
   84MOL0     H11034   2.824   1.591   2.636 -1.9153  1.0485  0.7104
   84MOL0     H11035   2.631   1.751   2.742  0.6362 -0.1622  0.0150
   84MOL0     H11036   2.596   1.628   2.851 -1.6862  0.8590 -0.5323
   84MOL0     H11037   2.454   1.616   2.627  0.4948  1.1684  0.1005
   84MOL0     H11038   2.594   1.600   2.541 -0.3076  2.0029  1.3211
   84MOL0     H11039   2.474   1.401   2.738 -1.4454 -0.7613 -0.1410
   84MOL0     H11040   2.624   1.370   2.637 -0.0354 -0.2139 -1.3314
   84MOL0     H11041   2.588   1.411   2.362  1.0983  0.7018  3.5873
   84MOL0     H11042   2.379   1.196   2.166 -0.2253  0.1441 -0.5363
   84MOL0     H11043   2.491   1.340   2.142  2.0354 -1.9610  2.5367
   84MOL0     H11044   2.305   1.381   1.977  0.1613 -0.1106  0.3124
   84MOL0     H11045   2.250   1.471   2.122  1.4700  0.5771  1.9211
   84MOL0     H11046   2.174   1.199   2.039 -1.9841 -1.6720  1.3332
   84MOL0     H11047   2.108   1.273   2.184  1.3632 -1.2758  0.6656
   84MOL0     H11048   2.060   1.335   1.902  0.3942 -2.5860  0.8623
   84MOL0     H11049   2.045   1.477   2.010  0.8731  0.3913 -1.1526
   84MOL0     H11050   1.671   1.276   2.099  0.3771  1.8960  2.3192
   84MOL0     H11051   1.457   1.378   2.004 -0.4704  2.5077 -0.3989
   84MOL0     H11052   1.275   1.591   1.578  0.2656  1.0984  1.9871
   84MOL0     H11053   1.060   1.667   1.490 -1.4746 -1.9727 -0.4962
   84MOL0     H11054   0.713   1.672   1.773 -1.2443  4.3350 -1.5919
   84MOL0     H11055   0.700   1.521   1.676  2.5637 -0.8831 -1.2435
   84MOL0     H11056   0.619   1.787   1.551 -1.1643 -0.4641 -2.8698
   84MOL0     H11057   0.505   1.668   1.639  0.1323 -0.6547 -0.4757
   84MOL0     H11058   0.586   1.496   1.493 -2.6044  0.9761  0.4322
   84MOL0     H11059   0.677   1.603   1.398  0.0828 -1.8629  1.8538
   84MOL0     H11060   0.470   1.571   1.289  2.1092  1.0607 -0.4569
   84MOL0     H11061   0.373   1.603   1.426  0.2355  0.7887 -0.1302
   84MOL0     H11062   0.510   1.794   1.252 -2.2192 -0.2545 -1.0979
   84MOL0     H11063   0.454   1.843   1.421  2.2124 -2.1944  2.0061
   84MOL0     H11064   0.232   1.751   1.327 -0.5816  3.5179  1.4471
   84MOL0     H11065   0.325   1.755   1.175  1.7196  0.8901 -0.3022
   84MOL0     H11066   0.263   1.987   1.359 -1.5051 -3.2216  0.7552
   84MOL0     H11067   0.354   1.989   1.199  0.0256 -1.3997 -0.6435
   84MOL0     H11068   0.114   2.066   1.160 -0.6446  0.2954 -1.8601
   84MOL0     H11069   0.052   1.927   1.234  1.3963  1.6010  2.7455
   84MOL0     H11070   0.880   1.568   1.865  1.7607 -1.5240  0.8036
   84MOL0     H11071   1.094   1.493   1.948 -2.6776  2.1985  1.0240
   84MOL0     H11072   1.689   1.648   1.777 -3.6281  1.0668  2.2165
   84MOL0     H11073   1.904   1.556   1.861 -0.8146  0.2366 -1.5858
   84MOL0     H11074   3.380   1.256   2.745  0.4180  0.2660  2.2434
   84MOL0     H11075   3.598   1.190   2.709  1.6115 -0.0867 -3.6110
   84MOL0     H11076   4.049   1.034   2.672  1.9464 -0.6760 -1.6972
   84MOL0     H11077   4.268   1.012   2.630 -3.7453 -1.8157 -0.8944
   84MOL0     H11078   4.503   1.023   2.589 -0.9939 -0.0707 -1.0408
   84MOL0     H11079   4.484   1.083   2.764 -2.2460  1.0225 -1.3564
   84MOL0     H11080   4.698   1.166   2.775  2.4658 -0.7413 -0.5184
   84MOL0     H11081   4.712   1.019   2.681 -0.5879 -0.1055  0.9083
   84MOL0     H11082   4.696   1.315   2.601  1.0379  0.6087 -0.4318
   84MOL0     H11083   4.712   1.190   2.472 -0.2075 -2.6479  1.9609
   84MOL0     H11084   4.927   1.305   2.532  1.0193  1.4180  0.6954
   84MOL0     H11085   4.911   1.250   2.702 -1.0747  0.8942  0.1892
   84MOL0     H11086   5.065   0.920   2.480  2.8836  1.0670 -0.6206
   84MOL0     H11087   4.333   1.427   2.606  1.0791 -1.9394 -1.4465
   84MOL0     H11088   4.084   1.470   2.653 -0.8971 -0.7333  0.5379
   85MOL0     O11089   5.357   8.451   3.764  0.8569  0.0196 -0.8371
   85MOL0     C11090   5.367   8.443   3.886  0.1406 -0.1188  0.0819
   85MOL0     O11091   5.267   8.399   3.969 -0.1345 -0.0118 -0.3356
   85MOL0     C11092   5.134   8.377   3.924  0.4533 -0.8275  0.0227
   85MOL0     C11093   5.049   8.304   4.013 -0.7440 -0.0633  0.9367
   85MOL0     C11094   4.920   8.280   3.978  1.0984 -0.1568 -0.0845
   85MOL0     C11095   4.866   8.329   3.857  0.3214  0.4915 -0.0827
   85MOL0     O11096   4.738   8.297   3.844 -0.5073 -0.4791  0.4369
   85MOL0     C11097   4.659   8.386   3.755 -0.4644  0.6460  0.3940
   85MOL0     C11098   4.520   8.417   3.820  0.3055 -0.1518 -0.3368
   85MOL0     C11099   4.419   8.302   3.819  0.3609  0.2420 -0.8531
   85MOL0     C11100   4.289   8.323   3.906  0.3791  0.0102 -0.3631
   85MOL0     C11101   4.197   8.411   3.837  0.8320 -0.1264  0.5978
   85MOL0     C11102   4.164   8.363   3.688 -0.3148 -0.2217 -0.3095
   85MOL0     C11103   4.059   8.447   3.618 -0.0028 -0.2880  0.2689
   85MOL0     C11104   3.921   8.415   3.672  0.0949 -0.3048 -0.3004
   85MOL0     N11105   3.808   8.491   3.618  0.2743 -0.3087  0.2716
   85MOL0     C11106   3.794   8.631   3.622 -0.2501  0.4182 -0.2746
   85MOL0     C11107   3.676   8.661   3.567 -0.2099  0.4902 -0.1422
   85MOL0     C11108   3.628   8.807   3.556  0.3727 -0.3679  0.1974
   85MOL0     C11109   3.481   8.843   3.512 -0.8389  0.0964  0.4330
   85MOL0     C11110   3.365   8.781   3.587 -0.1583  0.5203  0.5218
   85MOL0     C11111   3.233   8.851   3.565 -0.3402  0.3308 -0.3270
   85MOL0     O11112   3.230   8.970   3.634  0.0598 -0.3711 -0.6141
   85MOL0     C11113   3.117   9.055   3.627  0.5749 -0.1454 -0.2703
   85MOL0     C11114   2.999   9.022   3.552 -0.6248  0.6802  1.1920
   85MOL0     C11115   2.901   9.122   3.529 -0.2768  0.0656  0.5577
   85MOL0     C11116   2.905   9.243   3.597 -0.3734  0.8425  0.6594
   85MOL0     C11117   2.804   9.348   3.578 -0.6736  0.6968 -0.3680
   85MOL0     O11118   2.689   9.303   3.524 -0.2778  0.6425 -0.6443
   85MOL0     C11119   2.578   9.372   3.495 -0.4520  0.5988  0.3207
   85MOL0     C11120   2.559   9.508   3.479  0.2468  0.0422  0.0882
   85MOL0     C11121   2.447   9.565   3.427  0.4744  0.1354  0.1228
   85MOL0     C11122   2.328   9.482   3.429 -0.5782 -0.7882  0.5045
   85MOL0     O11123   2.209   9.516   3.384 -1.0096 -0.0367 -0.1064
   85MOL0     C11124   2.183   9.656   3.390 -1.2608 -0.0901 -0.0537
   85MOL0     C11125   2.030   9.687   3.382 -0.0561 -0.7958 -1.0712
   85MOL0     C11126   1.990   9.827   3.430 -0.3603  0.0705  0.2566
   85MOL0     C11127   1.872   9.886   3.353 -0.3863  0.8658  0.2570
   85MOL0     C11128   1.752   9.801   3.373  1.0675 -0.4627  0.5088
   85MOL0     C11129   1.707   9.796   3.524  0.5894 -0.5144  0.0764
   85MOL0     C11130   1.570   9.738   3.541  0.7099  0.4617  0.1956
   85MOL0     C11131   1.526   9.736   3.684  0.4886  0.1424 -0.4458
   85MOL0    Cl11132   1.497   9.900   3.744 -0.0250 -0.4421  0.2574
   85MOL0     C11133   2.343   9.350   3.458  0.4321 -0.5747  0.7758
   85MOL0     C11134   2.464   9.294   3.483 -0.0039 -0.8543 -1.1808
   85MOL0     O11135   2.826   9.463   3.617  0.2807 -0.1507  0.0242
   85MOL0     C11136   3.017   9.261   3.679 -0.2806  0.1452 -0.4043
   85MOL0     C11137   3.121   9.174   3.694 -0.4146  0.3185  0.2992
   85MOL0     N11138   3.613   8.540   3.537 -0.3141 -0.1595  0.0483
   85MOL0     N11139   3.696   8.441   3.568  0.5431 -0.2255  0.4819
   85MOL0     C11140   4.949   8.400   3.768 -0.6944  0.5030 -0.8696
   85MOL0     C11141   5.081   8.418   3.805 -0.5027 -0.5809 -0.1450
   85MOL0     C11142   5.483   8.494   3.965 -0.4494  0.3545  0.4238
   85MOL0     C11143   5.578   8.579   3.908  0.1087 -0.8940  0.3021
   85MOL0     C11144   5.692   8.629   3.975 -1.2603 -0.2563  0.0145
   85MOL0     C11145   5.709   8.588   4.111  0.7213  0.1069 -0.0089
   85MOL0     O11146   5.802   8.622   4.206 -0.3638 -0.1659 -0.3319
   85MOL0     C11147   5.897   8.722   4.163 -0.3064 -0.8740  0.7696
   85MOL0     C11148   5.855   8.867   4.167  0.6034  0.2175 -0.6371
   85MOL0     C11149   5.826   8.919   4.312  0.8726  0.2628  0.0720
   85MOL0     C11150   5.945   8.979   4.380 -0.0108  0.1380 -0.8778
   85MOL0     C11151   5.990   9.096   4.298 -0.8788 -0.2708 -0.3132
   85MOL0     C11152   6.019   9.197   4.238 -0.0792 -0.8320 -0.0631
   85MOL0     C11153   5.618   8.500   4.166  0.0664 -0.4473 -0.3323
   85MOL0     C11154   5.513   8.447   4.093 -1.1248  0.5018  0.5519
   85MOL0     H11155   5.092   8.274   4.109 -1.7918  2.3448  2.2454
   85MOL0     H11156   4.853   8.217   4.037 -1.8078 -1.0840 -3.9720
   85MOL0     H11157   4.635   8.335   3.661 -1.6179  1.1943  0.3816
   85MOL0     H11158   4.712   8.479   3.734  1.1318 -0.8403 -2.9147
   85MOL0     H11159   4.473   8.497   3.762 -1.0261  0.4222  1.4157
   85MOL0     H11160   4.536   8.461   3.919  0.1696  0.9397 -0.7829
   85MOL0     H11161   4.465   8.221   3.875 -2.4513  0.2420  1.7377
   85MOL0     H11162   4.406   8.262   3.718 -1.7032  0.0698 -0.5708
   85MOL0     H11163   4.241   8.224   3.907  0.8345 -0.2592  2.3187
   85MOL0     H11164   4.314   8.350   4.009 -1.6225  0.7999 -0.0519
   85MOL0     H11165   4.227   8.516   3.832 -0.3976  0.3575  2.4133
   85MOL0     H11166   4.101   8.399   3.889 -0.7104  2.9592 -1.2492
   85MOL0     H11167   4.118   8.264   3.695 -1.7142  0.4264  0.1096
   85MOL0     H11168   4.257   8.354   3.631 -1.5830  0.3368 -2.6115
   85MOL0     H11169   4.069   8.554   3.637  0.9457 -0.7220  2.4702
   85MOL0     H11170   4.066   8.419   3.512  2.0380 -0.7611  0.4912
   85MOL0     H11171   3.913   8.431   3.780 -2.8577 -1.9069 -0.1785
   85MOL0     H11172   3.901   8.311   3.648  1.3832 -0.5857 -0.2133
   85MOL0     H11173   3.855   8.713   3.658  3.4887 -2.2435  0.0693
   85MOL0     H11174   3.701   8.859   3.493  0.8886  0.3039  1.3098
   85MOL0     H11175   3.641   8.843   3.658  0.3088  1.5486 -0.4249
   85MOL0     H11176   3.479   8.807   3.408  0.2971 -1.9052  1.0591
   85MOL0     H11177   3.472   8.951   3.499 -0.1196  0.1517  0.3416
   85MOL0     H11178   3.343   8.680   3.553 -2.3832  1.5622 -1.4610
   85MOL0     H11179   3.386   8.776   3.694  4.1661  0.0197 -0.1830
   85MOL0     H11180   3.151   8.785   3.595  0.4269  0.0999  1.3653
   85MOL0     H11181   3.223   8.871   3.458 -0.0177  0.0303 -0.4163
   85MOL0     H11182   2.990   8.929   3.497 -0.8800  1.6363 -0.4959
   85MOL0     H11183   2.826   9.116   3.451 -0.9653 -0.3322  1.2419
   85MOL0     H11184   2.646   9.566   3.511  0.6946 -0.2240 -0.6219
   85MOL0     H11185   2.440   9.673   3.413 -0.2908  0.2049  0.9720
   85MOL0     H11186   2.235   9.708   3.309  1.5694  2.5489  3.1060
   85MOL0     H11187   2.227   9.702   3.479 -2.1443 -0.8311  0.7876
   85MOL0     H11188   1.971   9.614   3.439 -1.5427  1.4771  0.4593
   85MOL0     H11189   1.998   9.679   3.278  0.6544  1.0155 -1.4652
   85MOL0     H11190   2.080   9.887   3.420  0.7772 -1.5878  0.1687
   85MOL0     H11191   1.978   9.824   3.539  0.1681  0.6133  0.3333
   85MOL0     H11192   1.867   9.990   3.387 -1.0695  0.5470  1.1713
   85MOL0     H11193   1.902   9.884   3.248  1.9857  1.3928  0.8656
   85MOL0     H11194   1.768   9.699   3.337  3.3589 -0.0970  0.2943
   85MOL0     H11195   1.669   9.837   3.311  1.3569 -1.9652 -0.8190
   85MOL0     H11196   1.723   9.896   3.566 -1.1634 -0.3731  0.4818
   85MOL0     H11197   1.782   9.740   3.581  2.2079 -0.8134 -2.2283
   85MOL0     H11198   1.501   9.796   3.479  1.3615  0.1305 -0.8754
   85MOL0     H11199   1.566   9.635   3.502 -2.5676  1.4371 -2.5765
   85MOL0     H11200   1.603   9.691   3.748 -0.6395 -0.4374  0.5571
   85MOL0     H11201   1.429   9.684   3.682  0.1867  0.2510  3.3188
   85MOL0     H11202   2.263   9.280   3.437 -1.2642  1.3031  0.6825
   85MOL0     H11203   2.464   9.186   3.496 -0.0978 -0.9985 -2.3309
   85MOL0     H11204   3.023   9.350   3.741  1.9664 -0.5544  0.4966
   85MOL0     H11205   3.208   9.193   3.756 -1.1794 -1.3683  1.9776
   85MOL0     H11206   4.922   8.440   3.671 -0.5443  1.8130 -0.3916
   85MOL0     H11207   5.137   8.468   3.727 -1.8289  3.8673  1.4391
   85MOL0     H11208   5.555   8.606   3.806 -0.6884  0.4024  0.7948
   85MOL0     H11209   5.764   8.687   3.919 -0.5438 -1.0473  0.0970
   85MOL0     H11210   5.935   8.701   4.063 -2.5552 -1.5266 -0.0168
   85MOL0     H11211   5.989   8.711   4.222  1.0228  2.5386 -0.4036
   85MOL0     H11212   5.926   8.929   4.111  1.3029  1.5434  1.5979
   85MOL0     H11213   5.758   8.872   4.116  0.8814 -1.8105 -1.4327
   85MOL0     H11214   5.795   8.830   4.368  1.7134  0.2829  0.5832
   85MOL0     H11215   5.746   8.992   4.294  1.1351  0.6025  0.2854
   85MOL0     H11216   5.920   9.020   4.479  0.3021  2.0910 -1.5673
   85MOL0     H11217   6.031   8.912   4.386 -0.3809 -0.3015 -0.3901
   85MOL0     H11218   6.044   9.290   4.192 -1.0411 -1.1735 -1.3277
   85MOL0     H11219   5.649   8.465   4.265  2.1958 -1.1769 -1.1941
   85MOL0     H11220   5.463   8.366   4.147  2.6731 -2.0942  0.5777
   86MOL0     O11221   3.635  11.265   6.975  0.6890 -0.0254 -0.4312
   86MOL0     C11222   3.715  11.168   6.948  0.1400  0.2828 -0.1898
   86MOL0     O11223   3.670  11.045   6.916 -0.0354  0.5638 -0.8147
   86MOL0     C11224   3.535  11.030   6.948  0.6287  0.0547  0.4224
   86MOL0     C11225   3.437  11.083   6.870 -0.9174 -0.4300  0.0632
   86MOL0     C11226   3.306  11.035   6.895 -0.1776  1.3339 -0.0917
   86MOL0     C11227   3.272  10.943   6.998  0.3799 -0.2798 -0.6873
   86MOL0     O11228   3.150  10.889   7.021  0.2253 -0.3263  0.2785
   86MOL0     C11229   3.036  10.957   6.986  0.6297  0.1563  0.0777
   86MOL0     C11230   2.903  10.921   7.060  0.2518  0.1494 -0.1310
   86MOL0     C11231   2.785  11.034   7.043 -0.3627  0.2593  0.6348
   86MOL0     C11232   2.724  11.031   6.905  0.5853  0.1043  0.9949
   86MOL0     C11233   2.588  11.096   6.902  0.7890 -0.3238 -0.4631
   86MOL0     C11234   2.529  11.070   6.771  0.4372  0.4788 -0.3582
   86MOL0     C11235   2.378  11.095   6.763 -0.1295 -0.3116  0.1184
   86MOL0     C11236   2.335  11.118   6.620  0.2676  0.1437  0.1070
   86MOL0     N11237   2.189  11.096   6.588  0.0586 -0.8721 -0.1710
   86MOL0     C11238   2.125  11.172   6.488  0.5050  0.0135 -0.4934
   86MOL0     C11239   1.990  11.131   6.495 -0.0998  0.1233  0.2787
   86MOL0     C11240   1.877  11.167   6.404 -0.0593 -0.0406 -0.6814
   86MOL0     C11241   1.931  11.221   6.270  1.2194 -0.3467 -0.5331
   86MOL0     C11242   1.824  11.275   6.177  0.5965 -0.5028  0.6753
   86MOL0     C11243   1.760  11.163   6.096  0.4669 -0.2392  0.1767
   86MOL0     O11244   1.673  11.207   5.986 -0.0104 -0.5167 -1.4710
   86MOL0     C11245   1.555  11.269   6.031 -0.9432  0.0050 -0.1720
   86MOL0     C11246   1.498  11.368   5.948  0.8260 -0.2893  0.6716
   86MOL0     C11247   1.383  11.440   5.981 -0.2403  1.1038 -0.1241
   86MOL0     C11248   1.312  11.409   6.105  1.3682 -0.0583 -0.1533
   86MOL0     C11249   1.179  11.480   6.132 -0.1693 -0.1160  0.3134
   86MOL0     O11250   1.126  11.448   6.255 -0.2972  0.0921  0.2787
   86MOL0     C11251   0.995  11.479   6.274 -0.1603 -0.3645 -0.1186
   86MOL0     C11252   0.966  11.562   6.386  0.0613 -0.1731  0.0486
   86MOL0     C11253   0.832  11.582   6.428 -0.8126 -0.0661 -0.4859
   86MOL0     C11254   0.732  11.526   6.353 -0.2556  0.0106 -0.1518
   86MOL0     O11255   0.601  11.532   6.390 -0.7713 -0.2400 -0.4290
   86MOL0     C11256   0.558  11.426   6.478 -0.2600 -0.1371 -0.5546
   86MOL0     C11257   0.411  11.417   6.458  0.4831 -0.1864 -0.3435
   86MOL0     C11258   0.351  11.284   6.524  0.1527  0.1102 -0.8982
   86MOL0     C11259   0.348  11.283   6.678  0.3635 -0.9521 -0.3728
   86MOL0     C11260   0.312  11.146   6.728  0.0549  0.1353 -0.2333
   86MOL0     C11261   0.172  11.100   6.708 -0.0673  0.3488  0.5217
   86MOL0     C11262   0.169  10.955   6.758 -0.1874 -0.0090  0.0732
   86MOL0     C11263   0.028  10.896   6.762 -0.7885  0.8715 -0.4391
   86MOL0    Cl11264  -0.089  10.997   6.855 -0.1416 -0.1162 -0.2783
   86MOL0     C11265   0.761  11.447   6.246 -0.8172  0.5301 -1.1281
   86MOL0     C11266   0.888  11.421   6.208 -0.3606  0.1003  0.0719
   86MOL0     O11267   1.133  11.553   6.048  0.2628  0.2576  0.3393
   86MOL0     C11268   1.367  11.321   6.191  0.0510 -0.3704  0.0300
   86MOL0     C11269   1.483  11.248   6.148 -0.0205 -0.7186 -0.1908
   86MOL0     N11270   1.978  11.028   6.589  0.4443 -0.3157  0.0279
   86MOL0     N11271   2.099  11.012   6.642 -0.1266  0.1102 -0.2775
   86MOL0     C11272   3.377  10.910   7.083 -1.2530  1.1500 -0.4692
   86MOL0     C11273   3.506  10.949   7.058  0.3567 -0.1060 -0.2802
   86MOL0     C11274   3.851  11.185   6.977  0.3192  1.0834  0.3525
   86MOL0     C11275   3.940  11.073   6.971 -0.5060  0.5810 -0.1257
   86MOL0     C11276   4.071  11.093   7.004  0.3048  0.1991  0.0728
   86MOL0     C11277   4.134  11.210   7.040 -0.1413 -0.5396 -0.2989
   86MOL0     O11278   4.264  11.201   7.083 -0.8829  0.2393  0.4018
   86MOL0     C11279   4.338  11.322   7.088 -0.6590  1.1242 -0.3282
   86MOL0     C11280   4.484  11.280   7.087  0.2450  0.0459  0.3730
   86MOL0     C11281   4.522  11.226   6.952 -0.5401  0.0741 -0.1774
   86MOL0     C11282   4.653  11.150   6.955 -0.1134  0.1876  0.5360
   86MOL0     C11283   4.762  11.234   7.001 -0.2501 -0.4654  0.4773
   86MOL0     C11284   4.838  11.328   7.007  0.5035  0.5988  0.4040
   86MOL0     C11285   4.051  11.322   7.041  0.0771  0.2086 -0.2408
   86MOL0     C11286   3.910  11.306   7.022  0.5190 -0.0229 -0.6312
   86MOL0     H11287   3.459  11.149   6.786 -1.4860 -2.6282 -1.9467
   86MOL0     H11288   3.222  11.070   6.836 -0.1438  1.4261 -0.0855
   86MOL0     H11289   3.017  10.938   6.880 -0.9849 -0.0066  0.3600
   86MOL0     H11290   3.054  11.065   6.981 -1.2461  0.4808 -3.4008
   86MOL0     H11291   2.935  10.901   7.162  1.4360  1.0111 -0.3018
   86MOL0     H11292   2.876  10.831   7.005 -0.6209  0.6444 -0.5431
   86MOL0     H11293   2.831  11.131   7.063 -1.3907  0.8092  0.3752
   86MOL0     H11294   2.700  11.019   7.111 -0.9952 -0.2422 -0.2419
   86MOL0     H11295   2.795  11.086   6.843  1.6373 -1.5649  0.6442
   86MOL0     H11296   2.717  10.928   6.869 -0.7902  1.4003 -3.0034
   86MOL0     H11297   2.591  11.205   6.917 -4.1434  0.6629 -3.8983
   86MOL0     H11298   2.515  11.056   6.972 -1.4420  0.4877 -2.1858
   86MOL0     H11299   2.551  10.966   6.744 -0.1337 -0.0138  0.9716
   86MOL0     H11300   2.581  11.131   6.697  2.0860 -1.9500 -1.3265
   86MOL0     H11301   2.320  11.009   6.796 -1.0334 -0.1393 -0.9901
   86MOL0     H11302   2.352  11.180   6.827  1.9791  0.8836 -0.4874
   86MOL0     H11303   2.390  11.052   6.553  0.6255  0.2284  0.3151
   86MOL0     H11304   2.365  11.217   6.584 -1.0671  0.9732  1.1861
   86MOL0     H11305   2.160  11.250   6.422  1.6214 -0.4502 -0.4697
   86MOL0     H11306   1.808  11.232   6.459  1.3762  0.7842  0.2052
   86MOL0     H11307   1.831  11.070   6.383  1.4440 -1.3656  1.6777
   86MOL0     H11308   2.005  11.156   6.222  0.4250 -1.5601 -0.1549
   86MOL0     H11309   1.985  11.309   6.307 -1.8345  1.6035 -0.4244
   86MOL0     H11310   1.737  11.324   6.222 -2.1105 -2.1343 -2.3061
   86MOL0     H11311   1.872  11.335   6.099  3.2431 -5.6991 -2.1993
   86MOL0     H11312   1.715  11.077   6.148  1.8195 -1.2351 -0.2360
   86MOL0     H11313   1.843  11.114   6.044 -0.4270  2.5506 -4.4094
   86MOL0     H11314   1.540  11.397   5.852  0.1474 -0.4407  0.3275
   86MOL0     H11315   1.338  11.508   5.909 -0.5021  1.3587  0.2713
   86MOL0     H11316   1.041  11.602   6.454 -0.9193  3.2446 -0.6857
   86MOL0     H11317   0.815  11.650   6.512  1.9914 -0.4187  0.4897
   86MOL0     H11318   0.575  11.465   6.579 -2.9332 -0.2550 -0.0004
   86MOL0     H11319   0.618  11.338   6.452  2.2872  1.6687 -1.1314
   86MOL0     H11320   0.382  11.405   6.353 -1.9519  0.7110  0.1651
   86MOL0     H11321   0.369  11.512   6.491  0.6003 -0.7101  1.4366
   86MOL0     H11322   0.405  11.199   6.480  0.9515  1.1008 -1.8881
   86MOL0     H11323   0.248  11.270   6.492 -0.8918  3.0471  0.8613
   86MOL0     H11324   0.443  11.317   6.721  0.0682  0.7277 -0.9650
   86MOL0     H11325   0.275  11.360   6.703 -2.5368 -3.0465 -1.7490
   86MOL0     H11326   0.339  11.140   6.834  1.3867  0.1210 -0.5637
   86MOL0     H11327   0.377  11.074   6.679 -2.0457 -1.9532 -0.1522
   86MOL0     H11328   0.139  11.085   6.605 -2.2736  1.3012  1.0244
   86MOL0     H11329   0.098  11.155   6.768 -1.3664 -0.9111  0.1280
   86MOL0     H11330   0.230  10.894   6.691 -1.9406  1.0606 -2.6590
   86MOL0     H11331   0.204  10.952   6.862 -0.0477 -0.6012  0.0118
   86MOL0     H11332   0.048  10.799   6.808 -0.6556  2.7639  3.9261
   86MOL0     H11333  -0.013  10.883   6.661 -1.5158  0.0925 -0.0546
   86MOL0     H11334   0.672  11.411   6.194 -0.3912 -1.8463 -0.3330
   86MOL0     H11335   0.899  11.366   6.115 -0.6470 -0.5017  0.3969
   86MOL0     H11336   1.340  11.305   6.295  0.6061 -0.8693  0.1000
   86MOL0     H11337   1.525  11.181   6.222  1.3935  0.8513  0.5218
   86MOL0     H11338   3.358  10.863   7.180  2.0145  0.1489 -0.1976
   86MOL0     H11339   3.579  10.895   7.117 -1.6759 -3.6304 -0.7065
   86MOL0     H11340   3.901  10.973   6.950 -0.4216  0.5708 -0.2375
   86MOL0     H11341   4.131  11.003   6.999  1.2555  0.8797 -2.1992
   86MOL0     H11342   4.319  11.377   7.180 -1.4512 -0.1939  0.3280
   86MOL0     H11343   4.306  11.388   7.007  1.0375  0.8935 -1.2293
   86MOL0     H11344   4.544  11.368   7.108  3.2630 -1.6308 -0.5509
   86MOL0     H11345   4.514  11.205   7.161  0.2753  0.4265  0.7448
   86MOL0     H11346   4.526  11.306   6.878 -0.9937 -1.9354 -2.5164
   86MOL0     H11347   4.460  11.140   6.924  2.1060 -1.5761 -1.2831
   86MOL0     H11348   4.653  11.063   7.022 -2.2541 -0.1260  0.2078
   86MOL0     H11349   4.670  11.113   6.853 -0.0723  2.2558 -0.2586
   86MOL0     H11350   4.893  11.420   7.011  0.3693  0.6594  0.9011
   86MOL0     H11351   4.087  11.422   7.061  1.7459 -0.1082 -1.3973
   86MOL0     H11352   3.852  11.397   7.036 -4.1033 -2.7340 -0.3285
   87MOL0     O11353   9.138   7.606  10.419  0.1259 -0.4418 -0.1004
   87MOL0     C11354   9.113   7.496  10.458 -0.3896 -0.1100  0.2593
   87MOL0     O11355   8.990   7.437  10.483  0.5216  0.3701 -0.2041
   87MOL0     C11356   8.863   7.491  10.479  0.7366 -0.2603  0.0117
   87MOL0     C11357   8.838   7.628  10.469  0.1324  0.2042 -0.7140
   87MOL0     C11358   8.710   7.679  10.471  1.0747 -0.4243  0.2371
   87MOL0     C11359   8.603   7.583  10.476 -0.0988  0.4701  0.1440
   87MOL0     O11360   8.480   7.640  10.460  0.0702 -0.1013  0.4403
   87MOL0     C11361   8.356   7.566  10.491 -0.1999 -0.0507 -0.3936
   87MOL0     C11362   8.306   7.457  10.382 -0.2136 -0.8918  1.2952
   87MOL0     C11363   8.153   7.457  10.365  0.9362 -0.3298 -0.3871
   87MOL0     C11364   8.101   7.416  10.500  0.1243  0.3685  0.2312
   87MOL0     C11365   7.951   7.386  10.488  0.2640 -0.2456 -0.2566
   87MOL0     C11366   7.918   7.251  10.419 -0.2422 -0.3685 -0.3240
   87MOL0     C11367   7.966   7.140  10.512  0.9952 -0.9674  0.2507
   87MOL0     C11368   7.932   7.002  10.468  0.1253  0.8720  0.3719
   87MOL0     N11369   7.809   6.971  10.529 -0.0636  0.7660  0.4561
   87MOL0     C11370   7.793   6.855  10.604 -0.0713  0.1208 -0.2119
   87MOL0     C11371   7.661   6.855  10.640 -0.7707 -0.1278  0.1309
   87MOL0     C11372   7.589   6.749  10.718  0.3753  0.0597 -0.2841
   87MOL0     C11373   7.688   6.649  10.778 -0.0286 -0.2194  0.6171
   87MOL0     C11374   7.638   6.566  10.892  0.3117  0.9318 -0.2034
   87MOL0     C11375   7.525   6.470  10.842 -0.3228  0.7410 -0.9430
   87MOL0     O11376   7.516   6.387  10.958 -0.0358 -0.1249 -0.4458
   87MOL0     C11377   7.416   6.413  11.043  0.3622  0.3129  0.3276
   87MOL0     C11378   7.393   6.296  11.118 -0.2266 -0.9489  0.7306
   87MOL0     C11379   7.276   6.289  11.201  0.0686  0.4610  0.0809
   87MOL0     C11380   7.193   6.403  11.213  0.8879 -0.4523 -0.3660
   87MOL0     C11381   7.069   6.401  11.298  0.4404 -0.9592 -0.9492
   87MOL0     O11382   7.073   6.317  11.411  0.0805 -0.1087  0.4609
   87MOL0     C11383   6.963   6.258  11.471  0.8813 -0.0798 -0.9088
   87MOL0     C11384   6.956   6.246  11.612  0.9510 -0.1129 -1.2591
   87MOL0     C11385   6.829   6.203  11.676 -0.1712  0.6188  0.3954
   87MOL0     C11386   6.718   6.164  11.592  0.6675  0.1703 -0.5438
   87MOL0     O11387   6.604   6.106  11.644  0.0098 -0.2029  0.4905
   87MOL0     C11388   6.585   6.092  11.779  0.2866 -0.1999 -1.2196
   87MOL0     C11389   6.439   6.045  11.800 -0.3515  0.0871 -0.3586
   87MOL0     C11390   6.361   6.184  11.808  0.0174  0.1638  0.1734
   87MOL0     C11391   6.209   6.160  11.824  0.7175  0.4362  0.4970
   87MOL0     C11392   6.123   6.289  11.831 -0.1317 -0.1728  0.0144
   87MOL0     C11393   5.988   6.267  11.904  0.4540 -0.2327  0.0047
   87MOL0     C11394   5.906   6.392  11.931  0.1985  0.6705  0.1989
   87MOL0     C11395   5.781   6.404  11.823 -0.8205 -0.1048 -0.4607
   87MOL0    Cl11396   5.707   6.562  11.846  0.0931 -0.5173  0.2283
   87MOL0     C11397   6.726   6.171  11.456 -0.4404  0.3518  0.0046
   87MOL0     C11398   6.846   6.218  11.398 -0.1008  0.0981  0.0262
   87MOL0     O11399   6.982   6.491  11.280 -0.4597 -0.1280  0.0351
   87MOL0     C11400   7.225   6.522  11.151 -0.1972 -0.1790 -0.2828
   87MOL0     C11401   7.328   6.525  11.050  0.6122 -0.4430 -0.1761
   87MOL0     N11402   7.600   6.950  10.569 -0.4066 -0.1440  0.5387
   87MOL0     N11403   7.685   7.021  10.501  0.3162 -0.3788 -0.2201
   87MOL0     C11404   8.629   7.447  10.477  0.0517  0.0980 -0.0586
   87MOL0     C11405   8.755   7.396  10.487  0.1476  0.0136 -0.3210
   87MOL0     C11406   9.236   7.411  10.452 -0.2733  0.3113 -0.8102
   87MOL0     C11407   9.361   7.469  10.443  0.2469 -0.5251 -0.7237
   87MOL0     C11408   9.471   7.386  10.447 -0.0755 -0.0606 -0.7103
   87MOL0     C11409   9.461   7.247  10.483  0.5071  0.3130  0.3439
   87MOL0     O11410   9.574   7.171  10.498  0.0681 -0.3520 -0.1487
   87MOL0     C11411   9.696   7.222  10.443  0.1682  0.9376 -0.2125
   87MOL0     C11412   9.800   7.116  10.410 -0.7054  0.5910 -0.8990
   87MOL0     C11413   9.924   7.171  10.345 -0.2353 -0.9108  1.0107
   87MOL0     C11414  10.041   7.074  10.361  0.9018 -0.4117  0.0089
   87MOL0     C11415  10.164   7.127  10.301  0.5661  1.2619 -0.5630
   87MOL0     C11416  10.267   7.186  10.262  0.2091  0.8170  0.0855
   87MOL0     C11417   9.342   7.198  10.513  0.3551  1.3736 -0.2332
   87MOL0     C11418   9.224   7.277  10.498 -0.3549 -0.4885  0.3199
   87MOL0     H11419   8.926   7.691  10.473 -0.1641  0.6314  2.7649
   87MOL0     H11420   8.674   7.781  10.470  1.1802 -0.3053  2.3691
   87MOL0     H11421   8.276   7.641  10.496 -1.3128 -1.2363  0.1833
   87MOL0     H11422   8.364   7.513  10.586  2.9860 -0.3659 -0.7329
   87MOL0     H11423   8.347   7.357  10.396 -1.5746 -1.6710  0.0561
   87MOL0     H11424   8.343   7.488  10.284 -0.6119 -1.3312  1.0008
   87MOL0     H11425   8.129   7.382  10.289  2.9008 -0.6760 -0.7324
   87MOL0     H11426   8.119   7.557  10.339  0.9735  0.9965  3.9054
   87MOL0     H11427   8.162   7.328  10.519 -0.7377 -0.6511 -1.4781
   87MOL0     H11428   8.124   7.492  10.575  0.4515  0.7612 -0.2519
   87MOL0     H11429   7.888   7.454  10.431 -0.9168 -1.3081 -0.2553
   87MOL0     H11430   7.920   7.371  10.592  1.5331 -1.6945 -0.0467
   87MOL0     H11431   7.966   7.236  10.322  0.7868  0.3836  0.0382
   87MOL0     H11432   7.809   7.245  10.418 -0.2420 -3.2255  2.4740
   87MOL0     H11433   8.075   7.139  10.517  1.1238 -0.6213 -1.6890
   87MOL0     H11434   7.943   7.168  10.615 -0.7435 -0.7152 -0.1625
   87MOL0     H11435   8.008   6.933  10.506  1.4708  2.9166  1.6278
   87MOL0     H11436   7.925   6.988  10.360 -0.2735  1.1020  0.3637
   87MOL0     H11437   7.859   6.771  10.623 -1.5670 -1.6392 -2.2080
   87MOL0     H11438   7.523   6.685  10.659 -0.7109 -0.7116  1.6503
   87MOL0     H11439   7.527   6.795  10.796 -0.2225 -0.7976 -0.2310
   87MOL0     H11440   7.776   6.694  10.825  2.8933 -4.1084 -0.6110
   87MOL0     H11441   7.724   6.583  10.699 -0.4326  0.3220 -0.0306
   87MOL0     H11442   7.725   6.508  10.925  0.4028  2.0875  1.7024
   87MOL0     H11443   7.599   6.621  10.978 -1.5185 -1.0740  0.3304
   87MOL0     H11444   7.563   6.410  10.759 -1.0871 -1.9374  0.5039
   87MOL0     H11445   7.435   6.521  10.807 -1.4920 -1.5228 -1.4412
   87MOL0     H11446   7.452   6.207  11.100  0.6523 -0.0451 -1.1730
   87MOL0     H11447   7.253   6.201  11.260  0.1892  1.6735  1.9996
   87MOL0     H11448   7.039   6.273  11.677  2.4821 -1.3893 -2.5949
   87MOL0     H11449   6.828   6.193  11.784  1.9067  1.2441  0.5178
   87MOL0     H11450   6.614   6.183  11.832  1.3510 -2.0345  1.6245
   87MOL0     H11451   6.658   6.018  11.813 -1.0101 -1.7295 -1.6498
   87MOL0     H11452   6.446   5.983  11.890  3.9356 -1.1028 -1.3035
   87MOL0     H11453   6.412   5.985  11.713 -0.0846  0.6295 -0.8225
   87MOL0     H11454   6.375   6.243  11.717  0.2962 -0.1752 -0.0092
   87MOL0     H11455   6.388   6.246  11.893 -0.4717  0.9361 -0.2285
   87MOL0     H11456   6.179   6.098  11.739  1.2000  1.5466 -0.5184
   87MOL0     H11457   6.196   6.111  11.921 -1.4428  0.1536  0.1217
   87MOL0     H11458   6.113   6.334  11.732 -2.0369 -2.1739 -0.7904
   87MOL0     H11459   6.181   6.370  11.877 -1.0477 -0.4860  1.8235
   87MOL0     H11460   6.011   6.224  12.002  1.2278 -2.5065 -1.0941
   87MOL0     H11461   5.927   6.191  11.854 -2.2477  2.8364 -1.7233
   87MOL0     H11462   5.872   6.385  12.034  1.3053  3.0740  0.8044
   87MOL0     H11463   5.970   6.481  11.937 -0.8320  1.3228  3.3189
   87MOL0     H11464   5.712   6.320  11.833  0.3833 -0.8907  1.8317
   87MOL0     H11465   5.803   6.395  11.716  0.3117  2.0338 -0.4797
   87MOL0     H11466   6.648   6.133  11.391  0.1472 -2.1801  0.6543
   87MOL0     H11467   6.857   6.244  11.293 -0.9279 -1.0724 -0.3651
   87MOL0     H11468   7.160   6.608  11.162 -0.7028 -0.8151  2.3426
   87MOL0     H11469   7.349   6.617  10.997  4.6648 -1.5461 -0.7826
   87MOL0     H11470   8.539   7.386  10.470 -2.1149  2.8113  2.0335
   87MOL0     H11471   8.772   7.293  10.517 -0.2434 -0.0757 -0.3970
   87MOL0     H11472   9.369   7.576  10.427  1.3147 -0.6645 -1.2032
   87MOL0     H11473   9.568   7.429  10.429 -0.2497 -0.4680 -2.8544
   87MOL0     H11474   9.732   7.292  10.519  0.5648 -1.0836  1.5556
   87MOL0     H11475   9.674   7.281  10.354  0.7047 -0.9134 -1.6335
   87MOL0     H11476   9.829   7.056  10.497  2.2658  0.2876 -2.0048
   87MOL0     H11477   9.759   7.045  10.337  1.5747  1.8732 -3.5829
   87MOL0     H11478   9.942   7.274  10.378 -1.9995  0.3199 -1.5361
   87MOL0     H11479   9.907   7.179  10.237 -2.2080  0.5373  1.3660
   87MOL0     H11480  10.059   7.048  10.466  2.3921  0.1317 -0.0966
   87MOL0     H11481  10.011   6.979  10.314 -2.4522  1.6699 -2.5346
   87MOL0     H11482  10.352   7.249  10.244  0.6936  1.3262  3.4999
   87MOL0     H11483   9.338   7.096  10.550  0.7001  0.7177 -1.9098
   87MOL0     H11484   9.131   7.229  10.527  1.3350 -2.7088  2.5130
   88MOL0     O11485   9.688   9.955   8.165 -0.8437  0.0750 -0.1746
   88MOL0     C11486   9.728  10.008   8.061 -0.1028 -0.1264  0.2343
   88MOL0     O11487   9.694  10.123   8.014  0.0184  0.1554  0.4611
   88MOL0     C11488   9.610  10.212   8.084  0.2370 -0.2558  0.4016
   88MOL0     C11489   9.645  10.239   8.217  0.3181  0.3243  0.1508
   88MOL0     C11490   9.558  10.331   8.285  0.3295  0.3560 -0.3557
   88MOL0     C11491   9.454  10.395   8.236  0.5775  0.2633 -0.1627
   88MOL0     O11492   9.375  10.473   8.314 -0.1497  0.3208 -0.6997
   88MOL0     C11493   9.233  10.485   8.274 -0.1388  0.2565  1.0675
   88MOL0     C11494   9.164  10.548   8.393  0.7666  1.4185  0.6206
   88MOL0     C11495   9.004  10.550   8.382  0.1609 -0.4309  0.0755
   88MOL0     C11496   8.956  10.612   8.510 -0.4374 -0.2322 -0.7244
   88MOL0     C11497   8.808  10.614   8.530  0.6731  1.0465  0.2005
   88MOL0     C11498   8.710  10.677   8.430 -1.1904 -0.0344 -0.0708
   88MOL0     C11499   8.557  10.650   8.470 -0.3544  0.7190  0.4626
   88MOL0     C11500   8.470  10.695   8.346 -0.5210 -0.6468 -0.5464
   88MOL0     N11501   8.326  10.681   8.364  0.0426  0.3899 -0.3914
   88MOL0     C11502   8.217  10.770   8.365 -0.2789 -0.2951  0.4598
   88MOL0     C11503   8.106  10.695   8.377  0.2168  0.1957  0.7063
   88MOL0     C11504   7.962  10.751   8.387  0.3665 -0.4942  0.1065
   88MOL0     C11505   7.846  10.658   8.355  0.2403  0.3249  0.2583
   88MOL0     C11506   7.726  10.731   8.300  0.6563 -0.2159  0.7047
   88MOL0     C11507   7.622  10.629   8.257  0.2884  1.1113  0.5437
   88MOL0     O11508   7.492  10.681   8.215 -0.4541  0.1729  0.5502
   88MOL0     C11509   7.366  10.620   8.240  0.1584  0.6921 -0.1999
   88MOL0     C11510   7.252  10.700   8.229 -0.6776 -0.5342 -0.5104
   88MOL0     C11511   7.126  10.655   8.271  0.4930  0.1980  0.3358
   88MOL0     C11512   7.107  10.523   8.318  0.5507  0.2892 -0.9799
   88MOL0     C11513   6.976  10.474   8.363 -0.1575  0.3462  0.3231
   88MOL0     O11514   6.961  10.347   8.408  0.1688  0.2566  0.6365
   88MOL0     C11515   6.837  10.304   8.427  0.8138 -0.0564  0.2709
   88MOL0     C11516   6.789  10.258   8.551 -0.0950 -0.1190 -0.1053
   88MOL0     C11517   6.660  10.208   8.563  0.2068  0.3017 -0.8324
   88MOL0     C11518   6.583  10.190   8.449 -0.1231  0.2368 -0.2195
   88MOL0     O11519   6.458  10.138   8.448 -0.1141  0.0099 -0.1378
   88MOL0     C11520   6.368  10.159   8.554  1.3116  0.3089 -0.8333
   88MOL0     C11521   6.229  10.125   8.505  0.6455  0.8032 -0.6640
   88MOL0     C11522   6.122  10.164   8.612 -0.0845 -0.1795 -0.6510
   88MOL0     C11523   5.974  10.151   8.557 -0.3227 -0.2799  0.2216
   88MOL0     C11524   5.871  10.237   8.625  0.7097  0.4820 -0.8330
   88MOL0     C11525   5.734  10.222   8.559 -0.1797  0.9768 -0.3460
   88MOL0     C11526   5.664  10.102   8.616  0.1834  0.6187 -0.2509
   88MOL0     C11527   5.517  10.071   8.568 -0.6828 -0.5655 -0.2607
   88MOL0    Cl11528   5.392  10.208   8.598 -0.0076 -0.0204 -0.3740
   88MOL0     C11529   6.624  10.246   8.325 -0.6032  0.3419  0.4078
   88MOL0     C11530   6.753  10.303   8.316  0.8445 -0.1666  0.9912
   88MOL0     O11531   6.888  10.565   8.359  0.5348 -0.1013  0.9450
   88MOL0     C11532   7.218  10.445   8.333  0.0845 -1.1412  0.5064
   88MOL0     C11533   7.347  10.492   8.288 -0.5999  0.2839  0.0292
   88MOL0     N11534   8.142  10.563   8.383  0.7243  0.0860 -0.3411
   88MOL0     N11535   8.270  10.557   8.386 -0.0233  0.1252  0.3740
   88MOL0     C11536   9.420  10.369   8.109  0.8976  1.0591 -0.6658
   88MOL0     C11537   9.503  10.283   8.030  0.9534  0.8187 -0.4614
   88MOL0     C11538   9.847   9.945   7.987  0.7065  0.5528 -0.1387
   88MOL0     C11539   9.925  10.007   7.891 -0.5059 -0.0604  0.5287
   88MOL0     C11540  10.028   9.943   7.817  0.2901 -1.2403 -0.4748
   88MOL0     C11541  10.061   9.812   7.838 -0.0210  0.4884 -0.8764
   88MOL0     O11542  10.182   9.781   7.788 -0.0482  0.6133  0.0328
   88MOL0     C11543  10.230   9.644   7.822  0.0399 -0.5553 -0.3291
   88MOL0     C11544  10.367   9.602   7.757  0.5927  0.3061  0.6483
   88MOL0     C11545  10.475   9.708   7.765 -0.2912 -0.1201  0.3445
   88MOL0     C11546  10.519   9.746   7.622 -0.1858 -0.1551 -0.6436
   88MOL0     C11547  10.579   9.636   7.548  0.1710  1.6210  0.4086
   88MOL0     C11548  10.632   9.540   7.486  0.4918  0.8496  0.4234
   88MOL0     C11549   9.985   9.742   7.933  0.0292 -0.2260  0.4573
   88MOL0     C11550   9.876   9.805   8.000 -0.5569 -0.0272 -0.7730
   88MOL0     H11551   9.737  10.195   8.253 -1.0517 -5.8204 -2.5717
   88MOL0     H11552   9.573  10.355   8.390 -1.2510 -0.7935  0.1644
   88MOL0     H11553   9.198  10.383   8.258 -2.3939  1.0323  0.6425
   88MOL0     H11554   9.218  10.543   8.182  0.5787 -2.6296 -0.9918
   88MOL0     H11555   9.193  10.651   8.412  0.9372  2.0289 -2.4423
   88MOL0     H11556   9.190  10.489   8.481  0.2385  0.6410  0.2713
   88MOL0     H11557   8.950  10.455   8.376  1.1241 -0.9103 -1.6937
   88MOL0     H11558   8.984  10.612   8.294  0.4380 -0.1918  0.1811
   88MOL0     H11559   9.000  10.563   8.598  0.6876  2.9168  0.5993
   88MOL0     H11560   8.984  10.717   8.500 -2.8910  0.7653  1.5900
   88MOL0     H11561   8.794  10.663   8.627  1.5776  2.2075 -0.2324
   88MOL0     H11562   8.770  10.512   8.539  1.1297  0.9160  0.7156
   88MOL0     H11563   8.734  10.634   8.333  5.1087  0.9266  0.6441
   88MOL0     H11564   8.729  10.783   8.413 -0.6512 -0.6432 -4.5149
   88MOL0     H11565   8.547  10.541   8.479 -0.1707  0.7055  0.4857
   88MOL0     H11566   8.535  10.708   8.560 -1.0876  2.3492 -0.7142
   88MOL0     H11567   8.498  10.627   8.264  1.0419  1.4924 -1.8780
   88MOL0     H11568   8.496  10.796   8.315 -1.2103 -0.1530  0.4770
   88MOL0     H11569   8.231  10.877   8.365 -1.6068 -0.0926  0.1727
   88MOL0     H11570   7.965  10.826   8.307  3.2199 -2.3699 -1.7219
   88MOL0     H11571   7.956  10.803   8.483  4.8255  2.6605 -1.0020
   88MOL0     H11572   7.819  10.590   8.436  1.2090  2.1402  2.1923
   88MOL0     H11573   7.886  10.607   8.267 -0.6043  0.4996 -0.2509
   88MOL0     H11574   7.684  10.793   8.379  1.4622 -0.9596  1.7411
   88MOL0     H11575   7.745  10.795   8.213  0.9888 -2.0556 -0.6473
   88MOL0     H11576   7.609  10.563   8.343 -0.4731 -1.8254 -1.6786
   88MOL0     H11577   7.647  10.563   8.174 -2.7721  0.4546  0.0168
   88MOL0     H11578   7.274  10.802   8.200  1.1824 -1.5357 -2.9242
   88MOL0     H11579   7.041  10.722   8.269  0.5030  0.4418  3.1311
   88MOL0     H11580   6.848  10.272   8.641 -1.1903  0.6792  0.5128
   88MOL0     H11581   6.620  10.197   8.664  2.6261  2.6252  0.5020
   88MOL0     H11582   6.381  10.259   8.596  2.4509 -0.3607  0.5088
   88MOL0     H11583   6.396  10.090   8.634  0.9207  0.9090 -0.1659
   88MOL0     H11584   6.226  10.017   8.486 -1.2905  0.1692  2.4579
   88MOL0     H11585   6.214  10.180   8.412 -0.4366  1.5047 -0.0863
   88MOL0     H11586   6.138  10.270   8.634  2.0397  0.0596 -2.8776
   88MOL0     H11587   6.138  10.107   8.704  2.2125 -0.1140 -0.9617
   88MOL0     H11588   5.988  10.184   8.453 -0.6640  0.9457  0.5412
   88MOL0     H11589   5.941  10.048   8.569 -0.6216 -0.0213  1.8705
   88MOL0     H11590   5.903  10.341   8.620  1.6214  0.3882  1.6372
   88MOL0     H11591   5.880  10.224   8.733  3.4985  0.7124 -0.9594
   88MOL0     H11592   5.742  10.210   8.451  0.8034 -1.3695 -0.0926
   88MOL0     H11593   5.676  10.313   8.570  0.7171  1.7094 -1.4321
   88MOL0     H11594   5.712  10.007   8.593 -1.0218  0.6922 -3.4919
   88MOL0     H11595   5.662  10.117   8.725 -0.5166 -4.1232  0.5952
   88MOL0     H11596   5.479   9.990   8.631 -2.8598 -0.1644 -0.9656
   88MOL0     H11597   5.529  10.040   8.463 -0.3682 -1.2846 -0.0166
   88MOL0     H11598   6.568  10.222   8.235 -1.2071 -0.2760  0.9340
   88MOL0     H11599   6.808  10.328   8.226  1.8036 -1.0142  1.3158
   88MOL0     H11600   7.204  10.342   8.362 -3.4709 -1.2916 -1.2660
   88MOL0     H11601   7.434  10.429   8.296 -1.1875 -0.4294  1.0547
   88MOL0     H11602   9.338  10.413   8.054 -1.2191 -1.9315 -0.1791
   88MOL0     H11603   9.464  10.265   7.931 -0.2250 -1.5221  0.3565
   88MOL0     H11604   9.894  10.110   7.885 -1.5014 -0.3459  0.5607
   88MOL0     H11605  10.099   9.989   7.748 -1.7811 -0.9558 -2.5578
   88MOL0     H11606  10.154   9.568   7.803 -1.9200  1.2123  0.1324
   88MOL0     H11607  10.241   9.637   7.930 -0.8890  1.3659 -0.0727
   88MOL0     H11608  10.405   9.509   7.800  1.9849  0.5984  0.1361
   88MOL0     H11609  10.350   9.577   7.652 -0.6023  1.5128  0.5300
   88MOL0     H11610  10.561   9.660   7.813 -0.8585 -1.4338  0.0743
   88MOL0     H11611  10.447   9.794   7.826  0.8391  0.6598 -0.1903
   88MOL0     H11612  10.439   9.789   7.561  0.1029 -0.3515 -1.1615
   88MOL0     H11613  10.597   9.821   7.640  1.1788 -1.9519  1.5127
   88MOL0     H11614  10.688   9.461   7.441  1.3964  0.9392  1.3679
   88MOL0     H11615  10.009   9.642   7.968  1.5392 -0.2927 -0.6459
   88MOL0     H11616   9.814   9.740   8.061  2.5605 -1.1941  1.4114
   89MOL0     O11617   7.698   3.136   2.548 -0.0158  0.4407 -0.1142
   89MOL0     C11618   7.718   3.126   2.425  0.6025  0.4313  0.4947
   89MOL0     O11619   7.626   3.153   2.324 -0.6323  0.2763 -0.2049
   89MOL0     C11620   7.494   3.159   2.366  0.0521  0.1114 -0.1395
   89MOL0     C11621   7.398   3.064   2.323  0.1854 -0.2203 -0.2684
   89MOL0     C11622   7.263   3.071   2.366 -1.1682 -0.2149 -0.3610
   89MOL0     C11623   7.215   3.184   2.443 -0.4880 -0.6474 -0.2877
   89MOL0     O11624   7.094   3.196   2.506 -0.0678 -0.6387 -0.5284
   89MOL0     C11625   6.993   3.132   2.432 -0.7031  0.1251  0.0282
   89MOL0     C11626   6.857   3.184   2.476 -0.3677 -0.1112 -0.5477
   89MOL0     C11627   6.745   3.126   2.382  1.0289  0.3955 -0.6526
   89MOL0     C11628   6.612   3.182   2.396 -0.3837  0.3389  0.0294
   89MOL0     C11629   6.533   3.109   2.503  1.4397 -0.0891  0.0516
   89MOL0     C11630   6.391   3.159   2.505  0.1436  0.0981 -0.4030
   89MOL0     C11631   6.298   3.098   2.611 -1.0781  0.1312 -0.6044
   89MOL0     C11632   6.284   2.949   2.592 -0.6302 -0.6605 -0.3243
   89MOL0     N11633   6.191   2.874   2.675 -0.0204  0.3454 -0.0440
   89MOL0     C11634   6.058   2.886   2.658  0.0580  0.1247 -0.0879
   89MOL0     C11635   5.989   2.826   2.761 -1.0799  0.8022  0.5610
   89MOL0     C11636   5.845   2.813   2.785 -1.0429 -0.3697 -0.3957
   89MOL0     C11637   5.793   2.723   2.677 -0.1064  0.3129 -0.0669
   89MOL0     C11638   5.659   2.773   2.623  0.5044 -0.3306  0.7697
   89MOL0     C11639   5.552   2.775   2.735  0.4843 -0.2489 -0.0543
   89MOL0     O11640   5.423   2.818   2.679 -0.3626  0.1948 -0.3435
   89MOL0     C11641   5.347   2.716   2.617  0.7631  0.4719  0.5669
   89MOL0     C11642   5.227   2.760   2.562 -0.6336 -0.1196  0.2603
   89MOL0     C11643   5.135   2.670   2.501 -0.0056  0.5855  0.0858
   89MOL0     C11644   5.170   2.536   2.488 -0.5094  0.6953  0.9950
   89MOL0     C11645   5.079   2.431   2.433  0.7053  0.6214 -0.4987
   89MOL0     O11646   4.949   2.471   2.445 -0.1555 -0.0346 -0.5761
   89MOL0     C11647   4.855   2.397   2.382  0.4362 -0.9740 -0.2332
   89MOL0     C11648   4.832   2.259   2.408  0.9252  0.0586  0.4235
   89MOL0     C11649   4.754   2.186   2.315  0.1792 -0.4603  0.5247
   89MOL0     C11650   4.676   2.257   2.217  0.0999  0.1969  0.7197
   89MOL0     O11651   4.570   2.196   2.153 -0.3687  0.1822 -0.0124
   89MOL0     C11652   4.555   2.051   2.163  0.2195  0.3459 -0.7919
   89MOL0     C11653   4.463   1.991   2.285 -0.1798 -0.2535 -0.5522
   89MOL0     C11654   4.314   2.047   2.288 -1.0901 -0.4486 -0.6280
   89MOL0     C11655   4.244   2.028   2.151 -0.8109 -0.4533  0.1285
   89MOL0     C11656   4.102   2.097   2.152 -0.5346 -0.5794  0.1095
   89MOL0     C11657   4.014   2.064   2.033  0.0180  0.8127  0.1364
   89MOL0     C11658   3.871   2.131   2.053  0.5146  1.0184 -0.1711
   89MOL0     C11659   3.771   2.111   1.941 -0.2286  1.1712  0.5849
   89MOL0    Cl11660   3.842   2.180   1.796 -0.6596 -0.1130 -0.1289
   89MOL0     C11661   4.681   2.403   2.220  0.5880 -0.1827  0.9625
   89MOL0     C11662   4.779   2.465   2.293  1.2645 -0.0948 -0.6053
   89MOL0     O11663   5.118   2.316   2.392 -0.5613 -0.3284 -0.1139
   89MOL0     C11664   5.285   2.487   2.545 -0.5840  0.0910  0.0712
   89MOL0     C11665   5.375   2.578   2.607  0.2743  0.2389 -0.8316
   89MOL0     N11666   6.091   2.779   2.845 -0.7350 -0.7440  0.1883
   89MOL0     N11667   6.203   2.808   2.798 -0.9456  0.7853  0.0965
   89MOL0     C11668   7.317   3.277   2.488  0.9139  0.2232 -0.4310
   89MOL0     C11669   7.450   3.265   2.447  0.0146  1.0477  0.3876
   89MOL0     C11670   7.855   3.091   2.377  1.0848  0.3448 -1.3909
   89MOL0     C11671   7.874   3.045   2.248 -0.0847  0.5321  0.8914
   89MOL0     C11672   8.003   3.027   2.192  0.6205 -1.2655 -0.4305
   89MOL0     C11673   8.113   3.038   2.279  0.3966  0.7250 -0.0486
   89MOL0     O11674   8.237   3.024   2.229  0.0176  0.3313 -0.0630
   89MOL0     C11675   8.364   3.046   2.295  0.6987 -0.2778 -0.2049
   89MOL0     C11676   8.482   3.050   2.193  0.5591  0.3846 -0.0936
   89MOL0     C11677   8.506   2.913   2.118  0.5039  0.0224  0.7001
   89MOL0     C11678   8.655   2.897   2.089  0.3242  0.6732  0.7480
   89MOL0     C11679   8.705   3.004   2.000 -0.5040  0.8966  0.0232
   89MOL0     C11680   8.737   3.102   1.937 -0.0255 -0.7920  0.8582
   89MOL0     C11681   8.093   3.076   2.413  0.7035 -0.7684 -0.0341
   89MOL0     C11682   7.961   3.101   2.462  0.1714  0.0996 -0.6789
   89MOL0     H11683   7.430   2.972   2.276 -1.0785  0.0795 -1.7912
   89MOL0     H11684   7.205   2.981   2.348 -0.8515 -0.6951  0.9416
   89MOL0     H11685   6.988   3.023   2.443 -0.3780 -0.0987 -1.6885
   89MOL0     H11686   7.008   3.156   2.326  1.9844 -0.1625  0.2765
   89MOL0     H11687   6.863   3.293   2.472 -1.2994 -0.0817 -1.1395
   89MOL0     H11688   6.836   3.160   2.581 -1.6749 -2.0263 -1.1879
   89MOL0     H11689   6.743   3.017   2.388 -2.7719  0.3127 -1.0687
   89MOL0     H11690   6.753   3.165   2.280 -4.4249  1.0551 -1.1017
   89MOL0     H11691   6.611   3.291   2.404 -0.6578  0.2724  0.9516
   89MOL0     H11692   6.564   3.168   2.298 -1.9906  0.7764  0.7171
   89MOL0     H11693   6.586   3.120   2.598  1.1697 -1.2349  0.3493
   89MOL0     H11694   6.527   3.004   2.471 -0.2722  0.3203 -1.1512
   89MOL0     H11695   6.355   3.136   2.404  0.8348  0.8580 -0.8327
   89MOL0     H11696   6.395   3.267   2.516 -0.3625 -0.1258  2.8143
   89MOL0     H11697   6.353   3.111   2.705  4.3532 -1.9955 -3.0989
   89MOL0     H11698   6.200   3.148   2.612 -2.2246 -1.9425  1.6571
   89MOL0     H11699   6.377   2.903   2.625 -0.7078 -1.2596 -0.9141
   89MOL0     H11700   6.255   2.935   2.487  1.6068  1.5641 -1.3636
   89MOL0     H11701   6.019   2.937   2.570  2.0123  2.0156  0.0351
   89MOL0     H11702   5.798   2.911   2.775  0.3729  0.5721  1.4966
   89MOL0     H11703   5.826   2.773   2.885  0.6084  1.2634  0.6430
   89MOL0     H11704   5.781   2.619   2.709  0.3708  0.1965 -0.2503
   89MOL0     H11705   5.867   2.723   2.596 -1.0002 -1.5019 -0.9493
   89MOL0     H11706   5.675   2.876   2.589  0.3856 -0.4390  0.3720
   89MOL0     H11707   5.617   2.712   2.543 -1.7438  3.3267 -1.1437
   89MOL0     H11708   5.586   2.845   2.812  0.6023  0.7405 -0.9836
   89MOL0     H11709   5.551   2.675   2.779  2.2411 -0.4973 -0.4649
   89MOL0     H11710   5.210   2.867   2.573  0.7939  0.0754  0.8267
   89MOL0     H11711   5.042   2.705   2.458 -1.3996 -2.2194  0.5554
   89MOL0     H11712   4.887   2.203   2.484  5.2453  1.5628 -1.2703
   89MOL0     H11713   4.767   2.079   2.328  2.5147 -0.4503 -1.1533
   89MOL0     H11714   4.652   2.005   2.185  0.7432  2.6355  2.4809
   89MOL0     H11715   4.532   2.013   2.063  2.4191 -1.6142 -0.6408
   89MOL0     H11716   4.521   2.010   2.376 -0.2882  0.8250 -0.6861
   89MOL0     H11717   4.464   1.884   2.262 -1.2980 -0.7584  1.4964
   89MOL0     H11718   4.312   2.155   2.310 -2.0279 -0.4590 -0.6253
   89MOL0     H11719   4.255   2.003   2.369 -1.2718  0.6631 -0.1303
   89MOL0     H11720   4.299   2.073   2.068 -2.3143  2.1133  0.4224
   89MOL0     H11721   4.224   1.920   2.142  0.4284 -0.6620 -0.2348
   89MOL0     H11722   4.116   2.206   2.150 -0.9781 -0.5003  0.9571
   89MOL0     H11723   4.052   2.067   2.244 -0.4423 -0.6983  0.1208
   89MOL0     H11724   3.980   1.961   2.015 -4.2196  1.6987  1.7339
   89MOL0     H11725   4.048   2.098   1.935 -2.9703 -3.7192 -2.8911
   89MOL0     H11726   3.820   2.092   2.141  1.7765  0.0708  0.1705
   89MOL0     H11727   3.881   2.240   2.057 -1.1822  1.1935 -0.3035
   89MOL0     H11728   3.674   2.156   1.964 -0.6558  0.9010 -0.6036
   89MOL0     H11729   3.752   2.004   1.930 -0.2916  1.1298  1.1022
   89MOL0     H11730   4.606   2.452   2.160  1.7213 -1.4155 -1.6032
   89MOL0     H11731   4.777   2.574   2.299 -1.0515 -0.0888 -0.4384
   89MOL0     H11732   5.322   2.386   2.532 -0.1282  0.2472  0.1526
   89MOL0     H11733   5.469   2.534   2.637  0.2883  1.7883  1.6449
   89MOL0     H11734   7.294   3.344   2.571  1.4673 -3.1412  2.6829
   89MOL0     H11735   7.521   3.327   2.501 -0.2628  0.2046  1.7967
   89MOL0     H11736   7.789   3.042   2.181 -1.0731  0.7392  2.0991
   89MOL0     H11737   8.011   2.981   2.094 -0.0915 -1.2482 -0.5025
   89MOL0     H11738   8.378   2.966   2.367 -0.9603 -0.2146  0.2436
   89MOL0     H11739   8.362   3.140   2.352 -0.5320 -0.0453 -0.5880
   89MOL0     H11740   8.472   3.128   2.117  0.4311  2.0350  1.5430
   89MOL0     H11741   8.576   3.076   2.241  0.9571  1.5899 -1.4533
   89MOL0     H11742   8.442   2.917   2.030  0.8164  3.7239  0.4986
   89MOL0     H11743   8.477   2.821   2.170 -2.2160 -0.8967 -2.1396
   89MOL0     H11744   8.708   2.892   2.185 -0.0917  1.1934  1.0137
   89MOL0     H11745   8.669   2.803   2.035  0.7271 -0.9833  3.5268
   89MOL0     H11746   8.778   3.187   1.886 -0.3645 -0.1898  1.5784
   89MOL0     H11747   8.175   3.092   2.483  1.0098 -0.3017 -0.4857
   89MOL0     H11748   7.956   3.127   2.567  0.6501  2.8584 -1.2530
   90MOL0     O11749   5.819   9.013   9.003  0.1378  0.2594  0.4474
   90MOL0     C11750   5.791   9.042   9.114 -0.3762 -0.0663 -0.1106
   90MOL0     O11751   5.669   9.074   9.173 -0.3142  0.6263 -0.2522
   90MOL0     C11752   5.566   9.075   9.083 -0.8263  0.0269 -0.9719
   90MOL0     C11753   5.523   8.948   9.041  0.5498 -0.6997 -0.0432
   90MOL0     C11754   5.416   8.928   8.955 -0.8473  0.8310 -1.2376
   90MOL0     C11755   5.347   9.036   8.915 -0.2928  0.3539  0.2295
   90MOL0     O11756   5.229   9.027   8.849 -0.8178  0.1553 -0.1555
   90MOL0     C11757   5.210   8.906   8.768 -0.1926 -0.0925  0.6494
   90MOL0     C11758   5.087   8.935   8.679  1.1647  0.7679 -0.2696
   90MOL0     C11759   5.019   8.818   8.603 -0.0724 -0.1092  0.1682
   90MOL0     C11760   5.001   8.701   8.693  0.6762  0.9069 -0.0637
   90MOL0     C11761   4.901   8.603   8.634 -0.8856  0.1747 -0.7947
   90MOL0     C11762   4.862   8.499   8.724  1.2475  0.9283 -1.2270
   90MOL0     C11763   4.953   8.382   8.764  0.1045  0.1461 -0.4047
   90MOL0     C11764   4.961   8.354   8.915  0.5163  0.6728  0.1288
   90MOL0     N11765   4.853   8.262   8.952  0.3690 -0.3866  0.5761
   90MOL0     C11766   4.725   8.308   8.976  0.4444 -0.4991 -0.5606
   90MOL0     C11767   4.664   8.198   9.023  0.0422 -0.3128  0.2285
   90MOL0     C11768   4.523   8.198   9.083 -0.1569 -0.2375 -1.0392
   90MOL0     C11769   4.429   8.124   8.991  0.5915  0.1278  1.2882
   90MOL0     C11770   4.302   8.206   8.963 -0.4632  0.5366 -0.0729
   90MOL0     C11771   4.208   8.232   9.088  0.0007 -0.5613  0.2460
   90MOL0     O11772   4.098   8.296   9.025 -0.0330  0.0986 -0.4414
   90MOL0     C11773   3.977   8.293   9.089 -0.2571  0.2417 -0.0613
   90MOL0     C11774   3.864   8.320   9.012  0.2412  0.6227 -0.2086
   90MOL0     C11775   3.735   8.315   9.057  1.1420  0.2809  0.8438
   90MOL0     C11776   3.707   8.282   9.191 -0.5282 -0.0226 -0.1151
   90MOL0     C11777   3.571   8.277   9.245  0.2161 -0.7178  0.1218
   90MOL0     O11778   3.468   8.284   9.161  0.1601  0.9365  0.0070
   90MOL0     C11779   3.341   8.279   9.218 -0.3343 -1.4157  0.0762
   90MOL0     C11780   3.273   8.396   9.230  0.2625 -0.7485  0.1075
   90MOL0     C11781   3.138   8.394   9.263 -0.7091 -0.0689 -0.4388
   90MOL0     C11782   3.072   8.263   9.287 -0.5142 -0.5932 -0.3370
   90MOL0     O11783   2.941   8.256   9.335 -0.7749  0.6538 -0.1296
   90MOL0     C11784   2.906   8.173   9.449  0.6451 -0.2356  0.6242
   90MOL0     C11785   2.758   8.124   9.436  0.1017 -0.1570  0.1548
   90MOL0     C11786   2.667   8.232   9.380 -0.6225  0.3412 -0.9439
   90MOL0     C11787   2.525   8.175   9.359  0.0823 -0.4684  0.2807
   90MOL0     C11788   2.444   8.260   9.270  0.3715  0.2630 -0.5117
   90MOL0     C11789   2.312   8.187   9.235 -0.0502 -0.1774 -0.5762
   90MOL0     C11790   2.212   8.169   9.354  0.2111 -0.4153  0.0589
   90MOL0     C11791   2.071   8.157   9.295  0.2517 -0.4006  0.5253
   90MOL0    Cl11792   2.067   8.012   9.175 -0.0803  0.0365 -0.2461
   90MOL0     C11793   3.150   8.145   9.272 -0.3137  0.2200  0.0759
   90MOL0     C11794   3.277   8.157   9.233  0.5776  0.0164 -0.4609
   90MOL0     O11795   3.563   8.267   9.369 -0.0872 -0.6931  0.6443
   90MOL0     C11796   3.825   8.255   9.276  0.0555 -0.5514  0.6471
   90MOL0     C11797   3.952   8.251   9.227  0.1365 -0.5420  0.4017
   90MOL0     N11798   4.757   8.099   9.052 -0.3899  0.0873 -0.4710
   90MOL0     N11799   4.868   8.133   9.002 -0.2413  0.0510  0.7170
   90MOL0     C11800   5.386   9.165   8.962 -0.0454 -0.2021  0.7857
   90MOL0     C11801   5.489   9.183   9.049 -0.1222 -0.5206  0.8250
   90MOL0     C11802   5.904   9.037   9.207 -0.4002 -0.1597 -0.1241
   90MOL0     C11803   5.880   9.056   9.343  0.5956 -0.5327 -0.5641
   90MOL0     C11804   5.988   9.054   9.436  0.5547  0.2777 -0.8138
   90MOL0     C11805   6.120   9.049   9.394  0.7844  0.5132  0.0510
   90MOL0     O11806   6.223   9.045   9.484  0.3527 -0.1775  0.1896
   90MOL0     C11807   6.196   9.051   9.626  0.1055  0.7017  1.1055
   90MOL0     C11808   6.325   9.052   9.713  0.5712 -0.9706 -0.4074
   90MOL0     C11809   6.420   8.932   9.693  1.1873  0.1569 -0.1165
   90MOL0     C11810   6.545   8.960   9.788  0.3181  0.2704 -0.6268
   90MOL0     C11811   6.636   8.845   9.800  0.3314 -0.2070  1.0290
   90MOL0     C11812   6.706   8.746   9.796 -0.2644  0.6599 -0.8462
   90MOL0     C11813   6.140   9.031   9.260  0.1556  0.9054  0.4553
   90MOL0     C11814   6.037   9.016   9.173  0.0116  0.4881 -0.0541
   90MOL0     H11815   5.579   8.862   9.075  1.0659  0.3719  1.9890
   90MOL0     H11816   5.381   8.827   8.933 -0.3907  0.1054  1.0403
   90MOL0     H11817   5.196   8.822   8.836 -2.4166 -0.7592 -0.5373
   90MOL0     H11818   5.303   8.896   8.712  1.3853  0.6342  3.0014
   90MOL0     H11819   5.126   9.007   8.606  0.0365  2.7752  1.0356
   90MOL0     H11820   5.004   8.979   8.734  0.0231 -0.4450 -0.9570
   90MOL0     H11821   5.091   8.785   8.528 -0.5154 -4.4654  1.3843
   90MOL0     H11822   4.928   8.848   8.549  1.0194  2.5375 -0.3548
   90MOL0     H11823   5.094   8.652   8.722 -1.8073 -2.9469  2.4126
   90MOL0     H11824   4.957   8.739   8.786 -1.7972 -1.5367 -0.0834
   90MOL0     H11825   4.941   8.542   8.552 -3.6550 -0.8239 -1.5290
   90MOL0     H11826   4.818   8.656   8.586  0.9991  1.7229 -2.4930
   90MOL0     H11827   4.772   8.455   8.680  0.1276  2.2109 -0.3367
   90MOL0     H11828   4.822   8.561   8.806 -0.2874  2.1528 -2.8248
   90MOL0     H11829   4.928   8.292   8.707 -1.1597 -0.0285  0.3756
   90MOL0     H11830   5.056   8.409   8.741  0.1472  3.4074  2.6961
   90MOL0     H11831   4.939   8.446   8.971  1.9753  1.2348 -0.1873
   90MOL0     H11832   5.060   8.316   8.942  0.5337 -0.1881 -1.0773
   90MOL0     H11833   4.685   8.409   8.968 -1.1136 -0.6162  3.5439
   90MOL0     H11834   4.491   8.301   9.101  0.8331  0.2846 -2.1673
   90MOL0     H11835   4.530   8.154   9.183  0.5388 -0.3923 -1.1529
   90MOL0     H11836   4.406   8.025   9.031 -0.8916 -1.0029 -1.9878
   90MOL0     H11837   4.471   8.126   8.890  0.1932  3.2689  1.0854
   90MOL0     H11838   4.330   8.300   8.915  1.3267 -1.0730 -2.4558
   90MOL0     H11839   4.241   8.148   8.894 -1.1538 -2.2280  2.6265
   90MOL0     H11840   4.246   8.301   9.164 -2.0861 -0.4327  1.2551
   90MOL0     H11841   4.164   8.148   9.143  0.2036 -0.8794 -0.0696
   90MOL0     H11842   3.886   8.333   8.906 -0.9439  0.3265 -0.5094
   90MOL0     H11843   3.650   8.339   8.994  0.7296 -0.6459  1.0339
   90MOL0     H11844   3.319   8.494   9.221 -1.3381  0.1101  0.9270
   90MOL0     H11845   3.085   8.488   9.276  0.9106  0.6415  1.6427
   90MOL0     H11846   2.926   8.230   9.541 -1.8576  1.8858 -0.0146
   90MOL0     H11847   2.958   8.077   9.450  1.8206  0.3723  0.0993
   90MOL0     H11848   2.723   8.093   9.535  0.1313 -1.6096 -0.2757
   90MOL0     H11849   2.749   8.038   9.369 -0.4904 -1.5655  1.9664
   90MOL0     H11850   2.698   8.277   9.286  0.0522  1.0650 -0.3832
   90MOL0     H11851   2.657   8.301   9.465  0.5127 -2.8454  2.0387
   90MOL0     H11852   2.530   8.079   9.309 -2.0623  0.3402 -1.6850
   90MOL0     H11853   2.476   8.151   9.454 -0.3230 -3.8381 -0.6462
   90MOL0     H11854   2.486   8.291   9.174  0.4169  0.6729 -0.3610
   90MOL0     H11855   2.414   8.347   9.329 -1.8302 -0.9765  0.2943
   90MOL0     H11856   2.343   8.085   9.208  0.5266 -0.0320 -0.4758
   90MOL0     H11857   2.273   8.229   9.142 -2.7980 -2.1590 -0.4683
   90MOL0     H11858   2.232   8.077   9.408  1.9267  0.1152  0.3807
   90MOL0     H11859   2.212   8.257   9.420 -2.9793  1.1086 -1.7171
   90MOL0     H11860   2.042   8.255   9.255  0.5562 -0.4492  0.1839
   90MOL0     H11861   2.011   8.138   9.385  0.7806 -1.2725  0.7047
   90MOL0     H11862   3.100   8.049   9.280  0.6184 -0.2045  1.0779
   90MOL0     H11863   3.329   8.063   9.220 -1.2587 -1.3184  1.0921
   90MOL0     H11864   3.801   8.233   9.379 -0.4700 -0.0889  0.6305
   90MOL0     H11865   4.035   8.215   9.286  2.1498 -1.8344 -2.9067
   90MOL0     H11866   5.328   9.255   8.943  0.3097  0.4817  2.7614
   90MOL0     H11867   5.516   9.276   9.099  5.0964 -2.0014  1.3435
   90MOL0     H11868   5.779   9.076   9.376  0.9342  1.3807 -0.5697
   90MOL0     H11869   5.977   9.074   9.542  1.4665 -0.1835 -0.6256
   90MOL0     H11870   6.141   8.958   9.643  0.2441  0.1484 -1.1558
   90MOL0     H11871   6.136   9.140   9.651  2.3686  4.0655 -3.7662
   90MOL0     H11872   6.380   9.144   9.691 -0.9382 -0.2978 -1.5965
   90MOL0     H11873   6.283   9.068   9.813 -0.4277  1.4398 -1.1171
   90MOL0     H11874   6.448   8.931   9.588  1.5085 -0.8208 -0.0299
   90MOL0     H11875   6.363   8.839   9.703  0.7672  0.1797 -1.9302
   90MOL0     H11876   6.606   9.050   9.773  3.6170 -0.3034  5.7231
   90MOL0     H11877   6.503   8.989   9.885 -1.8594 -0.9955 -1.1400
   90MOL0     H11878   6.768   8.659   9.807  0.1515  0.9737 -0.6632
   90MOL0     H11879   6.239   9.004   9.225 -0.2811  0.5943 -0.5902
   90MOL0     H11880   6.073   9.014   9.070 -2.8013  1.7811 -1.1809
   91MOL0     O11881   3.948   6.005   3.716 -0.1736 -0.3186 -0.2478
   91MOL0     C11882   3.914   6.082   3.807  0.0194 -0.4733  0.2560
   91MOL0     O11883   3.956   6.212   3.830 -0.4570  0.9155 -0.3500
   91MOL0     C11884   4.063   6.248   3.759 -0.5391 -0.3432 -0.4865
   91MOL0     C11885   4.193   6.202   3.794 -0.9386 -0.3399 -0.2831
   91MOL0     C11886   4.304   6.249   3.708  0.1979 -0.0957  0.0895
   91MOL0     C11887   4.290   6.337   3.607 -0.5925 -0.5198  0.1686
   91MOL0     O11888   4.390   6.398   3.531  1.0373  0.5026  0.4171
   91MOL0     C11889   4.523   6.334   3.534  0.3515  0.1971  0.0887
   91MOL0     C11890   4.592   6.380   3.412 -0.6967  0.5893  0.9700
   91MOL0     C11891   4.698   6.282   3.372  0.7007 -0.0762  0.3872
   91MOL0     C11892   4.747   6.306   3.227  0.1093 -0.9572 -0.3905
   91MOL0     C11893   4.828   6.177   3.176  0.4577 -0.2748 -0.0460
   91MOL0     C11894   4.861   6.170   3.023 -0.4056  0.0268 -0.5922
   91MOL0     C11895   4.738   6.175   2.923 -0.5223  0.3191  0.0683
   91MOL0     C11896   4.642   6.060   2.943  0.6171 -0.3239 -0.0371
   91MOL0     N11897   4.539   6.080   3.044  0.0095  0.2750  0.9299
   91MOL0     C11898   4.511   5.993   3.143 -0.7327  0.5519 -0.4437
   91MOL0     C11899   4.404   6.045   3.217  0.4649  0.9917 -0.0108
   91MOL0     C11900   4.335   5.980   3.330  0.2192 -1.0272  0.3584
   91MOL0     C11901   4.205   5.927   3.283 -0.6070  0.5574 -0.2053
   91MOL0     C11902   4.123   5.877   3.398  0.9848 -0.2649 -0.2933
   91MOL0     C11903   3.990   5.818   3.350 -0.0146 -0.3196 -0.4337
   91MOL0     O11904   3.908   5.922   3.295  0.3015 -0.1300  0.2488
   91MOL0     C11905   3.780   5.893   3.247 -0.5079 -0.1644  0.4481
   91MOL0     C11906   3.708   6.005   3.203 -0.6352  0.8045  0.5254
   91MOL0     C11907   3.583   5.981   3.148  0.0054  0.0224 -1.0473
   91MOL0     C11908   3.519   5.858   3.156 -1.0416  0.2193 -0.6364
   91MOL0     C11909   3.379   5.836   3.122 -0.1231 -0.8664  0.7913
   91MOL0     O11910   3.304   5.955   3.081  0.5759  0.2841  0.3192
   91MOL0     C11911   3.168   5.948   3.086 -0.1239 -0.0547 -0.0742
   91MOL0     C11912   3.094   5.872   2.981  0.6947 -0.9279 -1.1217
   91MOL0     C11913   2.950   5.883   2.980  1.1662 -0.2627 -0.9385
   91MOL0     C11914   2.879   5.967   3.067  0.0506 -0.1866  0.2032
   91MOL0     O11915   2.738   5.968   3.081 -0.6976 -0.0756  0.4457
   91MOL0     C11916   2.668   5.965   2.953  0.2515  0.2754 -0.2878
   91MOL0     C11917   2.520   6.000   2.982  0.7167  0.1501 -0.9517
   91MOL0     C11918   2.426   5.983   2.863  0.2189 -0.1509  0.1754
   91MOL0     C11919   2.294   6.054   2.858  0.7880  0.4266 -0.7191
   91MOL0     C11920   2.226   6.032   2.729  0.1723  0.8314  0.3323
   91MOL0     C11921   2.071   6.061   2.740  0.0867  0.0748  0.2223
   91MOL0     C11922   2.002   5.969   2.636  0.3498  0.3169 -0.1657
   91MOL0     C11923   1.846   5.996   2.608  0.1223  0.3594  0.3075
   91MOL0    Cl11924   1.764   6.001   2.767 -0.4459 -0.3794 -0.2819
   91MOL0     C11925   2.950   6.029   3.169  0.2872 -0.7255  0.3445
   91MOL0     C11926   3.094   6.028   3.175  0.0695 -0.7531  0.2291
   91MOL0     O11927   3.330   5.721   3.117 -0.2454 -0.2119 -0.5137
   91MOL0     C11928   3.586   5.747   3.206  0.3523 -0.3651  0.4369
   91MOL0     C11929   3.724   5.764   3.242  0.4739  0.2234 -0.3063
   91MOL0     N11930   4.368   6.168   3.150 -0.8481 -0.0096 -0.1983
   91MOL0     N11931   4.457   6.191   3.059  0.5924 -0.0972  0.6993
   91MOL0     C11932   4.160   6.388   3.585  0.0536 -0.6338 -0.5873
   91MOL0     C11933   4.049   6.337   3.659 -0.1115 -0.0233 -1.1352
   91MOL0     C11934   3.808   6.043   3.904  1.7591 -0.5843  0.5682
   91MOL0     C11935   3.722   5.939   3.870  0.4334  0.6499 -0.0617
   91MOL0     C11936   3.618   5.897   3.960  0.6853 -0.1465  0.6930
   91MOL0     C11937   3.598   5.969   4.083  0.3900  0.1306  1.0423
   91MOL0     O11938   3.494   5.931   4.166 -0.1185  0.1541  0.2754
   91MOL0     C11939   3.475   5.992   4.295  0.1556 -0.0204  0.6824
   91MOL0     C11940   3.582   5.954   4.395  0.5638  0.2594  0.7454
   91MOL0     C11941   3.522   5.899   4.525 -0.5545  0.1747  0.3301
   91MOL0     C11942   3.618   5.922   4.646 -0.4224  0.3830  0.1283
   91MOL0     C11943   3.557   5.852   4.756 -0.0314 -0.3830 -0.1981
   91MOL0     C11944   3.506   5.775   4.842  0.2617 -0.3171 -0.3748
   91MOL0     C11945   3.686   6.076   4.113 -0.0783 -0.0654 -0.7983
   91MOL0     C11946   3.788   6.118   4.023 -0.5755 -0.5179  0.4997
   91MOL0     H11947   4.209   6.127   3.870 -0.7207 -1.0948 -1.0552
   91MOL0     H11948   4.405   6.222   3.740 -0.5699 -1.8758  1.1830
   91MOL0     H11949   4.497   6.228   3.540  0.5746  0.1488  0.2147
   91MOL0     H11950   4.571   6.366   3.627  0.3355 -0.0698  0.1887
   91MOL0     H11951   4.639   6.475   3.439 -0.7512  1.1206 -0.6788
   91MOL0     H11952   4.521   6.401   3.331  1.4181  1.2909 -0.8036
   91MOL0     H11953   4.651   6.183   3.368 -0.4681  0.5160 -1.5621
   91MOL0     H11954   4.776   6.277   3.449  0.9242 -0.0065  0.1680
   91MOL0     H11955   4.660   6.317   3.162  0.2297  2.5979 -0.1353
   91MOL0     H11956   4.812   6.394   3.224 -0.1091 -0.7407  0.7223
   91MOL0     H11957   4.783   6.090   3.225  0.4665 -2.5735 -3.7206
   91MOL0     H11958   4.932   6.177   3.210  1.6092 -1.6576 -3.1608
   91MOL0     H11959   4.919   6.078   3.011 -1.4445 -1.4655  4.0572
   91MOL0     H11960   4.928   6.252   2.998  2.2515 -2.0898 -0.8733
   91MOL0     H11961   4.690   6.273   2.928  0.3490  0.7217  0.7816
   91MOL0     H11962   4.775   6.166   2.821  0.2929 -1.7753  0.5012
   91MOL0     H11963   4.698   5.968   2.961  0.0086 -1.4915 -3.3652
   91MOL0     H11964   4.597   6.043   2.845 -0.0885  0.9411  0.0395
   91MOL0     H11965   4.560   5.897   3.161 -2.7521 -0.5279 -0.4392
   91MOL0     H11966   4.317   6.055   3.408  1.9515  0.4660 -0.6018
   91MOL0     H11967   4.397   5.897   3.366  0.7796 -1.1252 -0.8051
   91MOL0     H11968   4.236   5.851   3.210  0.6558 -0.4901  1.3685
   91MOL0     H11969   4.149   5.997   3.220  1.1629  1.3727 -0.9495
   91MOL0     H11970   4.182   5.806   3.457  0.6005 -2.3304 -2.2455
   91MOL0     H11971   4.098   5.956   3.470  2.1632  0.8508 -1.0763
   91MOL0     H11972   3.936   5.759   3.425  0.7515 -3.6909 -2.3474
   91MOL0     H11973   4.005   5.744   3.271  1.2859 -1.6471  0.9958
   91MOL0     H11974   3.746   6.106   3.213  1.0964  0.2026  0.2972
   91MOL0     H11975   3.538   6.068   3.102  0.0944  0.7868  0.2521
   91MOL0     H11976   3.146   5.800   2.919 -0.1574 -1.6711 -0.9902
   91MOL0     H11977   2.891   5.827   2.908 -2.5183 -1.3878  2.5721
   91MOL0     H11978   2.669   5.865   2.910 -1.4522 -1.4209  3.1571
   91MOL0     H11979   2.691   6.038   2.875  0.9662 -1.1656 -1.4751
   91MOL0     H11980   2.508   6.103   3.017 -2.5765 -1.4765  3.8735
   91MOL0     H11981   2.488   5.932   3.062  2.6871 -1.0231 -1.1007
   91MOL0     H11982   2.409   5.875   2.859 -0.3068 -0.1902  2.1566
   91MOL0     H11983   2.480   6.012   2.773  0.6115 -0.1491  0.4075
   91MOL0     H11984   2.235   6.030   2.947 -0.0247  0.6442 -1.1934
   91MOL0     H11985   2.314   6.161   2.866 -2.0786  0.9559  0.6241
   91MOL0     H11986   2.246   5.935   2.682  1.6008  2.2711 -2.1875
   91MOL0     H11987   2.270   6.100   2.656 -1.5379 -0.4559 -2.0574
   91MOL0     H11988   2.040   6.165   2.724 -0.6101 -0.1820 -0.1208
   91MOL0     H11989   2.018   6.026   2.829  0.0508 -3.0630 -0.9322
   91MOL0     H11990   2.063   5.966   2.546  0.0669 -0.1203 -0.3476
   91MOL0     H11991   2.005   5.871   2.685  1.6465  1.1926  1.6335
   91MOL0     H11992   1.807   5.923   2.536 -4.0048 -1.1121  3.6123
   91MOL0     H11993   1.838   6.090   2.552  0.5346 -1.0213 -2.2468
   91MOL0     H11994   2.887   6.068   3.249 -1.8787  0.8775 -1.9817
   91MOL0     H11995   3.138   6.099   3.245  0.4108 -0.3823 -0.3528
   91MOL0     H11996   3.537   5.652   3.221 -2.9412  1.1198 -0.1167
   91MOL0     H11997   3.782   5.676   3.269 -0.4680 -0.5650 -0.7900
   91MOL0     H11998   4.148   6.466   3.511  0.9282  0.5635  0.4727
   91MOL0     H11999   3.946   6.370   3.646 -0.6053 -0.3947  1.2526
   91MOL0     H12000   3.734   5.890   3.774 -1.4803 -0.5529  0.2501
   91MOL0     H12001   3.572   5.799   3.952  0.3872  0.0969 -0.8509
   91MOL0     H12002   3.369   5.983   4.320 -0.3553  2.6389 -0.1829
   91MOL0     H12003   3.478   6.101   4.292 -0.6607 -0.0227 -1.5081
   91MOL0     H12004   3.654   5.880   4.359 -0.8888 -0.6344 -0.4219
   91MOL0     H12005   3.641   6.041   4.429  0.2296  0.8446 -0.1546
   91MOL0     H12006   3.513   5.792   4.506  0.7195 -0.1905  1.6271
   91MOL0     H12007   3.423   5.942   4.543 -1.7917 -2.4714  0.2339
   91MOL0     H12008   3.721   5.890   4.625  0.6849  2.9403  1.1994
   91MOL0     H12009   3.606   6.025   4.678 -2.7431 -1.2959  5.7968
   91MOL0     H12010   3.473   5.699   4.909 -0.1686 -0.2161 -0.4668
   91MOL0     H12011   3.669   6.139   4.199 -1.7304 -1.8049  0.2310
   91MOL0     H12012   3.846   6.205   4.053 -2.0106  0.9330 -0.7751
   92MOL0     O12013  10.763   6.048   5.450  0.0355 -0.1832 -0.9963
   92MOL0     C12014  10.732   5.937   5.478 -0.4814  0.6077 -0.2618
   92MOL0     O12015  10.620   5.901   5.536  0.3488 -0.0707 -0.4709
   92MOL0     C12016  10.530   5.993   5.580 -0.1334 -0.0712 -0.2620
   92MOL0     C12017  10.397   5.979   5.540 -0.5024  0.0097  0.4175
   92MOL0     C12018  10.297   6.060   5.598  0.2145  0.5631 -0.2861
   92MOL0     C12019  10.332   6.159   5.689 -0.2569 -0.1647  0.2305
   92MOL0     O12020  10.236   6.242   5.754 -0.5596 -0.2149 -0.4480
   92MOL0     C12021  10.097   6.204   5.762 -0.5660 -0.6828  0.2606
   92MOL0     C12022  10.056   6.189   5.897 -1.0355 -0.7071  0.6621
   92MOL0     C12023   9.903   6.172   5.896 -0.3869 -0.2471 -0.0001
   92MOL0     C12024   9.845   6.169   6.036 -0.2933 -0.8691 -0.1121
   92MOL0     C12025   9.692   6.150   6.026  0.3994 -0.2582  0.7632
   92MOL0     C12026   9.636   6.186   6.161  0.3116 -0.1161 -0.4331
   92MOL0     C12027   9.483   6.191   6.154  0.4260  1.2157  0.1254
   92MOL0     C12028   9.442   6.239   6.298 -0.9186  0.3656  0.3057
   92MOL0     N12029   9.300   6.254   6.316  1.3437  0.2039 -0.0509
   92MOL0     C12030   9.227   6.362   6.262 -0.0995  1.5825  0.8864
   92MOL0     C12031   9.099   6.332   6.272  0.6052  0.5249 -0.0507
   92MOL0     C12032   8.981   6.405   6.226  0.2745  0.0154 -0.0878
   92MOL0     C12033   8.858   6.377   6.316 -0.7564 -0.3245  0.2220
   92MOL0     C12034   8.740   6.448   6.255 -0.1220 -0.9408 -0.2915
   92MOL0     C12035   8.618   6.434   6.348 -0.9781  0.3094  0.0883
   92MOL0     O12036   8.517   6.526   6.323 -0.6075  0.4161 -0.3649
   92MOL0     C12037   8.404   6.510   6.401 -0.4712  0.7540  0.3564
   92MOL0     C12038   8.308   6.615   6.381 -0.0689 -0.0451 -0.2843
   92MOL0     C12039   8.194   6.625   6.458 -0.5126 -0.0680 -0.7491
   92MOL0     C12040   8.181   6.537   6.568 -0.4121  0.4778  0.2624
   92MOL0     C12041   8.062   6.543   6.660  0.0974  0.8419  0.3633
   92MOL0     O12042   8.074   6.488   6.783  0.0087  0.2588 -0.3346
   92MOL0     C12043   7.968   6.501   6.873  0.4244 -0.0602 -0.2563
   92MOL0     C12044   7.904   6.623   6.901 -0.4921 -0.6660  0.1607
   92MOL0     C12045   7.781   6.625   6.975 -0.4681  0.2893  0.4122
   92MOL0     C12046   7.739   6.501   7.039  0.0290 -0.0853 -0.8396
   92MOL0     O12047   7.624   6.516   7.127  0.3655  0.6007 -0.9835
   92MOL0     C12048   7.592   6.410   7.223  0.5868  0.1118  0.3664
   92MOL0     C12049   7.473   6.334   7.176 -1.1602  0.1635 -0.1619
   92MOL0     C12050   7.399   6.272   7.292  0.0818  0.7239  0.3198
   92MOL0     C12051   7.271   6.197   7.254  0.6598  0.1194  0.5054
   92MOL0     C12052   7.176   6.199   7.384  0.5793 -0.0778  0.8141
   92MOL0     C12053   7.116   6.334   7.416  0.4067  0.2419  0.2879
   92MOL0     C12054   7.002   6.326   7.523  0.1927 -0.3092  0.2098
   92MOL0     C12055   6.883   6.247   7.470 -0.2562 -0.2068  0.4945
   92MOL0    Cl12056   6.760   6.215   7.595 -0.7200  0.0082  0.4938
   92MOL0     C12057   7.805   6.379   7.014 -0.7184  0.3822  0.0993
   92MOL0     C12058   7.920   6.390   6.928  0.6710  0.2271  0.3565
   92MOL0     O12059   7.960   6.586   6.614 -0.3974 -0.9797  0.9339
   92MOL0     C12060   8.271   6.435   6.584 -0.2408  0.6927  0.2550
   92MOL0     C12061   8.378   6.419   6.504  0.8452 -0.1714 -0.1326
   92MOL0     N12062   9.091   6.203   6.321 -0.8019  0.5201  0.4659
   92MOL0     N12063   9.215   6.164   6.350  0.5216  0.2238  0.4354
   92MOL0     C12064  10.471   6.178   5.717  0.3400 -0.7548  0.3932
   92MOL0     C12065  10.566   6.092   5.665  1.1772 -0.3353 -0.5088
   92MOL0     C12066  10.820   5.822   5.447 -0.7265  0.5422 -1.0401
   92MOL0     C12067  10.934   5.833   5.357 -0.9832 -0.3556 -0.7472
   92MOL0     C12068  11.039   5.741   5.366  0.2359 -0.6404  0.5683
   92MOL0     C12069  11.033   5.629   5.445 -0.4017  0.5460 -0.4940
   92MOL0     O12070  11.143   5.547   5.444  0.6628 -0.4209 -0.6330
   92MOL0     C12071  11.165   5.465   5.567  0.6441 -0.2084  0.4352
   92MOL0     C12072  11.316   5.449   5.562 -0.4785 -0.3144 -0.2163
   92MOL0     C12073  11.387   5.402   5.690 -0.1361  0.3685  0.0567
   92MOL0     C12074  11.341   5.277   5.764 -0.2372  0.3951  0.1402
   92MOL0     C12075  11.213   5.288   5.834 -0.0844 -0.4554 -0.0673
   92MOL0     C12076  11.104   5.298   5.891 -0.3727 -0.5318  1.1586
   92MOL0     C12077  10.910   5.602   5.503 -0.6504 -0.5662  0.0243
   92MOL0     C12078  10.803   5.692   5.509 -0.3488  0.3306 -0.5836
   92MOL0     H12079  10.365   5.913   5.460 -3.0989  0.8493  0.6943
   92MOL0     H12080  10.194   6.049   5.568 -0.7643  0.4874  2.7374
   92MOL0     H12081  10.083   6.106   5.716 -2.2943 -0.2392 -0.2273
   92MOL0     H12082  10.030   6.270   5.707 -0.2594 -1.9496 -1.7331
   92MOL0     H12083  10.086   6.270   5.964  0.1271  0.2396 -0.9525
   92MOL0     H12084  10.102   6.096   5.933 -2.1231 -1.2969  0.5462
   92MOL0     H12085   9.875   6.083   5.840  0.4774 -1.3240  1.2172
   92MOL0     H12086   9.850   6.258   5.855 -2.5016 -0.4130  2.1809
   92MOL0     H12087   9.885   6.079   6.085 -0.6213 -1.5229 -1.0221
   92MOL0     H12088   9.884   6.250   6.098  0.3080 -0.2175 -1.3103
   92MOL0     H12089   9.659   6.053   5.987 -0.3150  0.9099 -1.6881
   92MOL0     H12090   9.650   6.213   5.947 -0.1110 -4.3201 -2.5550
   92MOL0     H12091   9.665   6.288   6.190 -0.8327  0.0073  0.3433
   92MOL0     H12092   9.659   6.104   6.229 -0.9160 -0.0644  0.0611
   92MOL0     H12093   9.448   6.262   6.080 -0.1811  0.3735 -0.4107
   92MOL0     H12094   9.433   6.096   6.135  0.9108  1.0989 -0.5914
   92MOL0     H12095   9.482   6.338   6.322  0.2172 -0.3545  1.4767
   92MOL0     H12096   9.484   6.172   6.373 -0.8837  0.8219  0.6962
   92MOL0     H12097   9.276   6.445   6.213 -0.0783 -0.3353 -2.6160
   92MOL0     H12098   8.960   6.374   6.123  0.3788 -0.7970  0.1278
   92MOL0     H12099   9.002   6.512   6.218 -1.3895  0.4286  0.6182
   92MOL0     H12100   8.884   6.399   6.420 -2.5629  1.1542  0.4064
   92MOL0     H12101   8.839   6.270   6.331  4.0152 -1.0620  2.9760
   92MOL0     H12102   8.756   6.557   6.254 -0.1564 -0.9425 -0.8379
   92MOL0     H12103   8.710   6.416   6.155 -2.7521  1.7306 -0.5103
   92MOL0     H12104   8.644   6.447   6.453  0.5339  1.6958 -0.4129
   92MOL0     H12105   8.585   6.331   6.335  3.0068 -0.9090 -2.5726
   92MOL0     H12106   8.321   6.678   6.293  3.1319 -0.0744  0.0536
   92MOL0     H12107   8.121   6.701   6.435 -1.2041 -0.6527 -0.5284
   92MOL0     H12108   7.946   6.711   6.853 -0.2761 -0.6402  0.3966
   92MOL0     H12109   7.726   6.718   6.983  2.1189  1.8269  1.9338
   92MOL0     H12110   7.563   6.463   7.314  0.0315  1.4234 -0.5427
   92MOL0     H12111   7.679   6.348   7.245  2.1040  2.1429  0.4574
   92MOL0     H12112   7.496   6.262   7.096 -3.8282 -0.5715 -0.3383
   92MOL0     H12113   7.407   6.408   7.129 -1.0571  0.3109 -0.0759
   92MOL0     H12114   7.369   6.345   7.368 -0.1793  0.6361  0.3042
   92MOL0     H12115   7.467   6.207   7.348  1.2394  2.0512  0.5151
   92MOL0     H12116   7.224   6.248   7.170  0.7489 -0.3407  0.1733
   92MOL0     H12117   7.298   6.099   7.212 -3.1770  1.1762 -5.7515
   92MOL0     H12118   7.232   6.152   7.465 -0.4118 -0.4136  1.3216
   92MOL0     H12119   7.100   6.132   7.344  0.0380  0.0459  1.6353
   92MOL0     H12120   7.067   6.391   7.336 -1.9577  2.1828  2.9376
   92MOL0     H12121   7.190   6.404   7.455 -0.1691  1.1103 -0.1403
   92MOL0     H12122   7.039   6.289   7.619  0.9497  0.3479  0.1875
   92MOL0     H12123   6.975   6.431   7.541  1.2858 -0.2760  1.8358
   92MOL0     H12124   6.906   6.156   7.414  2.4912  0.1201  0.9160
   92MOL0     H12125   6.832   6.316   7.403 -0.0381 -3.1213 -2.9516
   92MOL0     H12126   7.768   6.284   7.051  0.0571 -0.2377 -0.6776
   92MOL0     H12127   7.973   6.298   6.904 -0.1418 -0.4570  1.1112
   92MOL0     H12128   8.269   6.370   6.670 -1.2132 -0.0861 -0.3319
   92MOL0     H12129   8.441   6.332   6.521  3.1259  1.9599  3.7299
   92MOL0     H12130  10.485   6.256   5.791 -0.0159 -1.5901  1.3528
   92MOL0     H12131  10.659   6.102   5.720 -0.3215  3.4872  1.7208
   92MOL0     H12132  10.945   5.928   5.306 -2.2748  0.6319  0.7100
   92MOL0     H12133  11.124   5.752   5.300 -0.7243  1.9144 -0.3418
   92MOL0     H12134  11.120   5.365   5.564  1.6700 -0.7008  0.8308
   92MOL0     H12135  11.120   5.517   5.653 -1.3425 -1.7937  0.4436
   92MOL0     H12136  11.355   5.387   5.480  1.4364 -0.2488  0.5948
   92MOL0     H12137  11.357   5.549   5.541 -1.7753 -0.0721 -1.8235
   92MOL0     H12138  11.382   5.484   5.763 -0.3928  0.8127 -0.4491
   92MOL0     H12139  11.495   5.399   5.671 -0.7452  1.3681 -5.1798
   92MOL0     H12140  11.325   5.200   5.688 -3.6810  2.1283 -1.0864
   92MOL0     H12141  11.420   5.255   5.837 -0.9454  1.1939  1.1723
   92MOL0     H12142  11.003   5.305   5.927 -0.0546  0.0754  1.9759
   92MOL0     H12143  10.903   5.508   5.557  1.5440 -0.6662  0.2109
   92MOL0     H12144  10.708   5.673   5.559 -0.0227  1.1273  0.3572
   93MOL0     O12145   1.853   7.360   0.208  0.3089 -0.2158 -0.4918
   93MOL0     C12146   1.905   7.334   0.096  0.5778 -0.7640 -0.5748
   93MOL0     O12147   1.842   7.262  -0.000  0.1645 -0.5935  0.0603
   93MOL0     C12148   1.731   7.183   0.032  0.6246  0.0549 -0.2813
   93MOL0     C12149   1.703   7.122   0.158  0.3829 -0.6433  0.4284
   93MOL0     C12150   1.591   7.042   0.182  1.1433  1.0015 -0.3416
   93MOL0     C12151   1.507   7.022   0.074 -0.2713  0.2810 -1.1489
   93MOL0     O12152   1.397   6.942   0.085 -0.0308  0.1970  0.1264
   93MOL0     C12153   1.302   6.963   0.194 -0.4563 -0.9877  1.0777
   93MOL0     C12154   1.163   6.922   0.150  0.4800  0.2911 -0.3060
   93MOL0     C12155   1.057   6.939   0.268  0.1377 -0.5486  0.1490
   93MOL0     C12156   0.916   6.901   0.205 -0.7656  0.8690  0.0152
   93MOL0     C12157   0.796   6.912   0.307  0.2551 -0.0849  0.6214
   93MOL0     C12158   0.657   6.907   0.242  1.1420 -0.8950 -0.1242
   93MOL0     C12159   0.540   6.890   0.343 -0.4752 -1.0799 -0.1130
   93MOL0     C12160   0.401   6.930   0.292 -0.1974  0.3338 -0.1268
   93MOL0     N12161   0.302   6.976   0.388 -0.4060  0.7832  0.5147
   93MOL0     C12162   0.181   7.042   0.364 -0.0739 -1.1911  0.7696
   93MOL0     C12163   0.126   7.058   0.483  0.4249  0.3697  0.0011
   93MOL0     C12164  -0.018   7.093   0.490  0.4528  0.3755 -0.2818
   93MOL0     C12165  -0.079   7.216   0.427  0.0947  0.0106 -1.0332
   93MOL0     C12166  -0.223   7.235   0.487 -0.2866 -0.1491 -0.5286
   93MOL0     C12167  -0.293   7.356   0.428 -0.0711  0.7594  0.3056
   93MOL0     O12168  -0.431   7.361   0.488  0.2611  0.1592 -0.5282
   93MOL0     C12169  -0.509   7.472   0.474  0.2630  1.0151  0.6726
   93MOL0     C12170  -0.485   7.584   0.400 -0.3237  0.6566  0.3992
   93MOL0     C12171  -0.575   7.680   0.361  0.3703 -0.2898 -0.2775
   93MOL0     C12172  -0.713   7.669   0.410  0.7457  0.4074  0.4440
   93MOL0     C12173  -0.820   7.755   0.376  0.6091 -0.4412  0.8027
   93MOL0     O12174  -0.927   7.769   0.463  0.2171  0.5148  0.1989
   93MOL0     C12175  -1.035   7.844   0.428  0.0811 -0.4325 -0.7623
   93MOL0     C12176  -1.121   7.811   0.324 -0.9367 -0.6660  0.2935
   93MOL0     C12177  -1.234   7.888   0.297 -0.8331 -0.3254  0.6760
   93MOL0     C12178  -1.267   7.998   0.374  0.1635  0.2431 -0.1512
   93MOL0     O12179  -1.383   8.061   0.348  0.2449  0.5094 -0.1348
   93MOL0     C12180  -1.466   8.122   0.453 -0.5972  0.0573 -0.5511
   93MOL0     C12181  -1.491   8.266   0.415  0.6028 -0.5855  0.1271
   93MOL0     C12182  -1.616   8.316   0.480  0.2238 -0.8766  0.2107
   93MOL0     C12183  -1.656   8.449   0.428  0.1857 -0.6139 -0.6767
   93MOL0     C12184  -1.800   8.487   0.484  0.1122 -0.4960 -0.0443
   93MOL0     C12185  -1.893   8.537   0.362  0.0626  0.9862 -0.0142
   93MOL0     C12186  -1.930   8.415   0.272 -0.1219 -0.3019  1.1326
   93MOL0     C12187  -1.941   8.457   0.131  0.2465 -0.0452  0.5399
   93MOL0    Cl12188  -2.100   8.526   0.096  0.4704  0.2104  0.2778
   93MOL0     C12189  -1.185   8.037   0.479  0.1333 -0.0601 -0.4429
   93MOL0     C12190  -1.067   7.959   0.505  0.4355 -0.5596 -0.3591
   93MOL0     O12191  -0.803   7.826   0.279  0.7310 -0.0200  0.4132
   93MOL0     C12192  -0.739   7.557   0.492 -0.3001 -0.5437 -0.8817
   93MOL0     C12193  -0.644   7.462   0.517 -0.3415  0.3325 -0.3199
   93MOL0     N12194   0.194   6.982   0.572  0.1401 -0.1227  0.4428
   93MOL0     N12195   0.308   6.942   0.520 -0.5772  0.0716 -0.3535
   93MOL0     C12196   1.531   7.067  -0.058 -0.3173  0.8982 -0.1614
   93MOL0     C12197   1.645   7.150  -0.074 -0.0144  0.3462  0.7835
   93MOL0     C12198   2.031   7.407   0.048 -0.4622 -0.4540 -1.2294
   93MOL0     C12199   2.086   7.397  -0.079 -0.5110  0.1422  0.4419
   93MOL0     C12200   2.208   7.462  -0.124  0.5621  0.2208  0.2881
   93MOL0     C12201   2.265   7.544  -0.032 -0.2373 -0.0914 -0.6909
   93MOL0     O12202   2.384   7.626  -0.045 -0.4747 -0.0616  0.1672
   93MOL0     C12203   2.511   7.559  -0.026 -0.4774 -0.6280 -0.2601
   93MOL0     C12204   2.617   7.630  -0.117 -0.4778 -1.0776 -0.9479
   93MOL0     C12205   2.643   7.780  -0.089 -0.5775 -0.2673  0.5143
   93MOL0     C12206   2.684   7.867  -0.206  0.7381  0.2919  0.0155
   93MOL0     C12207   2.803   7.815  -0.276 -0.6243  0.5905 -0.1833
   93MOL0     C12208   2.905   7.775  -0.331  0.6108 -1.1278  0.1487
   93MOL0     C12209   2.202   7.565   0.088 -0.6753  0.2961  0.0270
   93MOL0     C12210   2.092   7.492   0.135 -0.1128 -0.5717  0.2147
   93MOL0     H12211   1.789   7.126   0.224 -0.5413 -2.0505  1.7682
   93MOL0     H12212   1.562   6.997   0.276 -1.5921  0.5053 -1.3079
   93MOL0     H12213   1.294   7.068   0.225  3.7051  0.4473 -1.7084
   93MOL0     H12214   1.322   6.895   0.277 -0.8752 -2.7481 -0.2103
   93MOL0     H12215   1.165   6.821   0.108 -2.2073 -1.4335  3.1365
   93MOL0     H12216   1.126   6.981   0.065 -1.7205 -1.7855 -0.9092
   93MOL0     H12217   1.057   7.039   0.311  1.7295  0.4648 -1.9980
   93MOL0     H12218   1.076   6.869   0.351  0.8430 -0.8961 -0.2900
   93MOL0     H12219   0.910   6.965   0.116 -0.9698 -1.3631 -1.6583
   93MOL0     H12220   0.920   6.795   0.178 -0.7104  0.7900  0.3294
   93MOL0     H12221   0.801   7.006   0.362 -1.0555  1.2921 -1.4503
   93MOL0     H12222   0.786   6.823   0.370 -0.5023  1.1099  2.2366
   93MOL0     H12223   0.644   6.820   0.178 -1.1716 -1.5526  1.1479
   93MOL0     H12224   0.653   6.995   0.177 -4.1225 -1.0371 -0.4069
   93MOL0     H12225   0.541   6.787   0.379  0.9978 -1.6036 -1.5035
   93MOL0     H12226   0.555   6.951   0.433  0.2427 -2.5251  0.7903
   93MOL0     H12227   0.351   6.842   0.252  0.4213 -0.2232  0.2933
   93MOL0     H12228   0.411   7.002   0.210  0.6697  1.1225  0.6501
   93MOL0     H12229   0.133   7.076   0.273 -1.6236  0.6468  2.1996
   93MOL0     H12230  -0.025   7.119   0.596  1.0559  0.1097 -0.1713
   93MOL0     H12231  -0.071   6.999   0.474  0.4122  0.1335  1.2064
   93MOL0     H12232  -0.090   7.218   0.318  0.9565  1.1597 -1.1190
   93MOL0     H12233  -0.005   7.290   0.458  2.1319 -2.8018  1.3344
   93MOL0     H12234  -0.266   7.136   0.467  1.1293 -2.0817  4.5081
   93MOL0     H12235  -0.216   7.263   0.592 -1.2986  4.1337 -1.4161
   93MOL0     H12236  -0.286   7.345   0.320 -0.0313  2.5304  0.0940
   93MOL0     H12237  -0.239   7.449   0.450  0.2136  0.3847  1.2538
   93MOL0     H12238  -0.393   7.591   0.343  0.7921 -0.9321  1.8777
   93MOL0     H12239  -0.542   7.757   0.292  1.3475 -0.8992 -0.5057
   93MOL0     H12240  -1.102   7.731   0.253 -0.3268  0.1387 -0.4573
   93MOL0     H12241  -1.296   7.870   0.210 -1.9643  3.5437  0.5035
   93MOL0     H12242  -1.417   8.105   0.549 -3.9082  2.4540  1.8088
   93MOL0     H12243  -1.565   8.076   0.463 -0.4820  0.1036  1.1507
   93MOL0     H12244  -1.515   8.270   0.309  0.7827  2.3893  0.1182
   93MOL0     H12245  -1.402   8.326   0.432 -0.8657  1.0799  2.6282
   93MOL0     H12246  -1.596   8.322   0.588 -0.5422 -0.6381  0.3487
   93MOL0     H12247  -1.694   8.240   0.466  0.6361 -1.4206  0.7981
   93MOL0     H12248  -1.577   8.518   0.461  0.4554 -2.0196  1.9496
   93MOL0     H12249  -1.653   8.449   0.319 -1.3581 -3.2118 -0.7731
   93MOL0     H12250  -1.795   8.570   0.554 -1.3393  1.1055 -1.7439
   93MOL0     H12251  -1.835   8.394   0.532  4.2758 -0.5548  3.5106
   93MOL0     H12252  -1.842   8.619   0.312 -0.9321  0.9203 -1.1734
   93MOL0     H12253  -1.989   8.574   0.399 -0.8430  0.3408 -1.6363
   93MOL0     H12254  -1.860   8.330   0.270 -2.0093 -1.9650 -2.0281
   93MOL0     H12255  -2.031   8.381   0.295 -1.2445  2.3066  0.3191
   93MOL0     H12256  -1.920   8.369   0.070 -2.2434 -0.1577 -0.2407
   93MOL0     H12257  -1.858   8.525   0.110  0.1592  0.2563  1.1368
   93MOL0     H12258  -1.205   8.114   0.552 -1.5261 -0.1519 -0.7749
   93MOL0     H12259  -1.000   7.994   0.583  4.7336 -1.5862 -3.2756
   93MOL0     H12260  -0.842   7.543   0.523 -0.1430 -0.1418 -0.1653
   93MOL0     H12261  -0.678   7.376   0.572 -1.2853  0.5317 -0.5851
   93MOL0     H12262   1.452   7.042  -0.128 -1.0149 -0.2024  0.9708
   93MOL0     H12263   1.685   7.170  -0.173  1.5946 -2.4083  0.7852
   93MOL0     H12264   2.058   7.329  -0.159  4.0587  0.1166 -1.3957
   93MOL0     H12265   2.266   7.447  -0.215  0.8387 -2.0980  0.8012
   93MOL0     H12266   2.499   7.454  -0.054 -1.9676 -0.4289 -0.4802
   93MOL0     H12267   2.539   7.567   0.080 -1.3405 -0.8409 -0.0053
   93MOL0     H12268   2.714   7.586  -0.092  1.0185  2.0635 -0.7618
   93MOL0     H12269   2.600   7.602  -0.222 -0.0601 -0.5264 -1.1653
   93MOL0     H12270   2.723   7.776  -0.015  2.4172  0.7379 -2.3898
   93MOL0     H12271   2.556   7.820  -0.037 -1.2549  1.4534 -1.7632
   93MOL0     H12272   2.601   7.880  -0.276 -0.3203  0.1712  1.2072
   93MOL0     H12273   2.716   7.965  -0.170  1.7607  0.3124 -0.9143
   93MOL0     H12274   2.995   7.744  -0.380  0.5091  0.1236 -0.9045
   93MOL0     H12275   2.245   7.650   0.140  1.5785 -0.3693 -0.6171
   93MOL0     H12276   2.039   7.518   0.226 -1.3410  0.2693 -0.6975
   94MOL0     O12277   3.254   2.943   5.587  0.0029 -0.6682  0.3275
   94MOL0     C12278   3.263   3.067   5.588  0.3615  0.9449 -0.5485
   94MOL0     O12279   3.164   3.153   5.553 -0.7376 -0.0199  0.9076
   94MOL0     C12280   3.030   3.119   5.539 -0.3904  0.3709  0.8745
   94MOL0     C12281   2.964   3.211   5.449 -0.3571 -0.6022 -1.6084
   94MOL0     C12282   2.828   3.206   5.434  0.6464 -0.9211 -0.2976
   94MOL0     C12283   2.757   3.108   5.494  0.8012 -0.1902  0.1881
   94MOL0     O12284   2.623   3.097   5.479 -0.4376 -0.3754  0.6042
   94MOL0     C12285   2.559   3.218   5.452  0.5431  0.2725 -0.1537
   94MOL0     C12286   2.410   3.184   5.454  0.5263 -0.1281  0.3376
   94MOL0     C12287   2.340   3.292   5.377 -0.2402  0.4947  1.3896
   94MOL0     C12288   2.197   3.237   5.337 -0.6037 -0.7372 -0.2976
   94MOL0     C12289   2.113   3.345   5.272  0.3061 -0.5447 -0.7088
   94MOL0     C12290   1.992   3.296   5.193  0.1951  0.0421 -0.9604
   94MOL0     C12291   1.866   3.267   5.276  0.3798 -0.6225 -0.5690
   94MOL0     C12292   1.755   3.224   5.181 -0.6506  0.3189  0.1323
   94MOL0     N12293   1.623   3.241   5.232  0.7224  0.1008 -0.3115
   94MOL0     C12294   1.563   3.158   5.315 -0.3541  0.1500 -0.1269
   94MOL0     C12295   1.436   3.206   5.330  0.0663 -0.1849  0.6239
   94MOL0     C12296   1.324   3.131   5.409  0.6653 -0.8815 -0.0491
   94MOL0     C12297   1.187   3.200   5.408  0.1007 -0.1865 -0.1778
   94MOL0     C12298   1.091   3.122   5.322 -0.7797 -0.1981  0.3494
   94MOL0     C12299   0.955   3.192   5.298  0.0910  0.9085 -0.3901
   94MOL0     O12300   0.867   3.165   5.413 -0.3454  0.2823  0.4606
   94MOL0     C12301   0.737   3.198   5.394 -0.1537 -0.0532 -0.5040
   94MOL0     C12302   0.655   3.165   5.500 -0.0274  0.5202  1.0387
   94MOL0     C12303   0.511   3.184   5.492  1.0544  0.0550 -0.8025
   94MOL0     C12304   0.455   3.249   5.381 -0.2679 -0.5928  0.3256
   94MOL0     C12305   0.309   3.290   5.385  0.1948 -0.0743 -0.8825
   94MOL0     O12306   0.224   3.218   5.472  0.5964  0.7708 -0.0872
   94MOL0     C12307   0.095   3.270   5.494 -0.3540 -0.7571  0.3710
   94MOL0     C12308  -0.023   3.198   5.459 -0.6273 -0.1281 -1.5044
   94MOL0     C12309  -0.151   3.242   5.494  0.3793  0.6821 -0.1972
   94MOL0     C12310  -0.158   3.378   5.533  0.0175  0.4119 -0.0602
   94MOL0     O12311  -0.277   3.441   5.536 -0.1921  0.4386  0.0893
   94MOL0     C12312  -0.315   3.521   5.419  0.3350  0.3631 -0.2291
   94MOL0     C12313  -0.448   3.593   5.442  1.1406  0.2895  0.2912
   94MOL0     C12314  -0.458   3.670   5.576  0.2164  0.1818 -0.2595
   94MOL0     C12315  -0.573   3.766   5.573 -0.3679 -0.7195 -0.2153
   94MOL0     C12316  -0.615   3.816   5.705  0.2577 -0.3401 -1.3333
   94MOL0     C12317  -0.751   3.893   5.692 -0.4415  0.4367 -0.3123
   94MOL0     C12318  -0.802   3.965   5.822 -0.3278 -0.1851  0.4664
   94MOL0     C12319  -0.936   4.034   5.791  1.3698  0.7359 -0.2977
   94MOL0    Cl12320  -1.046   4.051   5.929  0.4112 -0.6107  0.5394
   94MOL0     C12321  -0.047   3.446   5.578 -0.2469 -0.1559  0.0886
   94MOL0     C12322   0.088   3.389   5.561 -0.5083 -0.5893  0.2647
   94MOL0     O12323   0.281   3.384   5.308 -0.8347  0.2436 -0.4809
   94MOL0     C12324   0.544   3.294   5.276  0.3862  0.9637 -0.0524
   94MOL0     C12325   0.680   3.271   5.289  0.3354 -0.6895 -0.4820
   94MOL0     N12326   1.421   3.305   5.241  0.0766  0.2294  0.3643
   94MOL0     N12327   1.536   3.330   5.185 -0.3639  0.2129 -0.3694
   94MOL0     C12328   2.829   3.010   5.564  0.0845 -0.5189 -1.1880
   94MOL0     C12329   2.960   3.015   5.595  0.5231  0.0232 -0.6677
   94MOL0     C12330   3.405   3.120   5.605  0.2197  0.0535  0.5195
   94MOL0     C12331   3.505   3.037   5.657 -0.2931  0.4850  0.2661
   94MOL0     C12332   3.633   3.086   5.651 -0.1786 -0.9154 -0.6087
   94MOL0     C12333   3.665   3.210   5.594 -0.6432 -0.0328 -0.6530
   94MOL0     O12334   3.798   3.243   5.594  0.0144  1.3611 -0.4491
   94MOL0     C12335   3.849   3.378   5.589  0.0804 -0.5966  0.4095
   94MOL0     C12336   3.993   3.373   5.543 -0.2435 -0.1531 -0.1227
   94MOL0     C12337   4.079   3.336   5.667  0.0575 -0.3821  0.3677
   94MOL0     C12338   4.229   3.344   5.631  0.4892  0.1920  0.6743
   94MOL0     C12339   4.280   3.480   5.629 -0.2100 -0.1001  0.5534
   94MOL0     C12340   4.319   3.591   5.614  0.0971  0.2595 -0.5167
   94MOL0     C12341   3.563   3.297   5.565  0.2225  0.3815 -0.2124
   94MOL0     C12342   3.431   3.258   5.562 -0.2802  0.1502 -0.5652
   94MOL0     H12343   3.019   3.294   5.407  1.2156 -0.8921 -0.2140
   94MOL0     H12344   2.785   3.294   5.387 -1.3262 -0.4135  2.2030
   94MOL0     H12345   2.592   3.257   5.356 -0.0783  2.2279  0.3848
   94MOL0     H12346   2.581   3.294   5.528  0.0195  1.0533 -0.7662
   94MOL0     H12347   2.377   3.168   5.557  2.6566 -0.2628  1.0491
   94MOL0     H12348   2.392   3.090   5.401  1.5433 -0.6920  0.9582
   94MOL0     H12349   2.400   3.335   5.296 -0.7867  2.1698  1.8167
   94MOL0     H12350   2.328   3.387   5.431 -1.2571  1.9551 -1.2189
   94MOL0     H12351   2.203   3.163   5.256 -0.6605 -0.0671 -0.9315
   94MOL0     H12352   2.152   3.189   5.424 -2.0558  2.1606  0.6534
   94MOL0     H12353   2.175   3.401   5.201  0.2799 -1.7947 -1.7726
   94MOL0     H12354   2.079   3.417   5.347  0.7823 -2.3355  1.3405
   94MOL0     H12355   2.016   3.215   5.123 -1.8864 -1.3592 -0.1226
   94MOL0     H12356   1.965   3.382   5.132  1.3445  0.7047 -0.5602
   94MOL0     H12357   1.880   3.186   5.349 -2.7274 -1.3943 -0.6738
   94MOL0     H12358   1.853   3.361   5.331  3.0667 -0.3939 -0.2014
   94MOL0     H12359   1.769   3.119   5.156  0.3231  0.6352 -0.7184
   94MOL0     H12360   1.760   3.287   5.091  0.0426 -0.0250 -0.0771
   94MOL0     H12361   1.610   3.077   5.369  1.4367  0.8318 -0.5807
   94MOL0     H12362   1.349   3.130   5.516  0.6130 -0.3960 -0.0311
   94MOL0     H12363   1.309   3.025   5.385  0.0424 -1.1082  1.2391
   94MOL0     H12364   1.198   3.297   5.359 -1.8569  0.1980  0.0745
   94MOL0     H12365   1.148   3.204   5.510  4.9539 -1.1674  2.0291
   94MOL0     H12366   1.143   3.117   5.226  1.0525  0.1471  1.2695
   94MOL0     H12367   1.080   3.018   5.354 -1.5761 -0.6055 -1.1536
   94MOL0     H12368   0.925   3.151   5.202 -1.2889  0.7952  0.0686
   94MOL0     H12369   0.961   3.301   5.287 -0.7250  1.0326  0.3335
   94MOL0     H12370   0.703   3.120   5.586 -0.0200  0.1656  0.8541
   94MOL0     H12371   0.446   3.158   5.575  1.5422  1.8131  0.1790
   94MOL0     H12372  -0.010   3.102   5.409  0.5612 -0.9531  0.2965
   94MOL0     H12373  -0.238   3.193   5.453  0.1794  0.9166 -0.0547
   94MOL0     H12374  -0.321   3.462   5.327 -1.9355  3.2973 -2.1233
   94MOL0     H12375  -0.235   3.594   5.402  0.6927 -0.2655 -1.4146
   94MOL0     H12376  -0.530   3.523   5.427  2.6601 -1.3066 -1.0374
   94MOL0     H12377  -0.453   3.667   5.362 -1.5751 -2.6411 -2.5438
   94MOL0     H12378  -0.362   3.721   5.591  0.4096 -0.5896  1.4153
   94MOL0     H12379  -0.463   3.590   5.651 -1.5465  1.5517  1.1613
   94MOL0     H12380  -0.532   3.859   5.531  1.8418 -1.9555 -0.9617
   94MOL0     H12381  -0.659   3.725   5.520  0.6059 -1.3604 -1.3338
   94MOL0     H12382  -0.545   3.882   5.756 -2.0226 -1.4339  3.7932
   94MOL0     H12383  -0.635   3.731   5.771 -0.7008  1.6623  1.0668
   94MOL0     H12384  -0.830   3.822   5.666  0.1770  0.7756 -3.4367
   94MOL0     H12385  -0.747   3.972   5.616  1.2416 -0.2778 -0.9965
   94MOL0     H12386  -0.825   3.899   5.906 -0.0598  0.2918  0.9204
   94MOL0     H12387  -0.737   4.045   5.859 -0.3136  1.2038 -2.3067
   94MOL0     H12388  -0.990   3.968   5.723 -0.5505  2.3179 -0.4019
   94MOL0     H12389  -0.928   4.134   5.747  2.3547  0.8109  0.0462
   94MOL0     H12390  -0.064   3.547   5.612 -1.9477  0.0030 -1.1160
   94MOL0     H12391   0.175   3.451   5.579 -0.0625 -0.0781 -3.1158
   94MOL0     H12392   0.503   3.352   5.195  2.4473  2.1974 -0.2725
   94MOL0     H12393   0.747   3.305   5.211 -0.1600 -0.2566 -0.7226
   94MOL0     H12394   2.762   2.941   5.614  1.6735  0.2347  2.2762
   94MOL0     H12395   3.005   2.943   5.663 -1.8417  0.0626  1.0586
   94MOL0     H12396   3.470   2.941   5.694 -0.8194 -0.2849 -2.0367
   94MOL0     H12397   3.705   3.013   5.688 -1.2673 -1.3487  0.7081
   94MOL0     H12398   3.840   3.427   5.687 -0.2460 -1.1540  0.6573
   94MOL0     H12399   3.797   3.437   5.513  1.9759  0.4873 -0.1183
   94MOL0     H12400   4.000   3.312   5.453  0.7070  1.7209 -1.3800
   94MOL0     H12401   4.015   3.479   5.522 -1.7867 -0.0934 -1.6568
   94MOL0     H12402   4.055   3.233   5.693  0.0834 -0.9168 -1.5628
   94MOL0     H12403   4.042   3.399   5.749  0.6208  1.1394 -0.5021
   94MOL0     H12404   4.283   3.291   5.711 -0.6650 -4.3878 -1.2270
   94MOL0     H12405   4.235   3.289   5.537 -2.7009  0.5986  0.1283
   94MOL0     H12406   4.350   3.693   5.598 -1.0891  0.4734 -1.5535
   94MOL0     H12407   3.578   3.401   5.536  0.3160  0.4557  0.0941
   94MOL0     H12408   3.353   3.326   5.530 -1.9011 -1.8729 -1.1412
   95MOL0     O12409  10.652  11.051   4.370  0.4446  0.3920 -0.1963
   95MOL0     C12410  10.678  10.954   4.298  0.1486  0.3505 -0.0217
   95MOL0     O12411  10.617  10.828   4.307  0.9403  0.2782 -0.8473
   95MOL0     C12412  10.534  10.803   4.416 -0.2217 -0.0602 -0.0147
   95MOL0     C12413  10.412  10.736   4.402 -0.1297 -0.6511  0.8023
   95MOL0     C12414  10.337  10.690   4.519  0.5483 -0.2094  0.5659
   95MOL0     C12415  10.381  10.726   4.641  0.2147 -0.0522 -0.6893
   95MOL0     O12416  10.320  10.688   4.758  0.1698  0.2935  0.2520
   95MOL0     C12417  10.192  10.639   4.758  0.6796  0.1571  0.7503
   95MOL0     C12418  10.132  10.618   4.904  0.7170  0.8701 -0.0590
   95MOL0     C12419  10.003  10.540   4.897  0.0201 -0.0536 -0.1090
   95MOL0     C12420   9.891  10.609   4.817 -0.4853 -0.0366 -0.3865
   95MOL0     C12421   9.860  10.755   4.842 -0.7331 -0.4770 -0.4162
   95MOL0     C12422   9.823  10.778   4.988 -0.5861  0.4553  0.1798
   95MOL0     C12423   9.796  10.927   5.010 -0.3741 -0.3611  1.2530
   95MOL0     C12424   9.652  10.971   4.986  0.1538 -0.2161 -0.3547
   95MOL0     N12425   9.554  10.890   5.065 -0.2824  0.4712 -0.0612
   95MOL0     C12426   9.496  10.925   5.184  0.4162 -0.1253  0.6676
   95MOL0     C12427   9.415  10.819   5.218 -0.9057 -0.2176 -1.0073
   95MOL0     C12428   9.334  10.815   5.350  0.2610  0.6255 -0.3469
   95MOL0     C12429   9.199  10.897   5.322 -0.0423 -0.1157  0.4043
   95MOL0     C12430   9.095  10.881   5.440 -0.1640  0.1456 -0.4772
   95MOL0     C12431   8.961  10.943   5.415  0.1001 -1.4318 -0.1301
   95MOL0     O12432   8.885  10.861   5.323  0.1612 -0.1032 -1.2265
   95MOL0     C12433   8.759  10.892   5.281  0.2841 -0.3645  0.1426
   95MOL0     C12434   8.702  10.797   5.189 -0.1540 -0.2845 -0.0295
   95MOL0     C12435   8.567  10.800   5.150 -0.3891 -0.2129 -0.1555
   95MOL0     C12436   8.487  10.898   5.209  0.3297  0.1963 -0.0597
   95MOL0     C12437   8.348  10.901   5.167  0.9636  0.7530 -0.3349
   95MOL0     O12438   8.261  10.985   5.242 -0.3838 -0.3101 -0.4849
   95MOL0     C12439   8.135  11.022   5.203 -0.2923 -0.3458  0.1137
   95MOL0     C12440   8.050  11.027   5.311  0.1419 -0.7930  0.0859
   95MOL0     C12441   7.916  11.063   5.295 -0.1236  0.5771 -0.3536
   95MOL0     C12442   7.863  11.098   5.168 -1.4604 -0.4428  0.3969
   95MOL0     O12443   7.729  11.111   5.141  0.0509  0.0824 -1.2218
   95MOL0     C12444   7.695  11.083   5.010 -0.1739 -0.1532  0.1988
   95MOL0     C12445   7.548  11.091   4.995  0.4299 -0.6255 -0.7298
   95MOL0     C12446   7.486  10.981   5.076  0.1973  0.5378  0.0812
   95MOL0     C12447   7.331  10.983   5.078 -0.2931 -0.8492 -0.6913
   95MOL0     C12448   7.290  10.856   5.161 -0.2612 -0.1296  1.2264
   95MOL0     C12449   7.151  10.866   5.202 -0.4688 -0.0240  0.4789
   95MOL0     C12450   7.100  10.752   5.281  0.2501  0.0253 -1.4083
   95MOL0     C12451   6.947  10.751   5.270 -0.4441 -0.6190 -0.7590
   95MOL0    Cl12452   6.883  10.911   5.329 -0.3932  0.4824 -0.1191
   95MOL0     C12453   7.963  11.113   5.064  0.4784  0.0437  0.3067
   95MOL0     C12454   8.094  11.066   5.079  0.7286  0.0900 -0.1107
   95MOL0     O12455   8.313  10.843   5.059 -0.8801 -0.2983 -0.4673
   95MOL0     C12456   8.539  10.990   5.301 -0.0086  0.2632  0.1677
   95MOL0     C12457   8.680  10.984   5.341 -0.1580 -1.1961  1.5493
   95MOL0     N12458   9.414  10.722   5.120  0.0768 -0.2250  0.1626
   95MOL0     N12459   9.506  10.764   5.027  0.6578  0.5739 -0.3367
   95MOL0     C12460  10.497  10.803   4.659 -0.0208 -0.1758  0.1100
   95MOL0     C12461  10.579  10.826   4.549 -1.0446 -0.7859  0.1364
   95MOL0     C12462  10.781  10.975   4.189  0.1151  0.1435 -0.9459
   95MOL0     C12463  10.792  10.889   4.087  0.5587  0.5631 -0.3630
   95MOL0     C12464  10.883  10.909   3.979 -0.1804 -0.4339 -0.2285
   95MOL0     C12465  10.965  11.024   3.976  0.5592  0.3719  0.6874
   95MOL0     O12466  11.069  11.052   3.892 -0.0715  0.5049  0.0493
   95MOL0     C12467  11.077  10.978   3.769 -0.1223  0.3156  1.4085
   95MOL0     C12468  11.227  10.946   3.745  0.0405 -0.1385  0.8097
   95MOL0     C12469  11.285  10.850   3.839 -0.4284  0.1381  0.7353
   95MOL0     C12470  11.427  10.795   3.804 -0.3963 -0.0410 -0.7930
   95MOL0     C12471  11.525  10.898   3.839 -0.5142 -0.4230 -0.4909
   95MOL0     C12472  11.617  10.980   3.866  0.0140 -0.4696 -0.0669
   95MOL0     C12473  10.960  11.114   4.087 -0.4657  0.2082 -0.8812
   95MOL0     C12474  10.865  11.088   4.191 -0.3848 -0.2515  0.4589
   95MOL0     H12475  10.374  10.720   4.302  1.1007 -1.0083  0.3804
   95MOL0     H12476  10.246  10.632   4.513 -0.6367  1.4583  1.5631
   95MOL0     H12477  10.188  10.548   4.698  0.6591 -0.6472  1.9636
   95MOL0     H12478  10.133  10.717   4.709 -0.5458  0.1040  2.0769
   95MOL0     H12479  10.111  10.712   4.956  1.2001 -0.6468  3.1131
   95MOL0     H12480  10.202  10.560   4.964  0.5975 -0.5230 -1.2166
   95MOL0     H12481   9.955  10.522   4.994 -1.5900 -3.0387 -1.3229
   95MOL0     H12482  10.018  10.440   4.853  0.4564 -0.6946  1.4172
   95MOL0     H12483   9.928  10.601   4.714  1.0086  1.8000 -0.0607
   95MOL0     H12484   9.801  10.548   4.830 -0.5398  0.1132 -0.0442
   95MOL0     H12485   9.772  10.780   4.782 -0.5748  1.8909  0.2227
   95MOL0     H12486   9.950  10.813   4.819  0.7359 -1.5253  2.2117
   95MOL0     H12487   9.902  10.741   5.054 -0.4541  0.8278  0.2340
   95MOL0     H12488   9.735  10.717   5.009 -0.4562  0.2289  0.0641
   95MOL0     H12489   9.831  10.935   5.113  2.3076  0.1711  0.3925
   95MOL0     H12490   9.863  10.989   4.950  0.6309 -0.3838  2.3167
   95MOL0     H12491   9.613  10.986   4.885 -1.8786 -2.0385  0.0855
   95MOL0     H12492   9.655  11.067   5.037 -2.6380 -0.1830 -0.0920
   95MOL0     H12493   9.514  11.013   5.245  1.0902 -1.4510  2.4585
   95MOL0     H12494   9.373  10.866   5.438 -1.0891  1.8930 -0.4323
   95MOL0     H12495   9.311  10.710   5.372  2.0183  0.3470  0.2674
   95MOL0     H12496   9.160  10.858   5.227  0.3655  0.9275 -0.2074
   95MOL0     H12497   9.216  11.003   5.301  0.4398 -0.3060 -0.1918
   95MOL0     H12498   9.077  10.775   5.459  0.2377  0.4019  1.4833
   95MOL0     H12499   9.144  10.930   5.525  1.9200  0.6677 -1.8733
   95MOL0     H12500   8.976  11.039   5.365 -0.9578 -0.4608  1.3247
   95MOL0     H12501   8.897  10.950   5.504 -1.8940 -0.6510 -1.5522
   95MOL0     H12502   8.747  10.708   5.146 -3.9516 -1.2642 -2.4128
   95MOL0     H12503   8.520  10.726   5.086  0.9928  0.1387 -1.6568
   95MOL0     H12504   8.089  11.019   5.412 -0.4824 -0.5766  0.3482
   95MOL0     H12505   7.851  11.063   5.382  0.4871 -1.7544  0.1801
   95MOL0     H12506   7.718  10.977   4.992  1.3214  0.4975 -1.9895
   95MOL0     H12507   7.750  11.144   4.939 -0.7384 -1.4499 -1.4317
   95MOL0     H12508   7.522  11.081   4.889 -2.8323  4.9769 -0.8198
   95MOL0     H12509   7.500  11.182   5.031  0.8623 -0.4280 -0.6545
   95MOL0     H12510   7.521  10.981   5.180  1.4611 -0.3217 -0.3212
   95MOL0     H12511   7.520  10.889   5.028 -2.1514  0.0160 -0.7085
   95MOL0     H12512   7.293  11.072   5.130  0.9630 -2.1997  2.8823
   95MOL0     H12513   7.288  10.961   4.980  1.0091  0.7131 -1.6655
   95MOL0     H12514   7.352  10.842   5.250 -0.0888 -2.4890  0.8108
   95MOL0     H12515   7.308  10.767   5.100 -0.6133  0.8970 -0.4316
   95MOL0     H12516   7.088  10.872   5.113 -0.4715 -0.4434  0.4527
   95MOL0     H12517   7.129  10.963   5.248 -0.7273  0.9265 -1.5389
   95MOL0     H12518   7.136  10.660   5.233  1.7071  1.1717 -2.6663
   95MOL0     H12519   7.118  10.768   5.387 -2.5085 -0.2903 -0.8240
   95MOL0     H12520   6.902  10.671   5.330 -2.0977  2.0152  1.7529
   95MOL0     H12521   6.915  10.745   5.166 -1.7041  0.4008 -0.4511
   95MOL0     H12522   7.945  11.135   4.959 -0.0594 -2.0744 -0.0890
   95MOL0     H12523   8.163  11.063   4.996  0.9559 -3.5593  0.0759
   95MOL0     H12524   8.481  11.071   5.346  0.1747 -0.0761  1.0467
   95MOL0     H12525   8.711  11.041   5.427  2.9377  0.2422 -0.3401
   95MOL0     H12526  10.533  10.833   4.757 -0.5854 -0.4991  0.4188
   95MOL0     H12527  10.678  10.868   4.562 -2.0360  1.3761  1.0818
   95MOL0     H12528  10.746  10.790   4.092  2.6283 -0.4122  0.8726
   95MOL0     H12529  10.876  10.820   3.918 -3.2265  0.9313 -2.1752
   95MOL0     H12530  11.045  11.027   3.677  3.4416  0.5021  0.1389
   95MOL0     H12531  11.030  10.881   3.788  2.6198 -1.0617  1.6175
   95MOL0     H12532  11.234  10.908   3.642 -2.1046 -1.3635  1.0535
   95MOL0     H12533  11.282  11.040   3.749  0.3856 -0.3209  0.4620
   95MOL0     H12534  11.210  10.771   3.836 -0.5719  0.3018 -0.9623
   95MOL0     H12535  11.289  10.893   3.940 -0.4453 -0.6584  1.0850
   95MOL0     H12536  11.431  10.705   3.866  3.7877 -0.2731 -1.1509
   95MOL0     H12537  11.436  10.773   3.697 -1.0653  1.1838 -1.1318
   95MOL0     H12538  11.688  11.057   3.892  1.2567 -0.8139 -2.2114
   95MOL0     H12539  11.014  11.208   4.093 -0.2570  0.3243 -3.5720
   95MOL0     H12540  10.870  11.153   4.278 -1.7832  0.7891 -0.1972
   96MOL0     O12541   5.107   2.125   9.890  0.3393  0.3967 -0.9304
   96MOL0     C12542   5.142   2.018   9.929  0.5797  0.7229 -0.6251
   96MOL0     O12543   5.069   1.926   9.999 -0.5283  0.2929 -0.4754
   96MOL0     C12544   4.951   1.955  10.061  0.3042 -0.7779 -0.3357
   96MOL0     C12545   4.873   1.847  10.098  0.0724  0.2385  0.5849
   96MOL0     C12546   4.753   1.860  10.165  0.2173 -0.6721  0.0104
   96MOL0     C12547   4.707   1.982  10.203 -0.3356 -0.5640 -0.2399
   96MOL0     O12548   4.605   1.985  10.298 -0.2536  0.0101  0.4814
   96MOL0     C12549   4.604   2.100  10.380  0.7651  0.1140  0.7008
   96MOL0     C12550   4.496   2.071  10.491  1.2629 -0.0668  0.0788
   96MOL0     C12551   4.348   2.107  10.451  0.7020  0.1224 -0.3195
   96MOL0     C12552   4.239   2.098  10.561  0.4248  0.3265 -0.0152
   96MOL0     C12553   4.092   2.110  10.527 -0.1078  0.4563  0.0081
   96MOL0     C12554   3.995   2.088  10.641  0.3165  0.0079  0.0464
   96MOL0     C12555   3.853   2.060  10.580 -0.6465 -0.2368  0.2473
   96MOL0     C12556   3.749   2.010  10.676 -0.0139  0.3926  0.5864
   96MOL0     N12557   3.618   1.993  10.618 -0.0161 -0.0841  0.2176
   96MOL0     C12558   3.513   1.975  10.699 -0.0510  0.0384  0.3146
   96MOL0     C12559   3.403   1.989  10.615  0.1144 -0.5018  0.3814
   96MOL0     C12560   3.266   1.941  10.664  0.2353  1.1585  0.2438
   96MOL0     C12561   3.153   2.023  10.610 -0.3939 -0.1906 -0.5695
   96MOL0     C12562   3.121   1.965  10.470  0.0119  0.0133 -0.0775
   96MOL0     C12563   3.028   2.054  10.391  0.4641  0.0562 -0.5106
   96MOL0     O12564   2.898   2.049  10.459  0.6054 -0.2997  0.2323
   96MOL0     C12565   2.780   2.055  10.400 -0.8601 -1.1624 -0.3849
   96MOL0     C12566   2.676   2.049  10.492  0.3753 -0.4328 -0.1548
   96MOL0     C12567   2.544   2.053  10.448 -0.4111  0.0177 -0.6677
   96MOL0     C12568   2.518   2.053  10.310  0.7818  0.3581 -0.6596
   96MOL0     C12569   2.381   2.053  10.266 -0.6204 -0.4035  0.1821
   96MOL0     O12570   2.354   2.104  10.139  0.1087 -0.3447  0.8153
   96MOL0     C12571   2.228   2.129  10.096  0.0127 -0.1530  0.2548
   96MOL0     C12572   2.165   2.250  10.136  0.1850 -0.5428 -0.4034
   96MOL0     C12573   2.033   2.264  10.096 -0.4747 -1.4171  0.2559
   96MOL0     C12574   1.967   2.172  10.021  0.1643  0.2564 -0.1735
   96MOL0     O12575   1.832   2.181   9.987  0.1708  0.1482  0.1039
   96MOL0     C12576   1.806   2.258   9.870  0.6285  0.1980 -0.0489
   96MOL0     C12577   1.659   2.271   9.869 -0.3757 -0.8218  0.0193
   96MOL0     C12578   1.601   2.350   9.748 -0.0147  0.1959 -0.7358
   96MOL0     C12579   1.449   2.359   9.737  0.6017 -0.2025 -0.8244
   96MOL0     C12580   1.383   2.222   9.697 -0.0866 -0.5855  0.6493
   96MOL0     C12581   1.229   2.235   9.681  0.5687  0.0560 -0.5125
   96MOL0     C12582   1.157   2.102   9.650  0.8220  0.3777 -0.0722
   96MOL0     C12583   1.004   2.131   9.626 -0.1801  0.2003  0.0714
   96MOL0    Cl12584   0.939   1.989   9.544 -0.1369  0.2427  0.2962
   96MOL0     C12585   2.033   2.058   9.978 -0.1329  0.0098  0.4283
   96MOL0     C12586   2.161   2.035  10.023 -0.0195 -0.2441 -0.5359
   96MOL0     O12587   2.297   2.006  10.340  0.7004 -0.7874  0.1921
   96MOL0     C12588   2.626   2.068  10.215 -0.7734  0.2772 -0.2638
   96MOL0     C12589   2.762   2.054  10.262  0.3842 -0.2639 -0.1305
   96MOL0     N12590   3.445   2.027  10.490  0.3707  0.0136  0.4775
   96MOL0     N12591   3.574   2.027  10.493 -0.2649 -0.2086  0.4020
   96MOL0     C12592   4.784   2.094  10.164 -0.0709 -0.3751  0.1255
   96MOL0     C12593   4.899   2.080  10.089  0.3616 -0.0271 -0.1635
   96MOL0     C12594   5.273   1.974   9.886  0.7175 -0.7930 -0.5527
   96MOL0     C12595   5.332   2.040   9.773 -0.2937  0.2883 -0.4303
   96MOL0     C12596   5.465   2.009   9.729 -0.0646  0.3734  0.3755
   96MOL0     C12597   5.541   1.908   9.789 -0.2227  0.5419 -1.3301
   96MOL0     O12598   5.678   1.893   9.767 -0.0379 -0.8611  0.1468
   96MOL0     C12599   5.734   1.941   9.645 -0.3939 -0.1515 -0.0068
   96MOL0     C12600   5.882   1.910   9.642 -0.6795  0.8078 -0.4496
   96MOL0     C12601   5.967   1.993   9.741 -0.1203 -0.3982  0.4434
   96MOL0     C12602   6.117   1.953   9.760 -0.1238 -0.0741  0.4545
   96MOL0     C12603   6.186   2.032   9.657  0.2332 -0.0258 -0.1796
   96MOL0     C12604   6.244   2.090   9.577 -0.8355 -0.5786  0.6237
   96MOL0     C12605   5.480   1.842   9.898  0.5433  0.2913 -1.0194
   96MOL0     C12606   5.344   1.873   9.945 -0.4129  0.1521  0.3216
   96MOL0     H12607   4.907   1.749  10.065 -1.7970 -0.7355  1.4375
   96MOL0     H12608   4.697   1.769  10.183  0.8160 -1.4665 -1.7959
   96MOL0     H12609   4.594   2.190  10.317  0.8816 -0.9683 -0.9243
   96MOL0     H12610   4.704   2.110  10.423  0.6902  1.7072  0.5836
   96MOL0     H12611   4.524   2.136  10.574  2.4151  2.7472 -2.3088
   96MOL0     H12612   4.495   1.963  10.506  1.4638  0.0734  1.1496
   96MOL0     H12613   4.320   2.047  10.364  0.4500  1.2750 -1.0599
   96MOL0     H12614   4.356   2.208  10.410  3.3594 -0.5776 -1.7471
   96MOL0     H12615   4.260   2.004  10.614  4.1942  1.0494 -0.0116
   96MOL0     H12616   4.270   2.176  10.631 -2.7619  1.4436  0.3153
   96MOL0     H12617   4.070   2.034  10.451 -2.3814  0.7638  0.3043
   96MOL0     H12618   4.072   2.205  10.477  0.5041 -0.1876 -1.5253
   96MOL0     H12619   3.999   2.173  10.710 -3.0122 -2.2196  3.3926
   96MOL0     H12620   4.030   2.004  10.700 -0.9153 -0.5207  0.0588
   96MOL0     H12621   3.822   2.149  10.524  0.4326  1.3349  2.0358
   96MOL0     H12622   3.868   1.978  10.509  0.7906  0.1658  0.0488
   96MOL0     H12623   3.757   2.074  10.764  0.9351 -0.5308  1.1959
   96MOL0     H12624   3.783   1.908  10.699 -1.5598 -0.6707 -1.4726
   96MOL0     H12625   3.517   1.947  10.804 -1.6386 -1.4557  0.0317
   96MOL0     H12626   3.266   1.947  10.774 -1.2955 -2.5106  0.6038
   96MOL0     H12627   3.260   1.832  10.659 -0.6691  1.1298  1.3759
   96MOL0     H12628   3.181   2.127  10.593 -1.0027 -0.0906 -1.0107
   96MOL0     H12629   3.073   2.026  10.686  0.0968  1.7962 -0.0760
   96MOL0     H12630   3.211   1.948  10.411  0.2194  1.3329 -0.1785
   96MOL0     H12631   3.072   1.868  10.482 -2.0728  0.8555 -1.2223
   96MOL0     H12632   3.010   2.017  10.290 -1.4541 -2.2022  0.5627
   96MOL0     H12633   3.067   2.156  10.383 -2.0506  1.0660 -1.1133
   96MOL0     H12634   2.689   2.051  10.600  0.7330  0.5956 -0.2071
   96MOL0     H12635   2.461   2.034  10.515 -0.3546  0.7450 -0.3826
   96MOL0     H12636   2.208   2.325  10.201 -2.1599  0.3491  0.2200
   96MOL0     H12637   1.992   2.362  10.119  0.4806 -1.1972  1.0580
   96MOL0     H12638   1.847   2.218   9.777  0.1988 -2.1116  0.7031
   96MOL0     H12639   1.843   2.359   9.890 -0.5780  0.6542  0.0089
   96MOL0     H12640   1.629   2.324   9.960 -3.1317 -1.2638 -0.5254
   96MOL0     H12641   1.615   2.171   9.875  0.8595 -1.3086  2.5279
   96MOL0     H12642   1.638   2.299   9.658 -0.0855  1.1079 -1.2942
   96MOL0     H12643   1.651   2.447   9.739  0.4992  0.2317  1.7790
   96MOL0     H12644   1.412   2.389   9.835  2.0109  1.9187 -0.8653
   96MOL0     H12645   1.414   2.433   9.664 -1.2761  0.1356  0.3514
   96MOL0     H12646   1.400   2.141   9.769 -1.3330 -0.9409  0.5655
   96MOL0     H12647   1.434   2.190   9.606  1.3893  0.2783  1.1315
   96MOL0     H12648   1.208   2.297   9.593 -1.5009 -2.4685 -1.9053
   96MOL0     H12649   1.174   2.289   9.759 -0.7655 -0.7956 -0.8326
   96MOL0     H12650   1.201   2.059   9.560  2.0750  1.8372 -0.2052
   96MOL0     H12651   1.167   2.033   9.734 -0.0643 -1.1100 -1.1620
   96MOL0     H12652   0.999   2.223   9.567  2.7732  0.1124 -0.4699
   96MOL0     H12653   0.964   2.152   9.726  0.5858  3.1780 -0.1527
   96MOL0     H12654   1.984   1.972   9.932 -1.0490  0.7352  0.0278
   96MOL0     H12655   2.209   1.942   9.992  2.1437  0.0277  1.6721
   96MOL0     H12656   2.602   2.083  10.111 -0.9863 -1.1027 -0.4408
   96MOL0     H12657   2.845   2.054  10.192  1.0798  0.3189  0.6804
   96MOL0     H12658   4.758   2.195  10.196  0.2018 -0.4800  0.6896
   96MOL0     H12659   4.947   2.174  10.064 -0.7738  0.8336  0.7896
   96MOL0     H12660   5.278   2.111   9.711  1.4343  1.7642 -0.3301
   96MOL0     H12661   5.501   2.054   9.637 -1.4106  0.0601 -0.3337
   96MOL0     H12662   5.728   2.050   9.642 -1.1003 -0.2020 -1.3534
   96MOL0     H12663   5.683   1.912   9.552  0.6150  1.1414 -1.0047
   96MOL0     H12664   5.907   1.807   9.670 -0.4555  0.9411 -0.1555
   96MOL0     H12665   5.920   1.931   9.541  1.9035  0.1580  0.3059
   96MOL0     H12666   5.923   1.985   9.841  1.7172  2.0049  1.5358
   96MOL0     H12667   5.954   2.098   9.716 -0.3286 -0.5278  0.0018
   96MOL0     H12668   6.161   1.972   9.858  1.0986  1.6928 -0.3845
   96MOL0     H12669   6.113   1.846   9.737 -2.9552  0.4342 -2.1063
   96MOL0     H12670   6.301   2.142   9.503 -0.9599  1.0365  1.5910
   96MOL0     H12671   5.543   1.782   9.963  1.7737  2.1287 -0.4401
   96MOL0     H12672   5.313   1.810  10.028  0.5881  0.2307  0.7693
   97MOL0     O12673   0.989   4.969   6.098 -0.0090  0.2152 -0.1062
   97MOL0     C12674   0.994   5.030   5.991 -0.1621 -0.1405  0.3484
   97MOL0     O12675   0.903   5.122   5.954 -1.0897 -0.5050 -0.2241
   97MOL0     C12676   0.796   5.139   6.036  0.6063  0.2374 -0.2192
   97MOL0     C12677   0.693   5.045   6.023  0.8685 -0.4595 -0.6352
   97MOL0     C12678   0.591   5.045   6.119  0.1300  0.2426  0.5502
   97MOL0     C12679   0.587   5.138   6.221  0.8246 -0.2561 -1.4590
   97MOL0     O12680   0.471   5.142   6.287  0.4700  0.1603  0.1320
   97MOL0     C12681   0.401   5.257   6.243 -0.2565 -0.0972 -0.0572
   97MOL0     C12682   0.251   5.243   6.282 -0.3922  0.5172 -0.2569
   97MOL0     C12683   0.195   5.104   6.242 -0.0813 -0.9150  0.0930
   97MOL0     C12684   0.047   5.105   6.276 -0.3074  0.0519  0.1619
   97MOL0     C12685  -0.025   4.974   6.276 -0.7528 -0.0060 -0.4032
   97MOL0     C12686  -0.155   4.978   6.350  0.0139  0.1244 -0.5220
   97MOL0     C12687  -0.224   4.841   6.334  0.7340  0.7630  0.1602
   97MOL0     C12688  -0.297   4.814   6.207  0.0247 -0.6837  0.0688
   97MOL0     N12689  -0.401   4.917   6.172 -1.3448  0.0540  0.1685
   97MOL0     C12690  -0.527   4.929   6.212  0.1805  0.7921 -0.3676
   97MOL0     C12691  -0.570   5.052   6.166  0.7075 -0.3209 -0.3191
   97MOL0     C12692  -0.710   5.107   6.185  0.5633  0.1601 -0.1100
   97MOL0     C12693  -0.796   5.132   6.063  0.1391  0.1175 -0.0969
   97MOL0     C12694  -0.906   5.239   6.096 -0.4349 -0.2304  0.6581
   97MOL0     C12695  -1.007   5.245   5.984  0.6869  0.7255  0.0082
   97MOL0     O12696  -1.107   5.342   6.026  0.0993 -0.0616  0.0450
   97MOL0     C12697  -1.234   5.322   5.981  0.4360 -0.2394  0.9690
   97MOL0     C12698  -1.336   5.383   6.064 -0.7184 -0.8081  0.5834
   97MOL0     C12699  -1.462   5.396   6.026 -0.0322 -0.3102  0.8252
   97MOL0     C12700  -1.511   5.342   5.904 -0.1186  1.3091  0.1105
   97MOL0     C12701  -1.651   5.365   5.854 -0.8223 -0.2163  0.0703
   97MOL0     O12702  -1.733   5.440   5.929  0.2081 -0.2370  0.5047
   97MOL0     C12703  -1.865   5.451   5.888 -0.6910  0.0782 -0.4938
   97MOL0     C12704  -1.918   5.577   5.888  0.5972  0.2849  0.9626
   97MOL0     C12705  -2.048   5.598   5.841  0.1975 -0.2830  0.9959
   97MOL0     C12706  -2.127   5.492   5.787 -0.8485  0.3181 -0.4590
   97MOL0     O12707  -2.247   5.528   5.749 -0.1965 -0.2700  0.2855
   97MOL0     C12708  -2.346   5.443   5.685  0.0509 -0.0568  0.2871
   97MOL0     C12709  -2.463   5.531   5.638 -0.3710  0.4061 -0.2362
   97MOL0     C12710  -2.538   5.618   5.748 -0.1670 -0.5039  0.0136
   97MOL0     C12711  -2.659   5.692   5.683  1.0604  0.3281 -0.2281
   97MOL0     C12712  -2.780   5.720   5.780 -0.4830  0.2851 -0.5941
   97MOL0     C12713  -2.874   5.835   5.724 -0.2561 -0.0980 -0.0095
   97MOL0     C12714  -2.974   5.859   5.831 -0.0820  0.1384  0.1462
   97MOL0     C12715  -3.050   5.990   5.809  0.4214 -0.1919 -0.0522
   97MOL0    Cl12716  -3.197   6.013   5.903 -0.3196  0.3041 -0.1849
   97MOL0     C12717  -2.076   5.361   5.780  0.3631  0.0366  0.6375
   97MOL0     C12718  -1.945   5.339   5.839 -0.1861  0.5000 -0.6628
   97MOL0     O12719  -1.682   5.302   5.748 -0.3692  0.2196  0.6435
   97MOL0     C12720  -1.406   5.305   5.815 -0.4862  0.2989 -0.2102
   97MOL0     C12721  -1.269   5.293   5.848  0.3344  0.5951  0.3704
   97MOL0     N12722  -0.462   5.115   6.114 -0.2968  0.0966 -0.6272
   97MOL0     N12723  -0.362   5.032   6.117  0.0568  0.0324  0.0409
   97MOL0     C12724   0.693   5.227   6.239  0.5902 -0.8860  0.1640
   97MOL0     C12725   0.798   5.221   6.149 -0.3014  0.1186 -0.1059
   97MOL0     C12726   1.111   5.009   5.908 -0.1446  0.3810 -0.0532
   97MOL0     C12727   1.115   5.065   5.783 -0.6550  0.1037 -0.2268
   97MOL0     C12728   1.229   5.057   5.700 -0.6538  1.0568  0.1855
   97MOL0     C12729   1.337   4.980   5.733 -0.5831  0.7559  0.1541
   97MOL0     O12730   1.454   4.966   5.662 -0.0670 -0.3388  0.0957
   97MOL0     C12731   1.584   4.997   5.722  0.7402  0.5017 -0.2031
   97MOL0     C12732   1.590   5.144   5.721 -0.2615  0.1063  0.4565
   97MOL0     C12733   1.595   5.214   5.583  0.8006 -0.1339  0.7182
   97MOL0     C12734   1.739   5.244   5.537  0.1286  1.2322  0.4260
   97MOL0     C12735   1.820   5.120   5.516 -0.4140 -0.3886 -0.0902
   97MOL0     C12736   1.902   5.033   5.488 -0.0555  0.1435 -0.0562
   97MOL0     C12737   1.327   4.904   5.855 -0.3032  0.4151  0.4906
   97MOL0     C12738   1.221   4.920   5.939  0.0449  0.3575  0.0095
   97MOL0     H12739   0.692   4.985   5.933 -3.7700 -0.7955 -0.6257
   97MOL0     H12740   0.508   4.976   6.105  0.8227 -1.2923  3.3267
   97MOL0     H12741   0.408   5.257   6.134  1.3139  0.9890  0.0130
   97MOL0     H12742   0.447   5.348   6.283  1.5106 -1.0066  0.1108
   97MOL0     H12743   0.185   5.319   6.239 -0.4512 -1.6678 -4.7010
   97MOL0     H12744   0.245   5.262   6.389  0.8849 -1.9754  0.3412
   97MOL0     H12745   0.252   5.029   6.298  2.0436  2.3384  2.6036
   97MOL0     H12746   0.214   5.074   6.138 -1.3536 -1.2748 -0.0575
   97MOL0     H12747   0.044   5.157   6.372 -1.9360  1.7597 -0.7449
   97MOL0     H12748   0.008   5.171   6.198  1.9625 -0.7928 -1.8364
   97MOL0     H12749   0.044   4.904   6.325  2.2992  0.7651 -3.2450
   97MOL0     H12750  -0.034   4.952   6.169  1.6152 -0.1164 -0.6313
   97MOL0     H12751  -0.205   5.072   6.327  1.5104  1.3165  0.8927
   97MOL0     H12752  -0.140   4.985   6.458 -0.2148 -2.2527 -0.2679
   97MOL0     H12753  -0.151   4.763   6.359  1.9823  2.1752  1.0375
   97MOL0     H12754  -0.298   4.826   6.413  1.6280 -0.1366  0.8417
   97MOL0     H12755  -0.338   4.712   6.210 -3.2537  0.5354  0.9825
   97MOL0     H12756  -0.226   4.808   6.125  0.6318 -1.4989  0.6453
   97MOL0     H12757  -0.590   4.862   6.269  0.4716  2.8823  2.6920
   97MOL0     H12758  -0.682   5.203   6.230  2.7418  0.1598 -1.3476
   97MOL0     H12759  -0.758   5.041   6.257  2.3145 -0.4466  0.5474
   97MOL0     H12760  -0.841   5.037   6.032  1.7472 -1.1199  1.1532
   97MOL0     H12761  -0.738   5.172   5.979 -0.5416  2.6427  0.5429
   97MOL0     H12762  -0.958   5.222   6.191  0.3187  0.5973  1.2269
   97MOL0     H12763  -0.858   5.333   6.122  0.7454 -0.2935 -1.1248
   97MOL0     H12764  -1.061   5.149   5.980  0.3816  0.7302  2.5360
   97MOL0     H12765  -0.963   5.272   5.888 -2.7300 -1.8569 -2.5337
   97MOL0     H12766  -1.310   5.423   6.162 -2.2628 -1.3566  1.2555
   97MOL0     H12767  -1.520   5.455   6.096  1.4854 -1.3292  3.0759
   97MOL0     H12768  -1.856   5.660   5.921  2.4089 -0.4492 -0.4483
   97MOL0     H12769  -2.084   5.700   5.842  1.1676  0.0795  2.9379
   97MOL0     H12770  -2.388   5.379   5.763  1.0272  0.6433  1.4064
   97MOL0     H12771  -2.302   5.377   5.610  2.1805  0.1070  1.3272
   97MOL0     H12772  -2.537   5.474   5.582 -1.9155 -0.6185  2.6225
   97MOL0     H12773  -2.421   5.604   5.569  1.4275  1.2440  1.6235
   97MOL0     H12774  -2.468   5.685   5.800  0.1331  1.3269 -2.5562
   97MOL0     H12775  -2.573   5.555   5.830  2.6746 -0.4555  1.3997
   97MOL0     H12776  -2.625   5.789   5.646  0.6416  0.8686  0.7567
   97MOL0     H12777  -2.709   5.636   5.603  1.2496 -1.4989  0.8630
   97MOL0     H12778  -2.745   5.745   5.880  0.4760 -4.4660  0.4938
   97MOL0     H12779  -2.826   5.622   5.793 -4.1474  1.4263 -3.1833
   97MOL0     H12780  -2.918   5.808   5.627  0.6712 -0.2688 -0.3936
   97MOL0     H12781  -2.810   5.923   5.711 -0.9489  0.1172 -2.5908
   97MOL0     H12782  -3.042   5.774   5.843 -1.0725  0.9599  0.5211
   97MOL0     H12783  -2.936   5.877   5.932  2.4937  1.2673 -0.9182
   97MOL0     H12784  -3.079   6.005   5.705 -1.7204 -3.4676 -0.0796
   97MOL0     H12785  -2.978   6.070   5.828  1.7085 -1.2009 -0.5118
   97MOL0     H12786  -2.135   5.283   5.732 -0.0219 -0.7806  2.3514
   97MOL0     H12787  -1.919   5.233   5.839 -0.5647  0.4025 -0.9029
   97MOL0     H12788  -1.429   5.274   5.713 -1.0373  0.7917 -0.2481
   97MOL0     H12789  -1.192   5.273   5.774 -0.3781 -0.8411 -0.0119
   97MOL0     H12790   0.696   5.304   6.316  0.2826 -1.3476  0.6479
   97MOL0     H12791   0.891   5.277   6.151 -0.5471  0.5665 -0.8040
   97MOL0     H12792   1.021   5.107   5.749 -1.1526 -0.8235 -0.0122
   97MOL0     H12793   1.213   5.089   5.597 -3.2943 -2.3817 -0.6437
   97MOL0     H12794   1.663   4.955   5.659 -0.8526 -0.8719 -1.3801
   97MOL0     H12795   1.598   4.951   5.820  0.1787 -0.6302 -0.6218
   97MOL0     H12796   1.513   5.189   5.784  1.8850  0.9891  2.5866
   97MOL0     H12797   1.685   5.167   5.772 -0.7159 -1.3256  2.0484
   97MOL0     H12798   1.545   5.311   5.595  1.7068  0.3306  0.7531
   97MOL0     H12799   1.538   5.165   5.503 -1.7153  0.6608  1.9106
   97MOL0     H12800   1.735   5.286   5.436  0.4505 -0.1401 -0.1928
   97MOL0     H12801   1.784   5.314   5.607 -0.6965  2.6833 -0.4626
   97MOL0     H12802   1.988   4.974   5.462 -1.4339 -2.2890  0.6010
   97MOL0     H12803   1.410   4.843   5.890 -1.6325 -0.9994  1.3175
   97MOL0     H12804   1.218   4.854   6.026 -0.1238  0.6682  0.2411
   98MOL0     O12805   4.079  10.971   5.576  0.1589 -0.4566  0.0590
   98MOL0     C12806   4.134  10.863   5.574  0.3540  0.4947  0.0547
   98MOL0     O12807   4.064  10.748   5.550  0.0409  0.9238 -0.3505
   98MOL0     C12808   3.930  10.756   5.541 -0.7068 -0.1485  0.2191
   98MOL0     C12809   3.882  10.757   5.411  0.4244  0.2449  0.2446
   98MOL0     C12810   3.739  10.759   5.391  0.3537  0.2833  0.2525
   98MOL0     C12811   3.656  10.766   5.498  0.2368 -0.0809 -0.8715
   98MOL0     O12812   3.519  10.773   5.497 -0.1282  0.3720  1.1714
   98MOL0     C12813   3.452  10.779   5.363  0.3356 -0.5185  0.2707
   98MOL0     C12814   3.299  10.784   5.395  0.6043  0.8005 -0.1967
   98MOL0     C12815   3.218  10.816   5.261 -0.2421  0.3279 -0.4532
   98MOL0     C12816   3.065  10.834   5.283 -0.5444  0.1985  0.4729
   98MOL0     C12817   2.998  10.702   5.309 -0.6340  0.1538  0.1246
   98MOL0     C12818   2.847  10.732   5.313  0.4804 -0.2058  0.4797
   98MOL0     C12819   2.761  10.605   5.317 -1.1493 -0.7521 -0.5159
   98MOL0     C12820   2.750  10.527   5.190  0.2173  0.9106 -0.3366
   98MOL0     N12821   2.618  10.460   5.193  0.1923 -0.9521  0.2039
   98MOL0     C12822   2.505  10.536   5.164  0.9195 -0.9580 -0.2550
   98MOL0     C12823   2.403  10.456   5.195 -0.8426  0.8456 -0.8003
   98MOL0     C12824   2.264  10.473   5.171  0.9905  0.2319  0.4882
   98MOL0     C12825   2.174  10.390   5.258  0.2712 -0.0285 -0.4597
   98MOL0     C12826   2.021  10.416   5.253 -0.7355 -0.2213 -0.9463
   98MOL0     C12827   1.964  10.452   5.391  0.3793  0.2502 -0.1170
   98MOL0     O12828   1.970  10.345   5.485 -0.6877  0.5946  0.7078
   98MOL0     C12829   1.869  10.258   5.470  0.0153  0.3335  0.3571
   98MOL0     C12830   1.897  10.125   5.427 -0.3790  0.0986 -0.0303
   98MOL0     C12831   1.786  10.040   5.400 -0.6453 -0.4939  0.5730
   98MOL0     C12832   1.656  10.073   5.434 -0.3092 -0.7302  0.2454
   98MOL0     C12833   1.556   9.965   5.419  0.5756  0.2229  0.4724
   98MOL0     O12834   1.436  10.004   5.476  0.6147 -0.2609 -0.2389
   98MOL0     C12835   1.343   9.906   5.512 -0.7956 -0.5920 -0.4245
   98MOL0     C12836   1.380   9.798   5.594  1.0323  0.0589  0.0788
   98MOL0     C12837   1.279   9.705   5.644  0.8765 -0.2828  0.3800
   98MOL0     C12838   1.144   9.726   5.609  0.0068 -0.0580 -0.0203
   98MOL0     O12839   1.037   9.648   5.644 -1.2439 -1.2122  0.6759
   98MOL0     C12840   1.053   9.565   5.756  0.2900  0.2074 -0.4015
   98MOL0     C12841   0.928   9.484   5.788 -0.0691  0.2572 -0.0923
   98MOL0     C12842   0.805   9.574   5.783  0.3012  0.5840  0.0668
   98MOL0     C12843   0.679   9.508   5.847  0.6069 -0.2776  0.1640
   98MOL0     C12844   0.565   9.605   5.831  0.2978  0.2819  0.2518
   98MOL0     C12845   0.429   9.577   5.892  0.1537 -0.1741 -0.0038
   98MOL0     C12846   0.311   9.665   5.845 -0.2395 -0.7551 -0.0255
   98MOL0     C12847   0.242   9.732   5.959 -0.1642  0.4913 -0.1660
   98MOL0    Cl12848   0.067   9.791   5.916  0.1253 -0.3418  0.2081
   98MOL0     C12849   1.118   9.836   5.522  0.4794  0.4530  0.2285
   98MOL0     C12850   1.213   9.919   5.465 -0.5248 -0.0645 -0.6683
   98MOL0     O12851   1.580   9.859   5.358 -0.2916  0.1107 -0.0139
   98MOL0     C12852   1.631  10.211   5.480 -0.1985  0.3729 -0.4878
   98MOL0     C12853   1.738  10.297   5.495 -0.1120  0.8860  0.2854
   98MOL0     N12854   2.460  10.346   5.254 -0.3394  0.0785  0.0441
   98MOL0     N12855   2.589  10.344   5.254  0.2833  0.1199  0.4856
   98MOL0     C12856   3.706  10.762   5.622  0.1278  0.1999 -0.4255
   98MOL0     C12857   3.840  10.747   5.653  0.1869 -0.6514  0.9460
   98MOL0     C12858   4.283  10.865   5.591 -0.2227  1.4490  0.5905
   98MOL0     C12859   4.361  10.980   5.598 -0.1897  1.1849  0.5420
   98MOL0     C12860   4.509  10.970   5.609  0.1182 -0.0276  0.0315
   98MOL0     C12861   4.571  10.844   5.606 -0.1026 -1.1985  0.3450
   98MOL0     O12862   4.705  10.847   5.614 -0.2352  0.0893  0.8383
   98MOL0     C12863   4.771  10.764   5.709 -0.3698 -0.2506 -0.9015
   98MOL0     C12864   4.915  10.811   5.720  0.7646 -0.3843 -0.6320
   98MOL0     C12865   4.996  10.740   5.611  0.0006  0.3037  0.1995
   98MOL0     C12866   5.140  10.790   5.592  0.5502 -0.3250  0.1329
   98MOL0     C12867   5.223  10.767   5.709  1.0548  0.5480 -0.1265
   98MOL0     C12868   5.271  10.750   5.817  0.1587  0.8452 -0.7214
   98MOL0     C12869   4.489  10.726   5.601 -0.1543 -0.5800  0.1084
   98MOL0     C12870   4.352  10.742   5.596 -0.0439 -0.4935  0.5349
   98MOL0     H12871   3.937  10.760   5.318 -0.2600  0.8663 -0.1532
   98MOL0     H12872   3.697  10.765   5.291 -1.9854 -0.9748  1.0694
   98MOL0     H12873   3.482  10.700   5.293  2.7989  0.6362 -0.1004
   98MOL0     H12874   3.477  10.871   5.309  0.3455 -0.1349  0.9237
   98MOL0     H12875   3.303  10.867   5.465  2.7388  0.8888 -0.3523
   98MOL0     H12876   3.256  10.693   5.439  0.9149  0.2212 -1.0564
   98MOL0     H12877   3.246  10.725   5.208  1.5057  0.6391 -0.1213
   98MOL0     H12878   3.266  10.904   5.217  1.2531  0.7662  1.8934
   98MOL0     H12879   3.043  10.909   5.360 -0.7894  0.3021  0.3020
   98MOL0     H12880   3.029  10.873   5.188  2.0077  0.9752 -0.2549
   98MOL0     H12881   3.017  10.673   5.413  1.7518 -0.6794 -0.4824
   98MOL0     H12882   3.016  10.626   5.233 -2.4667  1.3518 -1.5988
   98MOL0     H12883   2.823  10.784   5.219  0.5132 -0.6941  0.1945
   98MOL0     H12884   2.818  10.799   5.394 -0.0439  0.7652 -0.4916
   98MOL0     H12885   2.796  10.528   5.387  0.3396 -0.1005 -0.5102
   98MOL0     H12886   2.659  10.636   5.345 -0.9544 -0.7088  0.1648
   98MOL0     H12887   2.836  10.460   5.178  0.9147  1.6178  0.5648
   98MOL0     H12888   2.748  10.602   5.111 -1.6214  1.3330  0.0612
   98MOL0     H12889   2.507  10.638   5.126  2.1870 -1.2939 -1.1831
   98MOL0     H12890   2.258  10.437   5.068  1.5852 -1.1636  0.9144
   98MOL0     H12891   2.245  10.580   5.181  0.2212  0.0870  0.7138
   98MOL0     H12892   2.212  10.426   5.354 -2.2928  1.5775  0.0312
   98MOL0     H12893   2.195  10.284   5.240  1.7265  0.1924 -0.1743
   98MOL0     H12894   1.999  10.507   5.195  0.3009  1.0668  0.5760
   98MOL0     H12895   1.975  10.323   5.220 -1.4140 -0.7024  1.2169
   98MOL0     H12896   1.862  10.489   5.375 -0.3277 -0.1992  2.8147
   98MOL0     H12897   2.036  10.521   5.436  2.8322 -2.1935  0.0067
   98MOL0     H12898   1.998  10.087   5.416 -0.7997 -1.7643  1.9433
   98MOL0     H12899   1.811   9.944   5.355  0.4998 -0.4545  1.0940
   98MOL0     H12900   1.486   9.788   5.614  0.7554 -0.0622  1.6088
   98MOL0     H12901   1.304   9.626   5.716 -1.3540 -0.4271  1.0718
   98MOL0     H12902   1.084   9.625   5.842  0.4206  0.2029 -0.4447
   98MOL0     H12903   1.133   9.492   5.740 -0.7240 -1.1358  0.4689
   98MOL0     H12904   0.931   9.438   5.887 -2.3249 -0.9149 -0.4941
   98MOL0     H12905   0.921   9.405   5.713 -0.8635  0.5905 -0.3792
   98MOL0     H12906   0.787   9.603   5.679 -4.0913 -2.3363 -0.2606
   98MOL0     H12907   0.830   9.655   5.852  1.9553 -2.3200  3.1514
   98MOL0     H12908   0.653   9.408   5.810  0.6973 -0.3264  0.2303
   98MOL0     H12909   0.703   9.482   5.950  2.6029 -0.3561 -0.2917
   98MOL0     H12910   0.549   9.633   5.726 -0.1345 -0.4035  0.1341
   98MOL0     H12911   0.597   9.702   5.870  1.3147  1.3324 -2.8981
   98MOL0     H12912   0.438   9.590   6.000  0.4175  0.8007 -0.1332
   98MOL0     H12913   0.415   9.471   5.869  0.0438 -0.4222  1.1552
   98MOL0     H12914   0.336   9.735   5.764 -1.5771 -0.1201  0.0764
   98MOL0     H12915   0.234   9.603   5.800 -2.7425  2.5146 -0.6736
   98MOL0     H12916   0.305   9.810   6.001 -0.4659 -0.2676  1.7858
   98MOL0     H12917   0.221   9.648   6.026 -2.2313 -0.5355 -1.9653
   98MOL0     H12918   1.015   9.860   5.501 -0.2741 -1.6997  1.1869
   98MOL0     H12919   1.176  10.004   5.409 -0.8049  0.4439  0.2563
   98MOL0     H12920   1.530  10.247   5.497 -0.8374 -0.6101 -1.9611
   98MOL0     H12921   1.721  10.400   5.526  1.6090  0.8058  1.6256
   98MOL0     H12922   3.642  10.751   5.709  0.6383 -0.5157 -0.1294
   98MOL0     H12923   3.886  10.732   5.750  0.0392 -0.0544  1.1069
   98MOL0     H12924   4.316  11.078   5.590 -0.2142  1.1357  0.0636
   98MOL0     H12925   4.577  11.055   5.612 -0.9793  0.8551  0.7165
   98MOL0     H12926   4.759  10.657   5.689 -2.3612 -0.2425  0.0145
   98MOL0     H12927   4.732  10.797   5.806 -0.1538  0.2504 -0.9843
   98MOL0     H12928   4.908  10.919   5.708  1.4080 -0.2704 -0.0455
   98MOL0     H12929   4.950  10.791   5.821 -1.1146  1.3853  0.4368
   98MOL0     H12930   4.942  10.756   5.517 -1.4773 -3.2890  0.2919
   98MOL0     H12931   4.994  10.632   5.626 -1.3894  0.3642  0.5701
   98MOL0     H12932   5.180  10.724   5.515  1.1789  0.5836 -0.3300
   98MOL0     H12933   5.138  10.897   5.574 -0.9892 -0.5617 -1.3422
   98MOL0     H12934   5.330  10.749   5.907 -1.5847  1.0764  0.4992
   98MOL0     H12935   4.546  10.634   5.609  0.6259  0.0548  2.4591
   98MOL0     H12936   4.299  10.652   5.567 -0.6104  0.2121 -0.7057
   99MOL0     O12937   8.452   5.389   1.479  0.0907  0.9005 -0.7313
   99MOL0     C12938   8.530   5.461   1.423  0.7797  0.5202  0.3450
   99MOL0     O12939   8.500   5.539   1.320 -0.5208  0.0403  0.0508
   99MOL0     C12940   8.372   5.563   1.285  0.8423  0.6663 -0.4558
   99MOL0     C12941   8.327   5.701   1.290 -1.4831 -1.1546  0.6609
   99MOL0     C12942   8.196   5.729   1.254 -0.4925  0.3859  0.2676
   99MOL0     C12943   8.109   5.626   1.213  0.3648 -1.0624 -0.5271
   99MOL0     O12944   7.973   5.668   1.200 -0.2455  0.1400 -0.6331
   99MOL0     C12945   7.886   5.578   1.140 -0.2403  0.1586  0.6423
   99MOL0     C12946   7.773   5.657   1.071  0.0789  0.0661 -0.6826
   99MOL0     C12947   7.678   5.594   0.956 -0.2327 -0.0863 -0.2562
   99MOL0     C12948   7.607   5.469   0.996 -0.2829 -0.2890  0.1952
   99MOL0     C12949   7.475   5.449   0.926  0.9811 -0.1202 -0.3056
   99MOL0     C12950   7.364   5.553   0.974 -0.3030  0.8599 -0.3263
   99MOL0     C12951   7.223   5.500   0.951  0.0117  0.2635  0.2669
   99MOL0     C12952   7.120   5.611   0.952 -0.6235  0.2104 -0.1834
   99MOL0     N12953   6.987   5.578   0.905  1.2056 -0.6204 -0.7166
   99MOL0     C12954   6.901   5.500   0.973  0.5681  0.2240  0.1963
   99MOL0     C12955   6.794   5.481   0.895 -0.7339 -0.0402  0.4297
   99MOL0     C12956   6.659   5.441   0.945  0.8014 -0.5806 -0.3624
   99MOL0     C12957   6.613   5.315   0.878 -0.1718  0.8803  0.5391
   99MOL0     C12958   6.506   5.235   0.963  0.2217 -0.0543 -0.0025
   99MOL0     C12959   6.365   5.274   0.921  0.8041  0.3779 -0.1300
   99MOL0     O12960   6.277   5.199   1.003 -0.0104  0.6672 -0.2836
   99MOL0     C12961   6.141   5.207   0.980 -0.5347  0.2451  0.4578
   99MOL0     C12962   6.065   5.101   1.022  0.1831  1.0917 -0.2074
   99MOL0     C12963   5.924   5.103   1.014  0.1423  0.3286  0.0786
   99MOL0     C12964   5.855   5.205   0.949 -0.6300 -0.4945  0.4850
   99MOL0     C12965   5.708   5.218   0.924  0.6036  0.2577 -0.6122
   99MOL0     O12966   5.631   5.123   0.989  0.0461  0.3060 -0.0760
   99MOL0     C12967   5.496   5.122   0.954 -0.1955 -0.2750 -0.8869
   99MOL0     C12968   5.436   5.004   0.911 -0.0449 -0.0285 -0.5071
   99MOL0     C12969   5.303   5.014   0.864 -0.1373 -0.2702  0.4597
   99MOL0     C12970   5.229   5.131   0.869  0.7768 -0.4951 -0.9602
   99MOL0     O12971   5.103   5.138   0.804 -0.0116  0.6914 -0.3152
   99MOL0     C12972   4.990   5.197   0.876 -0.2645  0.9418 -0.0250
   99MOL0     C12973   4.854   5.127   0.842 -0.7180 -0.0248 -0.0288
   99MOL0     C12974   4.858   4.981   0.871 -0.7258 -0.4677  0.2074
   99MOL0     C12975   4.726   4.905   0.851 -0.3613  1.1123  0.5131
   99MOL0     C12976   4.620   4.929   0.951  1.0049  0.3506  0.1258
   99MOL0     C12977   4.477   4.885   0.901 -0.0836  0.2395  0.4010
   99MOL0     C12978   4.463   4.735   0.931 -0.7306 -0.1715 -0.0205
   99MOL0     C12979   4.328   4.679   0.904  1.2242 -1.4367 -0.8187
   99MOL0    Cl12980   4.262   4.705   0.745 -0.0638  0.3797  0.0136
   99MOL0     C12981   5.283   5.240   0.945 -0.5260  0.4476  0.6606
   99MOL0     C12982   5.421   5.235   0.985  0.4652  0.2672  0.0599
   99MOL0     O12983   5.657   5.294   0.833  0.4852 -0.1550 -0.1650
   99MOL0     C12984   5.944   5.307   0.901  0.4834 -0.3597  0.0179
   99MOL0     C12985   6.080   5.311   0.918 -0.5158  0.6860 -0.3117
   99MOL0     N12986   6.829   5.546   0.776 -0.2817  0.2012 -1.1041
   99MOL0     N12987   6.938   5.612   0.788  0.2731  0.3809 -0.0455
   99MOL0     C12988   8.152   5.496   1.210 -0.3297  0.4740 -0.3713
   99MOL0     C12989   8.280   5.457   1.252  0.0612 -0.3731  0.5281
   99MOL0     C12990   8.658   5.461   1.485 -0.1301 -0.8972 -0.4792
   99MOL0     C12991   8.755   5.553   1.442 -0.5728  1.0906  0.2622
   99MOL0     C12992   8.884   5.558   1.499  0.4740 -0.6647  0.0674
   99MOL0     C12993   8.905   5.474   1.609  0.0003  0.0519 -0.0098
   99MOL0     O12994   9.022   5.476   1.679  0.1364  0.4380 -0.3112
   99MOL0     C12995   9.104   5.591   1.664 -0.0185  0.8592 -0.1252
   99MOL0     C12996   9.228   5.570   1.756  0.0111 -0.4934  0.3556
   99MOL0     C12997   9.340   5.464   1.723  0.5772 -1.0059 -0.5296
   99MOL0     C12998   9.467   5.481   1.812  0.1336 -0.2330  0.7347
   99MOL0     C12999   9.579   5.395   1.766  0.6844  0.3147 -0.8629
   99MOL0     C13000   9.653   5.307   1.744 -0.2399  0.7889  0.3819
   99MOL0     C13001   8.811   5.376   1.649  0.0309 -0.6936 -0.8196
   99MOL0     C13002   8.689   5.372   1.586 -0.7171 -0.9254  0.5836
   99MOL0     H13003   8.393   5.774   1.336 -1.5586 -1.5708  1.4465
   99MOL0     H13004   8.160   5.830   1.273  0.5916  1.1734 -1.5288
   99MOL0     H13005   7.854   5.502   1.212  1.1499  0.9488  2.1556
   99MOL0     H13006   7.952   5.526   1.070 -1.2810 -2.5224  1.5049
   99MOL0     H13007   7.821   5.742   1.023 -0.0801 -0.8449 -2.5360
   99MOL0     H13008   7.714   5.699   1.153  0.4484  0.2386 -0.5035
   99MOL0     H13009   7.744   5.560   0.876 -0.8361 -0.8043 -0.4589
   99MOL0     H13010   7.606   5.663   0.913 -1.2785 -0.4911  0.7754
   99MOL0     H13011   7.675   5.385   0.979 -0.1007 -0.7360  2.7345
   99MOL0     H13012   7.595   5.452   1.104  1.6097  1.0142  0.6596
   99MOL0     H13013   7.452   5.344   0.948  0.8334 -0.9692 -3.9300
   99MOL0     H13014   7.486   5.453   0.818 -0.5639  2.2965 -0.4505
   99MOL0     H13015   7.378   5.637   0.906 -0.3023 -0.2092 -1.6843
   99MOL0     H13016   7.374   5.593   1.075 -1.1350  0.7367 -0.1917
   99MOL0     H13017   7.232   5.445   0.857 -1.4948  0.8991 -0.2871
   99MOL0     H13018   7.192   5.427   1.026  2.2751 -1.3580 -0.2613
   99MOL0     H13019   7.155   5.688   0.882  1.2804  1.9723  2.4994
   99MOL0     H13020   7.115   5.662   1.049 -3.0994  0.3117 -0.3117
   99MOL0     H13021   6.918   5.462   1.073 -0.8439 -2.5060 -0.5179
   99MOL0     H13022   6.585   5.517   0.917 -0.6910 -1.3748  1.2244
   99MOL0     H13023   6.651   5.435   1.054 -0.9167  1.6454 -0.2864
   99MOL0     H13024   6.697   5.248   0.859 -0.9624  0.1445 -0.5178
   99MOL0     H13025   6.573   5.341   0.779  0.5077  0.4750  0.1464
   99MOL0     H13026   6.503   5.129   0.937  0.6271 -0.2714  0.8302
   99MOL0     H13027   6.534   5.243   1.068  2.0125  2.4170 -0.5756
   99MOL0     H13028   6.348   5.270   0.813 -1.6654  1.8194  0.1276
   99MOL0     H13029   6.357   5.378   0.955  2.3507  0.4624  0.0576
   99MOL0     H13030   6.104   5.008   1.062 -1.0010  0.4526 -0.4639
   99MOL0     H13031   5.865   5.028   1.066 -1.9670  1.1311 -1.0234
   99MOL0     H13032   5.491   4.910   0.899  2.1823  1.3439 -1.7839
   99MOL0     H13033   5.262   4.925   0.818 -1.9188  1.1248 -0.7741
   99MOL0     H13034   4.983   5.302   0.850 -3.0842  1.6746  3.0801
   99MOL0     H13035   5.009   5.193   0.984 -1.1189  0.5483  0.1203
   99MOL0     H13036   4.819   5.145   0.740 -0.0489 -1.3634 -0.5226
   99MOL0     H13037   4.786   5.179   0.910  0.3127  2.2404 -0.6292
   99MOL0     H13038   4.892   4.972   0.975  0.3443  0.0508 -0.0893
   99MOL0     H13039   4.930   4.940   0.800 -2.9935 -0.2404 -2.3689
   99MOL0     H13040   4.687   4.930   0.752 -4.7926 -0.3459  1.6355
   99MOL0     H13041   4.751   4.799   0.856  0.1407  1.1860 -0.2386
   99MOL0     H13042   4.609   5.036   0.973  1.7544  0.3840  0.3688
   99MOL0     H13043   4.639   4.879   1.046 -0.9307  0.3151  0.5395
   99MOL0     H13044   4.478   4.904   0.794  1.2582  1.4749  0.5937
   99MOL0     H13045   4.399   4.939   0.955  4.0605  1.1484  6.5594
   99MOL0     H13046   4.538   4.675   0.879  0.9954  0.7561  1.3198
   99MOL0     H13047   4.481   4.715   1.037 -1.8408 -0.0519  0.2054
   99MOL0     H13048   4.251   4.710   0.976  0.6312  1.1534 -2.4209
   99MOL0     H13049   4.328   4.571   0.924 -1.0197 -1.1842  1.0795
   99MOL0     H13050   5.210   5.320   0.954 -1.7702 -0.7049  1.1055
   99MOL0     H13051   5.466   5.320   1.034  0.3093 -0.1412  0.9274
   99MOL0     H13052   5.900   5.394   0.853  0.6405 -0.9941 -1.3385
   99MOL0     H13053   6.130   5.399   0.879  0.0590  1.0856  1.2269
   99MOL0     H13054   8.084   5.412   1.197  2.3140 -2.1380  1.5812
   99MOL0     H13055   8.317   5.355   1.253 -0.4474 -0.5886  2.8219
   99MOL0     H13056   8.725   5.617   1.360  0.3712  1.4121  0.1559
   99MOL0     H13057   8.963   5.624   1.463  0.7557 -1.7582 -1.3929
   99MOL0     H13058   9.048   5.683   1.684 -2.1121 -0.2425 -0.6130
   99MOL0     H13059   9.132   5.594   1.558 -4.1306  1.6528 -1.3848
   99MOL0     H13060   9.266   5.672   1.745 -1.2357 -0.1969 -1.7569
   99MOL0     H13061   9.197   5.554   1.859 -1.0971 -0.3433  0.0591
   99MOL0     H13062   9.352   5.475   1.615 -1.9341  0.5972 -0.7486
   99MOL0     H13063   9.284   5.371   1.729  0.5219 -1.1565 -2.8017
   99MOL0     H13064   9.518   5.576   1.792  1.7150 -1.4723 -1.5458
   99MOL0     H13065   9.446   5.457   1.916 -0.9669 -1.8867  0.1725
   99MOL0     H13066   9.721   5.228   1.721  0.0365  1.5495 -1.6565
   99MOL0     H13067   8.829   5.303   1.727 -0.1063 -2.2945 -2.2111
   99MOL0     H13068   8.627   5.291   1.622 -2.0338  0.0018  0.4395
  100MOL0     O13069   4.052   0.111   5.352  0.0999  0.2206 -0.6378
  100MOL0     C13070   4.071   0.071   5.463  0.1954  0.7387 -0.6715
  100MOL0     O13071   3.985  -0.006   5.535 -0.8583  0.6225  0.3918
  100MOL0     C13072   3.847  -0.004   5.519 -0.7996  0.7799 -0.5295
  100MOL0     C13073   3.781   0.108   5.476  0.7926 -0.2621  1.0070
  100MOL0     C13074   3.643   0.099   5.487 -0.6890 -0.3835 -0.7226
  100MOL0     C13075   3.574  -0.016   5.521  0.2959 -0.2660 -0.4170
  100MOL0     O13076   3.441   0.001   5.529  0.1333 -0.0187 -0.4746
  100MOL0     C13077   3.374  -0.097   5.611  0.1138  0.2341 -0.3077
  100MOL0     C13078   3.222  -0.045   5.624  0.1584 -0.6509  0.6366
  100MOL0     C13079   3.123  -0.103   5.523  0.1729  0.3514  0.3948
  100MOL0     C13080   2.994  -0.025   5.518  0.2241  0.0779 -0.5061
  100MOL0     C13081   2.902  -0.097   5.418  0.4870  0.2975 -0.2796
  100MOL0     C13082   2.778  -0.005   5.400  0.6019  0.4317 -0.1808
  100MOL0     C13083   2.702  -0.055   5.277  1.3718 -0.3445  0.7539
  100MOL0     C13084   2.622  -0.180   5.313  0.6770 -0.4395  0.8895
  100MOL0     N13085   2.568  -0.233   5.189 -0.5542  0.0952  0.1325
  100MOL0     C13086   2.469  -0.174   5.122 -0.1209  1.1273 -0.1704
  100MOL0     C13087   2.438  -0.266   5.031  1.0485 -0.0536  0.5257
  100MOL0     C13088   2.339  -0.231   4.920 -0.1722 -0.4691  0.1013
  100MOL0     C13089   2.188  -0.273   4.950 -0.4806 -0.4671  0.3677
  100MOL0     C13090   2.152  -0.421   4.952 -0.0008 -0.4410  0.6996
  100MOL0     C13091   2.138  -0.477   4.816 -0.6152  0.4453 -0.7441
  100MOL0     O13092   2.116  -0.614   4.835  1.0950 -0.4106  0.4387
  100MOL0     C13093   1.984  -0.665   4.850 -0.6333  0.1832 -0.4021
  100MOL0     C13094   1.870  -0.595   4.812  0.8557 -0.5717 -0.0343
  100MOL0     C13095   1.740  -0.641   4.837 -0.0696  1.2019 -0.5302
  100MOL0     C13096   1.722  -0.767   4.905  0.0325 -0.1750  0.1145
  100MOL0     C13097   1.592  -0.820   4.932  0.1905  0.5754  0.3277
  100MOL0     O13098   1.590  -0.955   4.950  0.8859  0.5124 -0.1119
  100MOL0     C13099   1.474  -1.019   4.996 -0.7203  0.5259 -0.4101
  100MOL0     C13100   1.492  -1.137   5.082  0.5311 -0.5208  0.4563
  100MOL0     C13101   1.380  -1.207   5.117 -0.4870 -0.2312  0.2525
  100MOL0     C13102   1.247  -1.174   5.075 -0.3776 -0.2204  0.5253
  100MOL0     O13103   1.127  -1.239   5.115  0.3614 -0.6719  0.1902
  100MOL0     C13104   1.001  -1.213   5.049 -0.1111 -0.6266 -0.4580
  100MOL0     C13105   0.914  -1.329   5.091 -0.0018  0.0610  0.1804
  100MOL0     C13106   0.868  -1.322   5.226 -0.0611 -0.1309 -0.3836
  100MOL0     C13107   0.736  -1.403   5.242  0.2278 -0.0835  1.0632
  100MOL0     C13108   0.702  -1.433   5.384 -0.5216  0.5362 -0.3667
  100MOL0     C13109   0.578  -1.513   5.399 -0.4557  0.4312  0.6618
  100MOL0     C13110   0.448  -1.451   5.356  0.0882 -0.1235  1.2972
  100MOL0     C13111   0.332  -1.491   5.439 -0.6403 -0.8503 -0.1863
  100MOL0    Cl13112   0.284  -1.667   5.442 -0.2065 -0.2178  0.3223
  100MOL0     C13113   1.229  -1.058   4.990  0.0251 -0.9922 -0.0309
  100MOL0     C13114   1.340  -0.979   4.955 -0.6000  0.0197  0.0373
  100MOL0     O13115   1.502  -0.741   4.949 -0.3987  0.5079  0.3042
  100MOL0     C13116   1.841  -0.841   4.930  0.2353 -0.8732 -0.3247
  100MOL0     C13117   1.965  -0.792   4.904  0.3883 -0.3123 -0.4076
  100MOL0     N13118   2.526  -0.372   5.043  0.5057 -0.1847 -0.1721
  100MOL0     N13119   2.599  -0.355   5.139  0.7156 -1.2427 -0.4609
  100MOL0     C13120   3.643  -0.130   5.550 -0.7890 -0.0406 -0.3755
  100MOL0     C13121   3.785  -0.129   5.543 -0.7509 -0.0346  0.1544
  100MOL0     C13122   4.210   0.077   5.523 -0.3460 -0.0173 -0.2568
  100MOL0     C13123   4.240   0.050   5.651 -0.4435  0.6259  0.3772
  100MOL0     C13124   4.367   0.058   5.695 -0.1321 -0.0623  0.4167
  100MOL0     C13125   4.471   0.088   5.606  0.7133  0.2050 -0.4616
  100MOL0     O13126   4.604   0.107   5.643  0.2866 -0.1431 -0.8145
  100MOL0     C13127   4.639   0.127   5.782 -0.0976  0.1724 -0.1050
  100MOL0     C13128   4.675  -0.013   5.849  0.2063  0.4489  0.3041
  100MOL0     C13129   4.812  -0.063   5.816  0.3747 -0.4300  0.6230
  100MOL0     C13130   4.914   0.021   5.897 -0.3153 -0.7805 -0.3699
  100MOL0     C13131   5.044  -0.049   5.872  0.2653  0.6167  0.8019
  100MOL0     C13132   5.144  -0.113   5.845  0.7069  0.0443 -0.2971
  100MOL0     C13133   4.444   0.126   5.474  0.3159  0.3602  0.5543
  100MOL0     C13134   4.311   0.116   5.439 -0.5676 -0.3456 -0.5364
  100MOL0     H13135   3.834   0.199   5.450  0.7676 -0.7999 -1.0752
  100MOL0     H13136   3.600   0.193   5.453  0.1174 -0.1006 -0.9660
  100MOL0     H13137   3.414  -0.092   5.712 -3.2615  1.8440  1.1288
  100MOL0     H13138   3.380  -0.199   5.573 -0.3940  0.0639  0.0534
  100MOL0     H13139   3.226   0.064   5.626  1.2836 -0.6625 -0.0129
  100MOL0     H13140   3.194  -0.067   5.727  1.1979  2.8035  1.8020
  100MOL0     H13141   3.098  -0.207   5.550 -0.0687  0.4753  0.6546
  100MOL0     H13142   3.176  -0.101   5.428  1.2954  0.2023  1.0067
  100MOL0     H13143   2.958  -0.016   5.620  0.5642  1.2091 -0.4692
  100MOL0     H13144   3.014   0.080   5.492  1.9938 -0.2612 -0.6839
  100MOL0     H13145   2.888  -0.201   5.448 -1.7378  0.9393  1.1924
  100MOL0     H13146   2.946  -0.086   5.319 -1.0694  2.3253 -0.8176
  100MOL0     H13147   2.811   0.098   5.382  1.5679  0.8180  3.1149
  100MOL0     H13148   2.718  -0.007   5.492  0.8111  0.8461 -0.0321
  100MOL0     H13149   2.640   0.026   5.239  0.5964 -0.2929  2.0551
  100MOL0     H13150   2.762  -0.083   5.191  0.9764  3.4131 -0.9126
  100MOL0     H13151   2.536  -0.163   5.379 -0.4912 -0.2384 -0.6336
  100MOL0     H13152   2.680  -0.257   5.365  0.9084  1.5615  3.8453
  100MOL0     H13153   2.430  -0.074   5.140  0.6112  1.2808  0.6904
  100MOL0     H13154   2.389  -0.257   4.826  2.5680  5.9871 -0.7827
  100MOL0     H13155   2.333  -0.121   4.921 -0.3655 -0.4090  3.8332
  100MOL0     H13156   2.137  -0.225   4.866  0.5931 -2.2079 -1.3589
  100MOL0     H13157   2.165  -0.225   5.046 -0.0188  0.7960 -0.1312
  100MOL0     H13158   2.227  -0.479   5.008 -0.7968  1.1768  3.6548
  100MOL0     H13159   2.055  -0.436   5.001 -0.7502  0.1897 -0.5667
  100MOL0     H13160   2.234  -0.474   4.764 -0.9116 -1.9206 -1.5536
  100MOL0     H13161   2.056  -0.423   4.768 -2.7463 -0.3196  1.7988
  100MOL0     H13162   1.882  -0.511   4.744  0.5786  0.1365  0.7833
  100MOL0     H13163   1.651  -0.587   4.807 -1.1854  0.7916  1.8236
  100MOL0     H13164   1.588  -1.176   5.117  0.9298  0.1803  0.1478
  100MOL0     H13165   1.385  -1.295   5.181  1.5690 -1.2517 -1.2046
  100MOL0     H13166   1.003  -1.211   4.939  0.6282 -0.7976 -0.4544
  100MOL0     H13167   0.957  -1.120   5.085 -0.2057 -0.5338 -0.8042
  100MOL0     H13168   0.964  -1.425   5.076 -2.0473 -1.0071 -0.0788
  100MOL0     H13169   0.825  -1.332   5.028  0.1838 -1.9685 -0.0537
  100MOL0     H13170   0.854  -1.217   5.254  3.9770  0.0592  1.6233
  100MOL0     H13171   0.948  -1.346   5.297  0.1429  3.3040  0.7286
  100MOL0     H13172   0.657  -1.345   5.195  0.9178  0.5114  0.6273
  100MOL0     H13173   0.736  -1.491   5.177 -2.3217  1.4590 -1.2266
  100MOL0     H13174   0.695  -1.342   5.445 -0.6495  1.2506 -1.4117
  100MOL0     H13175   0.784  -1.489   5.428 -1.6173  0.3905  1.5692
  100MOL0     H13176   0.574  -1.530   5.506  1.3671  2.3185  1.1201
  100MOL0     H13177   0.578  -1.608   5.345 -3.7017  2.1083 -2.7418
  100MOL0     H13178   0.466  -1.344   5.368  2.6984 -0.2040 -0.9926
  100MOL0     H13179   0.434  -1.471   5.249 -2.5398 -2.1109  1.9016
  100MOL0     H13180   0.245  -1.432   5.408 -0.0868 -0.9680 -2.0802
  100MOL0     H13181   0.358  -1.469   5.543  0.3033 -0.1124 -0.5563
  100MOL0     H13182   1.135  -1.032   4.942  0.8114 -3.1370 -3.0833
  100MOL0     H13183   1.335  -0.896   4.886  0.1410  0.6162  0.6794
  100MOL0     H13184   1.825  -0.937   4.979 -2.9712  0.3696  1.4221
  100MOL0     H13185   2.047  -0.851   4.943  2.0905  0.9654 -1.8929
  100MOL0     H13186   3.591  -0.223   5.574 -0.7153 -0.4356 -1.6861
  100MOL0     H13187   3.846  -0.214   5.569  1.3201  1.2443 -0.3487
  100MOL0     H13188   4.165   0.019   5.722 -1.0975 -0.8634 -0.9154
  100MOL0     H13189   4.385   0.033   5.799 -1.7526  1.0997  1.0115
  100MOL0     H13190   4.554   0.171   5.834 -1.6909  0.4241 -2.7932
  100MOL0     H13191   4.714   0.206   5.773 -0.2448  0.2481 -0.7235
  100MOL0     H13192   4.670   0.013   5.955  0.2303  1.1533  0.1380
  100MOL0     H13193   4.597  -0.084   5.820  1.1952  0.1132 -1.7090
  100MOL0     H13194   4.841  -0.048   5.712 -1.3021  0.7544  0.2847
  100MOL0     H13195   4.813  -0.169   5.843  0.8923 -0.8969 -1.1432
  100MOL0     H13196   4.922   0.128   5.878 -0.4392 -0.5505  0.8197
  100MOL0     H13197   4.888   0.003   6.002  5.7296  0.3844  1.7085
  100MOL0     H13198   5.233  -0.156   5.804  1.0252 -0.8547  1.2687
  100MOL0     H13199   4.522   0.159   5.406  0.7737  1.9931  1.8234
  100MOL0     H13200   4.286   0.151   5.339  0.3461  0.4234 -0.5020
  101MOL0     O13201   3.918   0.235   9.425 -0.2239  0.0440 -0.5593
  101MOL0     C13202   3.991   0.246   9.518 -0.3626 -0.0043 -0.3808
  101MOL0     O13203   3.966   0.210   9.649 -0.2053 -0.2817 -0.0894
  101MOL0     C13204   3.847   0.152   9.691  0.1108  0.2769 -1.1835
  101MOL0     C13205   3.839   0.138   9.828  0.8598 -0.3483 -0.0055
  101MOL0     C13206   3.737   0.074   9.895 -0.7415  0.0706 -1.0888
  101MOL0     C13207   3.629   0.034   9.824 -0.1760  0.2089  0.2914
  101MOL0     O13208   3.530  -0.049   9.868 -0.2139 -0.3208  0.2910
  101MOL0     C13209   3.538  -0.116   9.998 -1.0899  0.1734 -0.2122
  101MOL0     C13210   3.422  -0.200  10.037  0.3187  0.0112 -0.5296
  101MOL0     C13211   3.403  -0.314   9.943 -0.4150  0.5278 -0.4739
  101MOL0     C13212   3.294  -0.282   9.830 -0.8067 -0.2426 -0.1902
  101MOL0     C13213   3.270  -0.395   9.725  0.6064 -0.4419  0.3161
  101MOL0     C13214   3.168  -0.346   9.615 -0.3983  0.1606 -0.1091
  101MOL0     C13215   3.024  -0.347   9.656  0.0107  0.2638 -0.7638
  101MOL0     C13216   2.939  -0.278   9.544 -0.7652  0.4865  0.3907
  101MOL0     N13217   2.797  -0.304   9.567 -0.0287  0.8908 -0.2364
  101MOL0     C13218   2.715  -0.251   9.672 -0.3770  0.1804 -0.4265
  101MOL0     C13219   2.586  -0.292   9.650  0.3791 -0.4768  0.1336
  101MOL0     C13220   2.463  -0.259   9.739 -0.6139 -0.0756  1.0703
  101MOL0     C13221   2.411  -0.123   9.676 -0.1011 -0.2335 -0.0901
  101MOL0     C13222   2.347  -0.038   9.781 -0.9279  0.8632 -0.4668
  101MOL0     C13223   2.227   0.031   9.736  0.6704  0.8026  0.1041
  101MOL0     O13224   2.165   0.110   9.832 -0.0716 -0.3906 -0.1796
  101MOL0     C13225   2.036   0.156   9.811  0.2477  0.0687  0.1266
  101MOL0     C13226   1.962   0.168   9.930 -0.0458 -0.0033 -0.1426
  101MOL0     C13227   1.839   0.232   9.925  0.6550  0.5295  0.0712
  101MOL0     C13228   1.785   0.260   9.801 -0.3308 -0.3268  0.4088
  101MOL0     C13229   1.662   0.345   9.808  0.6351  1.2855  0.1456
  101MOL0     O13230   1.592   0.348   9.926 -0.6434 -0.4738 -0.1902
  101MOL0     C13231   1.475   0.419   9.919 -0.5778  0.4153 -0.9152
  101MOL0     C13232   1.373   0.363   9.850  0.6934 -0.2900  0.0544
  101MOL0     C13233   1.249   0.428   9.859  0.5192 -0.0916 -0.0430
  101MOL0     C13234   1.224   0.547   9.932 -0.6042 -0.5207  0.2990
  101MOL0     O13235   1.106   0.614   9.959 -0.9894  0.1655  0.4426
  101MOL0     C13236   1.006   0.605   9.858  0.9437  0.2282  0.5977
  101MOL0     C13237   0.888   0.699   9.887  0.4806 -0.0284  0.5370
  101MOL0     C13238   0.779   0.676   9.770  0.4361 -0.6371  0.3669
  101MOL0     C13239   0.662   0.774   9.789 -0.1564 -0.1736 -0.5194
  101MOL0     C13240   0.597   0.788   9.654  0.0556  0.3266 -0.6722
  101MOL0     C13241   0.471   0.858   9.656  0.2781 -1.5671 -0.2867
  101MOL0     C13242   0.417   0.909   9.519  0.2476  0.3027  0.2680
  101MOL0     C13243   0.372   0.791   9.428  0.2822  0.2963  0.2621
  101MOL0    Cl13244   0.341   0.869   9.262 -0.2886  0.0763 -0.1324
  101MOL0     C13245   1.337   0.598  10.003  0.2169 -0.3320  1.7042
  101MOL0     C13246   1.457   0.532  10.002  0.2679  0.4677 -0.3815
  101MOL0     O13247   1.624   0.397   9.701 -0.0659  0.5884 -0.4647
  101MOL0     C13248   1.853   0.240   9.676 -0.0883 -0.4791 -0.9542
  101MOL0     C13249   1.988   0.205   9.687 -0.6016  0.3631 -0.5562
  101MOL0     N13250   2.590  -0.356   9.530 -0.1862 -0.2673 -0.5419
  101MOL0     N13251   2.713  -0.361   9.481  0.6058 -0.2110 -0.0271
  101MOL0     C13252   3.628   0.058   9.680  0.0317  0.4447 -0.1153
  101MOL0     C13253   3.742   0.109   9.616  0.1152  1.0794  0.6933
  101MOL0     C13254   4.118   0.312   9.496 -1.2739 -0.3378  0.0252
  101MOL0     C13255   4.166   0.328   9.367 -0.1236 -0.1215 -0.0161
  101MOL0     C13256   4.293   0.375   9.338  0.4258  0.2165 -0.0209
  101MOL0     C13257   4.374   0.414   9.440 -0.2856 -0.2061 -0.6782
  101MOL0     O13258   4.503   0.450   9.430  0.0997 -0.3450  0.3009
  101MOL0     C13259   4.582   0.445   9.308 -0.2941  0.8755 -0.1020
  101MOL0     C13260   4.718   0.522   9.318 -0.2338  0.7310 -0.5237
  101MOL0     C13261   4.791   0.511   9.191 -0.5454  0.4569 -0.1317
  101MOL0     C13262   4.917   0.596   9.180  0.4218 -0.3495  0.0282
  101MOL0     C13263   4.881   0.735   9.176  0.3421 -0.4989 -0.2263
  101MOL0     C13264   4.873   0.860   9.150  0.1439  1.0954  0.1172
  101MOL0     C13265   4.324   0.415   9.562 -0.2660 -0.2854  0.1362
  101MOL0     C13266   4.202   0.359   9.597 -0.7424  0.2686 -0.6000
  101MOL0     H13267   3.929   0.172   9.879  0.1311  4.3484 -1.4450
  101MOL0     H13268   3.744   0.061  10.002 -2.9082 -2.1156 -1.1370
  101MOL0     H13269   3.542  -0.039  10.076 -3.4740  0.7038 -0.5309
  101MOL0     H13270   3.623  -0.182  10.017 -1.5617 -0.4959 -0.4188
  101MOL0     H13271   3.326  -0.150  10.054 -0.4457 -1.3336 -0.8269
  101MOL0     H13272   3.446  -0.238  10.137 -3.2790 -1.2502 -0.0346
  101MOL0     H13273   3.365  -0.405   9.990 -0.3755 -0.5654 -2.4609
  101MOL0     H13274   3.501  -0.332   9.897 -0.6224  0.1817 -0.7753
  101MOL0     H13275   3.205  -0.255   9.888  0.2683  2.6440  0.3097
  101MOL0     H13276   3.332  -0.196   9.773 -0.3117 -0.3640 -0.0447
  101MOL0     H13277   3.232  -0.484   9.777  1.4864 -0.8250  0.3237
  101MOL0     H13278   3.365  -0.421   9.679 -0.4249 -2.4599 -0.8548
  101MOL0     H13279   3.180  -0.419   9.534 -0.8318 -0.2100  0.1542
  101MOL0     H13280   3.202  -0.249   9.577 -1.4667  0.7821  0.4579
  101MOL0     H13281   2.995  -0.450   9.677  0.2660  0.5602  1.3406
  101MOL0     H13282   3.022  -0.283   9.745  0.0013 -0.7120 -0.0424
  101MOL0     H13283   2.976  -0.316   9.448 -0.2615  1.2729  0.2591
  101MOL0     H13284   2.964  -0.171   9.543 -1.8675  0.7463 -0.1253
  101MOL0     H13285   2.761  -0.176   9.736  1.8324 -0.2567 -1.4027
  101MOL0     H13286   2.478  -0.245   9.847 -0.5379  2.9666  0.7455
  101MOL0     H13287   2.392  -0.339   9.716 -1.8413  1.6534 -1.6390
  101MOL0     H13288   2.336  -0.145   9.600 -0.7854 -2.9520  1.2410
  101MOL0     H13289   2.495  -0.072   9.627  0.7929  0.0748  1.6836
  101MOL0     H13290   2.306  -0.096   9.864 -0.3196  1.6347  0.3928
  101MOL0     H13291   2.426   0.033   9.807  3.8971 -4.1942  0.6170
  101MOL0     H13292   2.161  -0.052   9.710  2.0828 -0.6260  0.9273
  101MOL0     H13293   2.253   0.098   9.652  1.9837  0.9272  0.5894
  101MOL0     H13294   2.011   0.149  10.025 -0.5413 -1.4176 -0.1572
  101MOL0     H13295   1.783   0.242  10.017  1.1956 -1.3562  0.6455
  101MOL0     H13296   1.379   0.274   9.787  1.7123  0.2535 -0.6550
  101MOL0     H13297   1.171   0.373   9.807 -0.0034  2.8970 -2.7463
  101MOL0     H13298   0.969   0.502   9.858 -0.1439  0.6094  1.7789
  101MOL0     H13299   1.056   0.625   9.762  1.9604  0.4201  1.1557
  101MOL0     H13300   0.926   0.801   9.880  0.0211  0.0447 -2.3875
  101MOL0     H13301   0.845   0.676   9.985  1.4778  0.6697  1.1481
  101MOL0     H13302   0.745   0.572   9.767 -0.2856 -0.4019  0.2254
  101MOL0     H13303   0.825   0.699   9.673  1.1248 -0.8129  0.6508
  101MOL0     H13304   0.596   0.736   9.867 -0.0902  0.9229  0.0990
  101MOL0     H13305   0.704   0.868   9.827 -1.1931  0.2741 -0.4663
  101MOL0     H13306   0.576   0.692   9.606 -2.8091  1.0228 -0.9996
  101MOL0     H13307   0.667   0.837   9.586  3.4982 -2.4159  0.6239
  101MOL0     H13308   0.487   0.939   9.727 -0.9867 -0.0648 -1.6613
  101MOL0     H13309   0.392   0.792   9.694  0.5637 -0.8392  1.6801
  101MOL0     H13310   0.333   0.976   9.537  0.5020  1.1903 -1.5542
  101MOL0     H13311   0.498   0.967   9.473  1.3391 -1.5560 -0.2710
  101MOL0     H13312   0.283   0.741   9.468  0.1087 -0.8660 -1.4413
  101MOL0     H13313   0.452   0.718   9.418  0.7339  0.7372  0.6399
  101MOL0     H13314   1.323   0.686  10.064  4.0555 -0.5511  3.2334
  101MOL0     H13315   1.535   0.580  10.060 -0.4569  1.7460 -0.4270
  101MOL0     H13316   1.806   0.270   9.583  0.6715 -1.4323 -1.6597
  101MOL0     H13317   2.048   0.217   9.597  0.2208 -0.4850 -0.1422
  101MOL0     H13318   3.541   0.025   9.623 -0.7036 -0.2004  1.3146
  101MOL0     H13319   3.739   0.114   9.508 -1.3977  0.5056  0.6811
  101MOL0     H13320   4.110   0.307   9.277  1.0370 -1.5989 -0.4310
  101MOL0     H13321   4.325   0.381   9.235 -3.6610  1.8994 -1.3749
  101MOL0     H13322   4.525   0.506   9.237 -0.1260  0.0286 -0.9984
  101MOL0     H13323   4.607   0.345   9.270  2.1076  2.0012 -1.7327
  101MOL0     H13324   4.684   0.625   9.332 -0.5219  0.3923  1.5034
  101MOL0     H13325   4.778   0.479   9.398  0.2685 -0.6529 -1.5905
  101MOL0     H13326   4.734   0.545   9.104 -0.0929  0.9535 -0.2408
  101MOL0     H13327   4.822   0.408   9.172  4.2790  2.3419 -5.8365
  101MOL0     H13328   4.970   0.571   9.273  0.0528 -0.0795  0.3168
  101MOL0     H13329   4.976   0.569   9.093  1.7666  1.8470  0.1831
  101MOL0     H13330   4.856   0.961   9.119  0.0500  0.3245 -2.5953
  101MOL0     H13331   4.390   0.447   9.642 -0.6376  1.0632 -0.0732
  101MOL0     H13332   4.178   0.335   9.700  0.9070  0.8870 -0.0386
  102MOL0     O13333   4.195   4.245   1.053  0.9045  0.4921  0.6520
  102MOL0     C13334   4.170   4.248   0.933  0.3842  0.4708 -0.0065
  102MOL0     O13335   4.049   4.214   0.866 -0.5114 -0.2600  0.1137
  102MOL0     C13336   3.938   4.170   0.929 -0.3879 -0.8681  0.4983
  102MOL0     C13337   3.813   4.239   0.913  0.2984  1.1580  0.0919
  102MOL0     C13338   3.696   4.189   0.985  0.7297 -0.5975 -0.0288
  102MOL0     C13339   3.709   4.076   1.069  0.4776 -1.0658 -0.4099
  102MOL0     O13340   3.611   4.010   1.145  0.0971  0.0539  0.3807
  102MOL0     C13341   3.480   4.057   1.123 -0.4339  0.6064  0.2425
  102MOL0     C13342   3.403   3.984   1.225  0.1178  0.2116 -0.4323
  102MOL0     C13343   3.249   3.989   1.221  0.0711  0.1893  0.0174
  102MOL0     C13344   3.195   3.874   1.294 -0.2667  0.4090  0.2902
  102MOL0     C13345   3.041   3.878   1.292  0.6027  0.0942 -0.2649
  102MOL0     C13346   3.001   3.731   1.334 -0.2315  0.0777  0.4421
  102MOL0     C13347   2.857   3.699   1.291  0.2081  0.0069 -1.1715
  102MOL0     C13348   2.756   3.780   1.372  0.0172  0.4894  0.3515
  102MOL0     N13349   2.616   3.769   1.331 -0.0038  0.6367  0.4160
  102MOL0     C13350   2.574   3.816   1.206 -0.3485  0.9815 -0.1100
  102MOL0     C13351   2.456   3.744   1.190 -0.8360 -0.7086 -0.1295
  102MOL0     C13352   2.364   3.769   1.077 -0.5315  0.1048 -0.3258
  102MOL0     C13353   2.218   3.779   1.105  0.3660 -0.1039  0.6495
  102MOL0     C13354   2.159   3.637   1.087  0.0932 -0.2551 -0.2330
  102MOL0     C13355   2.012   3.625   1.140 -0.5678 -0.0029  0.1540
  102MOL0     O13356   1.949   3.734   1.066  0.4253  0.2767 -0.2131
  102MOL0     C13357   1.825   3.695   1.028 -0.1585 -0.7332  0.3876
  102MOL0     C13358   1.716   3.728   1.108  0.4457 -0.1272  0.1046
  102MOL0     C13359   1.584   3.697   1.068 -0.7888 -0.1451  0.1490
  102MOL0     C13360   1.563   3.638   0.939  0.3048 -0.0953 -0.1170
  102MOL0     C13361   1.420   3.612   0.896 -0.6861  0.2073 -0.1446
  102MOL0     O13362   1.394   3.568   0.769  0.7350  0.4292 -0.0984
  102MOL0     C13363   1.269   3.525   0.724  0.0412  0.0557 -0.8636
  102MOL0     C13364   1.232   3.545   0.596  0.0021  0.0859  0.0054
  102MOL0     C13365   1.113   3.495   0.543  0.1215  0.3977 -0.3494
  102MOL0     C13366   1.027   3.417   0.622 -0.0724  1.1325 -0.2499
  102MOL0     O13367   0.902   3.369   0.569  0.4480  0.1850 -0.0730
  102MOL0     C13368   0.824   3.289   0.659 -0.7386 -0.0955  0.4849
  102MOL0     C13369   0.696   3.266   0.585 -0.1130 -0.0641  0.5231
  102MOL0     C13370   0.595   3.188   0.674  0.1432 -0.3114 -0.8305
  102MOL0     C13371   0.458   3.199   0.614 -0.2635 -0.5524 -0.1012
  102MOL0     C13372   0.439   3.129   0.489 -0.6766  0.8101 -0.5846
  102MOL0     C13373   0.295   3.142   0.445 -0.4973  0.3034 -0.4698
  102MOL0     C13374   0.218   3.014   0.479 -1.0218  0.1630 -0.1450
  102MOL0     C13375   0.081   3.028   0.424  0.1228 -0.5999  0.6491
  102MOL0    Cl13376   0.075   2.998   0.257 -0.1919  0.1583  0.4351
  102MOL0     C13377   1.067   3.392   0.757 -0.4547  0.1809 -0.0814
  102MOL0     C13378   1.185   3.449   0.805  0.9526  0.2878  1.1682
  102MOL0     O13379   1.336   3.651   0.976  0.2338 -0.8256  0.5204
  102MOL0     C13380   1.674   3.614   0.859 -1.1174  0.4737 -0.2023
  102MOL0     C13381   1.803   3.652   0.898  0.3713 -0.4874  0.5404
  102MOL0     N13382   2.428   3.676   1.303  0.4265 -0.6455 -0.3426
  102MOL0     N13383   2.524   3.688   1.385 -1.0486 -0.2918  0.2189
  102MOL0     C13384   3.832   4.025   1.091  0.8238  1.1506  0.3101
  102MOL0     C13385   3.947   4.067   1.023  0.5013 -0.1146 -0.5122
  102MOL0     C13386   4.282   4.297   0.858 -0.5552 -0.0938  0.8993
  102MOL0     C13387   4.416   4.300   0.903 -1.1600 -0.1564 -0.1438
  102MOL0     C13388   4.517   4.336   0.822 -0.0644 -0.2983 -0.3228
  102MOL0     C13389   4.509   4.366   0.683 -0.1578 -0.4089 -0.7824
  102MOL0     O13390   4.615   4.391   0.602  0.0822  0.0091  0.2916
  102MOL0     C13391   4.746   4.370   0.642 -0.2233 -0.6697 -0.1709
  102MOL0     C13392   4.805   4.506   0.700  0.4270  0.1522 -0.5133
  102MOL0     C13393   4.954   4.502   0.736  0.5574  1.0655 -0.2227
  102MOL0     C13394   5.039   4.457   0.615 -0.6954  0.3730  1.0169
  102MOL0     C13395   5.182   4.467   0.656 -0.0560  0.6439 -0.8235
  102MOL0     C13396   5.293   4.495   0.691 -0.5519  1.0123  0.7705
  102MOL0     C13397   4.382   4.370   0.630 -0.3730  0.8449 -0.0549
  102MOL0     C13398   4.271   4.345   0.716 -0.9055 -0.1745 -0.5481
  102MOL0     H13399   3.803   4.327   0.851 -0.8832  0.5805 -0.5602
  102MOL0     H13400   3.602   4.243   0.990  1.3421  0.6596 -1.1579
  102MOL0     H13401   3.446   4.038   1.021 -2.1470  1.2565  0.6435
  102MOL0     H13402   3.466   4.161   1.153 -3.5000  0.7360 -1.2667
  102MOL0     H13403   3.440   4.014   1.323  1.6331 -1.7194 -0.3505
  102MOL0     H13404   3.427   3.878   1.216  1.3732  0.4367 -0.0582
  102MOL0     H13405   3.219   3.972   1.117 -0.3343 -0.8153  0.2841
  102MOL0     H13406   3.220   4.087   1.260  1.6609  0.0764  1.5977
  102MOL0     H13407   3.216   3.781   1.239  0.0777  0.1187  0.8980
  102MOL0     H13408   3.239   3.872   1.394 -0.9478  0.4503  0.5911
  102MOL0     H13409   3.008   3.913   1.194  1.1574  4.1026  0.8026
  102MOL0     H13410   2.997   3.940   1.370  1.8819 -0.7086  1.1430
  102MOL0     H13411   3.027   3.722   1.439  1.8960  0.7196  0.0178
  102MOL0     H13412   3.070   3.667   1.279  1.0744  2.0366 -0.3002
  102MOL0     H13413   2.842   3.733   1.188 -0.7823  1.8428 -0.4628
  102MOL0     H13414   2.837   3.593   1.308  3.2341 -0.1941  2.2580
  102MOL0     H13415   2.782   3.886   1.371  0.0333  0.4843  0.0703
  102MOL0     H13416   2.769   3.760   1.479 -1.7609  2.6293  1.0579
  102MOL0     H13417   2.628   3.879   1.136 -0.0411  1.5832  0.6618
  102MOL0     H13418   2.382   3.696   0.997  0.7674  0.4306 -0.3494
  102MOL0     H13419   2.403   3.859   1.028  0.2679  1.9248  3.3179
  102MOL0     H13420   2.168   3.845   1.034 -1.0620 -1.6738  0.1077
  102MOL0     H13421   2.198   3.819   1.205  3.0318  2.4318  0.2934
  102MOL0     H13422   2.160   3.610   0.981 -0.3825  1.2980 -0.6696
  102MOL0     H13423   2.224   3.561   1.130  1.7292 -0.2077 -2.4673
  102MOL0     H13424   2.011   3.653   1.245 -1.6466  2.3075 -0.3950
  102MOL0     H13425   1.976   3.524   1.119  2.5298 -1.3460  0.7456
  102MOL0     H13426   1.735   3.791   1.195 -0.4608 -0.6471  0.6927
  102MOL0     H13427   1.502   3.734   1.129 -1.3752 -2.9154  1.2112
  102MOL0     H13428   1.312   3.591   0.538 -0.6094  0.1784 -0.7831
  102MOL0     H13429   1.080   3.527   0.445  4.3365  1.9797 -1.4640
  102MOL0     H13430   0.802   3.341   0.752 -3.5676 -0.3032  0.0049
  102MOL0     H13431   0.873   3.192   0.672 -0.3231 -0.3430 -2.2840
  102MOL0     H13432   0.712   3.219   0.488 -2.1058  0.6992 -0.2342
  102MOL0     H13433   0.653   3.363   0.559 -0.7823 -0.6425 -0.5973
  102MOL0     H13434   0.599   3.249   0.765 -0.9191  1.2868 -1.8224
  102MOL0     H13435   0.632   3.087   0.697  2.7886  0.7003 -0.2152
  102MOL0     H13436   0.388   3.147   0.680 -4.1981  1.8769 -1.9949
  102MOL0     H13437   0.424   3.303   0.610 -0.2045 -0.4105  1.7909
  102MOL0     H13438   0.478   3.027   0.493  0.2486  0.9062 -4.0194
  102MOL0     H13439   0.512   3.170   0.418  2.0232 -2.7493 -0.1598
  102MOL0     H13440   0.310   3.171   0.341  3.2588  0.5988  0.0070
  102MOL0     H13441   0.248   3.222   0.503 -3.5148 -1.1003 -0.8233
  102MOL0     H13442   0.259   2.930   0.423  1.4815  1.1504  0.1172
  102MOL0     H13443   0.221   2.989   0.586 -1.7021 -0.4313 -0.2574
  102MOL0     H13444   0.035   3.124   0.450 -0.4691  0.0309 -2.3497
  102MOL0     H13445   0.022   2.957   0.483  0.7653 -1.0014  0.8075
  102MOL0     H13446   1.003   3.339   0.827 -0.9761 -2.3275 -2.2489
  102MOL0     H13447   1.203   3.431   0.910 -0.3828 -1.6733  1.0992
  102MOL0     H13448   1.665   3.569   0.761  1.1056 -1.0292  0.2124
  102MOL0     H13449   1.882   3.622   0.831  0.9940 -0.6296  1.3162
  102MOL0     H13450   3.848   3.938   1.153  0.9480 -1.3312 -2.9777
  102MOL0     H13451   4.045   4.025   1.045  1.1853  0.8345 -1.5968
  102MOL0     H13452   4.435   4.249   0.997  1.4176 -0.5630 -0.7927
  102MOL0     H13453   4.616   4.340   0.867 -0.2112 -0.9149  0.0721
  102MOL0     H13454   4.795   4.345   0.548  2.4667 -0.1762  0.9883
  102MOL0     H13455   4.770   4.283   0.704  0.7192 -3.1328 -3.7269
  102MOL0     H13456   4.788   4.585   0.625  0.3196 -1.5167 -2.3250
  102MOL0     H13457   4.753   4.530   0.793  2.0717  2.4281 -0.0899
  102MOL0     H13458   4.977   4.430   0.815 -0.7956 -1.6590 -2.1383
  102MOL0     H13459   4.988   4.602   0.764  1.8964  0.2763  1.1123
  102MOL0     H13460   5.020   4.355   0.580  4.5006 -0.6599  0.3334
  102MOL0     H13461   5.016   4.517   0.526 -2.4596 -0.7605  0.6507
  102MOL0     H13462   5.396   4.509   0.714 -0.5475 -0.5099  1.8567
  102MOL0     H13463   4.367   4.392   0.525 -0.8989  2.0858  0.2571
  102MOL0     H13464   4.174   4.346   0.669 -1.4174  0.1482  0.4793
  103MOL0     O13465  11.210   7.923  10.908  0.4312 -0.2401  0.0217
  103MOL0     C13466  11.238   7.916  11.026 -0.8803 -0.1958 -0.2646
  103MOL0     O13467  11.160   7.889  11.129  0.2273 -1.4142  0.2959
  103MOL0     C13468  11.026   7.881  11.106  0.2456  0.0820 -0.2631
  103MOL0     C13469  10.955   7.875  11.228  0.6169 -0.4286  0.5268
  103MOL0     C13470  10.818   7.875  11.240 -0.4156  1.1386  0.5283
  103MOL0     C13471  10.742   7.880  11.125 -0.2875 -0.8283  1.1989
  103MOL0     O13472  10.601   7.886  11.102 -0.1541 -0.0610 -0.2474
  103MOL0     C13473  10.514   7.898  11.217  0.2071  0.2301  0.2229
  103MOL0     C13474  10.371   7.930  11.154 -0.4142  0.1547  0.0893
  103MOL0     C13475  10.260   7.939  11.262  0.1626 -0.3117  0.4283
  103MOL0     C13476  10.283   8.050  11.374 -0.0578 -0.0281 -0.7617
  103MOL0     C13477  10.195   8.172  11.342 -0.2164 -0.1444  0.7916
  103MOL0     C13478  10.229   8.296  11.421  0.1957  0.4826 -0.5280
  103MOL0     C13479  10.139   8.414  11.394  1.3514  0.8098 -0.3858
  103MOL0     C13480  10.015   8.414  11.491  0.5499 -0.1787  0.4887
  103MOL0     N13481   9.925   8.530  11.470  0.4291 -0.0120 -0.6973
  103MOL0     C13482   9.949   8.656  11.522 -0.3469  0.4235 -0.6241
  103MOL0     C13483   9.848   8.740  11.494 -0.5672 -0.3614  0.1966
  103MOL0     C13484   9.870   8.879  11.526  0.0294  0.0719  0.0414
  103MOL0     C13485   9.726   8.943  11.538  0.0731 -0.7464  0.2201
  103MOL0     C13486   9.665   8.903  11.674  0.0783  0.0814 -0.9969
  103MOL0     C13487   9.517   8.949  11.677  0.1769  0.4931 -0.9139
  103MOL0     O13488   9.448   8.904  11.795 -0.0900  0.5194 -0.6006
  103MOL0     C13489   9.307   8.893  11.792 -0.9327  0.6216 -0.2609
  103MOL0     C13490   9.239   9.000  11.723 -0.6909 -0.9640  0.2124
  103MOL0     C13491   9.105   9.008  11.726  0.1225 -0.2132  0.2868
  103MOL0     C13492   9.037   8.919  11.811 -0.3153 -0.4029  0.1283
  103MOL0     C13493   8.888   8.934  11.827 -0.2200 -0.0968 -0.0942
  103MOL0     O13494   8.823   8.854  11.913  0.7348 -0.1628 -0.8137
  103MOL0     C13495   8.687   8.821  11.894 -0.5363  0.2853 -0.4347
  103MOL0     C13496   8.609   8.802  11.776 -1.4055  0.0679  0.4045
  103MOL0     C13497   8.486   8.731  11.795 -0.0379 -0.5860 -0.3763
  103MOL0     C13498   8.428   8.699  11.923  0.5172 -0.8172 -0.7179
  103MOL0     O13499   8.302   8.634  11.930 -0.0596  0.3627  0.5100
  103MOL0     C13500   8.207   8.668  12.025 -0.2342  0.1383 -0.1401
  103MOL0     C13501   8.080   8.578  12.003 -0.2687 -0.1814  0.0133
  103MOL0     C13502   7.961   8.610  12.101  0.7137 -0.3253 -0.9135
  103MOL0     C13503   7.836   8.542  12.048 -0.1807 -0.3791 -0.1981
  103MOL0     C13504   7.720   8.559  12.142 -0.0068  0.8116 -0.1029
  103MOL0     C13505   7.590   8.478  12.099  1.0906  0.4900  0.5922
  103MOL0     C13506   7.474   8.486  12.193  0.3141  0.4308 -1.2146
  103MOL0     C13507   7.332   8.446  12.142 -0.5420  0.1056 -0.3077
  103MOL0    Cl13508   7.341   8.302  12.043  0.3919  0.2997 -0.0613
  103MOL0     C13509   8.499   8.727  12.032  1.0582 -0.2908  0.1556
  103MOL0     C13510   8.632   8.783  12.022 -0.3726 -0.0120 -0.4655
  103MOL0     O13511   8.832   9.000  11.742 -0.4570 -0.1159 -0.1758
  103MOL0     C13512   9.101   8.805  11.864 -0.1277 -0.2724  0.3638
  103MOL0     C13513   9.238   8.789  11.855 -1.1646 -0.4313  0.5588
  103MOL0     N13514   9.756   8.652  11.429  1.5356 -0.2114  0.3296
  103MOL0     N13515   9.801   8.538  11.406 -0.1102  0.2741 -0.5765
  103MOL0     C13516  10.809   7.869  10.997 -0.2432 -0.6920 -0.5368
  103MOL0     C13517  10.947   7.876  10.993  0.1445  0.3836 -0.3159
  103MOL0     C13518  11.376   7.961  11.067 -0.4335  0.5064  0.2371
  103MOL0     C13519  11.476   8.014  10.974  0.4634  0.0992  0.5899
  103MOL0     C13520  11.602   8.055  11.017 -0.4534  0.1022 -0.4650
  103MOL0     C13521  11.644   8.032  11.153 -0.1175  0.8238  0.7891
  103MOL0     O13522  11.765   8.074  11.184  0.2422  0.4822 -0.0502
  103MOL0     C13523  11.789   8.113  11.319 -0.3470 -0.2836 -0.0967
  103MOL0     C13524  11.943   8.122  11.336  0.5068 -0.7059 -0.1883
  103MOL0     C13525  12.018   8.006  11.271  0.6293 -0.6305 -0.3032
  103MOL0     C13526  12.167   8.019  11.312  0.1718 -0.6969  0.0903
  103MOL0     C13527  12.224   7.894  11.264  0.3203  0.5631 -0.1506
  103MOL0     C13528  12.309   7.817  11.231 -0.5403 -0.1532  0.3640
  103MOL0     C13529  11.552   7.969  11.238 -0.4664 -0.7618  0.2232
  103MOL0     C13530  11.424   7.948  11.197 -0.4833  0.6622 -0.9762
  103MOL0     H13531  11.013   7.878  11.321  0.3461  0.7855  0.6783
  103MOL0     H13532  10.772   7.861  11.337 -0.6454 -2.0696  0.0662
  103MOL0     H13533  10.548   7.982  11.278  1.9180 -0.1978 -0.0936
  103MOL0     H13534  10.514   7.811  11.283 -0.2201  0.6200  0.7477
  103MOL0     H13535  10.344   7.852  11.082 -0.4662  1.1210 -0.9770
  103MOL0     H13536  10.370   8.028  11.105 -0.5161  0.1377  0.0600
  103MOL0     H13537  10.259   7.837  11.303 -0.5442 -0.5900 -0.2657
  103MOL0     H13538  10.162   7.959  11.217 -1.2247 -0.1059  3.3018
  103MOL0     H13539  10.264   8.019  11.477  1.0102  1.1782 -0.1711
  103MOL0     H13540  10.384   8.092  11.383 -0.3760  0.3278  1.8815
  103MOL0     H13541  10.091   8.146  11.359  0.4724 -3.9541  0.0215
  103MOL0     H13542  10.213   8.192  11.236 -1.1506  1.4804  0.9048
  103MOL0     H13543  10.336   8.313  11.409  0.7759 -0.6323  2.3208
  103MOL0     H13544  10.208   8.259  11.521 -2.0686  0.2957 -1.0188
  103MOL0     H13545  10.196   8.503  11.421  0.6252  1.1412  0.0998
  103MOL0     H13546  10.109   8.417  11.289 -1.1168  1.7393  0.2799
  103MOL0     H13547  10.042   8.408  11.597  1.1954 -0.7164  0.2986
  103MOL0     H13548   9.958   8.326  11.460  0.7211 -0.1348  0.0441
  103MOL0     H13549  10.041   8.690  11.568 -1.5748  2.5387  0.4321
  103MOL0     H13550   9.927   8.928  11.447 -2.1087  2.6671 -0.0511
  103MOL0     H13551   9.932   8.884  11.616  1.1961 -0.3363 -0.7223
  103MOL0     H13552   9.669   8.927  11.446 -1.1826  0.9711  0.6391
  103MOL0     H13553   9.721   9.051  11.550 -0.1903 -0.7363  0.0173
  103MOL0     H13554   9.668   8.795  11.696  2.4509  0.5464  1.5108
  103MOL0     H13555   9.735   8.939  11.750  0.9677 -3.9622  0.3812
  103MOL0     H13556   9.464   8.904  11.593 -0.0316 -2.5740  0.6945
  103MOL0     H13557   9.515   9.057  11.660 -0.0713  0.5046 -0.8275
  103MOL0     H13558   9.287   9.081  11.669 -1.8399  0.2975  1.0028
  103MOL0     H13559   9.042   9.087  11.685 -1.9485 -1.2152  1.3574
  103MOL0     H13560   8.656   8.823  11.681  1.7657 -2.0329  1.3422
  103MOL0     H13561   8.424   8.702  11.710 -1.4127  2.1013 -0.4040
  103MOL0     H13562   8.179   8.773  12.027 -2.4247 -0.2979 -2.2826
  103MOL0     H13563   8.252   8.638  12.120  0.1170 -0.6985 -0.5589
  103MOL0     H13564   8.104   8.472  12.016 -4.4639 -1.7293 -2.6706
  103MOL0     H13565   8.048   8.575  11.898  1.3867 -3.1859 -0.5078
  103MOL0     H13566   7.950   8.715  12.127 -0.5544 -0.7072  0.2111
  103MOL0     H13567   7.972   8.578  12.205 -1.0482  0.2130 -0.5450
  103MOL0     H13568   7.811   8.578  11.948 -3.4893 -4.4092 -1.1175
  103MOL0     H13569   7.847   8.434  12.037  0.5391 -0.2696 -0.5759
  103MOL0     H13570   7.708   8.667  12.134  6.3952  1.9337  0.4872
  103MOL0     H13571   7.754   8.520  12.238  2.1972 -0.9383 -1.5111
  103MOL0     H13572   7.619   8.372  12.094  0.6185  0.3852 -0.0273
  103MOL0     H13573   7.561   8.516  12.000 -0.5243 -1.8345  0.0887
  103MOL0     H13574   7.506   8.432  12.282 -0.6979  0.7637 -0.6316
  103MOL0     H13575   7.474   8.592  12.219 -1.1438 -0.0946  1.2888
  103MOL0     H13576   7.293   8.518  12.069  1.0268  0.7280 -0.5612
  103MOL0     H13577   7.261   8.431  12.224 -1.4203  1.0597 -0.8696
  103MOL0     H13578   8.467   8.685  12.127 -0.5214  0.5226  0.0183
  103MOL0     H13579   8.694   8.791  12.111 -0.2021 -1.8785 -0.3954
  103MOL0     H13580   9.042   8.736  11.923 -0.9459 -3.0836 -3.3091
  103MOL0     H13581   9.278   8.695  11.890  4.2960 -0.3637 -3.9721
  103MOL0     H13582  10.751   7.874  10.905 -1.6357  0.0806  0.3606
  103MOL0     H13583  10.989   7.875  10.893 -2.0756 -1.7949 -1.3271
  103MOL0     H13584  11.458   8.023  10.867 -0.6586 -4.4437  0.1421
  103MOL0     H13585  11.669   8.098  10.943  0.4648 -1.4542 -0.5776
  103MOL0     H13586  11.738   8.051  11.393 -5.4255  1.3739 -1.8055
  103MOL0     H13587  11.740   8.209  11.335 -3.1475 -1.4697 -0.8644
  103MOL0     H13588  11.977   8.217  11.295  0.3376 -0.9635 -0.9573
  103MOL0     H13589  11.962   8.121  11.443  0.8054  0.7962 -0.2034
  103MOL0     H13590  11.993   8.014  11.164 -0.6366  0.0837  0.0294
  103MOL0     H13591  11.970   7.917  11.313  2.0035 -0.9876  0.5608
  103MOL0     H13592  12.223   8.106  11.277 -0.2013  0.9712  3.3111
  103MOL0     H13593  12.169   8.022  11.421  1.0286 -0.3187  0.0727
  103MOL0     H13594  12.390   7.748  11.216 -0.8959 -0.2344 -1.3502
  103MOL0     H13595  11.569   7.946  11.343 -3.0956  0.0602  0.8900
  103MOL0     H13596  11.360   7.904  11.272  1.2145  0.3673  0.3766
  104MOL0     O13597  10.624   4.458   3.893 -0.0536 -0.5217 -0.4744
  104MOL0     C13598  10.672   4.491   3.787 -0.1466  0.3729  1.0462
  104MOL0     O13599  10.599   4.528   3.678  0.0954  0.7332 -0.2876
  104MOL0     C13600  10.459   4.535   3.688  0.4964  0.3556 -0.3228
  104MOL0     C13601  10.403   4.633   3.770  0.8853  0.3844 -0.6760
  104MOL0     C13602  10.259   4.645   3.779 -0.7970 -0.0117  0.0642
  104MOL0     C13603  10.175   4.566   3.692 -1.0905 -0.9460 -0.3963
  104MOL0     O13604  10.044   4.602   3.705 -0.0406 -0.3796 -0.3311
  104MOL0     C13605   9.962   4.546   3.605 -0.6366  0.5627 -0.2697
  104MOL0     C13606   9.824   4.615   3.621  0.6731  0.5664  1.3061
  104MOL0     C13607   9.724   4.554   3.715  0.5120  0.5396 -0.1003
  104MOL0     C13608   9.600   4.639   3.737 -0.6027 -0.2203 -0.3681
  104MOL0     C13609   9.505   4.580   3.854  0.1088  0.3795  0.0836
  104MOL0     C13610   9.401   4.680   3.897 -0.2045 -0.5174  0.4855
  104MOL0     C13611   9.283   4.597   3.955  0.1554 -0.4930 -0.3741
  104MOL0     C13612   9.189   4.688   4.028 -0.3242 -0.0361 -1.0628
  104MOL0     N13613   9.073   4.615   4.083  0.0320  0.2313  0.3857
  104MOL0     C13614   9.074   4.545   4.203 -0.4438  0.5390  0.1508
  104MOL0     C13615   8.982   4.446   4.178 -0.0565  0.0534 -0.4072
  104MOL0     C13616   8.948   4.322   4.254  0.6218  0.3362 -0.3007
  104MOL0     C13617   8.806   4.309   4.286 -0.1556 -0.5980 -0.4227
  104MOL0     C13618   8.768   4.204   4.396  0.1824  0.1809  0.1360
  104MOL0     C13619   8.622   4.235   4.448 -0.4067 -0.2134  0.0478
  104MOL0     O13620   8.571   4.138   4.545 -0.1190 -0.6775 -0.6197
  104MOL0     C13621   8.447   4.160   4.610  0.3530  0.1312 -0.5580
  104MOL0     C13622   8.402   4.060   4.698 -0.0614  0.2122 -0.5805
  104MOL0     C13623   8.283   4.074   4.774  0.0159 -0.6034  0.3699
  104MOL0     C13624   8.208   4.189   4.759 -0.6350  0.1769  0.9428
  104MOL0     C13625   8.073   4.198   4.829 -0.6897  0.5127  0.0727
  104MOL0     O13626   8.013   4.324   4.835 -0.1999  0.5169  0.2218
  104MOL0     C13627   7.911   4.351   4.924 -0.0445  0.2180  0.5561
  104MOL0     C13628   7.928   4.446   5.030 -0.8037  0.6647 -0.1412
  104MOL0     C13629   7.819   4.489   5.111 -0.2710 -0.3897 -0.2318
  104MOL0     C13630   7.690   4.452   5.086  1.0103  0.6283 -1.2884
  104MOL0     O13631   7.585   4.497   5.167  0.3635  0.6931  0.9757
  104MOL0     C13632   7.479   4.411   5.197 -0.0256 -0.7101 -0.2320
  104MOL0     C13633   7.431   4.446   5.347 -0.4244  0.4197 -0.7380
  104MOL0     C13634   7.532   4.397   5.453 -0.6708  0.0437 -0.4404
  104MOL0     C13635   7.476   4.438   5.590  0.8184 -0.5039 -1.3081
  104MOL0     C13636   7.585   4.436   5.700  0.1122 -0.4826 -0.3788
  104MOL0     C13637   7.526   4.437   5.842 -0.7564  0.5020  0.2038
  104MOL0     C13638   7.655   4.407   5.927  0.1914  0.4608  0.0739
  104MOL0     C13639   7.626   4.403   6.081  0.0196  0.4419  0.0813
  104MOL0    Cl13640   7.477   4.327   6.140 -0.3678 -0.1085  0.0458
  104MOL0     C13641   7.671   4.357   4.984 -0.4807  0.8011 -0.5943
  104MOL0     C13642   7.785   4.306   4.911 -0.4318  0.3035  0.6183
  104MOL0     O13643   8.039   4.097   4.892 -0.2824 -0.3464  0.2886
  104MOL0     C13644   8.259   4.294   4.686 -0.2949 -0.0467 -0.4278
  104MOL0     C13645   8.374   4.278   4.607 -0.4509  0.4873 -0.4515
  104MOL0     N13646   8.918   4.471   4.060  0.2106 -0.4935 -0.5191
  104MOL0     N13647   8.980   4.569   4.001  0.6178 -0.0672 -0.2107
  104MOL0     C13648  10.235   4.484   3.603 -0.8771 -0.1739  0.0757
  104MOL0     C13649  10.376   4.452   3.611  0.2118  0.3948 -0.2510
  104MOL0     C13650  10.820   4.487   3.761 -0.3208  0.7894  0.3066
  104MOL0     C13651  10.883   4.500   3.632  1.0658  0.0219  0.5525
  104MOL0     C13652  11.017   4.501   3.622  0.6583  0.5491  0.3427
  104MOL0     C13653  11.102   4.489   3.736 -0.3304  0.1750  0.6878
  104MOL0     O13654  11.232   4.503   3.715  0.4804  0.2735 -0.5453
  104MOL0     C13655  11.311   4.390   3.672 -0.0544  0.6283  0.2241
  104MOL0     C13656  11.320   4.280   3.780  0.0906  1.3136 -0.2885
  104MOL0     C13657  11.441   4.196   3.758 -0.6349  0.5213  0.7193
  104MOL0     C13658  11.557   4.223   3.859 -0.4538 -0.5066  0.0389
  104MOL0     C13659  11.617   4.354   3.814  0.0605 -0.0639  0.2455
  104MOL0     C13660  11.691   4.445   3.782  0.0663  0.5213 -0.9351
  104MOL0     C13661  11.042   4.473   3.855  0.1137 -0.0192 -1.1321
  104MOL0     C13662  10.905   4.482   3.871  0.1496  0.4591  1.6043
  104MOL0     H13663  10.462   4.696   3.836 -2.1694  3.0487 -0.2213
  104MOL0     H13664  10.218   4.722   3.843 -1.2716  0.7249 -1.0873
  104MOL0     H13665   9.945   4.438   3.615  1.6303  0.2246  0.6159
  104MOL0     H13666   9.994   4.562   3.502  6.6163  1.4249  1.5498
  104MOL0     H13667   9.776   4.600   3.524  0.4983  0.3391  1.4261
  104MOL0     H13668   9.839   4.721   3.644 -1.0943  1.1421 -0.0296
  104MOL0     H13669   9.774   4.534   3.811  0.6736 -0.9291 -0.4571
  104MOL0     H13670   9.698   4.455   3.676  1.5754 -0.0108  0.5112
  104MOL0     H13671   9.630   4.738   3.773 -0.6614  0.0541 -1.0441
  104MOL0     H13672   9.545   4.653   3.643  1.0277  0.9591 -1.2053
  104MOL0     H13673   9.550   4.527   3.938  0.2216  0.8408  0.3152
  104MOL0     H13674   9.461   4.495   3.801 -1.3748  2.1174 -1.6528
  104MOL0     H13675   9.366   4.750   3.821 -0.9217  1.0358  2.1689
  104MOL0     H13676   9.453   4.748   3.966 -0.8724  0.2277  0.2666
  104MOL0     H13677   9.237   4.546   3.869 -0.6187  1.3797 -1.1187
  104MOL0     H13678   9.317   4.518   4.023 -4.4806 -0.3573  2.5151
  104MOL0     H13679   9.154   4.766   3.961  3.3632  2.0720 -0.8546
  104MOL0     H13680   9.246   4.738   4.108 -0.6194  0.4189 -1.1329
  104MOL0     H13681   9.142   4.557   4.287 -0.4920 -0.9554  0.4384
  104MOL0     H13682   8.996   4.330   4.352  0.3617  2.6219 -0.3121
  104MOL0     H13683   8.978   4.226   4.211  1.6796 -0.0079  1.1335
  104MOL0     H13684   8.754   4.287   4.192  1.7572 -0.8375 -1.4706
  104MOL0     H13685   8.773   4.408   4.317  1.4143  0.4393 -1.9344
  104MOL0     H13686   8.771   4.107   4.347 -2.5301  0.4771 -0.7771
  104MOL0     H13687   8.836   4.220   4.481 -1.9000  0.3111  1.8711
  104MOL0     H13688   8.550   4.245   4.367 -0.0704  2.6853 -0.0046
  104MOL0     H13689   8.641   4.331   4.496 -1.0244 -0.0898  0.0416
  104MOL0     H13690   8.453   3.965   4.714  2.1871  1.3778 -0.3599
  104MOL0     H13691   8.248   3.990   4.833  1.9251 -1.4829  0.3002
  104MOL0     H13692   8.021   4.500   5.037  0.4381 -1.6115  3.0834
  104MOL0     H13693   7.837   4.550   5.199 -1.5081 -0.6327  0.2140
  104MOL0     H13694   7.514   4.307   5.191  0.5485 -0.8960  3.7900
  104MOL0     H13695   7.400   4.416   5.122 -0.8571 -3.7944  0.2954
  104MOL0     H13696   7.329   4.408   5.363  0.7221 -1.5764  2.8232
  104MOL0     H13697   7.428   4.553   5.368 -1.1723  0.1830  0.4174
  104MOL0     H13698   7.631   4.438   5.431 -0.9801 -0.4205 -3.0904
  104MOL0     H13699   7.541   4.288   5.445  1.2596 -0.0582  2.0354
  104MOL0     H13700   7.453   4.545   5.591  2.1298 -0.1630  1.3568
  104MOL0     H13701   7.393   4.377   5.626  1.6347 -0.6228  0.4853
  104MOL0     H13702   7.654   4.518   5.677 -0.3558  0.5559  1.6528
  104MOL0     H13703   7.644   4.344   5.699 -0.4617 -1.1155  3.9543
  104MOL0     H13704   7.456   4.354   5.860  1.5586 -1.8106 -0.7933
  104MOL0     H13705   7.485   4.535   5.865 -0.0824  1.5895 -2.8735
  104MOL0     H13706   7.684   4.304   5.903 -1.4447 -0.1824  0.7369
  104MOL0     H13707   7.741   4.472   5.908  0.8722  0.1051  1.7410
  104MOL0     H13708   7.628   4.508   6.112 -2.0489  0.5787 -0.1439
  104MOL0     H13709   7.708   4.349   6.128 -2.4663 -3.3393  0.4732
  104MOL0     H13710   7.572   4.314   4.977 -0.4311  0.5687  0.0587
  104MOL0     H13711   7.767   4.238   4.829  1.6582 -0.9836  1.1649
  104MOL0     H13712   8.206   4.388   4.684 -2.4457 -1.1991 -1.7948
  104MOL0     H13713   8.424   4.367   4.569  0.0346  0.3281 -0.1912
  104MOL0     H13714  10.169   4.428   3.537  1.0654 -0.7030 -1.5377
  104MOL0     H13715  10.419   4.385   3.537 -1.9910 -0.3097 -0.9723
  104MOL0     H13716  10.817   4.529   3.551  0.1561  2.3170  2.0035
  104MOL0     H13717  11.077   4.506   3.532 -0.8059  0.7044 -0.6630
  104MOL0     H13718  11.410   4.420   3.637  0.4787  1.6436  2.4373
  104MOL0     H13719  11.274   4.352   3.577 -2.0962 -0.7612  1.4974
  104MOL0     H13720  11.317   4.328   3.878  0.7891  1.3999 -0.3051
  104MOL0     H13721  11.233   4.214   3.783  1.1206 -0.0587  1.4253
  104MOL0     H13722  11.486   4.207   3.659 -1.4852 -2.8664 -0.1849
  104MOL0     H13723  11.428   4.088   3.774 -0.0407  0.3548  0.1202
  104MOL0     H13724  11.521   4.225   3.962  0.9672 -0.4125  0.5626
  104MOL0     H13725  11.637   4.149   3.846  0.1550 -0.2257  1.9017
  104MOL0     H13726  11.759   4.525   3.760 -2.3216  2.7735 -0.6147
  104MOL0     H13727  11.109   4.451   3.937 -2.5573 -0.7931  0.9635
  104MOL0     H13728  10.863   4.472   3.970  1.5800  0.1996  2.2118
  105MOL0     O13729   2.033   2.517   4.660 -0.1173 -0.2303  0.1591
  105MOL0     C13730   2.015   2.517   4.780  0.4192  0.0567 -0.2741
  105MOL0     O13731   1.889   2.518   4.838 -0.5021  0.2813 -0.2273
  105MOL0     C13732   1.776   2.536   4.772  1.0225  0.5314 -0.3925
  105MOL0     C13733   1.750   2.651   4.700 -0.0320  0.9354  0.0850
  105MOL0     C13734   1.620   2.659   4.637 -0.3344 -0.6339 -0.7447
  105MOL0     C13735   1.529   2.557   4.654  0.0463 -0.4624  0.0690
  105MOL0     O13736   1.415   2.570   4.586  0.2231  0.3146 -0.1204
  105MOL0     C13737   1.305   2.610   4.676 -0.6267 -0.3046 -0.6957
  105MOL0     C13738   1.175   2.650   4.606  0.7567 -0.2476  0.3274
  105MOL0     C13739   1.067   2.675   4.719 -0.2774  0.0419 -0.1484
  105MOL0     C13740   0.940   2.737   4.666  0.2642  0.3369 -0.1978
  105MOL0     C13741   0.823   2.708   4.744 -0.4481 -0.2058  0.6293
  105MOL0     C13742   0.700   2.764   4.679 -0.2099  0.0980 -0.2511
  105MOL0     C13743   0.562   2.712   4.735  0.1207 -0.1967 -0.0803
  105MOL0     C13744   0.451   2.747   4.623  0.1084  0.0364  0.1399
  105MOL0     N13745   0.323   2.700   4.672  0.8564  0.7393 -1.0687
  105MOL0     C13746   0.237   2.604   4.623 -0.9711 -0.1964 -0.4384
  105MOL0     C13747   0.129   2.611   4.708  0.3297 -0.5719 -0.0763
  105MOL0     C13748   0.012   2.526   4.715 -0.6304  0.2518  0.6132
  105MOL0     C13749  -0.093   2.561   4.605  0.7660  0.0195  0.2426
  105MOL0     C13750  -0.174   2.685   4.656 -0.6735  0.4624  0.0946
  105MOL0     C13751  -0.277   2.656   4.772 -0.1565 -0.2586 -0.3139
  105MOL0     O13752  -0.368   2.560   4.718  0.9067 -0.0223 -0.4913
  105MOL0     C13753  -0.485   2.528   4.792 -0.6346  0.2182 -0.2732
  105MOL0     C13754  -0.476   2.533   4.933  0.9413 -0.3325  0.0593
  105MOL0     C13755  -0.579   2.478   5.012 -0.3339  0.0587  0.3169
  105MOL0     C13756  -0.686   2.412   4.947 -1.0925  0.1547  0.4167
  105MOL0     C13757  -0.802   2.370   5.028  0.1975 -0.0076  0.7349
  105MOL0     O13758  -0.903   2.318   4.954  0.3535 -0.0944 -0.2941
  105MOL0     C13759  -1.012   2.265   5.021  0.0082  0.3480  0.5407
  105MOL0     C13760  -1.053   2.136   4.985 -1.0918  0.3302  0.7184
  105MOL0     C13761  -1.165   2.086   5.049  0.0156 -0.4040 -0.3833
  105MOL0     C13762  -1.242   2.160   5.132 -0.3988  0.0551  0.1352
  105MOL0     O13763  -1.346   2.122   5.209  0.1991 -0.1160 -0.4103
  105MOL0     C13764  -1.395   1.989   5.191  0.6191  0.3625 -0.4720
  105MOL0     C13765  -1.321   1.892   5.289  0.1173  0.5376  0.2373
  105MOL0     C13766  -1.401   1.871   5.419  0.2043  0.2585 -0.0633
  105MOL0     C13767  -1.335   1.768   5.505 -0.2533  0.2088  0.1755
  105MOL0     C13768  -1.371   1.758   5.656  1.4941  0.7296  0.5190
  105MOL0     C13769  -1.502   1.699   5.695  0.3220  0.5664 -0.1512
  105MOL0     C13770  -1.539   1.556   5.648 -0.2860  0.9899 -0.4562
  105MOL0     C13771  -1.687   1.525   5.674  0.2619 -0.1974 -0.3790
  105MOL0    Cl13772  -1.711   1.353   5.652 -0.5269  0.2890  0.5728
  105MOL0     C13773  -1.200   2.293   5.163  0.1138 -0.3488  0.1226
  105MOL0     C13774  -1.082   2.339   5.109  0.0608 -0.7002  0.3430
  105MOL0     O13775  -0.795   2.379   5.157 -0.2822 -0.3175  1.3418
  105MOL0     C13776  -0.687   2.403   4.804  1.0780  0.4340  0.1021
  105MOL0     C13777  -0.589   2.457   4.727  0.9609  0.4117  0.0932
  105MOL0     N13778   0.145   2.710   4.799  0.1344  0.5886 -0.2515
  105MOL0     N13779   0.260   2.760   4.785  0.6909  0.5345 -0.7215
  105MOL0     C13780   1.554   2.451   4.732 -0.3918  0.4491 -1.2203
  105MOL0     C13781   1.681   2.440   4.793 -0.3179  0.8292  0.5629
  105MOL0     C13782   2.134   2.516   4.870  0.7018 -0.0294  0.0945
  105MOL0     C13783   2.118   2.529   5.011 -0.0046 -0.4181 -0.5615
  105MOL0     C13784   2.230   2.511   5.086 -0.7635  0.0404  0.5618
  105MOL0     C13785   2.362   2.496   5.034  0.2391 -0.2567 -0.1878
  105MOL0     O13786   2.480   2.500   5.107  0.2116 -0.1102 -0.0317
  105MOL0     C13787   2.484   2.570   5.234  0.1090  0.0923  0.4294
  105MOL0     C13788   2.578   2.691   5.221 -0.0896 -0.6555  0.0196
  105MOL0     C13789   2.728   2.662   5.180 -0.3359  0.1697  0.2561
  105MOL0     C13790   2.825   2.748   5.257  0.2364 -0.3214  0.1275
  105MOL0     C13791   2.954   2.730   5.197  0.2463 -0.5304  1.4923
  105MOL0     C13792   3.063   2.714   5.148 -0.1413  0.3768 -0.1776
  105MOL0     C13793   2.377   2.501   4.892 -0.1428  0.7370 -1.2216
  105MOL0     C13794   2.270   2.516   4.812 -0.9477 -0.4693 -0.1077
  105MOL0     H13795   1.826   2.726   4.681  0.5881  0.0027 -1.2297
  105MOL0     H13796   1.596   2.757   4.596 -0.0847 -0.4624 -0.4904
  105MOL0     H13797   1.342   2.690   4.740 -3.5899  0.2209  0.5461
  105MOL0     H13798   1.279   2.526   4.742  1.9964  0.8717  2.0547
  105MOL0     H13799   1.138   2.569   4.543  1.5032  0.6547 -1.3621
  105MOL0     H13800   1.182   2.737   4.539  0.3717 -2.1327 -2.2819
  105MOL0     H13801   1.124   2.729   4.796 -1.5258  0.1215  0.7525
  105MOL0     H13802   1.056   2.575   4.764  1.8670  0.1545  0.7817
  105MOL0     H13803   0.950   2.846   4.661 -1.4172  0.5227 -0.0527
  105MOL0     H13804   0.934   2.698   4.564 -0.1195  0.7050 -0.3211
  105MOL0     H13805   0.823   2.750   4.845  0.1059 -0.6355  0.8155
  105MOL0     H13806   0.823   2.600   4.762 -1.2611  0.1625  3.3493
  105MOL0     H13807   0.703   2.763   4.570 -0.9616  0.5779 -0.2820
  105MOL0     H13808   0.682   2.868   4.707  1.0865 -0.0607  1.3668
  105MOL0     H13809   0.564   2.603   4.745  1.7114 -0.3858 -1.8674
  105MOL0     H13810   0.540   2.764   4.829 -0.0183  3.2263 -1.8419
  105MOL0     H13811   0.472   2.698   4.528  0.5887  0.3042  0.1027
  105MOL0     H13812   0.447   2.852   4.592  1.0406  0.4521  1.3444
  105MOL0     H13813   0.241   2.544   4.533 -0.9656  0.8572 -1.1490
  105MOL0     H13814  -0.026   2.536   4.817 -1.9149  0.8319  0.0944
  105MOL0     H13815   0.048   2.423   4.711  0.4369  0.6291  0.2366
  105MOL0     H13816  -0.158   2.476   4.580  1.7213 -0.0837 -2.1307
  105MOL0     H13817  -0.037   2.592   4.517  0.2811 -0.4145 -0.2263
  105MOL0     H13818  -0.097   2.758   4.683 -0.6801  0.7083 -0.5442
  105MOL0     H13819  -0.236   2.722   4.573 -1.6147  0.2110  0.6671
  105MOL0     H13820  -0.323   2.750   4.803  0.4717 -0.0692  0.0676
  105MOL0     H13821  -0.221   2.609   4.853 -0.4787  0.8499  0.5782
  105MOL0     H13822  -0.391   2.581   4.981  1.8956 -0.3281 -1.5862
  105MOL0     H13823  -0.578   2.486   5.120 -0.4001 -1.3764  0.4429
  105MOL0     H13824  -1.002   2.064   4.922 -4.1230 -1.9704  0.6230
  105MOL0     H13825  -1.196   1.984   5.030 -2.2569  0.2273 -0.4123
  105MOL0     H13826  -1.387   1.962   5.086  2.9540  1.6788 -0.7046
  105MOL0     H13827  -1.500   1.976   5.219  1.5457 -1.1084  2.8170
  105MOL0     H13828  -1.215   1.912   5.306 -0.2329  1.2179  1.8794
  105MOL0     H13829  -1.323   1.800   5.232  0.9484  0.5233  0.2196
  105MOL0     H13830  -1.504   1.843   5.397  0.2179 -1.2998  1.6089
  105MOL0     H13831  -1.401   1.964   5.478  0.3235 -1.6520  3.2069
  105MOL0     H13832  -1.338   1.670   5.455  0.0368  0.3029 -0.0296
  105MOL0     H13833  -1.226   1.784   5.508  0.2813 -2.5860 -0.8009
  105MOL0     H13834  -1.365   1.860   5.696 -0.1935 -0.1109  3.1640
  105MOL0     H13835  -1.291   1.694   5.694  1.2455  0.1556  0.0807
  105MOL0     H13836  -1.575   1.774   5.663  2.0215  2.0085 -0.8220
  105MOL0     H13837  -1.500   1.704   5.804 -1.6664  2.3351 -0.1485
  105MOL0     H13838  -1.510   1.547   5.543 -2.5434 -0.1820 -1.0560
  105MOL0     H13839  -1.475   1.481   5.696  1.6992  1.9523 -1.4764
  105MOL0     H13840  -1.747   1.589   5.608 -1.1734  0.0017  1.0566
  105MOL0     H13841  -1.712   1.552   5.777  1.4147 -0.8662  0.0969
  105MOL0     H13842  -1.261   2.347   5.234 -1.9725 -2.0349 -0.2733
  105MOL0     H13843  -1.038   2.430   5.148  2.9674 -2.3509  1.2279
  105MOL0     H13844  -0.770   2.361   4.750  0.6274  1.2056  0.1780
  105MOL0     H13845  -0.608   2.436   4.622  0.1075  1.9374 -0.0889
  105MOL0     H13846   1.483   2.370   4.742 -0.7075  0.7003 -1.3723
  105MOL0     H13847   1.700   2.355   4.858  1.5956  1.6005  1.0682
  105MOL0     H13848   2.026   2.542   5.066  0.4972 -0.6534  0.3608
  105MOL0     H13849   2.217   2.513   5.194 -0.0193  3.6835  0.7034
  105MOL0     H13850   2.525   2.494   5.300 -3.8485 -1.7421  1.1199
  105MOL0     H13851   2.387   2.604   5.272 -0.0792 -0.6564  0.6382
  105MOL0     H13852   2.529   2.758   5.150  1.8634  1.1711  0.2810
  105MOL0     H13853   2.574   2.744   5.317 -0.5913  0.9185 -0.8340
  105MOL0     H13854   2.746   2.677   5.073  2.2802  0.7465  0.7157
  105MOL0     H13855   2.744   2.555   5.198  1.0567  0.1709 -0.8555
  105MOL0     H13856   2.787   2.850   5.241 -4.2184 -1.2381  2.8671
  105MOL0     H13857   2.806   2.737   5.365 -3.7100 -1.3938 -0.5110
  105MOL0     H13858   3.165   2.699   5.118  1.3241  0.1910  4.1177
  105MOL0     H13859   2.478   2.500   4.852  0.7921  0.3512  0.9828
  105MOL0     H13860   2.293   2.527   4.706 -0.4192  0.0422  0.0552
  106MOL0     O13861   3.889   0.799  10.578  0.9019  0.1588 -0.6197
  106MOL0     C13862   3.923   0.841  10.684  0.1930 -0.0722 -0.5756
  106MOL0     O13863   3.840   0.888  10.780  0.3606  0.6613 -0.9308
  106MOL0     C13864   3.699   0.887  10.778 -0.5250 -0.2812 -0.9518
  106MOL0     C13865   3.632   0.916  10.899  0.3749 -0.5654 -0.2857
  106MOL0     C13866   3.490   0.907  10.912  0.7815  0.7221  0.3766
  106MOL0     C13867   3.420   0.856  10.808  0.2961  0.5379 -0.3920
  106MOL0     O13868   3.285   0.842  10.833  0.6208 -0.0810  0.1957
  106MOL0     C13869   3.193   0.790  10.731 -0.0526  0.4504  0.8222
  106MOL0     C13870   3.046   0.804  10.768  0.0542  0.3411  0.2782
  106MOL0     C13871   3.015   0.768  10.915 -0.2226 -0.1797  0.6357
  106MOL0     C13872   2.867   0.722  10.935 -0.1087 -0.2653  0.2092
  106MOL0     C13873   2.778   0.847  10.938  0.4088  0.0419 -0.0577
  106MOL0     C13874   2.621   0.803  10.949  0.0919  0.6514 -0.9424
  106MOL0     C13875   2.584   0.737  11.080  0.2580  0.4526  0.1845
  106MOL0     C13876   2.582   0.820  11.212 -0.6146  0.2043 -0.2170
  106MOL0     N13877   2.497   0.941  11.207 -0.2438  0.2320  0.7667
  106MOL0     C13878   2.363   0.953  11.190  0.1969 -0.3061  0.4668
  106MOL0     C13879   2.340   1.093  11.193 -0.0782  0.3496  0.4118
  106MOL0     C13880   2.217   1.182  11.179  0.7796  0.5960  0.3657
  106MOL0     C13881   2.234   1.290  11.072  0.5054 -0.0536  0.2273
  106MOL0     C13882   2.131   1.399  11.075 -0.7740  0.9850  0.1653
  106MOL0     C13883   2.173   1.511  10.969  0.2575  0.5834  0.5336
  106MOL0     O13884   2.190   1.463  10.831  0.4349 -0.4702  0.2764
  106MOL0     C13885   2.080   1.440  10.750 -0.9266 -0.5035 -0.1793
  106MOL0     C13886   1.937   1.443  10.780  0.3741  0.0865 -0.3350
  106MOL0     C13887   1.839   1.411  10.685 -0.3338  0.0831  0.1432
  106MOL0     C13888   1.889   1.377  10.559 -0.4060 -0.0070  0.7560
  106MOL0     C13889   1.790   1.357  10.450 -0.4390 -0.9602 -0.3777
  106MOL0     O13890   1.836   1.393  10.323  0.3357 -0.4860  0.8096
  106MOL0     C13891   1.752   1.367  10.220  0.2197  0.8224 -0.0838
  106MOL0     C13892   1.791   1.269  10.128 -0.2803  0.7823  1.0495
  106MOL0     C13893   1.715   1.233  10.018  0.0062 -0.3819  0.4061
  106MOL0     C13894   1.591   1.297  10.008 -0.1280 -0.7342  0.1503
  106MOL0     O13895   1.506   1.286   9.904 -0.0612 -0.1976 -0.3293
  106MOL0     C13896   1.556   1.260   9.776  0.2662 -0.4678 -0.3591
  106MOL0     C13897   1.453   1.280   9.661 -0.3813  0.1291 -0.6243
  106MOL0     C13898   1.323   1.193   9.655 -0.2775  0.0704 -0.5758
  106MOL0     C13899   1.228   1.203   9.786  0.0128  0.1680  0.0348
  106MOL0     C13900   1.075   1.169   9.755  0.1424  0.4542  0.2616
  106MOL0     C13901   0.955   1.223   9.846 -0.4653  0.4415  0.2732
  106MOL0     C13902   0.821   1.159   9.807  0.1267 -0.8161 -0.5324
  106MOL0     C13903   0.727   1.188   9.923  0.2669 -0.1309 -0.5170
  106MOL0    Cl13904   0.570   1.123   9.883  0.0984  0.2103 -0.0414
  106MOL0     C13905   1.554   1.399  10.103  0.7372  0.9367  0.8421
  106MOL0     C13906   1.634   1.438  10.212  0.0936  0.9681  0.6763
  106MOL0     O13907   1.677   1.329  10.484  0.2756  0.0336  0.3689
  106MOL0     C13908   2.025   1.385  10.528  0.4818 -0.4257 -0.0363
  106MOL0     C13909   2.123   1.410  10.625 -0.1349 -0.0982  1.4273
  106MOL0     N13910   2.467   1.156  11.204  0.2329 -0.4589  0.8258
  106MOL0     N13911   2.560   1.067  11.214 -0.7643 -0.0480 -0.2051
  106MOL0     C13912   3.477   0.832  10.686  1.4340 -0.2010 -0.3825
  106MOL0     C13913   3.619   0.858  10.668 -0.3859 -0.1261  0.2886
  106MOL0     C13914   4.066   0.851  10.711  0.4383 -0.7861  0.4619
  106MOL0     C13915   4.103   0.906  10.838 -1.0544 -0.4045 -0.3399
  106MOL0     C13916   4.240   0.927  10.865 -0.1253  0.1520  0.2739
  106MOL0     C13917   4.335   0.873  10.781 -0.4855 -0.2705  0.6260
  106MOL0     O13918   4.473   0.888  10.791 -0.1727  0.0886 -0.7486
  106MOL0     C13919   4.531   0.998  10.867 -0.5447 -0.3820  0.1501
  106MOL0     C13920   4.684   0.989  10.870 -0.1039  0.9499  0.2024
  106MOL0     C13921   4.733   0.994  10.719  0.1528 -1.0836  0.6545
  106MOL0     C13922   4.869   1.057  10.704 -0.0735 -0.4215 -0.6959
  106MOL0     C13923   4.933   1.036  10.576  0.4439  0.0751  0.8393
  106MOL0     C13924   4.988   1.011  10.469  0.3231 -0.0779 -0.8490
  106MOL0     C13925   4.297   0.817  10.662  0.0667 -0.1653  0.4737
  106MOL0     C13926   4.163   0.808  10.625  0.3426  0.3212  0.6391
  106MOL0     H13927   3.683   0.947  10.990 -0.2381 -2.6724  0.8304
  106MOL0     H13928   3.434   0.924  11.003  0.5465 -2.2539  0.8754
  106MOL0     H13929   3.215   0.684  10.718 -0.7645  0.5820 -2.2601
  106MOL0     H13930   3.216   0.834  10.634  0.8682 -1.6842  0.0298
  106MOL0     H13931   2.976   0.741  10.712 -4.1687  1.3399  3.8311
  106MOL0     H13932   3.021   0.911  10.760  0.2297  0.3825  0.2945
  106MOL0     H13933   3.037   0.854  10.979 -1.8998  0.5991  0.2209
  106MOL0     H13934   3.078   0.686  10.951 -2.6026 -1.8633  1.2124
  106MOL0     H13935   2.838   0.644  10.863  0.4008 -1.0683  0.8569
  106MOL0     H13936   2.855   0.675  11.033 -3.7850 -2.7455 -1.2133
  106MOL0     H13937   2.788   0.893  10.839 -4.2243 -1.6499 -1.5835
  106MOL0     H13938   2.804   0.920  11.014  3.6718  0.9487 -1.8531
  106MOL0     H13939   2.589   0.733  10.871 -4.3646 -1.5067  2.4125
  106MOL0     H13940   2.559   0.891  10.932  0.2437  0.9552  0.0135
  106MOL0     H13941   2.480   0.702  11.078  0.5625 -0.4775  0.4304
  106MOL0     H13942   2.648   0.649  11.084  0.6018  0.6376 -0.8277
  106MOL0     H13943   2.686   0.848  11.232 -0.6863  0.0471  0.4118
  106MOL0     H13944   2.553   0.756  11.296 -1.0172  0.9206  0.2014
  106MOL0     H13945   2.292   0.871  11.191  0.9653 -1.1171 -2.2336
  106MOL0     H13946   2.202   1.230  11.276 -0.0113 -1.4697  1.3289
  106MOL0     H13947   2.130   1.118  11.162  2.5464 -1.6064 -0.9028
  106MOL0     H13948   2.229   1.257  10.968 -0.8585  0.2624  0.1609
  106MOL0     H13949   2.334   1.331  11.081  1.0207 -0.9904 -0.9159
  106MOL0     H13950   2.035   1.357  11.043 -0.1413  0.6062 -1.3083
  106MOL0     H13951   2.131   1.442  11.175 -1.8951  1.1519  0.1064
  106MOL0     H13952   2.265   1.562  11.000 -0.2091  0.5637  2.0224
  106MOL0     H13953   2.100   1.592  10.972  1.2083  1.4360  1.4149
  106MOL0     H13954   1.911   1.468  10.883 -1.6393 -0.5730 -0.6342
  106MOL0     H13955   1.734   1.411  10.711 -0.3381 -1.1885  0.2150
  106MOL0     H13956   1.889   1.225  10.141 -0.6970 -0.1457  1.0952
  106MOL0     H13957   1.756   1.154   9.954 -1.2412 -0.9351  0.2481
  106MOL0     H13958   1.586   1.154   9.782 -0.3189 -0.5646  1.9551
  106MOL0     H13959   1.644   1.321   9.753  1.9193 -2.7439 -0.4264
  106MOL0     H13960   1.505   1.273   9.564  1.3320 -2.1775  0.3539
  106MOL0     H13961   1.419   1.383   9.670 -0.0682  0.2415 -0.7101
  106MOL0     H13962   1.362   1.092   9.642  2.6363  1.2684 -2.0314
  106MOL0     H13963   1.260   1.201   9.566 -0.8203 -3.4505 -0.6464
  106MOL0     H13964   1.264   1.135   9.863 -2.5241 -1.6519 -0.2691
  106MOL0     H13965   1.226   1.303   9.832 -1.4829 -0.2985  1.0724
  106MOL0     H13966   1.064   1.061   9.745  1.9379  0.2431  0.1703
  106MOL0     H13967   1.046   1.191   9.652  1.3054  1.3587  0.1031
  106MOL0     H13968   0.952   1.332   9.853 -1.0429  0.6903 -2.5400
  106MOL0     H13969   0.986   1.187   9.945  1.0579  0.5946 -0.1230
  106MOL0     H13970   0.778   1.194   9.712 -3.2649 -2.2464  0.3109
  106MOL0     H13971   0.818   1.049   9.802  1.0554 -1.0388  2.2747
  106MOL0     H13972   0.729   1.296   9.941  4.8192 -0.3651  1.9281
  106MOL0     H13973   0.758   1.145  10.019 -0.5933 -1.3064 -0.7571
  106MOL0     H13974   1.459   1.450  10.089 -2.1308 -3.9653  0.3070
  106MOL0     H13975   1.595   1.508  10.286  1.4008 -0.8378  3.2133
  106MOL0     H13976   2.067   1.370  10.429  3.2849  0.7626  0.8752
  106MOL0     H13977   2.224   1.408  10.584 -1.2918  0.3607 -1.6814
  106MOL0     H13978   3.423   0.794  10.600 -0.6518  2.6363 -0.4466
  106MOL0     H13979   3.662   0.855  10.568  1.9132 -0.0641  1.1997
  106MOL0     H13980   4.025   0.943  10.903  0.2341  1.1129  0.4109
  106MOL0     H13981   4.281   0.972  10.955  2.9504 -2.0916  0.1546
  106MOL0     H13982   4.500   0.986  10.972 -0.2503  0.3666  0.3303
  106MOL0     H13983   4.489   1.089  10.822  0.9099 -0.1223 -0.7442
  106MOL0     H13984   4.731   1.065  10.932  2.7950 -1.0934  0.7618
  106MOL0     H13985   4.714   0.893  10.914 -1.1237  0.9911  1.0003
  106MOL0     H13986   4.669   1.056  10.656  0.7011 -0.7391  0.4307
  106MOL0     H13987   4.735   0.892  10.679 -0.9153 -1.5391  1.7139
  106MOL0     H13988   4.852   1.164  10.720 -2.6697 -0.9048  0.3095
  106MOL0     H13989   4.943   1.014  10.773  0.6221  1.5666 -0.1208
  106MOL0     H13990   5.024   1.000  10.369 -0.3127  0.5208 -1.1622
  106MOL0     H13991   4.380   0.777  10.605 -0.4509  1.2944 -1.4255
  106MOL0     H13992   4.135   0.767  10.529  1.5074  2.3350 -0.6283
  107MOL0     O13993   8.504   3.972   2.367 -0.0076  0.4081 -0.4288
  107MOL0     C13994   8.569   3.951   2.473 -0.7370 -0.3982  0.8368
  107MOL0     O13995   8.522   3.939   2.604  0.0725 -0.2596 -0.0996
  107MOL0     C13996   8.379   3.955   2.625 -0.0715 -0.3774 -0.7034
  107MOL0     C13997   8.274   4.008   2.551  0.1577 -0.9319 -0.1386
  107MOL0     C13998   8.145   4.018   2.606 -0.5603  0.7308 -0.3851
  107MOL0     C13999   8.109   3.955   2.724 -0.4729 -0.4518  0.8273
  107MOL0     O14000   7.992   3.941   2.786  0.7010 -0.4916  1.1042
  107MOL0     C14001   7.885   4.016   2.728 -0.1480 -0.2779  0.5532
  107MOL0     C14002   7.762   3.939   2.749  0.5934  0.9561  0.3296
  107MOL0     C14003   7.641   4.034   2.753  0.2227 -0.6326  0.7385
  107MOL0     C14004   7.518   3.966   2.804  0.3440 -0.1583 -0.5381
  107MOL0     C14005   7.393   4.008   2.735 -0.0548  0.5062  0.1895
  107MOL0     C14006   7.276   3.923   2.767  0.0055 -0.1795 -1.1354
  107MOL0     C14007   7.225   3.916   2.915 -0.4350 -0.4075 -0.4509
  107MOL0     C14008   7.176   4.054   2.955 -0.0329 -0.1542 -0.1666
  107MOL0     N14009   7.062   4.052   3.051 -0.2151  0.8038  0.3043
  107MOL0     C14010   7.086   4.047   3.187 -0.3552 -0.5411 -0.0731
  107MOL0     C14011   6.956   4.060   3.234 -0.5046  0.2744  0.2989
  107MOL0     C14012   6.922   4.083   3.379  0.5588 -0.0625 -0.1395
  107MOL0     C14013   6.920   4.234   3.424 -0.2687  0.3475  0.1978
  107MOL0     C14014   6.801   4.315   3.364  0.0783  0.4298 -0.2099
  107MOL0     C14015   6.661   4.252   3.400  0.3812 -0.4560  0.5478
  107MOL0     O14016   6.654   4.242   3.543  0.0386 -0.5699  0.0115
  107MOL0     C14017   6.554   4.160   3.589 -0.2083  0.4700 -0.7042
  107MOL0     C14018   6.577   4.082   3.701  0.4191 -0.7510 -0.5015
  107MOL0     C14019   6.478   4.015   3.775 -0.4111 -0.0634  0.4943
  107MOL0     C14020   6.349   4.017   3.718  0.5165 -0.2846 -0.1037
  107MOL0     C14021   6.241   3.957   3.790  0.7838  0.5112  0.1027
  107MOL0     O14022   6.254   3.941   3.926 -0.0876  0.1067  0.2898
  107MOL0     C14023   6.147   3.902   3.996  0.0860 -0.7118 -0.4454
  107MOL0     C14024   6.028   3.969   3.998 -0.1758 -0.0508 -0.2246
  107MOL0     C14025   5.929   3.947   4.100  0.1240  0.3336 -0.6800
  107MOL0     C14026   5.958   3.838   4.190  0.3081 -0.4935 -0.0167
  107MOL0     O14027   5.878   3.818   4.302 -0.1797 -0.2317 -0.4450
  107MOL0     C14028   5.843   3.678   4.329  0.3585  0.7601  0.3689
  107MOL0     C14029   5.734   3.663   4.431  1.2052 -0.3416 -0.5125
  107MOL0     C14030   5.664   3.525   4.427 -0.3795  0.1765 -0.4597
  107MOL0     C14031   5.583   3.486   4.538  0.0934  0.3943 -0.4735
  107MOL0     C14032   5.449   3.567   4.539  0.3642 -0.0788  0.1507
  107MOL0     C14033   5.329   3.495   4.610  0.4564 -0.0932 -0.2406
  107MOL0     C14034   5.357   3.468   4.760  0.7920  0.4865 -0.9143
  107MOL0     C14035   5.254   3.397   4.843  0.9946  0.0354  0.3189
  107MOL0    Cl14036   5.107   3.498   4.835  0.0516  0.4228 -0.5145
  107MOL0     C14037   6.080   3.766   4.182 -0.3959  0.5542  0.3380
  107MOL0     C14038   6.163   3.790   4.080 -0.1403 -0.8258  0.1946
  107MOL0     O14039   6.150   3.911   3.719  0.2702  0.1033 -0.1644
  107MOL0     C14040   6.328   4.082   3.591 -0.0691  0.5318 -0.3013
  107MOL0     C14041   6.424   4.157   3.526  0.6670 -0.4295  1.0124
  107MOL0     N14042   6.865   4.052   3.133  0.0746  0.8356 -0.5928
  107MOL0     N14043   6.935   4.041   3.028  0.3538  0.1663  0.6063
  107MOL0     C14044   8.217   3.892   2.792 -0.0386 -0.2230 -0.4525
  107MOL0     C14045   8.346   3.892   2.746 -0.8701 -0.3281  0.6839
  107MOL0     C14046   8.715   3.951   2.462  0.0054  0.0199 -0.6158
  107MOL0     C14047   8.790   3.908   2.568 -0.0895 -0.9491 -1.1134
  107MOL0     C14048   8.929   3.917   2.572 -0.6127 -0.3504  0.0080
  107MOL0     C14049   9.001   3.955   2.452  0.1799 -1.0811 -0.4254
  107MOL0     O14050   9.135   3.957   2.428 -1.2791  0.0930  0.3837
  107MOL0     C14051   9.213   3.899   2.532 -0.7183  0.1956  0.1403
  107MOL0     C14052   9.363   3.916   2.506  0.0730  0.3918  0.4109
  107MOL0     C14053   9.402   3.832   2.386 -0.0582  0.0465  0.5748
  107MOL0     C14054   9.545   3.841   2.337  0.3859  0.1888  0.1902
  107MOL0     C14055   9.591   3.971   2.297 -0.8815 -0.0594 -0.2538
  107MOL0     C14056   9.630   4.085   2.290  0.1304 -0.1403  0.0243
  107MOL0     C14057   8.926   4.005   2.346  0.0430 -0.5446 -0.6717
  107MOL0     C14058   8.784   3.993   2.348 -0.2216  0.3321  0.2570
  107MOL0     H14059   8.286   4.036   2.447  2.7946  2.5911  0.9132
  107MOL0     H14060   8.067   4.056   2.541 -0.1377  0.5209 -1.0248
  107MOL0     H14061   7.884   4.036   2.621  0.1636  0.8077  0.7374
  107MOL0     H14062   7.885   4.114   2.777  1.8490 -0.0035  0.1066
  107MOL0     H14063   7.757   3.883   2.843 -1.0698 -1.8360 -1.2961
  107MOL0     H14064   7.748   3.862   2.673  1.4109 -1.9750  2.9751
  107MOL0     H14065   7.629   4.066   2.650  3.1702  1.3109  0.8830
  107MOL0     H14066   7.659   4.125   2.811 -1.6272 -0.7584  1.5988
  107MOL0     H14067   7.528   3.858   2.791 -2.8271 -0.6068 -0.0652
  107MOL0     H14068   7.494   3.985   2.908 -0.9848 -0.9504 -0.6812
  107MOL0     H14069   7.394   4.006   2.626 -0.5034 -1.4205  0.1876
  107MOL0     H14070   7.374   4.111   2.767 -0.3811 -0.3313  2.9925
  107MOL0     H14071   7.303   3.821   2.739 -0.5998 -0.8757  0.6566
  107MOL0     H14072   7.189   3.950   2.706 -0.5625  4.1160  1.1379
  107MOL0     H14073   7.146   3.840   2.922  1.5113 -2.5073  0.0624
  107MOL0     H14074   7.303   3.901   2.990 -1.5091 -0.0809  0.7618
  107MOL0     H14075   7.134   4.100   2.865 -3.0640 -1.6330  0.3448
  107MOL0     H14076   7.253   4.121   2.995 -1.6682  0.8702  1.3989
  107MOL0     H14077   7.185   4.062   3.229  0.0475 -0.6871 -0.9436
  107MOL0     H14078   6.995   4.023   3.434 -1.0321 -1.0971  0.9580
  107MOL0     H14079   6.823   4.036   3.384  0.5579 -0.1062 -0.5104
  107MOL0     H14080   7.010   4.287   3.391  0.3978 -0.0636  1.2971
  107MOL0     H14081   6.932   4.242   3.533 -2.0303  2.5258  0.3166
  107MOL0     H14082   6.818   4.413   3.409  1.7614 -0.2505  0.6992
  107MOL0     H14083   6.793   4.327   3.255 -3.0967  0.6956 -0.0350
  107MOL0     H14084   6.651   4.156   3.348 -0.0972 -0.1512  0.0716
  107MOL0     H14085   6.591   4.325   3.359  0.7041 -1.6404 -2.3326
  107MOL0     H14086   6.681   4.092   3.729  0.7711  0.3225 -2.0537
  107MOL0     H14087   6.505   3.957   3.862 -0.6289 -1.0037 -0.0431
  107MOL0     H14088   6.017   4.052   3.929  0.7467  0.6204  0.4184
  107MOL0     H14089   5.843   4.010   4.122  0.4015  0.7124 -0.6898
  107MOL0     H14090   5.932   3.626   4.364 -0.0975  0.3923  1.0073
  107MOL0     H14091   5.810   3.634   4.234 -1.3319 -1.4095  1.8502
  107MOL0     H14092   5.654   3.731   4.399  1.2807 -0.4900 -1.0253
  107MOL0     H14093   5.768   3.686   4.532  0.2159 -2.2039  0.3046
  107MOL0     H14094   5.746   3.452   4.420 -0.9653 -0.5640  0.3031
  107MOL0     H14095   5.608   3.515   4.333  0.7961  1.0030 -1.2794
  107MOL0     H14096   5.561   3.379   4.527  0.6485  0.3961 -1.7649
  107MOL0     H14097   5.634   3.502   4.634  0.9780 -0.9855 -0.6876
  107MOL0     H14098   5.417   3.590   4.436  0.2442 -1.3033 -0.1050
  107MOL0     H14099   5.465   3.663   4.587 -0.8670 -0.0559  0.5396
  107MOL0     H14100   5.291   3.408   4.556 -1.1001  1.2846 -1.4742
  107MOL0     H14101   5.241   3.560   4.614  0.3686 -0.2357  0.2806
  107MOL0     H14102   5.438   3.396   4.756  0.3180 -0.1394  0.2735
  107MOL0     H14103   5.388   3.557   4.817  0.9396 -0.6732  0.8992
  107MOL0     H14104   5.293   3.386   4.944  1.1955 -1.0010  0.1449
  107MOL0     H14105   5.232   3.296   4.806 -2.4725  1.6482 -2.6407
  107MOL0     H14106   6.116   3.697   4.257  0.9291 -0.0235 -0.7941
  107MOL0     H14107   6.262   3.745   4.079 -0.0763 -0.8586  2.4442
  107MOL0     H14108   6.229   4.088   3.547 -1.5391 -0.8939  2.5620
  107MOL0     H14109   6.402   4.223   3.443  2.6366  1.3792  1.8468
  107MOL0     H14110   8.196   3.836   2.883 -2.3134  1.5721  0.2345
  107MOL0     H14111   8.420   3.847   2.810 -0.4489  0.7182  0.9530
  107MOL0     H14112   8.734   3.896   2.660  1.4824  4.3461  0.8985
  107MOL0     H14113   8.977   3.888   2.665 -0.1579 -0.6412 -0.3078
  107MOL0     H14114   9.192   3.793   2.548  0.3476 -0.2510 -1.1981
  107MOL0     H14115   9.187   3.936   2.632  0.4651 -2.1978  1.4058
  107MOL0     H14116   9.385   4.023   2.505  1.2143  0.1758 -1.1674
  107MOL0     H14117   9.418   3.880   2.593 -0.9647 -1.9537  0.1474
  107MOL0     H14118   9.335   3.869   2.307  1.2341  1.5212  0.1227
  107MOL0     H14119   9.365   3.729   2.377 -2.3333  0.9270 -1.6137
  107MOL0     H14120   9.617   3.796   2.406 -0.0074  1.0812  1.2166
  107MOL0     H14121   9.549   3.774   2.251  0.3191  0.7504 -0.2522
  107MOL0     H14122   9.673   4.182   2.279 -0.7538  0.0065 -2.7138
  107MOL0     H14123   8.979   4.034   2.256 -0.9554  0.6957 -0.8784
  107MOL0     H14124   8.724   4.016   2.261 -2.2090 -1.2838  1.1193
  108MOL0     O14125   9.967   0.726   4.641 -0.0643 -0.4204 -0.4593
  108MOL0     C14126  10.035   0.655   4.563 -0.0566 -0.5474 -0.6659
  108MOL0     O14127   9.986   0.567   4.481  0.3503 -0.0324  0.7515
  108MOL0     C14128   9.855   0.532   4.484 -0.4046 -1.0748  0.5257
  108MOL0     C14129   9.762   0.576   4.383 -0.0201  0.0807 -0.0377
  108MOL0     C14130   9.621   0.554   4.402  0.4085  0.4402 -0.5488
  108MOL0     C14131   9.567   0.485   4.505 -0.7005 -0.8244  0.3622
  108MOL0     O14132   9.436   0.453   4.520  0.1439 -0.0346 -0.9114
  108MOL0     C14133   9.340   0.526   4.441 -0.0562  0.2279 -0.3316
  108MOL0     C14134   9.215   0.541   4.532  0.1794 -0.0565 -0.4724
  108MOL0     C14135   9.102   0.590   4.448  0.9222  0.3160 -0.1849
  108MOL0     C14136   8.970   0.554   4.525 -0.5685  0.2176  0.0255
  108MOL0     C14137   8.855   0.658   4.483  0.5895  0.4935 -0.3240
  108MOL0     C14138   8.711   0.622   4.521 -0.1794  1.2518  0.2371
  108MOL0     C14139   8.684   0.630   4.674 -0.5300 -0.1809  0.7825
  108MOL0     C14140   8.562   0.539   4.718 -0.4091 -0.3847 -0.2402
  108MOL0     N14141   8.444   0.580   4.646 -0.2691 -0.1462  0.5528
  108MOL0     C14142   8.392   0.706   4.644 -0.5520 -0.2813 -0.6305
  108MOL0     C14143   8.281   0.708   4.562 -0.0565 -0.7974 -1.0717
  108MOL0     C14144   8.188   0.823   4.536 -0.4600 -0.1598  0.3639
  108MOL0     C14145   8.060   0.777   4.473  0.6337 -0.7236  0.9688
  108MOL0     C14146   7.967   0.898   4.463 -0.5595  0.5590  0.1486
  108MOL0     C14147   7.882   0.921   4.588 -0.4876 -0.5137 -0.5590
  108MOL0     O14148   7.821   0.804   4.636  0.5030 -0.2519  0.5296
  108MOL0     C14149   7.690   0.777   4.651 -0.5855  0.5187  0.4179
  108MOL0     C14150   7.652   0.644   4.660  0.8048 -0.2493  0.2216
  108MOL0     C14151   7.519   0.602   4.685  0.1398 -0.4112 -0.4649
  108MOL0     C14152   7.414   0.702   4.678 -0.3387 -0.1250 -0.3966
  108MOL0     C14153   7.267   0.661   4.681 -0.6359  0.5786 -0.4444
  108MOL0     O14154   7.240   0.530   4.719  0.0869  0.0250 -0.3533
  108MOL0     C14155   7.110   0.480   4.735  0.3002  0.2174  0.7203
  108MOL0     C14156   7.088   0.359   4.796 -0.4228 -0.2847 -0.4683
  108MOL0     C14157   6.975   0.280   4.780 -0.5279  0.7158 -0.0818
  108MOL0     C14158   6.875   0.330   4.708  0.3450  0.2220  0.4971
  108MOL0     O14159   6.752   0.273   4.702 -0.3123  0.7247 -0.2077
  108MOL0     C14160   6.702   0.172   4.795 -0.0403 -0.8536 -0.2461
  108MOL0     C14161   6.603   0.092   4.729  0.3833 -0.3737  0.2203
  108MOL0     C14162   6.530   0.005   4.830 -0.4164 -0.6910  0.0361
  108MOL0     C14163   6.435  -0.093   4.775 -0.0082 -0.0357 -0.6503
  108MOL0     C14164   6.318  -0.122   4.863  0.2566 -0.0306  0.5787
  108MOL0     C14165   6.356  -0.219   4.971 -0.4912 -0.5227 -0.5677
  108MOL0     C14166   6.239  -0.255   5.059  0.4485 -0.0461 -0.2067
  108MOL0     C14167   6.118  -0.334   4.996  0.4225 -0.7863 -0.2502
  108MOL0    Cl14168   5.964  -0.226   4.964 -0.1732  0.2319  0.4271
  108MOL0     C14169   6.880   0.459   4.653  0.2473  0.1353  0.2611
  108MOL0     C14170   7.002   0.520   4.661 -0.3699 -0.4155 -0.0172
  108MOL0     O14171   7.191   0.748   4.653 -0.0454  0.7965 -0.3442
  108MOL0     C14172   7.454   0.831   4.654 -0.2351  0.0513 -0.4433
  108MOL0     C14173   7.590   0.866   4.638  0.0952  0.1162 -0.7881
  108MOL0     N14174   8.284   0.580   4.498  0.6912 -0.4270  0.3072
  108MOL0     N14175   8.386   0.510   4.541  0.5674  0.0883 -0.6297
  108MOL0     C14176   9.656   0.446   4.603  0.2361 -0.3997  0.5433
  108MOL0     C14177   9.799   0.468   4.592  0.4319 -0.3813 -0.0895
  108MOL0     C14178  10.181   0.675   4.561  0.7144 -0.7593 -0.8263
  108MOL0     C14179  10.260   0.757   4.653 -0.2880  0.9139 -1.2636
  108MOL0     C14180  10.393   0.778   4.640  0.2294  0.5307 -0.0217
  108MOL0     C14181  10.472   0.709   4.542  0.3542 -0.4926 -0.9865
  108MOL0     O14182  10.605   0.721   4.533  0.2939  0.9617 -0.1446
  108MOL0     C14183  10.685   0.685   4.651 -0.2127 -0.2019  0.5066
  108MOL0     C14184  10.695   0.536   4.670 -0.7457 -0.0675 -1.0891
  108MOL0     C14185  10.776   0.505   4.796 -0.1374 -1.2420  0.1589
  108MOL0     C14186  10.800   0.354   4.832  1.1654  0.0563 -0.1839
  108MOL0     C14187  10.684   0.289   4.881  0.3544 -0.2377  0.2829
  108MOL0     C14188  10.589   0.222   4.921  0.2479 -0.1468 -1.7253
  108MOL0     C14189  10.405   0.613   4.455 -0.1296  0.1577 -0.3785
  108MOL0     C14190  10.262   0.608   4.465 -0.3503 -0.0171  0.4863
  108MOL0     H14191   9.799   0.632   4.298 -0.4270 -1.8956 -1.5672
  108MOL0     H14192   9.559   0.593   4.322 -1.0751  2.2232  1.3830
  108MOL0     H14193   9.322   0.462   4.354  1.9962 -2.0741  0.8058
  108MOL0     H14194   9.369   0.623   4.401  3.6731 -1.4477 -2.2067
  108MOL0     H14195   9.247   0.612   4.609 -0.4213  0.7064 -0.9095
  108MOL0     H14196   9.181   0.446   4.576  0.3445  0.8214  1.7005
  108MOL0     H14197   9.098   0.540   4.350 -1.3283 -0.7733  0.3920
  108MOL0     H14198   9.089   0.697   4.431 -3.3032  0.4759  2.5513
  108MOL0     H14199   8.939   0.453   4.496 -1.9370  0.2068  1.3803
  108MOL0     H14200   8.974   0.556   4.634  0.2215  2.5893  0.0034
  108MOL0     H14201   8.867   0.674   4.376 -0.3640  0.9136 -0.3701
  108MOL0     H14202   8.873   0.755   4.530 -1.6782  1.9696 -2.2895
  108MOL0     H14203   8.697   0.518   4.492  1.4355  0.2643  2.6767
  108MOL0     H14204   8.637   0.681   4.466  0.0629 -0.6588 -2.3271
  108MOL0     H14205   8.773   0.588   4.723  2.2051  2.4441 -1.5389
  108MOL0     H14206   8.666   0.734   4.701 -3.0092 -0.3705  0.0443
  108MOL0     H14207   8.545   0.552   4.825 -3.3005 -1.1635 -0.5242
  108MOL0     H14208   8.584   0.433   4.704 -1.3341 -0.8570  1.5940
  108MOL0     H14209   8.429   0.796   4.693  0.7894 -0.3823 -1.4191
  108MOL0     H14210   8.248   0.890   4.474  3.2662 -1.1250  2.6211
  108MOL0     H14211   8.163   0.884   4.624 -2.7053 -2.0286  1.1241
  108MOL0     H14212   8.007   0.694   4.520 -3.3196  2.1524  2.1840
  108MOL0     H14213   8.073   0.747   4.369  1.5014  0.0113  0.8482
  108MOL0     H14214   8.020   0.993   4.450 -0.7886  0.7763  0.7637
  108MOL0     H14215   7.904   0.877   4.377 -2.0307 -0.8718  1.5041
  108MOL0     H14216   7.815   1.004   4.567 -2.1889 -2.3688 -3.0896
  108MOL0     H14217   7.954   0.951   4.665 -0.9500 -1.7749  0.4122
  108MOL0     H14218   7.742   0.584   4.646  0.5634 -0.0627 -2.6684
  108MOL0     H14219   7.489   0.499   4.701  1.7557 -0.9353 -0.6564
  108MOL0     H14220   7.168   0.314   4.853 -0.2634  2.7265  1.9265
  108MOL0     H14221   6.967   0.188   4.837  1.1969  0.5965  0.0437
  108MOL0     H14222   6.666   0.207   4.893  2.0561  0.7751  0.0080
  108MOL0     H14223   6.786   0.111   4.828 -0.2967 -0.3143  1.5292
  108MOL0     H14224   6.648   0.035   4.647 -0.7538  0.0721 -0.7326
  108MOL0     H14225   6.530   0.157   4.681  2.0385 -0.1974 -2.2174
  108MOL0     H14226   6.475   0.076   4.892 -0.7671 -0.9979  0.0816
  108MOL0     H14227   6.602  -0.036   4.901  0.4255 -1.8842 -1.4639
  108MOL0     H14228   6.400  -0.064   4.676  1.4286 -0.2777 -1.2550
  108MOL0     H14229   6.506  -0.174   4.755 -0.4059 -0.0387 -2.1736
  108MOL0     H14230   6.247  -0.172   4.797 -0.2615 -1.0099  1.8235
  108MOL0     H14231   6.269  -0.031   4.899  0.9602 -0.6462  3.3546
  108MOL0     H14232   6.432  -0.167   5.031  2.0894 -3.0690 -1.3833
  108MOL0     H14233   6.400  -0.309   4.928  0.2141 -0.3239 -0.2853
  108MOL0     H14234   6.277  -0.318   5.140 -1.8026 -0.5696  0.5290
  108MOL0     H14235   6.191  -0.168   5.104  0.5773 -0.0684 -0.0263
  108MOL0     H14236   6.084  -0.399   5.077 -1.9081  1.7531  0.9995
  108MOL0     H14237   6.158  -0.389   4.910  2.7878 -1.4914  1.2094
  108MOL0     H14238   6.792   0.498   4.603  0.0673 -1.9697 -1.2132
  108MOL0     H14239   7.009   0.617   4.613 -1.2739  0.4398  1.5126
  108MOL0     H14240   7.391   0.915   4.625 -1.3370 -0.3605  0.6811
  108MOL0     H14241   7.596   0.967   4.599  2.1297  0.6978  0.8572
  108MOL0     H14242   9.610   0.400   4.690 -0.4889 -0.0180  0.3719
  108MOL0     H14243   9.863   0.436   4.673  0.7252 -1.0630 -0.5828
  108MOL0     H14244  10.205   0.813   4.728  1.9718  1.3904  0.1207
  108MOL0     H14245  10.443   0.842   4.713  1.6930 -2.4790  1.8179
  108MOL0     H14246  10.631   0.717   4.740 -3.9001 -1.4405 -1.0992
  108MOL0     H14247  10.779   0.740   4.638 -0.9371  1.5210  2.1839
  108MOL0     H14248  10.599   0.485   4.678 -0.4283 -0.7464 -1.4998
  108MOL0     H14249  10.749   0.501   4.581  3.5368  1.1376  0.7681
  108MOL0     H14250  10.735   0.560   4.882 -0.9478  0.8644 -1.4801
  108MOL0     H14251  10.872   0.556   4.791 -1.4487  1.2870 -3.3827
  108MOL0     H14252  10.840   0.314   4.739  3.3581  1.7591 -0.0719
  108MOL0     H14253  10.888   0.357   4.898  1.9184 -0.2445 -1.1628
  108MOL0     H14254  10.497   0.190   4.966 -1.4813  0.7132 -4.3841
  108MOL0     H14255  10.464   0.560   4.381 -2.4401 -3.4258  0.0780
  108MOL0     H14256  10.209   0.546   4.393 -0.6829 -0.0087  0.7197
  109MOL0     O14257  10.594   6.757   7.017  0.4613  0.0550 -0.1314
  109MOL0     C14258  10.649   6.831   7.100 -0.2281 -0.4116 -0.0798
  109MOL0     O14259  10.587   6.933   7.169  0.0422  0.2229 -0.8920
  109MOL0     C14260  10.455   6.964   7.142 -0.0858 -0.0111 -0.4716
  109MOL0     C14261  10.353   6.888   7.203  0.0575 -1.0100 -0.8336
  109MOL0     C14262  10.221   6.896   7.161 -0.0641  0.2751  0.2916
  109MOL0     C14263  10.182   6.974   7.046  0.8065  0.2797 -0.1075
  109MOL0     O14264  10.047   6.961   7.003  0.1135 -0.1617  0.0348
  109MOL0     C14265  10.004   7.037   6.887 -0.4646  0.0372  0.4546
  109MOL0     C14266   9.848   7.055   6.857  0.1036  0.8666 -0.1719
  109MOL0     C14267   9.778   7.143   6.957  0.4248 -0.1899  0.0212
  109MOL0     C14268   9.626   7.122   6.935  0.1431  0.0520 -0.5777
  109MOL0     C14269   9.559   7.229   7.010 -0.6060 -0.7186 -0.9134
  109MOL0     C14270   9.415   7.192   7.059 -0.1228 -0.1884  0.3710
  109MOL0     C14271   9.363   7.297   7.163 -0.2102 -0.6847  0.0352
  109MOL0     C14272   9.349   7.446   7.113 -0.2786  0.5012 -0.1505
  109MOL0     N14273   9.286   7.459   6.987  0.4088  0.4822 -0.7420
  109MOL0     C14274   9.332   7.506   6.868 -1.1106  0.0139 -0.2590
  109MOL0     C14275   9.242   7.493   6.777  0.6613 -0.0251  0.1725
  109MOL0     C14276   9.267   7.504   6.627  0.4944 -0.0569 -0.5535
  109MOL0     C14277   9.330   7.380   6.565  0.1588  0.1280  0.4252
  109MOL0     C14278   9.469   7.347   6.627  0.1898 -0.0202  0.6661
  109MOL0     C14279   9.560   7.261   6.542 -0.2451 -0.4006 -0.5853
  109MOL0     O14280   9.615   7.325   6.425 -0.1063 -0.2913  0.2275
  109MOL0     C14281   9.726   7.275   6.356 -0.8991 -0.5256 -0.3333
  109MOL0     C14282   9.817   7.362   6.292  0.0257 -0.2339  0.8097
  109MOL0     C14283   9.928   7.313   6.229  0.2575 -0.4360  0.4053
  109MOL0     C14284   9.959   7.180   6.228 -0.1275  0.4831  0.3272
  109MOL0     C14285  10.073   7.133   6.144 -0.5638 -1.3522 -0.5691
  109MOL0     O14286  10.125   7.014   6.188  0.2545 -0.3726 -0.5345
  109MOL0     C14287  10.260   6.984   6.176 -0.0425  0.0166 -0.1528
  109MOL0     C14288  10.303   6.858   6.231  0.6816 -0.1733 -0.0931
  109MOL0     C14289  10.440   6.834   6.240 -0.0790 -0.2336  0.2709
  109MOL0     C14290  10.538   6.922   6.186  0.2482 -0.8385 -0.3452
  109MOL0     O14291  10.678   6.906   6.199 -0.0657  0.3743 -0.2264
  109MOL0     C14292  10.734   6.777   6.238  0.1230 -1.4583  0.2756
  109MOL0     C14293  10.881   6.803   6.269  0.1785 -0.7563  0.3268
  109MOL0     C14294  10.956   6.671   6.292  0.1014  1.3176 -0.4955
  109MOL0     C14295  10.961   6.580   6.174  1.2494  0.2331  1.0012
  109MOL0     C14296  11.056   6.461   6.191  0.6763  0.3269  0.3065
  109MOL0     C14297  11.024   6.370   6.076 -0.1277 -0.1349  0.1284
  109MOL0     C14298  11.130   6.250   6.071  0.2353  0.2831 -1.2175
  109MOL0     C14299  11.139   6.192   6.213  0.1871 -1.6553  0.0905
  109MOL0    Cl14300  11.194   6.022   6.192  0.2125  0.2960  0.2107
  109MOL0     C14301  10.490   7.041   6.126  0.9995 -0.1376  0.3790
  109MOL0     C14302  10.354   7.065   6.109  0.1198 -0.1410 -0.2176
  109MOL0     O14303  10.106   7.198   6.044 -0.6864 -0.2154 -0.9901
  109MOL0     C14304   9.871   7.082   6.286  0.4153 -0.3602 -0.3933
  109MOL0     C14305   9.749   7.136   6.343 -0.6992  0.3148 -1.0136
  109MOL0     N14306   9.129   7.449   6.841 -0.0200 -0.5253 -0.2829
  109MOL0     N14307   9.156   7.430   6.961  0.0359  0.5833  0.3572
  109MOL0     C14308  10.283   7.048   6.987  0.3847 -0.4821  0.7471
  109MOL0     C14309  10.424   7.044   7.032  0.3402  0.0065  0.3682
  109MOL0     C14310  10.794   6.824   7.113  0.3933  0.1285  0.4917
  109MOL0     C14311  10.867   6.717   7.054  0.0934 -0.4261 -0.4807
  109MOL0     C14312  11.006   6.705   7.060  1.0815  0.3004  0.0948
  109MOL0     C14313  11.084   6.796   7.129  0.1184  0.1762 -0.2024
  109MOL0     O14314  11.223   6.784   7.119 -0.7396 -0.0936  0.1897
  109MOL0     C14315  11.299   6.878   7.201  0.2573 -0.2500  0.0948
  109MOL0     C14316  11.453   6.836   7.198  0.4698  0.5614 -0.5223
  109MOL0     C14317  11.555   6.943   7.245  0.0562 -0.6546  0.2602
  109MOL0     C14318  11.676   6.889   7.329 -0.2287  0.2819  0.2080
  109MOL0     C14319  11.770   6.829   7.237  0.6164 -0.5656  0.3596
  109MOL0     C14320  11.849   6.815   7.148  0.1328  0.5462  0.7468
  109MOL0     C14321  11.014   6.893   7.204 -0.0940 -0.2946 -0.0604
  109MOL0     C14322  10.871   6.916   7.182  0.2734 -1.3965  0.3523
  109MOL0     H14323  10.399   6.826   7.280  1.7019  1.3742  0.2394
  109MOL0     H14324  10.148   6.833   7.210  1.4415 -1.1635  0.8064
  109MOL0     H14325  10.038   6.969   6.808  0.8691 -0.9783  1.8655
  109MOL0     H14326  10.053   7.133   6.869  0.6968 -0.7871 -0.9462
  109MOL0     H14327   9.810   6.953   6.865  0.6960  0.0531 -4.8163
  109MOL0     H14328   9.829   7.087   6.754 -0.2963  3.9567  0.7474
  109MOL0     H14329   9.802   7.249   6.940  2.2835 -0.6048 -0.1148
  109MOL0     H14330   9.802   7.113   7.059  0.2057 -0.1242  0.0940
  109MOL0     H14331   9.603   7.132   6.828  1.1436 -0.1834 -0.8352
  109MOL0     H14332   9.606   7.019   6.964  1.4813  0.0276  0.3522
  109MOL0     H14333   9.556   7.312   6.938  0.2655  0.7039  0.5926
  109MOL0     H14334   9.623   7.258   7.094 -1.5340 -1.1204 -0.0459
  109MOL0     H14335   9.420   7.090   7.098  2.3070 -0.9670 -1.6345
  109MOL0     H14336   9.352   7.180   6.971  0.3897 -1.8654  0.1886
  109MOL0     H14337   9.265   7.265   7.198  0.7693 -1.5905  2.0956
  109MOL0     H14338   9.440   7.298   7.240  0.4212  1.3186 -0.5404
  109MOL0     H14339   9.451   7.486   7.112 -0.2507  0.6742  2.7025
  109MOL0     H14340   9.294   7.506   7.185  1.0755  0.7989  0.6728
  109MOL0     H14341   9.437   7.523   6.849 -1.1026 -0.6120 -0.7992
  109MOL0     H14342   9.335   7.590   6.623 -0.8390  1.0103 -0.8400
  109MOL0     H14343   9.173   7.523   6.575  0.2058  1.2439  0.4049
  109MOL0     H14344   9.349   7.409   6.461 -2.8373 -0.0606 -0.2704
  109MOL0     H14345   9.261   7.295   6.575 -1.0168  1.0925  0.8599
  109MOL0     H14346   9.521   7.442   6.644 -1.0891  1.2058 -1.7805
  109MOL0     H14347   9.447   7.305   6.726  0.3735 -4.7508 -1.0600
  109MOL0     H14348   9.506   7.168   6.525 -1.7724  0.3044  0.1932
  109MOL0     H14349   9.645   7.237   6.607  0.1419 -1.9814 -1.6303
  109MOL0     H14350   9.788   7.467   6.290  0.8056 -0.0188  0.4167
  109MOL0     H14351   9.983   7.389   6.176  3.5605 -3.0082 -0.1921
  109MOL0     H14352  10.229   6.791   6.272 -1.1109  2.3015  0.9962
  109MOL0     H14353  10.466   6.743   6.292  1.0338 -0.8605 -1.3208
  109MOL0     H14354  10.724   6.717   6.147  0.5258  0.8845 -1.4257
  109MOL0     H14355  10.681   6.731   6.321 -0.8115  0.9663  1.1344
  109MOL0     H14356  10.896   6.876   6.348  0.5589  0.1925 -0.5999
  109MOL0     H14357  10.927   6.844   6.178 -1.6970  2.2273  0.5934
  109MOL0     H14358  10.897   6.626   6.372  2.4204  0.8298  1.0132
  109MOL0     H14359  11.057   6.699   6.323  0.9399 -1.0000 -0.9668
  109MOL0     H14360  10.861   6.543   6.152  2.5816 -2.6271 -0.7328
  109MOL0     H14361  10.991   6.644   6.090  0.9980 -0.5168  0.3334
  109MOL0     H14362  11.046   6.418   6.291  1.0540  0.8957  0.5933
  109MOL0     H14363  11.159   6.498   6.193  0.8558 -0.1901  2.2870
  109MOL0     H14364  11.035   6.424   5.982 -0.1934 -0.9948 -0.3806
  109MOL0     H14365  10.921   6.333   6.082 -0.0413 -0.2077  1.5884
  109MOL0     H14366  11.096   6.175   5.999 -3.7581  2.0277 -1.4102
  109MOL0     H14367  11.224   6.301   6.049 -0.6443  3.2601  1.2019
  109MOL0     H14368  11.038   6.192   6.255  0.3019 -1.1984  0.3686
  109MOL0     H14369  11.205   6.245   6.282  0.6888 -0.5375 -1.2011
  109MOL0     H14370  10.554   7.113   6.076  2.6627 -0.2794  2.1737
  109MOL0     H14371  10.318   7.151   6.053  0.3958 -0.5962 -1.0957
  109MOL0     H14372   9.899   6.978   6.274  0.3811 -0.3393 -0.6735
  109MOL0     H14373   9.684   7.057   6.381 -0.7407  1.0840  0.5795
  109MOL0     H14374  10.273   7.113   6.900  1.4577  1.0441  1.7015
  109MOL0     H14375  10.499   7.086   6.966  0.7535 -0.3901  0.5835
  109MOL0     H14376  10.815   6.635   7.004 -1.1679 -1.7359  2.7032
  109MOL0     H14377  11.057   6.623   7.011  0.2503 -1.2296  1.6675
  109MOL0     H14378  11.258   6.871   7.303  0.1207 -2.6249 -0.0649
  109MOL0     H14379  11.294   6.974   7.149 -2.2060 -0.1329  0.4309
  109MOL0     H14380  11.467   6.736   7.241  1.3973 -0.1439 -2.3474
  109MOL0     H14381  11.490   6.813   7.097  1.2190  0.4624 -0.2338
  109MOL0     H14382  11.505   7.022   7.301  0.7132 -1.5231  2.1514
  109MOL0     H14383  11.595   6.987   7.153  0.2232 -0.6468  0.3358
  109MOL0     H14384  11.712   6.977   7.383 -2.9909  1.0321  1.0379
  109MOL0     H14385  11.646   6.819   7.407 -0.3312 -1.8084 -1.6179
  109MOL0     H14386  11.929   6.807   7.077  1.6442  1.2751  2.2831
  109MOL0     H14387  11.062   6.958   7.277  0.7651  0.3106 -1.1333
  109MOL0     H14388  10.824   6.994   7.241  1.4383  0.2168 -0.7604
  110MOL0     O14389   7.013   6.368   5.170  0.5517 -0.1659  0.1371
  110MOL0     C14390   7.125   6.331   5.191  0.5533  0.3160 -0.6259
  110MOL0     O14391   7.163   6.205   5.217  0.9654  0.0278  0.6347
  110MOL0     C14392   7.061   6.111   5.198  1.3765 -0.4620  1.0064
  110MOL0     C14393   6.953   6.090   5.288  0.0600  0.4095  0.3388
  110MOL0     C14394   6.853   5.988   5.269 -0.2950 -0.3136  0.5772
  110MOL0     C14395   6.856   5.935   5.134  0.4453 -0.1720 -1.0298
  110MOL0     O14396   6.759   5.845   5.091 -0.0173  0.9054  0.0113
  110MOL0     C14397   6.663   5.798   5.176 -0.7076 -1.1154  0.2322
  110MOL0     C14398   6.581   5.692   5.102 -0.3560 -0.4376  0.5866
  110MOL0     C14399   6.500   5.598   5.208 -1.0656  0.4378  0.3447
  110MOL0     C14400   6.405   5.519   5.133  0.3967  0.4146  0.4541
  110MOL0     C14401   6.295   5.468   5.225 -0.5529  0.0901 -0.1680
  110MOL0     C14402   6.353   5.375   5.327  0.6973  0.0092  1.2145
  110MOL0     C14403   6.248   5.313   5.427  0.4583  0.6091 -0.0234
  110MOL0     C14404   6.191   5.400   5.543  0.7567  0.2722 -0.4873
  110MOL0     N14405   6.271   5.379   5.660 -0.1295  0.0946  0.2494
  110MOL0     C14406   6.403   5.409   5.669 -0.5770 -0.8624  0.7331
  110MOL0     C14407   6.429   5.415   5.794 -0.6568 -0.4865 -0.3381
  110MOL0     C14408   6.561   5.434   5.867  0.4008  0.3002 -0.7580
  110MOL0     C14409   6.614   5.307   5.912 -0.3791 -0.0085  0.0451
  110MOL0     C14410   6.745   5.330   5.987  0.8023 -0.4721  0.0658
  110MOL0     C14411   6.833   5.209   6.017  0.0325  0.3964 -0.1153
  110MOL0     O14412   6.895   5.185   5.891 -0.0292  0.0416  0.4653
  110MOL0     C14413   7.037   5.193   5.872  0.1005 -0.1463  0.1810
  110MOL0     C14414   7.088   5.218   5.743  0.0003  1.0924 -0.2825
  110MOL0     C14415   7.225   5.232   5.710 -0.4739  0.3744 -0.1574
  110MOL0     C14416   7.316   5.221   5.822 -0.1933  0.5180 -1.0154
  110MOL0     C14417   7.463   5.232   5.801  0.1337 -0.2810  0.2474
  110MOL0     O14418   7.502   5.306   5.692  0.5421  0.4137 -0.3544
  110MOL0     C14419   7.636   5.334   5.653 -1.0714 -0.4288  0.0816
  110MOL0     C14420   7.757   5.324   5.726 -1.2026  0.3546 -0.5362
  110MOL0     C14421   7.880   5.350   5.663  0.3370  0.4949 -0.4177
  110MOL0     C14422   7.884   5.409   5.532  0.0874  0.3821 -0.2675
  110MOL0     O14423   8.002   5.452   5.469  0.4557  0.3122  0.5855
  110MOL0     C14424   8.125   5.429   5.540  0.1190 -0.2809 -0.1670
  110MOL0     C14425   8.251   5.434   5.448  0.0225 -1.1888 -0.3560
  110MOL0     C14426   8.267   5.572   5.386 -0.1835 -0.1142 -0.0021
  110MOL0     C14427   8.358   5.573   5.258  0.2226 -0.3298 -0.8531
  110MOL0     C14428   8.502   5.523   5.276 -0.0173  1.1840  0.0500
  110MOL0     C14429   8.576   5.530   5.140 -0.0359 -1.1139 -0.4281
  110MOL0     C14430   8.727   5.491   5.151  0.1098 -0.7205  0.2516
  110MOL0     C14431   8.745   5.341   5.163  0.5211  0.1303 -0.0340
  110MOL0    Cl14432   8.923   5.292   5.183 -0.1319  0.1412 -0.2321
  110MOL0     C14433   7.757   5.421   5.465 -0.4303  0.3425 -0.3267
  110MOL0     C14434   7.639   5.381   5.521  0.0009 -0.3483 -0.7029
  110MOL0     O14435   7.542   5.187   5.883  0.0680 -0.2452 -0.6423
  110MOL0     C14436   7.268   5.189   5.949 -0.0760 -0.5267 -0.2006
  110MOL0     C14437   7.130   5.174   5.977  0.1934 -0.1690  0.7148
  110MOL0     N14438   6.326   5.367   5.869 -0.1895 -0.6420  0.6446
  110MOL0     N14439   6.223   5.365   5.787 -0.2644 -0.5756 -0.1805
  110MOL0     C14440   6.956   5.965   5.039 -0.2858  0.1109 -1.1443
  110MOL0     C14441   7.056   6.054   5.075  1.4366  0.3058 -0.0999
  110MOL0     C14442   7.227   6.433   5.213 -0.5189  0.1831 -0.1764
  110MOL0     C14443   7.364   6.396   5.238  0.3235 -0.1283 -0.1863
  110MOL0     C14444   7.465   6.492   5.267 -0.0888  0.5201  0.5007
  110MOL0     C14445   7.424   6.633   5.263  0.6697  0.3678  0.1340
  110MOL0     O14446   7.506   6.738   5.254 -0.6406  0.7501 -0.5500
  110MOL0     C14447   7.646   6.703   5.265  0.1293  0.7381 -0.3071
  110MOL0     C14448   7.713   6.841   5.229 -1.0022  0.3313 -0.1001
  110MOL0     C14449   7.854   6.811   5.208 -0.5270  0.6212  0.0027
  110MOL0     C14450   7.952   6.929   5.174  0.1340 -0.2967  0.4964
  110MOL0     C14451   7.906   6.994   5.055 -0.3943 -0.2106  0.4018
  110MOL0     C14452   7.860   7.057   4.957  0.3567  0.3430  0.3432
  110MOL0     C14453   7.287   6.660   5.257  0.3720  0.4520 -0.0084
  110MOL0     C14454   7.191   6.566   5.221 -0.5790 -0.6972  0.6706
  110MOL0     H14455   6.955   6.151   5.378 -1.9816  2.5217 -0.9317
  110MOL0     H14456   6.776   5.962   5.342 -0.5145 -2.2890 -0.2927
  110MOL0     H14457   6.592   5.875   5.207  0.8300  0.6475 -0.4344
  110MOL0     H14458   6.718   5.751   5.258 -0.0314  0.2617  0.6031
  110MOL0     H14459   6.646   5.627   5.042  0.5017  1.3152 -0.4773
  110MOL0     H14460   6.510   5.746   5.038  0.2587 -2.8319 -2.3358
  110MOL0     H14461   6.444   5.650   5.287  2.0389  0.3762  2.8025
  110MOL0     H14462   6.572   5.537   5.263 -0.4557 -0.0158 -0.9276
  110MOL0     H14463   6.354   5.580   5.059  1.2640 -0.2285 -0.7141
  110MOL0     H14464   6.461   5.447   5.072  1.9124  3.5861 -2.2442
  110MOL0     H14465   6.210   5.413   5.183 -0.5257 -0.3649  0.3605
  110MOL0     H14466   6.258   5.563   5.266  2.8774  0.6680  1.9448
  110MOL0     H14467   6.426   5.429   5.387  0.3662  0.2023  1.4412
  110MOL0     H14468   6.412   5.295   5.280  2.0306  1.1801  0.8157
  110MOL0     H14469   6.166   5.284   5.360  2.7685 -0.2117 -2.6486
  110MOL0     H14470   6.280   5.221   5.477 -1.6926  1.5337  3.4308
  110MOL0     H14471   6.090   5.361   5.559  1.7469 -1.3147  3.0657
  110MOL0     H14472   6.190   5.507   5.520  1.6592 -0.3534 -4.0747
  110MOL0     H14473   6.471   5.425   5.586 -0.8217  0.3460  0.7473
  110MOL0     H14474   6.545   5.493   5.958  0.1396 -2.8435  1.4026
  110MOL0     H14475   6.623   5.481   5.791 -2.2821  0.7815 -2.8074
  110MOL0     H14476   6.639   5.248   5.823  0.8838 -1.1634  1.1336
  110MOL0     H14477   6.537   5.259   5.973 -0.8800  0.5405 -0.1427
  110MOL0     H14478   6.809   5.403   5.935  0.4131  0.2259  0.5492
  110MOL0     H14479   6.711   5.379   6.079 -1.1116  0.8649 -1.2680
  110MOL0     H14480   6.763   5.128   6.041  0.2299  0.2436 -0.0575
  110MOL0     H14481   6.900   5.236   6.098 -0.1990  3.6360 -0.8865
  110MOL0     H14482   7.017   5.228   5.662  0.7003  4.1387 -0.6408
  110MOL0     H14483   7.270   5.250   5.612 -1.0367 -0.0509 -0.5047
  110MOL0     H14484   7.760   5.278   5.824  0.0846  0.6991 -0.3943
  110MOL0     H14485   7.963   5.323   5.727  0.8290 -1.6716 -1.8417
  110MOL0     H14486   8.116   5.333   5.591 -1.7549  0.1275  0.3804
  110MOL0     H14487   8.135   5.504   5.619  0.8984  2.5008 -2.7058
  110MOL0     H14488   8.228   5.363   5.368 -0.3455 -1.4420 -0.0322
  110MOL0     H14489   8.346   5.400   5.489  1.9012  0.7194 -2.7676
  110MOL0     H14490   8.305   5.649   5.455  0.9904  1.4358 -2.2736
  110MOL0     H14491   8.168   5.599   5.347 -0.4028 -3.4311 -2.0818
  110MOL0     H14492   8.314   5.523   5.171  2.1028  1.2207 -2.7748
  110MOL0     H14493   8.366   5.676   5.224  1.1528  1.2551  3.5231
  110MOL0     H14494   8.507   5.419   5.310  1.2299  0.6157 -1.7116
  110MOL0     H14495   8.553   5.582   5.353  3.2263  0.8592 -1.6652
  110MOL0     H14496   8.567   5.633   5.104 -0.0355 -0.5740  1.0345
  110MOL0     H14497   8.526   5.461   5.072  0.5383 -0.5660 -1.4288
  110MOL0     H14498   8.779   5.531   5.063 -0.5836  0.0489  0.1813
  110MOL0     H14499   8.772   5.536   5.240  2.8517 -2.0213 -0.3952
  110MOL0     H14500   8.701   5.296   5.074 -1.9881  2.1412  0.0625
  110MOL0     H14501   8.678   5.309   5.244 -0.7199  2.1399 -0.1797
  110MOL0     H14502   7.763   5.463   5.365  0.2441 -1.1112 -0.9382
  110MOL0     H14503   7.549   5.386   5.461 -0.0659 -1.0802 -0.6709
  110MOL0     H14504   7.326   5.179   6.040  0.6362  1.0060 -0.4635
  110MOL0     H14505   7.091   5.148   6.074 -1.1886 -2.5226 -0.3910
  110MOL0     H14506   6.972   5.915   4.943 -0.8565 -0.5019 -0.9219
  110MOL0     H14507   7.134   6.082   5.004  0.8896 -0.1588 -0.9078
  110MOL0     H14508   7.389   6.290   5.242 -0.6963 -0.3418  1.3045
  110MOL0     H14509   7.566   6.452   5.270 -0.9284 -1.7072  2.4193
  110MOL0     H14510   7.671   6.638   5.181 -0.8898  1.8660 -1.5240
  110MOL0     H14511   7.674   6.658   5.361 -0.2582 -1.4715 -1.1684
  110MOL0     H14512   7.684   6.889   5.134  0.7343 -2.5731 -2.2683
  110MOL0     H14513   7.691   6.908   5.312 -2.8635  2.7737 -2.3696
  110MOL0     H14514   7.863   6.733   5.131  1.3353  0.8131 -0.0254
  110MOL0     H14515   7.882   6.773   5.307 -2.0740  2.5696  1.2677
  110MOL0     H14516   7.951   7.011   5.247 -2.1490  0.3782 -0.2282
  110MOL0     H14517   8.053   6.888   5.165 -0.4786 -1.3452 -2.2685
  110MOL0     H14518   7.828   7.120   4.877  1.0406  1.8848  1.2380
  110MOL0     H14519   7.253   6.763   5.264  1.6899  0.9462 -0.4995
  110MOL0     H14520   7.093   6.603   5.195  0.8454  2.1993 -1.1902
  111MOL0     O14521   5.822   6.809   4.114 -0.0291  0.0023  0.6087
  111MOL0     C14522   5.897   6.811   4.212 -0.4368  0.4949  0.7551
  111MOL0     O14523   5.890   6.721   4.313 -0.4165  0.8078  0.7578
  111MOL0     C14524   5.791   6.629   4.326  0.3103 -0.5892  0.2267
  111MOL0     C14525   5.653   6.663   4.328  0.3430  0.4327 -0.2773
  111MOL0     C14526   5.555   6.557   4.347 -0.4256 -1.1457  0.1898
  111MOL0     C14527   5.589   6.428   4.369  0.3849 -0.4264 -0.6233
  111MOL0     O14528   5.495   6.332   4.378 -0.1833  0.3905  0.5382
  111MOL0     C14529   5.382   6.370   4.461  0.4380  1.2994 -0.8834
  111MOL0     C14530   5.293   6.233   4.479 -0.2673 -0.2347  0.3622
  111MOL0     C14531   5.203   6.252   4.608  0.6566  0.1210 -0.3645
  111MOL0     C14532   5.103   6.138   4.622 -0.1034 -0.1501 -0.0481
  111MOL0     C14533   4.995   6.157   4.729 -0.3558 -0.1632  0.9627
  111MOL0     C14534   4.907   6.280   4.698 -0.0203 -0.1676  0.3115
  111MOL0     C14535   4.798   6.312   4.801  0.5871  0.9560  0.5883
  111MOL0     C14536   4.838   6.304   4.944 -0.4205 -0.2532 -0.4683
  111MOL0     N14537   4.725   6.346   5.018 -0.1638 -0.4419  0.2581
  111MOL0     C14538   4.695   6.468   5.074  0.4675  0.3991 -0.1778
  111MOL0     C14539   4.570   6.454   5.122 -0.6146  0.7509  0.2044
  111MOL0     C14540   4.496   6.556   5.200  0.0990  0.1605  0.1079
  111MOL0     C14541   4.530   6.556   5.356  0.7259 -0.2716  1.0400
  111MOL0     C14542   4.431   6.650   5.422 -0.5639 -0.9645 -0.1044
  111MOL0     C14543   4.315   6.568   5.474  0.1461 -0.4427  0.3382
  111MOL0     O14544   4.213   6.665   5.501  0.7162  0.3470  0.0566
  111MOL0     C14545   4.093   6.656   5.442  0.0053 -0.2870  0.2034
  111MOL0     C14546   4.070   6.661   5.306  0.6310 -0.2600 -0.1867
  111MOL0     C14547   3.936   6.671   5.260 -0.0212 -0.5847 -0.6430
  111MOL0     C14548   3.822   6.680   5.346  0.0743  0.4567 -0.3196
  111MOL0     C14549   3.685   6.695   5.296  1.0774 -0.5937  0.1111
  111MOL0     O14550   3.588   6.668   5.388 -0.4182 -1.2090  1.1062
  111MOL0     C14551   3.459   6.693   5.361  0.3913  0.1160  0.0689
  111MOL0     C14552   3.407   6.807   5.297  0.5277  0.5977 -0.2385
  111MOL0     C14553   3.271   6.836   5.298  0.0083  0.4153  0.0735
  111MOL0     C14554   3.176   6.755   5.362  0.6714  0.5219  0.0433
  111MOL0     O14555   3.038   6.780   5.370  0.2758  0.2656 -0.5605
  111MOL0     C14556   2.970   6.809   5.245  0.3382  0.2177  0.1912
  111MOL0     C14557   2.869   6.701   5.229 -0.9185  0.3465 -0.1249
  111MOL0     C14558   2.763   6.715   5.342 -0.5278  0.5806 -1.3617
  111MOL0     C14559   2.638   6.636   5.307 -0.4200 -0.1509 -0.5996
  111MOL0     C14560   2.543   6.646   5.429 -0.7723 -1.0317 -0.5305
  111MOL0     C14561   2.408   6.583   5.400 -0.3255  0.3032  0.1388
  111MOL0     C14562   2.320   6.683   5.325  1.5301  0.2549  0.1910
  111MOL0     C14563   2.194   6.618   5.247 -0.8829 -0.9446 -0.6694
  111MOL0    Cl14564   2.255   6.536   5.096 -0.3008  1.0411  0.3441
  111MOL0     C14565   3.232   6.641   5.426 -0.7393 -0.4834  0.6741
  111MOL0     C14566   3.366   6.612   5.429 -0.4229  0.2897 -1.2112
  111MOL0     O14567   3.669   6.730   5.177  0.1947 -0.6094  0.9080
  111MOL0     C14568   3.850   6.673   5.485 -0.4370 -0.2828 -0.2017
  111MOL0     C14569   3.987   6.656   5.534  0.2446 -0.8782 -0.7231
  111MOL0     N14570   4.514   6.334   5.093  0.0506 -0.3427  0.5955
  111MOL0     N14571   4.614   6.264   5.039 -0.1990 -0.0555  0.4894
  111MOL0     C14572   5.725   6.400   4.369  0.5171  0.3381 -0.0392
  111MOL0     C14573   5.828   6.495   4.340  0.6520 -0.0072 -0.5998
  111MOL0     C14574   6.013   6.901   4.208 -0.1957  0.1254  0.4977
  111MOL0     C14575   6.052   6.956   4.083  0.2125  1.2841 -0.4615
  111MOL0     C14576   6.178   7.027   4.074 -0.3065  0.9243 -0.3528
  111MOL0     C14577   6.250   7.055   4.188 -0.1473  0.5937 -0.3523
  111MOL0     O14578   6.362   7.125   4.167 -0.4222  0.6736 -0.5980
  111MOL0     C14579   6.427   7.194   4.276 -0.3922  0.4248 -0.5839
  111MOL0     C14580   6.521   7.296   4.223  0.2233 -0.2059 -0.3645
  111MOL0     C14581   6.629   7.341   4.319  0.0267 -0.2768  0.1904
  111MOL0     C14582   6.739   7.421   4.243  0.3886 -0.0020  0.4316
  111MOL0     C14583   6.688   7.552   4.228 -0.5380  0.5162 -0.3176
  111MOL0     C14584   6.636   7.661   4.227  0.2804  0.1037  0.2104
  111MOL0     C14585   6.217   6.997   4.314 -0.2688  0.2298  0.1301
  111MOL0     C14586   6.099   6.925   4.324  0.7962 -0.3129  0.2757
  111MOL0     H14587   5.622   6.762   4.296 -1.6767 -0.2806 -0.6702
  111MOL0     H14588   5.450   6.583   4.340 -0.5509 -1.4694  0.7402
  111MOL0     H14589   5.309   6.442   4.425  1.4954  3.4310  0.9466
  111MOL0     H14590   5.420   6.416   4.553 -1.0540 -0.9864  0.9886
  111MOL0     H14591   5.366   6.152   4.480 -1.9157 -1.8626 -1.4967
  111MOL0     H14592   5.216   6.211   4.404  1.9347 -0.8549 -1.8497
  111MOL0     H14593   5.149   6.343   4.579 -1.4905 -1.4897 -1.7808
  111MOL0     H14594   5.261   6.261   4.700  2.0910 -0.7967 -1.1560
  111MOL0     H14595   5.049   6.142   4.527  1.6731  0.1477 -1.0803
  111MOL0     H14596   5.158   6.044   4.633  0.6434  0.2417 -0.4070
  111MOL0     H14597   5.030   6.168   4.832 -1.8411 -0.6281  1.5428
  111MOL0     H14598   4.929   6.070   4.722 -0.3744 -0.1069  0.4008
  111MOL0     H14599   4.845   6.264   4.609 -0.5371 -0.3391  0.7019
  111MOL0     H14600   4.972   6.367   4.688 -1.5727  0.9650 -0.3351
  111MOL0     H14601   4.763   6.414   4.780  4.1460  2.1148 -0.4532
  111MOL0     H14602   4.722   6.234   4.793  3.0354 -1.3820 -1.7679
  111MOL0     H14603   4.925   6.369   4.960 -0.5829 -0.5098  1.6362
  111MOL0     H14604   4.872   6.204   4.970  0.8891  0.3630  0.3045
  111MOL0     H14605   4.756   6.557   5.074 -0.3430  0.9675 -0.2846
  111MOL0     H14606   4.390   6.529   5.191  0.0872  0.3408 -0.3289
  111MOL0     H14607   4.509   6.654   5.154  0.1785  0.4590  0.7524
  111MOL0     H14608   4.635   6.581   5.376  2.3008 -2.4711 -3.1604
  111MOL0     H14609   4.508   6.457   5.397 -0.4334  0.6410  2.7133
  111MOL0     H14610   4.483   6.705   5.501 -1.5655 -0.9992  0.5908
  111MOL0     H14611   4.396   6.729   5.355  2.0505 -1.1801 -1.8680
  111MOL0     H14612   4.346   6.507   5.559  1.2673 -2.6289 -1.4972
  111MOL0     H14613   4.287   6.501   5.392  1.6209 -2.1844  1.1781
  111MOL0     H14614   4.154   6.653   5.238  1.2098 -1.6728  0.6596
  111MOL0     H14615   3.913   6.666   5.154  0.5632  0.2628 -0.8145
  111MOL0     H14616   3.473   6.878   5.246  0.4530 -0.9992 -2.7162
  111MOL0     H14617   3.235   6.931   5.260  0.8070  0.7351  0.0935
  111MOL0     H14618   3.036   6.806   5.157  2.6450 -0.2623  1.8506
  111MOL0     H14619   2.916   6.903   5.251 -3.5640 -1.6139 -2.3625
  111MOL0     H14620   2.918   6.604   5.222 -1.9182 -0.0403 -3.9823
  111MOL0     H14621   2.818   6.707   5.132  1.0180  0.8484 -1.1660
  111MOL0     H14622   2.746   6.821   5.364  0.1385  0.8291 -2.0460
  111MOL0     H14623   2.811   6.668   5.429  1.4295  2.4791 -1.3496
  111MOL0     H14624   2.596   6.676   5.214 -1.2156 -3.3723 -1.7464
  111MOL0     H14625   2.666   6.531   5.295  2.3643  0.7148 -2.6968
  111MOL0     H14626   2.532   6.749   5.461  2.2050 -0.5047 -0.9170
  111MOL0     H14627   2.595   6.590   5.507  0.2781  1.6109  0.7530
  111MOL0     H14628   2.376   6.547   5.498  1.3125 -0.9402  0.2622
  111MOL0     H14629   2.411   6.497   5.332 -4.3271 -0.2958  0.4414
  111MOL0     H14630   2.285   6.762   5.392  0.2170  2.0060 -2.3870
  111MOL0     H14631   2.389   6.728   5.252  0.6802 -1.0374 -1.4953
  111MOL0     H14632   2.141   6.710   5.220 -1.3098 -0.4977  1.5049
  111MOL0     H14633   2.143   6.543   5.309 -0.1274 -2.6668 -2.0241
  111MOL0     H14634   3.178   6.578   5.496  1.4375 -1.6673  1.3802
  111MOL0     H14635   3.393   6.528   5.491 -2.1192  1.2373  0.9595
  111MOL0     H14636   3.767   6.678   5.554  1.8164  1.0475  2.5855
  111MOL0     H14637   3.997   6.646   5.641 -2.0962  0.9226 -0.2487
  111MOL0     H14638   5.760   6.298   4.382 -0.0643  0.1962  0.4646
  111MOL0     H14639   5.935   6.476   4.332  1.0358  1.9648 -0.6170
  111MOL0     H14640   5.994   6.953   3.992 -2.4646 -0.9860  1.1870
  111MOL0     H14641   6.224   7.048   3.978 -0.0533 -0.9192 -0.6641
  111MOL0     H14642   6.477   7.125   4.344 -1.2854  1.2137  0.9273
  111MOL0     H14643   6.353   7.249   4.335 -1.2773 -1.1380 -0.1766
  111MOL0     H14644   6.570   7.253   4.135  1.7819 -0.5143  0.6062
  111MOL0     H14645   6.452   7.372   4.186  0.3246 -1.7205 -4.0399
  111MOL0     H14646   6.678   7.252   4.360  3.6908  1.6331  0.3613
  111MOL0     H14647   6.582   7.391   4.403 -0.7050 -0.9483  0.1871
  111MOL0     H14648   6.833   7.416   4.300 -0.2780  0.7504  1.6471
  111MOL0     H14649   6.760   7.389   4.141  0.5210  1.4995 -0.0335
  111MOL0     H14650   6.584   7.754   4.238  0.3963  0.1212  0.6689
  111MOL0     H14651   6.292   7.002   4.392  0.5551  0.3386 -0.6579
  111MOL0     H14652   6.068   6.888   4.421 -0.7075 -0.2923 -0.1655
  112MOL0     O14653   9.605   4.952  11.065  0.5199 -0.3264  0.5094
  112MOL0     C14654   9.658   5.037  11.137 -0.5065 -0.5248 -0.3106
  112MOL0     O14655   9.594   5.142  11.207  0.3736  0.2438 -0.2875
  112MOL0     C14656   9.461   5.153  11.210  0.3222 -0.0368 -0.0859
  112MOL0     C14657   9.381   5.045  11.249  0.3422  0.0446  0.1523
  112MOL0     C14658   9.238   5.062  11.241 -0.5147 -0.0342  0.6068
  112MOL0     C14659   9.181   5.190  11.220 -0.7531 -0.6479 -0.8072
  112MOL0     O14660   9.049   5.229  11.231 -0.0568  0.0499  0.4232
  112MOL0     C14661   8.958   5.121  11.196 -0.4842 -0.7121  0.1867
  112MOL0     C14662   8.819   5.174  11.177 -0.8520 -0.5561 -0.8438
  112MOL0     C14663   8.722   5.075  11.114  0.4894  0.2540 -0.0897
  112MOL0     C14664   8.585   5.138  11.093 -0.7453  0.1762  0.1064
  112MOL0     C14665   8.473   5.047  11.041  0.7857 -0.1297  0.0147
  112MOL0     C14666   8.490   4.989  10.899  0.3941  0.2269  0.7994
  112MOL0     C14667   8.364   4.936  10.843 -0.2221  0.3904  0.2031
  112MOL0     C14668   8.391   4.860  10.708 -0.2987 -0.4942  0.7294
  112MOL0     N14669   8.469   4.936  10.602 -0.1706  0.1971 -0.6943
  112MOL0     C14670   8.417   5.016  10.503  0.6933  0.8966 -0.1034
  112MOL0     C14671   8.518   5.032  10.416 -0.0421 -0.8494  0.7979
  112MOL0     C14672   8.504   5.097  10.277 -1.1483 -0.1055 -0.6059
  112MOL0     C14673   8.387   5.042  10.198  0.5244  0.1830 -0.2528
  112MOL0     C14674   8.411   5.089  10.052  1.0765  0.2259  0.7666
  112MOL0     C14675   8.305   5.048   9.950  1.3528 -0.1074 -0.0754
  112MOL0     O14676   8.177   5.101   9.993 -0.8556 -0.0041  0.0392
  112MOL0     C14677   8.057   5.058   9.933 -0.9604 -1.2248 -0.6204
  112MOL0     C14678   8.042   4.987   9.820  0.5356  0.5803  0.3792
  112MOL0     C14679   7.915   4.949   9.774  0.0921 -0.4831  0.2197
  112MOL0     C14680   7.800   4.989   9.849 -0.0317  0.5077 -0.2331
  112MOL0     C14681   7.670   4.962   9.791 -0.8025 -0.5868  0.3345
  112MOL0     O14682   7.571   5.062   9.814  0.3481  0.7735 -0.7840
  112MOL0     C14683   7.451   5.034   9.760  0.5011  0.5171 -0.0232
  112MOL0     C14684   7.382   4.913   9.792  1.4813  0.2075 -0.1362
  112MOL0     C14685   7.262   4.884   9.721 -0.5320 -0.4023  0.8033
  112MOL0     C14686   7.224   4.969   9.611 -0.4786  0.4529  0.3085
  112MOL0     O14687   7.111   4.933   9.532 -0.3323  0.3669  0.0296
  112MOL0     C14688   7.076   5.026   9.424 -0.3750  0.4358 -0.8522
  112MOL0     C14689   6.976   4.952   9.325 -0.8440  0.4223  0.6475
  112MOL0     C14690   6.844   4.924   9.388  0.4687  0.2819 -0.9358
  112MOL0     C14691   6.741   4.858   9.300 -0.0759 -0.9550  0.0586
  112MOL0     C14692   6.609   4.843   9.379 -0.8386 -0.4906  0.0414
  112MOL0     C14693   6.498   4.789   9.296 -0.2370  0.0385  0.7214
  112MOL0     C14694   6.438   4.896   9.197  0.4287  0.0918 -0.3803
  112MOL0     C14695   6.356   4.838   9.084  0.7041  0.0601 -0.3091
  112MOL0    Cl14696   6.248   4.707   9.151  0.2432 -0.4478  0.2415
  112MOL0     C14697   7.306   5.078   9.586  0.2481  0.2539  0.7898
  112MOL0     C14698   7.407   5.115   9.663 -0.3488 -0.7687 -0.4044
  112MOL0     O14699   7.661   4.859   9.723  0.2084 -0.9408  0.7501
  112MOL0     C14700   7.811   5.060   9.968  0.3727  0.0739 -0.1880
  112MOL0     C14701   7.943   5.102  10.001  0.5352 -0.2674 -0.4764
  112MOL0     N14702   8.627   4.961  10.456  0.6466  0.3688  0.1323
  112MOL0     N14703   8.596   4.904  10.570 -0.5158 -0.6399 -0.2167
  112MOL0     C14704   9.263   5.296  11.197 -0.6271 -0.3292 -0.8802
  112MOL0     C14705   9.400   5.282  11.182 -0.7645  0.7634  0.7902
  112MOL0     C14706   9.803   5.049  11.116 -0.4470  0.0408  0.6299
  112MOL0     C14707   9.882   4.964  11.037  0.8719  0.5470 -0.5205
  112MOL0     C14708  10.016   4.980  11.018  0.1462  0.8654  0.3467
  112MOL0     C14709  10.086   5.079  11.081  0.8679  0.2745  0.9611
  112MOL0     O14710  10.219   5.104  11.057 -0.2860  0.2826 -0.1679
  112MOL0     C14711  10.277   5.061  10.933  1.1632 -0.4993  1.0464
  112MOL0     C14712  10.343   5.174  10.856  0.3125  0.3219 -0.6400
  112MOL0     C14713  10.473   5.236  10.929  0.4924  1.0935 -0.0327
  112MOL0     C14714  10.598   5.235  10.845 -0.0549  0.3929 -0.5915
  112MOL0     C14715  10.669   5.105  10.854  0.4976 -0.3133 -0.1789
  112MOL0     C14716  10.714   4.992  10.824  0.2835  0.2443 -0.5474
  112MOL0     C14717  10.014   5.168  11.157  0.4738  0.6573 -0.8096
  112MOL0     C14718   9.871   5.153  11.178 -0.4617 -0.1435  0.2126
  112MOL0     H14719   9.412   4.941  11.246  1.3756  0.3034 -3.0505
  112MOL0     H14720   9.182   4.979  11.283  2.5899 -2.6117  0.0204
  112MOL0     H14721   8.963   5.040  11.270  1.6385 -0.7239  0.0889
  112MOL0     H14722   8.981   5.086  11.095 -2.4914 -1.5255 -0.0407
  112MOL0     H14723   8.816   5.265  11.116 -0.0353 -1.0465 -1.6283
  112MOL0     H14724   8.771   5.199  11.272 -0.9125 -0.4792 -0.8936
  112MOL0     H14725   8.709   4.999  11.191 -2.2678  0.8823  0.1597
  112MOL0     H14726   8.764   5.035  11.020 -0.8892  1.7670 -1.4139
  112MOL0     H14727   8.558   5.163  11.196 -1.4394 -1.2924  0.3074
  112MOL0     H14728   8.598   5.224  11.027  1.4039 -1.4816 -1.8310
  112MOL0     H14729   8.386   5.110  11.058  1.2388  1.1451 -1.9378
  112MOL0     H14730   8.471   4.970  11.118 -1.0770  1.0984  1.2681
  112MOL0     H14731   8.560   4.905  10.905  0.8545  0.6493  1.4793
  112MOL0     H14732   8.535   5.061  10.830 -0.2834  0.3774  0.5084
  112MOL0     H14733   8.310   4.865  10.907  2.0811  1.6806  3.8775
  112MOL0     H14734   8.289   5.014  10.825  1.8646  2.3827 -0.2520
  112MOL0     H14735   8.292   4.837  10.667 -0.4064 -1.4134  1.4742
  112MOL0     H14736   8.446   4.767  10.724  0.7850 -0.1607 -0.8027
  112MOL0     H14737   8.315   5.054  10.505 -0.6004 -2.2557  2.0036
  112MOL0     H14738   8.602   5.074  10.234  1.1376 -0.0722  4.0127
  112MOL0     H14739   8.515   5.206  10.279  0.3868 -0.2067 -1.8395
  112MOL0     H14740   8.300   5.087  10.248  0.7955 -0.7239  1.0731
  112MOL0     H14741   8.364   4.935  10.204  1.4631 -0.1286 -1.6388
  112MOL0     H14742   8.419   5.198  10.050  0.6701  0.2704 -1.4986
  112MOL0     H14743   8.507   5.047  10.019  1.4914  0.9535  1.0303
  112MOL0     H14744   8.297   4.939   9.945  1.7066 -0.2530  1.6363
  112MOL0     H14745   8.336   5.087   9.853  1.5387 -0.0768 -0.0033
  112MOL0     H14746   8.135   4.961   9.770  0.1180  0.4924 -0.3510
  112MOL0     H14747   7.906   4.889   9.684  2.0443  0.2022 -0.4765
  112MOL0     H14748   7.426   4.853   9.871  1.9326  0.9886  0.2184
  112MOL0     H14749   7.199   4.798   9.743 -1.7509  0.1660 -0.3167
  112MOL0     H14750   7.166   5.051   9.369  0.6650  2.5207  1.5667
  112MOL0     H14751   7.030   5.121   9.454 -0.0887  0.7445 -1.3868
  112MOL0     H14752   7.027   4.859   9.301  0.7933  1.2967  0.6053
  112MOL0     H14753   6.951   5.009   9.234 -1.4749 -3.0502 -1.5314
  112MOL0     H14754   6.803   5.013   9.437  0.4031 -1.1925  1.9200
  112MOL0     H14755   6.877   4.858   9.468  1.2285  2.0044  0.2383
  112MOL0     H14756   6.716   4.921   9.214  0.2585  0.7758  1.1886
  112MOL0     H14757   6.776   4.760   9.266 -3.1683 -2.5827  1.2341
  112MOL0     H14758   6.581   4.940   9.420  1.2924  1.4148 -2.6521
  112MOL0     H14759   6.638   4.772   9.457  3.2708  3.1233  2.2513
  112MOL0     H14760   6.414   4.759   9.359  0.6236 -0.7331  1.5300
  112MOL0     H14761   6.524   4.704   9.233 -0.0310  1.1874 -0.8042
  112MOL0     H14762   6.378   4.962   9.259  0.3884  0.1182 -0.4466
  112MOL0     H14763   6.505   4.972   9.155  0.1745  0.4264 -0.1782
  112MOL0     H14764   6.419   4.791   9.008  0.4420  0.1883 -0.6085
  112MOL0     H14765   6.301   4.920   9.036 -2.0036 -0.0460  2.2716
  112MOL0     H14766   7.273   5.139   9.502 -2.0782 -2.8920 -0.7972
  112MOL0     H14767   7.462   5.207   9.648 -2.7805  0.2369 -4.7760
  112MOL0     H14768   7.721   5.086  10.021 -2.0705  1.5946 -4.5557
  112MOL0     H14769   7.956   5.167  10.087  2.3729 -3.4246  1.8588
  112MOL0     H14770   9.211   5.391  11.190 -0.4736 -0.2608 -1.1190
  112MOL0     H14771   9.457   5.371  11.157 -1.4059  0.4880 -2.1060
  112MOL0     H14772   9.834   4.881  10.986  0.7729 -0.7906  1.6133
  112MOL0     H14773  10.071   4.908  10.959  7.2761  2.8476  3.4307
  112MOL0     H14774  10.199   5.025  10.866  1.5920 -1.4081  1.0227
  112MOL0     H14775  10.334   4.968  10.935 -2.4949 -3.0228 -0.5435
  112MOL0     H14776  10.361   5.138  10.754 -2.1596  1.2480 -1.5085
  112MOL0     H14777  10.269   5.254  10.843 -0.6212  0.0329  2.1514
  112MOL0     H14778  10.490   5.173  11.017  0.4690 -0.0323 -0.8068
  112MOL0     H14779  10.449   5.338  10.959 -0.7198  1.9324 -3.3652
  112MOL0     H14780  10.579   5.267  10.742  0.3444 -0.1790 -0.8484
  112MOL0     H14781  10.649   5.321  10.889 -3.3311  2.5932 -0.6954
  112MOL0     H14782  10.757   4.895  10.811 -0.1169 -0.3110  1.7492
  112MOL0     H14783  10.075   5.247  11.199  1.8595  0.3325 -2.1038
  112MOL0     H14784   9.815   5.215  11.246  2.0495 -1.1204  3.4439
  113MOL0     O14785   9.593   9.334   5.687  0.1899  0.2911 -0.0703
  113MOL0     C14786   9.589   9.423   5.774  0.2698  0.0379  0.0491
  113MOL0     O14787   9.682   9.526   5.792  0.0631 -0.2729  0.5585
  113MOL0     C14788   9.787   9.519   5.701  0.2716  0.0912  0.5695
  113MOL0     C14789   9.785   9.579   5.576 -0.3167 -0.1660 -0.8590
  113MOL0     C14790   9.895   9.573   5.488 -0.0983  0.3330  0.5280
  113MOL0     C14791  10.019   9.529   5.540  0.0508  0.3690  0.3685
  113MOL0     O14792  10.120   9.531   5.446  0.3664  0.0671 -0.0869
  113MOL0     C14793  10.241   9.455   5.478 -0.5124  0.9614 -0.0679
  113MOL0     C14794  10.347   9.457   5.365  0.9731 -0.6033 -0.7240
  113MOL0     C14795  10.422   9.587   5.369  0.2106  0.1407  0.6570
  113MOL0     C14796  10.498   9.609   5.232 -2.0760  0.7992 -0.6290
  113MOL0     C14797  10.639   9.679   5.249 -0.2405  0.6371 -0.2241
  113MOL0     C14798  10.627   9.812   5.326  0.3973 -0.1693 -0.3923
  113MOL0     C14799  10.554   9.914   5.236 -0.4061  0.5363 -0.9225
  113MOL0     C14800  10.537  10.048   5.310 -0.8715 -0.6537  0.7675
  113MOL0     N14801  10.480  10.045   5.445 -0.0965 -0.3996  0.2414
  113MOL0     C14802  10.378   9.989   5.491  0.0009  0.4373  1.1828
  113MOL0     C14803  10.387  10.000   5.623 -0.0294 -0.7557 -0.9317
  113MOL0     C14804  10.304   9.927   5.722 -0.0351  0.7358 -0.4449
  113MOL0     C14805  10.324   9.776   5.700 -0.3155  0.2177  0.0717
  113MOL0     C14806  10.298   9.678   5.815 -0.6349 -0.3621  0.2798
  113MOL0     C14807  10.159   9.696   5.866  0.1168  0.1992 -0.6472
  113MOL0     O14808  10.116   9.594   5.963  0.2864  0.0394  0.0123
  113MOL0     C14809  10.003   9.619   6.040  0.8925 -0.7002  0.4060
  113MOL0     C14810   9.981   9.513   6.125 -0.0507  0.8942  0.2914
  113MOL0     C14811   9.864   9.507   6.204 -0.3451  0.2642 -0.2269
  113MOL0     C14812   9.777   9.615   6.203  0.0109  0.1982  0.4793
  113MOL0     C14813   9.651   9.618   6.279  0.1752 -1.2242  0.0079
  113MOL0     O14814   9.644   9.528   6.383 -0.7843  0.2351  0.7437
  113MOL0     C14815   9.531   9.499   6.448 -0.4833 -0.2325 -0.6094
  113MOL0     C14816   9.446   9.602   6.494  0.2180 -0.1277 -0.2675
  113MOL0     C14817   9.331   9.571   6.565  0.3804  0.1308 -0.7184
  113MOL0     C14818   9.287   9.444   6.581  0.2872 -0.5535  0.7591
  113MOL0     O14819   9.161   9.430   6.639 -1.1079  0.0711 -0.6140
  113MOL0     C14820   9.092   9.308   6.615  0.5447 -0.5819  0.7205
  113MOL0     C14821   9.121   9.199   6.725 -0.7125 -0.1397 -0.5402
  113MOL0     C14822   9.054   9.225   6.860 -0.3536 -0.2583 -1.1165
  113MOL0     C14823   9.109   9.126   6.966 -0.5507  0.8496 -0.0345
  113MOL0     C14824   9.065   9.149   7.110 -1.2514 -0.0084  1.0499
  113MOL0     C14825   9.172   9.097   7.205 -0.9631  0.5649  0.5380
  113MOL0     C14826   9.208   8.950   7.183 -0.6237 -0.0275  0.0749
  113MOL0     C14827   9.276   8.880   7.303 -0.2987  0.1279 -0.5421
  113MOL0    Cl14828   9.303   8.708   7.267 -0.6208  0.5074 -0.1022
  113MOL0     C14829   9.368   9.335   6.530  0.2745 -0.2242  0.0222
  113MOL0     C14830   9.489   9.364   6.463  0.1103  0.2716 -0.6343
  113MOL0     O14831   9.556   9.688   6.243  0.7720 -0.8462  0.0473
  113MOL0     C14832   9.797   9.710   6.106 -0.4125 -0.3956  0.2043
  113MOL0     C14833   9.914   9.728   6.030 -0.3850 -0.5153  0.2526
  113MOL0     N14834  10.506  10.069   5.661  1.0538 -0.4263  0.5344
  113MOL0     N14835  10.551  10.113   5.544  0.0375  0.0942  0.4760
  113MOL0     C14836  10.024   9.478   5.667  0.2838  0.3755 -0.2958
  113MOL0     C14837   9.910   9.472   5.742 -0.1529 -0.1387 -0.8476
  113MOL0     C14838   9.474   9.412   5.865 -0.2919 -0.4981 -1.0538
  113MOL0     C14839   9.452   9.514   5.964  0.1622 -0.5534  0.4777
  113MOL0     C14840   9.357   9.507   6.056 -0.7058  0.3832 -0.9296
  113MOL0     C14841   9.256   9.407   6.043 -0.3274  0.2354  0.3198
  113MOL0     O14842   9.146   9.403   6.116  0.1679  0.4041  0.0709
  113MOL0     C14843   9.168   9.326   6.238 -1.0484  0.5187 -0.1072
  113MOL0     C14844   9.154   9.166   6.225  0.2267  0.0860  0.8327
  113MOL0     C14845   9.003   9.107   6.204 -0.3235 -0.3206 -0.0175
  113MOL0     C14846   9.011   8.958   6.178  0.7076  0.0039  0.2148
  113MOL0     C14847   8.873   8.917   6.173 -0.6671 -0.5433  0.0182
  113MOL0     C14848   8.758   8.886   6.166  1.0811 -0.3603  0.0007
  113MOL0     C14849   9.271   9.316   5.942  0.2676  0.0964  0.0230
  113MOL0     C14850   9.377   9.313   5.858  0.2143 -0.6516 -0.6873
  113MOL0     H14851   9.691   9.626   5.550 -0.8866  1.5158  3.3821
  113MOL0     H14852   9.889   9.614   5.388  0.6593  1.1889  0.8083
  113MOL0     H14853  10.207   9.357   5.511 -1.4899  1.8816  1.8298
  113MOL0     H14854  10.274   9.507   5.568 -0.9272  1.2640 -0.0868
  113MOL0     H14855  10.298   9.461   5.267  2.0323  0.0875 -1.2469
  113MOL0     H14856  10.411   9.369   5.367  1.4300 -0.2691  0.7690
  113MOL0     H14857  10.488   9.598   5.457 -0.5746  2.2791  1.0544
  113MOL0     H14858  10.353   9.671   5.382 -0.6887 -0.3274 -0.8975
  113MOL0     H14859  10.526   9.510   5.194 -0.3817  0.9367  0.1517
  113MOL0     H14860  10.432   9.647   5.154 -3.0887  2.6714  1.0569
  113MOL0     H14861  10.683   9.711   5.154 -1.1655  0.2504 -0.7957
  113MOL0     H14862  10.721   9.622   5.293  0.4027  0.2496 -1.8300
  113MOL0     H14863  10.728   9.855   5.334  0.3091  0.6541 -2.7629
  113MOL0     H14864  10.585   9.799   5.426  0.2933  2.1124 -0.0909
  113MOL0     H14865  10.605   9.923   5.139  0.3958 -0.3534 -0.6040
  113MOL0     H14866  10.450   9.881   5.227 -0.0979 -0.2120 -1.9486
  113MOL0     H14867  10.473  10.113   5.250 -0.1230  0.1914  0.8608
  113MOL0     H14868  10.634  10.099   5.311 -1.1196 -0.1289 -0.3785
  113MOL0     H14869  10.309   9.934   5.428 -1.4929  1.2416  2.0649
  113MOL0     H14870  10.203   9.967   5.720  0.2216  1.4102 -0.1482
  113MOL0     H14871  10.339   9.947   5.824  2.4625 -1.6077 -0.7232
  113MOL0     H14872  10.430   9.759   5.678 -0.1474 -1.4394  1.9131
  113MOL0     H14873  10.274   9.739   5.610  0.7713  1.8793 -1.2780
  113MOL0     H14874  10.307   9.579   5.768 -0.8611  0.1412 -0.8764
  113MOL0     H14875  10.367   9.697   5.897  0.4771 -0.0114 -0.7165
  113MOL0     H14876  10.084   9.708   5.787 -0.6950  0.2817  0.1056
  113MOL0     H14877  10.157   9.796   5.911  1.0038  1.0902 -2.4833
  113MOL0     H14878  10.048   9.429   6.144 -0.6954  0.8541  2.6850
  113MOL0     H14879   9.848   9.413   6.256  0.6561 -0.6305 -1.4867
  113MOL0     H14880   9.474   9.707   6.495  1.5488 -0.4279  2.6395
  113MOL0     H14881   9.275   9.659   6.593 -3.7298 -2.5526  0.4231
  113MOL0     H14882   9.126   9.267   6.520 -1.0211  0.9764 -0.5719
  113MOL0     H14883   8.985   9.328   6.607  0.6260 -0.8970 -1.9101
  113MOL0     H14884   9.230   9.195   6.739 -0.8213  0.0396  0.4712
  113MOL0     H14885   9.084   9.107   6.680 -0.0615 -0.3756 -0.6059
  113MOL0     H14886   8.946   9.213   6.853 -0.4302  0.1814 -0.7834
  113MOL0     H14887   9.075   9.325   6.899 -3.3900  0.8678 -2.1358
  113MOL0     H14888   9.078   9.026   6.933  0.0510 -0.1880  2.3761
  113MOL0     H14889   9.218   9.126   6.959 -0.2288 -1.2281  2.9469
  113MOL0     H14890   8.966   9.108   7.130 -3.2898  3.4318 -0.9050
  113MOL0     H14891   9.046   9.255   7.132  1.0282  0.3185  1.7374
  113MOL0     H14892   9.132   9.110   7.306 -2.0266  4.8520 -0.2509
  113MOL0     H14893   9.262   9.158   7.190  0.0500 -0.5046  1.9301
  113MOL0     H14894   9.118   8.888   7.173  0.1410 -1.6465  2.3805
  113MOL0     H14895   9.277   8.928   7.101 -1.1578  0.3199 -0.4682
  113MOL0     H14896   9.222   8.891   7.397 -1.5045  0.9645 -1.3014
  113MOL0     H14897   9.374   8.928   7.314 -0.5091  1.3602 -3.2120
  113MOL0     H14898   9.337   9.232   6.518  0.4301  0.0048 -3.2273
  113MOL0     H14899   9.553   9.276   6.452 -1.0289 -1.0110  2.0343
  113MOL0     H14900   9.720   9.787   6.107 -1.5405 -1.4677  2.1971
  113MOL0     H14901   9.920   9.813   5.963 -0.6269  0.8541  1.8860
  113MOL0     H14902  10.115   9.437   5.711  0.2236  2.6472  2.1850
  113MOL0     H14903   9.910   9.439   5.845 -1.3375  0.4865 -0.6289
  113MOL0     H14904   9.519   9.600   5.961 -1.9460  1.1620  0.6568
  113MOL0     H14905   9.351   9.582   6.134  0.4645  1.8759 -2.2003
  113MOL0     H14906   9.111   9.370   6.320 -0.8143 -3.0690  2.2386
  113MOL0     H14907   9.271   9.351   6.264 -1.6190  2.9498  0.0285
  113MOL0     H14908   9.216   9.138   6.139 -1.6588 -1.2275 -0.2110
  113MOL0     H14909   9.208   9.121   6.309  1.7888  1.3415  0.5443
  113MOL0     H14910   8.954   9.158   6.121  0.1110 -1.7712 -1.2121
  113MOL0     H14911   8.951   9.130   6.297 -0.3159 -1.7269  0.3568
  113MOL0     H14912   9.039   8.934   6.075  0.4913 -1.4912  0.4740
  113MOL0     H14913   9.090   8.904   6.231  0.1696 -0.9772  0.0492
  113MOL0     H14914   8.655   8.857   6.158  0.4985  1.9362 -2.1602
  113MOL0     H14915   9.190   9.243   5.938  0.4092 -0.1015  0.6304
  113MOL0     H14916   9.398   9.229   5.792  0.0854 -1.5762  0.4369
  114MOL0     O14917   8.862   0.746   8.884 -0.2303 -0.3179 -0.1189
  114MOL0     C14918   8.916   0.684   8.978  0.1550 -0.0292  0.3261
  114MOL0     O14919   8.904   0.710   9.111 -0.0693  1.0552 -0.1474
  114MOL0     C14920   8.825   0.821   9.141 -0.0682 -0.4768 -0.5074
  114MOL0     C14921   8.882   0.921   9.218 -0.0692 -0.5520 -0.3073
  114MOL0     C14922   8.803   1.019   9.270 -0.2162  0.5824  0.0548
  114MOL0     C14923   8.662   1.031   9.233  0.3203  0.1657  0.0887
  114MOL0     O14924   8.592   1.147   9.270  0.2365 -0.5513  0.2336
  114MOL0     C14925   8.449   1.160   9.263  0.0630  0.8021 -0.0884
  114MOL0     C14926   8.370   1.097   9.386 -0.0088 -0.7061  0.7035
  114MOL0     C14927   8.220   1.061   9.358 -0.5929 -0.3730  0.4089
  114MOL0     C14928   8.164   0.990   9.474 -1.0890  0.4780 -1.6359
  114MOL0     C14929   8.018   0.969   9.451  1.2069 -0.2090 -0.3533
  114MOL0     C14930   7.941   0.893   9.553  0.5601 -0.4208  0.7056
  114MOL0     C14931   7.794   0.878   9.525  0.3489 -0.0904  0.6581
  114MOL0     C14932   7.725   0.788   9.626  0.4712 -0.0863  0.1211
  114MOL0     N14933   7.581   0.785   9.609  0.5247  0.2634  0.1467
  114MOL0     C14934   7.486   0.863   9.671 -0.5144  0.7310 -0.5947
  114MOL0     C14935   7.377   0.815   9.600  0.5368 -0.8123 -0.4902
  114MOL0     C14936   7.238   0.879   9.618  0.2589  0.2300 -0.2417
  114MOL0     C14937   7.152   0.777   9.697  0.0219 -0.2076 -0.3828
  114MOL0     C14938   7.019   0.830   9.748 -0.6675  0.1998  0.0260
  114MOL0     C14939   6.947   0.714   9.823  0.0907  0.1239 -0.3735
  114MOL0     O14940   6.874   0.765   9.935 -0.0059 -1.1312  0.2586
  114MOL0     C14941   6.750   0.815   9.904 -0.0588  0.0336  0.7163
  114MOL0     C14942   6.724   0.942   9.850 -0.6431 -0.0375 -0.0165
  114MOL0     C14943   6.595   0.985   9.817 -0.1264  0.2520  0.5138
  114MOL0     C14944   6.489   0.899   9.845  0.9529 -0.0964 -0.0394
  114MOL0     C14945   6.345   0.932   9.838  0.1444  0.2372 -0.1130
  114MOL0     O14946   6.256   0.833   9.862 -0.5784 -0.8538 -0.1911
  114MOL0     C14947   6.125   0.862   9.886 -0.0852 -0.1874 -0.6544
  114MOL0     C14948   6.085   0.984   9.955 -0.1739  0.8651 -0.8639
  114MOL0     C14949   5.950   0.996   9.984  0.2015  0.8485  0.4455
  114MOL0     C14950   5.856   0.914   9.933  0.3071  0.5075 -0.3747
  114MOL0     O14951   5.724   0.915   9.960 -0.5587  0.0363  1.1388
  114MOL0     C14952   5.688   0.971  10.082 -0.6288  0.4558  0.7211
  114MOL0     C14953   5.533   0.956  10.096  0.2553 -0.4956 -0.1835
  114MOL0     C14954   5.494   1.042  10.223  0.8948  0.4155 -0.9108
  114MOL0     C14955   5.338   1.071  10.223 -0.3069 -1.0025 -0.5948
  114MOL0     C14956   5.301   1.199  10.306 -1.0112  0.0492  0.4446
  114MOL0     C14957   5.332   1.192  10.456 -0.0161 -0.0901  0.3040
  114MOL0     C14958   5.358   1.323  10.524 -0.3314  0.3345 -0.5707
  114MOL0     C14959   5.404   1.303  10.672 -0.8975 -0.0676  0.6235
  114MOL0    Cl14960   5.580   1.274  10.674  0.1688  0.3750  0.0879
  114MOL0     C14961   5.900   0.809   9.856 -0.4101  1.6838 -0.0506
  114MOL0     C14962   6.031   0.773   9.830  0.4039 -0.3420  0.0415
  114MOL0     O14963   6.321   1.053   9.810 -0.0251  0.7308  0.3509
  114MOL0     C14964   6.524   0.766   9.887  0.1860  0.4942 -0.0844
  114MOL0     C14965   6.655   0.723   9.916 -0.3684  0.4756 -1.1415
  114MOL0     N14966   7.393   0.715   9.513 -0.3172  0.3603  0.3599
  114MOL0     N14967   7.525   0.709   9.513  0.4413  0.2393  0.6024
  114MOL0     C14968   8.603   0.928   9.165 -0.1618 -0.2372 -0.5459
  114MOL0     C14969   8.686   0.828   9.116 -0.0466  0.1058  0.6588
  114MOL0     C14970   9.003   0.578   8.947  0.2272  0.4649 -0.0295
  114MOL0     C14971   9.015   0.539   8.804  0.5426 -0.1971 -0.0680
  114MOL0     C14972   9.083   0.416   8.776  0.7325  0.1271 -0.8693
  114MOL0     C14973   9.129   0.337   8.878 -0.3467 -0.0333 -0.4027
  114MOL0     O14974   9.177   0.217   8.839 -0.1047  0.6294  0.2825
  114MOL0     C14975   9.265   0.140   8.916  0.6917  0.3467  0.5029
  114MOL0     C14976   9.342   0.053   8.812 -0.2922 -0.1722 -0.1459
  114MOL0     C14977   9.262  -0.054   8.736 -0.3097 -0.2645 -0.2606
  114MOL0     C14978   9.361  -0.150   8.676  0.4872 -0.4268 -0.2252
  114MOL0     C14979   9.321  -0.283   8.622  0.7934 -0.2135  0.7121
  114MOL0     C14980   9.270  -0.392   8.601 -0.3463 -0.5095  0.4693
  114MOL0     C14981   9.121   0.373   9.014 -0.4151  0.4362 -0.6724
  114MOL0     C14982   9.055   0.490   9.049  0.2031 -0.6139 -0.2617
  114MOL0     H14983   8.987   0.909   9.242 -0.3061 -3.0808 -0.2102
  114MOL0     H14984   8.854   1.089   9.336  2.4867 -1.2484  0.0646
  114MOL0     H14985   8.415   1.108   9.173 -1.1669  3.7071 -1.4522
  114MOL0     H14986   8.421   1.265   9.253 -0.9495  0.6158  0.6609
  114MOL0     H14987   8.374   1.172   9.465  1.2562  0.5494 -0.5135
  114MOL0     H14988   8.429   1.011   9.418 -0.3206 -0.9001  0.7658
  114MOL0     H14989   8.228   0.992   9.274 -2.1063 -1.2554  0.9652
  114MOL0     H14990   8.163   1.146   9.319  1.3459 -0.1809 -2.3196
  114MOL0     H14991   8.217   0.896   9.495 -2.0172  0.4550  0.9897
  114MOL0     H14992   8.184   1.056   9.558 -0.2831 -0.0011 -1.4410
  114MOL0     H14993   8.002   0.923   9.354 -0.8322  0.3941 -0.3539
  114MOL0     H14994   7.969   1.065   9.433 -1.4159 -1.9505 -3.5088
  114MOL0     H14995   7.952   0.936   9.653 -1.0838  0.0580  0.6934
  114MOL0     H14996   7.990   0.795   9.560  2.4643  0.4162 -0.1539
  114MOL0     H14997   7.754   0.979   9.536  0.7289 -0.0528  1.8186
  114MOL0     H14998   7.780   0.852   9.419  1.0239  2.3923 -0.1014
  114MOL0     H14999   7.750   0.807   9.731 -0.4210  2.2189 -0.0293
  114MOL0     H15000   7.777   0.696   9.598 -0.4461 -1.1931  1.8429
  114MOL0     H15001   7.488   0.943   9.745 -0.4408  1.6494 -1.5607
  114MOL0     H15002   7.195   0.899   9.519  0.9837 -2.7431 -1.2692
  114MOL0     H15003   7.250   0.970   9.677 -1.1088  1.1913 -1.3889
  114MOL0     H15004   7.212   0.745   9.783  0.0982  1.4237  0.1945
  114MOL0     H15005   7.118   0.696   9.631 -1.6329 -0.9868  1.3264
  114MOL0     H15006   7.031   0.927   9.797  1.3407  0.0647 -0.1336
  114MOL0     H15007   6.958   0.839   9.657 -0.4149  2.0795  0.0048
  114MOL0     H15008   7.021   0.637   9.849  0.8146  0.0028 -2.5986
  114MOL0     H15009   6.879   0.669   9.750 -0.4945 -1.4862  1.1048
  114MOL0     H15010   6.805   1.013   9.841 -0.4749  0.2242  2.6627
  114MOL0     H15011   6.574   1.073   9.758 -0.0446 -1.2622 -1.9091
  114MOL0     H15012   6.162   1.054   9.984  0.6956 -0.9379  1.5396
  114MOL0     H15013   5.915   1.078  10.046  0.0464 -1.4159  3.6002
  114MOL0     H15014   5.711   1.078  10.073  2.6776 -0.1774  0.5192
  114MOL0     H15015   5.748   0.928  10.162  1.6344 -2.4796 -2.3074
  114MOL0     H15016   5.511   0.848  10.100 -0.5707 -0.4787 -2.4430
  114MOL0     H15017   5.482   0.993  10.007  0.1679 -0.1496  0.0112
  114MOL0     H15018   5.539   1.141  10.217  1.9961 -0.0883 -1.2003
  114MOL0     H15019   5.535   0.990  10.310  0.1189 -0.6421 -1.1458
  114MOL0     H15020   5.300   1.090  10.123 -0.7138  1.5342 -0.0344
  114MOL0     H15021   5.290   0.983  10.268  1.2155 -2.3488 -1.4564
  114MOL0     H15022   5.195   1.222  10.289 -0.8134  0.6876  0.0351
  114MOL0     H15023   5.351   1.284  10.259 -1.9215  0.6799  0.5858
  114MOL0     H15024   5.426   1.139  10.474  0.4650  1.3639  2.4680
  114MOL0     H15025   5.248   1.139  10.502 -0.1609 -0.4317 -0.3345
  114MOL0     H15026   5.439   1.375  10.473  2.8466 -4.3123 -0.9144
  114MOL0     H15027   5.267   1.385  10.521 -0.2846  0.4886  0.5830
  114MOL0     H15028   5.362   1.209  10.709 -1.4050 -1.4865 -3.0915
  114MOL0     H15029   5.383   1.392  10.730 -3.1609  0.2235 -0.5419
  114MOL0     H15030   5.824   0.739   9.823  1.6771 -0.9716  0.3718
  114MOL0     H15031   6.057   0.692   9.763  2.2804 -0.9381  1.4299
  114MOL0     H15032   6.445   0.691   9.889  1.6990 -1.1322  0.4264
  114MOL0     H15033   6.676   0.624   9.955 -2.4032  0.5100  0.2076
  114MOL0     H15034   8.496   0.919   9.150 -0.5646  0.2295  1.7276
  114MOL0     H15035   8.636   0.756   9.053 -0.4570  0.3349  0.7231
  114MOL0     H15036   8.973   0.596   8.722 -0.4117  2.7127  2.2824
  114MOL0     H15037   9.085   0.380   8.673  1.7794 -1.3613 -0.3600
  114MOL0     H15038   9.212   0.081   8.991 -0.4262  1.1693  0.3889
  114MOL0     H15039   9.332   0.203   8.975  0.1116 -0.7871  2.4595
  114MOL0     H15040   9.393   0.116   8.738 -2.6036  1.0640 -0.7962
  114MOL0     H15041   9.416   0.003   8.874 -0.1604  1.3225  0.9627
  114MOL0     H15042   9.209  -0.002   8.656  1.4274 -1.3385 -2.2133
  114MOL0     H15043   9.189  -0.099   8.804 -1.0035 -0.3453 -1.0339
  114MOL0     H15044   9.415  -0.090   8.602  1.6307 -1.6366 -0.3969
  114MOL0     H15045   9.423  -0.177   8.761 -0.2486  0.8951  0.7719
  114MOL0     H15046   9.218  -0.481   8.572 -0.4524  0.5532 -3.0761
  114MOL0     H15047   9.144   0.304   9.095  0.7623  2.2156  0.5946
  114MOL0     H15048   9.042   0.509   9.155  0.9305 -3.2409  0.3719
  115MOL0     O15049   8.670   6.426   9.140  0.5534  0.4165  0.3358
  115MOL0     C15050   8.718   6.393   9.037  0.3093  1.0489  1.0557
  115MOL0     O15051   8.643   6.365   8.925 -0.1252  0.2206  0.1995
  115MOL0     C15052   8.519   6.313   8.935 -0.2013 -0.2840 -0.2233
  115MOL0     C15053   8.424   6.352   8.843  1.1028 -0.0936 -0.6551
  115MOL0     C15054   8.296   6.298   8.842  0.5501 -0.3009 -0.5784
  115MOL0     C15055   8.259   6.217   8.943  0.9951  0.7463 -0.2001
  115MOL0     O15056   8.124   6.186   8.941 -0.3096  0.2783 -0.3373
  115MOL0     C15057   8.038   6.262   9.028 -0.1333 -0.4899  0.8256
  115MOL0     C15058   8.037   6.215   9.174  0.1270 -0.4556  0.8277
  115MOL0     C15059   7.942   6.301   9.260 -0.2993  0.5093  0.0520
  115MOL0     C15060   7.804   6.245   9.242 -0.1017 -0.1933  0.4217
  115MOL0     C15061   7.702   6.339   9.296 -0.1496 -0.3216  0.2576
  115MOL0     C15062   7.682   6.473   9.227  0.2080  0.1371  1.1281
  115MOL0     C15063   7.545   6.530   9.230 -0.3604 -0.1414  0.2745
  115MOL0     C15064   7.531   6.681   9.233 -0.0343 -0.2162  0.4557
  115MOL0     N15065   7.398   6.735   9.219  0.0209 -0.5766  0.0816
  115MOL0     C15066   7.309   6.737   9.110 -0.2283 -1.0094  0.9645
  115MOL0     C15067   7.190   6.771   9.162  0.1166 -0.0579 -0.5428
  115MOL0     C15068   7.061   6.802   9.081 -0.0372  0.4468  0.3676
  115MOL0     C15069   6.961   6.909   9.126 -0.7842  0.1474  0.5147
  115MOL0     C15070   6.832   6.901   9.049 -0.1562 -1.6249  0.7453
  115MOL0     C15071   6.737   7.007   9.097  0.9480  0.6069  0.5948
  115MOL0     O15072   6.607   6.988   9.024 -0.5423  1.2511 -0.4375
  115MOL0     C15073   6.496   7.064   9.031 -0.6619 -0.1796  0.3378
  115MOL0     C15074   6.395   7.044   8.941  0.8520  0.6371 -0.6405
  115MOL0     C15075   6.277   7.114   8.949 -0.4478  0.1526 -0.1333
  115MOL0     C15076   6.253   7.209   9.039  0.1763 -0.2026  0.5895
  115MOL0     C15077   6.128   7.295   9.052 -0.8089 -0.1292  0.7623
  115MOL0     O15078   6.015   7.240   8.990 -0.4406 -0.5408  0.0644
  115MOL0     C15079   5.912   7.331   8.965  0.3461 -0.9525 -0.3922
  115MOL0     C15080   5.936   7.460   8.925 -0.1539  0.0711  0.1095
  115MOL0     C15081   5.832   7.546   8.891  0.6955 -0.1532  1.6594
  115MOL0     C15082   5.698   7.500   8.885 -0.1621 -0.5121  0.3757
  115MOL0     O15083   5.598   7.582   8.841  0.1217 -0.0560  0.3439
  115MOL0     C15084   5.583   7.578   8.697 -0.2634  0.0909  0.3802
  115MOL0     C15085   5.513   7.708   8.652 -0.5093 -0.4254  0.0283
  115MOL0     C15086   5.507   7.726   8.496  0.1362 -0.4028 -0.3629
  115MOL0     C15087   5.443   7.856   8.456  1.1489  0.6171  0.4328
  115MOL0     C15088   5.288   7.859   8.496 -1.0216 -0.1520 -0.0467
  115MOL0     C15089   5.222   7.983   8.435 -0.8224 -0.0707 -0.2055
  115MOL0     C15090   5.062   7.980   8.440 -0.8710  0.4906  0.2865
  115MOL0     C15091   5.017   8.005   8.579 -0.3018  0.5506 -0.9406
  115MOL0    Cl15092   4.845   7.971   8.627  0.2657 -0.2771 -0.4941
  115MOL0     C15093   5.676   7.366   8.920 -0.2469 -0.4963 -0.0979
  115MOL0     C15094   5.781   7.290   8.961 -0.4689 -0.1922  0.9636
  115MOL0     O15095   6.128   7.392   9.123 -0.0572  0.1172 -0.4078
  115MOL0     C15096   6.356   7.232   9.133 -0.3508 -0.1475 -0.2620
  115MOL0     C15097   6.477   7.159   9.129  0.4323  0.0244 -0.8239
  115MOL0     N15098   7.215   6.813   9.292  0.0654 -0.1842 -0.2421
  115MOL0     N15099   7.334   6.782   9.330  0.4031 -0.3772 -1.0273
  115MOL0     C15100   8.345   6.177   9.044 -1.1202  0.2266  0.1210
  115MOL0     C15101   8.479   6.224   9.036 -0.5423  0.4577 -0.1437
  115MOL0     C15102   8.862   6.383   9.034 -0.7759 -0.3512 -0.4842
  115MOL0     C15103   8.932   6.338   8.917  0.2011 -1.3290  0.0669
  115MOL0     C15104   9.070   6.341   8.912 -0.9445 -0.8395 -0.4212
  115MOL0     C15105   9.149   6.360   9.025 -0.1711 -0.2026  0.0032
  115MOL0     O15106   9.288   6.330   9.006  0.6336  0.7157 -0.8900
  115MOL0     C15107   9.368   6.348   9.123 -0.2145 -0.3851 -0.3409
  115MOL0     C15108   9.507   6.298   9.093 -1.0006 -0.8675  0.4285
  115MOL0     C15109   9.629   6.331   9.189 -0.0838  0.1192  0.1617
  115MOL0     C15110   9.688   6.463   9.136  0.1382  0.0537  0.4978
  115MOL0     C15111   9.827   6.482   9.171  0.0664  0.4308 -0.4883
  115MOL0     C15112   9.940   6.475   9.211 -0.0257  0.2185  0.0663
  115MOL0     C15113   9.081   6.397   9.140 -0.0506  0.3677  0.2875
  115MOL0     C15114   8.945   6.427   9.143 -0.2892 -0.3818 -0.0984
  115MOL0     H15115   8.457   6.420   8.765  0.8686 -1.7680 -2.3003
  115MOL0     H15116   8.223   6.330   8.768 -1.4309 -2.8769  0.1257
  115MOL0     H15117   7.935   6.269   8.992 -0.3657 -1.4251  1.2886
  115MOL0     H15118   8.073   6.365   9.028 -0.7842 -0.1734 -2.0418
  115MOL0     H15119   8.137   6.222   9.218  0.1038  3.0797  0.5955
  115MOL0     H15120   8.009   6.110   9.184 -0.8034 -0.5015 -1.6721
  115MOL0     H15121   7.957   6.406   9.234  2.3750  0.2060  0.0781
  115MOL0     H15122   7.978   6.289   9.363  3.0432  1.0882 -0.9301
  115MOL0     H15123   7.786   6.226   9.135  1.5101  1.1076 -0.1220
  115MOL0     H15124   7.788   6.147   9.288 -0.6227 -0.9666 -1.2972
  115MOL0     H15125   7.721   6.358   9.402  0.3000  0.4812  0.0378
  115MOL0     H15126   7.607   6.285   9.285  0.7667 -2.0804  0.6730
  115MOL0     H15127   7.708   6.464   9.121  0.6540  1.7401  1.0833
  115MOL0     H15128   7.761   6.542   9.258 -2.0327  4.4855 -1.7898
  115MOL0     H15129   7.490   6.498   9.141  0.5306 -0.3417 -0.2136
  115MOL0     H15130   7.500   6.498   9.325  0.8882 -0.2439  0.8518
  115MOL0     H15131   7.597   6.725   9.158  1.7562  0.3031  2.2505
  115MOL0     H15132   7.563   6.716   9.331  0.6411 -1.8907  0.8662
  115MOL0     H15133   7.342   6.714   9.009 -0.6086 -1.5926  0.9666
  115MOL0     H15134   7.005   6.708   9.085 -1.4362  0.9649 -3.2845
  115MOL0     H15135   7.084   6.823   8.976 -3.0968 -0.7612 -0.6685
  115MOL0     H15136   7.013   7.005   9.123  1.4982 -1.0106  0.9330
  115MOL0     H15137   6.940   6.895   9.233 -0.8451  1.2074  0.6553
  115MOL0     H15138   6.855   6.918   8.944  1.5424  2.0382  1.5503
  115MOL0     H15139   6.791   6.799   9.056  2.6603 -2.9186 -0.1243
  115MOL0     H15140   6.792   7.096   9.065 -1.3558  1.5823 -0.9217
  115MOL0     H15141   6.718   7.012   9.204  2.2079  0.5630  0.8337
  115MOL0     H15142   6.388   6.967   8.864  0.4230  1.6734 -1.6646
  115MOL0     H15143   6.192   7.099   8.884 -1.7201 -0.7506  1.6592
  115MOL0     H15144   6.040   7.486   8.910  0.1732 -2.3860 -2.6779
  115MOL0     H15145   5.860   7.647   8.863  1.4311 -1.3193 -2.5585
  115MOL0     H15146   5.525   7.490   8.669 -0.1125  0.2889 -0.6096
  115MOL0     H15147   5.682   7.580   8.650 -1.2113 -0.3974 -1.7673
  115MOL0     H15148   5.577   7.788   8.691 -0.1799 -1.4567  1.7257
  115MOL0     H15149   5.415   7.717   8.700  0.6017  1.9542  2.0912
  115MOL0     H15150   5.449   7.642   8.456  3.0726 -4.6231  3.2196
  115MOL0     H15151   5.605   7.703   8.453  0.9147  1.8243  0.0920
  115MOL0     H15152   5.492   7.945   8.497  1.3541  0.7551 -0.1106
  115MOL0     H15153   5.461   7.858   8.349  1.6819 -0.5562  0.4842
  115MOL0     H15154   5.287   7.866   8.605 -0.0210 -1.5030  0.0756
  115MOL0     H15155   5.242   7.765   8.464 -1.9949 -0.3284  1.7527
  115MOL0     H15156   5.259   7.984   8.332 -0.6319 -0.6847 -0.1508
  115MOL0     H15157   5.242   8.075   8.490 -1.1975 -0.1392  0.0510
  115MOL0     H15158   5.023   8.062   8.380  0.6710  2.7405  2.1739
  115MOL0     H15159   5.031   7.884   8.398  2.2925 -0.5779  0.0996
  115MOL0     H15160   5.037   8.110   8.604 -0.4912  0.1615  1.0644
  115MOL0     H15161   5.087   7.956   8.648  3.4699  3.9111 -1.9567
  115MOL0     H15162   5.576   7.325   8.902  0.2826 -1.2821 -1.4132
  115MOL0     H15163   5.788   7.188   8.999  0.4898 -0.2088  0.7714
  115MOL0     H15164   6.351   7.308   9.210  2.6078  0.5764 -0.6814
  115MOL0     H15165   6.551   7.182   9.204 -1.3883  1.1042  0.7321
  115MOL0     H15166   8.320   6.115   9.129 -3.1950 -0.0758 -0.6635
  115MOL0     H15167   8.554   6.191   9.107 -0.7867 -1.1123 -0.5875
  115MOL0     H15168   8.876   6.299   8.833  0.7316 -1.3124 -0.2986
  115MOL0     H15169   9.125   6.299   8.829  1.1598 -1.8530  1.3893
  115MOL0     H15170   9.340   6.293   9.213  1.9435 -0.1083  0.5610
  115MOL0     H15171   9.362   6.454   9.150 -1.5889 -0.2598 -1.0278
  115MOL0     H15172   9.499   6.189   9.084  2.2231 -1.0705 -1.2067
  115MOL0     H15173   9.523   6.329   8.990 -0.9388 -1.7926  0.1450
  115MOL0     H15174   9.697   6.248   9.166 -2.0873 -1.2223 -1.2239
  115MOL0     H15175   9.580   6.333   9.287 -0.5166 -0.8491 -0.0227
  115MOL0     H15176   9.702   6.465   9.028  1.4879 -0.7970  0.6384
  115MOL0     H15177   9.630   6.547   9.175 -1.2821 -2.1413  3.4834
  115MOL0     H15178  10.046   6.466   9.228  0.2981 -4.2440 -2.5853
  115MOL0     H15179   9.139   6.415   9.230 -0.5334 -1.4005  0.9902
  115MOL0     H15180   8.904   6.481   9.228 -0.3364  2.4734 -1.8118
  116MOL0     O15181   5.092   6.168   0.224 -0.1826 -0.3868 -0.4525
  116MOL0     C15182   5.176   6.251   0.199 -0.3874  0.0923  0.0743
  116MOL0     O15183   5.158   6.359   0.128  0.0828 -0.4165  0.0034
  116MOL0     C15184   5.043   6.394   0.054 -1.0660  0.1100  0.6109
  116MOL0     C15185   5.023   6.349  -0.074 -0.1442 -0.9699 -0.4691
  116MOL0     C15186   4.917   6.400  -0.154 -0.0787  0.0967  0.8451
  116MOL0     C15187   4.819   6.476  -0.101 -0.3459  0.1547  0.5190
  116MOL0     O15188   4.717   6.519  -0.183 -0.6715 -0.1625  0.3048
  116MOL0     C15189   4.581   6.529  -0.141  1.0739  0.5723 -0.7622
  116MOL0     C15190   4.488   6.581  -0.245  0.2559  0.0378 -0.3140
  116MOL0     C15191   4.368   6.657  -0.193  0.1101 -0.3805 -0.7885
  116MOL0     C15192   4.285   6.718  -0.316 -0.6084 -0.2305  0.1867
  116MOL0     C15193   4.140   6.769  -0.286 -0.1490  0.6787 -0.7385
  116MOL0     C15194   4.149   6.878  -0.181  0.8770  1.2058  0.1531
  116MOL0     C15195   4.010   6.933  -0.138  0.1470  0.6442  0.4043
  116MOL0     C15196   3.947   6.845  -0.038 -0.1742 -0.2934  0.1816
  116MOL0     N15197   3.820   6.897   0.010  0.1183  0.2812 -0.0292
  116MOL0     C15198   3.710   6.903  -0.067 -0.7564 -0.5846  0.4108
  116MOL0     C15199   3.615   6.935   0.022  0.7520  0.0051  0.1568
  116MOL0     C15200   3.467   6.948  -0.009  0.6407 -0.8806 -0.2234
  116MOL0     C15201   3.372   6.848   0.065 -0.6373 -0.0459 -0.8949
  116MOL0     C15202   3.236   6.905   0.084  0.7868 -1.2096  0.0523
  116MOL0     C15203   3.166   6.924  -0.044 -0.0047  0.5320  0.3628
  116MOL0     O15204   3.174   6.807  -0.135 -0.1293 -1.2917  0.3620
  116MOL0     C15205   3.070   6.797  -0.221  0.2448 -0.2219 -0.0031
  116MOL0     C15206   3.026   6.673  -0.255  0.2363  0.4434  0.1174
  116MOL0     C15207   2.910   6.648  -0.320 -0.0223 -1.3787  0.7344
  116MOL0     C15208   2.832   6.755  -0.357 -0.2227  0.8309  0.2738
  116MOL0     C15209   2.716   6.719  -0.434  0.6780 -0.2612  0.1473
  116MOL0     O15210   2.664   6.589  -0.437 -0.1633 -0.2068  1.4718
  116MOL0     C15211   2.543   6.577  -0.500  0.7151 -0.0461 -0.1405
  116MOL0     C15212   2.527   6.595  -0.644  0.3042 -0.0379 -0.8781
  116MOL0     C15213   2.398   6.597  -0.697 -0.5757 -0.7831  0.1539
  116MOL0     C15214   2.284   6.586  -0.611  0.3064 -0.7483  0.2708
  116MOL0     O15215   2.165   6.593  -0.677 -0.2090  0.3304  0.4295
  116MOL0     C15216   2.062   6.669  -0.617  0.3767 -0.7976 -0.5473
  116MOL0     C15217   2.054   6.801  -0.695  0.0128 -0.0005  0.3620
  116MOL0     C15218   1.951   6.905  -0.653  0.1704 -0.1357  0.6048
  116MOL0     C15219   1.825   6.832  -0.610  0.3494  0.7302 -0.8926
  116MOL0     C15220   1.710   6.922  -0.630 -0.7387  0.3514  0.4639
  116MOL0     C15221   1.580   6.863  -0.578  0.5437 -0.1319  0.1140
  116MOL0     C15222   1.478   6.968  -0.609  0.7206  0.4348 -0.9075
  116MOL0     C15223   1.359   6.930  -0.536  0.4613 -0.4118 -0.4811
  116MOL0    Cl15224   1.369   7.010  -0.373 -0.0721  0.2818  0.6069
  116MOL0     C15225   2.295   6.566  -0.477  0.3490  0.2140  0.3417
  116MOL0     C15226   2.426   6.560  -0.426 -0.4051  0.5374 -1.0556
  116MOL0     O15227   2.665   6.814  -0.499 -0.5120 -0.6058 -0.2838
  116MOL0     C15228   2.877   6.884  -0.346 -1.0625  0.0496 -0.3773
  116MOL0     C15229   2.995   6.905  -0.271  0.6756 -0.1727  0.4635
  116MOL0     N15230   3.678   6.956   0.144  0.5031 -0.2217  0.6886
  116MOL0     N15231   3.796   6.939   0.135 -0.9702  0.2194  0.2779
  116MOL0     C15232   4.822   6.500   0.040 -0.7913  0.0074 -0.1691
  116MOL0     C15233   4.944   6.471   0.113  0.1458 -0.1029  0.1124
  116MOL0     C15234   5.320   6.222   0.229  0.5028  0.2315 -0.5028
  116MOL0     C15235   5.424   6.258   0.137  0.2033 -0.0281  0.5549
  116MOL0     C15236   5.558   6.232   0.175 -0.8435 -1.1470 -0.0751
  116MOL0     C15237   5.597   6.159   0.282 -0.3536  0.1594 -0.5163
  116MOL0     O15238   5.727   6.126   0.299  0.0393  0.0621  1.3061
  116MOL0     C15239   5.768   6.029   0.395 -0.2263 -0.1799 -0.0526
  116MOL0     C15240   5.915   5.992   0.369  0.2383 -1.3945 -0.4199
  116MOL0     C15241   5.952   5.977   0.228 -0.0342 -0.2039  0.5522
  116MOL0     C15242   6.096   5.923   0.212 -0.7035  0.1296 -0.8766
  116MOL0     C15243   6.201   6.013   0.181 -0.0105  0.1827  0.4133
  116MOL0     C15244   6.288   6.093   0.146  0.7909 -0.4008  0.7816
  116MOL0     C15245   5.495   6.129   0.373 -0.1550 -0.0048  0.2075
  116MOL0     C15246   5.359   6.158   0.351 -0.6978 -0.3411  0.2637
  116MOL0     H15247   5.094   6.278  -0.115  1.2628  0.3439 -0.3828
  116MOL0     H15248   4.912   6.372  -0.259  1.3044 -1.2977  1.1063
  116MOL0     H15249   4.564   6.591  -0.053 -2.0263 -1.0487 -0.1096
  116MOL0     H15250   4.546   6.432  -0.105  4.5771 -0.2984  0.7971
  116MOL0     H15251   4.440   6.500  -0.301  1.5482 -1.4095  0.5662
  116MOL0     H15252   4.566   6.635  -0.299  1.7860 -3.6400 -2.1487
  116MOL0     H15253   4.401   6.737  -0.125 -4.0012  0.2840  0.7156
  116MOL0     H15254   4.299   6.597  -0.132  1.1420  0.5863  1.4537
  116MOL0     H15255   4.333   6.795  -0.377  2.4442 -0.7259  1.8082
  116MOL0     H15256   4.275   6.629  -0.379  1.3593  1.4386 -2.7176
  116MOL0     H15257   4.095   6.675  -0.253  1.8019 -0.2801 -0.6402
  116MOL0     H15258   4.086   6.804  -0.374  0.2023 -0.5727 -1.4697
  116MOL0     H15259   4.215   6.954  -0.222  2.8034 -0.0107  0.8567
  116MOL0     H15260   4.204   6.833  -0.098  0.4746  0.7244  0.1667
  116MOL0     H15261   4.016   7.040  -0.115 -2.4363  0.5364  1.9239
  116MOL0     H15262   3.953   6.926  -0.232  3.1438 -3.1474 -1.3928
  116MOL0     H15263   4.013   6.845   0.049  0.3720 -0.7521 -0.2249
  116MOL0     H15264   3.923   6.745  -0.076 -1.9881 -0.2778  1.1798
  116MOL0     H15265   3.689   6.891  -0.173  0.5459  2.0250 -0.2265
  116MOL0     H15266   3.447   6.926  -0.114  0.6951 -2.3347  0.0467
  116MOL0     H15267   3.444   7.053   0.009  0.9223 -0.9337  0.4840
  116MOL0     H15268   3.403   6.829   0.168 -2.3001 -1.2982 -0.5807
  116MOL0     H15269   3.360   6.748   0.024  1.2202 -0.3861 -0.6942
  116MOL0     H15270   3.177   6.840   0.150  1.0268 -0.7057  0.7746
  116MOL0     H15271   3.239   6.992   0.149  1.6776 -1.5358  0.4608
  116MOL0     H15272   3.208   7.004  -0.106  1.7934  0.0862  0.9663
  116MOL0     H15273   3.065   6.955  -0.016  0.0065  0.0406  0.9546
  116MOL0     H15274   3.089   6.586  -0.238 -0.4071 -0.4690 -1.8401
  116MOL0     H15275   2.884   6.547  -0.349  0.8543 -1.2742 -0.4623
  116MOL0     H15276   2.622   6.601  -0.696  1.3179  0.8796  0.9639
  116MOL0     H15277   2.375   6.601  -0.803 -2.3852 -2.2296  0.4324
  116MOL0     H15278   2.070   6.706  -0.514 -3.2531  1.1772 -0.7824
  116MOL0     H15279   1.971   6.609  -0.633 -0.4891  0.3819 -0.2058
  116MOL0     H15280   2.044   6.767  -0.799  0.5435  1.4117 -0.1676
  116MOL0     H15281   2.152   6.850  -0.689  0.1761 -0.2249 -0.3717
  116MOL0     H15282   1.930   6.970  -0.738  1.5129 -0.9285 -0.3789
  116MOL0     H15283   1.994   6.977  -0.583 -1.8814  4.6058 -2.5008
  116MOL0     H15284   1.816   6.742  -0.671  1.6343 -0.1035  0.0960
  116MOL0     H15285   1.834   6.800  -0.506 -2.3291  1.0783 -0.4840
  116MOL0     H15286   1.691   6.952  -0.734  1.2441  1.6736  0.4316
  116MOL0     H15287   1.735   7.013  -0.576  3.6142 -0.8672  0.8336
  116MOL0     H15288   1.590   6.856  -0.469 -0.0736  1.6430  0.3390
  116MOL0     H15289   1.548   6.766  -0.617 -2.0732 -0.4134  2.6435
  116MOL0     H15290   1.510   7.070  -0.586  2.0011  0.0551 -0.9353
  116MOL0     H15291   1.461   6.964  -0.717 -0.5341  1.7521 -0.7882
  116MOL0     H15292   1.343   6.823  -0.522 -0.5138 -0.0568  1.4719
  116MOL0     H15293   1.269   6.975  -0.579  0.7232  3.7816  2.6532
  116MOL0     H15294   2.222   6.541  -0.400  0.4491 -1.0843  0.0332
  116MOL0     H15295   2.428   6.542  -0.319 -2.3378  1.5489 -0.8039
  116MOL0     H15296   2.829   6.975  -0.383  0.4085  0.5788 -1.0698
  116MOL0     H15297   3.002   7.011  -0.245 -1.4043 -0.0647  0.7651
  116MOL0     H15298   4.739   6.548   0.090 -1.4197 -0.0716 -1.1143
  116MOL0     H15299   4.952   6.500   0.218 -1.3835 -0.1255  0.2553
  116MOL0     H15300   5.400   6.310   0.045  3.0526  0.9782  0.2821
  116MOL0     H15301   5.630   6.258   0.098 -2.6177 -0.8109 -1.7191
  116MOL0     H15302   5.704   5.943   0.374 -3.2468  1.5711  1.2916
  116MOL0     H15303   5.758   6.056   0.501  0.6494  1.4405 -0.3597
  116MOL0     H15304   5.982   6.071   0.405  0.2809 -0.4939 -2.3505
  116MOL0     H15305   5.944   5.900   0.421 -0.4840 -0.5057  1.6381
  116MOL0     H15306   5.947   6.075   0.180  1.3184 -0.4150 -0.0820
  116MOL0     H15307   5.881   5.912   0.176 -0.1031  1.2645 -1.3124
  116MOL0     H15308   6.117   5.851   0.292 -2.2515  1.5116  0.8478
  116MOL0     H15309   6.088   5.866   0.119 -0.7520 -0.0467 -0.7646
  116MOL0     H15310   6.348   6.178   0.120  1.3468 -0.8316  0.6466
  116MOL0     H15311   5.524   6.082   0.466  2.1521 -0.9459 -0.8881
  116MOL0     H15312   5.286   6.126   0.425 -0.7019  1.9355  1.3512
  117MOL0     O15313  10.835  10.887   5.343  0.0982 -0.2659  0.4095
  117MOL0     C15314  10.793  10.980   5.269  0.4396  0.2312 -0.7854
  117MOL0     O15315  10.666  11.036   5.280 -0.6860 -0.3652 -0.2608
  117MOL0     C15316  10.597  11.001   5.388 -0.3075  0.5249  0.2944
  117MOL0     C15317  10.579  11.089   5.499 -1.3087 -0.1173 -0.7132
  117MOL0     C15318  10.508  11.035   5.612 -0.9534  0.1361  0.2229
  117MOL0     C15319  10.461  10.904   5.614 -0.5654 -0.1029  0.1543
  117MOL0     O15320  10.377  10.856   5.714  0.1230 -0.3264  0.3769
  117MOL0     C15321  10.342  10.718   5.717 -1.3438  0.4102  0.3395
  117MOL0     C15322  10.302  10.682   5.861  0.5773  0.4125  0.3225
  117MOL0     C15323  10.171  10.737   5.897  0.6613 -0.1575  0.1593
  117MOL0     C15324  10.156  10.898   5.895 -0.4989  0.4566  0.7610
  117MOL0     C15325  10.032  10.941   5.983  0.4566 -0.3405 -1.2334
  117MOL0     C15326   9.892  10.896   5.949 -0.7538  0.9549 -0.9950
  117MOL0     C15327   9.790  10.868   6.057  0.1526 -0.7282 -0.0531
  117MOL0     C15328   9.757  10.997   6.128 -0.2950  0.8195  0.9694
  117MOL0     N15329   9.656  10.966   6.232  0.4063 -0.8329  0.9805
  117MOL0     C15330   9.524  10.996   6.213  0.3587 -0.3293  0.0809
  117MOL0     C15331   9.467  10.963   6.326 -1.2528  0.2814 -1.4444
  117MOL0     C15332   9.329  11.005   6.345 -0.3232 -0.4736 -0.1946
  117MOL0     C15333   9.235  10.886   6.370 -0.0707 -0.4179 -0.3295
  117MOL0     C15334   9.100  10.936   6.412  0.3025  0.3546  0.0317
  117MOL0     C15335   9.017  10.811   6.460  0.1621 -0.1703 -0.5943
  117MOL0     O15336   8.880  10.855   6.459  0.2591 -0.5858 -0.6048
  117MOL0     C15337   8.776  10.784   6.504 -0.0067 -0.1403  0.2403
  117MOL0     C15338   8.637  10.826   6.498 -0.5224  0.1261 -0.6010
  117MOL0     C15339   8.533  10.737   6.554  0.2474 -0.2153  0.4442
  117MOL0     C15340   8.560  10.613   6.606 -0.3261 -0.2257 -0.0030
  117MOL0     C15341   8.459  10.527   6.667 -0.5721  0.0623  0.3170
  117MOL0     O15342   8.499  10.401   6.702  0.7344  0.8252 -0.1778
  117MOL0     C15343   8.405  10.326   6.769 -0.8236  0.4543 -0.0692
  117MOL0     C15344   8.384  10.336   6.907 -0.6805 -0.3025 -0.6968
  117MOL0     C15345   8.295  10.250   6.975 -0.3292  0.1540  0.0265
  117MOL0     C15346   8.227  10.156   6.903 -0.6157  0.9058 -0.9960
  117MOL0     O15347   8.145  10.081   6.976  0.7711  0.8171  0.9287
  117MOL0     C15348   8.084   9.960   6.922 -0.1938 -0.6041 -0.2244
  117MOL0     C15349   7.978   9.905   7.017 -0.0182  0.2346  0.1409
  117MOL0     C15350   7.856  10.006   7.027  0.6560 -0.2925  0.7109
  117MOL0     C15351   7.727   9.934   7.077 -0.2132  0.4457 -0.2860
  117MOL0     C15352   7.595   9.982   7.022 -0.0193  0.0858 -0.6589
  117MOL0     C15353   7.563   9.928   6.885 -0.7907 -0.3088  0.3457
  117MOL0     C15354   7.413   9.951   6.855  0.7023  0.0632 -0.0030
  117MOL0     C15355   7.381   9.953   6.705  0.1446 -0.3212  0.1841
  117MOL0    Cl15356   7.356   9.794   6.632 -0.0027 -0.2622  0.1166
  117MOL0     C15357   8.258  10.132   6.771  0.3085 -0.2587 -0.5274
  117MOL0     C15358   8.339  10.224   6.701  0.3068 -1.3999  0.1856
  117MOL0     O15359   8.340  10.569   6.668  0.2238  0.4225 -1.4097
  117MOL0     C15360   8.695  10.582   6.619 -0.4188 -0.8411 -0.1431
  117MOL0     C15361   8.794  10.661   6.561 -0.1780 -0.0201 -0.2420
  117MOL0     N15362   9.563  10.922   6.419  0.0240  0.2559  0.2193
  117MOL0     N15363   9.675  10.921   6.357  0.4656 -1.1139 -0.0464
  117MOL0     C15364  10.469  10.829   5.503 -0.5015 -1.4123  0.0002
  117MOL0     C15365  10.531  10.874   5.385 -0.3955  0.4648  0.0900
  117MOL0     C15366  10.878  11.020   5.163 -0.6393 -0.3099  0.2926
  117MOL0     C15367  11.011  10.972   5.142 -0.0512 -0.1573 -1.5915
  117MOL0     C15368  11.094  11.015   5.038  0.2801 -0.1518  0.5983
  117MOL0     C15369  11.054  11.113   4.947 -0.1891 -0.0677  0.3216
  117MOL0     O15370  11.141  11.164   4.851 -0.0929 -0.5433  0.1869
  117MOL0     C15371  11.140  11.314   4.831  0.3377  0.4495 -0.0294
  117MOL0     C15372  11.232  11.377   4.744 -0.0085 -0.0566  0.3170
  117MOL0     C15373  11.234  11.536   4.740  0.2270 -0.1628 -0.1467
  117MOL0     C15374  11.374  11.585   4.694 -0.2921  0.6315  0.4374
  117MOL0     C15375  11.403  11.548   4.556 -0.5609  0.0593 -0.6884
  117MOL0     C15376  11.417  11.507   4.443  0.5119 -0.6229  0.4762
  117MOL0     C15377  10.925  11.155   4.969  0.0650 -0.1837  0.0918
  117MOL0     C15378  10.836  11.112   5.069 -0.4862  0.3416  0.3754
  117MOL0     H15379  10.620  11.190   5.494  2.4156 -1.4113  0.8359
  117MOL0     H15380  10.494  11.093   5.703 -0.1744 -1.1328  1.1871
  117MOL0     H15381  10.431  10.661   5.691  1.1131  4.4601 -1.0150
  117MOL0     H15382  10.256  10.693   5.654 -0.0456 -0.1407 -1.2555
  117MOL0     H15383  10.380  10.717   5.928 -0.4514 -0.2796  1.9405
  117MOL0     H15384  10.286  10.575   5.870 -1.3468  0.7439  1.6294
  117MOL0     H15385  10.157  10.701   5.999 -1.3904 -0.2486 -0.1269
  117MOL0     H15386  10.089  10.699   5.835  2.7604 -3.7481 -0.7300
  117MOL0     H15387  10.250  10.941   5.931  0.3516 -0.0946 -0.6938
  117MOL0     H15388  10.141  10.929   5.791 -1.6701  0.3431  0.8859
  117MOL0     H15389  10.044  11.049   5.996  0.4194 -0.4232 -0.4823
  117MOL0     H15390  10.057  10.880   6.070 -3.9010 -0.7304 -0.0070
  117MOL0     H15391   9.900  10.804   5.891  0.2793  1.2010 -1.2567
  117MOL0     H15392   9.852  10.964   5.873 -2.5304 -0.0053 -0.9788
  117MOL0     H15393   9.694  10.831   6.019  0.1650 -1.7115  0.8378
  117MOL0     H15394   9.819  10.792   6.129  2.7294  0.3225  0.1251
  117MOL0     H15395   9.729  11.077   6.059  0.7010  0.5756  0.2516
  117MOL0     H15396   9.846  11.029   6.183 -0.5690 -0.1357  2.0092
  117MOL0     H15397   9.470  11.028   6.124 -1.4867 -1.5322  0.7042
  117MOL0     H15398   9.289  11.060   6.260  2.4836  4.2252  1.1658
  117MOL0     H15399   9.323  11.080   6.424  1.3871 -0.7430  0.2230
  117MOL0     H15400   9.287  10.830   6.448  2.6354  0.9235 -1.0552
  117MOL0     H15401   9.230  10.835   6.274 -1.2856  0.4949 -0.7768
  117MOL0     H15402   9.111  11.013   6.489  0.4399 -1.7124  2.1866
  117MOL0     H15403   9.047  10.967   6.322 -0.1551  0.0368  0.1895
  117MOL0     H15404   9.046  10.783   6.562  0.1603  0.4006 -0.4318
  117MOL0     H15405   9.039  10.731   6.388  0.4368 -1.3890  0.7932
  117MOL0     H15406   8.607  10.922   6.456 -1.3024  1.1656  2.1296
  117MOL0     H15407   8.428  10.766   6.557  0.3986  0.2997  0.8812
  117MOL0     H15408   8.436  10.417   6.958 -0.8299 -1.0540  0.7078
  117MOL0     H15409   8.286  10.263   7.083 -5.1821 -4.8183  0.6747
  117MOL0     H15410   8.162   9.884   6.921 -0.0759 -0.8833  4.7441
  117MOL0     H15411   8.041   9.968   6.822  1.4534  0.1010 -0.9106
  117MOL0     H15412   8.029   9.896   7.113  1.6024  0.4257 -0.6648
  117MOL0     H15413   7.940   9.810   6.978 -0.7560  1.2942 -1.8870
  117MOL0     H15414   7.822  10.038   6.928  1.2991 -3.1171 -0.5329
  117MOL0     H15415   7.883  10.098   7.079 -2.5877  1.5491 -0.6012
  117MOL0     H15416   7.732   9.826   7.061  1.3445  0.0083  2.4524
  117MOL0     H15417   7.731   9.938   7.186  0.8991 -1.6648 -0.2066
  117MOL0     H15418   7.589  10.091   7.028  1.2436  0.0960  2.7048
  117MOL0     H15419   7.516   9.947   7.088 -1.6052 -1.1377 -3.0731
  117MOL0     H15420   7.588   9.821   6.883  0.2508 -0.0968 -2.1787
  117MOL0     H15421   7.623   9.975   6.806  1.7533 -2.7568  0.6658
  117MOL0     H15422   7.349   9.878   6.906 -1.6987  2.4868  0.7267
  117MOL0     H15423   7.378  10.047   6.896 -3.5603 -0.3959 -2.0671
  117MOL0     H15424   7.463  10.004   6.655 -0.8412  0.7638 -0.3737
  117MOL0     H15425   7.289  10.011   6.689 -0.0760 -0.1002  1.9406
  117MOL0     H15426   8.226  10.040   6.724 -0.1476  0.2560 -1.2467
  117MOL0     H15427   8.347  10.210   6.593 -7.2451 -2.5645 -0.7762
  117MOL0     H15428   8.724  10.484   6.656  1.2236 -0.1576  0.4389
  117MOL0     H15429   8.895  10.631   6.584 -0.3752 -0.1311  0.4897
  117MOL0     H15430  10.421  10.734   5.483 -0.1575 -1.3594 -1.1855
  117MOL0     H15431  10.535  10.820   5.291  0.0222  0.7505 -0.0590
  117MOL0     H15432  11.056  10.910   5.218 -1.2029  2.2697  1.2803
  117MOL0     H15433  11.191  10.966   5.027 -0.1112 -0.6696 -0.6608
  117MOL0     H15434  11.148  11.365   4.928  1.3340  1.4020 -0.5820
  117MOL0     H15435  11.042  11.339   4.789 -0.1135 -0.7738  0.2606
  117MOL0     H15436  11.338  11.355   4.763  1.5927  4.5572 -1.8430
  117MOL0     H15437  11.223  11.337   4.642 -1.3226  0.8488  0.0633
  117MOL0     H15438  11.217  11.586   4.835 -1.8688  1.6642 -1.3693
  117MOL0     H15439  11.154  11.579   4.679 -2.1499 -1.0138  2.2095
  117MOL0     H15440  11.394  11.693   4.700 -1.3328  0.8103  0.8496
  117MOL0     H15441  11.460  11.551   4.752 -1.5290 -2.0068  0.8597
  117MOL0     H15442  11.415  11.482   4.339  0.2791  2.6352 -0.4056
  117MOL0     H15443  10.876  11.223   4.900 -0.0947 -0.6534 -0.2653
  117MOL0     H15444  10.738  11.159   5.069  0.3399  2.4573  3.8532
  118MOL0     O15445   9.631   3.101   5.740  0.1429 -1.1642 -0.2184
  118MOL0     C15446   9.704   3.196   5.722  0.2719 -0.6552  0.5049
  118MOL0     O15447   9.719   3.309   5.805  0.1929  0.0551  0.0722
  118MOL0     C15448   9.660   3.329   5.927  0.3939  0.2360 -0.5326
  118MOL0     C15449   9.530   3.278   5.947  0.3553 -0.8581 -0.7931
  118MOL0     C15450   9.463   3.314   6.063 -0.0058  0.6034 -0.2991
  118MOL0     C15451   9.517   3.397   6.163  0.6085  0.7536 -0.1660
  118MOL0     O15452   9.458   3.434   6.283 -0.4688  0.3829 -0.1140
  118MOL0     C15453   9.322   3.376   6.310 -0.1737 -0.1800  0.6106
  118MOL0     C15454   9.277   3.406   6.456 -0.3481  0.6417 -0.1176
  118MOL0     C15455   9.153   3.323   6.501  0.2219  0.9487 -0.6598
  118MOL0     C15456   9.025   3.374   6.437  0.1981  0.4942  0.1772
  118MOL0     C15457   8.948   3.458   6.541  0.1849 -0.5848  0.2093
  118MOL0     C15458   8.798   3.460   6.493 -0.4236 -0.2210 -0.6606
  118MOL0     C15459   8.725   3.544   6.602  0.1057  0.8766 -0.2262
  118MOL0     C15460   8.585   3.578   6.561 -0.0198 -0.0125  0.6194
  118MOL0     N15461   8.508   3.653   6.651 -0.4667 -0.5099 -0.9100
  118MOL0     C15462   8.537   3.793   6.680  0.4243  0.3988  0.4062
  118MOL0     C15463   8.433   3.833   6.756  0.0076 -0.1071  1.0449
  118MOL0     C15464   8.415   3.969   6.824 -1.0641  0.3831  1.0747
  118MOL0     C15465   8.542   4.041   6.865  0.6472 -0.2089  0.3792
  118MOL0     C15466   8.521   4.188   6.898  0.0867 -0.0101 -0.9113
  118MOL0     C15467   8.457   4.263   6.785 -0.3274  0.4503 -1.1847
  118MOL0     O15468   8.543   4.372   6.752 -0.6035  0.3144  0.7098
  118MOL0     C15469   8.540   4.487   6.823 -0.2666 -0.1727 -0.4503
  118MOL0     C15470   8.455   4.506   6.939 -0.0635  0.3645  0.4462
  118MOL0     C15471   8.461   4.627   7.004 -0.5236  0.3526 -0.7690
  118MOL0     C15472   8.554   4.729   6.954 -0.7890  0.2044 -0.6874
  118MOL0     C15473   8.563   4.854   7.026 -0.2292  0.4265  0.2424
  118MOL0     O15474   8.648   4.942   6.967  0.4117  0.4610 -0.0982
  118MOL0     C15475   8.685   5.066   7.016 -0.1606  0.2543  0.7467
  118MOL0     C15476   8.815   5.112   7.002  0.9779  0.3030 -0.2559
  118MOL0     C15477   8.839   5.253   7.027  0.5360 -0.7402  0.2409
  118MOL0     C15478   8.738   5.333   7.077 -0.2267  0.0227  0.2346
  118MOL0     O15479   8.772   5.464   7.108 -0.6579 -0.0344  0.5826
  118MOL0     C15480   8.673   5.569   7.103  0.7833 -0.8665  0.3836
  118MOL0     C15481   8.737   5.703   7.052  0.1144  0.8741  0.4239
  118MOL0     C15482   8.646   5.826   7.062  0.1857 -0.4430 -0.4324
  118MOL0     C15483   8.713   5.964   7.043  1.2153  0.1071 -0.6323
  118MOL0     C15484   8.628   6.071   7.105  0.2020 -0.4219 -0.8646
  118MOL0     C15485   8.476   6.071   7.083 -0.0126  0.1317  0.3662
  118MOL0     C15486   8.439   6.110   6.936 -0.1469  1.3622 -0.0479
  118MOL0     C15487   8.282   6.123   6.925  0.1550 -0.7102  0.7864
  118MOL0    Cl15488   8.237   6.129   6.755  0.6545  0.1758 -0.4308
  118MOL0     C15489   8.614   5.280   7.099  0.0702  0.7801 -1.2022
  118MOL0     C15490   8.586   5.151   7.060 -0.4386  0.2873  0.1707
  118MOL0     O15491   8.514   4.865   7.142 -0.4715  0.1118  0.5752
  118MOL0     C15492   8.642   4.701   6.850 -0.2841  0.3881  1.3143
  118MOL0     C15493   8.635   4.584   6.789 -0.3987 -0.5075 -0.3271
  118MOL0     N15494   8.341   3.724   6.773 -0.2867 -0.3694 -0.4625
  118MOL0     N15495   8.387   3.620   6.703  0.2822  0.3347 -0.3795
  118MOL0     C15496   9.650   3.435   6.145 -0.1548 -0.4179 -0.5758
  118MOL0     C15497   9.718   3.407   6.022 -0.5231 -0.3770  0.4904
  118MOL0     C15498   9.787   3.208   5.600  0.3104  0.3581  0.0429
  118MOL0     C15499   9.793   3.100   5.513 -0.7478  1.0011 -1.0269
  118MOL0     C15500   9.873   3.095   5.396  0.1861  0.1136  0.6480
  118MOL0     C15501   9.946   3.212   5.358 -0.0222 -0.4092 -0.3396
  118MOL0     O15502  10.030   3.213   5.250 -0.7446 -0.3408 -0.5254
  118MOL0     C15503  10.127   3.103   5.262  0.4976 -0.8538 -0.2079
  118MOL0     C15504  10.270   3.132   5.214  0.4042 -0.0407  0.2030
  118MOL0     C15505  10.336   3.250   5.286  0.3673 -0.8006 -0.7691
  118MOL0     C15506  10.478   3.274   5.233  0.6591 -0.3378  0.3785
  118MOL0     C15507  10.587   3.201   5.296  0.3131  0.6069 -1.0330
  118MOL0     C15508  10.671   3.150   5.362  0.4585 -0.6564 -0.1605
  118MOL0     C15509   9.937   3.324   5.445  0.4870  0.1968 -0.0867
  118MOL0     C15510   9.859   3.322   5.565 -0.1308  0.4121 -0.3504
  118MOL0     H15511   9.491   3.223   5.861  3.2697 -0.7326 -2.3046
  118MOL0     H15512   9.363   3.277   6.083 -0.7827  3.2116  1.2454
  118MOL0     H15513   9.330   3.267   6.306 -2.0853 -0.3401 -0.3620
  118MOL0     H15514   9.251   3.404   6.231 -0.0368 -1.4294  0.0132
  118MOL0     H15515   9.263   3.514   6.454 -0.0286  0.7247 -3.1378
  118MOL0     H15516   9.354   3.363   6.521 -1.9487  0.2819  1.6420
  118MOL0     H15517   9.149   3.341   6.609  0.4582 -0.3824 -0.4209
  118MOL0     H15518   9.168   3.219   6.471 -1.2193  0.4975  0.0709
  118MOL0     H15519   9.036   3.428   6.343 -2.1296  0.9896  0.1320
  118MOL0     H15520   8.965   3.287   6.408  1.3504 -0.5377  0.8044
  118MOL0     H15521   8.993   3.557   6.542  0.9279 -0.8698  2.8470
  118MOL0     H15522   8.959   3.410   6.638 -0.5923 -3.3300 -0.9646
  118MOL0     H15523   8.754   3.359   6.495  0.0600 -0.4511  1.5303
  118MOL0     H15524   8.785   3.495   6.391 -1.6620  0.3243 -0.3356
  118MOL0     H15525   8.728   3.486   6.694 -0.1123 -0.1752 -0.8711
  118MOL0     H15526   8.787   3.634   6.614  2.1335 -0.6478  1.3568
  118MOL0     H15527   8.534   3.486   6.529 -0.5086 -0.0373  1.4327
  118MOL0     H15528   8.601   3.638   6.471 -2.1352  0.8921  0.7751
  118MOL0     H15529   8.626   3.835   6.636 -0.3115 -0.0240 -1.6144
  118MOL0     H15530   8.371   3.945   6.921 -1.2428 -2.9232  0.3171
  118MOL0     H15531   8.352   4.042   6.772 -1.3542  1.8225  3.2978
  118MOL0     H15532   8.620   4.033   6.790  0.9915 -2.3787  0.8840
  118MOL0     H15533   8.571   3.982   6.953 -2.9209 -3.5748 -0.3878
  118MOL0     H15534   8.456   4.200   6.986 -0.2299  2.3518 -1.3997
  118MOL0     H15535   8.618   4.234   6.918 -0.3229  0.3804  0.3064
  118MOL0     H15536   8.355   4.289   6.814 -1.3086 -3.3727 -0.7501
  118MOL0     H15537   8.447   4.207   6.692 -1.2401  0.1018 -0.8899
  118MOL0     H15538   8.382   4.433   6.971 -1.3618  2.5810  2.9418
  118MOL0     H15539   8.398   4.649   7.089  0.7107  2.3584 -0.2910
  118MOL0     H15540   8.898   5.053   6.966 -0.9539 -1.0087 -2.8928
  118MOL0     H15541   8.933   5.306   7.010  0.1704  0.6627  2.1829
  118MOL0     H15542   8.624   5.581   7.200 -4.8981  2.9972 -2.3833
  118MOL0     H15543   8.599   5.544   7.026 -2.0889  0.8947  2.3697
  118MOL0     H15544   8.756   5.674   6.948 -0.7824 -0.6206  0.6380
  118MOL0     H15545   8.835   5.715   7.099  1.3017 -0.5202 -1.5489
  118MOL0     H15546   8.592   5.825   7.157 -2.2390  1.7241 -1.6811
  118MOL0     H15547   8.567   5.807   6.989  0.6889 -0.6839 -0.9308
  118MOL0     H15548   8.816   5.958   7.080  1.4581  2.8935 -0.6255
  118MOL0     H15549   8.706   5.979   6.935  1.0612  0.1226 -0.6201
  118MOL0     H15550   8.669   6.160   7.055 -0.3696  0.1574 -0.3087
  118MOL0     H15551   8.649   6.079   7.212 -0.5110 -0.8463 -0.6893
  118MOL0     H15552   8.433   6.139   7.157 -1.1397  1.4490 -1.4262
  118MOL0     H15553   8.431   5.973   7.105 -0.5140  0.6367  1.6422
  118MOL0     H15554   8.503   6.192   6.904  2.7380 -0.8164 -0.3137
  118MOL0     H15555   8.468   6.029   6.868  0.2854  1.6995 -0.2683
  118MOL0     H15556   8.249   6.211   6.982 -0.5864 -0.1381 -0.4961
  118MOL0     H15557   8.238   6.037   6.977 -0.6776 -1.9005 -1.7630
  118MOL0     H15558   8.540   5.342   7.149  2.1443  0.6141  2.3922
  118MOL0     H15559   8.484   5.119   7.077  0.3720 -2.0846  0.8931
  118MOL0     H15560   8.728   4.757   6.816 -0.4903  0.2820  0.5950
  118MOL0     H15561   8.709   4.553   6.717  1.0697 -2.4978  1.8709
  118MOL0     H15562   9.703   3.493   6.220 -3.0243  2.3442 -0.4855
  118MOL0     H15563   9.816   3.453   6.015  0.5591 -2.6828 -0.1697
  118MOL0     H15564   9.735   3.014   5.544  1.6250 -1.6739 -3.3763
  118MOL0     H15565   9.890   3.000   5.347 -2.0983  0.4704 -1.0010
  118MOL0     H15566  10.087   3.019   5.206  0.6303 -2.0087  1.3678
  118MOL0     H15567  10.135   3.064   5.364  1.9900  1.7355  0.7635
  118MOL0     H15568  10.328   3.047   5.251 -2.2731 -2.0864 -0.0046
  118MOL0     H15569  10.270   3.143   5.106  1.2154  1.6082  0.3466
  118MOL0     H15570  10.340   3.243   5.395 -2.0850  0.2377 -0.5421
  118MOL0     H15571  10.279   3.343   5.271  2.1039  0.1882 -1.5958
  118MOL0     H15572  10.472   3.247   5.127  0.4889 -0.4834  0.4255
  118MOL0     H15573  10.496   3.380   5.252  4.0874 -0.6833 -0.2536
  118MOL0     H15574  10.761   3.096   5.388 -0.1134 -1.5478  0.0304
  118MOL0     H15575   9.998   3.409   5.415  0.5113 -0.0518 -0.7372
  118MOL0     H15576   9.845   3.415   5.620 -0.6642  0.6670 -0.8955
  119MOL0     O15577   9.311   3.213   2.351  0.4125  0.7897 -0.4012
  119MOL0     C15578   9.327   3.323   2.301  0.3100 -0.5079  0.0159
  119MOL0     O15579   9.234   3.414   2.273  0.9184  0.3153  0.0678
  119MOL0     C15580   9.125   3.414   2.360  0.5761 -0.4420  0.2933
  119MOL0     C15581   9.052   3.305   2.408 -0.3803  0.2256  0.1188
  119MOL0     C15582   8.930   3.329   2.478 -0.6942 -0.1398  0.4175
  119MOL0     C15583   8.888   3.454   2.514 -0.2642  0.0750 -0.3155
  119MOL0     O15584   8.791   3.493   2.594 -0.1521 -0.4315  0.0236
  119MOL0     C15585   8.691   3.409   2.634 -0.2932 -0.1409 -0.9550
  119MOL0     C15586   8.573   3.500   2.668  0.4270 -0.8807 -0.5771
  119MOL0     C15587   8.447   3.413   2.709 -0.8678  0.1742  1.1473
  119MOL0     C15588   8.309   3.482   2.694 -0.0250 -0.0730  0.1723
  119MOL0     C15589   8.200   3.388   2.759 -0.8462 -0.8103  1.1751
  119MOL0     C15590   8.070   3.419   2.691 -0.1032 -0.1359  0.2716
  119MOL0     C15591   7.955   3.389   2.780 -0.1973 -0.4653 -0.8694
  119MOL0     C15592   7.819   3.426   2.719 -0.9085 -0.2326  0.7249
  119MOL0     N15593   7.709   3.414   2.814  0.5317 -0.7064  0.3003
  119MOL0     C15594   7.631   3.313   2.855  1.6883  0.4547  0.2704
  119MOL0     C15595   7.554   3.370   2.951 -0.2424  0.0199 -0.8726
  119MOL0     C15596   7.440   3.290   3.020 -0.2052 -0.8269 -0.4113
  119MOL0     C15597   7.339   3.225   2.916  0.0277 -0.2068 -0.2187
  119MOL0     C15598   7.194   3.258   2.962 -0.1542 -1.0120 -0.8734
  119MOL0     C15599   7.087   3.196   2.874  0.3761  0.2874 -0.3721
  119MOL0     O15600   6.963   3.264   2.898 -0.6916  0.3538 -0.6412
  119MOL0     C15601   6.934   3.399   2.858 -0.5166 -0.2441  0.2132
  119MOL0     C15602   7.013   3.475   2.780 -0.0352  0.1866 -0.0053
  119MOL0     C15603   6.976   3.605   2.734  0.1191  0.0063 -0.2727
  119MOL0     C15604   6.854   3.658   2.770 -0.0462 -0.7542  0.1346
  119MOL0     C15605   6.816   3.803   2.732 -0.8385 -0.6712  1.0236
  119MOL0     O15606   6.701   3.847   2.793 -0.2625  0.4885  0.7757
  119MOL0     C15607   6.657   3.975   2.752 -0.3580 -0.5706 -0.3357
  119MOL0     C15608   6.645   4.023   2.619  0.6571 -0.5924  0.8259
  119MOL0     C15609   6.589   4.150   2.588  0.6455  0.1784 -0.9340
  119MOL0     C15610   6.529   4.228   2.688 -0.9668  0.3697  0.8006
  119MOL0     O15611   6.452   4.332   2.648 -0.1184 -0.1592  0.5411
  119MOL0     C15612   6.402   4.427   2.745  0.9974  0.9945 -0.2664
  119MOL0     C15613   6.400   4.569   2.682 -0.8446 -0.4850  0.3722
  119MOL0     C15614   6.541   4.611   2.659 -0.5026  0.9408 -1.0265
  119MOL0     C15615   6.536   4.750   2.593 -0.3131  0.0950  0.6862
  119MOL0     C15616   6.674   4.799   2.549 -0.0733 -1.1135  0.2807
  119MOL0     C15617   6.776   4.809   2.661 -0.1192 -0.3745  0.5275
  119MOL0     C15618   6.736   4.885   2.788 -0.1655  0.0541 -0.5961
  119MOL0     C15619   6.685   5.032   2.757 -0.5945 -1.7074  0.4512
  119MOL0    Cl15620   6.823   5.141   2.716 -0.4143  0.1503 -0.1777
  119MOL0     C15621   6.540   4.181   2.820 -0.3717  0.5980 -0.3020
  119MOL0     C15622   6.608   4.063   2.855  0.7081  0.8741 -0.3744
  119MOL0     O15623   6.885   3.870   2.656  0.6666 -0.2095 -0.6362
  119MOL0     C15624   6.767   3.587   2.852 -0.5414 -0.8403 -0.3044
  119MOL0     C15625   6.811   3.456   2.888 -0.7273  0.6480 -0.1849
  119MOL0     N15626   7.584   3.505   2.972  0.3006  0.2055  0.0016
  119MOL0     N15627   7.682   3.529   2.890  0.3809  0.3955 -0.4003
  119MOL0     C15628   8.962   3.563   2.463 -0.3933  0.0727  0.0862
  119MOL0     C15629   9.083   3.548   2.387  0.6609  0.5743 -0.3189
  119MOL0     C15630   9.462   3.339   2.243  0.7980 -0.6648  0.9304
  119MOL0     C15631   9.479   3.459   2.162  0.7167 -0.4881 -1.0428
  119MOL0     C15632   9.606   3.485   2.096  0.0566  0.4003 -0.3408
  119MOL0     C15633   9.713   3.387   2.119 -0.1230 -0.4629  0.1949
  119MOL0     O15634   9.834   3.432   2.068 -0.0236 -0.0092  0.5302
  119MOL0     C15635   9.955   3.363   2.089  0.2076  0.7126  0.3063
  119MOL0     C15636  10.061   3.438   2.001 -0.3194  0.1883  0.8052
  119MOL0     C15637  10.069   3.388   1.852  0.1228 -0.4707 -0.3348
  119MOL0     C15638  10.169   3.471   1.769  1.0788  0.1204 -0.0127
  119MOL0     C15639  10.307   3.453   1.825 -0.1227  1.1309 -0.0164
  119MOL0     C15640  10.408   3.434   1.886 -0.3301 -0.3549 -0.6727
  119MOL0     C15641   9.697   3.271   2.194 -0.0536  0.7388 -1.1925
  119MOL0     C15642   9.570   3.251   2.256  0.4098 -0.0496 -0.5344
  119MOL0     H15643   9.073   3.201   2.388 -2.4696 -0.1114 -0.5852
  119MOL0     H15644   8.870   3.242   2.505  0.9025 -1.6099 -0.5928
  119MOL0     H15645   8.724   3.364   2.728 -1.0425  0.8310 -0.2081
  119MOL0     H15646   8.666   3.327   2.566  0.8750 -0.8768 -0.5367
  119MOL0     H15647   8.549   3.557   2.578  2.1718 -1.1510 -1.2591
  119MOL0     H15648   8.599   3.577   2.741 -1.3350 -0.6039 -0.1927
  119MOL0     H15649   8.456   3.375   2.811  2.7371 -0.5342  0.6678
  119MOL0     H15650   8.446   3.325   2.644 -1.6534  1.1379 -0.1842
  119MOL0     H15651   8.317   3.579   2.744  0.4042  0.1025 -0.2300
  119MOL0     H15652   8.296   3.490   2.585  4.5332 -0.9049 -0.6608
  119MOL0     H15653   8.193   3.396   2.868 -1.7389  0.3136  1.0602
  119MOL0     H15654   8.235   3.292   2.721  2.6294  0.0269  1.9200
  119MOL0     H15655   8.066   3.360   2.599 -0.2022  0.9114 -0.4080
  119MOL0     H15656   8.075   3.521   2.654  1.4737 -1.1501 -2.6286
  119MOL0     H15657   7.948   3.281   2.794 -0.3424 -0.7358 -2.7556
  119MOL0     H15658   7.967   3.438   2.877  1.5621 -0.3271 -1.1277
  119MOL0     H15659   7.794   3.366   2.631  0.3588 -1.0420  0.8930
  119MOL0     H15660   7.829   3.531   2.689  1.6511 -1.0561 -1.7818
  119MOL0     H15661   7.622   3.216   2.807 -0.0961  2.5496 -4.2100
  119MOL0     H15662   7.390   3.360   3.088  0.8917  0.5583 -0.9795
  119MOL0     H15663   7.482   3.211   3.082 -3.1024 -2.1118  0.0717
  119MOL0     H15664   7.347   3.116   2.915 -2.9468 -0.5247  0.0644
  119MOL0     H15665   7.363   3.263   2.817  0.1444 -0.4770 -0.2934
  119MOL0     H15666   7.180   3.229   3.066 -1.7369 -0.4893 -0.9086
  119MOL0     H15667   7.172   3.365   2.958 -1.0518 -1.1347  0.2834
  119MOL0     H15668   7.079   3.088   2.887  2.2737 -0.1486 -2.3119
  119MOL0     H15669   7.104   3.214   2.768 -0.2000  1.7678 -0.2386
  119MOL0     H15670   7.105   3.430   2.744  0.3641  0.7782  0.2589
  119MOL0     H15671   7.040   3.659   2.665 -0.0111  0.3173 -0.1496
  119MOL0     H15672   6.660   3.970   2.526 -4.2567  0.6568 -1.0092
  119MOL0     H15673   6.576   4.191   2.488  3.5455  0.7502 -1.1762
  119MOL0     H15674   6.463   4.432   2.835 -2.0937  0.1795  2.0498
  119MOL0     H15675   6.303   4.404   2.787  0.7286 -0.9017 -1.8018
  119MOL0     H15676   6.348   4.646   2.740 -0.9626 -2.5875  3.2394
  119MOL0     H15677   6.354   4.574   2.582 -0.5396 -1.2947  0.1827
  119MOL0     H15678   6.599   4.543   2.596 -2.7321 -0.5284 -1.6516
  119MOL0     H15679   6.593   4.613   2.756  3.4150 -0.5294 -2.8899
  119MOL0     H15680   6.481   4.739   2.499 -0.5328  0.9875  0.6994
  119MOL0     H15681   6.491   4.815   2.669  0.9768 -2.8918  4.3486
  119MOL0     H15682   6.662   4.903   2.519  3.7808 -0.3586  0.7758
  119MOL0     H15683   6.716   4.738   2.468  0.6743  0.0203 -0.2044
  119MOL0     H15684   6.863   4.866   2.627 -1.4219  1.0302 -0.5302
  119MOL0     H15685   6.811   4.709   2.689  3.2353  0.1674 -1.2517
  119MOL0     H15686   6.650   4.837   2.837  0.4231 -1.0890 -0.6396
  119MOL0     H15687   6.824   4.891   2.853  0.0804  4.1886 -1.1065
  119MOL0     H15688   6.625   5.075   2.838 -0.6849  3.3914 -1.9151
  119MOL0     H15689   6.619   5.042   2.670  0.0342 -0.6168  0.0744
  119MOL0     H15690   6.499   4.243   2.899  1.8741  1.8999 -0.0599
  119MOL0     H15691   6.599   4.033   2.959 -0.5389  3.4551  0.3502
  119MOL0     H15692   6.677   3.628   2.898  0.2351  0.7069 -0.0914
  119MOL0     H15693   6.749   3.400   2.957 -2.6251  1.7066 -0.9561
  119MOL0     H15694   8.926   3.662   2.491 -0.6446  0.3460 -1.1542
  119MOL0     H15695   9.128   3.638   2.347  0.1137  0.8577 -0.3209
  119MOL0     H15696   9.420   3.550   2.156  3.6555  1.5484 -1.2695
  119MOL0     H15697   9.622   3.566   2.026 -1.0586 -0.0471 -1.1462
  119MOL0     H15698   9.948   3.257   2.065  1.8001  1.0389 -1.9757
  119MOL0     H15699   9.984   3.372   2.194 -4.2117 -0.2247  1.8378
  119MOL0     H15700  10.052   3.546   2.017  1.3844  0.1301  2.5595
  119MOL0     H15701  10.154   3.414   2.052 -0.2874 -2.5423 -0.3809
  119MOL0     H15702   9.973   3.396   1.801 -0.6409 -2.0563  0.7689
  119MOL0     H15703  10.111   3.288   1.838 -1.3287 -0.7530 -3.5780
  119MOL0     H15704  10.174   3.430   1.668  6.1816  1.9340 -0.7897
  119MOL0     H15705  10.134   3.574   1.771  2.7837  0.7335  1.7642
  119MOL0     H15706  10.506   3.427   1.928  0.4582 -1.4003 -2.5898
  119MOL0     H15707   9.773   3.194   2.208 -1.3041 -1.2578 -4.2779
  119MOL0     H15708   9.558   3.169   2.326 -1.2844 -1.8476 -2.7672
  120MOL0     O15709   4.317   2.313   8.559 -0.4851  0.4055  0.1365
  120MOL0     C15710   4.373   2.205   8.589 -0.0771 -0.2376 -0.4561
  120MOL0     O15711   4.325   2.084   8.584  0.1400 -0.5647 -0.5404
  120MOL0     C15712   4.193   2.066   8.547  0.8416 -0.3955 -0.8594
  120MOL0     C15713   4.159   1.971   8.457 -0.3768 -0.1993 -0.0467
  120MOL0     C15714   4.025   1.936   8.419  0.1538 -0.4138 -0.4252
  120MOL0     C15715   3.932   2.018   8.485  0.4669  0.3715  0.9856
  120MOL0     O15716   3.800   1.987   8.451  0.4955  0.8867  0.1684
  120MOL0     C15717   3.722   2.104   8.411 -0.0159  0.5408 -0.0707
  120MOL0     C15718   3.577   2.073   8.384 -0.2520  0.3647  0.7565
  120MOL0     C15719   3.558   2.027   8.243  0.6846  0.1240 -0.1388
  120MOL0     C15720   3.425   1.962   8.219 -0.1573  0.2436 -0.4077
  120MOL0     C15721   3.401   1.938   8.074  0.0529 -1.1276  0.0690
  120MOL0     C15722   3.253   1.893   8.051  0.1931  0.1054 -0.4794
  120MOL0     C15723   3.225   1.871   7.906  0.8569 -0.3145  0.9395
  120MOL0     C15724   3.078   1.838   7.875 -0.1543  0.9131  0.0887
  120MOL0     N15725   3.035   1.840   7.735 -0.4869 -0.4553 -0.1116
  120MOL0     C15726   3.076   1.761   7.628 -0.1842  1.1705  0.0102
  120MOL0     C15727   3.000   1.789   7.521  0.0106  0.4304 -0.5996
  120MOL0     C15728   3.012   1.718   7.391 -0.0141  0.8680 -0.5908
  120MOL0     C15729   2.917   1.604   7.369  0.1114 -0.0760 -0.2308
  120MOL0     C15730   2.765   1.650   7.370 -0.9236 -0.3894 -0.5259
  120MOL0     C15731   2.661   1.554   7.307  0.2755  0.1966  0.0066
  120MOL0     O15732   2.537   1.622   7.302 -0.1359 -0.0032  0.2872
  120MOL0     C15733   2.418   1.552   7.278  0.5577  1.1984 -0.5928
  120MOL0     C15734   2.291   1.612   7.278 -0.4937  0.0806 -0.7976
  120MOL0     C15735   2.173   1.552   7.239 -0.5978 -0.3123  0.0930
  120MOL0     C15736   2.174   1.418   7.200  0.1143  0.2492  0.3456
  120MOL0     C15737   2.040   1.357   7.153 -0.5325  0.0086  0.5628
  120MOL0     O15738   1.928   1.409   7.206  0.0551 -0.4971  0.6236
  120MOL0     C15739   1.805   1.397   7.140 -1.7155  1.1465 -0.9925
  120MOL0     C15740   1.701   1.318   7.192 -0.1643  0.2030 -0.0098
  120MOL0     C15741   1.578   1.322   7.127 -0.5177 -0.2301  0.1810
  120MOL0     C15742   1.559   1.425   7.030 -0.3145 -0.1383  0.5598
  120MOL0     O15743   1.435   1.441   6.981  0.2074 -0.2027  0.2789
  120MOL0     C15744   1.411   1.559   6.896 -0.9026 -0.6096 -0.0519
  120MOL0     C15745   1.261   1.543   6.842 -0.1036  0.3926  0.6162
  120MOL0     C15746   1.239   1.450   6.722  0.3339 -0.0407  0.3835
  120MOL0     C15747   1.085   1.419   6.717  0.0996  0.1203 -0.6196
  120MOL0     C15748   1.050   1.310   6.613 -0.5699  1.3934  0.0290
  120MOL0     C15749   0.896   1.297   6.587  0.5136 -0.3058 -0.2675
  120MOL0     C15750   0.871   1.208   6.463  0.0059 -0.3787  0.2959
  120MOL0     C15751   0.725   1.168   6.454 -0.0076 -0.0385 -1.3605
  120MOL0    Cl15752   0.703   1.042   6.570  0.0596  0.3992  0.1602
  120MOL0     C15753   1.672   1.493   6.977  0.7061 -0.1029  0.7356
  120MOL0     C15754   1.797   1.473   7.031 -0.5215  0.3128  0.1005
  120MOL0     O15755   2.042   1.279   7.059 -0.7520  0.1653 -0.1047
  120MOL0     C15756   2.296   1.345   7.207 -0.1005 -0.7927  0.2289
  120MOL0     C15757   2.414   1.416   7.240  0.1835  0.5003  0.1208
  120MOL0     N15758   2.916   1.894   7.564  0.3004  0.1364  1.1502
  120MOL0     N15759   2.945   1.934   7.680  0.0552 -0.6231  0.1531
  120MOL0     C15760   3.961   2.112   8.585 -0.2843  0.4740  1.3272
  120MOL0     C15761   4.096   2.131   8.623  0.0699 -0.0940 -0.0359
  120MOL0     C15762   4.521   2.205   8.621  0.5395 -0.2776 -0.1884
  120MOL0     C15763   4.584   2.320   8.656 -0.1324 -0.7672 -0.8403
  120MOL0     C15764   4.717   2.317   8.702  0.2781 -0.1655 -0.9335
  120MOL0     C15765   4.792   2.198   8.720  1.0603  0.7648  0.4275
  120MOL0     O15766   4.911   2.195   8.776 -0.3100 -0.5223  0.2513
  120MOL0     C15767   4.935   2.273   8.894 -0.0138 -0.6468  0.4102
  120MOL0     C15768   5.031   2.391   8.886 -0.5377  0.9437 -0.4181
  120MOL0     C15769   5.159   2.359   8.807 -0.2890 -1.4658  0.0730
  120MOL0     C15770   5.149   2.385   8.653 -0.4905  0.7243 -0.9329
  120MOL0     C15771   5.280   2.428   8.591 -0.4030  0.2776 -0.9441
  120MOL0     C15772   5.382   2.431   8.526 -0.4976  0.2889  0.0713
  120MOL0     C15773   4.730   2.080   8.688  0.6503 -0.1795  1.2670
  120MOL0     C15774   4.593   2.082   8.634 -0.0541 -0.1550 -0.2645
  120MOL0     H15775   4.240   1.919   8.408  0.5756  1.2596 -0.0883
  120MOL0     H15776   3.996   1.859   8.347 -0.1125 -1.7394  1.0388
  120MOL0     H15777   3.773   2.153   8.328  0.1249  0.5435  0.0172
  120MOL0     H15778   3.706   2.172   8.496  1.3038 -0.8352  1.3467
  120MOL0     H15779   3.513   2.155   8.418 -2.7196 -1.2058  0.1476
  120MOL0     H15780   3.560   1.990   8.452  1.1108 -0.2375  0.3809
  120MOL0     H15781   3.636   1.952   8.226  1.2309  0.1696  1.9330
  120MOL0     H15782   3.573   2.114   8.177  0.6171 -0.0407 -0.3695
  120MOL0     H15783   3.417   1.866   8.270 -2.0892 -0.3499 -1.7063
  120MOL0     H15784   3.349   2.035   8.250  0.4727  0.5333  0.5108
  120MOL0     H15785   3.461   1.849   8.053  1.8262 -0.9029  3.3947
  120MOL0     H15786   3.419   2.026   8.013 -5.1793 -0.5382 -1.0975
  120MOL0     H15787   3.188   1.962   8.106  0.2789  0.8949 -1.3360
  120MOL0     H15788   3.250   1.791   8.091  4.0190 -0.6272 -1.6857
  120MOL0     H15789   3.250   1.960   7.848 -0.0150 -0.5948  0.1114
  120MOL0     H15790   3.290   1.793   7.865  3.1871  2.5116 -1.1958
  120MOL0     H15791   3.021   1.917   7.924  2.0735  2.9635 -0.3912
  120MOL0     H15792   3.062   1.739   7.917  2.3420 -0.2044 -1.3707
  120MOL0     H15793   3.153   1.684   7.630 -2.4513 -1.4053 -2.6178
  120MOL0     H15794   3.114   1.677   7.391 -1.2656 -2.6043 -0.0764
  120MOL0     H15795   3.017   1.781   7.302  3.9506 -0.8983 -1.8801
  120MOL0     H15796   2.933   1.524   7.442  0.3251 -0.2565 -0.4726
  120MOL0     H15797   2.927   1.568   7.267  2.3098 -1.3017  0.3474
  120MOL0     H15798   2.734   1.681   7.471 -2.9050 -0.8159 -0.9481
  120MOL0     H15799   2.772   1.740   7.308 -0.4498  0.0563  0.1687
  120MOL0     H15800   2.664   1.467   7.374 -1.9730 -0.0720 -0.1740
  120MOL0     H15801   2.698   1.517   7.211  1.4073  0.4483  0.3230
  120MOL0     H15802   2.293   1.716   7.310 -0.0188  0.3611 -1.7077
  120MOL0     H15803   2.087   1.619   7.235 -0.1758  0.3594  1.7340
  120MOL0     H15804   1.717   1.251   7.276  3.5396 -0.3341 -0.9828
  120MOL0     H15805   1.494   1.264   7.165 -0.7762  0.5738  0.8679
  120MOL0     H15806   1.473   1.571   6.807  1.1263  4.0130  1.7166
  120MOL0     H15807   1.435   1.651   6.949 -1.0502 -1.9210  2.4279
  120MOL0     H15808   1.223   1.639   6.804  0.3916 -0.4900 -2.3721
  120MOL0     H15809   1.199   1.505   6.924  0.4654 -0.5682  0.6208
  120MOL0     H15810   1.288   1.357   6.750  0.2401 -0.4768 -0.8429
  120MOL0     H15811   1.280   1.494   6.631 -1.7165  0.5610 -0.3034
  120MOL0     H15812   1.042   1.394   6.814 -0.5455  0.5611 -0.7850
  120MOL0     H15813   1.038   1.508   6.674 -1.8044  0.2936  1.6360
  120MOL0     H15814   1.083   1.210   6.641 -1.4023  1.2739  0.6270
  120MOL0     H15815   1.090   1.342   6.516  2.1431 -2.7660 -0.4905
  120MOL0     H15816   0.857   1.396   6.562 -0.4591 -0.5081  0.3745
  120MOL0     H15817   0.842   1.250   6.670 -1.1787 -0.8815 -1.6216
  120MOL0     H15818   0.896   1.265   6.373 -2.5713  0.2454 -0.0908
  120MOL0     H15819   0.927   1.114   6.463 -1.6160 -1.3894 -1.1517
  120MOL0     H15820   0.697   1.141   6.352 -1.6762 -1.7605 -0.5152
  120MOL0     H15821   0.651   1.242   6.487  3.9277  3.8597 -0.3294
  120MOL0     H15822   1.657   1.573   6.906  1.5390 -1.6317 -1.2837
  120MOL0     H15823   1.887   1.521   6.994 -1.4114  0.0825 -2.5822
  120MOL0     H15824   2.297   1.243   7.172 -1.0090 -0.4614 -0.7932
  120MOL0     H15825   2.505   1.357   7.238 -0.5415 -0.6561  0.3459
  120MOL0     H15826   3.872   2.148   8.636  0.3699 -0.5947  3.3686
  120MOL0     H15827   4.131   2.200   8.700 -3.3278 -1.6100  3.1939
  120MOL0     H15828   4.532   2.415   8.657  2.1404  0.5709  0.1994
  120MOL0     H15829   4.755   2.408   8.747  1.2856 -0.4246 -1.2304
  120MOL0     H15830   4.960   2.204   8.975  0.7534  1.4572  2.0455
  120MOL0     H15831   4.838   2.318   8.918 -0.0633 -1.2698  1.4604
  120MOL0     H15832   4.980   2.476   8.840 -0.9503  0.0397 -1.6896
  120MOL0     H15833   5.077   2.420   8.981  0.7948 -3.1916  0.4350
  120MOL0     H15834   5.196   2.260   8.833  3.1561 -0.3718 -0.1849
  120MOL0     H15835   5.237   2.423   8.848 -1.2000 -0.4777  0.3235
  120MOL0     H15836   5.088   2.310   8.603 -2.0090  1.4559 -0.2236
  120MOL0     H15837   5.090   2.475   8.636 -0.4919  0.7730 -0.6760
  120MOL0     H15838   5.478   2.419   8.480  0.5001 -0.1662  2.1350
  120MOL0     H15839   4.771   1.980   8.696 -2.7123 -1.7656  0.4075
  120MOL0     H15840   4.547   1.985   8.614  0.8825 -0.4109 -1.3034
  121MOL0     O15841   7.705   8.274   0.568 -0.0927  0.0400  0.1270
  121MOL0     C15842   7.781   8.316   0.483  0.4750 -0.5955  1.2241
  121MOL0     O15843   7.743   8.382   0.359  0.0119  0.0119 -0.0588
  121MOL0     C15844   7.616   8.426   0.336  1.0952 -0.7311  0.1296
  121MOL0     C15845   7.602   8.501   0.214 -0.1652  0.0288 -1.1773
  121MOL0     C15846   7.489   8.563   0.174  1.1601 -0.4287 -0.2446
  121MOL0     C15847   7.368   8.549   0.253 -0.7359  0.6066  0.6907
  121MOL0     O15848   7.242   8.602   0.230 -0.1531 -0.3685 -0.6291
  121MOL0     C15849   7.231   8.728   0.157 -0.5454  0.7112 -0.4169
  121MOL0     C15850   7.107   8.811   0.197  0.1526  0.0754 -0.4897
  121MOL0     C15851   7.149   8.899   0.311  0.5358 -0.4705  0.1431
  121MOL0     C15852   7.039   9.011   0.335  0.2745  0.2261 -0.0910
  121MOL0     C15853   7.063   9.131   0.248 -0.5952 -0.1875 -0.2624
  121MOL0     C15854   6.950   9.231   0.254 -0.2949 -0.3511  0.1283
  121MOL0     C15855   6.960   9.325   0.377  0.1997  0.8423 -0.1936
  121MOL0     C15856   6.830   9.408   0.402 -0.3569  0.1726 -0.1809
  121MOL0     N15857   6.793   9.478   0.279 -0.0336  0.0933 -0.0949
  121MOL0     C15858   6.858   9.583   0.228  0.0998 -0.1798 -0.0835
  121MOL0     C15859   6.795   9.608   0.107  0.0934  0.1167 -0.7443
  121MOL0     C15860   6.826   9.726   0.026  0.4369 -0.7574  0.4746
  121MOL0     C15861   6.707   9.829   0.021  0.4930 -0.7064 -0.2189
  121MOL0     C15862   6.642   9.830  -0.124 -0.7660  0.9363  0.0417
  121MOL0     C15863   6.530   9.733  -0.133  0.8709  0.3934  1.5330
  121MOL0     O15864   6.489   9.717  -0.271  0.2468 -0.3715  0.3862
  121MOL0     C15865   6.402   9.609  -0.303  0.6098  0.4730  0.0351
  121MOL0     C15866   6.391   9.483  -0.240  0.4589 -0.6972 -0.4216
  121MOL0     C15867   6.289   9.399  -0.275  0.4281  0.4673  0.6002
  121MOL0     C15868   6.189   9.437  -0.361  0.5965  0.4903  0.1580
  121MOL0     C15869   6.087   9.345  -0.416  0.4440 -0.0640 -0.4620
  121MOL0     O15870   5.966   9.406  -0.464  0.4817  0.0555 -0.0381
  121MOL0     C15871   5.866   9.319  -0.498 -0.8391 -0.2342 -0.0117
  121MOL0     C15872   5.745   9.307  -0.434 -0.1329  0.5442 -0.9468
  121MOL0     C15873   5.635   9.226  -0.484 -0.5127 -1.4087 -0.4587
  121MOL0     C15874   5.674   9.147  -0.600 -0.9863 -0.5425 -0.3849
  121MOL0     O15875   5.574   9.073  -0.655 -0.1579 -0.8062 -0.4412
  121MOL0     C15876   5.587   8.932  -0.629 -0.2417 -0.2716  0.5993
  121MOL0     C15877   5.456   8.861  -0.658  0.4644 -0.5374  0.0115
  121MOL0     C15878   5.435   8.838  -0.806  0.3588  1.0078 -0.3246
  121MOL0     C15879   5.313   8.749  -0.839 -0.9081  0.3205 -0.7422
  121MOL0     C15880   5.177   8.819  -0.848 -0.0313  0.6090 -0.6118
  121MOL0     C15881   5.063   8.720  -0.868 -0.0558 -0.5193 -0.2289
  121MOL0     C15882   5.034   8.637  -0.741 -0.8086 -0.0115 -0.1859
  121MOL0     C15883   4.907   8.552  -0.762  0.3689  0.4425  0.1164
  121MOL0    Cl15884   4.903   8.471  -0.925  0.0553 -0.3214 -0.3791
  121MOL0     C15885   5.793   9.158  -0.670  0.1367  0.1003 -0.2096
  121MOL0     C15886   5.894   9.234  -0.613  0.2397 -0.5091 -0.2275
  121MOL0     O15887   6.106   9.228  -0.402  0.4927 -0.7731 -0.0238
  121MOL0     C15888   6.198   9.564  -0.425 -0.2619 -0.6954 -0.5071
  121MOL0     C15889   6.305   9.650  -0.389 -0.4697  0.0387 -0.4698
  121MOL0     N15890   6.699   9.516   0.086  0.2503  0.8489  0.2434
  121MOL0     N15891   6.696   9.440   0.191  0.2338  0.3352 -1.0994
  121MOL0     C15892   7.369   8.468   0.366 -0.4508  0.1100  0.7594
  121MOL0     C15893   7.493   8.404   0.405  1.4942  0.3059  1.0040
  121MOL0     C15894   7.926   8.292   0.496 -0.4118  0.3345  0.7665
  121MOL0     C15895   8.021   8.327   0.394  0.5969  0.2822 -0.6018
  121MOL0     C15896   8.161   8.300   0.419  0.2764 -0.1576 -0.5034
  121MOL0     C15897   8.207   8.246   0.530 -0.1167 -0.3226 -0.5478
  121MOL0     O15898   8.337   8.216   0.546 -0.6670 -0.4751 -0.7382
  121MOL0     C15899   8.396   8.289   0.651 -0.4712  0.0670 -0.7052
  121MOL0     C15900   8.541   8.337   0.637 -0.3457  0.0941 -0.2668
  121MOL0     C15901   8.584   8.366   0.498 -0.0750 -0.5671  0.2004
  121MOL0     C15902   8.692   8.478   0.499  0.1796  0.7460  0.6155
  121MOL0     C15903   8.825   8.416   0.523 -0.7684 -0.8753 -0.5138
  121MOL0     C15904   8.938   8.365   0.532 -0.2801 -0.3923 -0.3363
  121MOL0     C15905   8.117   8.208   0.622 -0.1259  0.2040 -0.7462
  121MOL0     C15906   7.982   8.231   0.616 -0.6361  0.2404  0.8258
  121MOL0     H15907   7.678   8.521   0.139  0.7336 -2.9028 -1.1894
  121MOL0     H15908   7.494   8.637   0.095  1.1304 -0.3421 -0.1651
  121MOL0     H15909   7.227   8.708   0.049 -1.3408  3.1811 -0.9008
  121MOL0     H15910   7.324   8.786   0.166  1.1547 -1.6855 -1.2893
  121MOL0     H15911   7.021   8.748   0.221 -1.8831  2.5669 -0.8227
  121MOL0     H15912   7.072   8.875   0.116  0.8912  1.3701  0.1850
  121MOL0     H15913   7.245   8.949   0.292  0.4405 -0.7157 -1.0726
  121MOL0     H15914   7.161   8.828   0.392 -1.0963 -0.6534  0.2646
  121MOL0     H15915   6.940   8.971   0.311  0.6200 -0.1651 -0.8798
  121MOL0     H15916   7.045   9.049   0.438  0.9167 -2.7200  1.0649
  121MOL0     H15917   7.070   9.097   0.144 -0.0021 -0.1808 -0.2295
  121MOL0     H15918   7.161   9.173   0.271  0.1300 -0.5330 -2.4322
  121MOL0     H15919   6.850   9.189   0.260  0.2487 -1.5110  1.6202
  121MOL0     H15920   6.964   9.300   0.170 -0.6405 -0.2517  0.1509
  121MOL0     H15921   6.979   9.258   0.462  0.6080 -0.8324 -1.5492
  121MOL0     H15922   7.040   9.398   0.367 -1.5672  3.1907  1.6268
  121MOL0     H15923   6.841   9.481   0.484 -1.7848  0.5445 -0.3062
  121MOL0     H15924   6.753   9.343   0.443  1.9043 -1.7044  1.3893
  121MOL0     H15925   6.924   9.654   0.277 -1.6092  0.5269  1.3066
  121MOL0     H15926   6.852   9.688  -0.073  0.0338 -0.6613  0.3324
  121MOL0     H15927   6.914   9.781   0.062  1.6078 -2.8253  0.9794
  121MOL0     H15928   6.749   9.924   0.054 -0.2449 -1.8066  4.7670
  121MOL0     H15929   6.628   9.804   0.093  0.9117 -1.1537  0.0880
  121MOL0     H15930   6.609   9.933  -0.138 -0.7528  1.0297  0.6515
  121MOL0     H15931   6.712   9.808  -0.206 -1.6313 -1.4352 -0.1251
  121MOL0     H15932   6.447   9.769  -0.072  1.8025  0.2472  2.9447
  121MOL0     H15933   6.553   9.633  -0.095 -0.9448 -0.9323 -0.6097
  121MOL0     H15934   6.462   9.433  -0.175 -0.9437 -0.0799  1.6895
  121MOL0     H15935   6.308   9.297  -0.242  0.1301  0.1594 -0.1547
  121MOL0     H15936   5.744   9.361  -0.340  0.8277 -2.2108  0.7492
  121MOL0     H15937   5.536   9.220  -0.439 -0.3836 -2.4388 -0.3019
  121MOL0     H15938   5.612   8.914  -0.524 -0.8348 -1.8323  0.5060
  121MOL0     H15939   5.653   8.880  -0.700 -1.0211  0.3472 -0.6122
  121MOL0     H15940   5.370   8.912  -0.611  0.5707  2.2370 -2.4812
  121MOL0     H15941   5.467   8.766  -0.605  0.9167 -0.4836  0.0149
  121MOL0     H15942   5.520   8.784  -0.849 -0.1032 -1.3805  1.5418
  121MOL0     H15943   5.445   8.933  -0.861  1.8714 -0.4761 -2.8229
  121MOL0     H15944   5.330   8.717  -0.942 -0.9458  0.4687 -0.7954
  121MOL0     H15945   5.306   8.664  -0.770 -0.2025  0.3956 -0.5718
  121MOL0     H15946   5.180   8.890  -0.931 -0.9422  3.0024  1.2943
  121MOL0     H15947   5.156   8.876  -0.757 -2.2353 -0.8558 -0.1247
  121MOL0     H15948   5.097   8.648  -0.944 -1.7692 -3.4390  1.6029
  121MOL0     H15949   4.966   8.757  -0.900  0.4584  0.2986 -0.8872
  121MOL0     H15950   5.116   8.566  -0.727 -0.9223 -0.4403 -1.5458
  121MOL0     H15951   5.032   8.704  -0.655  1.4553 -1.4091  1.0568
  121MOL0     H15952   4.820   8.615  -0.738  0.5258  0.8604 -0.4178
  121MOL0     H15953   4.903   8.480  -0.679 -1.0716  2.0318  1.5141
  121MOL0     H15954   5.801   9.097  -0.759  0.8705 -0.2906  0.1135
  121MOL0     H15955   5.993   9.224  -0.656 -0.1107  0.4058 -1.2730
  121MOL0     H15956   6.119   9.603  -0.488 -0.7063  2.0668  1.5505
  121MOL0     H15957   6.303   9.753  -0.424 -2.9158  1.3977  3.0738
  121MOL0     H15958   7.273   8.454   0.414 -0.4925 -1.4990  0.2571
  121MOL0     H15959   7.495   8.356   0.502 -1.0344 -0.9618  0.5172
  121MOL0     H15960   7.989   8.371   0.301  0.3680  0.6363 -0.3575
  121MOL0     H15961   8.239   8.333   0.351  1.4236 -3.6137 -1.0721
  121MOL0     H15962   8.386   8.229   0.742 -0.9892 -0.5530 -1.1641
  121MOL0     H15963   8.340   8.382   0.657  0.1781  0.3883  0.9807
  121MOL0     H15964   8.557   8.428   0.696 -0.3092  1.0609 -1.7141
  121MOL0     H15965   8.614   8.264   0.671  0.4666  0.7494 -0.5835
  121MOL0     H15966   8.501   8.406   0.439  1.6748  0.7589 -1.4700
  121MOL0     H15967   8.624   8.271   0.459 -0.3411 -0.8426  0.5882
  121MOL0     H15968   8.692   8.527   0.401 -1.0556 -0.3077  0.0394
  121MOL0     H15969   8.662   8.548   0.577 -0.5735 -0.1671  1.1788
  121MOL0     H15970   9.042   8.343   0.523  0.3503 -0.2692  4.2603
  121MOL0     H15971   8.155   8.157   0.710  3.2751  2.3505 -0.7886
  121MOL0     H15972   7.921   8.194   0.698  0.4577 -3.3343  0.2040
  122MOL0     O15973  10.636   2.243   6.709  0.2097  0.8901 -0.6068
  122MOL0     C15974  10.709   2.175   6.783  0.2870 -0.1548  0.3543
  122MOL0     O15975  10.665   2.068   6.865  0.0142 -0.1429  0.5818
  122MOL0     C15976  10.543   2.008   6.835  0.7227  0.4675  0.0650
  122MOL0     C15977  10.445   2.037   6.928 -0.5029 -0.1218 -0.2701
  122MOL0     C15978  10.317   1.980   6.909  0.4287  0.0926 -0.2470
  122MOL0     C15979  10.286   1.918   6.790  0.5456 -0.0324 -0.0915
  122MOL0     O15980  10.156   1.882   6.772  0.0681  0.0447 -0.4793
  122MOL0     C15981  10.112   1.810   6.656  0.0729  1.5073 -0.3950
  122MOL0     C15982   9.961   1.827   6.643  0.0509  0.5281  0.1043
  122MOL0     C15983   9.906   1.813   6.498  0.4382  0.0889  0.5114
  122MOL0     C15984   9.756   1.780   6.487  0.2598 -0.6577 -0.0705
  122MOL0     C15985   9.648   1.891   6.501  0.1092  0.4211 -0.2793
  122MOL0     C15986   9.691   1.998   6.608  0.8922 -0.7458 -0.5412
  122MOL0     C15987   9.567   2.097   6.628 -0.5203  0.3406  0.6191
  122MOL0     C15988   9.588   2.200   6.742  0.1127 -0.8505  0.3900
  122MOL0     N15989   9.470   2.269   6.784  0.9157 -0.7241 -0.3167
  122MOL0     C15990   9.470   2.409   6.776  0.6786 -0.1891 -0.2987
  122MOL0     C15991   9.355   2.436   6.851 -0.3038  0.7193 -0.0860
  122MOL0     C15992   9.292   2.577   6.860 -0.0329  0.4488  0.5947
  122MOL0     C15993   9.276   2.620   7.004  0.2511 -0.1679  0.9859
  122MOL0     C15994   9.239   2.777   7.007 -0.4481  0.1808 -0.6236
  122MOL0     C15995   9.224   2.824   7.158 -0.3575 -0.7626  0.0155
  122MOL0     O15996   9.213   2.968   7.145  0.2164  0.5064 -0.4525
  122MOL0     C15997   9.095   3.025   7.189  0.2542 -0.1428 -1.5438
  122MOL0     C15998   9.108   3.145   7.255  0.3213  0.0058 -0.3476
  122MOL0     C15999   8.994   3.220   7.283  0.7918  0.2192 -0.1513
  122MOL0     C16000   8.862   3.176   7.236  0.4368 -0.6995  0.2704
  122MOL0     C16001   8.739   3.258   7.270 -0.8456 -0.5896  0.3578
  122MOL0     O16002   8.737   3.361   7.365 -0.6514 -0.2542  0.0479
  122MOL0     C16003   8.625   3.423   7.410 -0.3397  0.2201  0.2540
  122MOL0     C16004   8.504   3.444   7.345 -0.3835  0.5572  0.6048
  122MOL0     C16005   8.395   3.509   7.398  0.1410 -0.0004 -0.2788
  122MOL0     C16006   8.407   3.548   7.527  0.5377  0.6888 -0.1802
  122MOL0     O16007   8.311   3.616   7.595 -0.1626  0.0631  1.0497
  122MOL0     C16008   8.177   3.603   7.554  0.7479  0.1018  0.2809
  122MOL0     C16009   8.090   3.642   7.678 -0.2766  0.1666  0.4463
  122MOL0     C16010   7.933   3.629   7.652  0.2808  0.6211 -0.0824
  122MOL0     C16011   7.851   3.662   7.776  0.2710 -0.4021 -0.2194
  122MOL0     C16012   7.707   3.637   7.781  0.0421  0.0692  0.4253
  122MOL0     C16013   7.641   3.722   7.670  0.9197 -0.8089 -0.4608
  122MOL0     C16014   7.483   3.740   7.690 -0.5019 -0.7205  0.2960
  122MOL0     C16015   7.416   3.808   7.565 -0.1429 -0.2231  0.2380
  122MOL0    Cl16016   7.364   3.972   7.607  0.0794  0.4454  0.1017
  122MOL0     C16017   8.520   3.524   7.602  0.1709 -0.4102 -0.2910
  122MOL0     C16018   8.632   3.457   7.541 -0.2118  0.2728 -0.7997
  122MOL0     O16019   8.634   3.216   7.216  0.0566 -2.0027  0.2486
  122MOL0     C16020   8.859   3.056   7.163  0.1798 -0.0030  0.8008
  122MOL0     C16021   8.974   2.981   7.143 -0.3910 -0.8231 -0.3351
  122MOL0     N16022   9.300   2.317   6.898  0.6581 -0.4199 -0.3884
  122MOL0     N16023   9.371   2.219   6.864 -0.2640  0.1221 -0.4847
  122MOL0     C16024  10.386   1.893   6.697 -0.5944 -0.1602 -0.7439
  122MOL0     C16025  10.511   1.945   6.710 -1.3612 -0.6720  0.2419
  122MOL0     C16026  10.843   2.234   6.810  1.1006 -0.3772  0.3545
  122MOL0     C16027  10.952   2.156   6.840  0.8418  0.1534 -0.5812
  122MOL0     C16028  11.078   2.213   6.857 -0.2137 -0.3979 -0.2600
  122MOL0     C16029  11.098   2.352   6.845  0.1593  0.2054 -0.3580
  122MOL0     O16030  11.223   2.399   6.869 -0.6093 -0.1890 -0.0750
  122MOL0     C16031  11.262   2.534   6.847 -0.0926 -0.0587 -0.0385
  122MOL0     C16032  11.404   2.563   6.891  0.2207  0.1654  0.4266
  122MOL0     C16033  11.508   2.485   6.809  0.0243  0.5413  0.4053
  122MOL0     C16034  11.636   2.433   6.881 -0.3377  0.5147  0.1602
  122MOL0     C16035  11.742   2.522   6.912 -0.6812  0.4486  0.7087
  122MOL0     C16036  11.836   2.593   6.944  0.0991  0.1503 -0.4326
  122MOL0     C16037  10.985   2.433   6.821  0.8516  0.6923  0.1024
  122MOL0     C16038  10.852   2.375   6.798 -0.2725 -0.6879 -0.2307
  122MOL0     H16039  10.470   2.112   7.002 -1.6553 -0.9563  0.9930
  122MOL0     H16040  10.231   1.989   6.975  1.5863 -1.4109  1.5685
  122MOL0     H16041  10.149   1.707   6.658 -2.5029  0.4018 -2.7495
  122MOL0     H16042  10.152   1.857   6.566 -0.3129  0.9658 -0.8513
  122MOL0     H16043   9.938   1.918   6.698  2.2310 -1.3230  4.6155
  122MOL0     H16044   9.917   1.749   6.706  2.1379  0.7004  1.9017
  122MOL0     H16045   9.955   1.733   6.441 -2.1324  0.3223 -2.2783
  122MOL0     H16046   9.923   1.905   6.442  0.1814 -1.6016 -2.5714
  122MOL0     H16047   9.736   1.740   6.387  0.6773  0.0303 -0.4449
  122MOL0     H16048   9.731   1.700   6.556  0.5930  0.2440  1.1337
  122MOL0     H16049   9.557   1.836   6.525  0.6750 -0.6306 -0.4497
  122MOL0     H16050   9.635   1.948   6.408 -0.4761  0.6967 -0.0288
  122MOL0     H16051   9.770   2.058   6.562 -1.8345  2.3306 -1.6067
  122MOL0     H16052   9.714   1.972   6.712 -2.3975  1.3401  0.8956
  122MOL0     H16053   9.545   2.159   6.541  1.6289  0.3229 -0.0015
  122MOL0     H16054   9.478   2.039   6.657  0.5677 -1.7982 -0.0656
  122MOL0     H16055   9.650   2.277   6.696 -0.9326  0.5438  1.2011
  122MOL0     H16056   9.637   2.152   6.827  0.0793 -0.9393  0.3590
  122MOL0     H16057   9.534   2.473   6.716  0.3912  2.0834  1.7031
  122MOL0     H16058   9.189   2.574   6.823  0.3202  1.2633 -0.4981
  122MOL0     H16059   9.354   2.651   6.808  1.5004  0.1517  1.9259
  122MOL0     H16060   9.364   2.590   7.062  2.1102  0.1577 -1.4922
  122MOL0     H16061   9.188   2.570   7.045  0.4443  0.1939  1.8552
  122MOL0     H16062   9.320   2.836   6.963  0.1496  0.9432  1.3945
  122MOL0     H16063   9.141   2.790   6.961  0.6604  4.3265 -2.2597
  122MOL0     H16064   9.307   2.794   7.223  1.6203  2.3768 -0.8639
  122MOL0     H16065   9.135   2.776   7.199 -0.8986  0.4280  0.2756
  122MOL0     H16066   9.206   3.158   7.299  0.1754 -0.4105  0.1042
  122MOL0     H16067   8.995   3.310   7.344  0.5276  0.3997 -0.4112
  122MOL0     H16068   8.503   3.410   7.242  2.3514 -2.9985  1.5421
  122MOL0     H16069   8.304   3.526   7.343 -1.0660 -1.1224  1.2835
  122MOL0     H16070   8.170   3.497   7.529  0.0480  0.5556 -1.5844
  122MOL0     H16071   8.163   3.662   7.463  0.4840 -1.4014 -0.6751
  122MOL0     H16072   8.120   3.742   7.708 -1.8311  1.1258 -0.9816
  122MOL0     H16073   8.117   3.567   7.753  3.7199 -1.4030 -2.2183
  122MOL0     H16074   7.910   3.526   7.623  0.6015  0.9268 -1.5170
  122MOL0     H16075   7.902   3.693   7.568 -1.3239 -1.2628 -0.9944
  122MOL0     H16076   7.891   3.602   7.859  1.7241  2.0049  0.9161
  122MOL0     H16077   7.875   3.765   7.804 -0.0507  0.0259 -1.4840
  122MOL0     H16078   7.672   3.666   7.880  2.8761  0.5182  1.3878
  122MOL0     H16079   7.687   3.531   7.763  1.6230  0.1645 -2.7026
  122MOL0     H16080   7.664   3.679   7.572  2.5951  1.7357 -1.2705
  122MOL0     H16081   7.678   3.825   7.664  2.6857 -1.4904 -2.5311
  122MOL0     H16082   7.429   3.646   7.706 -1.1530 -0.3890  0.0539
  122MOL0     H16083   7.456   3.801   7.776 -2.5577 -0.6125 -0.3892
  122MOL0     H16084   7.327   3.755   7.526 -0.2623  0.1452  0.0020
  122MOL0     H16085   7.482   3.812   7.478  0.4496  0.9124  0.7184
  122MOL0     H16086   8.529   3.562   7.704 -0.2490  1.8177 -1.0351
  122MOL0     H16087   8.725   3.433   7.592 -0.1103  0.9381 -0.6570
  122MOL0     H16088   8.768   3.019   7.116  0.7029 -0.5618  0.2198
  122MOL0     H16089   8.964   2.891   7.084 -0.1628 -0.0791 -1.5495
  122MOL0     H16090  10.377   1.822   6.615 -0.1785 -0.0808 -0.8621
  122MOL0     H16091  10.586   1.939   6.632  0.0743  2.6011  1.2107
  122MOL0     H16092  10.943   2.048   6.851  0.9158  0.1962 -0.0804
  122MOL0     H16093  11.160   2.149   6.886  3.2963  3.4697 -0.7063
  122MOL0     H16094  11.190   2.600   6.896 -0.2858 -1.7118  2.0072
  122MOL0     H16095  11.254   2.548   6.739 -0.8017  0.9058  0.1250
  122MOL0     H16096  11.428   2.669   6.882 -0.5031  0.2200 -1.5666
  122MOL0     H16097  11.418   2.536   6.996  0.5709  0.4225  0.4456
  122MOL0     H16098  11.555   2.550   6.735  2.0017 -2.0890 -0.8359
  122MOL0     H16099  11.461   2.400   6.759  0.1933  3.0802 -4.6678
  122MOL0     H16100  11.602   2.380   6.970  0.4178 -2.1001 -1.0088
  122MOL0     H16101  11.677   2.350   6.822  0.6285 -1.1809  2.9968
  122MOL0     H16102  11.914   2.660   6.973 -0.2289 -0.4359  1.9983
  122MOL0     H16103  10.999   2.539   6.803  1.0467  0.4646 -1.2110
  122MOL0     H16104  10.768   2.439   6.772 -1.6251 -1.7240  1.3759
  123MOL0     O16105   1.989  10.472   8.557  0.2817  0.5466  1.3039
  123MOL0     C16106   1.883  10.527   8.569 -0.9662 -0.0835 -1.3003
  123MOL0     O16107   1.874  10.664   8.592  0.2939 -0.1793  0.7073
  123MOL0     C16108   1.996  10.735   8.573 -0.9754  0.0960  0.7259
  123MOL0     C16109   2.035  10.814   8.459  0.1907 -0.1791 -0.0194
  123MOL0     C16110   2.155  10.883   8.449 -0.4255  0.0546  0.0145
  123MOL0     C16111   2.238  10.896   8.556  0.6535 -0.3217  0.2363
  123MOL0     O16112   2.350  10.969   8.532 -0.3757 -0.1637  0.2696
  123MOL0     C16113   2.429  11.024   8.640 -0.0891 -0.4569 -0.2005
  123MOL0     C16114   2.462  11.171   8.595  0.7859 -0.5210  0.5648
  123MOL0     C16115   2.537  11.249   8.694 -0.4669 -0.3135 -0.3692
  123MOL0     C16116   2.630  11.351   8.625  0.2018 -0.8319  0.2763
  123MOL0     C16117   2.724  11.420   8.733 -0.1853  0.1680 -0.9313
  123MOL0     C16118   2.773  11.560   8.689  0.7812  0.3018 -0.1530
  123MOL0     C16119   2.901  11.602   8.758 -0.1722 -0.3989  0.7844
  123MOL0     C16120   2.955  11.732   8.700  0.2372  0.1018  0.1710
  123MOL0     N16121   3.073  11.786   8.779 -0.0461 -0.2490  0.1432
  123MOL0     C16122   3.057  11.889   8.865 -0.3191  0.4431 -0.5495
  123MOL0     C16123   3.183  11.906   8.917  0.6421  0.0680 -0.0661
  123MOL0     C16124   3.216  12.010   9.008  0.6565 -0.7766 -0.3440
  123MOL0     C16125   3.186  12.150   8.950 -0.8054  0.3792 -0.2611
  123MOL0     C16126   3.110  12.239   9.049 -1.9167  1.0511 -0.1555
  123MOL0     C16127   2.966  12.211   9.079  0.9408 -0.3449  0.8316
  123MOL0     O16128   2.882  12.218   8.957 -0.4126  0.4793  0.0167
  123MOL0     C16129   2.752  12.233   8.974  0.5263 -0.5750 -0.2785
  123MOL0     C16130   2.673  12.263   8.859 -0.3582 -0.1933  0.6306
  123MOL0     C16131   2.537  12.290   8.874  0.2054 -0.4893 -0.0456
  123MOL0     C16132   2.471  12.295   8.998 -0.1818 -0.1616  0.0065
  123MOL0     C16133   2.335  12.345   9.023  0.4330  0.8942 -0.0211
  123MOL0     O16134   2.263  12.395   8.921 -0.3920  0.3691  0.1814
  123MOL0     C16135   2.132  12.421   8.953  0.6143  0.3462 -0.1381
  123MOL0     C16136   2.035  12.312   8.966  0.6329 -1.1652 -0.4222
  123MOL0     C16137   1.896  12.344   8.978 -0.2965  0.5752 -0.4488
  123MOL0     C16138   1.847  12.471   9.004 -0.6893 -0.2854 -0.5690
  123MOL0     O16139   1.714  12.508   9.028 -0.5714  0.0498 -0.0901
  123MOL0     C16140   1.611  12.411   8.997  0.3579  0.3897 -0.8829
  123MOL0     C16141   1.472  12.467   8.996  0.1143 -0.5979  0.7188
  123MOL0     C16142   1.441  12.500   9.143 -0.3051 -0.1585  0.4306
  123MOL0     C16143   1.311  12.585   9.157 -0.7565 -0.2118  0.6207
  123MOL0     C16144   1.268  12.625   9.289 -0.5615  0.1526 -1.5659
  123MOL0     C16145   1.122  12.684   9.289 -0.0099 -0.0500  0.3486
  123MOL0     C16146   1.059  12.674   9.432 -0.7803 -0.5473  0.0188
  123MOL0     C16147   1.124  12.758   9.547 -0.9412  0.5171  0.0113
  123MOL0    Cl16148   1.113  12.939   9.497  0.1882  0.1517  0.1193
  123MOL0     C16149   1.942  12.568   9.003 -0.2148 -0.6608 -0.1149
  123MOL0     C16150   2.079  12.545   8.978  0.0780 -0.0810 -0.5471
  123MOL0     O16151   2.293  12.330   9.136 -0.1109 -0.1194 -0.6907
  123MOL0     C16152   2.556  12.261   9.112  0.9982  0.6929 -0.1085
  123MOL0     C16153   2.689  12.229   9.100 -0.5124 -0.6685 -0.2669
  123MOL0     N16154   3.272  11.819   8.855  0.0891  0.8165 -0.4694
  123MOL0     N16155   3.203  11.739   8.778 -0.2137 -0.1899  0.1445
  123MOL0     C16156   2.212  10.827   8.675  0.2098  0.5308 -0.3674
  123MOL0     C16157   2.092  10.746   8.683 -0.1253  0.5313 -0.4098
  123MOL0     C16158   1.762  10.445   8.560 -0.6160  0.2875 -0.0192
  123MOL0     C16159   1.768  10.302   8.558  0.0795  0.0696 -0.7004
  123MOL0     C16160   1.650  10.225   8.579  0.2071 -1.0258  0.1717
  123MOL0     C16161   1.527  10.291   8.578 -0.0973 -0.1276  0.0822
  123MOL0     O16162   1.404  10.236   8.603  0.1004 -0.8498 -1.5502
  123MOL0     C16163   1.393  10.111   8.662  0.7335  0.0452  0.0020
  123MOL0     C16164   1.257  10.080   8.709  0.1389 -0.4893 -0.8334
  123MOL0     C16165   1.143  10.097   8.611 -0.1048 -0.5295  0.0944
  123MOL0     C16166   1.120   9.983   8.516 -0.5304  0.4776  0.4445
  123MOL0     C16167   1.216   9.987   8.409 -0.8346 -0.2703 -0.5385
  123MOL0     C16168   1.294  10.009   8.317  0.7244 -0.6261  0.1440
  123MOL0     C16169   1.524  10.429   8.574 -0.6890 -0.8353  1.0731
  123MOL0     C16170   1.640  10.503   8.572 -0.3308 -0.7962  0.4421
  123MOL0     H16171   1.975  10.806   8.369  0.5732 -0.6114 -0.2379
  123MOL0     H16172   2.185  10.938   8.360  1.6775  1.4083  1.4683
  123MOL0     H16173   2.522  10.968   8.654  0.3781  0.0302 -1.2313
  123MOL0     H16174   2.380  11.035   8.737  1.0750  0.7117  0.2742
  123MOL0     H16175   2.370  11.224   8.571  1.0416  1.0943  2.7342
  123MOL0     H16176   2.513  11.171   8.498 -1.3291 -0.9357 -0.5884
  123MOL0     H16177   2.600  11.173   8.740 -1.3013 -0.8418 -0.0746
  123MOL0     H16178   2.483  11.309   8.768 -2.0937  0.3462 -2.0246
  123MOL0     H16179   2.686  11.308   8.541  2.5799 -1.0368  1.8616
  123MOL0     H16180   2.583  11.443   8.590  1.9649  0.5330  1.3278
  123MOL0     H16181   2.810  11.353   8.745  0.5529  0.8932 -2.0303
  123MOL0     H16182   2.674  11.434   8.830 -0.8284  0.0341 -1.2382
  123MOL0     H16183   2.694  11.634   8.704  1.4302  1.0047 -0.1051
  123MOL0     H16184   2.780  11.564   8.580 -0.1783 -1.2548 -0.2912
  123MOL0     H16185   2.884  11.604   8.866 -0.9438  1.8607  0.6793
  123MOL0     H16186   2.984  11.533   8.737  0.0796  0.4478 -1.2034
  123MOL0     H16187   2.879  11.810   8.697 -0.6748 -0.6997  1.2331
  123MOL0     H16188   2.979  11.719   8.594  1.5120  1.3190  0.2760
  123MOL0     H16189   2.976  11.947   8.907  1.4530  1.9373  1.0411
  123MOL0     H16190   3.317  11.991   9.045  0.0030 -3.1047  0.4261
  123MOL0     H16191   3.152  11.999   9.096  0.9139 -0.8032 -0.1590
  123MOL0     H16192   3.138  12.155   8.852 -0.8933  3.4020 -0.1761
  123MOL0     H16193   3.286  12.194   8.945  0.1895 -1.6743  0.4118
  123MOL0     H16194   3.157  12.235   9.148  0.1885  2.2944 -1.0107
  123MOL0     H16195   3.123  12.345   9.025  0.2396  1.2581  1.5351
  123MOL0     H16196   2.944  12.291   9.149 -2.2310 -0.4584  0.1318
  123MOL0     H16197   2.954  12.122   9.142 -3.0400  0.5900  1.6349
  123MOL0     H16198   2.725  12.258   8.764  1.9409 -0.3007  1.8141
  123MOL0     H16199   2.477  12.332   8.794  1.8817  1.7269 -0.2412
  123MOL0     H16200   2.071  12.210   8.955  1.3111 -1.0653  0.7417
  123MOL0     H16201   1.836  12.255   8.958  0.9802 -0.2768 -0.5723
  123MOL0     H16202   1.611  12.331   9.072 -2.9580  0.0991 -1.0617
  123MOL0     H16203   1.630  12.352   8.907  1.4025 -1.1607  0.3071
  123MOL0     H16204   1.408  12.386   8.959 -1.8807  0.7484  1.0473
  123MOL0     H16205   1.470  12.544   8.918  0.3601 -1.3251 -0.0234
  123MOL0     H16206   1.518  12.563   9.188  1.3931 -3.4434  2.5375
  123MOL0     H16207   1.435  12.408   9.202  1.0130 -0.6468 -0.1593
  123MOL0     H16208   1.313  12.675   9.094  0.0686 -0.9093 -0.3915
  123MOL0     H16209   1.230  12.527   9.111 -1.2673  0.7307  0.3185
  123MOL0     H16210   1.345  12.691   9.329 -0.0789 -1.5740  0.5200
  123MOL0     H16211   1.261  12.538   9.355  0.2979  1.2576  0.0677
  123MOL0     H16212   1.059  12.624   9.224 -1.3690 -0.8138  2.2770
  123MOL0     H16213   1.137  12.785   9.248 -0.6061 -0.3510 -0.6411
  123MOL0     H16214   0.958  12.716   9.429 -0.0581  1.3428  1.0240
  123MOL0     H16215   1.049  12.571   9.469 -0.0970  0.1385  2.2279
  123MOL0     H16216   1.229  12.728   9.557 -1.2910 -0.2409  2.0621
  123MOL0     H16217   1.068  12.734   9.638  1.6353 -1.3759  1.2426
  123MOL0     H16218   1.905  12.663   9.040 -1.0564 -1.2331  0.5498
  123MOL0     H16219   2.162  12.615   8.986  0.7007 -0.7006 -1.3155
  123MOL0     H16220   2.521  12.261   9.215  1.6588 -2.4199  0.2084
  123MOL0     H16221   2.737  12.213   9.196 -0.0469 -0.0169 -0.3921
  123MOL0     H16222   2.277  10.824   8.762 -2.3447  1.6706  1.7052
  123MOL0     H16223   2.084  10.675   8.765 -1.6069 -1.9163 -2.4882
  123MOL0     H16224   1.862  10.249   8.570  0.0072  0.0516 -0.2018
  123MOL0     H16225   1.652  10.118   8.598  2.2762 -1.0715 -0.1364
  123MOL0     H16226   1.458  10.112   8.750  1.6865  1.4907 -0.6739
  123MOL0     H16227   1.430  10.040   8.587 -0.2422 -0.4344 -0.0334
  123MOL0     H16228   1.257   9.974   8.737  2.4262 -0.9122 -2.1708
  123MOL0     H16229   1.235  10.145   8.794  1.9493 -0.3032 -0.4685
  123MOL0     H16230   1.151  10.178   8.539  1.0883  0.8929  1.7491
  123MOL0     H16231   1.052  10.108   8.671 -1.0139 -2.0010 -0.9505
  123MOL0     H16232   1.131   9.887   8.569  0.2814 -1.4355 -2.8721
  123MOL0     H16233   1.024   9.999   8.468  0.6524  2.4660 -1.4141
  123MOL0     H16234   1.354  10.023   8.229  0.3401 -2.2532 -0.4141
  123MOL0     H16235   1.428  10.479   8.582 -1.5416 -1.4899 -2.9074
  123MOL0     H16236   1.622  10.610   8.573 -1.9829 -1.0070 -0.9554
  124MOL0     O16237   6.464  11.009   1.186 -0.3545 -0.1596  0.4908
  124MOL0     C16238   6.515  11.031   1.078  0.1600  0.0284  0.4622
  124MOL0     O16239   6.442  11.030   0.956  0.2173 -0.5822 -0.2672
  124MOL0     C16240   6.306  11.014   0.962  0.0421  0.5072 -0.4581
  124MOL0     C16241   6.239  10.899   0.987  0.2299  0.7575  0.0101
  124MOL0     C16242   6.099  10.896   1.008 -1.0560 -0.6523  0.2983
  124MOL0     C16243   6.022  11.019   0.978 -0.1333  1.4190 -0.4185
  124MOL0     O16244   5.888  11.003   1.002 -0.2666 -0.0708  0.4706
  124MOL0     C16245   5.793  11.091   0.937 -0.6221 -1.0548  0.3605
  124MOL0     C16246   5.648  11.050   0.952  0.1181  0.6043 -0.1405
  124MOL0     C16247   5.589  11.086   1.092 -0.7059  0.2334  0.3537
  124MOL0     C16248   5.438  11.058   1.096  0.8020 -0.7847  1.1211
  124MOL0     C16249   5.345  11.159   1.023 -0.1081  0.3394  0.2637
  124MOL0     C16250   5.391  11.312   1.022 -0.7649  0.1116  0.2670
  124MOL0     C16251   5.271  11.399   0.971 -0.8284 -0.4821  0.9537
  124MOL0     C16252   5.165  11.420   1.077  0.0820  0.4945  0.0779
  124MOL0     N16253   5.202  11.512   1.186 -0.4919 -0.7603 -0.3118
  124MOL0     C16254   5.292  11.493   1.284  0.1842  0.4286  1.2344
  124MOL0     C16255   5.290  11.598   1.363  0.5932 -0.5260  0.1543
  124MOL0     C16256   5.391  11.626   1.474  0.5809  0.1923  0.2910
  124MOL0     C16257   5.539  11.643   1.439 -0.6659 -0.3289  0.1568
  124MOL0     C16258   5.567  11.783   1.394  0.1326  1.0910  0.5339
  124MOL0     C16259   5.689  11.789   1.310  0.2474  0.1772  0.6809
  124MOL0     O16260   5.805  11.762   1.394 -0.6051 -0.9312 -0.0201
  124MOL0     C16261   5.929  11.790   1.340  0.2476 -0.0287  0.0682
  124MOL0     C16262   6.046  11.758   1.417  0.7585 -0.7423  0.2346
  124MOL0     C16263   6.176  11.781   1.369  0.0364  0.1890  0.5339
  124MOL0     C16264   6.194  11.859   1.248 -0.0375  0.1698  0.2373
  124MOL0     C16265   6.324  11.914   1.208  0.0504  0.2790 -0.6300
  124MOL0     O16266   6.317  12.033   1.140 -0.9570  0.3699 -0.3617
  124MOL0     C16267   6.441  12.087   1.090 -0.4154 -0.1944 -0.4500
  124MOL0     C16268   6.498  12.038   0.977  0.0120 -0.2747  0.3255
  124MOL0     C16269   6.624  12.085   0.928 -0.0604  0.8286  0.1852
  124MOL0     C16270   6.688  12.192   0.988 -0.2947 -0.5983 -0.8455
  124MOL0     O16271   6.815  12.227   0.956  0.5989  0.1317  0.1139
  124MOL0     C16272   6.919  12.120   0.952 -0.2875  0.9234 -0.8995
  124MOL0     C16273   7.054  12.197   0.928 -0.8079  0.8820  1.1106
  124MOL0     C16274   7.188  12.121   0.950 -0.3778  0.2218 -0.8032
  124MOL0     C16275   7.230  12.080   1.097  0.6592  0.0836  0.9346
  124MOL0     C16276   7.373  12.025   1.091 -0.0194 -0.0749  0.4112
  124MOL0     C16277   7.367  11.865   1.069 -0.4618  0.3097 -0.3617
  124MOL0     C16278   7.508  11.795   1.092  0.1659  0.1358 -0.2283
  124MOL0     C16279   7.540  11.700   0.978  0.2310  0.0143 -0.0670
  124MOL0    Cl16280   7.557  11.790   0.831  0.3368  0.3040 -0.1515
  124MOL0     C16281   6.626  12.255   1.097 -0.2817  0.6540  0.5307
  124MOL0     C16282   6.498  12.200   1.140 -0.5620 -0.5052  0.6817
  124MOL0     O16283   6.427  11.860   1.251  0.1967 -0.1697  0.2565
  124MOL0     C16284   6.077  11.892   1.177 -0.3749  0.8230  0.4560
  124MOL0     C16285   5.948  11.855   1.217  0.2690  0.4803  0.1523
  124MOL0     N16286   5.203  11.693   1.302 -0.0992  0.4877 -0.2770
  124MOL0     N16287   5.156  11.640   1.195  0.2821 -0.0495  0.7038
  124MOL0     C16288   6.094  11.131   0.939  0.3400  0.1761  0.2213
  124MOL0     C16289   6.233  11.127   0.936 -0.2245  0.4110  0.4496
  124MOL0     C16290   6.657  11.067   1.075 -0.3776  0.6026 -0.3971
  124MOL0     C16291   6.724  11.102   0.961  0.4099  0.4185  0.5022
  124MOL0     C16292   6.850  11.157   0.961 -0.6601  0.6402  0.4438
  124MOL0     C16293   6.928  11.166   1.080  0.0059 -0.6162 -0.5345
  124MOL0     O16294   7.052  11.229   1.073 -0.2589  0.3509  0.1648
  124MOL0     C16295   7.077  11.332   0.975  0.2088 -0.1827  0.9636
  124MOL0     C16296   7.192  11.420   1.018 -0.4122 -0.7872 -0.1174
  124MOL0     C16297   7.157  11.505   1.145  0.1886  0.1043 -0.2674
  124MOL0     C16298   7.275  11.513   1.238 -0.9871 -0.6032  0.1761
  124MOL0     C16299   7.238  11.565   1.368  0.5731  0.0898  0.1799
  124MOL0     C16300   7.192  11.605   1.475  0.9408 -0.4061 -0.5079
  124MOL0     C16301   6.865  11.129   1.203  0.1874  0.1445 -0.3485
  124MOL0     C16302   6.734  11.084   1.198 -0.4781  0.4388  0.1546
  124MOL0     H16303   6.298  10.809   1.001  2.1287  2.2629  2.5228
  124MOL0     H16304   6.050  10.805   1.040 -2.2373 -0.4247 -0.7874
  124MOL0     H16305   5.813  11.088   0.829  0.4066 -0.3622  0.5187
  124MOL0     H16306   5.802  11.192   0.979 -0.3647 -1.1247  0.4781
  124MOL0     H16307   5.643  10.941   0.942  1.3287  0.5366 -0.2164
  124MOL0     H16308   5.597  11.100   0.870  2.9116 -0.3563 -2.6560
  124MOL0     H16309   5.601  11.193   1.111 -4.6365  0.8562  0.0944
  124MOL0     H16310   5.635  11.032   1.175 -0.5358  0.7700  0.6112
  124MOL0     H16311   5.419  10.964   1.043 -1.7993 -0.7626  1.8527
  124MOL0     H16312   5.417  11.060   1.203 -1.5052  1.3992  0.7426
  124MOL0     H16313   5.245  11.149   1.067  0.6352 -0.0418  1.9558
  124MOL0     H16314   5.338  11.114   0.924  2.4383 -0.0530  0.1926
  124MOL0     H16315   5.473  11.332   0.952 -0.3719  1.8026  1.1588
  124MOL0     H16316   5.415  11.338   1.125  2.3662 -1.4599  0.0477
  124MOL0     H16317   5.312  11.493   0.931 -1.3876 -0.0382  1.4124
  124MOL0     H16318   5.230  11.338   0.890 -0.5685  1.1302 -0.4736
  124MOL0     H16319   5.141  11.322   1.119 -2.1014  1.3500  0.9428
  124MOL0     H16320   5.070  11.440   1.026  0.6044  0.2454 -1.0224
  124MOL0     H16321   5.339  11.399   1.311  0.9845  0.0746 -1.1547
  124MOL0     H16322   5.384  11.539   1.539 -2.2853  1.3684  1.7586
  124MOL0     H16323   5.357  11.713   1.531  0.8364  0.2590  0.3428
  124MOL0     H16324   5.562  11.571   1.360  0.1827  0.4237 -0.3062
  124MOL0     H16325   5.604  11.623   1.524  0.9100  1.7014 -0.4607
  124MOL0     H16326   5.477  11.830   1.355 -0.6627  0.6312  1.7730
  124MOL0     H16327   5.597  11.833   1.486  1.1511 -0.2488  0.9642
  124MOL0     H16328   5.698  11.885   1.259  2.5663 -1.6897 -2.8176
  124MOL0     H16329   5.695  11.701   1.246 -0.0584  2.1854 -2.3144
  124MOL0     H16330   6.022  11.716   1.515 -3.1380  0.9719  0.2242
  124MOL0     H16331   6.256  11.767   1.441  0.6902 -1.4140 -0.4542
  124MOL0     H16332   6.448  11.961   0.920 -1.6077 -0.3596  1.7766
  124MOL0     H16333   6.657  12.018   0.849 -2.1911 -0.7725  0.5431
  124MOL0     H16334   6.905  12.045   0.874  0.0371  2.1936 -2.2121
  124MOL0     H16335   6.925  12.075   1.052 -1.5921  2.9264  0.1634
  124MOL0     H16336   7.055  12.273   1.006  3.9143  1.5933  0.6191
  124MOL0     H16337   7.064  12.241   0.828  1.8688 -1.5585  0.1678
  124MOL0     H16338   7.267  12.191   0.919 -0.0959  0.8153  1.1162
  124MOL0     H16339   7.194  12.026   0.896  1.7227 -0.2024  0.0513
  124MOL0     H16340   7.223  12.168   1.161 -0.9063  2.0757 -1.7477
  124MOL0     H16341   7.145  12.016   1.120 -1.5461  1.5527 -2.3358
  124MOL0     H16342   7.429  12.048   1.182  1.1698 -3.4094  0.6477
  124MOL0     H16343   7.430  12.067   1.007 -1.1106  0.0297 -0.2908
  124MOL0     H16344   7.337  11.845   0.965  1.0559  2.1820 -1.2037
  124MOL0     H16345   7.287  11.818   1.128 -3.3936  1.6632 -2.9445
  124MOL0     H16346   7.581  11.876   1.088 -2.3587  2.5590 -0.4710
  124MOL0     H16347   7.525  11.750   1.190 -1.9677  0.5263  0.3805
  124MOL0     H16348   7.462  11.623   0.975  0.3530 -0.2223  1.6635
  124MOL0     H16349   7.638  11.653   0.989  1.1775  1.5196 -1.6534
  124MOL0     H16350   6.665  12.346   1.142  1.5440  0.9930 -1.5491
  124MOL0     H16351   6.455  12.250   1.226 -0.6322  0.2007  0.2499
  124MOL0     H16352   6.081  11.953   1.088 -2.2891 -1.2935 -1.2034
  124MOL0     H16353   5.867  11.873   1.148 -0.3268 -4.0379 -0.6828
  124MOL0     H16354   6.027  11.208   0.904 -2.3375 -1.6769  0.8857
  124MOL0     H16355   6.291  11.219   0.927 -1.3902  1.2599  1.3143
  124MOL0     H16356   6.676  11.110   0.864  0.3563  2.0473  0.6359
  124MOL0     H16357   6.906  11.169   0.869  0.1671  2.3296  1.1203
  124MOL0     H16358   6.982  11.383   0.955 -0.6004 -2.0352 -0.2063
  124MOL0     H16359   7.106  11.298   0.875  1.6074 -0.9631  1.6064
  124MOL0     H16360   7.280  11.358   1.037  0.7728  0.7163 -0.5456
  124MOL0     H16361   7.214  11.488   0.935  1.9414 -0.2326  0.8947
  124MOL0     H16362   7.081  11.459   1.208  0.9137 -2.1488 -0.9415
  124MOL0     H16363   7.124  11.605   1.114  0.7520  1.4652  3.0516
  124MOL0     H16364   7.316  11.413   1.259  1.3510  0.4314  0.8702
  124MOL0     H16365   7.356  11.562   1.184 -0.1659 -1.3098  0.7397
  124MOL0     H16366   7.128  11.642   1.552  0.6773 -2.7832  0.4847
  124MOL0     H16367   6.919  11.164   1.291 -2.6887  3.1785  0.4397
  124MOL0     H16368   6.687  11.083   1.296 -0.6851 -4.5547  0.2548
  125MOL0     O16369   4.469   1.556   3.000 -0.2151 -0.0441 -0.0860
  125MOL0     C16370   4.440   1.437   3.004  0.3074  0.4866  0.2899
  125MOL0     O16371   4.537   1.346   2.978 -0.1528 -0.3678 -0.2968
  125MOL0     C16372   4.669   1.384   2.959 -0.5839 -0.1962 -0.2161
  125MOL0     C16373   4.770   1.300   3.006 -0.1007 -0.5911  0.4296
  125MOL0     C16374   4.901   1.336   2.995 -0.4912 -0.7336 -0.7360
  125MOL0     C16375   4.942   1.444   2.918 -0.4122 -0.1619  0.4816
  125MOL0     O16376   5.080   1.477   2.907  0.5208 -0.3445 -0.1628
  125MOL0     C16377   5.108   1.600   2.981  0.1185 -0.7219 -1.0683
  125MOL0     C16378   5.140   1.556   3.126 -0.7777 -0.4697  0.2636
  125MOL0     C16379   5.169   1.674   3.215  0.4771  0.1700  0.4536
  125MOL0     C16380   5.292   1.762   3.177 -0.2864  0.6626  0.8027
  125MOL0     C16381   5.325   1.880   3.267  0.7183 -0.2093 -0.0840
  125MOL0     C16382   5.196   1.969   3.298 -0.4487 -0.8918  1.0452
  125MOL0     C16383   5.244   2.097   3.369 -0.0315  0.6658  0.2879
  125MOL0     C16384   5.124   2.188   3.398 -0.0917 -0.5642  0.3604
  125MOL0     N16385   5.169   2.324   3.429 -0.1386 -0.0520  0.1136
  125MOL0     C16386   5.179   2.376   3.554 -0.1883 -0.7439  0.9026
  125MOL0     C16387   5.192   2.509   3.533  0.0274  0.8119  0.2037
  125MOL0     C16388   5.207   2.616   3.643  0.0670  0.4047  0.4103
  125MOL0     C16389   5.074   2.651   3.726 -0.1838 -0.0186  0.3248
  125MOL0     C16390   4.959   2.693   3.626 -0.5808 -0.0293 -0.2910
  125MOL0     C16391   4.824   2.715   3.709  0.4125  0.1207  0.3711
  125MOL0     O16392   4.715   2.685   3.617 -0.6172  0.5088  0.2235
  125MOL0     C16393   4.589   2.718   3.659  0.2257  0.4023  0.2679
  125MOL0     C16394   4.541   2.739   3.789 -0.1013 -0.2954 -0.3712
  125MOL0     C16395   4.407   2.734   3.823  0.8163  0.2224 -0.6125
  125MOL0     C16396   4.314   2.722   3.722  0.3642 -0.3307 -0.0533
  125MOL0     C16397   4.169   2.743   3.749  0.6991 -0.8824  1.0040
  125MOL0     O16398   4.093   2.810   3.657  0.2803 -0.2742  0.3153
  125MOL0     C16399   3.958   2.837   3.679  0.9677  1.1293 -0.1494
  125MOL0     C16400   3.902   2.967   3.681  0.0519 -0.4931  0.5423
  125MOL0     C16401   3.772   2.981   3.711 -0.1588 -0.1822  0.2755
  125MOL0     C16402   3.683   2.875   3.740 -0.1694 -0.3365 -0.2083
  125MOL0     O16403   3.560   2.917   3.794 -0.5762 -0.2472  0.4291
  125MOL0     C16404   3.468   2.819   3.840 -0.1542 -0.1072 -0.1433
  125MOL0     C16405   3.333   2.891   3.856  0.0792 -0.0942 -0.5926
  125MOL0     C16406   3.270   2.937   3.731 -0.0525 -0.7151  0.5935
  125MOL0     C16407   3.122   2.985   3.742 -0.2966  0.6147  0.0754
  125MOL0     C16408   3.074   3.044   3.611  0.3946  0.4342  0.3614
  125MOL0     C16409   2.926   3.108   3.627 -0.6299  0.3667  0.1102
  125MOL0     C16410   2.818   2.990   3.626 -0.2701 -0.2389  0.8226
  125MOL0     C16411   2.682   3.046   3.578  0.1325  0.8084 -0.8585
  125MOL0    Cl16412   2.623   2.948   3.429 -0.3006  0.2455 -0.0157
  125MOL0     C16413   3.730   2.743   3.733 -1.0374  0.1037  0.5456
  125MOL0     C16414   3.870   2.722   3.703 -0.0518 -0.3243 -0.0279
  125MOL0     O16415   4.129   2.701   3.853 -0.0899 -0.1528  0.0272
  125MOL0     C16416   4.356   2.683   3.594  0.4507 -0.3477 -0.4177
  125MOL0     C16417   4.493   2.687   3.564 -0.3212  0.8458  0.0282
  125MOL0     N16418   5.194   2.545   3.405  0.0142  0.3080 -0.5019
  125MOL0     N16419   5.162   2.431   3.344 -0.1555 -0.2201  0.2260
  125MOL0     C16420   4.843   1.512   2.846 -0.3085  0.3706  0.1802
  125MOL0     C16421   4.713   1.482   2.862  0.8351 -0.2490  0.2991
  125MOL0     C16422   4.299   1.393   3.021 -0.0639 -0.7868  0.0265
  125MOL0     C16423   4.273   1.262   3.006  0.3852  0.9018  0.3014
  125MOL0     C16424   4.145   1.215   3.009  0.2095 -0.6514  0.2082
  125MOL0     C16425   4.032   1.304   3.024  0.1064  0.2603  0.3086
  125MOL0     O16426   3.904   1.249   3.009 -0.1901 -0.0235 -0.1812
  125MOL0     C16427   3.799   1.347   3.014  0.5612  0.3744 -0.4108
  125MOL0     C16428   3.748   1.379   3.157 -0.2084  0.0771  0.5900
  125MOL0     C16429   3.657   1.503   3.152  0.1919 -0.4457 -0.7761
  125MOL0     C16430   3.614   1.519   3.296  0.0852  1.3428  0.2332
  125MOL0     C16431   3.501   1.610   3.306 -0.4075 -0.3767 -0.9390
  125MOL0     C16432   3.410   1.691   3.304 -0.4535  0.1731 -0.0082
  125MOL0     C16433   4.063   1.439   3.056 -1.0038  0.5218  1.3224
  125MOL0     C16434   4.193   1.481   3.043 -0.3493 -0.5178  0.0769
  125MOL0     H16435   4.735   1.213   3.059  1.6516 -1.2681  0.5259
  125MOL0     H16436   4.975   1.265   3.031 -0.6750 -0.0146  1.1410
  125MOL0     H16437   5.028   1.674   2.981 -0.5990 -1.4751 -0.9435
  125MOL0     H16438   5.203   1.635   2.941  1.1849 -1.6442  0.5305
  125MOL0     H16439   5.227   1.491   3.131 -0.6774 -0.2575  1.6479
  125MOL0     H16440   5.058   1.497   3.169 -0.7981  0.5632  1.7297
  125MOL0     H16441   5.184   1.639   3.318  1.7163  0.4581  0.3871
  125MOL0     H16442   5.073   1.725   3.211 -1.2499 -2.8918 -1.2993
  125MOL0     H16443   5.381   1.699   3.166 -0.3175  0.8846 -1.0159
  125MOL0     H16444   5.279   1.805   3.077  1.9078 -0.3311  0.0152
  125MOL0     H16445   5.380   1.953   3.207 -2.2028  3.6137  1.4874
  125MOL0     H16446   5.384   1.843   3.351  0.7974 -2.7662 -1.1609
  125MOL0     H16447   5.136   1.917   3.372 -1.3714 -2.1398 -0.5172
  125MOL0     H16448   5.146   1.985   3.202  1.2209 -0.5828  0.1740
  125MOL0     H16449   5.277   2.063   3.468  0.3960 -0.6075 -0.2653
  125MOL0     H16450   5.325   2.145   3.314  1.0099 -0.6459  0.6293
  125MOL0     H16451   5.057   2.146   3.474 -0.5147  1.5098  1.2034
  125MOL0     H16452   5.065   2.202   3.307  1.4503  1.0225 -0.4492
  125MOL0     H16453   5.167   2.325   3.649 -2.8638 -2.0287 -0.0095
  125MOL0     H16454   5.254   2.702   3.595  2.1522 -1.4934 -1.1682
  125MOL0     H16455   5.283   2.572   3.709  0.7526  0.9632  0.0075
  125MOL0     H16456   5.092   2.723   3.806 -0.8132 -0.0735  0.5245
  125MOL0     H16457   5.035   2.571   3.790  0.1906  0.2491  0.8949
  125MOL0     H16458   4.985   2.785   3.573  0.4533 -0.9578 -1.4602
  125MOL0     H16459   4.934   2.615   3.554 -0.9061 -3.4875  3.2691
  125MOL0     H16460   4.811   2.814   3.753  1.3403 -0.6885  2.6472
  125MOL0     H16461   4.817   2.634   3.783  0.5852  0.5327  0.8445
  125MOL0     H16462   4.610   2.744   3.872  0.0660  1.5474 -0.5841
  125MOL0     H16463   4.366   2.762   3.919  0.8096 -1.9388  0.0521
  125MOL0     H16464   3.964   3.054   3.665 -0.1769  0.0496  2.3587
  125MOL0     H16465   3.740   3.085   3.708 -1.8735 -0.6875 -2.2145
  125MOL0     H16466   3.494   2.776   3.936 -0.5508 -2.2222 -0.9340
  125MOL0     H16467   3.468   2.739   3.766  1.7925 -0.4314  0.1555
  125MOL0     H16468   3.342   2.973   3.927 -1.0792 -0.1143 -0.4064
  125MOL0     H16469   3.259   2.824   3.900  0.3079 -0.6528 -1.0495
  125MOL0     H16470   3.285   2.867   3.648  0.4769  1.9474 -1.7045
  125MOL0     H16471   3.317   3.029   3.695 -0.1630  0.7014  3.8007
  125MOL0     H16472   3.058   2.898   3.761  3.8700 -2.9105 -0.1774
  125MOL0     H16473   3.109   3.053   3.826 -1.2689  0.3652  0.1308
  125MOL0     H16474   3.075   2.979   3.524  0.3668 -1.5306  1.7765
  125MOL0     H16475   3.138   3.132   3.594  0.5770  0.7079  2.1790
  125MOL0     H16476   2.915   3.172   3.539  0.8434  0.5156  0.0072
  125MOL0     H16477   2.916   3.175   3.712 -2.0853  2.9463 -1.9398
  125MOL0     H16478   2.844   2.911   3.555 -1.3264  0.3069 -0.2050
  125MOL0     H16479   2.803   2.946   3.725 -1.0970  0.4671  1.0251
  125MOL0     H16480   2.694   3.148   3.542  1.0145  0.6289 -1.0962
  125MOL0     H16481   2.615   3.044   3.664  3.3717 -0.8309  1.8920
  125MOL0     H16482   3.667   2.660   3.766 -1.4704  0.8996  1.7905
  125MOL0     H16483   3.910   2.621   3.694 -0.0883 -0.1977 -2.3199
  125MOL0     H16484   4.294   2.663   3.507 -0.3014 -1.1398  0.2794
  125MOL0     H16485   4.520   2.643   3.468  0.1992 -2.1618  1.4555
  125MOL0     H16486   4.877   1.589   2.777 -0.6210  1.8310  1.5890
  125MOL0     H16487   4.633   1.521   2.800 -0.7789  0.2233  2.5284
  125MOL0     H16488   4.349   1.185   3.003 -0.1770  0.3517 -0.1034
  125MOL0     H16489   4.140   1.107   3.004  0.5262 -0.7394  1.4954
  125MOL0     H16490   3.714   1.308   2.956  2.2128 -4.1429 -0.1666
  125MOL0     H16491   3.846   1.429   2.959  1.0928  0.0541 -0.4388
  125MOL0     H16492   3.690   1.297   3.201 -1.8142 -0.0205 -1.5395
  125MOL0     H16493   3.829   1.402   3.227 -0.3414  2.8675 -0.0637
  125MOL0     H16494   3.569   1.467   3.098  0.3017 -1.7396 -0.1259
  125MOL0     H16495   3.699   1.597   3.115  1.1124  0.1319  1.5247
  125MOL0     H16496   3.585   1.420   3.331  0.6567  0.4392 -1.6714
  125MOL0     H16497   3.696   1.547   3.362 -0.1142  0.7147  0.7564
  125MOL0     H16498   3.333   1.766   3.299 -0.4892  0.0794 -0.9669
  125MOL0     H16499   3.986   1.509   3.088 -2.4055 -0.6444  0.6061
  125MOL0     H16500   4.221   1.585   3.053 -0.9054 -0.4532  1.0622
  126MOL0     O16501   4.360   4.552   1.209  0.0367 -1.2259 -0.1985
  126MOL0     C16502   4.356   4.643   1.289 -0.3810  0.1869 -0.5398
  126MOL0     O16503   4.238   4.712   1.327 -0.2177 -0.1014  0.7839
  126MOL0     C16504   4.137   4.703   1.233  0.4293  0.4766 -0.5530
  126MOL0     C16505   4.062   4.584   1.216 -0.0866 -0.5688  0.0153
  126MOL0     C16506   3.963   4.580   1.119 -0.6447 -0.6642  0.3863
  126MOL0     C16507   3.921   4.693   1.045 -0.4983  0.1510 -0.7661
  126MOL0     O16508   3.842   4.676   0.938 -0.5351 -0.9038  0.1057
  126MOL0     C16509   3.845   4.775   0.838 -0.4016 -0.0158  0.3316
  126MOL0     C16510   3.726   4.742   0.739 -0.0565 -0.0798  0.6254
  126MOL0     C16511   3.593   4.791   0.812  0.6283  0.1928  0.2354
  126MOL0     C16512   3.471   4.729   0.746  0.3893 -0.3224 -0.1681
  126MOL0     C16513   3.344   4.804   0.782  0.1869  0.3730 -0.6447
  126MOL0     C16514   3.308   4.810   0.930 -0.9637  0.5468 -0.5834
  126MOL0     C16515   3.175   4.874   0.946 -0.3111  0.5650 -0.9863
  126MOL0     C16516   3.176   5.021   0.915 -0.3615 -0.2887  0.8109
  126MOL0     N16517   3.061   5.101   0.949  0.7343 -0.4017 -0.1420
  126MOL0     C16518   3.063   5.231   0.959  0.3418 -0.8507 -0.0024
  126MOL0     C16519   2.959   5.265   1.038  0.2032  0.2280 -0.1566
  126MOL0     C16520   2.919   5.396   1.099  1.1450 -0.4258 -0.6229
  126MOL0     C16521   2.940   5.513   1.005  0.3278  0.5884  0.1373
  126MOL0     C16522   2.892   5.646   1.053 -0.1906 -0.7403 -0.1195
  126MOL0     C16523   2.745   5.677   1.016 -0.2216  0.2657 -0.6143
  126MOL0     O16524   2.648   5.576   1.063  0.3025  0.0065  0.0010
  126MOL0     C16525   2.546   5.545   0.975 -0.5190  0.2418  0.1210
  126MOL0     C16526   2.423   5.613   0.990  0.1668  0.4366  0.5775
  126MOL0     C16527   2.311   5.591   0.918  0.0667  0.7274  0.2544
  126MOL0     C16528   2.319   5.504   0.809 -0.1731 -0.5020  0.6839
  126MOL0     C16529   2.204   5.473   0.728 -0.9254 -0.0138 -0.2121
  126MOL0     O16530   2.086   5.457   0.794  0.3320 -0.5935 -0.3250
  126MOL0     C16531   1.973   5.428   0.723  0.1606 -0.4957 -0.3553
  126MOL0     C16532   1.857   5.495   0.753 -0.1640  0.2202  0.0161
  126MOL0     C16533   1.735   5.475   0.683  0.3359 -0.5830 -0.7530
  126MOL0     C16534   1.717   5.377   0.588  0.8809  0.2745 -0.0239
  126MOL0     O16535   1.591   5.366   0.542 -0.8265  0.1280 -0.1114
  126MOL0     C16536   1.570   5.253   0.458 -0.1810  0.4172  0.5205
  126MOL0     C16537   1.415   5.266   0.418 -0.9338  0.6709 -0.0738
  126MOL0     C16538   1.314   5.227   0.515  0.0420  0.0118  0.1869
  126MOL0     C16539   1.304   5.070   0.534 -0.6811 -0.6915 -0.5299
  126MOL0     C16540   1.177   5.030   0.609  0.1118 -0.9135 -0.3043
  126MOL0     C16541   1.055   5.031   0.518  0.2464 -0.6981  0.5416
  126MOL0     C16542   0.935   4.997   0.597 -0.6988 -0.3090  0.2696
  126MOL0     C16543   0.830   4.909   0.532 -0.0125  0.2309 -0.1649
  126MOL0    Cl16544   0.741   5.010   0.416 -0.2555 -0.0321  0.0308
  126MOL0     C16545   1.832   5.302   0.565  0.1151  0.1002  0.1180
  126MOL0     C16546   1.953   5.329   0.625 -0.9415 -0.0844  0.3414
  126MOL0     O16547   2.226   5.472   0.605  0.0515  0.2137 -0.7164
  126MOL0     C16548   2.446   5.435   0.785  0.4628 -0.8032  0.2640
  126MOL0     C16549   2.560   5.456   0.868  0.0960  0.5868 -0.5809
  126MOL0     N16550   2.888   5.153   1.074  1.0204  0.5338 -0.2788
  126MOL0     N16551   2.947   5.056   1.013  0.0777  0.8487  0.1178
  126MOL0     C16552   3.984   4.816   1.080 -0.0949  0.8474  0.1833
  126MOL0     C16553   4.091   4.821   1.173  0.3693 -0.1203 -0.1788
  126MOL0     C16554   4.481   4.675   1.372  0.0447  0.0995  0.2651
  126MOL0     C16555   4.604   4.613   1.325  0.0625 -0.2605 -1.3597
  126MOL0     C16556   4.725   4.653   1.385 -0.0859  0.2757 -0.1207
  126MOL0     C16557   4.722   4.748   1.483  0.6083 -0.5311  0.5679
  126MOL0     O16558   4.833   4.786   1.543 -0.8169 -1.0323 -0.6221
  126MOL0     C16559   4.862   4.732   1.673 -0.1680 -0.0164 -0.1667
  126MOL0     C16560   5.006   4.746   1.701 -0.3932 -0.1263  0.0158
  126MOL0     C16561   5.084   4.631   1.641  0.4804 -0.3988  0.1490
  126MOL0     C16562   5.233   4.665   1.652 -0.2662  0.3021 -0.0275
  126MOL0     C16563   5.311   4.566   1.577 -0.2352  0.3963  0.5377
  126MOL0     C16564   5.356   4.477   1.498 -0.3790 -0.2482 -0.1831
  126MOL0     C16565   4.607   4.811   1.528  0.3034  0.4111 -0.3138
  126MOL0     C16566   4.480   4.770   1.479 -0.2165 -0.2586 -0.0580
  126MOL0     H16567   4.086   4.494   1.271  3.8654  1.1713  1.5234
  126MOL0     H16568   3.933   4.480   1.089  4.6847 -1.6798 -3.0718
  126MOL0     H16569   3.939   4.763   0.784 -1.7585 -0.2689 -2.1269
  126MOL0     H16570   3.834   4.872   0.887  1.8689 -0.0256  0.9607
  126MOL0     H16571   3.723   4.638   0.705  1.5711 -0.1251  0.5030
  126MOL0     H16572   3.735   4.808   0.651 -1.1178 -3.2311 -2.0316
  126MOL0     H16573   3.590   4.900   0.804  0.0377  0.0841 -1.6843
  126MOL0     H16574   3.585   4.750   0.912  0.3316 -0.5168 -0.0719
  126MOL0     H16575   3.488   4.741   0.639 -0.3275 -0.4002 -0.2946
  126MOL0     H16576   3.461   4.622   0.767  4.1404 -1.3736 -2.7056
  126MOL0     H16577   3.255   4.771   0.727  0.2699 -2.7006  0.8224
  126MOL0     H16578   3.352   4.908   0.750 -1.1810  0.6703 -0.1107
  126MOL0     H16579   3.381   4.874   0.981 -0.5409  0.0569 -0.5549
  126MOL0     H16580   3.300   4.708   0.971 -0.0567  0.4666 -0.5660
  126MOL0     H16581   3.111   4.819   0.877 -1.0370  0.6409 -0.3855
  126MOL0     H16582   3.134   4.859   1.046 -2.1481  0.4012 -1.7318
  126MOL0     H16583   3.189   5.027   0.806 -2.3387  0.5622  0.5803
  126MOL0     H16584   3.265   5.066   0.958  1.9813  0.5589 -4.1674
  126MOL0     H16585   3.148   5.291   0.928  2.0338 -3.3632 -0.4449
  126MOL0     H16586   2.980   5.416   1.187 -0.1808 -1.5996  0.6223
  126MOL0     H16587   2.816   5.393   1.137  0.7299 -0.3156 -1.7120
  126MOL0     H16588   2.889   5.488   0.911 -2.8571  0.4453  1.7718
  126MOL0     H16589   3.046   5.523   0.983 -0.0010  1.5083 -1.1282
  126MOL0     H16590   2.912   5.655   1.160 -1.5819 -2.8520  0.3761
  126MOL0     H16591   2.951   5.721   1.000  0.1356 -1.3283 -0.6045
  126MOL0     H16592   2.745   5.686   0.907  3.4893  0.3973 -0.7322
  126MOL0     H16593   2.706   5.772   1.055 -0.0566 -0.3439  1.1004
  126MOL0     H16594   2.417   5.686   1.070 -0.5594  2.0981 -0.9341
  126MOL0     H16595   2.214   5.637   0.933 -0.2385  0.7444 -1.5778
  126MOL0     H16596   1.865   5.565   0.836 -0.3359 -1.2255  1.2967
  126MOL0     H16597   1.651   5.525   0.731  1.2890  0.7787 -0.4116
  126MOL0     H16598   1.589   5.158   0.507 -1.7868 -2.3529 -3.7121
  126MOL0     H16599   1.627   5.266   0.365 -1.6543 -0.4664 -0.5335
  126MOL0     H16600   1.397   5.202   0.331  2.0056 -0.6491  0.1512
  126MOL0     H16601   1.392   5.372   0.401 -2.5913  0.9073  2.9322
  126MOL0     H16602   1.222   5.267   0.472  2.0767  2.5753 -2.1675
  126MOL0     H16603   1.337   5.264   0.616 -1.4371  1.7808 -0.0915
  126MOL0     H16604   1.303   5.013   0.441 -4.3342 -0.8097 -0.5552
  126MOL0     H16605   1.395   5.034   0.585 -1.9270 -0.6652  1.8547
  126MOL0     H16606   1.159   5.110   0.681  1.0693  0.4478 -1.5284
  126MOL0     H16607   1.197   4.935   0.661  1.6246 -1.5257 -1.9060
  126MOL0     H16608   1.071   4.963   0.433  2.1208  1.4403 -0.9421
  126MOL0     H16609   1.039   5.125   0.464 -1.2183 -2.2726 -1.9924
  126MOL0     H16610   0.968   4.934   0.680  1.2723  0.7131  0.3363
  126MOL0     H16611   0.898   5.092   0.636 -2.1684 -1.2850  1.3775
  126MOL0     H16612   0.761   4.870   0.607  0.9943 -0.6537  0.3359
  126MOL0     H16613   0.874   4.822   0.482 -2.2073 -2.3605  2.1085
  126MOL0     H16614   1.835   5.227   0.486  2.8263 -0.9717  1.1311
  126MOL0     H16615   2.043   5.274   0.600  0.1275  0.0039  3.5672
  126MOL0     H16616   2.446   5.375   0.695 -1.3057  2.3190 -2.0346
  126MOL0     H16617   2.655   5.406   0.858 -0.3051 -0.4766  0.6194
  126MOL0     H16618   3.950   4.913   1.045  0.1995  1.2342  0.9500
  126MOL0     H16619   4.141   4.913   1.200  1.1087  0.1109 -2.1886
  126MOL0     H16620   4.617   4.538   1.248 -0.3946  1.3968 -3.1430
  126MOL0     H16621   4.806   4.590   1.349 -0.7597 -0.5894 -0.1460
  126MOL0     H16622   4.838   4.625   1.681  0.3307 -0.0491  1.1189
  126MOL0     H16623   4.808   4.787   1.751  0.8385  0.1543  0.4238
  126MOL0     H16624   5.046   4.840   1.664  0.2631  1.1239  3.5233
  126MOL0     H16625   5.012   4.759   1.809 -1.5359 -3.1172  0.5449
  126MOL0     H16626   5.063   4.623   1.534 -0.6320  2.9400  0.0009
  126MOL0     H16627   5.074   4.541   1.702  2.3868  1.0408  2.8017
  126MOL0     H16628   5.243   4.763   1.605 -4.6735  2.3896  2.7500
  126MOL0     H16629   5.278   4.657   1.751  0.2590 -3.5933 -0.4230
  126MOL0     H16630   5.389   4.395   1.438  4.4542 -0.1346  1.8597
  126MOL0     H16631   4.614   4.883   1.609  1.8626 -1.8055  1.6683
  126MOL0     H16632   4.388   4.812   1.519 -0.5780 -0.7712 -0.3475
  127MOL0     O16633   2.324   9.044   2.231 -1.1279 -0.0884  0.6120
  127MOL0     C16634   2.270   9.026   2.122  0.7332  1.2439  0.3950
  127MOL0     O16635   2.322   9.065   1.997 -0.1009  0.7813 -0.8381
  127MOL0     C16636   2.453   9.098   1.996  1.0582  0.1151 -0.4780
  127MOL0     C16637   2.488   9.235   1.998 -0.2556 -0.0699  0.0493
  127MOL0     C16638   2.621   9.284   1.982 -0.5288 -0.6830  0.3031
  127MOL0     C16639   2.719   9.190   1.983 -0.4999 -0.0580 -0.0094
  127MOL0     O16640   2.844   9.227   1.950 -0.9290 -0.4585 -0.2111
  127MOL0     C16641   2.892   9.361   1.968  0.4730 -0.8762  0.1185
  127MOL0     C16642   3.038   9.346   2.022 -0.0840 -0.9351  0.4735
  127MOL0     C16643   3.086   9.471   2.088  0.4820  0.6906  0.5046
  127MOL0     C16644   3.216   9.436   2.152 -1.0170  0.7061 -0.8258
  127MOL0     C16645   3.259   9.549   2.250  0.2778  0.8564 -0.0382
  127MOL0     C16646   3.402   9.529   2.313  1.0425  0.0252  0.5654
  127MOL0     C16647   3.454   9.659   2.381  0.2864 -0.1337  0.1008
  127MOL0     C16648   3.348   9.730   2.462 -0.9127  0.2454 -0.8584
  127MOL0     N16649   3.327   9.639   2.579  0.5998  0.2316 -0.3381
  127MOL0     C16650   3.220   9.561   2.597  0.9383 -0.2112  0.8374
  127MOL0     C16651   3.231   9.513   2.724 -0.5679 -0.8023  0.4432
  127MOL0     C16652   3.135   9.430   2.803 -0.4091  0.8192 -0.1268
  127MOL0     C16653   3.092   9.304   2.724  0.3231  0.2070 -0.5811
  127MOL0     C16654   2.965   9.237   2.791  0.0040 -1.3171 -0.0561
  127MOL0     C16655   2.872   9.194   2.680  0.4126 -0.5663  0.0396
  127MOL0     O16656   2.757   9.119   2.719  0.6330  0.4289 -0.1874
  127MOL0     C16657   2.637   9.176   2.758  0.2380  0.6729  0.7255
  127MOL0     C16658   2.529   9.088   2.802  0.3333 -0.0387  1.0204
  127MOL0     C16659   2.416   9.144   2.860  0.2175 -0.4838  0.1414
  127MOL0     C16660   2.394   9.284   2.859  0.3284 -0.2875  0.1729
  127MOL0     C16661   2.268   9.342   2.906 -0.9412  0.2288 -0.2621
  127MOL0     O16662   2.194   9.259   2.988  0.4365 -0.6170  0.8793
  127MOL0     C16663   2.072   9.304   3.031 -0.1398  0.2050  0.4253
  127MOL0     C16664   1.964   9.318   2.958  0.0267 -0.2977  0.6706
  127MOL0     C16665   1.841   9.364   3.013 -1.0565 -0.3593  0.5261
  127MOL0     C16666   1.836   9.394   3.148  0.0453 -0.2186  0.1515
  127MOL0     O16667   1.725   9.450   3.206 -0.0198  0.3233 -1.0667
  127MOL0     C16668   1.599   9.426   3.141  0.2277 -0.0496  0.5607
  127MOL0     C16669   1.487   9.458   3.235 -0.3077 -0.1044  0.1306
  127MOL0     C16670   1.351   9.424   3.176  0.3331 -0.0069 -0.7603
  127MOL0     C16671   1.240   9.418   3.294 -0.0275  0.8714  0.2090
  127MOL0     C16672   1.097   9.399   3.236 -0.3698 -0.6349 -0.1999
  127MOL0     C16673   0.982   9.401   3.346  0.1031 -0.6298  1.0763
  127MOL0     C16674   0.846   9.390   3.269  0.1710  0.8046 -0.1712
  127MOL0     C16675   0.735   9.410   3.371 -0.3150  0.5938  0.0038
  127MOL0    Cl16676   0.579   9.402   3.297 -0.0310 -0.1985 -0.0244
  127MOL0     C16677   1.945   9.371   3.227  0.1989 -0.0000 -0.5402
  127MOL0     C16678   2.065   9.328   3.168  0.3390 -0.2913 -0.4849
  127MOL0     O16679   2.249   9.462   2.889  1.0053 -0.1462  0.3939
  127MOL0     C16680   2.496   9.368   2.822  0.4619  0.7688  0.2105
  127MOL0     C16681   2.617   9.317   2.776  0.2101 -0.3166 -0.7786
  127MOL0     N16682   3.352   9.548   2.769  0.2381  0.4682 -0.1674
  127MOL0     N16683   3.411   9.627   2.682 -0.0486  0.2982 -0.3445
  127MOL0     C16684   2.692   9.053   1.990  0.2337 -1.0018 -0.3145
  127MOL0     C16685   2.558   9.004   1.994 -0.7360 -0.2364  0.7163
  127MOL0     C16686   2.133   8.976   2.124  0.4756  0.0523 -0.4516
  127MOL0     C16687   2.072   8.928   2.241  0.1338 -0.1680 -0.2041
  127MOL0     C16688   1.940   8.884   2.243 -0.3979 -1.0826 -0.3223
  127MOL0     C16689   1.862   8.882   2.122 -0.3216  0.7277 -0.6751
  127MOL0     O16690   1.736   8.821   2.118  0.0746 -0.2022  0.0619
  127MOL0     C16691   1.698   8.757   1.997 -0.7130 -0.4783 -0.1624
  127MOL0     C16692   1.567   8.688   2.013  0.1922  0.7100  0.5330
  127MOL0     C16693   1.533   8.603   1.881 -0.0034 -0.1173  0.4063
  127MOL0     C16694   1.477   8.699   1.767 -0.1701 -0.3967 -0.2331
  127MOL0     C16695   1.345   8.754   1.803 -0.0936  0.0800 -0.4084
  127MOL0     C16696   1.233   8.795   1.815  0.4081 -0.3360 -0.3749
  127MOL0     C16697   1.919   8.948   2.012 -0.4037  0.5213  0.4576
  127MOL0     C16698   2.051   8.987   2.004  0.6068 -0.0723  0.6680
  127MOL0     H16699   2.428   9.325   1.988  1.1491  0.9999  0.8122
  127MOL0     H16700   2.630   9.392   1.980  0.6063 -0.6913  2.0909
  127MOL0     H16701   2.832   9.422   2.036  0.6240  0.0540 -0.5661
  127MOL0     H16702   2.901   9.413   1.872  0.4644  0.5585  0.8605
  127MOL0     H16703   3.094   9.319   1.932 -0.4487  0.1254 -0.0892
  127MOL0     H16704   3.049   9.259   2.088  1.0939 -1.1799 -0.0131
  127MOL0     H16705   3.009   9.502   2.159 -0.8622 -1.6231  0.1652
  127MOL0     H16706   3.094   9.551   2.014 -0.9893 -0.0026 -0.4722
  127MOL0     H16707   3.212   9.349   2.218  2.2146  1.6015  0.7742
  127MOL0     H16708   3.296   9.418   2.080  0.7513  0.4603  1.1143
  127MOL0     H16709   3.181   9.562   2.325 -0.8630 -0.1869 -0.9944
  127MOL0     H16710   3.258   9.647   2.200 -2.3624  1.0465  0.2744
  127MOL0     H16711   3.477   9.509   2.236  1.5707 -0.8707  1.2988
  127MOL0     H16712   3.396   9.442   2.378 -2.5612 -0.5187 -0.2854
  127MOL0     H16713   3.533   9.629   2.450 -0.4883 -4.3741 -0.6007
  127MOL0     H16714   3.494   9.730   2.307  0.4433  0.3952  0.6854
  127MOL0     H16715   3.258   9.757   2.405 -0.0250  0.1475 -2.3573
  127MOL0     H16716   3.386   9.823   2.505 -1.3952 -1.0644  2.7523
  127MOL0     H16717   3.133   9.558   2.532  2.0606  0.2965 -0.7500
  127MOL0     H16718   3.045   9.486   2.829  0.6617  2.1080  0.9463
  127MOL0     H16719   3.178   9.397   2.898 -1.5844  3.8257  1.5893
  127MOL0     H16720   3.181   9.239   2.725  1.1724  1.2422  2.6938
  127MOL0     H16721   3.060   9.327   2.622  1.3168 -0.5925 -1.0939
  127MOL0     H16722   2.978   9.154   2.861 -0.9305  0.4321  2.3624
  127MOL0     H16723   2.913   9.315   2.848 -0.4776 -1.6270 -0.0639
  127MOL0     H16724   2.938   9.144   2.609 -0.6065 -1.5518 -0.2351
  127MOL0     H16725   2.831   9.279   2.624  0.4350 -0.7003 -0.1815
  127MOL0     H16726   2.526   8.980   2.794 -1.1318  0.0950 -2.6687
  127MOL0     H16727   2.328   9.081   2.871 -0.4440 -0.2737 -3.0152
  127MOL0     H16728   1.954   9.279   2.857 -1.4055  1.5013  0.0596
  127MOL0     H16729   1.765   9.386   2.939  0.5848  0.9990 -0.8365
  127MOL0     H16730   1.588   9.322   3.110  1.0801  0.5159 -1.8836
  127MOL0     H16731   1.589   9.485   3.050  0.3217 -0.2671  0.4116
  127MOL0     H16732   1.489   9.559   3.277 -0.2767 -0.4920  1.0840
  127MOL0     H16733   1.497   9.385   3.316 -0.9849 -2.0654 -1.4571
  127MOL0     H16734   1.352   9.327   3.125  1.8862 -1.8641  2.4595
  127MOL0     H16735   1.320   9.502   3.106 -1.3984 -0.7774 -0.9143
  127MOL0     H16736   1.268   9.328   3.350 -0.4206 -0.1822 -1.2263
  127MOL0     H16737   1.251   9.504   3.361 -0.4156  2.5245 -1.7543
  127MOL0     H16738   1.100   9.300   3.190  1.5071 -0.6616 -0.0912
  127MOL0     H16739   1.084   9.479   3.163 -1.6998 -1.8914 -1.3875
  127MOL0     H16740   0.986   9.494   3.403  2.6867  0.4471 -0.7117
  127MOL0     H16741   0.988   9.317   3.416  0.4295  1.5434  3.8459
  127MOL0     H16742   0.841   9.471   3.195 -0.3579 -0.5301 -1.6533
  127MOL0     H16743   0.841   9.294   3.218 -0.5071 -0.5499  2.3129
  127MOL0     H16744   0.740   9.498   3.436 -1.9367 -0.7500  2.0541
  127MOL0     H16745   0.751   9.330   3.443  0.1427  0.0496 -0.6922
  127MOL0     H16746   1.939   9.380   3.335  2.0050  0.1396 -0.4300
  127MOL0     H16747   2.152   9.316   3.232  1.6057  4.8581 -0.7950
  127MOL0     H16748   2.483   9.475   2.830 -0.7007  0.5667  1.2512
  127MOL0     H16749   2.701   9.384   2.764  0.4675 -0.4848  0.0042
  127MOL0     H16750   2.777   8.986   1.979  1.8794  1.1600 -1.4054
  127MOL0     H16751   2.536   8.898   1.995  0.0764 -0.4095  0.7467
  127MOL0     H16752   2.135   8.937   2.329 -0.6995  0.8598  0.3268
  127MOL0     H16753   1.901   8.856   2.340 -1.7908  1.4923 -0.0433
  127MOL0     H16754   1.778   8.686   1.975  2.4059  1.9031  2.3265
  127MOL0     H16755   1.690   8.822   1.910 -0.0504 -0.7119 -0.4022
  127MOL0     H16756   1.577   8.612   2.091  4.1496  0.0651 -0.3959
  127MOL0     H16757   1.484   8.753   2.042 -2.5045 -1.9608 -0.5251
  127MOL0     H16758   1.444   8.548   1.910 -0.9732  0.3685 -1.4925
  127MOL0     H16759   1.619   8.544   1.849  2.2247  2.6773  0.7830
  127MOL0     H16760   1.542   8.785   1.748  0.6810 -1.4099 -2.1176
  127MOL0     H16761   1.466   8.633   1.681  1.5183 -1.4305  0.3040
  127MOL0     H16762   1.133   8.833   1.819 -0.9169 -3.6345  3.2550
  127MOL0     H16763   1.869   8.968   1.917  1.5502  2.4810 -0.2463
  127MOL0     H16764   2.082   9.037   1.913 -0.0714  1.0836  1.0540
  128MOL0     O16765   7.285   5.531   7.006 -0.1490 -0.0325 -0.1723
  128MOL0     C16766   7.274   5.414   6.967  0.0713  1.0691  0.3690
  128MOL0     O16767   7.167   5.356   6.890 -0.0341  0.2548 -0.1899
  128MOL0     C16768   7.058   5.432   6.875 -0.1077 -0.0135  0.8343
  128MOL0     C16769   7.059   5.568   6.829 -1.0915  1.1198 -0.1608
  128MOL0     C16770   6.951   5.661   6.840  0.3727  0.7722 -0.4773
  128MOL0     C16771   6.829   5.606   6.880  0.1413 -0.1891 -0.5087
  128MOL0     O16772   6.710   5.681   6.884 -0.5435 -0.7139  0.0392
  128MOL0     C16773   6.722   5.826   6.882  0.0301 -0.3994  0.0862
  128MOL0     C16774   6.577   5.890   6.879 -0.2478 -0.1758  0.4063
  128MOL0     C16775   6.500   5.835   6.752 -0.2059 -0.3020  0.0940
  128MOL0     C16776   6.371   5.907   6.738  0.2997 -0.0350 -0.1961
  128MOL0     C16777   6.317   5.853   6.610  0.2839 -0.0683 -0.2806
  128MOL0     C16778   6.178   5.916   6.587 -0.7349 -0.5869 -0.0032
  128MOL0     C16779   6.123   5.892   6.447  0.4383  0.1107  0.4553
  128MOL0     C16780   5.995   5.963   6.407 -0.3863 -0.2916  0.7168
  128MOL0     N16781   5.961   5.935   6.262  0.8532  0.1515  0.8580
  128MOL0     C16782   5.853   5.863   6.210 -0.8553 -0.4298  0.0998
  128MOL0     C16783   5.861   5.890   6.079  0.4579  0.4014 -0.1645
  128MOL0     C16784   5.775   5.849   5.957  0.0535  0.3686 -1.4466
  128MOL0     C16785   5.627   5.820   6.004  0.1814  0.4493 -0.3865
  128MOL0     C16786   5.550   5.756   5.885 -0.6037 -0.3072  0.3089
  128MOL0     C16787   5.446   5.659   5.930 -0.0869  0.2663 -0.1072
  128MOL0     O16788   5.370   5.613   5.817 -0.0063 -0.0269 -0.1585
  128MOL0     C16789   5.247   5.550   5.838 -0.6418 -0.2902 -0.5053
  128MOL0     C16790   5.158   5.537   5.732  0.5462 -0.2535 -0.2345
  128MOL0     C16791   5.023   5.490   5.743 -0.4909  0.4026 -0.9441
  128MOL0     C16792   4.977   5.442   5.868 -1.1238 -0.5945 -0.4510
  128MOL0     C16793   4.841   5.417   5.886  0.1628  0.2146 -0.8898
  128MOL0     O16794   4.765   5.411   5.772 -0.3724 -0.3225 -0.0421
  128MOL0     C16795   4.634   5.387   5.771  0.6582  0.7825  0.4336
  128MOL0     C16796   4.528   5.484   5.774  0.4897 -0.3634  0.2163
  128MOL0     C16797   4.395   5.439   5.771  0.1308 -0.0596 -0.0476
  128MOL0     C16798   4.360   5.306   5.752  0.5893 -0.1267 -0.6064
  128MOL0     O16799   4.235   5.256   5.734 -0.4593 -0.6199 -0.2909
  128MOL0     C16800   4.133   5.353   5.714  0.4930  0.2800  0.5960
  128MOL0     C16801   3.999   5.276   5.710  0.2269  0.4615  0.0175
  128MOL0     C16802   3.881   5.373   5.711  0.4660 -0.2621 -0.6739
  128MOL0     C16803   3.758   5.314   5.637 -0.3305 -0.3546  0.1169
  128MOL0     C16804   3.640   5.413   5.650  0.3292 -0.0423 -0.5420
  128MOL0     C16805   3.514   5.363   5.581 -0.0489 -0.1934  0.1199
  128MOL0     C16806   3.398   5.471   5.583  0.2379 -0.0155 -0.3374
  128MOL0     C16807   3.291   5.430   5.486 -0.0265 -0.8451  0.1333
  128MOL0    Cl16808   3.146   5.553   5.524 -0.3289  0.0100  0.2240
  128MOL0     C16809   4.461   5.210   5.739 -0.0696 -0.2047 -0.4789
  128MOL0     C16810   4.595   5.249   5.753  0.6529 -1.4535  0.4209
  128MOL0     O16811   4.806   5.376   6.002  0.1140  0.4351  0.5125
  128MOL0     C16812   5.072   5.444   5.978  0.1691 -0.2503 -0.1878
  128MOL0     C16813   5.201   5.489   5.958  0.2672  0.0158 -0.4647
  128MOL0     N16814   5.960   5.981   6.049 -0.9166  0.3245 -0.5001
  128MOL0     N16815   6.027   5.991   6.158 -0.1111  0.0434  0.0809
  128MOL0     C16816   6.827   5.473   6.907  0.5448  1.0287 -0.0844
  128MOL0     C16817   6.934   5.385   6.901  0.0867 -0.1357  0.7249
  128MOL0     C16818   7.400   5.327   6.964  0.3935 -0.9504  0.2767
  128MOL0     C16819   7.514   5.397   7.011  0.4233  0.5954  0.0729
  128MOL0     C16820   7.636   5.325   7.028 -0.4205  0.1274 -0.5264
  128MOL0     C16821   7.643   5.186   7.001 -0.0164 -1.1769  0.2110
  128MOL0     O16822   7.751   5.101   7.025 -0.5357 -0.1579  0.2190
  128MOL0     C16823   7.880   5.151   7.015 -0.9133  0.2578  0.2760
  128MOL0     C16824   7.986   5.049   7.048 -0.4826  0.0117  0.2064
  128MOL0     C16825   7.957   5.032   7.202 -0.0694  0.3811  0.7223
  128MOL0     C16826   8.057   4.929   7.281 -0.0683  0.0551  0.4173
  128MOL0     C16827   8.195   4.978   7.279  0.6199  0.1178  0.6298
  128MOL0     C16828   8.305   5.027   7.295  0.9726  0.8443 -0.2094
  128MOL0     C16829   7.523   5.122   6.966 -1.9615 -0.6653 -0.4956
  128MOL0     C16830   7.403   5.191   6.944  0.2237  0.4666  0.3781
  128MOL0     H16831   7.153   5.609   6.792 -1.4965  1.6291 -0.6379
  128MOL0     H16832   6.968   5.765   6.813  3.2572  0.7287  0.8162
  128MOL0     H16833   6.776   5.855   6.791 -2.3557 -1.5116 -1.8038
  128MOL0     H16834   6.779   5.856   6.970 -2.0386 -3.0441  2.5304
  128MOL0     H16835   6.580   5.999   6.877  1.1332 -0.2087 -0.1309
  128MOL0     H16836   6.522   5.857   6.968  1.3159  1.1317  1.9270
  128MOL0     H16837   6.477   5.731   6.775 -1.1238  0.2290  1.7523
  128MOL0     H16838   6.560   5.845   6.661  0.3561  1.1931  0.5843
  128MOL0     H16839   6.294   5.895   6.815 -1.7080  1.2319 -1.8781
  128MOL0     H16840   6.394   6.014   6.726  1.4921 -0.3623 -0.8881
  128MOL0     H16841   6.311   5.744   6.621  2.1688 -0.0760  1.2314
  128MOL0     H16842   6.394   5.872   6.535 -0.7660  3.0826 -0.7055
  128MOL0     H16843   6.199   6.022   6.605  0.0777 -0.5963 -0.8583
  128MOL0     H16844   6.107   5.891   6.667  0.5557 -1.7901  0.7955
  128MOL0     H16845   6.202   5.933   6.383  1.3025  2.2184  2.7306
  128MOL0     H16846   6.094   5.788   6.428  1.3494  0.0409 -0.6595
  128MOL0     H16847   6.004   6.072   6.410  1.1943 -0.2570 -1.9972
  128MOL0     H16848   5.915   5.937   6.477 -2.2051  0.6629 -0.8986
  128MOL0     H16849   5.778   5.801   6.258 -0.2036 -1.6995 -0.4747
  128MOL0     H16850   5.808   5.758   5.907 -0.4244 -0.2780 -0.6302
  128MOL0     H16851   5.776   5.930   5.884  3.8945  1.1611 -0.7269
  128MOL0     H16852   5.586   5.919   6.026 -0.1584 -0.0232  1.1894
  128MOL0     H16853   5.631   5.756   6.092 -0.0869  0.9350 -0.0214
  128MOL0     H16854   5.508   5.826   5.812  0.0316  0.2905  0.5152
  128MOL0     H16855   5.618   5.690   5.831 -0.5329 -0.7367  0.9147
  128MOL0     H16856   5.385   5.716   6.001  0.0896 -0.2882  0.5111
  128MOL0     H16857   5.483   5.571   5.985  0.5696  0.0506 -0.8737
  128MOL0     H16858   5.174   5.583   5.635 -0.0057 -2.1848 -1.2918
  128MOL0     H16859   4.952   5.492   5.661 -1.3103 -0.9392 -0.3076
  128MOL0     H16860   4.565   5.585   5.789  0.2482 -0.0952 -0.9305
  128MOL0     H16861   4.323   5.521   5.778  0.9703  0.5807  1.5951
  128MOL0     H16862   4.152   5.402   5.618 -2.5699 -2.2355 -1.4789
  128MOL0     H16863   4.136   5.426   5.796 -0.9381  0.8570  0.1653
  128MOL0     H16864   3.991   5.220   5.804 -2.1486  2.6178  1.2308
  128MOL0     H16865   3.994   5.203   5.628  1.8362  1.0042 -0.6099
  128MOL0     H16866   3.906   5.458   5.646  2.4375 -0.4901 -0.2758
  128MOL0     H16867   3.842   5.404   5.808 -0.1763  3.6567 -1.9952
  128MOL0     H16868   3.786   5.296   5.533  0.6042 -0.2854  0.3530
  128MOL0     H16869   3.722   5.221   5.682 -0.6058 -1.6045 -2.4961
  128MOL0     H16870   3.660   5.514   5.612 -2.4290  1.1425  0.8914
  128MOL0     H16871   3.622   5.425   5.757 -0.5834  1.7239 -0.8542
  128MOL0     H16872   3.478   5.268   5.621 -2.0135  0.4840  0.0726
  128MOL0     H16873   3.551   5.347   5.479  2.5525  1.2349  0.7425
  128MOL0     H16874   3.358   5.464   5.685  2.0648 -3.7490  0.3226
  128MOL0     H16875   3.438   5.571   5.562 -0.3508  0.5364  1.0417
  128MOL0     H16876   3.261   5.325   5.498 -0.7049 -0.5095  1.6933
  128MOL0     H16877   3.343   5.442   5.391  2.8940  2.0299  1.8836
  128MOL0     H16878   4.438   5.104   5.730  1.2343 -0.5257 -0.3266
  128MOL0     H16879   4.673   5.174   5.738 -0.1591 -2.1458 -0.5271
  128MOL0     H16880   5.037   5.414   6.076  0.6911 -2.1769 -0.5467
  128MOL0     H16881   5.262   5.504   6.046  1.1491  5.2540 -1.6263
  128MOL0     H16882   6.729   5.437   6.936  0.4120  2.9830  2.1877
  128MOL0     H16883   6.915   5.280   6.921 -1.8415  0.4687  2.4490
  128MOL0     H16884   7.514   5.502   7.038 -0.1758  0.8118 -0.7515
  128MOL0     H16885   7.719   5.375   7.076  0.8405 -1.5512 -0.8815
  128MOL0     H16886   7.897   5.241   7.075  1.0785  1.1950 -1.5708
  128MOL0     H16887   7.886   5.191   6.913  2.1902  1.2317  0.7391
  128MOL0     H16888   7.971   4.956   6.992  1.4666 -0.2146 -0.0067
  128MOL0     H16889   8.087   5.089   7.035 -0.3012 -0.6495 -0.5051
  128MOL0     H16890   7.856   4.990   7.207 -0.2085  0.6357  0.1505
  128MOL0     H16891   7.954   5.132   7.248 -2.2870  0.7695 -0.1126
  128MOL0     H16892   8.021   4.929   7.384  0.5429 -0.0713  0.6348
  128MOL0     H16893   8.046   4.827   7.240  1.0666 -0.8018  2.1506
  128MOL0     H16894   8.405   5.057   7.320  0.4669  2.0985  0.3853
  128MOL0     H16895   7.539   5.015   6.966  0.3618 -0.3713 -0.4232
  128MOL0     H16896   7.315   5.136   6.914  0.8987  0.6822 -2.3305
  129MOL0     O16897   8.425  10.763   3.920  0.1956 -0.3475  0.1282
  129MOL0     C16898   8.480  10.854   3.857  0.0706 -0.0359 -0.0493
  129MOL0     O16899   8.418  10.963   3.816 -0.1050 -0.2890  0.4146
  129MOL0     C16900   8.288  10.998   3.834 -0.7753 -0.6235  0.5270
  129MOL0     C16901   8.181  10.905   3.843 -0.1170  0.5064  1.0256
  129MOL0     C16902   8.052  10.948   3.855  0.3079  0.2292  0.2827
  129MOL0     C16903   8.017  11.082   3.853 -0.4561  0.2535  0.3398
  129MOL0     O16904   7.892  11.131   3.868  0.1169 -0.1757  0.1063
  129MOL0     C16905   7.787  11.075   3.785 -0.1882 -0.8080  0.4566
  129MOL0     C16906   7.787  11.154   3.659 -0.0020 -0.4754  0.3122
  129MOL0     C16907   7.662  11.131   3.570 -0.8647  0.6766 -0.3363
  129MOL0     C16908   7.554  11.232   3.586  0.6239  0.2855 -0.5241
  129MOL0     C16909   7.416  11.195   3.536  0.8621 -0.7889 -0.1986
  129MOL0     C16910   7.419  11.138   3.390  0.4881  0.0979 -0.3174
  129MOL0     C16911   7.290  11.136   3.319  0.2842 -0.2013 -1.1197
  129MOL0     C16912   7.323  11.085   3.178 -0.3148 -0.1302 -0.7581
  129MOL0     N16913   7.197  11.084   3.106  0.3981 -0.0042  0.3679
  129MOL0     C16914   7.103  10.982   3.115 -0.4849  0.5075 -0.3361
  129MOL0     C16915   7.028  11.017   3.011  0.0976  0.1636 -0.9180
  129MOL0     C16916   6.900  10.949   2.964  0.1339 -0.1342 -0.4487
  129MOL0     C16917   6.784  10.966   3.059 -0.7497 -0.4283  0.0722
  129MOL0     C16918   6.779  11.108   3.117  0.2544 -1.1828 -0.3252
  129MOL0     C16919   6.770  11.225   3.021 -0.1633  0.5189  0.2872
  129MOL0     O16920   6.660  11.317   3.045 -0.1783 -0.3302 -0.3790
  129MOL0     C16921   6.529  11.278   3.012 -0.1763 -0.6468 -0.7063
  129MOL0     C16922   6.493  11.177   2.921  0.1238  0.3787 -0.0788
  129MOL0     C16923   6.368  11.147   2.886  0.7626  1.1187  0.5009
  129MOL0     C16924   6.262  11.206   2.962  0.4182 -0.2762  0.2533
  129MOL0     C16925   6.122  11.170   2.942  0.1421  0.7026  0.3783
  129MOL0     O16926   6.019  11.249   2.989  0.1595 -0.5338 -0.2311
  129MOL0     C16927   5.888  11.205   2.967 -0.9618  0.8758 -0.5545
  129MOL0     C16928   5.820  11.124   3.056 -0.2764 -0.1494 -0.6687
  129MOL0     C16929   5.687  11.074   3.038  0.2713 -0.0588  0.6772
  129MOL0     C16930   5.632  11.101   2.913 -0.0881 -0.0410  0.8633
  129MOL0     O16931   5.507  11.064   2.880 -0.2617  0.0968 -0.9260
  129MOL0     C16932   5.398  11.119   2.952 -0.2681 -0.2206 -0.5284
  129MOL0     C16933   5.277  11.141   2.859 -0.5068 -0.0310 -0.3057
  129MOL0     C16934   5.153  11.167   2.945  0.2932 -0.4449 -0.0241
  129MOL0     C16935   5.035  11.206   2.859 -0.1699  0.0936 -0.5352
  129MOL0     C16936   4.928  11.282   2.938  0.6715 -0.2296  0.2183
  129MOL0     C16937   4.840  11.206   3.040  0.1648 -0.5230  0.2157
  129MOL0     C16938   4.728  11.290   3.115  0.6030  0.3562  1.4161
  129MOL0     C16939   4.768  11.400   3.204  0.3802 -0.1276  0.8892
  129MOL0    Cl16940   4.886  11.352   3.327 -0.4173 -0.4862  0.1089
  129MOL0     C16941   5.705  11.170   2.813 -0.1124  0.7297 -0.8107
  129MOL0     C16942   5.835  11.207   2.842  0.3958 -0.7789  0.5805
  129MOL0     O16943   6.106  11.058   2.892 -0.3909  0.6365  0.0282
  129MOL0     C16944   6.296  11.303   3.060 -0.2056 -0.3051 -0.3280
  129MOL0     C16945   6.428  11.347   3.076 -0.9063  0.1811 -0.1848
  129MOL0     N16946   7.078  11.132   2.946  0.4516  0.3773  0.5158
  129MOL0     N16947   7.173  11.182   3.018  0.5950  0.0913 -0.0117
  129MOL0     C16948   8.121  11.176   3.840  0.8227 -0.3634 -0.5857
  129MOL0     C16949   8.254  11.137   3.837 -1.1326  0.4336 -0.5093
  129MOL0     C16950   8.625  10.848   3.822 -0.4898  0.5433 -0.2306
  129MOL0     C16951   8.711  10.760   3.886  0.3319  0.3970  0.1891
  129MOL0     C16952   8.851  10.763   3.864  0.0214  0.7169  0.6626
  129MOL0     C16953   8.899  10.841   3.751  0.7034 -0.2966  0.4548
  129MOL0     O16954   9.025  10.849   3.698  0.3784 -0.2527 -0.5221
  129MOL0     C16955   9.105  10.730   3.717  0.4122 -0.3616 -0.0834
  129MOL0     C16956   9.165  10.692   3.577  0.4137  0.6009  0.5847
  129MOL0     C16957   9.064  10.633   3.483  0.9116  0.5311 -0.2647
  129MOL0     C16958   9.131  10.567   3.358  0.5675 -0.4268 -1.1366
  129MOL0     C16959   9.024  10.514   3.274  0.7109 -0.7309  0.2869
  129MOL0     C16960   8.938  10.476   3.195 -0.2387  0.2318 -0.1703
  129MOL0     C16961   8.809  10.931   3.690 -0.2523 -0.0818 -0.5514
  129MOL0     C16962   8.676  10.938   3.727  0.2202  0.0286 -1.2158
  129MOL0     H16963   8.197  10.798   3.849  2.1195  0.7234 -0.0945
  129MOL0     H16964   7.975  10.876   3.880  2.4173 -1.0684  3.7680
  129MOL0     H16965   7.686  11.086   3.827 -0.1789 -0.4091  0.3793
  129MOL0     H16966   7.798  10.968   3.766 -2.2307 -1.2720  1.5459
  129MOL0     H16967   7.872  11.116   3.602  0.6857 -0.5553  1.3720
  129MOL0     H16968   7.796  11.261   3.680 -3.1194 -0.3686  1.6296
  129MOL0     H16969   7.626  11.030   3.591 -1.4073  1.2917  1.9613
  129MOL0     H16970   7.706  11.145   3.471  1.4110 -1.6997  0.2125
  129MOL0     H16971   7.538  11.246   3.693  2.0658 -1.3071 -0.0591
  129MOL0     H16972   7.583  11.326   3.538  0.7685 -0.7086 -2.4747
  129MOL0     H16973   7.348  11.280   3.533  1.4028 -0.2539  1.6490
  129MOL0     H16974   7.373  11.121   3.604 -0.7339  0.0552 -0.2589
  129MOL0     H16975   7.463  11.038   3.385  0.5941  0.1455 -0.3356
  129MOL0     H16976   7.488  11.207   3.340 -0.9044  0.4086 -1.9125
  129MOL0     H16977   7.219  11.064   3.361  1.6353 -0.0896  1.5420
  129MOL0     H16978   7.247  11.237   3.321 -0.0040 -0.3291  0.9224
  129MOL0     H16979   7.369  10.986   3.186  0.8283  0.5264  1.4521
  129MOL0     H16980   7.397  11.144   3.121  1.5849 -0.8055  0.8888
  129MOL0     H16981   7.088  10.891   3.172 -0.8617  0.9122  0.2130
  129MOL0     H16982   6.920  10.842   2.950  3.3724  0.3246 -0.1417
  129MOL0     H16983   6.872  10.986   2.865  0.6192 -0.4921 -0.7271
  129MOL0     H16984   6.803  10.892   3.138  0.1126 -0.1427  0.1379
  129MOL0     H16985   6.689  10.957   3.005 -2.1871  1.8961  1.9657
  129MOL0     H16986   6.681  11.117   3.167  0.3100  1.4664 -0.5405
  129MOL0     H16987   6.856  11.124   3.193 -0.2356  0.8118 -0.1837
  129MOL0     H16988   6.757  11.190   2.918 -1.6128 -0.5696  0.7977
  129MOL0     H16989   6.865  11.279   3.024  0.2668 -0.2401  0.9626
  129MOL0     H16990   6.564  11.109   2.874 -2.2179 -3.3712  1.2992
  129MOL0     H16991   6.345  11.075   2.807 -0.1196  0.5287  1.2679
  129MOL0     H16992   5.879  11.100   3.144  1.0148  0.2157 -1.3965
  129MOL0     H16993   5.634  11.023   3.118 -0.7642 -0.1495 -0.0540
  129MOL0     H16994   5.413  11.218   2.996 -4.0550  0.7280 -0.9739
  129MOL0     H16995   5.377  11.056   3.039  0.0229  1.1960  0.5976
  129MOL0     H16996   5.262  11.055   2.794  1.4366 -1.2265  0.7502
  129MOL0     H16997   5.309  11.226   2.797 -2.9615  1.0294 -0.2504
  129MOL0     H16998   5.171  11.243   3.022 -2.4554 -1.4757  1.7731
  129MOL0     H16999   5.128  11.083   3.009  0.8780  0.4741  1.4694
  129MOL0     H17000   5.074  11.271   2.780 -1.6784 -0.9228 -2.1745
  129MOL0     H17001   5.004  11.109   2.818  0.8776  0.1831 -1.5884
  129MOL0     H17002   4.858  11.316   2.861  1.1785  1.6267  0.5095
  129MOL0     H17003   4.967  11.371   2.989  0.2125  0.7164 -1.0289
  129MOL0     H17004   4.906  11.170   3.120 -1.3029 -1.7199  0.9439
  129MOL0     H17005   4.804  11.108   3.009 -1.5232 -0.9012  2.9782
  129MOL0     H17006   4.665  11.342   3.042 -0.4664 -1.2119  1.1531
  129MOL0     H17007   4.664  11.218   3.167 -0.6135  0.5374  0.2500
  129MOL0     H17008   4.685  11.453   3.253  0.5464  2.1842 -1.1546
  129MOL0     H17009   4.821  11.477   3.148  1.4935 -1.3484  0.2091
  129MOL0     H17010   5.648  11.173   2.721 -2.9101  0.4509  0.7755
  129MOL0     H17011   5.895  11.256   2.765  0.8496 -1.3737  0.5464
  129MOL0     H17012   6.223  11.353   3.122 -2.4107 -3.3880 -0.2347
  129MOL0     H17013   6.451  11.415   3.157  0.9327 -0.6003  0.0097
  129MOL0     H17014   8.096  11.282   3.839 -2.5440 -1.0509 -0.3239
  129MOL0     H17015   8.332  11.211   3.854 -0.4172 -0.8967  2.8730
  129MOL0     H17016   8.679  10.687   3.960 -0.1389 -1.1984 -1.5110
  129MOL0     H17017   8.928  10.703   3.912  0.9308  0.1789 -1.3218
  129MOL0     H17018   9.038  10.650   3.751  0.5291 -0.6105 -0.4213
  129MOL0     H17019   9.187  10.754   3.785 -0.5611 -0.0803  1.0223
  129MOL0     H17020   9.200  10.785   3.531  0.5616  0.4221  0.3360
  129MOL0     H17021   9.244  10.617   3.583 -0.9903 -1.5498 -3.9005
  129MOL0     H17022   8.980  10.702   3.476  0.7321  0.3105 -0.3179
  129MOL0     H17023   9.026  10.544   3.535  3.6455 -0.6848 -0.1929
  129MOL0     H17024   9.185  10.655   3.325 -0.3006  1.5235  2.1231
  129MOL0     H17025   9.209  10.493   3.381  2.3008  0.9024 -2.5250
  129MOL0     H17026   8.862  10.445   3.127  0.3543 -4.3979  0.9274
  129MOL0     H17027   8.847  11.003   3.619  0.6995 -0.4745 -0.4569
  129MOL0     H17028   8.620  11.014   3.674 -1.0556  1.6154  2.1409
  130MOL0     O17029   4.317   5.185   9.786 -0.3610  0.1817 -0.6521
  130MOL0     C17030   4.357   5.068   9.803 -0.5380  0.8676  0.1988
  130MOL0     O17031   4.307   4.959   9.738  0.0276 -0.2201  0.0181
  130MOL0     C17032   4.207   4.972   9.647 -0.5102  0.4299 -0.4826
  130MOL0     C17033   4.200   4.890   9.533 -0.4955  0.6278 -0.6727
  130MOL0     C17034   4.081   4.874   9.468  0.7740  0.6106  0.4187
  130MOL0     C17035   3.966   4.948   9.502  0.6540 -0.0757 -0.1746
  130MOL0     O17036   3.853   4.932   9.425  0.2728 -0.6964  0.1563
  130MOL0     C17037   3.730   5.008   9.446 -0.1062  0.1030 -1.6225
  130MOL0     C17038   3.663   5.023   9.307 -1.5008 -0.3708 -0.2222
  130MOL0     C17039   3.516   5.073   9.321  0.6633 -0.6241 -0.8366
  130MOL0     C17040   3.423   4.958   9.358 -0.1094  0.7373 -0.2243
  130MOL0     C17041   3.268   4.988   9.338 -0.0611 -1.3268 -0.4847
  130MOL0     C17042   3.233   5.126   9.404 -0.5111  0.2636  0.6508
  130MOL0     C17043   3.085   5.153   9.380  0.2834  0.1102  0.2940
  130MOL0     C17044   3.055   5.283   9.439 -0.3632 -0.1774  0.2407
  130MOL0     N17045   3.031   5.375   9.322 -0.3033  0.4205 -0.6924
  130MOL0     C17046   2.906   5.387   9.269 -0.3604 -0.2768 -0.2891
  130MOL0     C17047   2.914   5.470   9.164 -0.7654  0.2095  0.4393
  130MOL0     C17048   2.818   5.505   9.052 -0.9521 -0.9114 -0.3727
  130MOL0     C17049   2.688   5.433   9.049  1.0712 -0.6379 -0.4216
  130MOL0     C17050   2.595   5.504   8.948  0.0410  0.0017  0.1077
  130MOL0     C17051   2.452   5.445   8.953  0.5917  1.3121  0.0638
  130MOL0     O17052   2.363   5.541   8.893  0.2556  0.4099 -0.0855
  130MOL0     C17053   2.236   5.498   8.869 -0.0466 -0.5902  0.2672
  130MOL0     C17054   2.140   5.588   8.815 -0.7335  0.3152  0.3452
  130MOL0     C17055   2.012   5.541   8.787  0.2078 -0.4332  0.1775
  130MOL0     C17056   1.978   5.404   8.795  0.8070 -0.6795  0.7497
  130MOL0     C17057   1.843   5.360   8.758  0.5691  0.3552  1.1022
  130MOL0     O17058   1.749   5.445   8.717 -0.9055 -0.1307 -0.3047
  130MOL0     C17059   1.623   5.401   8.685 -0.3723 -0.8913  0.1546
  130MOL0     C17060   1.517   5.452   8.759  0.0566 -0.2571 -0.4692
  130MOL0     C17061   1.387   5.433   8.713 -0.0882 -0.2657 -0.0427
  130MOL0     C17062   1.352   5.353   8.600 -0.6530 -0.6526  0.7417
  130MOL0     O17063   1.219   5.328   8.573  0.1079  0.0743 -0.3859
  130MOL0     C17064   1.172   5.221   8.487 -0.0188 -0.3970  0.4144
  130MOL0     C17065   1.023   5.233   8.494  0.4313 -1.3456  0.8788
  130MOL0     C17066   0.961   5.120   8.405  0.1348  0.3295 -0.8013
  130MOL0     C17067   0.814   5.089   8.433  0.8509  0.0529  0.0813
  130MOL0     C17068   0.790   4.958   8.361  1.0897  0.2082  0.3070
  130MOL0     C17069   0.641   4.929   8.349  0.5890 -0.5869 -0.1412
  130MOL0     C17070   0.595   4.874   8.486  0.8904  0.4351 -0.8953
  130MOL0     C17071   0.457   4.811   8.488  0.3616 -0.5775 -0.2459
  130MOL0    Cl17072   0.325   4.921   8.442 -0.0079  0.3635  0.0580
  130MOL0     C17073   1.455   5.304   8.530 -0.6520 -0.1033 -0.1884
  130MOL0     C17074   1.593   5.321   8.575  0.3658 -0.0612  0.4656
  130MOL0     O17075   1.816   5.240   8.764  0.5172 -0.8929  0.4879
  130MOL0     C17076   2.078   5.314   8.834  1.1389  0.8415 -0.5771
  130MOL0     C17077   2.199   5.361   8.880  0.2530  0.5028  0.9044
  130MOL0     N17078   3.037   5.528   9.180 -0.5533  0.2439 -0.0679
  130MOL0     N17079   3.110   5.462   9.264  0.5243 -0.5375  0.3583
  130MOL0     C17080   3.968   5.027   9.613  0.6070  0.4098 -0.0827
  130MOL0     C17081   4.084   5.041   9.683 -0.6369  0.6418 -0.5462
  130MOL0     C17082   4.484   5.057   9.879 -0.0951 -0.0347  0.3781
  130MOL0     C17083   4.551   4.931   9.875 -0.3029 -0.4844 -0.2874
  130MOL0     C17084   4.672   4.929   9.950 -0.4541  0.5271 -0.1506
  130MOL0     C17085   4.730   5.032  10.021 -0.1615  0.1316 -0.0924
  130MOL0     O17086   4.852   5.003  10.086  0.0521  0.2028  0.0730
  130MOL0     C17087   4.916   5.110  10.154  0.4974 -0.4950  0.4045
  130MOL0     C17088   5.063   5.082  10.147 -0.9912 -0.2727  0.3371
  130MOL0     C17089   5.164   5.212  10.166 -1.0126  0.3065  0.0935
  130MOL0     C17090   5.143   5.282  10.296  0.1648 -0.8041 -0.7082
  130MOL0     C17091   5.178   5.190  10.400  0.8360  0.5538  0.1985
  130MOL0     C17092   5.198   5.097  10.473  0.3377  0.7266  0.9202
  130MOL0     C17093   4.660   5.153  10.023 -0.0367 -0.0277 -0.0753
  130MOL0     C17094   4.542   5.166   9.953 -0.1934  0.4067 -0.2698
  130MOL0     H17095   4.284   4.826   9.508 -2.8797 -3.4064  0.6034
  130MOL0     H17096   4.077   4.811   9.380 -0.0761 -2.4364  2.4906
  130MOL0     H17097   3.756   5.104   9.491  2.4408  0.4698 -3.6306
  130MOL0     H17098   3.658   4.961   9.513  1.8673  0.6301  1.0416
  130MOL0     H17099   3.673   4.928   9.253  1.1685  1.0972 -2.5977
  130MOL0     H17100   3.730   5.091   9.255 -1.6722 -0.0872 -0.0710
  130MOL0     H17101   3.475   5.124   9.234 -0.9090 -2.0026 -0.9655
  130MOL0     H17102   3.520   5.152   9.396  2.2254 -0.4838 -1.0388
  130MOL0     H17103   3.450   4.867   9.302 -0.4420 -0.1567  1.0268
  130MOL0     H17104   3.442   4.939   9.464 -1.1407  2.4181  0.3045
  130MOL0     H17105   3.206   4.908   9.381 -1.2217  0.0983  0.5979
  130MOL0     H17106   3.255   4.983   9.230  1.0413  0.3151 -0.7204
  130MOL0     H17107   3.290   5.206   9.356  1.0212 -1.1354  0.0393
  130MOL0     H17108   3.257   5.125   9.511  0.5781  1.6811  0.4415
  130MOL0     H17109   3.061   5.144   9.273  0.0057 -0.3432  0.3923
  130MOL0     H17110   3.015   5.084   9.427 -1.3303  0.2998 -1.6820
  130MOL0     H17111   3.141   5.322   9.495 -1.4038 -0.6167  2.2044
  130MOL0     H17112   2.975   5.270   9.511  2.9239  0.1007  4.2987
  130MOL0     H17113   2.831   5.311   9.290 -1.3468  0.4501 -1.0865
  130MOL0     H17114   2.869   5.501   8.956 -1.2808 -1.7468 -0.5228
  130MOL0     H17115   2.798   5.609   9.081  0.9865 -0.5029 -0.3701
  130MOL0     H17116   2.638   5.442   9.146  2.2810  1.6455  0.0694
  130MOL0     H17117   2.707   5.330   9.019  2.8477  0.1043 -2.0597
  130MOL0     H17118   2.589   5.609   8.978  1.4047  0.2186 -0.3092
  130MOL0     H17119   2.647   5.491   8.853  0.8433 -2.3212  0.8019
  130MOL0     H17120   2.429   5.436   9.059  0.1495  0.0162 -0.1164
  130MOL0     H17121   2.463   5.348   8.902  1.9229  2.0011 -1.0133
  130MOL0     H17122   2.178   5.689   8.804  4.2756 -1.2783  0.3774
  130MOL0     H17123   1.950   5.622   8.751  1.4511 -0.8121 -3.1206
  130MOL0     H17124   1.528   5.505   8.853  1.1077 -1.2989  0.0170
  130MOL0     H17125   1.304   5.466   8.774  0.9394  2.9446 -0.2271
  130MOL0     H17126   1.206   5.123   8.520  1.8157 -0.2111 -0.7908
  130MOL0     H17127   1.201   5.228   8.381  1.7238 -0.4892  0.8548
  130MOL0     H17128   0.983   5.334   8.491  1.2868 -0.6585  5.2648
  130MOL0     H17129   0.996   5.207   8.597  1.1872 -1.4681  1.0589
  130MOL0     H17130   1.006   5.023   8.430 -3.0740 -1.2032 -0.5500
  130MOL0     H17131   0.967   5.140   8.298  0.3356 -2.7487 -1.4403
  130MOL0     H17132   0.807   5.084   8.542  2.6183 -0.8561  0.2045
  130MOL0     H17133   0.764   5.181   8.402  0.1023  0.2653  1.8037
  130MOL0     H17134   0.835   4.882   8.426 -0.5778  2.4978  4.5560
  130MOL0     H17135   0.843   4.940   8.267  0.0589 -1.4315  0.0025
  130MOL0     H17136   0.614   4.844   8.286  0.2605 -1.4035  1.0784
  130MOL0     H17137   0.590   5.020   8.314  0.1299 -0.4472  0.8514
  130MOL0     H17138   0.664   4.800   8.528 -1.5539 -3.7260 -3.4314
  130MOL0     H17139   0.589   4.959   8.554 -0.2552  0.3475 -0.8591
  130MOL0     H17140   0.431   4.774   8.587 -1.1535 -2.9216 -1.4001
  130MOL0     H17141   0.451   4.725   8.421  0.0556 -1.5342  0.9748
  130MOL0     H17142   1.439   5.260   8.432 -0.5511  1.0735 -0.7404
  130MOL0     H17143   1.678   5.307   8.509  0.2291  3.3285 -0.6568
  130MOL0     H17144   2.058   5.208   8.850  2.4269  0.7791  0.7497
  130MOL0     H17145   2.270   5.284   8.907 -1.3707 -0.7762  1.7627
  130MOL0     H17146   3.879   5.075   9.653  0.9634  1.2022 -0.2049
  130MOL0     H17147   4.079   5.098   9.775 -0.8576 -1.9267  1.1357
  130MOL0     H17148   4.502   4.847   9.827 -1.2599  0.2078 -0.5636
  130MOL0     H17149   4.720   4.832   9.947  1.0248  1.2468 -1.1929
  130MOL0     H17150   4.878   5.119  10.256 -1.2572  1.9496 -0.3518
  130MOL0     H17151   4.900   5.204  10.101 -2.6098 -1.3315 -0.3917
  130MOL0     H17152   5.093   5.012  10.226 -1.1875 -0.6545  0.0763
  130MOL0     H17153   5.078   5.046  10.045 -1.8481 -0.2955  0.2088
  130MOL0     H17154   5.161   5.282  10.083 -3.1064 -1.1293 -1.1227
  130MOL0     H17155   5.269   5.179  10.162 -1.4672 -1.6294  1.9393
  130MOL0     H17156   5.215   5.364  10.300  0.9623 -1.5270  0.3089
  130MOL0     H17157   5.044   5.319  10.324 -0.5508 -3.0526 -0.0351
  130MOL0     H17158   5.210   5.022  10.548  1.0298  1.6839  1.7908
  130MOL0     H17159   4.697   5.239  10.079  0.2123  1.9336 -3.0597
  130MOL0     H17160   4.493   5.263   9.950 -0.1976  0.3903 -2.5229
  131MOL0     O17161   8.887   3.992   1.789  0.6281  0.4961 -0.2891
  131MOL0     C17162   8.937   4.003   1.899 -0.2518  0.4833 -0.6223
  131MOL0     O17163   8.873   4.030   2.019 -0.6318 -0.2169  0.7479
  131MOL0     C17164   8.735   4.043   2.012 -0.4312 -0.7125  0.0754
  131MOL0     C17165   8.675   4.159   2.069 -0.1741  0.2223  0.2780
  131MOL0     C17166   8.534   4.166   2.066 -0.2283  0.0531 -0.3099
  131MOL0     C17167   8.454   4.059   2.013 -0.3722 -0.6673  0.3989
  131MOL0     O17168   8.319   4.072   2.006  0.1867 -0.3661 -0.4814
  131MOL0     C17169   8.263   4.096   2.134 -0.5056  0.0684  0.6778
  131MOL0     C17170   8.116   4.066   2.138 -0.2783  0.1201 -0.0476
  131MOL0     C17171   8.070   3.930   2.077  0.6894  0.1576 -0.1832
  131MOL0     C17172   7.919   3.913   2.082 -0.0686  0.8229 -1.4745
  131MOL0     C17173   7.881   3.782   2.021  0.2012  0.1591 -0.4097
  131MOL0     C17174   7.732   3.752   2.044  0.6622 -0.0229  0.8471
  131MOL0     C17175   7.630   3.852   1.986  0.3086 -0.2847 -0.4820
  131MOL0     C17176   7.482   3.808   2.007  0.8301 -0.3123  0.1298
  131MOL0     N17177   7.389   3.901   1.950 -0.7710 -0.3857 -0.5095
  131MOL0     C17178   7.260   3.917   2.003 -0.1196 -0.1407  0.3007
  131MOL0     C17179   7.184   3.957   1.902  0.8728  1.2497 -0.7167
  131MOL0     C17180   7.038   3.981   1.920 -0.2709  0.7857 -0.1739
  131MOL0     C17181   6.963   4.013   1.795 -0.6637  1.2981 -0.2450
  131MOL0     C17182   6.824   4.073   1.818  0.5633 -0.0809  0.2609
  131MOL0     C17183   6.719   3.961   1.824 -0.2127  0.4364 -0.5064
  131MOL0     O17184   6.590   4.013   1.849  0.3781  0.4732 -0.2845
  131MOL0     C17185   6.485   3.927   1.891  0.0270  0.0728  0.3441
  131MOL0     C17186   6.509   3.790   1.919 -0.3655  0.2645  0.2345
  131MOL0     C17187   6.409   3.708   1.977  0.6914  0.3487  0.1057
  131MOL0     C17188   6.272   3.756   1.989  0.5045 -0.0278  0.4068
  131MOL0     C17189   6.163   3.673   2.059 -0.2704  0.5094  0.8091
  131MOL0     O17190   6.034   3.722   2.039 -0.1391  0.1019  0.0575
  131MOL0     C17191   5.926   3.656   2.089 -0.2035  0.6202  0.0498
  131MOL0     C17192   5.887   3.652   2.226 -0.4599  0.2708  0.1060
  131MOL0     C17193   5.763   3.599   2.264 -0.2926  0.3960 -0.2185
  131MOL0     C17194   5.672   3.538   2.172 -0.3651  0.1932 -0.2799
  131MOL0     O17195   5.544   3.499   2.201  0.2659 -0.7414  0.3930
  131MOL0     C17196   5.490   3.539   2.327  0.0111  0.0564  0.3300
  131MOL0     C17197   5.348   3.496   2.316 -0.3387 -0.2654  0.2496
  131MOL0     C17198   5.262   3.587   2.222  0.1908  0.3998 -0.1520
  131MOL0     C17199   5.116   3.567   2.254 -0.1209 -0.1289 -0.5928
  131MOL0     C17200   5.027   3.601   2.141 -0.6358 -0.1523  0.9635
  131MOL0     C17201   4.883   3.611   2.180  0.4727 -0.7239  0.9160
  131MOL0     C17202   4.809   3.683   2.065  0.6803 -0.5209 -0.2906
  131MOL0     C17203   4.665   3.705   2.097 -0.4734  0.0064  0.4862
  131MOL0    Cl17204   4.564   3.557   2.075 -0.0206 -0.1399  0.6847
  131MOL0     C17205   5.731   3.529   2.038  0.5621  0.8562 -0.4237
  131MOL0     C17206   5.847   3.592   2.003  0.2816 -0.0036 -0.0254
  131MOL0     O17207   6.202   3.578   2.126  0.3958  0.5404 -0.1796
  131MOL0     C17208   6.246   3.887   1.943 -0.2518 -0.2379  0.1219
  131MOL0     C17209   6.357   3.975   1.903  0.0859  0.0892  0.0120
  131MOL0     N17210   7.259   3.954   1.787 -0.0307  0.5218 -0.1630
  131MOL0     N17211   7.382   3.916   1.813 -0.8719  0.2868  0.2650
  131MOL0     C17212   8.520   3.949   1.961  0.5089 -0.2887  0.0867
  131MOL0     C17213   8.655   3.939   1.965  0.1722 -0.0016  0.7128
  131MOL0     C17214   9.087   3.983   1.901  0.3965 -0.1237 -0.3431
  131MOL0     C17215   9.166   3.958   2.015  0.1928  0.2553 -0.5985
  131MOL0     C17216   9.308   3.947   2.009 -0.2810  0.2483 -0.0851
  131MOL0     C17217   9.379   3.946   1.889 -0.0818  0.3733 -0.8899
  131MOL0     O17218   9.512   3.916   1.901  0.3838  0.6270  0.5668
  131MOL0     C17219   9.587   3.909   1.781 -0.0996 -0.1530 -0.0062
  131MOL0     C17220   9.727   3.854   1.812  0.0466  1.0294  0.5872
  131MOL0     C17221   9.796   3.914   1.930 -0.2698 -0.0714 -0.4828
  131MOL0     C17222   9.863   4.048   1.911 -0.9486 -0.5591  0.3370
  131MOL0     C17223   9.905   4.112   2.039  0.8603  0.3760 -0.1073
  131MOL0     C17224   9.951   4.147   2.147  0.0410  0.4765  0.0265
  131MOL0     C17225   9.297   3.964   1.778 -0.1429  1.4595  0.1907
  131MOL0     C17226   9.160   3.984   1.785  0.3752  0.0347 -0.4547
  131MOL0     H17227   8.728   4.232   2.129  1.0399  0.6896 -1.2972
  131MOL0     H17228   8.497   4.257   2.113  3.5182  2.1216 -0.9692
  131MOL0     H17229   8.261   4.204   2.150  0.5795  0.1812  0.1235
  131MOL0     H17230   8.305   4.028   2.210  2.0469  0.3944 -0.3259
  131MOL0     H17231   8.073   4.145   2.076  1.1877 -0.7058 -2.3011
  131MOL0     H17232   8.080   4.064   2.241  2.2953 -2.3509  0.9533
  131MOL0     H17233   8.122   3.849   2.129  4.3204  1.0381 -2.1005
  131MOL0     H17234   8.101   3.930   1.972 -0.3410 -0.3594 -0.5019
  131MOL0     H17235   7.892   3.918   2.188 -0.4822  0.7786 -1.5762
  131MOL0     H17236   7.875   3.996   2.027 -1.3327  0.3041 -1.2721
  131MOL0     H17237   7.940   3.699   2.061  0.9250  1.2675  0.8956
  131MOL0     H17238   7.889   3.787   1.912  0.8990 -2.3090 -0.5488
  131MOL0     H17239   7.727   3.738   2.152 -0.6240 -2.6312  0.5086
  131MOL0     H17240   7.690   3.660   2.004  0.0137 -0.6187  2.7759
  131MOL0     H17241   7.648   3.950   2.032  1.4559  0.6039 -2.6834
  131MOL0     H17242   7.650   3.866   1.880 -0.2146  2.6524 -0.2721
  131MOL0     H17243   7.461   3.795   2.113  1.0697  2.6179  0.6126
  131MOL0     H17244   7.477   3.711   1.955  2.3017  0.6018 -1.8406
  131MOL0     H17245   7.239   3.912   2.110  1.8769 -0.5942  0.7161
  131MOL0     H17246   7.017   4.047   2.004 -1.5865  2.4028 -1.7092
  131MOL0     H17247   6.996   3.884   1.949 -1.2339  1.7765  1.9074
  131MOL0     H17248   6.955   3.926   1.729 -2.1038  0.9817  0.3098
  131MOL0     H17249   7.019   4.083   1.732  0.6073  0.0917 -0.4949
  131MOL0     H17250   6.827   4.131   1.911 -4.7388  0.1400  0.5894
  131MOL0     H17251   6.799   4.128   1.727  0.2238 -0.7945 -0.0870
  131MOL0     H17252   6.753   3.889   1.898 -1.2365 -0.7204 -1.1357
  131MOL0     H17253   6.711   3.912   1.727 -3.3454  0.5605 -0.3991
  131MOL0     H17254   6.608   3.747   1.907 -0.1028  0.1843  2.3426
  131MOL0     H17255   6.427   3.605   2.005  0.0025 -0.0689 -0.9717
  131MOL0     H17256   5.958   3.694   2.296 -0.2403 -1.4912  1.0133
  131MOL0     H17257   5.740   3.601   2.370 -1.2245  3.8311 -0.3675
  131MOL0     H17258   5.502   3.645   2.347  3.1990  0.7101 -3.7187
  131MOL0     H17259   5.530   3.483   2.412  0.0973  2.3823  1.9181
  131MOL0     H17260   5.309   3.509   2.418  0.5553 -1.6882  0.8060
  131MOL0     H17261   5.335   3.394   2.280  0.0522  0.4546 -2.0447
  131MOL0     H17262   5.281   3.557   2.119 -1.1107 -0.9026 -0.0473
  131MOL0     H17263   5.296   3.690   2.229  0.9236  0.1891 -0.4318
  131MOL0     H17264   5.097   3.462   2.276 -0.9948  0.2197  0.4213
  131MOL0     H17265   5.098   3.625   2.346  1.4555 -1.7546  0.7974
  131MOL0     H17266   5.050   3.535   2.057  1.8297 -0.8807  2.0868
  131MOL0     H17267   5.067   3.696   2.106  0.6873 -0.8488  0.5105
  131MOL0     H17268   4.874   3.678   2.265 -2.7061  0.0109  0.1457
  131MOL0     H17269   4.834   3.518   2.211  1.1735 -0.4013  3.1754
  131MOL0     H17270   4.867   3.772   2.038  3.4138  0.1282  5.9038
  131MOL0     H17271   4.804   3.628   1.970  0.7366 -1.5445  0.2832
  131MOL0     H17272   4.624   3.780   2.029  1.2869  0.5934  0.0043
  131MOL0     H17273   4.658   3.737   2.202  0.7481 -0.6443  0.7941
  131MOL0     H17274   5.671   3.467   1.973 -1.4702  0.0738  2.0196
  131MOL0     H17275   5.880   3.596   1.900  1.1532 -0.9371  0.1996
  131MOL0     H17276   6.146   3.929   1.938 -0.0088  0.7636  2.4054
  131MOL0     H17277   6.344   4.077   1.869  2.5724  0.5116  0.1384
  131MOL0     H17278   8.472   3.860   1.922  2.1589 -0.2531 -2.2555
  131MOL0     H17279   8.696   3.853   1.912  2.0620  1.6135 -0.5570
  131MOL0     H17280   9.115   3.958   2.111  1.6107  0.1440  0.1985
  131MOL0     H17281   9.375   3.947   2.094  1.0647  0.6351 -1.1022
  131MOL0     H17282   9.607   4.012   1.749  2.4238 -0.0852  1.4754
  131MOL0     H17283   9.535   3.857   1.700  1.6316  0.1143 -1.3442
  131MOL0     H17284   9.706   3.750   1.838  1.5626  0.5982  0.2226
  131MOL0     H17285   9.783   3.862   1.718 -0.4058 -1.1554  0.0913
  131MOL0     H17286   9.868   3.839   1.962 -1.7538 -3.1164 -3.5545
  131MOL0     H17287   9.728   3.913   2.016 -0.1677 -0.3427 -0.4023
  131MOL0     H17288   9.963   4.040   1.866 -0.4993  3.0043  0.4096
  131MOL0     H17289   9.800   4.102   1.840 -0.9573 -2.3029 -1.0470
  131MOL0     H17290  10.010   4.170   2.234 -0.3162  2.4916 -0.2129
  131MOL0     H17291   9.346   3.958   1.681  0.7518 -1.2738  0.7194
  131MOL0     H17292   9.105   3.996   1.692  0.5691  0.8672 -0.4698
  132MOL0     O17293   0.527   0.742   4.506  0.5973 -0.2936 -0.0364
  132MOL0     C17294   0.560   0.641   4.442 -0.2664 -0.5583  0.5043
  132MOL0     O17295   0.470   0.543   4.391 -0.3334  0.0009  0.2689
  132MOL0     C17296   0.335   0.565   4.395 -0.2313  0.1577  0.2506
  132MOL0     C17297   0.273   0.499   4.295  0.4218  0.5298  0.4313
  132MOL0     C17298   0.135   0.524   4.275  0.2771 -0.2293 -0.4716
  132MOL0     C17299   0.063   0.611   4.359 -0.2932 -0.1391  0.7120
  132MOL0     O17300  -0.071   0.630   4.330  0.2450 -0.1127  0.3852
  132MOL0     C17301  -0.157   0.693   4.427  0.2878  0.4665  0.3089
  132MOL0     C17302  -0.298   0.632   4.406 -0.4168  0.0598  1.3392
  132MOL0     C17303  -0.352   0.628   4.257  0.2198  0.6628 -0.0922
  132MOL0     C17304  -0.488   0.570   4.263 -0.4439  0.4059 -0.0953
  132MOL0     C17305  -0.555   0.542   4.124  0.1117 -0.2739  0.0264
  132MOL0     C17306  -0.659   0.648   4.093 -0.9159 -0.5493 -0.1018
  132MOL0     C17307  -0.694   0.658   3.950 -0.0110  0.6658  0.2735
  132MOL0     C17308  -0.797   0.549   3.926 -0.5932  0.1885  0.0849
  132MOL0     N17309  -0.807   0.513   3.782 -0.5881  0.2150 -0.4738
  132MOL0     C17310  -0.885   0.575   3.685 -1.2470 -0.0419 -0.1061
  132MOL0     C17311  -0.847   0.516   3.576  0.4391  0.4279  0.4651
  132MOL0     C17312  -0.914   0.542   3.446  0.7924  0.3432 -0.4722
  132MOL0     C17313  -0.916   0.697   3.392 -0.5389  0.4160  0.2172
  132MOL0     C17314  -1.035   0.730   3.304  0.2246 -1.2468 -0.3167
  132MOL0     C17315  -1.039   0.661   3.170  0.5110  0.4760 -0.6229
  132MOL0     O17316  -1.146   0.568   3.191 -0.2518 -0.6022  0.0493
  132MOL0     C17317  -1.276   0.591   3.145  0.6289  0.6328  0.6696
  132MOL0     C17318  -1.336   0.723   3.136 -0.2082  0.3647  0.4505
  132MOL0     C17319  -1.471   0.740   3.099  1.0291 -0.4052 -0.5313
  132MOL0     C17320  -1.548   0.626   3.060 -0.4750 -0.8170 -0.9505
  132MOL0     C17321  -1.689   0.645   3.016  0.4237 -0.4615 -0.1996
  132MOL0     O17322  -1.763   0.532   2.998 -0.5231 -0.1889  0.9525
  132MOL0     C17323  -1.889   0.550   3.032  0.3176 -0.6536 -0.1262
  132MOL0     C17324  -1.940   0.485   3.143  0.1023  0.0187 -0.4731
  132MOL0     C17325  -2.074   0.492   3.180 -1.6067 -0.3622  0.2745
  132MOL0     C17326  -2.162   0.578   3.103  0.5136 -0.8295 -0.2881
  132MOL0     O17327  -2.289   0.584   3.143  0.5578 -0.2585 -0.2936
  132MOL0     C17328  -2.373   0.683   3.085  0.4113 -0.1162 -0.1334
  132MOL0     C17329  -2.496   0.698   3.169 -0.3373 -0.5402 -0.4931
  132MOL0     C17330  -2.604   0.767   3.082  0.2978 -0.0005  0.9815
  132MOL0     C17331  -2.736   0.776   3.159 -0.0488  0.3511  0.1736
  132MOL0     C17332  -2.849   0.859   3.087 -0.0658  0.2163 -0.5969
  132MOL0     C17333  -2.988   0.844   3.167 -0.3608  0.0736  0.2907
  132MOL0     C17334  -2.985   0.930   3.292 -0.7130 -0.5377  0.4036
  132MOL0     C17335  -3.063   1.067   3.287  0.5684  0.5344  0.8075
  132MOL0    Cl17336  -2.972   1.187   3.194  0.5714 -0.2272  0.2960
  132MOL0     C17337  -2.106   0.648   2.988 -0.0229 -0.7702 -0.4439
  132MOL0     C17338  -1.978   0.623   2.944  0.9575  0.0961 -0.1991
  132MOL0     O17339  -1.736   0.762   2.993 -0.0001 -0.2099  0.0721
  132MOL0     C17340  -1.490   0.503   3.069  0.7346 -0.3279 -1.9355
  132MOL0     C17341  -1.359   0.484   3.120 -0.1965  0.0766  0.2645
  132MOL0     N17342  -0.739   0.442   3.595 -0.0088 -0.2071 -0.0370
  132MOL0     N17343  -0.720   0.427   3.724 -0.9181 -0.7423  0.2552
  132MOL0     C17344   0.127   0.654   4.481  0.6613  0.2553 -0.5122
  132MOL0     C17345   0.263   0.632   4.491 -0.5519 -0.1053  0.0310
  132MOL0     C17346   0.705   0.615   4.425  0.4879  0.5862  0.1062
  132MOL0     C17347   0.799   0.691   4.495 -0.2730 -0.4904  0.3930
  132MOL0     C17348   0.926   0.647   4.497  0.0828 -0.0123  0.1540
  132MOL0     C17349   0.964   0.527   4.444 -0.2231  0.7173 -0.6726
  132MOL0     O17350   1.076   0.470   4.472  0.0348 -0.1050  0.0236
  132MOL0     C17351   1.191   0.556   4.478 -0.2599 -0.1302 -0.0127
  132MOL0     C17352   1.254   0.567   4.613  0.3572 -0.0307 -0.7951
  132MOL0     C17353   1.361   0.453   4.645  0.0498  0.0033 -0.2140
  132MOL0     C17354   1.490   0.506   4.587  0.2542  0.6430 -0.0621
  132MOL0     C17355   1.604   0.440   4.649  0.1554 -0.1130  0.0782
  132MOL0     C17356   1.700   0.385   4.707  0.2230  0.6471  0.4183
  132MOL0     C17357   0.866   0.451   4.378  0.0260 -0.2695  0.1406
  132MOL0     C17358   0.738   0.497   4.358  0.3689  0.3768  1.2761
  132MOL0     H17359   0.343   0.434   4.244  2.9939  2.0977  1.7825
  132MOL0     H17360   0.090   0.497   4.180  0.1745 -0.8221 -0.2594
  132MOL0     H17361  -0.152   0.800   4.404 -0.7721  0.3535 -0.5291
  132MOL0     H17362  -0.134   0.668   4.531  1.2003  3.9188  1.0813
  132MOL0     H17363  -0.361   0.685   4.478  0.4694  1.5538  1.0380
  132MOL0     H17364  -0.291   0.529   4.443 -0.3583  0.0781  1.3794
  132MOL0     H17365  -0.288   0.575   4.187 -0.4413 -2.3209  1.4284
  132MOL0     H17366  -0.372   0.730   4.223 -3.7756  0.3083  0.6577
  132MOL0     H17367  -0.488   0.477   4.320 -0.6847 -0.0931 -0.8818
  132MOL0     H17368  -0.564   0.632   4.312 -1.6291 -1.8838  1.1054
  132MOL0     H17369  -0.609   0.447   4.127 -1.6660  0.7187  2.2835
  132MOL0     H17370  -0.472   0.537   4.052 -0.0989  3.2385 -0.6886
  132MOL0     H17371  -0.624   0.745   4.131 -0.6355 -1.5293  2.3257
  132MOL0     H17372  -0.755   0.628   4.143 -1.1489 -3.4357 -1.5061
  132MOL0     H17373  -0.725   0.758   3.918 -0.2816  1.2788  2.3414
  132MOL0     H17374  -0.602   0.636   3.895 -0.9309  0.1940 -1.1322
  132MOL0     H17375  -0.894   0.586   3.962 -0.4536  2.1398 -1.3828
  132MOL0     H17376  -0.775   0.459   3.984 -0.9932  0.3615  0.5127
  132MOL0     H17377  -0.964   0.649   3.695  0.0441  1.3099  0.6109
  132MOL0     H17378  -1.018   0.512   3.462  0.4386  1.4453 -0.6457
  132MOL0     H17379  -0.863   0.469   3.383 -0.5713  0.2446 -1.5225
  132MOL0     H17380  -0.821   0.711   3.340  0.6725  2.4426  2.7413
  132MOL0     H17381  -0.927   0.756   3.483 -1.2159  0.5097  0.0777
  132MOL0     H17382  -1.125   0.711   3.363  1.1969 -0.0641  1.6859
  132MOL0     H17383  -1.031   0.838   3.287 -0.1893 -1.4992 -2.2013
  132MOL0     H17384  -0.945   0.605   3.158  0.9877  0.6150  2.0129
  132MOL0     H17385  -1.049   0.713   3.074  0.7288 -0.1059 -0.9726
  132MOL0     H17386  -1.272   0.807   3.162  1.3084  0.4016 -2.8591
  132MOL0     H17387  -1.507   0.843   3.091  0.7022 -0.5364 -0.7741
  132MOL0     H17388  -1.880   0.429   3.215 -0.5717  1.5462  1.3817
  132MOL0     H17389  -2.104   0.432   3.265  0.3448 -0.1520  1.1623
  132MOL0     H17390  -2.401   0.647   2.986 -0.2468 -0.0492  0.0226
  132MOL0     H17391  -2.331   0.783   3.071 -0.6895  0.3362 -0.3203
  132MOL0     H17392  -2.476   0.757   3.259 -0.9993  1.0420 -1.3566
  132MOL0     H17393  -2.522   0.596   3.200  0.6823 -0.7200 -0.1782
  132MOL0     H17394  -2.620   0.711   2.990 -0.3165  0.4062  0.8383
  132MOL0     H17395  -2.581   0.868   3.048  0.2051 -0.4080 -0.3419
  132MOL0     H17396  -2.768   0.673   3.178  0.6701  0.2335  0.8245
  132MOL0     H17397  -2.719   0.825   3.255 -1.5020 -0.9792  1.1502
  132MOL0     H17398  -2.863   0.829   2.983  0.9641 -2.1664 -0.1216
  132MOL0     H17399  -2.817   0.963   3.095  1.3087 -0.1802 -0.6886
  132MOL0     H17400  -2.996   0.737   3.190  3.6860 -0.4236  0.1163
  132MOL0     H17401  -3.073   0.880   3.108  1.4050  2.4842 -0.9203
  132MOL0     H17402  -3.024   0.875   3.378 -0.9545 -1.0230 -0.0163
  132MOL0     H17403  -2.882   0.948   3.325  0.2145  0.3954 -2.6405
  132MOL0     H17404  -3.077   1.107   3.387  3.5130  1.5149  0.9232
  132MOL0     H17405  -3.158   1.045   3.237 -0.1705 -0.1460  2.4667
  132MOL0     H17406  -2.172   0.706   2.924  0.4218  3.0552  2.2223
  132MOL0     H17407  -1.945   0.667   2.851 -0.9748  0.7896 -0.6141
  132MOL0     H17408  -1.554   0.416   3.054 -0.7564  0.3227  0.1086
  132MOL0     H17409  -1.328   0.383   3.145  1.7325  0.2356 -1.2580
  132MOL0     H17410   0.086   0.706   4.567  4.2448  1.4791  0.6094
  132MOL0     H17411   0.315   0.668   4.578  0.7554 -0.3857 -0.6089
  132MOL0     H17412   0.770   0.785   4.539  1.2158  0.1280  0.1070
  132MOL0     H17413   0.987   0.702   4.568  2.5622  0.4776 -2.2080
  132MOL0     H17414   1.174   0.651   4.426 -1.9028 -2.1208 -3.4508
  132MOL0     H17415   1.258   0.519   4.399 -1.1206  0.0723 -0.8578
  132MOL0     H17416   1.300   0.666   4.625  0.8738 -0.3012 -0.5146
  132MOL0     H17417   1.174   0.545   4.685  0.3974  0.0270 -0.7325
  132MOL0     H17418   1.331   0.352   4.615  1.5633  0.3613 -3.4206
  132MOL0     H17419   1.367   0.443   4.754  0.8501  0.7034 -0.1837
  132MOL0     H17420   1.491   0.488   4.479  1.6974  0.5065 -0.0410
  132MOL0     H17421   1.503   0.612   4.608 -0.8826  0.2444  3.2952
  132MOL0     H17422   1.785   0.339   4.752 -1.8357 -0.7837  3.1156
  132MOL0     H17423   0.888   0.351   4.343 -0.1020 -0.6587  1.1724
  132MOL0     H17424   0.659   0.436   4.316  2.3976 -0.6930 -1.2609
  133MOL0     O17425   9.612   8.625   6.219  0.2892  0.4102  0.4767
  133MOL0     C17426   9.685   8.541   6.162 -0.7515 -0.0486  0.0678
  133MOL0     O17427   9.639   8.451   6.071  0.0174  0.1465  0.3483
  133MOL0     C17428   9.500   8.447   6.055 -0.5092  0.3457  0.0441
  133MOL0     C17429   9.416   8.426   6.167 -0.3679 -0.3377  0.2523
  133MOL0     C17430   9.283   8.425   6.146  1.1991  0.4219  0.3344
  133MOL0     C17431   9.229   8.435   6.016 -0.0138 -0.4435 -0.3738
  133MOL0     O17432   9.099   8.451   6.006 -0.4318  0.1569  0.6008
  133MOL0     C17433   9.046   8.571   6.061  0.6836 -0.2334 -0.2389
  133MOL0     C17434   8.926   8.544   6.152  0.4471  0.4568 -1.3030
  133MOL0     C17435   8.783   8.521   6.090 -0.0893 -0.6876  0.2324
  133MOL0     C17436   8.754   8.409   5.990  0.1873  0.2457  0.2421
  133MOL0     C17437   8.626   8.438   5.910  0.6547 -0.1702 -0.4865
  133MOL0     C17438   8.494   8.392   5.977 -0.3555  0.4663 -0.3252
  133MOL0     C17439   8.374   8.447   5.910  0.4934  0.1842  0.2464
  133MOL0     C17440   8.264   8.337   5.912 -0.8936  0.8226  0.9373
  133MOL0     N17441   8.129   8.392   5.885  0.1278  0.2429 -0.0153
  133MOL0     C17442   8.047   8.356   5.780 -0.3625 -0.3979 -0.0147
  133MOL0     C17443   7.931   8.405   5.814 -0.0261  0.8649  0.0786
  133MOL0     C17444   7.803   8.395   5.745 -0.1255  0.1418  0.5791
  133MOL0     C17445   7.701   8.282   5.775  0.6166 -0.7267 -0.3523
  133MOL0     C17446   7.564   8.343   5.727 -0.8026 -0.1899  0.1043
  133MOL0     C17447   7.445   8.243   5.729 -0.0527 -0.4067  0.0111
  133MOL0     O17448   7.329   8.320   5.683  0.4093  0.0889 -0.0073
  133MOL0     C17449   7.204   8.255   5.664  0.4084  0.0668 -0.0206
  133MOL0     C17450   7.107   8.350   5.624 -0.4605 -0.4938  0.5295
  133MOL0     C17451   6.971   8.307   5.618 -0.3309 -0.1279  0.7246
  133MOL0     C17452   6.926   8.176   5.665 -0.7609 -0.2211 -0.7587
  133MOL0     C17453   6.786   8.143   5.651  0.7454 -0.4003  0.3733
  133MOL0     O17454   6.699   8.239   5.611 -0.2941  0.5404 -0.1333
  133MOL0     C17455   6.573   8.233   5.665 -0.3971  0.1170  0.5222
  133MOL0     C17456   6.545   8.243   5.802  0.4613  0.3704  0.6773
  133MOL0     C17457   6.415   8.262   5.847  0.6175  0.0858 -0.3566
  133MOL0     C17458   6.309   8.264   5.747 -0.8597 -1.6492  0.4891
  133MOL0     O17459   6.180   8.275   5.787  0.5300 -0.2403  0.0037
  133MOL0     C17460   6.148   8.405   5.857  0.2054  0.2265  0.4205
  133MOL0     C17461   5.991   8.402   5.876  0.7751  0.1187  0.3692
  133MOL0     C17462   5.909   8.397   5.741  0.3044  0.3888  0.2236
  133MOL0     C17463   5.906   8.532   5.666 -0.3900  0.2351 -0.0696
  133MOL0     C17464   5.838   8.524   5.526  0.1744  0.7789  0.4249
  133MOL0     C17465   5.808   8.659   5.445 -0.3584  0.3446 -0.4731
  133MOL0     C17466   5.717   8.758   5.535  1.2756  0.0148  0.2883
  133MOL0     C17467   5.661   8.872   5.450  0.3188 -0.0574  0.6486
  133MOL0    Cl17468   5.789   8.994   5.415 -0.1365  0.1571 -0.2015
  133MOL0     C17469   6.334   8.252   5.610  0.0723 -0.4386  1.2205
  133MOL0     C17470   6.472   8.238   5.567  0.9745 -0.0419  0.1224
  133MOL0     O17471   6.758   8.028   5.675 -0.5533 -0.4163  0.7935
  133MOL0     C17472   7.033   8.088   5.692 -0.7472 -0.2251  0.3665
  133MOL0     C17473   7.161   8.127   5.700 -0.6927  0.4189  0.8575
  133MOL0     N17474   7.942   8.472   5.935  0.2149  0.0952 -0.2413
  133MOL0     N17475   8.064   8.468   5.975  0.4868 -0.1956  0.3374
  133MOL0     C17476   9.309   8.457   5.907  1.5425  0.2420  0.1266
  133MOL0     C17477   9.452   8.460   5.923  0.3593  1.1113  0.6847
  133MOL0     C17478   9.839   8.549   6.199 -0.3988  0.9685  0.3596
  133MOL0     C17479   9.881   8.628   6.304  0.4510  0.9824 -1.0139
  133MOL0     C17480  10.018   8.634   6.332 -0.1873  0.1296 -0.9164
  133MOL0     C17481  10.111   8.557   6.258  0.2849 -0.0070  0.3435
  133MOL0     O17482  10.242   8.550   6.301 -0.5781 -0.3523  0.2401
  133MOL0     C17483  10.343   8.561   6.204  0.1551 -0.3324 -0.5051
  133MOL0     C17484  10.476   8.519   6.263 -0.3315 -0.4100 -0.6967
  133MOL0     C17485  10.571   8.533   6.146  0.3893  0.5304  0.2686
  133MOL0     C17486  10.716   8.499   6.186  0.0909  0.0818 -0.4576
  133MOL0     C17487  10.745   8.360   6.227 -0.5792 -0.3122  0.5608
  133MOL0     C17488  10.748   8.244   6.260  0.6112  0.4045  1.8671
  133MOL0     C17489  10.062   8.483   6.147 -0.3908  1.0427  0.0680
  133MOL0     C17490   9.927   8.476   6.113 -0.1103 -0.2808  0.0043
  133MOL0     H17491   9.454   8.419   6.269  2.7327  1.6437 -0.6260
  133MOL0     H17492   9.213   8.408   6.227  1.3487 -1.9933  0.0377
  133MOL0     H17493   9.009   8.640   5.985 -2.1653  0.7643  1.8924
  133MOL0     H17494   9.120   8.625   6.122  0.9818  1.2894 -1.8772
  133MOL0     H17495   8.915   8.635   6.213 -2.7989  2.9562 -5.0845
  133MOL0     H17496   8.950   8.458   6.215 -0.0061 -1.0473 -3.0775
  133MOL0     H17497   8.759   8.612   6.035  3.2139 -0.7527 -1.5967
  133MOL0     H17498   8.720   8.516   6.180  1.1851  2.6182  1.4713
  133MOL0     H17499   8.836   8.402   5.918 -0.7250  0.8655 -0.8848
  133MOL0     H17500   8.738   8.325   6.059 -0.0342  3.2821  4.2989
  133MOL0     H17501   8.634   8.382   5.816 -0.9131  0.1345 -0.8307
  133MOL0     H17502   8.612   8.546   5.896  1.5094  0.3596  2.1696
  133MOL0     H17503   8.495   8.419   6.082  0.6404 -0.7051 -0.0093
  133MOL0     H17504   8.494   8.282   5.971 -2.2700  0.4907 -1.9037
  133MOL0     H17505   8.338   8.540   5.955 -0.3729  0.3565 -0.7706
  133MOL0     H17506   8.398   8.460   5.804 -0.2691 -2.6249 -0.3517
  133MOL0     H17507   8.257   8.294   6.013  0.3318  2.0123  1.5713
  133MOL0     H17508   8.290   8.255   5.845  1.4381  2.4923 -0.3312
  133MOL0     H17509   8.049   8.287   5.696 -2.7826  0.0939 -0.5498
  133MOL0     H17510   7.836   8.384   5.641 -1.7786 -1.1664  0.1591
  133MOL0     H17511   7.763   8.496   5.736  0.3505  0.3382  0.6404
  133MOL0     H17512   7.691   8.268   5.883 -3.4916  0.3043 -0.4401
  133MOL0     H17513   7.741   8.189   5.734 -0.0523 -0.1748 -2.3417
  133MOL0     H17514   7.527   8.421   5.794 -1.3924 -2.9329  3.2507
  133MOL0     H17515   7.585   8.367   5.622 -1.2794 -0.2538 -0.0083
  133MOL0     H17516   7.427   8.199   5.827  1.9477 -1.9250 -0.2126
  133MOL0     H17517   7.469   8.161   5.660 -0.1653 -1.1995  0.8999
  133MOL0     H17518   7.147   8.446   5.594  2.9252 -2.1940 -0.9952
  133MOL0     H17519   6.919   8.388   5.568 -0.3455 -0.4517  0.2038
  133MOL0     H17520   6.630   8.244   5.870  1.3985  0.5995 -0.4589
  133MOL0     H17521   6.390   8.280   5.952  0.5379  2.2749 -0.6955
  133MOL0     H17522   6.186   8.489   5.798 -0.4151  0.3402  0.1746
  133MOL0     H17523   6.198   8.408   5.955 -1.1010  1.7490  1.0829
  133MOL0     H17524   5.955   8.479   5.945  1.9187  1.1811 -0.1738
  133MOL0     H17525   5.970   8.303   5.917 -1.2530 -1.2583 -3.3936
  133MOL0     H17526   5.808   8.370   5.772  0.7503 -0.1128  1.2828
  133MOL0     H17527   5.948   8.321   5.672  1.4949  1.3418 -0.1934
  133MOL0     H17528   5.862   8.612   5.727 -1.4882 -1.6042  1.6750
  133MOL0     H17529   6.008   8.566   5.646 -0.5711  0.0042 -1.4931
  133MOL0     H17530   5.742   8.475   5.507  1.8259 -2.5339 -0.1321
  133MOL0     H17531   5.904   8.467   5.460 -0.0003  2.2668 -1.1038
  133MOL0     H17532   5.754   8.634   5.353 -1.3658  1.2918 -0.1639
  133MOL0     H17533   5.897   8.718   5.423 -2.2110  4.1315  1.3257
  133MOL0     H17534   5.633   8.706   5.582  0.4058  3.4546  2.9125
  133MOL0     H17535   5.788   8.795   5.609  2.9797  1.0360 -1.7347
  133MOL0     H17536   5.575   8.912   5.505  0.0735 -0.9577  0.9279
  133MOL0     H17537   5.626   8.835   5.354 -1.6449  1.0439  0.8837
  133MOL0     H17538   6.251   8.251   5.541  0.8524 -0.0556  0.2432
  133MOL0     H17539   6.494   8.226   5.462 -2.0851 -0.9654 -0.5126
  133MOL0     H17540   7.009   7.985   5.714  0.9527 -1.3803 -2.5597
  133MOL0     H17541   7.239   8.056   5.723 -0.5637  0.9381  2.0777
  133MOL0     H17542   9.264   8.487   5.813  0.7022  1.3252  0.8424
  133MOL0     H17543   9.518   8.471   5.837  1.1196 -2.9011  0.5619
  133MOL0     H17544   9.802   8.677   6.359  0.1005 -0.6878  0.0412
  133MOL0     H17545  10.070   8.681   6.415  1.3939 -4.6728  1.1584
  133MOL0     H17546  10.342   8.668   6.181 -3.3474  0.4961  2.4569
  133MOL0     H17547  10.314   8.515   6.109  0.2903 -1.2718 -0.1027
  133MOL0     H17548  10.502   8.584   6.347 -1.5240 -2.3617  1.2940
  133MOL0     H17549  10.473   8.417   6.304 -2.3358  0.3015  1.1402
  133MOL0     H17550  10.565   8.633   6.102  1.2757  0.3163 -0.3701
  133MOL0     H17551  10.547   8.465   6.064  0.6751  0.8812 -0.1056
  133MOL0     H17552  10.796   8.516   6.114 -1.3656  0.1340 -2.1281
  133MOL0     H17553  10.750   8.566   6.266  0.7388 -1.5330  0.6692
  133MOL0     H17554  10.760   8.139   6.276 -1.4181 -1.0089 -3.7869
  133MOL0     H17555  10.127   8.413   6.096 -0.0189  0.9420  0.6782
  133MOL0     H17556   9.897   8.413   6.030  1.3955 -0.0104 -0.7657
  134MOL0     O17557   6.813   5.247   6.342 -0.1206 -0.4022 -0.8568
  134MOL0     C17558   6.908   5.257   6.408 -0.0099  0.3572 -0.4837
  134MOL0     O17559   6.992   5.369   6.407  0.6572  1.3690 -0.0809
  134MOL0     C17560   6.935   5.477   6.353  0.4084 -1.0517  0.4687
  134MOL0     C17561   6.838   5.546   6.425 -0.2549  0.2070  0.2541
  134MOL0     C17562   6.779   5.655   6.368  0.8065  0.1521  0.1662
  134MOL0     C17563   6.810   5.707   6.244 -0.2429 -0.1469  0.0921
  134MOL0     O17564   6.749   5.828   6.208 -0.3295 -0.9929 -0.2445
  134MOL0     C17565   6.755   5.859   6.064  0.3748  0.1954 -0.1853
  134MOL0     C17566   6.619   5.936   6.039 -0.3634 -0.7854  0.0898
  134MOL0     C17567   6.503   5.841   6.011 -0.6270 -0.1569 -0.5158
  134MOL0     C17568   6.367   5.914   5.973  0.7881  0.2967 -0.2482
  134MOL0     C17569   6.264   5.824   5.908 -0.1636  0.0680 -0.2187
  134MOL0     C17570   6.204   5.717   5.995 -0.1257 -0.0076  0.7070
  134MOL0     C17571   6.083   5.645   5.927  0.0713  0.5234 -0.8122
  134MOL0     C17572   6.038   5.534   6.025  0.5471  0.0170  0.0262
  134MOL0     N17573   5.909   5.482   5.974  0.8762 -0.1541  0.2212
  134MOL0     C17574   5.892   5.391   5.879 -0.3993  0.9966  0.4355
  134MOL0     C17575   5.761   5.377   5.863  0.1864  0.4886 -0.2769
  134MOL0     C17576   5.691   5.307   5.761 -0.2338 -0.6233  0.5631
  134MOL0     C17577   5.544   5.298   5.771  0.1915  0.7649 -0.1132
  134MOL0     C17578   5.493   5.213   5.886  0.5539  0.5070 -0.1743
  134MOL0     C17579   5.334   5.175   5.858 -1.1464 -0.3613 -0.2427
  134MOL0     O17580   5.316   5.096   5.741 -0.3284 -0.2283  0.2558
  134MOL0     C17581   5.190   5.048   5.707 -0.5146  0.7491  0.2698
  134MOL0     C17582   5.179   4.948   5.614 -1.2640  0.3308  0.1981
  134MOL0     C17583   5.062   4.901   5.565  0.1613  0.1976  0.3313
  134MOL0     C17584   4.941   4.947   5.620 -0.4072 -0.0722 -1.0860
  134MOL0     C17585   4.810   4.889   5.570  0.5424  0.0729 -0.8321
  134MOL0     O17586   4.700   4.929   5.654  0.9310 -0.1659 -0.3478
  134MOL0     C17587   4.576   4.901   5.603 -0.5322  0.9634 -0.3688
  134MOL0     C17588   4.515   4.976   5.505 -0.4187 -0.0643  0.0173
  134MOL0     C17589   4.393   4.933   5.448  0.6395  0.1034 -0.2223
  134MOL0     C17590   4.331   4.814   5.488 -0.4266 -0.1073 -0.6183
  134MOL0     O17591   4.215   4.759   5.438  0.9728  0.3959  0.2966
  134MOL0     C17592   4.139   4.822   5.329  0.2132  0.1163  0.0926
  134MOL0     C17593   3.995   4.767   5.336  0.6574  0.0230  0.2878
  134MOL0     C17594   3.907   4.803   5.451 -0.5169  1.1141  0.8436
  134MOL0     C17595   3.779   4.739   5.431  0.7907 -0.0209  0.7252
  134MOL0     C17596   3.680   4.762   5.541  0.2585 -1.1539 -0.6660
  134MOL0     C17597   3.673   4.910   5.584 -0.1810  0.6032 -0.9923
  134MOL0     C17598   3.547   4.935   5.667 -0.5975 -0.1371 -0.3567
  134MOL0     C17599   3.424   4.934   5.581  0.4803  1.3689  0.1210
  134MOL0    Cl17600   3.410   5.043   5.441 -0.1588  0.0156 -0.4962
  134MOL0     C17601   4.394   4.734   5.581 -0.4158  0.4303  0.3304
  134MOL0     C17602   4.520   4.778   5.638  0.4609 -0.3621  0.1982
  134MOL0     O17603   4.803   4.827   5.462 -0.3874  0.3250 -0.5149
  134MOL0     C17604   4.949   5.048   5.719  0.1696  0.1085  0.4679
  134MOL0     C17605   5.066   5.100   5.756  0.1546 -0.0973 -0.8336
  134MOL0     N17606   5.700   5.462   5.959 -0.4660 -0.0719  0.6745
  134MOL0     N17607   5.789   5.521   6.024  0.4366 -0.2127  0.8909
  134MOL0     C17608   6.910   5.640   6.176 -0.5125 -0.4714  0.1695
  134MOL0     C17609   6.971   5.520   6.223  0.0739  0.3704  0.4788
  134MOL0     C17610   6.961   5.146   6.485  0.0496 -0.3255 -1.3286
  134MOL0     C17611   7.080   5.162   6.561 -1.2755  0.1784 -0.0672
  134MOL0     C17612   7.118   5.066   6.649 -0.4721  0.0864  0.6524
  134MOL0     C17613   7.052   4.943   6.658  0.1871 -0.4010 -0.1668
  134MOL0     O17614   7.100   4.836   6.724 -0.2532 -0.3073  0.7969
  134MOL0     C17615   7.233   4.801   6.695 -0.6225  0.3377 -0.4977
  134MOL0     C17616   7.255   4.761   6.543  0.3390 -0.3629 -1.1666
  134MOL0     C17617   7.155   4.651   6.491  0.3259 -0.9749  0.2206
  134MOL0     C17618   7.206   4.585   6.360 -0.2838 -0.1290 -0.2890
  134MOL0     C17619   7.208   4.677   6.245  0.4838  0.0119 -0.4959
  134MOL0     C17620   7.212   4.744   6.137 -0.6964 -0.2228  0.5432
  134MOL0     C17621   6.937   4.925   6.580 -0.9702 -0.8209 -1.2816
  134MOL0     C17622   6.890   5.030   6.502  0.1189  1.2058 -1.0625
  134MOL0     H17623   6.802   5.522   6.524  0.1041  2.9443  1.1100
  134MOL0     H17624   6.705   5.711   6.424 -0.0863 -1.0115  0.1967
  134MOL0     H17625   6.759   5.769   6.002  4.6991 -1.7134  2.3496
  134MOL0     H17626   6.835   5.929   6.043  1.5582 -0.9771  0.2600
  134MOL0     H17627   6.629   5.999   5.950  0.7479  1.0370  1.4271
  134MOL0     H17628   6.590   5.995   6.126 -1.5749 -0.6570 -0.3861
  134MOL0     H17629   6.502   5.765   6.090  1.2439 -1.7390 -1.8942
  134MOL0     H17630   6.522   5.774   5.926 -2.8460 -0.7616 -0.6049
  134MOL0     H17631   6.333   5.966   6.063  1.0097 -1.8005  1.1272
  134MOL0     H17632   6.396   5.996   5.907 -0.7929  2.7292  1.9125
  134MOL0     H17633   6.298   5.784   5.812  0.0617  0.4476 -0.3001
  134MOL0     H17634   6.181   5.889   5.878  0.9197  0.0916 -3.6127
  134MOL0     H17635   6.165   5.769   6.083  0.8887  1.1205  0.5172
  134MOL0     H17636   6.286   5.651   6.025 -0.0190 -0.6357 -0.8729
  134MOL0     H17637   6.008   5.720   5.897 -2.2879 -2.1915 -2.2686
  134MOL0     H17638   6.118   5.593   5.838  0.9683 -0.6137  0.1783
  134MOL0     H17639   6.015   5.577   6.123 -3.4263 -0.3627 -0.5554
  134MOL0     H17640   6.109   5.452   6.035  0.0468 -0.5051 -0.5541
  134MOL0     H17641   5.961   5.328   5.825  1.2575  2.4191  0.8041
  134MOL0     H17642   5.736   5.208   5.764  0.1782 -0.4332  0.7695
  134MOL0     H17643   5.716   5.352   5.665  0.6062 -3.1643 -0.4678
  134MOL0     H17644   5.511   5.261   5.674  1.5418  1.3234 -0.8062
  134MOL0     H17645   5.507   5.400   5.791  1.4510  0.9669  1.3564
  134MOL0     H17646   5.544   5.117   5.898 -2.4988 -1.2133 -0.0013
  134MOL0     H17647   5.499   5.259   5.985 -3.3813  0.3210  0.3336
  134MOL0     H17648   5.285   5.269   5.832  0.1353 -0.1610 -2.1087
  134MOL0     H17649   5.282   5.127   5.942 -0.9652  1.2106  0.8112
  134MOL0     H17650   5.271   4.907   5.575 -0.4379  1.5204  0.8569
  134MOL0     H17651   5.051   4.825   5.488 -1.9323 -0.3818  1.1237
  134MOL0     H17652   4.576   5.060   5.471  1.1308 -0.9547  0.5244
  134MOL0     H17653   4.350   4.998   5.372  1.3794  3.6589  2.1781
  134MOL0     H17654   4.187   4.810   5.232  1.7207 -2.8187  1.1018
  134MOL0     H17655   4.130   4.928   5.354  0.2779 -0.2848  1.9683
  134MOL0     H17656   3.991   4.660   5.316 -1.9045  0.4720 -2.3674
  134MOL0     H17657   3.946   4.802   5.244 -2.9533  0.5239  2.2059
  134MOL0     H17658   3.902   4.913   5.455 -0.5108  1.1532 -0.0488
  134MOL0     H17659   3.955   4.761   5.540  3.3915 -2.9857 -2.6888
  134MOL0     H17660   3.751   4.765   5.329  3.3491 -1.1620 -0.3663
  134MOL0     H17661   3.797   4.631   5.427 -1.2850 -0.4342  1.6988
  134MOL0     H17662   3.714   4.702   5.626 -0.6318 -4.6241 -2.5682
  134MOL0     H17663   3.586   4.728   5.497 -1.7203  2.0776  0.6992
  134MOL0     H17664   3.693   4.979   5.502  4.0997  1.3313  0.3770
  134MOL0     H17665   3.758   4.914   5.654 -0.1983 -2.2190 -0.6974
  134MOL0     H17666   3.541   4.874   5.757 -0.5282  1.3376  0.6754
  134MOL0     H17667   3.543   5.038   5.705  0.2511 -1.1496  2.7861
  134MOL0     H17668   3.337   4.946   5.645  0.4587 -0.2367  0.4362
  134MOL0     H17669   3.426   4.831   5.544  5.5355  1.8931 -1.9187
  134MOL0     H17670   4.345   4.639   5.601 -0.3990  0.4116  0.2853
  134MOL0     H17671   4.572   4.724   5.716 -0.5968 -1.0487  0.4559
  134MOL0     H17672   4.862   5.090   5.768 -0.6380  0.2265 -0.9948
  134MOL0     H17673   5.067   5.176   5.834  2.0606 -1.6804  0.7960
  134MOL0     H17674   6.930   5.675   6.075 -2.6747  0.8738  0.1273
  134MOL0     H17675   7.039   5.459   6.166  1.0733  2.1621 -0.3141
  134MOL0     H17676   7.136   5.255   6.562 -2.7079  1.2284  3.7784
  134MOL0     H17677   7.210   5.078   6.705  0.4867 -1.1420 -0.5889
  134MOL0     H17678   7.257   4.712   6.754 -1.3305 -0.9416 -2.0556
  134MOL0     H17679   7.296   4.885   6.724 -0.3246  0.4677 -1.4814
  134MOL0     H17680   7.258   4.850   6.479  2.4836  0.3142 -0.2208
  134MOL0     H17681   7.349   4.706   6.532 -1.5009 -3.4218 -2.5920
  134MOL0     H17682   7.056   4.698   6.483 -0.3759 -2.4805 -0.2656
  134MOL0     H17683   7.144   4.574   6.567 -1.4293 -1.6164 -0.6181
  134MOL0     H17684   7.307   4.544   6.369  0.1617  0.5403 -1.7791
  134MOL0     H17685   7.139   4.501   6.340  0.4584 -0.9343  0.5215
  134MOL0     H17686   7.227   4.796   6.045 -1.9559  0.6154  0.7846
  134MOL0     H17687   6.892   4.829   6.603  1.7123 -1.3321  3.0917
  134MOL0     H17688   6.795   5.004   6.457  0.4536 -2.3011 -0.0631
  135MOL0     O17689   8.587   4.000  10.432  0.0485  0.2709  0.2810
  135MOL0     C17690   8.509   4.028  10.523  0.7612 -0.8612  0.5514
  135MOL0     O17691   8.479   4.161  10.559  0.2744 -0.6301  0.4096
  135MOL0     C17692   8.564   4.263  10.511  0.1871 -0.4697 -0.0887
  135MOL0     C17693   8.657   4.344  10.584  0.8852  1.0074  0.2474
  135MOL0     C17694   8.739   4.438  10.524  0.5379 -0.4223  0.7016
  135MOL0     C17695   8.725   4.472  10.388  0.0254  0.7602  0.0402
  135MOL0     O17696   8.804   4.571  10.336  0.2144  0.1439  0.7868
  135MOL0     C17697   8.767   4.618  10.205 -0.1456 -0.4074  0.9967
  135MOL0     C17698   8.852   4.740  10.172 -0.2683  0.1462 -1.1625
  135MOL0     C17699   9.011   4.707  10.175  1.4914 -0.6484  0.3868
  135MOL0     C17700   9.097   4.833  10.210 -0.8428  0.4219 -0.2434
  135MOL0     C17701   9.249   4.799  10.218  0.9875  0.3830 -0.3195
  135MOL0     C17702   9.340   4.908  10.176 -0.2402 -0.4097 -0.9711
  135MOL0     C17703   9.486   4.864  10.190 -0.4323  0.3308  0.2253
  135MOL0     C17704   9.527   4.862  10.340 -0.8412 -0.1311  0.6016
  135MOL0     N17705   9.647   4.769  10.364  0.0592  0.4466 -0.6773
  135MOL0     C17706   9.760   4.748  10.284  0.8054 -0.2946 -0.3774
  135MOL0     C17707   9.820   4.647  10.348 -0.8556  0.2909 -0.3369
  135MOL0     C17708   9.946   4.589  10.286 -0.0669 -0.5934  0.1207
  135MOL0     C17709  10.060   4.681  10.323  0.6934  0.2424 -0.6456
  135MOL0     C17710  10.194   4.625  10.288  0.3369  0.2366  0.0652
  135MOL0     C17711  10.220   4.478  10.346 -0.6774 -0.6552  1.5332
  135MOL0     O17712  10.263   4.413  10.220 -0.0878  0.0185  0.1941
  135MOL0     C17713  10.400   4.414  10.186  0.4299  0.3433  0.6097
  135MOL0     C17714  10.436   4.345  10.070 -0.1958  0.3260  0.3806
  135MOL0     C17715  10.569   4.318  10.041  0.7500  0.5149  0.4133
  135MOL0     C17716  10.676   4.372  10.116 -0.3362  0.8044 -0.0777
  135MOL0     C17717  10.818   4.335  10.093 -0.3066 -0.3311 -0.5481
  135MOL0     O17718  10.864   4.276   9.973  0.3042  1.1436  0.5894
  135MOL0     C17719  10.997   4.230   9.954  0.6206  0.1142 -0.3908
  135MOL0     C17720  11.008   4.151   9.839 -0.0193 -0.4883 -0.4823
  135MOL0     C17721  11.129   4.103   9.800 -0.3799  0.5414 -0.4293
  135MOL0     C17722  11.253   4.128   9.869 -0.2426 -0.9918 -0.7403
  135MOL0     O17723  11.374   4.066   9.840 -0.1026 -0.0489  0.3447
  135MOL0     C17724  11.426   4.099   9.712 -0.0317  0.3244  0.9889
  135MOL0     C17725  11.562   4.162   9.726  0.1078  0.2481 -0.4743
  135MOL0     C17726  11.560   4.308   9.769 -0.3900 -0.2740  0.3038
  135MOL0     C17727  11.701   4.351   9.801  0.5239  0.7505  0.1926
  135MOL0     C17728  11.710   4.479   9.872  1.1145 -1.1791 -0.1308
  135MOL0     C17729  11.853   4.535   9.881 -0.6794  0.3262 -0.0803
  135MOL0     C17730  11.871   4.673   9.957  0.5872  0.0510 -0.2723
  135MOL0     C17731  12.017   4.694   9.985  0.7610  0.6196 -0.3907
  135MOL0    Cl17732  12.086   4.547  10.077  0.2887 -0.1339 -0.5424
  135MOL0     C17733  11.244   4.198   9.988 -0.8138 -0.0831  0.2629
  135MOL0     C17734  11.113   4.247  10.029 -0.3571  0.3056 -0.1036
  135MOL0     O17735  10.890   4.362  10.193 -1.1141 -0.3408 -0.0616
  135MOL0     C17736  10.634   4.455  10.222 -0.6354  0.1753 -0.3100
  135MOL0     C17737  10.500   4.469  10.267 -0.1554  0.4777 -0.1219
  135MOL0     N17738   9.741   4.590  10.446  0.0920 -0.6189 -0.2258
  135MOL0     N17739   9.649   4.674  10.465 -0.5953  0.0300 -0.2820
  135MOL0     C17740   8.645   4.380  10.312  0.3673 -1.0923  0.2072
  135MOL0     C17741   8.556   4.295  10.377 -0.1839  0.6307  0.4154
  135MOL0     C17742   8.477   3.928  10.625  0.6508  0.7103  1.4006
  135MOL0     C17743   8.375   3.940  10.720 -0.4598 -0.0940  0.4311
  135MOL0     C17744   8.343   3.840  10.808 -0.3555  0.4121  0.2615
  135MOL0     C17745   8.399   3.709  10.797 -0.5733  0.6702  0.5636
  135MOL0     O17746   8.357   3.616  10.891 -0.3793  0.7096 -0.0736
  135MOL0     C17747   8.445   3.493  10.905  0.4869 -0.0228  0.3063
  135MOL0     C17748   8.399   3.409  11.027  0.3082  0.7580 -0.6689
  135MOL0     C17749   8.273   3.330  10.976 -0.0989  0.2359  0.4152
  135MOL0     C17750   8.207   3.251  11.091 -0.5515  0.2852 -0.1033
  135MOL0     C17751   8.154   3.334  11.202 -0.6876  0.2983 -0.7296
  135MOL0     C17752   8.092   3.401  11.276 -0.3359  0.6404  0.0479
  135MOL0     C17753   8.490   3.689  10.692  0.9584  0.4982  1.1547
  135MOL0     C17754   8.531   3.799  10.618 -0.5436  0.1555 -0.0393
  135MOL0     H17755   8.660   4.323  10.691  1.6555  1.5643  0.3467
  135MOL0     H17756   8.802   4.506  10.581  2.7124 -1.5007 -0.3245
  135MOL0     H17757   8.660   4.642  10.200 -0.3865 -1.6271 -0.6259
  135MOL0     H17758   8.780   4.540  10.130  0.9483  1.5624 -0.9796
  135MOL0     H17759   8.819   4.825  10.232  0.1314  0.2787 -1.1272
  135MOL0     H17760   8.823   4.768  10.070 -4.1889 -2.2585 -0.9513
  135MOL0     H17761   9.043   4.666  10.079 -0.4723  2.8486 -1.9686
  135MOL0     H17762   9.029   4.637  10.258 -3.0316 -0.8370  1.4351
  135MOL0     H17763   9.074   4.900  10.125 -1.7735  0.1190 -0.2397
  135MOL0     H17764   9.066   4.894  10.295  0.3828  0.1544  0.4155
  135MOL0     H17765   9.273   4.707  10.163 -0.1856 -0.0689 -0.1190
  135MOL0     H17766   9.277   4.777  10.321  1.6527 -2.5156 -1.0198
  135MOL0     H17767   9.328   4.992  10.245  1.7737  1.1023 -2.3370
  135MOL0     H17768   9.320   4.950  10.078 -2.8603  2.2096  0.5306
  135MOL0     H17769   9.490   4.761  10.152 -0.7653  0.1420  0.6962
  135MOL0     H17770   9.553   4.927  10.130 -1.5326  0.8195 -0.5309
  135MOL0     H17771   9.447   4.827  10.405  0.7614  1.1784  3.5026
  135MOL0     H17772   9.546   4.963  10.377 -0.5557  1.1857 -2.7636
  135MOL0     H17773   9.792   4.799  10.193  0.7387 -2.1071 -1.4729
  135MOL0     H17774   9.941   4.591  10.177  0.1209 -0.5563  0.1110
  135MOL0     H17775   9.946   4.485  10.320 -0.7212 -0.4616  0.5321
  135MOL0     H17776  10.057   4.705  10.429 -2.4953  2.4095 -1.0918
  135MOL0     H17777  10.031   4.768  10.263 -0.9645 -0.3231 -0.7314
  135MOL0     H17778  10.207   4.624  10.179  3.5709 -2.7281  0.3006
  135MOL0     H17779  10.269   4.699  10.318 -0.6600  1.1723  0.3034
  135MOL0     H17780  10.131   4.423  10.379 -2.0466 -0.7627 -1.9374
  135MOL0     H17781  10.295   4.480  10.426  2.8375  2.8684 -1.4217
  135MOL0     H17782  10.346   4.318  10.016  0.7709 -0.7137 -0.7661
  135MOL0     H17783  10.588   4.253   9.956 -2.5517  1.0592 -0.8764
  135MOL0     H17784  10.927   4.121   9.773  0.5528 -1.1716 -0.8869
  135MOL0     H17785  11.130   4.060   9.701  0.2477 -2.8105  0.8969
  135MOL0     H17786  11.367   4.172   9.655  0.7684 -2.3250 -3.7319
  135MOL0     H17787  11.426   4.016   9.640 -0.5220  1.2888 -0.1646
  135MOL0     H17788  11.607   4.154   9.627  0.3731 -2.1552 -0.2196
  135MOL0     H17789  11.618   4.099   9.796  1.0016 -0.5165 -1.8296
  135MOL0     H17790  11.499   4.316   9.858 -1.7323 -0.7348 -0.5428
  135MOL0     H17791  11.519   4.381   9.699  1.2579 -1.4434 -2.0779
  135MOL0     H17792  11.748   4.277   9.866  0.2628  0.8969  0.5494
  135MOL0     H17793  11.758   4.355   9.707 -0.6816 -1.6484 -0.7333
  135MOL0     H17794  11.681   4.467   9.977  1.8483 -4.5145 -0.2033
  135MOL0     H17795  11.654   4.552   9.812  3.6291 -0.3985 -1.6714
  135MOL0     H17796  11.884   4.557   9.778 -1.1899  2.9084  0.2540
  135MOL0     H17797  11.911   4.453   9.923 -2.2861 -1.7679 -1.7487
  135MOL0     H17798  11.825   4.750   9.895 -2.4874  0.0471  1.7563
  135MOL0     H17799  11.824   4.671  10.056 -2.1365  0.3733 -1.4627
  135MOL0     H17800  12.019   4.791  10.035 -1.1508  0.8410 -0.6403
  135MOL0     H17801  12.074   4.706   9.892 -0.3890  0.7492 -1.1079
  135MOL0     H17802  11.341   4.213  10.035  1.9358 -2.3064 -4.1032
  135MOL0     H17803  11.106   4.295  10.126 -3.0513  3.0620 -1.4856
  135MOL0     H17804  10.704   4.506  10.287 -0.1533 -2.6446  1.5613
  135MOL0     H17805  10.484   4.517  10.363  0.6867 -1.5683  1.1029
  135MOL0     H17806   8.628   4.389  10.205 -0.6108 -3.9407  0.0344
  135MOL0     H17807   8.481   4.248  10.314 -0.2177 -0.9791  1.5876
  135MOL0     H17808   8.325   4.036  10.727 -3.0052 -1.3320  0.3683
  135MOL0     H17809   8.272   3.854  10.889 -2.1564 -0.9413 -0.9885
  135MOL0     H17810   8.550   3.517  10.920  0.6451 -0.9932  0.8063
  135MOL0     H17811   8.430   3.435  10.813 -1.5220 -1.7441  1.6367
  135MOL0     H17812   8.479   3.344  11.063  0.3253  0.8729 -0.4996
  135MOL0     H17813   8.375   3.481  11.106  1.3126 -1.9160  2.2711
  135MOL0     H17814   8.314   3.267  10.895  1.5224  1.6728  0.0589
  135MOL0     H17815   8.201   3.398  10.931 -0.8408 -0.3924  0.6264
  135MOL0     H17816   8.119   3.199  11.052  0.5897 -1.1684 -0.7851
  135MOL0     H17817   8.279   3.185  11.139  2.5300  1.3806 -2.8681
  135MOL0     H17818   8.035   3.472  11.332 -0.3274  3.8727 -3.6204
  135MOL0     H17819   8.536   3.592  10.677  2.1892  1.1516  0.5938
  135MOL0     H17820   8.612   3.788  10.546 -1.5544  0.4926 -1.2530
  136MOL0     O17821   4.308  10.022   1.731  0.5100 -0.6189  0.2144
  136MOL0     C17822   4.299   9.993   1.850 -0.4383  0.0512  0.6995
  136MOL0     O17823   4.183   9.950   1.916  0.0856 -0.8270 -0.5917
  136MOL0     C17824   4.077   9.932   1.838  0.5446  0.8108 -0.7343
  136MOL0     C17825   4.030   9.806   1.796 -0.0047 -0.6011  0.0864
  136MOL0     C17826   3.906   9.792   1.729 -0.1861 -0.6051  0.2541
  136MOL0     C17827   3.830   9.907   1.701  0.3313  0.7267 -0.2254
  136MOL0     O17828   3.702   9.891   1.641 -0.1934 -0.5035 -0.4942
  136MOL0     C17829   3.625  10.007   1.600 -0.1901 -0.7095  0.5105
  136MOL0     C17830   3.505   9.969   1.525 -0.5673 -0.2173  0.1198
  136MOL0     C17831   3.534   9.909   1.389  0.8794 -0.5210 -0.0993
  136MOL0     C17832   3.391   9.881   1.319  0.3553 -0.2130  0.0044
  136MOL0     C17833   3.345   9.989   1.224  0.0300 -0.6010 -0.4014
  136MOL0     C17834   3.395   9.980   1.078 -0.3024  0.2956 -0.4858
  136MOL0     C17835   3.530  10.035   1.058  0.0555 -0.0689 -0.0764
  136MOL0     C17836   3.559  10.028   0.906 -0.8996  0.3680 -0.4028
  136MOL0     N17837   3.699  10.074   0.870 -0.1431  0.4836 -0.4877
  136MOL0     C17838   3.777  10.157   0.947  0.3992  0.0626 -0.2831
  136MOL0     C17839   3.898  10.165   0.876  0.8645 -0.1400 -0.2162
  136MOL0     C17840   4.016  10.253   0.915  0.2656  0.1109  0.2227
  136MOL0     C17841   4.129  10.159   0.957  0.2884  0.0477  0.0459
  136MOL0     C17842   4.233  10.229   1.049  0.3563  0.3284  0.2214
  136MOL0     C17843   4.184  10.265   1.189 -0.4840  0.1936 -0.7025
  136MOL0     O17844   4.291  10.318   1.271  0.2065 -0.2133 -0.2325
  136MOL0     C17845   4.404  10.256   1.329  1.0208  0.0305  0.5546
  136MOL0     C17846   4.504  10.336   1.372  0.2423  0.6514  0.7166
  136MOL0     C17847   4.614  10.280   1.443 -0.0579  0.1962  0.1922
  136MOL0     C17848   4.624  10.134   1.472  1.0304  0.2781  0.4079
  136MOL0     C17849   4.738  10.080   1.545  0.0264 -0.2766 -0.4711
  136MOL0     O17850   4.739   9.947   1.567 -0.2016  0.4162  0.3144
  136MOL0     C17851   4.833   9.892   1.645  0.9359 -0.3956  0.0338
  136MOL0     C17852   4.803   9.835   1.762  0.6415  0.0939  0.5556
  136MOL0     C17853   4.885   9.809   1.864 -0.3649 -0.7413 -0.1919
  136MOL0     C17854   5.017   9.828   1.842 -0.9649  0.2195 -0.5151
  136MOL0     O17855   5.113   9.794   1.945 -0.2370 -0.2513  0.8276
  136MOL0     C17856   5.239   9.864   1.935 -0.6124 -0.1251 -0.5727
  136MOL0     C17857   5.293   9.890   2.076  0.2335  0.3577  0.3571
  136MOL0     C17858   5.444   9.921   2.066 -0.0856 -0.3130  0.0118
  136MOL0     C17859   5.518   9.911   2.201 -0.1599 -0.7906 -0.2116
  136MOL0     C17860   5.501  10.039   2.283 -0.1251 -0.5934 -1.0811
  136MOL0     C17861   5.569  10.039   2.430  0.3309 -0.7424  1.3212
  136MOL0     C17862   5.554  10.164   2.520 -0.2449 -0.0551  0.1248
  136MOL0     C17863   5.641  10.142   2.648  0.1247  0.0241 -0.0819
  136MOL0    Cl17864   5.692  10.289   2.718  0.0373 -0.1081  0.1390
  136MOL0     C17865   5.062   9.867   1.715  0.9898  0.4119  0.5444
  136MOL0     C17866   4.965   9.898   1.617 -0.7035 -0.1373 -0.0745
  136MOL0     O17867   4.824  10.153   1.583 -0.0203 -0.6215 -0.7919
  136MOL0     C17868   4.516  10.054   1.416 -0.0085 -0.1777 -1.2383
  136MOL0     C17869   4.408  10.121   1.355 -0.4372 -0.1382 -0.4135
  136MOL0     N17870   3.897  10.066   0.783 -0.6761 -0.4713  0.3288
  136MOL0     N17871   3.782  10.012   0.781  0.7793 -0.0812  0.3048
  136MOL0     C17872   3.877  10.033   1.749  0.1462 -0.7528  0.0453
  136MOL0     C17873   3.996  10.044   1.821  0.4058  0.3540 -0.0815
  136MOL0     C17874   4.415  10.003   1.940 -0.1948 -0.6783 -0.1262
  136MOL0     C17875   4.407   9.978   2.083  0.3464  0.0196 -0.2646
  136MOL0     C17876   4.514  10.006   2.167  0.2386 -0.2745 -0.5850
  136MOL0     C17877   4.637  10.049   2.116  1.2183  0.2346  0.4644
  136MOL0     O17878   4.734  10.073   2.202  0.2866  0.3541 -1.3143
  136MOL0     C17879   4.845   9.989   2.187 -0.6191  1.0348 -0.0802
  136MOL0     C17880   4.963  10.040   2.270  0.7780 -0.1333  0.0116
  136MOL0     C17881   5.006  10.179   2.224 -0.9371  0.4893 -0.3360
  136MOL0     C17882   5.021  10.196   2.074  0.8309  0.2872 -0.2299
  136MOL0     C17883   5.072  10.326   2.037 -0.3214 -0.0753  0.0492
  136MOL0     C17884   5.133  10.430   2.013  0.3007  0.7527 -1.1390
  136MOL0     C17885   4.649  10.075   1.981 -1.0167  0.3895 -0.2762
  136MOL0     C17886   4.544  10.048   1.892  0.0126 -0.0398  0.7116
  136MOL0     H17887   4.086   9.716   1.816  1.4037  0.4438  1.0195
  136MOL0     H17888   3.871   9.690   1.724  0.0226 -0.8323  2.5127
  136MOL0     H17889   3.688  10.078   1.546  1.3094 -2.9585 -0.9037
  136MOL0     H17890   3.586  10.049   1.693  0.5570  0.1272  0.4626
  136MOL0     H17891   3.443  10.056   1.506 -0.8087 -0.6736 -1.3129
  136MOL0     H17892   3.439   9.902   1.581 -2.8156 -0.0574 -2.1648
  136MOL0     H17893   3.585   9.813   1.400  1.3069 -0.3130 -0.2554
  136MOL0     H17894   3.592   9.982   1.331 -2.3945  2.9593  0.5815
  136MOL0     H17895   3.412   9.785   1.270  1.2882 -1.5709  2.8035
  136MOL0     H17896   3.321   9.865   1.401 -0.0714  1.7799  0.0616
  136MOL0     H17897   3.368  10.084   1.271  1.7853 -0.6093 -1.1865
  136MOL0     H17898   3.237   9.968   1.222  0.1800 -1.5240  0.3190
  136MOL0     H17899   3.333  10.035   1.007  1.9610  1.3682 -1.7636
  136MOL0     H17900   3.404   9.873   1.054  2.6600  0.9239 -2.7424
  136MOL0     H17901   3.535  10.137   1.098  0.6693 -0.4449  0.8295
  136MOL0     H17902   3.606   9.992   1.124  0.3459  3.6682  2.3246
  136MOL0     H17903   3.484  10.098   0.868 -2.0999  0.0848  1.3320
  136MOL0     H17904   3.547   9.925   0.871 -1.5651  0.2546  0.1330
  136MOL0     H17905   3.743  10.195   1.042 -2.0273 -2.0986 -0.1845
  136MOL0     H17906   3.987  10.323   0.994 -1.1602 -1.1930  0.8927
  136MOL0     H17907   4.049  10.317   0.832  1.3175 -0.4978  0.1558
  136MOL0     H17908   4.170  10.118   0.864  1.0763  1.2071 -0.1508
  136MOL0     H17909   4.083  10.074   1.008 -0.3145 -0.5450 -1.4342
  136MOL0     H17910   4.320  10.163   1.055  1.7175  2.1206  1.2580
  136MOL0     H17911   4.268  10.314   0.990  0.4121  0.3886  0.3422
  136MOL0     H17912   4.155  10.172   1.240  0.6724 -1.0776 -2.2626
  136MOL0     H17913   4.113  10.348   1.186  2.6160  3.1142 -0.3847
  136MOL0     H17914   4.485  10.441   1.354  0.1138  0.7504  1.4052
  136MOL0     H17915   4.693  10.336   1.493  1.0350 -2.3781  1.5155
  136MOL0     H17916   4.701   9.822   1.798  0.1418  4.4260  1.2226
  136MOL0     H17917   4.846   9.766   1.956  1.1624 -0.8272  0.4429
  136MOL0     H17918   5.212   9.964   1.898 -1.2122 -0.0546  0.0377
  136MOL0     H17919   5.311   9.819   1.866  0.7672  2.7307 -1.1582
  136MOL0     H17920   5.274   9.797   2.129  1.3190 -1.0533 -1.6261
  136MOL0     H17921   5.241   9.973   2.125  0.4839  0.8011 -0.1142
  136MOL0     H17922   5.466  10.022   2.029  2.6929 -0.3191  1.3795
  136MOL0     H17923   5.496   9.866   1.988 -0.9283  0.9492 -1.4937
  136MOL0     H17924   5.476   9.827   2.256 -0.2453 -0.7375 -0.1966
  136MOL0     H17925   5.626   9.909   2.180 -0.0667  0.8001 -0.0286
  136MOL0     H17926   5.395  10.065   2.290 -0.4971 -1.7922 -2.0934
  136MOL0     H17927   5.534  10.127   2.227 -1.3705  0.5958 -0.0103
  136MOL0     H17928   5.677  10.035   2.413  0.1497  2.9522 -2.4621
  136MOL0     H17929   5.527   9.948   2.475 -3.1207  0.6711  1.2624
  136MOL0     H17930   5.589  10.248   2.459 -0.4283 -1.4674 -2.0430
  136MOL0     H17931   5.448  10.177   2.546 -0.0489  0.4944  0.6561
  136MOL0     H17932   5.729  10.080   2.629 -0.7737 -1.6154  0.8304
  136MOL0     H17933   5.584  10.087   2.724  0.7540  0.5677  0.7961
  136MOL0     H17934   5.165   9.865   1.681  1.0097 -2.6874  0.5360
  136MOL0     H17935   4.998   9.950   1.528 -0.3574  0.3743  0.3470
  136MOL0     H17936   4.499   9.948   1.432 -3.4103  0.4616  0.4729
  136MOL0     H17937   4.319  10.069   1.321 -1.1924  1.7839 -1.5139
  136MOL0     H17938   3.815  10.118   1.720  0.0378 -0.8350  0.0372
  136MOL0     H17939   4.018  10.142   1.862  0.5735  1.7072 -3.1468
  136MOL0     H17940   4.317   9.937   2.128 -0.3566  1.7334 -0.0307
  136MOL0     H17941   4.512   9.980   2.272  2.9956 -2.6817 -0.9965
  136MOL0     H17942   4.881   9.984   2.084 -1.8112  0.2380 -0.4767
  136MOL0     H17943   4.821   9.887   2.221  2.1327  0.7803  1.4026
  136MOL0     H17944   4.936  10.028   2.376 -4.2882 -1.5421 -1.1486
  136MOL0     H17945   5.052   9.981   2.249  0.8870  0.4335 -1.1448
  136MOL0     H17946   5.096  10.215   2.275 -0.2390  1.7840 -2.3979
  136MOL0     H17947   4.932  10.253   2.254 -1.3067  0.8867 -2.1396
  136MOL0     H17948   5.083  10.113   2.036  0.6747 -0.9163  2.0089
  136MOL0     H17949   4.920  10.191   2.033  1.0362  2.4703 -1.1035
  136MOL0     H17950   5.183  10.522   1.991  3.9974 -0.9056 -0.4319
  136MOL0     H17951   4.748  10.111   1.956  1.1325 -1.0650  4.7394
  136MOL0     H17952   4.563  10.074   1.789  2.0096 -2.9423  0.2236
  137MOL0     O17953   2.588   6.004   5.159 -0.2312  1.5328 -0.4845
  137MOL0     C17954   2.558   5.892   5.106  0.8092  0.0500 -0.5281
  137MOL0     O17955   2.460   5.802   5.151 -0.1879 -0.2592  0.0813
  137MOL0     C17956   2.404   5.828   5.271 -0.3513  1.2739 -0.2254
  137MOL0     C17957   2.439   5.749   5.379  0.4245 -1.1408  0.1261
  137MOL0     C17958   2.367   5.764   5.495 -0.8567  0.1641 -1.0671
  137MOL0     C17959   2.251   5.848   5.507 -0.5573 -0.3111  0.3999
  137MOL0     O17960   2.201   5.868   5.632  0.4744  0.3953 -0.2990
  137MOL0     C17961   2.068   5.919   5.648 -0.2650  0.3147  0.3172
  137MOL0     C17962   2.044   5.931   5.796  0.1582  0.1758  0.2764
  137MOL0     C17963   1.908   5.987   5.838 -0.3648  0.1125  0.6895
  137MOL0     C17964   1.887   5.961   5.997  0.6452 -0.5125  0.2546
  137MOL0     C17965   1.742   6.001   6.028 -0.2188 -0.2092  0.1080
  137MOL0     C17966   1.688   5.932   6.139 -0.2409  0.5395  0.6082
  137MOL0     C17967   1.544   5.954   6.151 -0.0392 -0.8499 -0.3766
  137MOL0     C17968   1.487   5.893   6.285 -0.6986 -0.3702  0.8652
  137MOL0     N17969   1.375   5.972   6.338  0.0516 -0.9419  0.0256
  137MOL0     C17970   1.358   6.006   6.465  0.5779  0.0928  0.6027
  137MOL0     C17971   1.254   6.097   6.458  0.4844  0.5539 -0.4037
  137MOL0     C17972   1.192   6.170   6.574  0.0966 -0.1161  0.4135
  137MOL0     C17973   1.077   6.088   6.641 -0.3600 -0.0911 -0.3230
  137MOL0     C17974   0.955   6.079   6.549  0.7762  0.5129 -0.1124
  137MOL0     C17975   0.839   6.007   6.618  0.6300 -0.4532 -0.3803
  137MOL0     O17976   0.788   6.077   6.741  0.7155  0.0014  0.1490
  137MOL0     C17977   0.686   6.173   6.735 -1.0581  0.4985  1.1358
  137MOL0     C17978   0.625   6.219   6.852  0.2234  0.0011  0.3292
  137MOL0     C17979   0.525   6.319   6.844  0.1289  0.0438  0.3456
  137MOL0     C17980   0.483   6.371   6.717 -0.0105  0.4368 -0.3418
  137MOL0     C17981   0.383   6.478   6.701 -0.1280  0.3802  0.3618
  137MOL0     O17982   0.278   6.473   6.778 -0.7581  0.0733 -0.3935
  137MOL0     C17983   0.161   6.545   6.742 -0.0140  0.1294  0.0308
  137MOL0     C17984   0.100   6.515   6.615 -0.4044 -0.0287 -0.8126
  137MOL0     C17985  -0.008   6.583   6.574  0.2468 -1.0217 -0.4756
  137MOL0     C17986  -0.069   6.686   6.654  0.1908  0.0131  0.1156
  137MOL0     O17987  -0.187   6.748   6.611  0.0992 -1.2454 -0.0277
  137MOL0     C17988  -0.200   6.884   6.659  0.9175 -0.2927 -0.5406
  137MOL0     C17989  -0.296   6.904   6.767  0.2139  0.0096 -0.7946
  137MOL0     C17990  -0.446   6.874   6.746  1.1501 -0.0032 -0.3782
  137MOL0     C17991  -0.536   6.970   6.666 -0.1363 -0.1198 -0.1136
  137MOL0     C17992  -0.686   6.929   6.676 -0.4398  0.1481  0.4258
  137MOL0     C17993  -0.781   7.042   6.635 -0.5744  0.0467 -0.3628
  137MOL0     C17994  -0.918   7.003   6.619  0.0746  0.1989  0.1103
  137MOL0     C17995  -0.983   7.117   6.544 -0.2147  0.4333  0.3610
  137MOL0    Cl17996  -1.155   7.076   6.549 -0.3675  0.1807 -0.1546
  137MOL0     C17997  -0.014   6.708   6.783 -0.5583 -0.1069  0.4390
  137MOL0     C17998   0.099   6.645   6.822 -1.1544  0.0367 -0.2715
  137MOL0     O17999   0.401   6.552   6.602 -0.0002 -0.3627 -0.4420
  137MOL0     C18000   0.537   6.314   6.603  0.2493  0.0275  0.6606
  137MOL0     C18001   0.636   6.216   6.610  0.1059  0.2470 -0.1616
  137MOL0     N18002   1.212   6.108   6.329 -0.3253  0.5887 -0.0677
  137MOL0     N18003   1.283   6.029   6.256  0.4898 -0.8396  0.6099
  137MOL0     C18004   2.213   5.917   5.399 -0.9838 -0.5247  0.6077
  137MOL0     C18005   2.289   5.907   5.277  0.7112 -0.8475  0.8392
  137MOL0     C18006   2.617   5.856   4.974 -0.1374  0.2635 -0.2029
  137MOL0     C18007   2.562   5.760   4.886  0.8485 -0.0098  0.6049
  137MOL0     C18008   2.618   5.724   4.765  0.2454  0.4279 -0.0171
  137MOL0     C18009   2.749   5.771   4.726  0.0733  0.7160 -0.6039
  137MOL0     O18010   2.820   5.735   4.616 -0.2278  0.1192 -0.1990
  137MOL0     C18011   2.750   5.654   4.519  0.2244  0.5506  0.0237
  137MOL0     C18012   2.643   5.744   4.449 -0.3492  0.4685  0.5643
  137MOL0     C18013   2.699   5.868   4.381  0.6469 -0.0312  0.8826
  137MOL0     C18014   2.594   5.943   4.301  0.1336 -0.9507  0.6841
  137MOL0     C18015   2.651   6.068   4.240  0.1704  0.8670 -0.0802
  137MOL0     C18016   2.694   6.173   4.196 -0.1418  0.2440  0.6987
  137MOL0     C18017   2.813   5.858   4.817  0.6501 -0.5858 -0.3328
  137MOL0     C18018   2.746   5.905   4.933 -0.1411  0.1053 -0.7696
  137MOL0     H18019   2.529   5.690   5.391  1.7519  0.6806 -0.4734
  137MOL0     H18020   2.390   5.704   5.583 -0.8256  1.1621 -0.3803
  137MOL0     H18021   2.000   5.859   5.587  2.3426 -0.1442 -2.3646
  137MOL0     H18022   2.071   6.018   5.600 -1.7546  0.7739  1.1035
  137MOL0     H18023   2.124   5.983   5.850  0.5152 -0.4389  0.3523
  137MOL0     H18024   2.058   5.828   5.830 -0.4488 -0.1674 -0.4944
  137MOL0     H18025   1.834   5.938   5.774  1.1816 -1.5450  0.0720
  137MOL0     H18026   1.907   6.095   5.825  2.6314  0.0526 -0.9901
  137MOL0     H18027   1.913   5.858   6.022 -1.2729 -1.3895 -1.0881
  137MOL0     H18028   1.945   6.029   6.060  0.4250 -1.7545  1.8700
  137MOL0     H18029   1.683   5.968   5.942 -2.6170  1.0319  1.1922
  137MOL0     H18030   1.736   6.110   6.027  2.0670 -0.0297 -0.2009
  137MOL0     H18031   1.741   5.963   6.230 -0.5937  0.8264  0.7192
  137MOL0     H18032   1.700   5.824   6.126 -0.7151  0.7321 -1.9207
  137MOL0     H18033   1.542   6.063   6.155  1.3219 -0.8200 -0.0957
  137MOL0     H18034   1.491   5.918   6.062 -0.3940 -0.5298 -0.2945
  137MOL0     H18035   1.567   5.897   6.360 -0.8611  0.1010  1.0160
  137MOL0     H18036   1.468   5.788   6.260 -2.3799  0.4482 -1.7105
  137MOL0     H18037   1.415   5.973   6.551  0.8640 -2.5081 -0.4950
  137MOL0     H18038   1.152   6.268   6.544 -1.1131 -0.6887  0.0780
  137MOL0     H18039   1.272   6.190   6.646  0.9758 -0.3299 -0.4693
  137MOL0     H18040   1.042   6.141   6.730 -0.4725 -0.2984 -0.2421
  137MOL0     H18041   1.118   5.994   6.678  0.7240  0.8024  0.8063
  137MOL0     H18042   0.919   6.179   6.526 -0.8927  0.4909  2.0348
  137MOL0     H18043   0.978   6.025   6.457  0.7520  1.4793 -0.6998
  137MOL0     H18044   0.860   5.904   6.649  0.2874 -1.1221 -2.2661
  137MOL0     H18045   0.759   5.992   6.545 -0.9064  1.8473  0.6874
  137MOL0     H18046   0.670   6.172   6.939  2.2744  0.0136 -0.6661
  137MOL0     H18047   0.483   6.358   6.936 -0.2593  0.2143  0.0987
  137MOL0     H18048   0.126   6.431   6.551 -5.1194 -1.2109 -1.5905
  137MOL0     H18049  -0.056   6.546   6.484 -2.8114  1.2752  0.0581
  137MOL0     H18050  -0.237   6.930   6.567 -3.0123 -1.1014  0.4522
  137MOL0     H18051  -0.106   6.933   6.684 -0.4861  2.4537 -0.1869
  137MOL0     H18052  -0.292   7.011   6.791  0.4937 -0.1550 -0.0984
  137MOL0     H18053  -0.269   6.848   6.857  2.8825 -0.9684 -2.1217
  137MOL0     H18054  -0.488   6.862   6.847 -1.7840 -0.2810 -1.5293
  137MOL0     H18055  -0.472   6.776   6.706  1.8816  0.0377 -0.9597
  137MOL0     H18056  -0.535   7.073   6.703 -2.5151  0.5934 -1.7696
  137MOL0     H18057  -0.514   6.972   6.559 -1.1798  0.6051 -0.3247
  137MOL0     H18058  -0.703   6.894   6.778 -0.8380 -0.3824  0.1893
  137MOL0     H18059  -0.704   6.850   6.602  1.1702 -0.9208  1.1266
  137MOL0     H18060  -0.737   7.086   6.546 -1.7963  1.9573 -0.0839
  137MOL0     H18061  -0.772   7.117   6.714  3.3951 -2.4405  1.9071
  137MOL0     H18062  -0.917   6.913   6.557 -1.9885 -0.0787  0.4196
  137MOL0     H18063  -0.969   6.974   6.711 -2.5092 -1.0087 -1.5807
  137MOL0     H18064  -0.940   7.120   6.443 -1.3860 -1.1697 -0.2360
  137MOL0     H18065  -0.977   7.214   6.593 -1.2250 -0.3154  2.0480
  137MOL0     H18066  -0.059   6.787   6.842 -1.6422  1.1026 -1.8758
  137MOL0     H18067   0.143   6.676   6.917  1.2709  3.3419 -2.2851
  137MOL0     H18068   0.510   6.360   6.508 -2.0030 -3.3810 -0.5306
  137MOL0     H18069   0.683   6.190   6.515 -0.5908 -0.1510 -0.3997
  137MOL0     H18070   2.132   5.989   5.402 -1.4277 -1.0395  2.4621
  137MOL0     H18071   2.256   5.970   5.195  4.1675  3.6400  2.4332
  137MOL0     H18072   2.466   5.723   4.921  0.6563  1.6197  1.9652
  137MOL0     H18073   2.566   5.645   4.713 -0.9908  0.6983  0.7665
  137MOL0     H18074   2.700   5.566   4.560 -0.9269  1.7191  1.2676
  137MOL0     H18075   2.818   5.617   4.442  0.3926  1.5517 -0.3325
  137MOL0     H18076   2.584   5.681   4.381  2.5076 -1.0428 -0.6707
  137MOL0     H18077   2.567   5.783   4.517  0.0714  4.7604 -1.1190
  137MOL0     H18078   2.787   5.849   4.320  1.0448  3.7000  0.0671
  137MOL0     H18079   2.721   5.938   4.463 -1.6055  2.2337 -0.3117
  137MOL0     H18080   2.545   5.884   4.224  0.7270 -0.6899  0.1002
  137MOL0     H18081   2.516   5.971   4.373 -4.2372 -2.1427 -3.1053
  137MOL0     H18082   2.737   6.262   4.155 -0.5848  0.9358  1.6953
  137MOL0     H18083   2.910   5.906   4.807 -0.0253  1.0792  0.7513
  137MOL0     H18084   2.793   5.975   5.001  0.3222 -1.8912  1.0971
  138MOL0     O18085   3.389   6.313   1.061  0.5344 -0.3539 -0.2715
  138MOL0     C18086   3.501   6.261   1.045  0.4290 -0.6204 -0.6631
  138MOL0     O18087   3.581   6.292   0.941  0.0548 -0.1051  0.2408
  138MOL0     C18088   3.516   6.311   0.822 -0.5885  0.9719 -0.3310
  138MOL0     C18089   3.477   6.437   0.783 -0.5394  1.1479  0.4030
  138MOL0     C18090   3.408   6.461   0.665 -0.5102 -0.0586 -0.7172
  138MOL0     C18091   3.367   6.355   0.588 -0.3069 -0.0622  0.6965
  138MOL0     O18092   3.277   6.381   0.489  0.1725  0.9216  0.1378
  138MOL0     C18093   3.161   6.458   0.520  0.0649  0.3323 -0.7798
  138MOL0     C18094   3.083   6.508   0.395  0.0395  0.1511 -0.3952
  138MOL0     C18095   2.950   6.586   0.431 -0.1415  0.6982 -0.1843
  138MOL0     C18096   2.851   6.488   0.499  0.2621  0.0323  1.4008
  138MOL0     C18097   2.725   6.550   0.568  0.0144  0.7280 -0.9032
  138MOL0     C18098   2.663   6.457   0.682 -1.1078 -0.1633  0.4733
  138MOL0     C18099   2.634   6.321   0.637  0.1298 -0.3172 -0.2605
  138MOL0     C18100   2.495   6.317   0.573  0.6778 -1.1294  0.5509
  138MOL0     N18101   2.469   6.176   0.558 -0.2267  0.0363  0.5095
  138MOL0     C18102   2.409   6.104   0.652  0.7629  0.0604 -0.1805
  138MOL0     C18103   2.401   5.980   0.599  0.1243  0.6006 -0.8457
  138MOL0     C18104   2.342   5.863   0.652  0.5609  0.4639 -0.5384
  138MOL0     C18105   2.195   5.844   0.628 -0.2648  1.0739 -0.3029
  138MOL0     C18106   2.154   5.836   0.477 -0.9175  0.1458 -0.3847
  138MOL0     C18107   2.011   5.779   0.466 -0.2829  0.0375 -0.6852
  138MOL0     O18108   1.991   5.735   0.335 -0.7216 -0.1512  0.4817
  138MOL0     C18109   1.861   5.722   0.291  0.2067  0.2112 -0.0416
  138MOL0     C18110   1.845   5.706   0.153  1.0725 -0.0641  0.2704
  138MOL0     C18111   1.719   5.692   0.096  0.5709 -0.3634  0.1759
  138MOL0     C18112   1.602   5.706   0.174  0.1316  1.2174 -0.3464
  138MOL0     C18113   1.479   5.667   0.114 -0.2884  0.0136 -0.6620
  138MOL0     O18114   1.455   5.708  -0.012  0.3241 -0.5290  0.1750
  138MOL0     C18115   1.339   5.683  -0.069 -0.8984  0.6362 -0.5831
  138MOL0     C18116   1.337   5.594  -0.171 -0.2493  0.0225 -0.1164
  138MOL0     C18117   1.215   5.548  -0.221 -0.2769  0.8658 -0.1541
  138MOL0     C18118   1.095   5.592  -0.166  0.4647  0.3767 -0.0543
  138MOL0     O18119   0.972   5.545  -0.220  0.6078 -0.2838  0.1023
  138MOL0     C18120   0.847   5.592  -0.158 -0.1971  0.9670 -0.1397
  138MOL0     C18121   0.815   5.520  -0.032  0.0962 -0.1706 -0.0122
  138MOL0     C18122   0.708   5.575   0.049 -0.2355 -0.7916 -0.5054
  138MOL0     C18123   0.568   5.556  -0.014  0.1400  0.0086 -0.0907
  138MOL0     C18124   0.454   5.586   0.088 -0.5968 -0.3528  0.7282
  138MOL0     C18125   0.429   5.474   0.193  0.2157  0.2969  1.0455
  138MOL0     C18126   0.310   5.507   0.283 -0.1795 -0.2754 -0.2810
  138MOL0     C18127   0.185   5.477   0.206  0.2155 -0.2498 -1.9742
  138MOL0    Cl18128   0.044   5.534   0.297  0.5941 -0.0161  0.2089
  138MOL0     C18129   1.104   5.686  -0.068 -0.5892 -0.0128 -0.0290
  138MOL0     C18130   1.220   5.732  -0.018 -0.4635  0.2438 -0.6128
  138MOL0     O18131   1.395   5.616   0.186  0.3681 -0.4655  0.6865
  138MOL0     C18132   1.621   5.733   0.313  1.3057  0.5897 -0.2273
  138MOL0     C18133   1.750   5.730   0.373  0.6213  0.0688  0.0108
  138MOL0     N18134   2.443   5.981   0.464 -0.0657 -0.3175 -0.0536
  138MOL0     N18135   2.481   6.099   0.438 -0.3774 -0.9947  0.0333
  138MOL0     C18136   3.400   6.228   0.624 -0.8002  0.7392 -0.5572
  138MOL0     C18137   3.480   6.202   0.738 -0.6680  0.9713  0.6682
  138MOL0     C18138   3.563   6.185   1.158  0.5951 -0.0557 -0.7873
  138MOL0     C18139   3.535   6.204   1.297  0.2464  1.0828  0.4363
  138MOL0     C18140   3.591   6.127   1.398 -0.5126  0.5839  0.8203
  138MOL0     C18141   3.683   6.025   1.364 -0.1737 -0.0210  0.1769
  138MOL0     O18142   3.737   5.936   1.455  0.6021  0.6938  0.6666
  138MOL0     C18143   3.699   5.942   1.592 -0.4614  0.2259  0.6387
  138MOL0     C18144   3.744   5.805   1.653  0.5000  0.3099 -0.8815
  138MOL0     C18145   3.892   5.765   1.635  0.4249 -0.4125 -0.1985
  138MOL0     C18146   3.929   5.619   1.631 -0.5377  0.3017  0.5969
  138MOL0     C18147   3.860   5.546   1.735 -1.2456  0.0940 -0.0604
  138MOL0     C18148   3.794   5.487   1.818 -0.0886 -0.4185 -0.3246
  138MOL0     C18149   3.719   6.012   1.222 -0.4894 -0.4635  0.0107
  138MOL0     C18150   3.661   6.096   1.128  0.1991 -0.7848 -0.2523
  138MOL0     H18151   3.524   6.517   0.839  0.4690 -0.3667  1.8064
  138MOL0     H18152   3.391   6.562   0.631 -1.9805 -0.4802 -1.2806
  138MOL0     H18153   3.191   6.543   0.581  0.7073  0.8057 -1.7186
  138MOL0     H18154   3.102   6.395   0.586  2.9623 -0.5597  1.1239
  138MOL0     H18155   3.064   6.427   0.323 -3.0855  0.9177 -0.5897
  138MOL0     H18156   3.144   6.582   0.342 -0.1010  0.0581 -0.6892
  138MOL0     H18157   2.901   6.628   0.343 -2.4802  1.8718  1.5806
  138MOL0     H18158   2.967   6.669   0.500 -2.3407  0.9905  0.0661
  138MOL0     H18159   2.813   6.424   0.418  0.1156  2.1587 -0.3293
  138MOL0     H18160   2.891   6.419   0.573  0.5736 -0.4417  0.8003
  138MOL0     H18161   2.649   6.593   0.503  1.1382  3.7904 -0.3497
  138MOL0     H18162   2.759   6.636   0.626  0.5208 -0.9150  1.4018
  138MOL0     H18163   2.574   6.502   0.727 -0.5977  2.7765 -1.1722
  138MOL0     H18164   2.743   6.451   0.757  0.7071 -3.5396 -1.5038
  138MOL0     H18165   2.711   6.276   0.574 -2.3260 -3.9951 -0.9601
  138MOL0     H18166   2.642   6.264   0.731  2.1508 -2.0208 -1.3669
  138MOL0     H18167   2.506   6.368   0.478  0.7203  0.2145  1.2555
  138MOL0     H18168   2.416   6.366   0.631 -1.8251  0.0942 -3.4828
  138MOL0     H18169   2.364   6.138   0.744  1.4001  1.1330 -0.2558
  138MOL0     H18170   2.361   5.874   0.759 -2.9440  0.7708  0.1915
  138MOL0     H18171   2.385   5.767   0.620 -0.2467 -0.2875  0.5887
  138MOL0     H18172   2.144   5.932   0.671 -0.2788  0.3921  1.1582
  138MOL0     H18173   2.162   5.751   0.676  1.6597  0.1688 -0.6382
  138MOL0     H18174   2.169   5.927   0.418 -1.8501  0.0528 -0.7767
  138MOL0     H18175   2.217   5.760   0.429 -1.0267 -0.6010  0.6160
  138MOL0     H18176   1.944   5.859   0.498 -1.5591 -1.6141  1.0102
  138MOL0     H18177   1.994   5.693   0.533 -0.7849 -0.0390 -0.9045
  138MOL0     H18178   1.931   5.710   0.087 -0.6068 -0.3843 -2.0465
  138MOL0     H18179   1.721   5.668  -0.010  2.9573 -0.2851  0.1353
  138MOL0     H18180   1.429   5.560  -0.217 -0.4716  0.6249 -1.0379
  138MOL0     H18181   1.211   5.468  -0.294  2.8111 -0.8994  1.4295
  138MOL0     H18182   0.779   5.560  -0.237  0.2477 -2.0976  0.5776
  138MOL0     H18183   0.843   5.700  -0.147 -0.8079  0.7600  2.3342
  138MOL0     H18184   0.904   5.523   0.031  1.2338 -0.8173 -1.5247
  138MOL0     H18185   0.788   5.415  -0.044  4.3623 -1.5262  0.5941
  138MOL0     H18186   0.719   5.684   0.061 -2.1848 -0.7551  1.8780
  138MOL0     H18187   0.709   5.537   0.152  1.3524 -1.6876 -0.8216
  138MOL0     H18188   0.546   5.591  -0.116 -1.1922 -1.2535 -0.2791
  138MOL0     H18189   0.566   5.447  -0.025 -0.4664  0.1680 -1.9517
  138MOL0     H18190   0.369   5.619   0.029  0.3883  2.4832  0.7360
  138MOL0     H18191   0.479   5.674   0.149 -3.0589  0.7074  0.3012
  138MOL0     H18192   0.519   5.460   0.254  1.0014 -1.8058 -0.4975
  138MOL0     H18193   0.420   5.380   0.138  1.8867  1.2771 -1.0112
  138MOL0     H18194   0.297   5.435   0.365 -1.2834  0.9682  0.6763
  138MOL0     H18195   0.310   5.612   0.315 -1.6264  0.0480 -1.2773
  138MOL0     H18196   0.167   5.371   0.188 -0.4534 -0.4545 -0.2570
  138MOL0     H18197   0.188   5.538   0.115 -1.5227  2.5049 -0.3097
  138MOL0     H18198   1.017   5.731  -0.023  0.2139  0.1016  1.4591
  138MOL0     H18199   1.213   5.813   0.053 -1.6362 -1.0256  0.7947
  138MOL0     H18200   1.543   5.729   0.389 -0.8067 -0.0701 -2.3030
  138MOL0     H18201   1.749   5.731   0.482  1.3116  1.2525  0.0215
  138MOL0     H18202   3.357   6.157   0.553  0.7111  2.0359 -2.9277
  138MOL0     H18203   3.510   6.100   0.760  0.5358  0.4097 -2.9099
  138MOL0     H18204   3.453   6.270   1.326 -0.7631  0.3370 -0.6131
  138MOL0     H18205   3.568   6.160   1.499 -1.6813  0.5291  0.5900
  138MOL0     H18206   3.592   5.960   1.602 -0.3051  1.6167  0.0491
  138MOL0     H18207   3.753   6.025   1.637 -1.7304  0.6248  1.4572
  138MOL0     H18208   3.720   5.800   1.759  0.1029  0.5364 -0.9596
  138MOL0     H18209   3.679   5.736   1.599 -2.5544  2.5857 -0.3832
  138MOL0     H18210   3.962   5.807   1.708  1.2255  0.6344 -1.5050
  138MOL0     H18211   3.923   5.823   1.547 -0.1043  0.6399  0.2824
  138MOL0     H18212   3.901   5.578   1.533  0.5274  2.4128 -0.6574
  138MOL0     H18213   4.038   5.606   1.633 -0.8395 -3.0399  1.8113
  138MOL0     H18214   3.745   5.423   1.888  2.0761 -3.6824 -1.5552
  138MOL0     H18215   3.777   5.925   1.190 -0.7102 -0.6541  0.1249
  138MOL0     H18216   3.671   6.062   1.025  0.5872  3.2392 -1.7293
  139MOL0     O18217   6.948  11.189   7.492  0.1170  0.1241  0.9049
  139MOL0     C18218   6.972  11.274   7.579  0.5157 -0.7026  0.3946
  139MOL0     O18219   6.882  11.314   7.678  0.3805 -0.0714  0.4428
  139MOL0     C18220   6.755  11.258   7.673  0.3923 -0.6612  0.1306
  139MOL0     C18221   6.657  11.298   7.583 -0.0239  0.3643 -0.1168
  139MOL0     C18222   6.523  11.251   7.591  0.2269  0.3715 -0.8992
  139MOL0     C18223   6.481  11.176   7.701  0.3286  0.1069  0.2428
  139MOL0     O18224   6.352  11.126   7.708 -0.5474  0.1884  0.8365
  139MOL0     C18225   6.293  11.191   7.816  0.1137 -0.2546 -0.1210
  139MOL0     C18226   6.140  11.206   7.796  0.2969  0.4700 -0.5473
  139MOL0     C18227   6.079  11.075   7.832  0.2319 -0.2675  0.3552
  139MOL0     C18228   5.932  11.089   7.785 -0.4679 -0.2582 -0.4477
  139MOL0     C18229   5.872  10.948   7.815  0.4906  0.4211  0.1463
  139MOL0     C18230   5.715  10.950   7.816 -0.1601  0.2180  0.4985
  139MOL0     C18231   5.658  10.818   7.876  0.3512  0.0516 -0.3298
  139MOL0     C18232   5.514  10.817   7.903  0.1392  0.0087  0.5042
  139MOL0     N18233   5.433  10.831   7.781 -0.1996  0.3618  0.2960
  139MOL0     C18234   5.399  10.735   7.698 -0.5715  0.2862 -0.3052
  139MOL0     C18235   5.291  10.785   7.630  0.3896  0.1694 -0.5261
  139MOL0     C18236   5.210  10.699   7.533 -0.2193  0.3855  0.7745
  139MOL0     C18237   5.148  10.578   7.599  0.0689 -1.2683 -0.3790
  139MOL0     C18238   5.061  10.616   7.726  0.3341 -0.6543 -1.2276
  139MOL0     C18239   4.956  10.718   7.689 -0.4478 -0.4240  0.3194
  139MOL0     O18240   4.839  10.725   7.771 -1.4599 -0.0130  0.4430
  139MOL0     C18241   4.741  10.624   7.767  0.7407 -0.4228 -0.2638
  139MOL0     C18242   4.736  10.504   7.840 -0.3100 -0.6949  0.2571
  139MOL0     C18243   4.625  10.419   7.819  0.2902  0.0438 -0.0812
  139MOL0     C18244   4.524  10.445   7.724 -0.5960 -0.5791  1.2600
  139MOL0     C18245   4.407  10.353   7.699 -0.0822 -0.0618 -0.9305
  139MOL0     O18246   4.333  10.369   7.582  0.9624  0.8178  0.1183
  139MOL0     C18247   4.249  10.270   7.544  0.2970  1.0393  0.0682
  139MOL0     C18248   4.116  10.302   7.524 -0.3556  0.2958  0.0895
  139MOL0     C18249   4.021  10.207   7.487 -0.3299 -0.7609 -0.0451
  139MOL0     C18250   4.057  10.075   7.457 -0.6840  0.2624  0.9266
  139MOL0     O18251   3.954   9.988   7.422 -0.1807  0.7275 -0.2571
  139MOL0     C18252   3.982   9.850   7.391  0.1425  0.9444 -0.2193
  139MOL0     C18253   3.851   9.776   7.363  0.5587  0.1265  0.4235
  139MOL0     C18254   3.769   9.808   7.241 -0.9422 -0.2820 -0.7896
  139MOL0     C18255   3.637   9.739   7.251 -0.5157 -0.1298  0.4041
  139MOL0     C18256   3.526   9.798   7.162  0.1421 -0.1347  0.5971
  139MOL0     C18257   3.391   9.737   7.182  0.3941 -0.1520  0.3038
  139MOL0     C18258   3.379   9.596   7.139 -0.9046  0.2418 -0.5090
  139MOL0     C18259   3.238   9.552   7.156 -0.8727  0.7919  0.0231
  139MOL0    Cl18260   3.145   9.622   7.025  0.0934  0.2474 -0.3806
  139MOL0     C18261   4.191  10.039   7.476  0.4156 -0.0825  0.8675
  139MOL0     C18262   4.290  10.134   7.518  0.4157  0.1905  0.5322
  139MOL0     O18263   4.395  10.261   7.781 -0.0650 -0.6670  0.3111
  139MOL0     C18264   4.540  10.561   7.638 -0.3031  1.0880 -0.2792
  139MOL0     C18265   4.640  10.654   7.664 -0.1011 -0.4998  0.3699
  139MOL0     N18266   5.266  10.913   7.660 -0.1372  0.0575  0.5352
  139MOL0     N18267   5.345  10.938   7.760 -0.1008 -0.1778 -0.0260
  139MOL0     C18268   6.575  11.140   7.798 -0.5986 -0.1456 -0.7461
  139MOL0     C18269   6.709  11.176   7.780  1.0127 -0.7197 -0.0849
  139MOL0     C18270   7.102  11.331   7.583  0.9127 -0.6871  0.5847
  139MOL0     C18271   7.126  11.438   7.660 -0.3670  0.0346  0.3637
  139MOL0     C18272   7.254  11.488   7.671  0.2902  0.1456  0.7728
  139MOL0     C18273   7.353  11.446   7.584  0.2371  0.7290  0.6543
  139MOL0     O18274   7.468  11.514   7.598 -0.2679  0.0419 -0.7428
  139MOL0     C18275   7.579  11.489   7.504 -0.6108  1.0438  0.6270
  139MOL0     C18276   7.675  11.608   7.495 -0.2837 -0.1332  0.2095
  139MOL0     C18277   7.594  11.734   7.443 -0.4891 -0.0247  0.5302
  139MOL0     C18278   7.690  11.850   7.465  0.1584 -1.3107  0.2667
  139MOL0     C18279   7.601  11.965   7.425  0.6469 -0.5782  0.3260
  139MOL0     C18280   7.532  12.061   7.404 -0.3257  0.6263 -0.7347
  139MOL0     C18281   7.330  11.338   7.485  0.7523 -0.0364 -1.2622
  139MOL0     C18282   7.202  11.276   7.500  0.2737  0.1839  0.5896
  139MOL0     H18283   6.687  11.373   7.511  3.4079  2.3225  3.0094
  139MOL0     H18284   6.444  11.297   7.532  0.8461  1.0671 -1.2086
  139MOL0     H18285   6.336  11.291   7.828 -0.7162  0.3048 -1.5515
  139MOL0     H18286   6.316  11.136   7.908  1.6880  3.0410  1.6395
  139MOL0     H18287   6.119  11.243   7.695 -1.0993  1.4389  0.0691
  139MOL0     H18288   6.105  11.289   7.858  0.3360 -2.1156  3.2490
  139MOL0     H18289   6.092  11.045   7.937  0.5467 -0.3600  0.2923
  139MOL0     H18290   6.120  10.990   7.776  1.4092  1.3067 -1.2839
  139MOL0     H18291   5.890  11.162   7.854  0.0049  0.0466 -0.4761
  139MOL0     H18292   5.923  11.123   7.681 -4.8026 -1.3970 -0.6229
  139MOL0     H18293   5.903  10.919   7.915 -0.0000  0.3867  0.2915
  139MOL0     H18294   5.903  10.874   7.740 -1.2701 -0.0721 -0.1555
  139MOL0     H18295   5.676  10.978   7.718 -1.7844  0.9349  1.3116
  139MOL0     H18296   5.683  11.030   7.884  0.9581 -0.6671  2.1339
  139MOL0     H18297   5.687  10.739   7.805  3.8526  2.2086 -1.5466
  139MOL0     H18298   5.721  10.796   7.962  0.4666  1.3003 -0.0842
  139MOL0     H18299   5.492  10.894   7.978 -0.9110 -0.2601  0.4929
  139MOL0     H18300   5.494  10.720   7.950  1.9686 -0.8631 -0.4387
  139MOL0     H18301   5.438  10.634   7.702 -0.5248  0.3103  3.5936
  139MOL0     H18302   5.265  10.679   7.440  2.5185  1.1690  2.1354
  139MOL0     H18303   5.126  10.760   7.500 -1.7685 -2.4065 -0.8313
  139MOL0     H18304   5.237  10.520   7.625  1.2178 -0.1131 -1.5611
  139MOL0     H18305   5.085  10.522   7.528  0.5968 -1.7692 -0.4578
  139MOL0     H18306   5.024  10.515   7.748  4.1721 -2.1007 -0.6799
  139MOL0     H18307   5.127  10.647   7.807 -2.8693  0.7646  1.0597
  139MOL0     H18308   4.928  10.695   7.585  2.5139 -3.3373 -0.0340
  139MOL0     H18309   5.003  10.816   7.696 -0.5076 -0.4532  1.1743
  139MOL0     H18310   4.816  10.488   7.912 -1.0622  2.8338  2.1024
  139MOL0     H18311   4.609  10.331   7.882 -0.1202 -0.1718 -0.4805
  139MOL0     H18312   4.073  10.394   7.562 -1.7975 -0.5551  0.6117
  139MOL0     H18313   3.918  10.236   7.472  0.0251  0.2747 -0.5406
  139MOL0     H18314   4.039   9.799   7.469  0.7113  1.4416 -0.3021
  139MOL0     H18315   4.045   9.852   7.302  0.2687  0.9973 -0.1292
  139MOL0     H18316   3.793   9.791   7.454  1.6519 -1.7217  1.5095
  139MOL0     H18317   3.871   9.668   7.369 -1.1103 -0.1359  2.4213
  139MOL0     H18318   3.825   9.778   7.152  1.5018  1.9224 -0.1218
  139MOL0     H18319   3.750   9.916   7.240  0.0321 -0.0994 -1.4023
  139MOL0     H18320   3.654   9.633   7.228 -1.2613 -0.1235 -0.1972
  139MOL0     H18321   3.593   9.748   7.351 -4.2013 -1.2457 -0.9491
  139MOL0     H18322   3.551   9.786   7.056  0.8007  3.3109  0.2399
  139MOL0     H18323   3.527   9.907   7.175 -1.4073  0.4619 -3.0646
  139MOL0     H18324   3.322   9.798   7.123  0.4333 -0.9357 -0.5583
  139MOL0     H18325   3.358   9.745   7.286  3.5153 -1.4891  1.5439
  139MOL0     H18326   3.400   9.583   7.033 -0.1250  0.1555 -0.3458
  139MOL0     H18327   3.448   9.539   7.202  1.0260  2.3790 -0.5521
  139MOL0     H18328   3.190   9.572   7.252 -0.4269  1.2598  0.1513
  139MOL0     H18329   3.240   9.444   7.139 -0.6632  0.4872  1.8654
  139MOL0     H18330   4.222   9.937   7.456  0.1074 -0.2064  1.0208
  139MOL0     H18331   4.397  10.123   7.529  0.7119  1.7890 -0.4620
  139MOL0     H18332   4.454  10.567   7.572 -1.6387 -0.5463  1.2160
  139MOL0     H18333   4.655  10.741   7.602 -0.3360  1.3917  2.8436
  139MOL0     H18334   6.537  11.076   7.876  2.4691 -1.5385 -0.2527
  139MOL0     H18335   6.775  11.139   7.858  1.5474 -4.6917 -2.1598
  139MOL0     H18336   7.043  11.487   7.710 -1.9768 -1.8321 -0.3223
  139MOL0     H18337   7.266  11.573   7.737 -0.0950  1.3659 -0.6786
  139MOL0     H18338   7.541  11.473   7.402 -0.3535  0.7331  0.5782
  139MOL0     H18339   7.637  11.400   7.529  0.5362  1.4372 -0.5249
  139MOL0     H18340   7.713  11.627   7.596  0.4905 -3.3633  0.6237
  139MOL0     H18341   7.758  11.582   7.429  1.7123 -1.6351  3.0752
  139MOL0     H18342   7.502  11.734   7.502 -2.9047 -1.9221 -2.9037
  139MOL0     H18343   7.571  11.723   7.337 -1.5902 -0.0389  0.7626
  139MOL0     H18344   7.719  11.859   7.571 -2.8877  1.1148  1.0363
  139MOL0     H18345   7.785  11.844   7.410 -0.1390  1.0601 -0.6264
  139MOL0     H18346   7.463  12.141   7.383 -1.7060 -0.3104  0.0966
  139MOL0     H18347   7.401  11.299   7.412 -0.4681 -1.2821 -1.8540
  139MOL0     H18348   7.194  11.182   7.447 -0.5013 -0.7527  2.3059
  140MOL0     O18349   1.866   0.530   8.823 -0.1256 -1.0104 -0.9118
  140MOL0     C18350   1.947   0.619   8.808  0.5669 -0.5506  0.1378
  140MOL0     O18351   1.922   0.740   8.741  0.0036 -0.1957  0.0034
  140MOL0     C18352   1.800   0.778   8.693  0.3545  0.1453  0.3058
  140MOL0     C18353   1.789   0.914   8.661 -0.4974 -0.4750 -0.6566
  140MOL0     C18354   1.667   0.966   8.613 -0.2272 -0.7346  0.4616
  140MOL0     C18355   1.549   0.893   8.592 -0.0686  0.3463 -0.0502
  140MOL0     O18356   1.426   0.932   8.550  0.7820  0.4231 -0.2773
  140MOL0     C18357   1.375   1.050   8.605  0.9112  0.4499 -0.9607
  140MOL0     C18358   1.221   1.046   8.578 -0.3813 -0.3420 -0.9110
  140MOL0     C18359   1.184   1.123   8.451  0.1733  0.7045 -0.0331
  140MOL0     C18360   1.036   1.162   8.444  0.0346  0.8865 -0.6567
  140MOL0     C18361   0.942   1.034   8.430  0.0337 -0.5467 -0.6898
  140MOL0     C18362   0.792   1.067   8.466 -0.3430 -0.3876  0.2575
  140MOL0     C18363   0.708   0.942   8.483 -0.0541  0.0419 -0.2955
  140MOL0     C18364   0.732   0.884   8.626  0.5434  0.9846 -0.4169
  140MOL0     N18365   0.652   0.754   8.644  0.3043 -0.4896  0.6429
  140MOL0     C18366   0.638   0.709   8.771 -0.2083  0.8306  0.3456
  140MOL0     C18367   0.605   0.578   8.759  0.4871 -0.4257  0.0948
  140MOL0     C18368   0.562   0.493   8.875  0.0117 -0.7852 -0.1498
  140MOL0     C18369   0.427   0.522   8.935  0.2529  0.0319 -0.2495
  140MOL0     C18370   0.317   0.498   8.833  0.4263 -0.0798 -0.2153
  140MOL0     C18371   0.179   0.473   8.911 -0.6668 -0.6747 -0.0793
  140MOL0     O18372   0.081   0.495   8.802 -0.5815  0.1497 -0.0752
  140MOL0     C18373  -0.048   0.475   8.848 -0.0341  0.7272  0.1705
  140MOL0     C18374  -0.101   0.351   8.887  0.0520 -0.0172  1.3882
  140MOL0     C18375  -0.237   0.359   8.929  1.2440  0.3042  0.2668
  140MOL0     C18376  -0.314   0.475   8.942 -0.4416 -0.7040 -0.2077
  140MOL0     C18377  -0.450   0.461   8.992  0.4578  0.2272 -1.0440
  140MOL0     O18378  -0.532   0.567   8.969 -0.3893  0.2773  0.3596
  140MOL0     C18379  -0.667   0.560   8.960 -0.4233  0.9342 -0.3325
  140MOL0     C18380  -0.728   0.680   8.971  0.8320 -0.9416 -0.4204
  140MOL0     C18381  -0.868   0.683   8.968 -0.1324 -0.4728  0.2035
  140MOL0     C18382  -0.947   0.574   8.935 -0.7532 -0.5777 -0.7312
  140MOL0     O18383  -1.079   0.577   8.906 -0.1678 -1.1249  0.1342
  140MOL0     C18384  -1.132   0.707   8.887  0.5437  0.7837 -0.3321
  140MOL0     C18385  -1.275   0.692   8.835  0.2901 -0.6781  0.0435
  140MOL0     C18386  -1.342   0.829   8.804  0.4471 -0.7115  0.2038
  140MOL0     C18387  -1.382   0.907   8.937  0.7129 -0.3347  0.3581
  140MOL0     C18388  -1.499   1.006   8.905  0.0368 -0.4354  0.2759
  140MOL0     C18389  -1.460   1.102   8.795 -0.7520  0.3092  0.2381
  140MOL0     C18390  -1.559   1.216   8.778  0.0293  0.9145  0.3694
  140MOL0     C18391  -1.700   1.182   8.716 -0.5906 -0.0686  0.3376
  140MOL0    Cl18392  -1.674   1.091   8.562 -0.3901  0.0180  0.2191
  140MOL0     C18393  -0.889   0.447   8.924  0.1785  0.1797  0.3983
  140MOL0     C18394  -0.747   0.442   8.926  0.0804  0.7765 -0.3670
  140MOL0     O18395  -0.483   0.361   9.054  0.2872 -0.1275 -0.3848
  140MOL0     C18396  -0.248   0.594   8.909  0.5121 -0.3493 -1.0574
  140MOL0     C18397  -0.121   0.592   8.848  0.3719  0.1540 -0.0897
  140MOL0     N18398   0.575   0.549   8.628  0.3925  0.6173  0.2035
  140MOL0     N18399   0.599   0.656   8.558  0.1746  0.7213 -0.6194
  140MOL0     C18400   1.562   0.755   8.628 -0.4743 -1.0581 -0.4756
  140MOL0     C18401   1.681   0.704   8.677 -0.7087 -0.2674 -0.0663
  140MOL0     C18402   2.085   0.592   8.871  0.6007 -0.8657 -0.1718
  140MOL0     C18403   2.178   0.695   8.855 -0.0235 -0.3373  0.7355
  140MOL0     C18404   2.306   0.676   8.904 -0.4645 -0.0080 -0.6536
  140MOL0     C18405   2.337   0.576   8.991 -0.9642  0.0382 -0.8278
  140MOL0     O18406   2.462   0.588   9.047  0.3255 -0.4833  0.4797
  140MOL0     C18407   2.540   0.471   9.052  0.3793  0.8363 -0.3975
  140MOL0     C18408   2.688   0.497   9.050  0.7298  0.7157  1.3407
  140MOL0     C18409   2.751   0.583   9.164  0.3774 -0.4368  0.7425
  140MOL0     C18410   2.764   0.514   9.298 -0.1292  0.0612 -0.6500
  140MOL0     C18411   2.868   0.579   9.381  1.1329  0.0413  0.0405
  140MOL0     C18412   2.945   0.627   9.461 -0.0660 -0.3732 -0.8853
  140MOL0     C18413   2.248   0.469   9.004  0.8349 -0.5938  0.2363
  140MOL0     C18414   2.123   0.478   8.944  0.3926 -0.9411 -0.1629
  140MOL0     H18415   1.870   0.983   8.683  0.1141 -2.1194  2.8991
  140MOL0     H18416   1.676   1.073   8.597 -1.8063 -1.0359 -3.7415
  140MOL0     H18417   1.419   1.136   8.553  0.6202  2.0997  1.3812
  140MOL0     H18418   1.394   1.053   8.713 -1.6510 -6.2741  0.2103
  140MOL0     H18419   1.182   1.092   8.669  1.7080  2.9780 -1.5092
  140MOL0     H18420   1.190   0.941   8.581  1.1186 -0.8329  2.3180
  140MOL0     H18421   1.207   1.059   8.366  4.2286  0.3663  1.0765
  140MOL0     H18422   1.258   1.202   8.433  1.0744 -0.2542 -0.6029
  140MOL0     H18423   1.009   1.225   8.529  1.5293 -0.7101  1.0915
  140MOL0     H18424   1.035   1.207   8.345  0.1703 -1.4139 -1.7716
  140MOL0     H18425   0.978   0.955   8.496 -1.6995  0.2780  1.3295
  140MOL0     H18426   0.932   0.993   8.329 -3.4022 -0.4797 -0.4951
  140MOL0     H18427   0.745   1.121   8.384  0.0187 -0.0616  0.2641
  140MOL0     H18428   0.777   1.132   8.553  0.8729  2.1457 -1.3030
  140MOL0     H18429   0.601   0.960   8.465 -0.0697  1.0693  0.7566
  140MOL0     H18430   0.736   0.861   8.415 -1.1522 -0.3597 -0.2867
  140MOL0     H18431   0.683   0.943   8.704  0.3527 -0.1739  0.3532
  140MOL0     H18432   0.836   0.871   8.654  0.0289  0.8969  1.5578
  140MOL0     H18433   0.654   0.767   8.862  1.2327  0.0169  0.6404
  140MOL0     H18434   0.647   0.503   8.943 -0.6226  0.1096  0.5300
  140MOL0     H18435   0.566   0.386   8.854  1.5911 -0.8925  0.5692
  140MOL0     H18436   0.417   0.625   8.971  0.9301  0.1935 -0.5038
  140MOL0     H18437   0.421   0.460   9.025  7.0029  1.7357  1.9885
  140MOL0     H18438   0.315   0.586   8.767 -2.6439  0.9426  1.0687
  140MOL0     H18439   0.335   0.411   8.768  1.5007 -0.9712  1.2166
  140MOL0     H18440   0.178   0.549   8.989 -0.7625 -2.3506  1.6176
  140MOL0     H18441   0.179   0.370   8.947 -0.8951 -0.5693  0.2251
  140MOL0     H18442  -0.034   0.266   8.891  2.7548  1.7263 -1.5292
  140MOL0     H18443  -0.283   0.266   8.961  0.3354  0.5669 -0.2497
  140MOL0     H18444  -0.682   0.774   9.000 -1.1700 -0.1175  0.2768
  140MOL0     H18445  -0.904   0.784   8.984  0.1448 -0.9088  5.5448
  140MOL0     H18446  -1.072   0.767   8.819  3.6323 -1.3195  0.3501
  140MOL0     H18447  -1.135   0.765   8.980  0.0710  0.2469 -0.0015
  140MOL0     H18448  -1.337   0.630   8.901  3.9057 -2.7565  1.8101
  140MOL0     H18449  -1.264   0.632   8.744 -2.4157 -1.1148 -0.0736
  140MOL0     H18450  -1.422   0.807   8.732  0.0172  0.2946  0.3606
  140MOL0     H18451  -1.275   0.897   8.751  0.3692  1.3502  2.5209
  140MOL0     H18452  -1.430   0.831   9.000  1.1239 -2.2048 -1.4622
  140MOL0     H18453  -1.299   0.947   8.996 -1.9576  1.7370  2.9865
  140MOL0     H18454  -1.534   1.048   9.000  0.5067 -0.0639  0.2943
  140MOL0     H18455  -1.583   0.945   8.873 -0.7091 -0.6976  2.5668
  140MOL0     H18456  -1.431   1.051   8.702  1.5345  0.7599  0.6422
  140MOL0     H18457  -1.364   1.141   8.828 -0.2799  1.1825 -1.9623
  140MOL0     H18458  -1.558   1.263   8.876  0.7730 -0.9004  1.2786
  140MOL0     H18459  -1.514   1.281   8.702  0.2209  1.0651  0.6135
  140MOL0     H18460  -1.765   1.270   8.720 -0.9098 -0.1165 -2.2124
  140MOL0     H18461  -1.749   1.116   8.787 -1.9266  0.1861 -0.3204
  140MOL0     H18462  -0.959   0.365   8.912 -0.2346  0.2068  2.3244
  140MOL0     H18463  -0.708   0.342   8.911  0.9325  1.1142 -0.4996
  140MOL0     H18464  -0.296   0.690   8.923  1.8556  0.0028  1.7821
  140MOL0     H18465  -0.071   0.683   8.817 -0.6302  0.6122 -0.4101
  140MOL0     H18466   1.479   0.685   8.618 -0.5107 -1.9544  4.0952
  140MOL0     H18467   1.677   0.598   8.703 -1.5376 -0.5204 -1.1265
  140MOL0     H18468   2.171   0.788   8.799 -1.9453 -1.3676 -0.8471
  140MOL0     H18469   2.385   0.749   8.890  1.8684 -2.4139 -0.8593
  140MOL0     H18470   2.520   0.404   8.968  0.3575 -1.2191  1.1782
  140MOL0     H18471   2.517   0.413   9.142  1.2359 -1.0471 -1.3592
  140MOL0     H18472   2.745   0.405   9.035 -3.6763 -1.7646 -2.8723
  140MOL0     H18473   2.699   0.538   8.949 -2.3289 -1.0333  0.1854
  140MOL0     H18474   2.694   0.675   9.176  1.5094  0.2370  1.1231
  140MOL0     H18475   2.851   0.612   9.131 -0.7171  0.7326 -1.7720
  140MOL0     H18476   2.670   0.506   9.354  0.3339 -0.3576  0.0896
  140MOL0     H18477   2.803   0.413   9.290  1.0867  0.0654  3.2085
  140MOL0     H18478   3.015   0.674   9.527  1.8199 -3.6061 -0.4053
  140MOL0     H18479   2.268   0.380   9.063  1.5569 -0.1450  0.6848
  140MOL0     H18480   2.058   0.394   8.968  0.5478 -1.2434 -0.7846
  141MOL0     O18481   6.806   5.520   5.316 -0.9912 -0.1378 -0.0812
  141MOL0     C18482   6.909   5.461   5.348 -0.5232  0.7560 -1.3320
  141MOL0     O18483   6.914   5.323   5.400 -0.0892 -0.0232  0.2928
  141MOL0     C18484   6.798   5.253   5.403 -0.8350 -0.8683 -0.8142
  141MOL0     C18485   6.719   5.265   5.515  1.0392  0.7703  0.2853
  141MOL0     C18486   6.608   5.177   5.517 -0.2055  0.1495 -0.3345
  141MOL0     C18487   6.576   5.086   5.413  0.5818 -0.1804 -0.3275
  141MOL0     O18488   6.472   5.000   5.421  0.8842 -0.4057  0.1598
  141MOL0     C18489   6.409   4.943   5.304  0.2722 -0.1228 -0.5983
  141MOL0     C18490   6.283   4.868   5.354  0.0896  0.3307 -0.1832
  141MOL0     C18491   6.180   4.965   5.396 -0.8692  0.4376 -0.0552
  141MOL0     C18492   6.035   4.921   5.346 -0.6518 -0.0529  0.9970
  141MOL0     C18493   5.943   5.011   5.433  0.5804  0.7067  0.6868
  141MOL0     C18494   5.800   5.006   5.390  0.0033 -0.6823 -0.1392
  141MOL0     C18495   5.738   4.867   5.373 -0.2401  0.8177 -0.0381
  141MOL0     C18496   5.605   4.855   5.450 -0.5473  0.1027 -0.1494
  141MOL0     N18497   5.509   4.928   5.370  0.3583  0.3748  0.5744
  141MOL0     C18498   5.456   4.870   5.260 -0.0411  0.7014 -0.1175
  141MOL0     C18499   5.369   4.956   5.205 -0.3361  0.4824  0.1278
  141MOL0     C18500   5.297   4.939   5.075  0.4931  0.1309  0.0983
  141MOL0     C18501   5.195   4.822   5.083  0.3438 -0.1050  0.9059
  141MOL0     C18502   5.105   4.841   5.196 -0.3505 -0.1951  0.7214
  141MOL0     C18503   5.026   4.968   5.185  0.2558 -0.5684 -0.4647
  141MOL0     O18504   4.973   4.984   5.055  0.4488  0.6423  0.3104
  141MOL0     C18505   4.834   4.978   5.040  0.1951 -0.0763 -0.0319
  141MOL0     C18506   4.782   5.035   4.924  0.2899  0.0886  0.1967
  141MOL0     C18507   4.642   5.021   4.896  0.5382 -0.3712 -0.3522
  141MOL0     C18508   4.558   4.966   4.995 -0.2225 -0.7142 -0.4178
  141MOL0     C18509   4.420   4.953   4.958 -0.6559  0.8426  0.5770
  141MOL0     O18510   4.399   4.958   4.821  0.7896 -0.7497  0.4043
  141MOL0     C18511   4.273   4.959   4.771  0.6486 -0.1276  0.0781
  141MOL0     C18512   4.262   4.929   4.635 -0.1793  0.1798 -1.0086
  141MOL0     C18513   4.139   4.928   4.569 -0.4022 -0.5591  0.5270
  141MOL0     C18514   4.015   4.965   4.635 -1.0005  0.8668  0.2698
  141MOL0     O18515   3.899   4.993   4.570 -0.0943  0.0559  0.4020
  141MOL0     C18516   3.898   5.002   4.420 -0.6116 -0.3505 -0.2772
  141MOL0     C18517   3.760   5.041   4.375 -0.1639  0.4590  0.4080
  141MOL0     C18518   3.663   4.915   4.366 -0.0063 -0.2155 -0.3365
  141MOL0     C18519   3.646   4.847   4.230  0.4808  0.1510  0.4679
  141MOL0     C18520   3.542   4.729   4.251 -0.8908  1.2794 -0.4245
  141MOL0     C18521   3.398   4.783   4.269  0.0600 -0.0499 -0.5221
  141MOL0     C18522   3.296   4.667   4.290  0.3247  0.3464  0.1249
  141MOL0     C18523   3.151   4.725   4.286  0.0802  0.1055 -0.4992
  141MOL0    Cl18524   3.108   4.837   4.422 -0.2210  0.7121  0.0917
  141MOL0     C18525   4.028   4.983   4.772  0.6050 -0.3993  0.9462
  141MOL0     C18526   4.152   4.979   4.838  0.2959  0.0531 -0.2706
  141MOL0     O18527   4.339   4.918   5.047 -0.3647  0.0944 -0.0525
  141MOL0     C18528   4.607   4.941   5.116 -1.1305 -0.6775 -0.8771
  141MOL0     C18529   4.745   4.940   5.138 -0.2733 -0.5603 -0.0621
  141MOL0     N18530   5.365   5.065   5.296  0.1763 -0.5673 -0.2679
  141MOL0     N18531   5.443   5.041   5.397 -0.1115 -0.0957 -0.4198
  141MOL0     C18532   6.662   5.086   5.302  0.4227 -0.4558  0.1449
  141MOL0     C18533   6.772   5.169   5.301  0.9917  0.0259  0.0645
  141MOL0     C18534   7.043   5.521   5.323 -1.1420 -0.5224  0.0016
  141MOL0     C18535   7.162   5.449   5.338 -0.5264  0.0152  0.4525
  141MOL0     C18536   7.293   5.514   5.328  0.5128  0.2156 -0.3584
  141MOL0     C18537   7.293   5.650   5.293 -0.1160 -0.5314 -0.0257
  141MOL0     O18538   7.410   5.717   5.276 -0.3759 -0.6240  0.5989
  141MOL0     C18539   7.425   5.813   5.160  0.4316  1.1405 -0.4724
  141MOL0     C18540   7.578   5.831   5.114  0.9074 -0.1908 -0.0072
  141MOL0     C18541   7.611   5.969   5.055  0.3444 -0.1748  0.7237
  141MOL0     C18542   7.614   6.089   5.150 -0.0673  0.0214 -0.4887
  141MOL0     C18543   7.634   6.216   5.078 -0.1833 -0.1299 -0.2535
  141MOL0     C18544   7.655   6.320   5.025 -0.6688 -0.5028  0.1121
  141MOL0     C18545   7.179   5.721   5.287 -0.0895 -0.2100  0.2507
  141MOL0     C18546   7.053   5.658   5.298 -0.0804 -0.4082  0.3037
  141MOL0     H18547   6.733   5.336   5.597  1.1032 -1.4501  2.2919
  141MOL0     H18548   6.536   5.179   5.598  0.9706 -1.5825  0.8160
  141MOL0     H18549   6.477   4.874   5.254  0.8459  0.5146 -0.7076
  141MOL0     H18550   6.386   5.019   5.229 -0.3260 -0.3503 -0.6512
  141MOL0     H18551   6.296   4.799   5.437  1.2814 -0.8867 -1.3171
  141MOL0     H18552   6.253   4.806   5.269 -3.1812 -1.6146  2.1947
  141MOL0     H18553   6.200   5.060   5.345 -0.4088 -0.3939 -1.4690
  141MOL0     H18554   6.175   4.985   5.504  1.9534 -1.2715  0.4912
  141MOL0     H18555   6.037   4.939   5.239  3.4793 -1.2435  0.6654
  141MOL0     H18556   6.010   4.817   5.372  1.4226 -0.4084  1.8500
  141MOL0     H18557   5.978   5.115   5.428  0.4786  0.6607 -2.0552
  141MOL0     H18558   5.941   4.977   5.537  0.6333  1.7564  1.0423
  141MOL0     H18559   5.781   5.082   5.314  0.5855  3.2573  3.2814
  141MOL0     H18560   5.746   5.046   5.477 -1.2197 -1.3522 -0.5683
  141MOL0     H18561   5.730   4.828   5.271  2.3248 -2.3606  0.8227
  141MOL0     H18562   5.803   4.795   5.423 -1.5527  0.6419  1.5015
  141MOL0     H18563   5.608   4.899   5.551 -0.6686 -1.7294  0.6887
  141MOL0     H18564   5.571   4.752   5.462 -2.0178  0.5215 -0.4600
  141MOL0     H18565   5.468   4.766   5.228 -1.9629 -0.4875  2.6175
  141MOL0     H18566   5.373   4.914   5.000  4.1947 -1.0375  3.8153
  141MOL0     H18567   5.242   5.027   5.040  0.7959 -0.2048 -1.2721
  141MOL0     H18568   5.249   4.727   5.084 -0.5335 -0.6228  0.1443
  141MOL0     H18569   5.146   4.820   4.985  0.0814  0.0885  1.0316
  141MOL0     H18570   5.029   4.763   5.191  0.4973 -1.1013  1.4886
  141MOL0     H18571   5.155   4.834   5.293 -0.3674 -1.3538  0.6548
  141MOL0     H18572   5.086   5.058   5.201  0.5004 -0.9349  0.8241
  141MOL0     H18573   4.955   4.977   5.267 -0.0188  0.0959 -0.7665
  141MOL0     H18574   4.853   5.054   4.844 -0.4519  0.5745 -0.3661
  141MOL0     H18575   4.618   5.057   4.796 -0.2998  1.0513  0.3296
  141MOL0     H18576   4.360   4.919   4.588 -0.2737  3.6075 -2.2768
  141MOL0     H18577   4.137   4.909   4.462  0.8608 -0.8846  0.5449
  141MOL0     H18578   3.928   4.915   4.361 -1.4547 -1.1591  0.4593
  141MOL0     H18579   3.957   5.089   4.392 -2.6006  0.8747 -0.8562
  141MOL0     H18580   3.762   5.082   4.274  1.1901 -2.5064 -0.8870
  141MOL0     H18581   3.718   5.116   4.443 -0.7445  0.6632 -0.1672
  141MOL0     H18582   3.569   4.958   4.403 -0.2512 -2.1097  1.4068
  141MOL0     H18583   3.691   4.839   4.439  0.1112  0.4933  0.3815
  141MOL0     H18584   3.614   4.923   4.158 -0.5497 -2.5873 -2.1395
  141MOL0     H18585   3.747   4.807   4.217  0.7154 -0.1710  2.8253
  141MOL0     H18586   3.575   4.676   4.341 -1.2046  0.3025 -0.8682
  141MOL0     H18587   3.549   4.663   4.164  0.5188  0.4856  0.2529
  141MOL0     H18588   3.380   4.852   4.187  1.7897  1.1252  0.0094
  141MOL0     H18589   3.390   4.851   4.355 -1.1010  0.9339 -1.3852
  141MOL0     H18590   3.323   4.590   4.217 -1.2777  0.8141 -1.0193
  141MOL0     H18591   3.304   4.622   4.389 -0.7029  1.1340  0.5916
  141MOL0     H18592   3.090   4.633   4.291 -1.6758  1.0746 -2.6644
  141MOL0     H18593   3.126   4.770   4.190 -0.8032 -0.8582 -0.7441
  141MOL0     H18594   3.934   4.992   4.825 -0.5688 -0.7507 -1.0051
  141MOL0     H18595   4.157   4.993   4.945  3.6611 -1.1156 -0.1552
  141MOL0     H18596   4.544   4.902   5.195  0.1477  2.2362  1.7994
  141MOL0     H18597   4.776   4.904   5.235  1.6464 -0.3972 -0.5817
  141MOL0     H18598   6.636   5.015   5.224  2.2058 -1.9860  0.8549
  141MOL0     H18599   6.820   5.175   5.203 -0.4170  1.9439 -0.5718
  141MOL0     H18600   7.149   5.346   5.369 -1.8595  1.0158  3.5758
  141MOL0     H18601   7.394   5.474   5.330 -0.7270 -3.3970 -1.2631
  141MOL0     H18602   7.390   5.911   5.195 -0.1219  0.1328  2.0357
  141MOL0     H18603   7.356   5.780   5.082 -3.5131 -1.5450  3.6059
  141MOL0     H18604   7.630   5.817   5.209 -3.2857  1.1427  2.7612
  141MOL0     H18605   7.609   5.756   5.040  1.8265  0.4026 -0.2338
  141MOL0     H18606   7.536   5.985   4.977 -0.8306 -0.8980  1.6819
  141MOL0     H18607   7.711   5.966   5.010  1.0954 -2.7216  2.3623
  141MOL0     H18608   7.525   6.100   5.214  0.2909 -0.6138  0.1309
  141MOL0     H18609   7.698   6.077   5.218 -0.6476  1.1382  0.4574
  141MOL0     H18610   7.669   6.416   4.981 -2.2923 -0.1254  0.3357
  141MOL0     H18611   7.186   5.826   5.263  4.3878 -0.4592 -0.2645
  141MOL0     H18612   6.966   5.723   5.298  0.5689  0.4860  0.0889
  142MOL0     O18613   5.483   4.372   6.691  0.0465 -0.1559 -0.6835
  142MOL0     C18614   5.556   4.447   6.767  1.0325  0.5973 -0.2800
  142MOL0     O18615   5.517   4.506   6.885  0.8074 -0.2559  0.0623
  142MOL0     C18616   5.385   4.508   6.922  0.1915  0.8889  0.2673
  142MOL0     C18617   5.285   4.596   6.869 -0.1270  0.3664  0.4026
  142MOL0     C18618   5.150   4.582   6.908 -0.0778 -0.1345 -1.0097
  142MOL0     C18619   5.115   4.480   6.997  0.5782 -0.7843  0.1951
  142MOL0     O18620   4.984   4.460   7.028  0.5130  0.1908 -0.2260
  142MOL0     C18621   4.938   4.553   7.128 -0.3820 -1.1466 -0.7352
  142MOL0     C18622   4.787   4.536   7.140  0.4101  0.4998  0.0677
  142MOL0     C18623   4.746   4.614   7.263 -0.2380 -0.1438  0.5012
  142MOL0     C18624   4.599   4.600   7.293  0.0089  0.1878 -1.3160
  142MOL0     C18625   4.574   4.647   7.443  0.9454 -0.5674 -0.0316
  142MOL0     C18626   4.433   4.645   7.486  0.8966 -0.0021  0.1660
  142MOL0     C18627   4.414   4.679   7.633 -0.0455 -0.0179 -0.8916
  142MOL0     C18628   4.273   4.682   7.672  0.4004  0.4035 -0.4824
  142MOL0     N18629   4.259   4.683   7.818  0.7938 -0.2766 -0.4182
  142MOL0     C18630   4.201   4.782   7.892  0.3874 -0.5218 -0.7304
  142MOL0     C18631   4.185   4.730   8.015  0.2178  0.0814  0.3105
  142MOL0     C18632   4.117   4.793   8.134  0.1633 -0.1483 -0.4449
  142MOL0     C18633   4.213   4.886   8.205  0.2322  0.3190  0.3589
  142MOL0     C18634   4.214   5.026   8.138 -0.1530  0.6636  0.4357
  142MOL0     C18635   4.308   5.110   8.218  0.0088 -0.8327  0.7706
  142MOL0     O18636   4.442   5.088   8.180 -0.1696  0.2627 -0.5918
  142MOL0     C18637   4.550   5.141   8.243 -0.8225 -0.9433  0.7412
  142MOL0     C18638   4.672   5.077   8.242 -0.2065  0.8662  0.6170
  142MOL0     C18639   4.799   5.130   8.297  0.5281  0.1449  0.3381
  142MOL0     C18640   4.795   5.258   8.359 -0.0138  0.4280 -0.6303
  142MOL0     C18641   4.912   5.332   8.419 -1.0109  0.0171  0.0465
  142MOL0     O18642   5.042   5.288   8.389 -0.2082  0.4954  0.7138
  142MOL0     C18643   5.143   5.385   8.384  0.8812 -0.7348  0.3274
  142MOL0     C18644   5.141   5.487   8.284 -0.1741  0.0951 -0.5942
  142MOL0     C18645   5.251   5.565   8.256 -0.5937  1.0051  0.4662
  142MOL0     C18646   5.370   5.539   8.329 -0.0951 -0.1771 -0.1987
  142MOL0     O18647   5.483   5.607   8.304 -0.2407 -0.3522  0.7164
  142MOL0     C18648   5.471   5.751   8.266 -0.3540  0.9324  0.1227
  142MOL0     C18649   5.607   5.802   8.252 -0.1487 -0.0259  0.0632
  142MOL0     C18650   5.667   5.793   8.115 -0.2391  0.0248  0.3474
  142MOL0     C18651   5.821   5.809   8.125 -0.2359  0.6815  0.1584
  142MOL0     C18652   5.883   5.670   8.101 -0.0233  0.2621  0.5993
  142MOL0     C18653   6.026   5.681   8.110  0.4002  0.1185  0.1357
  142MOL0     C18654   6.106   5.718   7.981  0.9393  0.1698  0.0668
  142MOL0     C18655   6.251   5.695   7.979  0.1415 -0.2608 -0.3446
  142MOL0    Cl18656   6.315   5.715   7.810 -0.4386  0.5644 -0.0736
  142MOL0     C18657   5.371   5.445   8.432 -0.1418  0.3535 -0.2569
  142MOL0     C18658   5.255   5.368   8.457 -0.2510 -0.8311  0.7843
  142MOL0     O18659   4.887   5.436   8.485 -0.3147 -0.0934 -0.6196
  142MOL0     C18660   4.665   5.312   8.367 -0.1505 -0.5311 -0.5365
  142MOL0     C18661   4.545   5.264   8.314 -0.3662 -0.5128  0.3155
  142MOL0     N18662   4.228   4.603   8.021 -0.7466 -0.4903  0.0337
  142MOL0     N18663   4.276   4.575   7.905  0.2001  0.3881 -0.1409
  142MOL0     C18664   5.217   4.409   7.062 -0.5038 -0.5090 -0.6533
  142MOL0     C18665   5.353   4.433   7.031 -0.6197 -0.8579  0.4946
  142MOL0     C18666   5.694   4.455   6.742 -0.5899 -0.0297  0.4978
  142MOL0     C18667   5.759   4.392   6.639  0.1007  0.3981  0.4907
  142MOL0     C18668   5.898   4.381   6.622  0.6223  0.4712 -0.1819
  142MOL0     C18669   5.983   4.446   6.713 -0.9033 -0.2148 -0.6864
  142MOL0     O18670   6.122   4.435   6.720  0.5866 -0.1347  0.2435
  142MOL0     C18671   6.172   4.381   6.603  0.0607  0.9173  0.2762
  142MOL0     C18672   6.333   4.372   6.594  0.3120  0.1008  0.3444
  142MOL0     C18673   6.380   4.265   6.697  1.1302 -0.3755 -0.3828
  142MOL0     C18674   6.523   4.252   6.684 -0.3674  0.1029  0.0133
  142MOL0     C18675   6.567   4.178   6.565  0.6832 -0.3893  0.2252
  142MOL0     C18676   6.606   4.117   6.464  0.3545  0.6258  0.2818
  142MOL0     C18677   5.926   4.529   6.810 -0.0738  0.0606 -0.8548
  142MOL0     C18678   5.783   4.535   6.823 -0.0315  0.1695  0.0797
  142MOL0     H18679   5.308   4.651   6.778 -3.4550  0.8909 -0.2265
  142MOL0     H18680   5.070   4.639   6.862  1.9437  1.9503 -2.1943
  142MOL0     H18681   4.957   4.658   7.102  0.8234 -0.8459  1.1853
  142MOL0     H18682   4.983   4.520   7.222 -1.7105  1.0144  0.7537
  142MOL0     H18683   4.779   4.428   7.154  2.2916  0.1117 -1.4065
  142MOL0     H18684   4.745   4.573   7.045 -0.5381 -0.6158  0.0302
  142MOL0     H18685   4.767   4.721   7.249 -1.3486  0.5123  3.0985
  142MOL0     H18686   4.808   4.574   7.344 -0.2943  0.0334  0.6335
  142MOL0     H18687   4.532   4.644   7.219 -2.3108  0.3898  0.7379
  142MOL0     H18688   4.585   4.491   7.294  1.2594  0.0159 -1.2495
  142MOL0     H18689   4.617   4.747   7.452 -2.1503  0.6918  3.0606
  142MOL0     H18690   4.633   4.588   7.514 -1.2798 -2.8010  0.1136
  142MOL0     H18691   4.396   4.544   7.466  0.5208  0.0063  0.7639
  142MOL0     H18692   4.358   4.704   7.433  1.3680  0.5764  0.1297
  142MOL0     H18693   4.469   4.604   7.690 -0.3590  0.1111 -0.4127
  142MOL0     H18694   4.452   4.781   7.647 -0.0136  0.1560 -2.1336
  142MOL0     H18695   4.226   4.599   7.617  1.2493 -0.5654  0.2096
  142MOL0     H18696   4.231   4.776   7.637  2.9246  1.4649 -0.8355
  142MOL0     H18697   4.180   4.879   7.848  1.7143 -0.5632 -1.5115
  142MOL0     H18698   4.086   4.716   8.206  0.3641  2.1659  2.3132
  142MOL0     H18699   4.025   4.844   8.104  0.6348  1.2505  0.3651
  142MOL0     H18700   4.316   4.852   8.217  0.1294  0.4865  1.8365
  142MOL0     H18701   4.174   4.892   8.307  3.9503 -2.2054  2.1472
  142MOL0     H18702   4.256   5.017   8.037  0.6355 -4.1790  0.9296
  142MOL0     H18703   4.119   5.081   8.136 -0.1104  0.7226 -0.0883
  142MOL0     H18704   4.308   5.085   8.324  1.4341  1.5114  1.4142
  142MOL0     H18705   4.272   5.213   8.214  0.2372 -0.6438  2.7661
  142MOL0     H18706   4.680   4.984   8.187  1.8978  0.2370  1.8619
  142MOL0     H18707   4.888   5.071   8.277  0.2328  0.0433 -0.7312
  142MOL0     H18708   5.061   5.500   8.211  0.3058  0.8063 -0.9934
  142MOL0     H18709   5.239   5.628   8.168 -3.6251  1.9982  1.4401
  142MOL0     H18710   5.409   5.802   8.340 -1.3523 -2.3613  1.6990
  142MOL0     H18711   5.425   5.757   8.166  0.1705  0.8406 -0.1270
  142MOL0     H18712   5.666   5.739   8.319 -1.6514 -0.7431  0.7563
  142MOL0     H18713   5.604   5.907   8.283 -0.0229  0.3130 -1.0164
  142MOL0     H18714   5.626   5.868   8.046 -0.5779  0.0631  0.5872
  142MOL0     H18715   5.650   5.693   8.075 -0.4030 -0.8771  2.5613
  142MOL0     H18716   5.859   5.876   8.047 -0.6328  0.7562  0.0246
  142MOL0     H18717   5.862   5.846   8.219  2.5783  0.0852 -0.7192
  142MOL0     H18718   5.859   5.632   8.001 -0.5908 -1.8010  1.4712
  142MOL0     H18719   5.837   5.596   8.167 -0.8591 -0.5085 -0.8038
  142MOL0     H18720   6.046   5.575   8.130 -1.1116 -0.0085  1.1299
  142MOL0     H18721   6.056   5.743   8.194 -1.1040  5.0295 -2.5638
  142MOL0     H18722   6.063   5.667   7.894  2.0466 -0.1168 -0.3238
  142MOL0     H18723   6.088   5.826   7.973 -1.4492  0.0089  1.9934
  142MOL0     H18724   6.274   5.591   8.004  3.6306  0.3803 -0.3853
  142MOL0     H18725   6.311   5.757   8.047 -1.9755  0.4814  0.9216
  142MOL0     H18726   5.463   5.440   8.488 -0.9212 -1.3795  0.9534
  142MOL0     H18727   5.254   5.300   8.542 -1.4258 -0.1617  1.3406
  142MOL0     H18728   4.663   5.402   8.427  3.4739 -0.6882  0.0945
  142MOL0     H18729   4.449   5.310   8.334  0.4296  0.9124  0.9727
  142MOL0     H18730   5.189   4.342   7.143 -0.0992 -1.2929 -1.1522
  142MOL0     H18731   5.426   4.368   7.078 -1.7370 -2.5115  0.0335
  142MOL0     H18732   5.698   4.343   6.564 -0.6382 -1.2423  2.1000
  142MOL0     H18733   5.935   4.319   6.541  1.7214 -1.5348  1.7520
  142MOL0     H18734   6.143   4.442   6.518  0.5429 -0.4858 -0.9290
  142MOL0     H18735   6.128   4.282   6.584 -1.5226  1.7069 -0.3602
  142MOL0     H18736   6.365   4.333   6.497  0.3126 -1.4929  0.9567
  142MOL0     H18737   6.380   4.471   6.594  0.5471 -0.0077  0.6722
  142MOL0     H18738   6.326   4.172   6.677  1.2820 -0.9368  1.5998
  142MOL0     H18739   6.368   4.293   6.802  0.0707 -0.9213 -0.3412
  142MOL0     H18740   6.567   4.352   6.683 -0.2059  0.0547 -2.2000
  142MOL0     H18741   6.563   4.197   6.770 -2.0950  0.0329  0.8066
  142MOL0     H18742   6.622   4.072   6.369  2.2240 -1.3681  1.4529
  142MOL0     H18743   5.986   4.580   6.885  0.8091 -0.3520 -1.2683
  142MOL0     H18744   5.752   4.589   6.912 -2.5821 -2.0442  0.6863
  143MOL0     O18745   1.623   4.226   9.905 -0.2707  0.0735 -0.1834
  143MOL0     C18746   1.731   4.257   9.958 -1.3450 -0.1254 -0.5331
  143MOL0     O18747   1.765   4.377  10.017 -0.4309 -0.2395  0.1601
  143MOL0     C18748   1.666   4.470  10.043 -0.3828 -0.4779 -0.5513
  143MOL0     C18749   1.533   4.440  10.090  0.4550 -0.8216  0.2243
  143MOL0     C18750   1.445   4.543  10.113  1.0000  0.5459  0.2275
  143MOL0     C18751   1.476   4.670  10.078  0.3333  0.1276 -0.5152
  143MOL0     O18752   1.392   4.783  10.078  1.0414 -0.2370 -0.5356
  143MOL0     C18753   1.251   4.764  10.049 -0.3646 -0.3924 -0.8825
  143MOL0     C18754   1.194   4.901  10.002 -0.2486  1.0147 -1.4439
  143MOL0     C18755   1.040   4.904   9.973  0.6291 -0.2342  0.4532
  143MOL0     C18756   0.990   5.045   9.954  0.6048  0.8760 -0.1493
  143MOL0     C18757   0.840   5.038   9.905 -1.4113  0.4056 -0.5661
  143MOL0     C18758   0.803   5.176   9.847 -0.2970  0.4102 -0.3278
  143MOL0     C18759   0.754   5.280   9.950 -0.0928  0.3217  0.5429
  143MOL0     C18760   0.607   5.276   9.990  0.3180 -0.3424 -0.2141
  143MOL0     N18761   0.513   5.295   9.876 -0.0434 -0.2144  0.0139
  143MOL0     C18762   0.435   5.197   9.820  0.2865 -0.5174  0.3564
  143MOL0     C18763   0.341   5.265   9.755 -0.8019  0.8100 -0.8380
  143MOL0     C18764   0.226   5.194   9.686  0.0238 -0.2105 -0.1990
  143MOL0     C18765   0.109   5.153   9.779  0.4309 -0.4057  0.1423
  143MOL0     C18766   0.136   5.016   9.839  0.2269 -0.0082  0.0970
  143MOL0     C18767   0.013   4.955   9.896  0.3497 -0.1244 -0.5227
  143MOL0     O18768  -0.071   4.919   9.790 -0.9469 -0.4994  0.9325
  143MOL0     C18769  -0.206   4.953   9.779  0.3279 -0.0978  0.0858
  143MOL0     C18770  -0.270   4.938   9.657 -0.8049 -0.1339  0.8441
  143MOL0     C18771  -0.399   4.985   9.635  0.2601  0.6251  0.1430
  143MOL0     C18772  -0.486   5.031   9.741 -0.0815  1.1125 -0.1413
  143MOL0     C18773  -0.620   5.084   9.713  0.3373  0.2257 -0.2748
  143MOL0     O18774  -0.698   5.020   9.617  1.4548  0.1234  0.1831
  143MOL0     C18775  -0.840   5.029   9.610  0.0494  0.1615 -0.2924
  143MOL0     C18776  -0.912   4.994   9.502 -0.2166 -0.1174  0.0332
  143MOL0     C18777  -1.045   5.023   9.490  0.0651 -0.1836  0.2360
  143MOL0     C18778  -1.123   5.061   9.603  0.5190  0.5729 -0.1496
  143MOL0     O18779  -1.262   5.076   9.592 -0.4406 -0.0230 -0.4330
  143MOL0     C18780  -1.311   5.113   9.459 -0.1989 -0.3985  0.0062
  143MOL0     C18781  -1.431   5.197   9.460  0.2821 -0.1189  0.1306
  143MOL0     C18782  -1.566   5.147   9.514 -0.2464  0.2302  0.8741
  143MOL0     C18783  -1.672   5.240   9.463  1.4975  0.1074 -0.5816
  143MOL0     C18784  -1.813   5.187   9.506  0.3892  0.1936  0.3285
  143MOL0     C18785  -1.920   5.300   9.509 -0.5343  0.6158 -1.0622
  143MOL0     C18786  -2.022   5.255   9.617  0.2574  0.2891 -1.2495
  143MOL0     C18787  -2.151   5.350   9.613  0.4685 -0.4023 -0.4453
  143MOL0    Cl18788  -2.297   5.244   9.614 -0.2304  0.1602  0.1724
  143MOL0     C18789  -1.054   5.085   9.725 -0.0995 -0.1833  0.0938
  143MOL0     C18790  -0.913   5.069   9.730  0.2002 -0.0696  0.1367
  143MOL0     O18791  -0.646   5.190   9.767  0.0690  0.9128 -0.4455
  143MOL0     C18792  -0.430   5.026   9.869 -1.0522 -0.2205  0.6701
  143MOL0     C18793  -0.293   4.994   9.886 -0.8051 -0.6547 -0.5918
  143MOL0     N18794   0.366   5.403   9.771 -0.5061  0.3199 -0.3370
  143MOL0     N18795   0.470   5.421   9.847 -0.2136  0.5710  0.6931
  143MOL0     C18796   1.603   4.697  10.037 -0.1054 -0.4924 -0.2888
  143MOL0     C18797   1.701   4.600  10.025  0.2087  0.4603  1.0425
  143MOL0     C18798   1.844   4.161   9.940  0.4046  0.9294  0.1917
  143MOL0     C18799   1.981   4.204   9.950  0.2481 -0.7782 -0.1675
  143MOL0     C18800   2.089   4.123   9.919 -0.5513 -0.1273  0.0464
  143MOL0     C18801   2.059   3.994   9.874 -0.3522  0.3661  0.0546
  143MOL0     O18802   2.153   3.889   9.837  0.4380 -0.2123 -0.2492
  143MOL0     C18803   2.285   3.903   9.866 -0.6633  0.1502  0.2586
  143MOL0     C18804   2.323   3.862  10.013 -0.6277  0.4716  0.4543
  143MOL0     C18805   2.287   3.709  10.057  0.9043 -0.3312 -0.8161
  143MOL0     C18806   2.338   3.597   9.960 -0.8530  0.6060  0.6575
  143MOL0     C18807   2.494   3.599   9.957 -0.0404 -0.2164  0.2490
  143MOL0     C18808   2.614   3.607   9.947  0.0669  0.3358  0.3393
  143MOL0     C18809   1.923   3.950   9.860  0.4456 -0.3554  0.0444
  143MOL0     C18810   1.822   4.032   9.896 -0.3361 -0.2732  0.9255
  143MOL0     H18811   1.490   4.341  10.099 -2.4043  0.1788 -1.2883
  143MOL0     H18812   1.341   4.531  10.143  0.7688 -0.8379 -0.9910
  143MOL0     H18813   1.192   4.729  10.134 -0.8409 -0.9386 -1.4251
  143MOL0     H18814   1.232   4.695   9.966 -0.2417 -0.6852 -0.6656
  143MOL0     H18815   1.243   4.933   9.910 -1.7587  1.6146 -2.0749
  143MOL0     H18816   1.224   4.967  10.085 -0.8891  1.1683 -1.3292
  143MOL0     H18817   0.987   4.861  10.059  1.8085 -0.1326  1.2554
  143MOL0     H18818   1.025   4.851   9.878  2.0340  0.3743 -0.1412
  143MOL0     H18819   0.996   5.101  10.047 -2.5565 -1.9080  1.9472
  143MOL0     H18820   1.059   5.078   9.876  1.5665 -0.6671 -0.0101
  143MOL0     H18821   0.767   5.009   9.982 -1.2539  0.7058 -0.3036
  143MOL0     H18822   0.839   4.968   9.821  2.7770  0.6298 -1.0078
  143MOL0     H18823   0.731   5.167   9.765 -0.0966  1.9505 -0.7110
  143MOL0     H18824   0.900   5.209   9.808  0.4507  1.0592  1.9209
  143MOL0     H18825   0.817   5.268  10.038  2.0160  0.9305 -0.8032
  143MOL0     H18826   0.772   5.379   9.908 -1.3680  0.4409  0.2347
  143MOL0     H18827   0.589   5.363  10.053 -2.1747  0.8213 -2.3304
  143MOL0     H18828   0.583   5.183  10.043  0.1749 -0.4108 -0.3964
  143MOL0     H18829   0.432   5.090   9.839  0.3233 -0.5862 -0.0067
  143MOL0     H18830   0.259   5.094   9.654 -0.1548 -1.3391  2.8309
  143MOL0     H18831   0.188   5.255   9.604  0.2910 -1.2979 -1.1786
  143MOL0     H18832   0.013   5.153   9.726  0.6593 -1.0673 -0.2848
  143MOL0     H18833   0.092   5.233   9.852  1.2242  0.7072 -0.8545
  143MOL0     H18834   0.178   4.938   9.775 -1.4382 -0.5574 -0.3728
  143MOL0     H18835   0.202   5.034   9.925 -1.6573  1.5206  1.3175
  143MOL0     H18836  -0.036   5.029   9.961 -1.6263  0.3739 -2.4429
  143MOL0     H18837   0.040   4.864   9.950 -0.1217 -0.4580 -0.8407
  143MOL0     H18838  -0.220   4.884   9.577  0.4158  3.1296 -0.7747
  143MOL0     H18839  -0.444   4.970   9.537  2.0162 -2.3370 -0.3394
  143MOL0     H18840  -0.873   4.955   9.409 -1.1298  2.4762 -1.5753
  143MOL0     H18841  -1.095   5.003   9.396 -1.1988  1.2443  0.5531
  143MOL0     H18842  -1.331   5.017   9.410  2.1845 -1.2223  0.5046
  143MOL0     H18843  -1.231   5.160   9.402  1.1335 -0.7973  1.4796
  143MOL0     H18844  -1.448   5.221   9.354 -1.2344  3.1397  1.0102
  143MOL0     H18845  -1.413   5.292   9.509 -2.8734  1.1409 -0.8874
  143MOL0     H18846  -1.566   5.151   9.623  0.0964  1.6204  0.8360
  143MOL0     H18847  -1.572   5.046   9.473  2.1125  0.8476 -1.3048
  143MOL0     H18848  -1.674   5.346   9.490 -3.2750  0.0846 -0.0167
  143MOL0     H18849  -1.658   5.244   9.355  1.9414 -0.5207 -0.5478
  143MOL0     H18850  -1.810   5.138   9.604 -3.0514 -0.5086  0.2063
  143MOL0     H18851  -1.847   5.110   9.437 -2.3957 -0.5370  2.3556
  143MOL0     H18852  -1.966   5.308   9.410  2.8358 -0.3656 -2.8613
  143MOL0     H18853  -1.883   5.399   9.539 -0.1648 -0.2834  1.7721
  143MOL0     H18854  -2.047   5.152   9.593  2.3563 -0.7078  0.5105
  143MOL0     H18855  -1.979   5.259   9.718 -2.4883 -0.3446  0.0435
  143MOL0     H18856  -2.140   5.402   9.518  1.2867  0.1962 -0.0345
  143MOL0     H18857  -2.162   5.431   9.685 -0.3773  0.0238 -1.0308
  143MOL0     H18858  -1.107   5.117   9.814  0.0877  4.1779 -1.1417
  143MOL0     H18859  -0.862   5.087   9.824  0.0743 -2.9089  0.8519
  143MOL0     H18860  -0.487   5.071   9.950  0.5814  1.5377  0.9143
  143MOL0     H18861  -0.244   4.999   9.982  0.0688 -0.8923 -1.0077
  143MOL0     H18862   1.627   4.803  10.033  0.1410 -0.5478 -0.3165
  143MOL0     H18863   1.805   4.618  10.001 -0.1813 -0.4321 -1.8021
  143MOL0     H18864   1.996   4.308   9.976 -0.8436 -0.2996 -1.3439
  143MOL0     H18865   2.189   4.164   9.931 -1.0124  0.9999  0.1599
  143MOL0     H18866   2.322   4.006   9.868  2.1957 -0.8054  0.1658
  143MOL0     H18867   2.337   3.841   9.792 -2.2697 -2.1861  0.9630
  143MOL0     H18868   2.431   3.880  10.015  0.1432 -3.3834  0.5689
  143MOL0     H18869   2.269   3.936  10.073 -1.1159 -0.4887  1.2322
  143MOL0     H18870   2.179   3.714  10.047  0.9188 -0.6448 -1.1457
  143MOL0     H18871   2.317   3.703  10.162  0.5787 -3.2240 -0.8083
  143MOL0     H18872   2.296   3.500   9.989 -2.2614  0.5764 -1.2755
  143MOL0     H18873   2.297   3.609   9.859  1.7758  0.5007 -0.5031
  143MOL0     H18874   2.718   3.631   9.934 -0.9394  4.1859 -1.9797
  143MOL0     H18875   1.902   3.849   9.825  0.3770 -1.2372  2.4244
  143MOL0     H18876   1.721   3.994   9.891 -0.0266 -1.0109 -0.2977
  144MOL0     O18877   7.228   9.885   9.800  0.6049 -0.4900  0.0482
  144MOL0     C18878   7.203   9.895   9.925  1.0630 -0.3873 -0.4435
  144MOL0     O18879   7.120   9.820   9.995  0.6528 -0.3590  0.3480
  144MOL0     C18880   7.061   9.712   9.933  0.0309  0.3322  0.1223
  144MOL0     C18881   6.994   9.718   9.810 -0.1989  0.7852 -0.3131
  144MOL0     C18882   6.928   9.607   9.757  0.0653  0.9426 -1.3763
  144MOL0     C18883   6.932   9.482   9.814 -0.4266  0.1212  0.4104
  144MOL0     O18884   6.870   9.381   9.741  0.4072 -0.4402 -0.0178
  144MOL0     C18885   6.916   9.248   9.753 -0.9578 -0.5205  0.1713
  144MOL0     C18886   6.902   9.162   9.623  0.8809  1.0212  0.5630
  144MOL0     C18887   6.773   9.183   9.536  0.1130 -0.3228 -0.7296
  144MOL0     C18888   6.777   9.095   9.413 -0.2331 -0.6025  0.4418
  144MOL0     C18889   6.667   9.111   9.309 -0.3297 -0.3158 -0.7489
  144MOL0     C18890   6.690   9.232   9.218  0.8809 -0.2301 -1.1930
  144MOL0     C18891   6.573   9.248   9.119  0.7581 -0.3591  0.0698
  144MOL0     C18892   6.546   9.118   9.021  0.1758  0.0292  0.1593
  144MOL0     N18893   6.446   9.133   8.922 -0.1844 -0.3947 -0.7466
  144MOL0     C18894   6.415   9.029   8.848 -0.2171 -0.6766 -0.3815
  144MOL0     C18895   6.342   9.073   8.737  0.2374 -0.3647  0.1961
  144MOL0     C18896   6.286   8.994   8.623 -0.4718 -0.2652  0.2740
  144MOL0     C18897   6.182   8.902   8.675 -0.9041 -0.6568 -0.3046
  144MOL0     C18898   6.056   8.975   8.711 -0.1901 -0.5749  0.5178
  144MOL0     C18899   5.941   8.887   8.742 -0.3152 -0.6559 -0.2887
  144MOL0     O18900   5.909   8.810   8.627  0.2801  0.1533  0.1578
  144MOL0     C18901   5.847   8.692   8.652  0.8849  0.4016  0.2454
  144MOL0     C18902   5.868   8.584   8.573  0.6130  0.1714  0.3233
  144MOL0     C18903   5.802   8.460   8.594 -0.0067 -0.4433  0.4308
  144MOL0     C18904   5.711   8.445   8.701  0.0010 -0.8892 -0.3216
  144MOL0     C18905   5.658   8.315   8.728 -0.2099  0.4121  0.3242
  144MOL0     O18906   5.570   8.304   8.830  0.5483 -0.2730 -0.7235
  144MOL0     C18907   5.501   8.188   8.834 -0.9212 -0.5279 -0.7543
  144MOL0     C18908   5.371   8.207   8.822  0.4934  0.2946  0.4445
  144MOL0     C18909   5.280   8.101   8.848 -0.2367  0.6247  0.3184
  144MOL0     C18910   5.322   7.973   8.872  0.0745 -0.1110 -0.0742
  144MOL0     O18911   5.242   7.866   8.908 -0.1832  0.1601  0.2838
  144MOL0     C18912   5.124   7.890   8.981  0.3714  0.0898  0.9876
  144MOL0     C18913   5.083   7.759   9.038  0.9844 -0.6735  0.3732
  144MOL0     C18914   5.046   7.648   8.938 -0.5531 -0.3493 -0.4468
  144MOL0     C18915   4.958   7.686   8.817  0.2505 -0.5138  0.6399
  144MOL0     C18916   4.944   7.571   8.717 -0.5484  0.1783 -0.5189
  144MOL0     C18917   4.879   7.616   8.590 -0.3597  0.3803  0.4379
  144MOL0     C18918   4.726   7.598   8.584 -0.3200 -0.2865 -0.4892
  144MOL0     C18919   4.681   7.663   8.449 -0.3605  0.3630 -0.1676
  144MOL0    Cl18920   4.505   7.631   8.432  0.0092 -0.3470  0.4029
  144MOL0     C18921   5.464   7.959   8.866 -0.4817  0.6860 -0.0955
  144MOL0     C18922   5.555   8.062   8.849  0.7883  0.4957  0.5968
  144MOL0     O18923   5.685   8.223   8.644 -0.0684  0.3620 -0.4424
  144MOL0     C18924   5.683   8.557   8.781 -0.8536  0.1561  0.2894
  144MOL0     C18925   5.744   8.680   8.754 -0.7171  0.0754 -0.5311
  144MOL0     N18926   6.334   9.214   8.759 -0.3273 -0.2134  0.7850
  144MOL0     N18927   6.392   9.246   8.872 -0.4012  0.5105 -0.4035
  144MOL0     C18928   7.013   9.468   9.931  0.5454  1.1992 -0.1089
  144MOL0     C18929   7.075   9.583   9.995 -0.1544 -0.0950  0.2788
  144MOL0     C18930   7.270  10.001   9.997 -0.0635 -0.6008  0.1852
  144MOL0     C18931   7.264  10.013  10.134  0.0721 -0.6002 -0.5251
  144MOL0     C18932   7.336  10.122  10.195 -0.1232 -0.0499  0.2541
  144MOL0     C18933   7.414  10.207  10.117 -0.5903  0.6226 -0.3704
  144MOL0     O18934   7.485  10.301  10.191 -0.2458  0.2533 -0.5496
  144MOL0     C18935   7.595  10.365  10.135 -0.2570 -0.1392 -0.1023
  144MOL0     C18936   7.698  10.388  10.241 -0.1610 -0.2761  0.5936
  144MOL0     C18937   7.641  10.470  10.352  0.5908  0.1025 -0.1288
  144MOL0     C18938   7.581  10.389  10.478  0.2011 -0.2579  0.5924
  144MOL0     C18939   7.583  10.472  10.591  0.7888  1.3034  0.9320
  144MOL0     C18940   7.589  10.520  10.703 -0.3328 -0.4967 -0.1912
  144MOL0     C18941   7.406  10.206   9.978 -1.4213 -0.0038  0.3253
  144MOL0     C18942   7.330  10.100   9.922  0.0110  0.5544 -0.3989
  144MOL0     H18943   6.988   9.818   9.768 -1.2677  1.2828  0.9603
  144MOL0     H18944   6.862   9.620   9.671  0.4893  1.0572 -1.6868
  144MOL0     H18945   6.874   9.198   9.841 -1.6080  1.2913  0.9370
  144MOL0     H18946   7.023   9.248   9.772 -1.0788 -1.8491  0.9500
  144MOL0     H18947   6.905   9.056   9.650 -3.9811  0.2340 -1.0252
  144MOL0     H18948   6.987   9.194   9.561  0.2505  1.4687 -0.0736
  144MOL0     H18949   6.761   9.288   9.510 -0.5122 -0.9414 -3.2347
  144MOL0     H18950   6.684   9.147   9.587 -0.8396 -1.1512 -2.8400
  144MOL0     H18951   6.870   9.105   9.357  0.9186  0.9116  2.4931
  144MOL0     H18952   6.767   8.988   9.436  3.5937 -0.8130  1.8819
  144MOL0     H18953   6.573   9.120   9.366  0.3122  4.4826  0.0259
  144MOL0     H18954   6.670   9.025   9.242  1.1224 -0.1514 -0.9201
  144MOL0     H18955   6.791   9.237   9.175  0.5228  0.3856 -1.9817
  144MOL0     H18956   6.694   9.323   9.278 -0.4210 -1.0838  0.2933
  144MOL0     H18957   6.481   9.265   9.175 -1.3915 -3.0262 -2.3728
  144MOL0     H18958   6.591   9.340   9.062  3.2909  1.7955  3.9184
  144MOL0     H18959   6.525   9.039   9.093 -1.0035  1.7415  1.7946
  144MOL0     H18960   6.636   9.097   8.962 -0.7452  0.5421 -1.4823
  144MOL0     H18961   6.460   8.931   8.860  2.8007  0.3174 -2.3862
  144MOL0     H18962   6.371   8.941   8.579 -0.4120 -0.3715  0.5196
  144MOL0     H18963   6.246   9.051   8.539  0.6454 -0.8872 -0.7125
  144MOL0     H18964   6.219   8.857   8.767  0.8391  1.2430 -0.0177
  144MOL0     H18965   6.162   8.828   8.597  1.6428  0.5791 -2.2762
  144MOL0     H18966   6.072   9.025   8.807  0.5400  1.6602 -0.6863
  144MOL0     H18967   6.019   9.039   8.630 -0.5213 -1.2393  0.1386
  144MOL0     H18968   5.856   8.955   8.751  1.6307  1.7917  1.1938
  144MOL0     H18969   5.939   8.829   8.835 -1.6166 -1.0581 -0.5590
  144MOL0     H18970   5.937   8.583   8.489  1.1648 -5.2072  0.4842
  144MOL0     H18971   5.828   8.384   8.522  0.2134  1.5354 -1.7077
  144MOL0     H18972   5.322   8.299   8.792 -4.1401 -2.8911 -3.5000
  144MOL0     H18973   5.173   8.120   8.850 -0.6629 -1.4402  0.0863
  144MOL0     H18974   5.051   7.930   8.910  3.1765 -0.0666 -2.2930
  144MOL0     H18975   5.133   7.959   9.065  2.2110 -2.5554  3.1578
  144MOL0     H18976   4.995   7.795   9.093  1.8445  2.8692 -0.3407
  144MOL0     H18977   5.149   7.723   9.117  1.7297 -0.4902 -0.1637
  144MOL0     H18978   5.015   7.552   8.981  1.4883 -0.4982  0.8458
  144MOL0     H18979   5.144   7.631   8.893 -0.7481  1.4217 -1.6513
  144MOL0     H18980   4.856   7.711   8.847  0.6890  1.8272  0.4404
  144MOL0     H18981   5.006   7.772   8.769  1.1800 -1.0174  0.6432
  144MOL0     H18982   4.906   7.476   8.756 -0.9732  0.4045 -0.3718
  144MOL0     H18983   5.048   7.542   8.699 -0.6698 -1.5649  1.2187
  144MOL0     H18984   4.913   7.554   8.507 -0.2001  1.1654 -0.0995
  144MOL0     H18985   4.914   7.714   8.554  2.8238 -0.1201  1.8072
  144MOL0     H18986   4.699   7.493   8.583 -0.1723 -0.3301 -1.8799
  144MOL0     H18987   4.676   7.648   8.667  0.6367  1.7976 -1.0849
  144MOL0     H18988   4.737   7.613   8.370 -2.0795 -0.7404 -0.7498
  144MOL0     H18989   4.703   7.770   8.442  0.5659  0.0772 -2.0688
  144MOL0     H18990   5.502   7.860   8.891 -0.0462 -0.2577 -3.8820
  144MOL0     H18991   5.659   8.034   8.853  0.3516 -1.1304  2.3520
  144MOL0     H18992   5.615   8.544   8.864 -1.2460 -3.0674 -0.3796
  144MOL0     H18993   5.715   8.768   8.811  1.6569  0.7147 -0.2180
  144MOL0     H18994   7.016   9.366   9.967  2.1095  0.6172 -1.7393
  144MOL0     H18995   7.128   9.565  10.088 -0.5558  1.0853  0.7668
  144MOL0     H18996   7.228   9.939  10.205  0.3453 -0.1996  0.0428
  144MOL0     H18997   7.365  10.131  10.299  3.2870  1.3857 -0.6858
  144MOL0     H18998   7.560  10.453  10.080 -1.9729 -1.8624 -1.9726
  144MOL0     H18999   7.645  10.306  10.057 -1.1787  0.5505 -1.2602
  144MOL0     H19000   7.744  10.298  10.283  1.3221  0.3954  0.4719
  144MOL0     H19001   7.782  10.444  10.200  0.2483 -1.3852 -0.1307
  144MOL0     H19002   7.569  10.545  10.318  0.7238 -0.3053 -1.3345
  144MOL0     H19003   7.723  10.533  10.389 -0.7309  0.2697  2.8157
  144MOL0     H19004   7.485  10.340  10.459 -0.3709  1.1742 -0.3607
  144MOL0     H19005   7.656  10.311  10.496  1.7010  0.7986 -0.7710
  144MOL0     H19006   7.592  10.571  10.797  0.7184  0.0519 -0.5070
  144MOL0     H19007   7.453  10.284   9.918 -1.8583 -0.7039 -0.9745
  144MOL0     H19008   7.325  10.108   9.814 -2.9527  0.2096 -0.3665
  145MOL0     O19009   0.485   2.143   1.461  0.4323  0.1804 -0.2188
  145MOL0     C19010   0.549   2.109   1.558 -0.9192  1.4217  0.2576
  145MOL0     O19011   0.497   2.079   1.680  0.6233 -0.2270 -0.1474
  145MOL0     C19012   0.363   2.075   1.678 -0.8171 -0.5788  0.0392
  145MOL0     C19013   0.297   2.197   1.693  0.9321 -0.3481  0.1701
  145MOL0     C19014   0.158   2.208   1.687  1.1254  0.4755 -0.0897
  145MOL0     C19015   0.080   2.090   1.664 -1.1462  0.0211 -0.1469
  145MOL0     O19016  -0.055   2.083   1.656  0.4269 -0.3172 -0.5002
  145MOL0     C19017  -0.132   2.134   1.772 -1.6494 -0.6563  0.3454
  145MOL0     C19018  -0.272   2.119   1.739  0.2213 -0.2469 -0.3201
  145MOL0     C19019  -0.353   2.190   1.829  0.4850  0.4450 -0.4154
  145MOL0     C19020  -0.499   2.144   1.828  0.3002 -0.4187  0.1809
  145MOL0     C19021  -0.579   2.203   1.946 -0.0028 -0.7532 -0.1377
  145MOL0     C19022  -0.720   2.143   1.947 -0.3005 -0.4197 -0.5793
  145MOL0     C19023  -0.799   2.176   2.083 -0.1988  0.6684 -0.2709
  145MOL0     C19024  -0.803   2.326   2.110 -1.0452 -0.2919 -0.2305
  145MOL0     N19025  -0.909   2.374   2.200 -0.5861 -0.4004  0.5374
  145MOL0     C19026  -1.035   2.319   2.208 -0.3025  0.2344 -1.0081
  145MOL0     C19027  -1.111   2.410   2.266 -0.5843  0.3054  0.8545
  145MOL0     C19028  -1.268   2.400   2.292 -0.3159 -0.0004  0.3904
  145MOL0     C19029  -1.297   2.287   2.381  1.3639 -0.0134 -1.0438
  145MOL0     C19030  -1.447   2.259   2.375 -0.3000  0.0156  0.3274
  145MOL0     C19031  -1.532   2.371   2.433  0.2426 -0.2420 -0.9594
  145MOL0     O19032  -1.487   2.406   2.562 -0.2971 -0.4420 -0.5634
  145MOL0     C19033  -1.570   2.488   2.648  0.2523 -0.1299 -0.0080
  145MOL0     C19034  -1.678   2.563   2.589 -0.5602  0.1290  0.3975
  145MOL0     C19035  -1.751   2.646   2.667  0.0270  0.1996  0.5531
  145MOL0     C19036  -1.728   2.658   2.798 -0.5774 -0.0997  0.6027
  145MOL0     C19037  -1.816   2.733   2.894 -0.1149  0.8499  0.3983
  145MOL0     O19038  -1.939   2.687   2.898 -0.3311 -0.4098 -0.3672
  145MOL0     C19039  -2.017   2.714   3.005  0.1906 -1.2707  0.1729
  145MOL0     C19040  -2.145   2.765   2.987  0.5102 -1.0413  0.2307
  145MOL0     C19041  -2.231   2.787   3.097  1.0871 -0.0033 -0.3739
  145MOL0     C19042  -2.185   2.768   3.234  0.9491  0.9425  0.7754
  145MOL0     O19043  -2.259   2.792   3.346  0.5098  0.3101 -1.0867
  145MOL0     C19044  -2.335   2.915   3.345 -0.0399  0.9041 -0.3186
  145MOL0     C19045  -2.359   2.938   3.502 -0.0033 -0.2302  0.4716
  145MOL0     C19046  -2.458   2.836   3.568 -0.5164  1.0302  0.0964
  145MOL0     C19047  -2.465   2.878   3.711 -0.4985  0.5475 -0.2684
  145MOL0     C19048  -2.557   2.782   3.793 -0.6078 -0.3327 -0.2324
  145MOL0     C19049  -2.574   2.835   3.939  1.0165  0.6573 -0.2833
  145MOL0     C19050  -2.693   2.766   4.016 -0.8601 -0.7898  0.4494
  145MOL0     C19051  -2.833   2.819   4.003 -0.2533 -0.9265 -0.3808
  145MOL0    Cl19052  -2.840   2.999   4.046  0.6014  0.0208 -0.2306
  145MOL0     C19053  -2.069   2.690   3.242 -0.0923  0.6990 -0.4784
  145MOL0     C19054  -1.986   2.671   3.133  0.1592  0.6423 -0.6990
  145MOL0     O19055  -1.762   2.795   2.981 -1.0364  0.0907  0.0694
  145MOL0     C19056  -1.608   2.605   2.847 -0.6221 -0.2746 -0.1293
  145MOL0     C19057  -1.529   2.511   2.779  0.0753  1.0740  0.0598
  145MOL0     N19058  -1.036   2.518   2.306 -0.3753 -0.5740 -0.7518
  145MOL0     N19059  -0.910   2.492   2.272  0.3938 -0.3259 -0.3593
  145MOL0     C19060   0.148   1.967   1.642  0.2626  0.9273 -0.3449
  145MOL0     C19061   0.290   1.963   1.637 -0.3822  0.4228 -1.6754
  145MOL0     C19062   0.704   2.105   1.544 -0.6717  0.2499 -0.5867
  145MOL0     C19063   0.771   2.121   1.419  0.5698  0.2970  1.0112
  145MOL0     C19064   0.910   2.105   1.410  0.6149 -0.2707 -0.2471
  145MOL0     C19065   0.990   2.059   1.513  0.4460 -0.9072 -0.5346
  145MOL0     O19066   1.122   2.037   1.489 -0.6846 -0.1281 -0.5502
  145MOL0     C19067   1.217   2.022   1.597 -0.3338  0.7085  0.6491
  145MOL0     C19068   1.339   2.117   1.579 -0.4078  0.0342 -0.8879
  145MOL0     C19069   1.437   2.066   1.468  0.2443 -0.3630 -0.1707
  145MOL0     C19070   1.550   1.975   1.521 -0.1839  0.1136 -0.4265
  145MOL0     C19071   1.635   2.058   1.603  0.0516 -1.2633  0.4671
  145MOL0     C19072   1.699   2.117   1.685 -0.3499 -0.8479  0.6043
  145MOL0     C19073   0.924   2.036   1.634  0.1903 -0.7535 -0.1087
  145MOL0     C19074   0.784   2.057   1.651  0.1135  0.5027  0.4725
  145MOL0     H19075   0.360   2.285   1.704 -0.7354  1.2508 -2.2159
  145MOL0     H19076   0.103   2.301   1.694  1.1059  0.4715 -0.1915
  145MOL0     H19077  -0.104   2.237   1.792 -1.2436 -0.6007 -0.4731
  145MOL0     H19078  -0.121   2.082   1.868 -1.9353  2.3919  2.1713
  145MOL0     H19079  -0.298   2.013   1.749 -1.7010  0.3682  2.1076
  145MOL0     H19080  -0.294   2.152   1.637  1.1304  0.2582 -0.3652
  145MOL0     H19081  -0.353   2.298   1.811  1.1215  1.0797  2.7408
  145MOL0     H19082  -0.306   2.169   1.926  2.0454 -2.2497 -1.6501
  145MOL0     H19083  -0.533   2.150   1.724  0.7911  1.6508  0.0999
  145MOL0     H19084  -0.487   2.036   1.838  2.4534 -0.5082 -2.3543
  145MOL0     H19085  -0.580   2.311   1.931  0.3088 -0.7183  0.0994
  145MOL0     H19086  -0.527   2.170   2.036 -1.4921 -2.0051  0.2970
  145MOL0     H19087  -0.718   2.034   1.936 -1.7688 -0.8050  2.1274
  145MOL0     H19088  -0.771   2.183   1.859  1.9927  0.9185 -1.4026
  145MOL0     H19089  -0.903   2.147   2.066 -0.6723 -0.2779  3.3501
  145MOL0     H19090  -0.753   2.115   2.161 -1.2764  1.2706  0.8642
  145MOL0     H19091  -0.819   2.377   2.015 -0.8180  1.9449  0.8657
  145MOL0     H19092  -0.708   2.362   2.150 -0.7868  1.2334 -2.0782
  145MOL0     H19093  -1.070   2.229   2.158  0.5385 -2.0642  2.1851
  145MOL0     H19094  -1.322   2.394   2.197 -0.5055  0.3529  0.4716
  145MOL0     H19095  -1.304   2.493   2.338 -1.9902  0.0363 -0.9008
  145MOL0     H19096  -1.268   2.302   2.486 -1.3634 -2.3341  0.1838
  145MOL0     H19097  -1.248   2.192   2.358  1.0463 -0.6144  0.5755
  145MOL0     H19098  -1.477   2.232   2.273 -0.4009 -0.8123  0.5675
  145MOL0     H19099  -1.471   2.173   2.438 -3.5076  1.3643  1.1841
  145MOL0     H19100  -1.636   2.342   2.446  0.2890  0.5716  2.0132
  145MOL0     H19101  -1.508   2.456   2.368  3.2429 -0.3284 -0.1354
  145MOL0     H19102  -1.701   2.550   2.484  1.8920  1.1714 -0.3503
  145MOL0     H19103  -1.835   2.700   2.623  0.3349 -0.6285 -1.1167
  145MOL0     H19104  -2.189   2.777   2.889  2.6751 -1.2252 -0.8172
  145MOL0     H19105  -2.331   2.821   3.071  0.3477 -0.5718  1.5291
  145MOL0     H19106  -2.434   2.906   3.299  0.3137 -0.5314 -0.8231
  145MOL0     H19107  -2.284   3.007   3.316 -0.6895  1.0896 -0.9145
  145MOL0     H19108  -2.401   3.039   3.510  1.9173  0.6236  0.4972
  145MOL0     H19109  -2.262   2.950   3.553 -0.1658  3.1342  0.2400
  145MOL0     H19110  -2.412   2.738   3.554 -2.1788  0.5724 -3.2701
  145MOL0     H19111  -2.555   2.847   3.520  0.4104 -0.4194 -2.2996
  145MOL0     H19112  -2.371   2.876   3.766 -0.3814 -1.4602 -0.4834
  145MOL0     H19113  -2.508   2.978   3.719  1.2739  1.2441  1.2024
  145MOL0     H19114  -2.519   2.680   3.804  1.8776  0.2747 -2.2553
  145MOL0     H19115  -2.659   2.774   3.755 -0.4651 -2.7605 -0.3060
  145MOL0     H19116  -2.575   2.944   3.940  1.5843  0.6869  2.0495
  145MOL0     H19117  -2.485   2.803   3.994  0.4895 -3.6768 -1.5433
  145MOL0     H19118  -2.688   2.659   3.993 -1.5167 -0.5688 -0.7742
  145MOL0     H19119  -2.677   2.771   4.124 -1.2417 -0.5263  0.4941
  145MOL0     H19120  -2.904   2.780   4.076  0.5826 -0.4972  0.6915
  145MOL0     H19121  -2.883   2.797   3.908 -2.2009  0.5176  0.2360
  145MOL0     H19122  -2.043   2.639   3.335 -3.1240  0.3946  0.3063
  145MOL0     H19123  -1.899   2.607   3.137  0.5297  1.1931  0.5580
  145MOL0     H19124  -1.583   2.619   2.951 -1.0984  1.0673 -0.1821
  145MOL0     H19125  -1.437   2.475   2.824 -0.0623  2.4013  1.5100
  145MOL0     H19126   0.091   1.881   1.610  1.0643 -0.3993  1.6090
  145MOL0     H19127   0.350   1.878   1.607 -1.3268 -1.6542  1.7515
  145MOL0     H19128   0.713   2.159   1.335 -0.5056 -0.9865  1.1494
  145MOL0     H19129   0.969   2.123   1.321  0.3032 -0.0569 -0.4114
  145MOL0     H19130   1.239   1.915   1.599 -2.5519  0.1106 -1.7292
  145MOL0     H19131   1.177   2.060   1.691 -0.7479  3.2652 -0.4642
  145MOL0     H19132   1.303   2.215   1.546 -2.2451 -1.0302 -2.2449
  145MOL0     H19133   1.395   2.141   1.670  0.8404  1.2291 -1.9360
  145MOL0     H19134   1.471   2.152   1.409 -4.9897  2.9563  0.9532
  145MOL0     H19135   1.384   2.011   1.390 -0.9737  2.4021 -1.4363
  145MOL0     H19136   1.512   1.883   1.568 -2.3832  1.5471  0.7654
  145MOL0     H19137   1.603   1.943   1.431 -1.0507 -0.1150 -0.8605
  145MOL0     H19138   1.772   2.165   1.747  0.4069 -1.0927 -0.0701
  145MOL0     H19139   0.967   1.991   1.724 -0.0713 -2.5220 -0.8316
  145MOL0     H19140   0.756   2.016   1.747  1.1452 -0.8078  0.2472
  146MOL0     O19141   4.460   0.702   4.746  0.5065  0.0035  0.6859
  146MOL0     C19142   4.450   0.692   4.866 -0.2620 -0.8154  0.0480
  146MOL0     O19143   4.334   0.703   4.937  0.0526 -0.0913 -0.0220
  146MOL0     C19144   4.218   0.724   4.866 -1.2888 -0.0942  0.0797
  146MOL0     C19145   4.125   0.620   4.859 -0.3431  0.0467  0.1575
  146MOL0     C19146   4.000   0.626   4.796 -0.5282  0.3020  0.0638
  146MOL0     C19147   3.967   0.738   4.714 -0.7651 -0.0196 -0.9881
  146MOL0     O19148   3.857   0.740   4.638 -0.7999 -0.4996 -0.0352
  146MOL0     C19149   3.812   0.625   4.573  0.4721  0.1747 -0.7357
  146MOL0     C19150   3.665   0.586   4.624  0.4293 -0.5889 -0.2607
  146MOL0     C19151   3.569   0.694   4.577  0.6229  0.3749 -0.1500
  146MOL0     C19152   3.428   0.654   4.610 -0.2480 -0.1688 -0.5312
  146MOL0     C19153   3.340   0.725   4.508 -0.1639  0.0786  0.1909
  146MOL0     C19154   3.345   0.881   4.531 -0.4437  0.3463 -1.0862
  146MOL0     C19155   3.229   0.946   4.453 -0.1354 -0.1120  0.9882
  146MOL0     C19156   3.185   0.897   4.313 -0.3365  1.2375 -0.0733
  146MOL0     N19157   3.052   0.944   4.288 -0.4045  0.2998  0.7821
  146MOL0     C19158   2.943   0.857   4.296 -0.0514 -0.2076  0.5220
  146MOL0     C19159   2.842   0.927   4.236 -0.4626  0.6558 -0.8212
  146MOL0     C19160   2.705   0.873   4.223 -0.2345 -0.4489 -0.1889
  146MOL0     C19161   2.635   0.884   4.356  0.0863 -0.0659 -0.2712
  146MOL0     C19162   2.598   1.022   4.407  0.1652 -0.6109 -0.9735
  146MOL0     C19163   2.499   1.088   4.318  0.0752  0.7014  0.7330
  146MOL0     O19164   2.427   1.185   4.391  0.8937 -0.8636 -0.3250
  146MOL0     C19165   2.299   1.205   4.344  0.4993 -0.2935  0.4107
  146MOL0     C19166   2.204   1.096   4.336 -0.1467 -1.0508  0.9966
  146MOL0     C19167   2.074   1.115   4.296 -0.2190 -0.4189  1.1231
  146MOL0     C19168   2.029   1.244   4.276  0.1886  0.2169 -0.0734
  146MOL0     C19169   1.883   1.272   4.234 -0.2349 -0.6874 -0.3017
  146MOL0     O19170   1.798   1.171   4.200 -0.1755 -0.4246  0.2054
  146MOL0     C19171   1.662   1.195   4.192  0.7820 -0.5716 -0.2126
  146MOL0     C19172   1.595   1.274   4.288  0.5546 -0.0402 -0.4065
  146MOL0     C19173   1.455   1.287   4.288  0.9371 -0.6748  0.5384
  146MOL0     C19174   1.375   1.208   4.202  0.3278 -0.5716  0.3898
  146MOL0     O19175   1.238   1.201   4.195 -0.2028 -0.2574 -0.6406
  146MOL0     C19176   1.170   1.329   4.198  0.2900  0.5015 -0.1671
  146MOL0     C19177   1.017   1.316   4.180 -0.0262  0.7634 -0.1831
  146MOL0     C19178   0.970   1.240   4.061 -0.3726 -0.3111  0.8291
  146MOL0     C19179   0.811   1.269   4.051 -0.5899 -0.0832 -0.2876
  146MOL0     C19180   0.751   1.197   3.931  0.1032 -0.2922 -0.7724
  146MOL0     C19181   0.596   1.208   3.937  0.3982  0.1168 -0.3980
  146MOL0     C19182   0.525   1.113   3.835 -0.2894 -0.3716  0.5233
  146MOL0     C19183   0.368   1.118   3.830  0.6821 -0.0297 -0.8585
  146MOL0    Cl19184   0.294   1.087   3.988 -0.0517 -0.4484  0.0216
  146MOL0     C19185   1.442   1.130   4.114 -0.4524  0.3309  0.3468
  146MOL0     C19186   1.578   1.119   4.107 -0.8201  0.0769  0.4233
  146MOL0     O19187   1.856   1.392   4.238  0.2496 -0.5806 -0.7757
  146MOL0     C19188   2.123   1.350   4.283  0.0163 -0.0726 -0.9035
  146MOL0     C19189   2.251   1.335   4.328 -0.2085  0.5286  0.1388
  146MOL0     N19190   2.889   1.054   4.203  0.0341  0.5251 -0.1463
  146MOL0     N19191   3.012   1.064   4.236 -0.3558 -0.9500  0.8270
  146MOL0     C19192   4.064   0.840   4.711  0.5967 -0.3885 -1.4530
  146MOL0     C19193   4.184   0.834   4.776  0.0332  0.4952 -0.7623
  146MOL0     C19194   4.580   0.662   4.938  0.2066 -0.5101 -0.2271
  146MOL0     C19195   4.575   0.672   5.080 -0.2488  0.0918  0.3052
  146MOL0     C19196   4.688   0.620   5.150 -0.0527 -0.1543 -0.0369
  146MOL0     C19197   4.814   0.603   5.078  0.8611  0.3512  0.6893
  146MOL0     O19198   4.932   0.572   5.135  0.0744 -0.2482 -0.6853
  146MOL0     C19199   4.959   0.614   5.273 -0.0696  0.0592  0.0115
  146MOL0     C19200   5.022   0.495   5.355  0.5744 -0.2353 -0.0211
  146MOL0     C19201   4.932   0.377   5.379  0.5941  0.5268  0.8457
  146MOL0     C19202   4.985   0.268   5.470  0.4493  0.9284  0.2603
  146MOL0     C19203   5.017   0.310   5.605 -0.3563 -0.3971 -0.3082
  146MOL0     C19204   5.053   0.344   5.719 -0.3345  0.4668  0.0527
  146MOL0     C19205   4.812   0.621   4.941 -0.2199  0.5942  0.2386
  146MOL0     C19206   4.695   0.646   4.869 -0.0442  0.7469 -0.0341
  146MOL0     H19207   4.156   0.536   4.920  1.3612  0.9666  0.6073
  146MOL0     H19208   3.930   0.545   4.813  0.9032 -1.3864 -1.6553
  146MOL0     H19209   3.879   0.539   4.583 -1.0395 -0.8486  1.3624
  146MOL0     H19210   3.816   0.635   4.464 -2.1625 -1.7397 -1.0901
  146MOL0     H19211   3.650   0.564   4.731 -2.0320  0.2994 -0.3752
  146MOL0     H19212   3.639   0.491   4.575 -1.1648 -0.7345  0.7765
  146MOL0     H19213   3.578   0.703   4.469 -1.4490 -1.7628 -0.5933
  146MOL0     H19214   3.583   0.792   4.624  2.6544  0.0105  0.0787
  146MOL0     H19215   3.414   0.546   4.600  0.2097 -0.3560  0.6346
  146MOL0     H19216   3.404   0.688   4.711 -0.2883  0.0435 -0.6102
  146MOL0     H19217   3.235   0.696   4.517 -0.3870  0.8917  0.3631
  146MOL0     H19218   3.374   0.698   4.408 -0.8192 -1.0619  0.2665
  146MOL0     H19219   3.436   0.929   4.493 -0.9294  0.5964 -1.9618
  146MOL0     H19220   3.339   0.901   4.638 -0.9021 -0.0279 -1.0411
  146MOL0     H19221   3.138   0.936   4.513 -1.0821 -2.5568 -0.6700
  146MOL0     H19222   3.246   1.054   4.448 -2.7755  0.3660  0.5130
  146MOL0     H19223   3.180   0.788   4.305  1.1148  1.1386 -0.0566
  146MOL0     H19224   3.250   0.930   4.231  0.7358 -2.8868 -1.1219
  146MOL0     H19225   2.941   0.754   4.330 -2.7594  0.0828  1.4738
  146MOL0     H19226   2.695   0.770   4.190 -1.1064 -0.3644 -0.2157
  146MOL0     H19227   2.638   0.924   4.153  0.0455  0.6640  0.3320
  146MOL0     H19228   2.701   0.836   4.429 -1.4755 -1.6035  0.1821
  146MOL0     H19229   2.540   0.833   4.340  0.6358 -0.7340 -1.5699
  146MOL0     H19230   2.553   1.019   4.506 -0.6522  0.3517 -1.3073
  146MOL0     H19231   2.695   1.072   4.405  0.0488  0.2873  3.8737
  146MOL0     H19232   2.433   1.010   4.278 -0.8590  1.2784  1.1169
  146MOL0     H19233   2.548   1.136   4.232 -2.1154  3.4740  0.8662
  146MOL0     H19234   2.243   1.004   4.377  0.4767 -1.6588 -0.9022
  146MOL0     H19235   2.007   1.030   4.291 -0.1290 -0.5284  1.7488
  146MOL0     H19236   1.655   1.323   4.363  2.6547 -0.1708 -1.9039
  146MOL0     H19237   1.415   1.343   4.372  1.8140 -2.4128  2.1837
  146MOL0     H19238   1.205   1.397   4.120  0.5353  0.3162 -0.2193
  146MOL0     H19239   1.178   1.377   4.296 -2.4403  2.7424 -0.9154
  146MOL0     H19240   0.973   1.417   4.178 -1.6705  0.1122  1.0826
  146MOL0     H19241   0.964   1.276   4.267 -0.5429  1.2743 -0.2534
  146MOL0     H19242   0.988   1.132   4.074 -1.7287 -0.5323  1.0000
  146MOL0     H19243   1.016   1.275   3.968  0.4654 -3.2156  0.0416
  146MOL0     H19244   0.763   1.239   4.144 -1.1499  1.1865 -0.1490
  146MOL0     H19245   0.797   1.374   4.025  3.1511  0.9267  1.1384
  146MOL0     H19246   0.777   1.093   3.954  0.7587  0.0431  0.0329
  146MOL0     H19247   0.791   1.243   3.840  2.3940  2.6655  1.5442
  146MOL0     H19248   0.555   1.309   3.937 -2.6985 -0.8782  3.1163
  146MOL0     H19249   0.563   1.176   4.037 -0.4980  2.7641  0.2301
  146MOL0     H19250   0.560   1.143   3.736 -1.9872  1.8699  0.5157
  146MOL0     H19251   0.553   1.009   3.851 -1.8378 -1.0668 -0.9221
  146MOL0     H19252   0.336   1.029   3.774 -0.5204 -1.2745  1.6270
  146MOL0     H19253   0.332   1.208   3.780  2.6584  3.0301  2.7231
  146MOL0     H19254   1.376   1.070   4.052  1.8522 -2.6960  0.6013
  146MOL0     H19255   1.624   1.055   4.033 -1.8363  1.1180 -1.1628
  146MOL0     H19256   2.080   1.445   4.254  0.0184  0.1385 -0.2284
  146MOL0     H19257   2.318   1.420   4.342 -0.7686  0.8933  0.6279
  146MOL0     H19258   4.032   0.931   4.662  0.5294 -0.5218 -1.6628
  146MOL0     H19259   4.258   0.913   4.763  0.1845  0.3874 -0.5602
  146MOL0     H19260   4.489   0.719   5.125  0.5388 -0.0668  2.0936
  146MOL0     H19261   4.688   0.607   5.258  1.7324 -0.9260 -0.0973
  146MOL0     H19262   4.876   0.649   5.335 -1.0296 -0.7841 -0.7431
  146MOL0     H19263   5.034   0.692   5.265 -1.5186  1.3831 -1.4169
  146MOL0     H19264   5.114   0.463   5.306 -0.9429  0.1910 -3.4359
  146MOL0     H19265   5.039   0.531   5.457 -2.0820  0.0426  0.4118
  146MOL0     H19266   4.907   0.323   5.287  0.4115 -0.2815  1.3679
  146MOL0     H19267   4.833   0.416   5.403 -0.2199  0.9975 -2.7135
  146MOL0     H19268   4.905   0.193   5.475  0.9991  0.3217  0.1130
  146MOL0     H19269   5.071   0.212   5.433  1.5944  1.4934  1.9639
  146MOL0     H19270   5.077   0.386   5.815 -0.0141 -1.8911  1.0530
  146MOL0     H19271   4.906   0.601   4.891  0.7251  1.5325  1.5720
  146MOL0     H19272   4.695   0.642   4.761 -2.3771 -3.1091 -0.0654
  147MOL0     O19273   4.185   0.393   2.307 -0.3347 -0.0484  0.3312
  147MOL0     C19274   4.173   0.274   2.326  0.2789  0.1386  0.1527
  147MOL0     O19275   4.053   0.200   2.323  0.2106 -0.1655  0.3708
  147MOL0     C19276   3.938   0.268   2.341 -0.2010 -0.0792  0.2058
  147MOL0     C19277   3.855   0.212   2.444 -0.5272 -0.5532 -0.0858
  147MOL0     C19278   3.739   0.266   2.481  0.2740 -0.5460 -0.2974
  147MOL0     C19279   3.689   0.385   2.417 -0.1133  0.6808  0.6012
  147MOL0     O19280   3.565   0.435   2.451 -0.4669 -0.3448 -0.6270
  147MOL0     C19281   3.526   0.431   2.595 -0.2842 -0.4345  0.1401
  147MOL0     C19282   3.405   0.530   2.610  0.3310  0.4289  0.4633
  147MOL0     C19283   3.379   0.524   2.764  0.8536 -0.6067  0.0461
  147MOL0     C19284   3.255   0.601   2.814  0.4188  0.4999 -0.4293
  147MOL0     C19285   3.214   0.556   2.958 -0.2138 -0.6122 -0.2164
  147MOL0     C19286   3.166   0.411   2.967  0.4780 -0.6363  0.1404
  147MOL0     C19287   3.111   0.384   3.103 -0.3370  0.4508 -0.2818
  147MOL0     C19288   3.070   0.237   3.139 -0.8727 -1.1150  0.2750
  147MOL0     N19289   2.947   0.185   3.076 -0.0256  0.7543  0.7399
  147MOL0     C19290   2.944   0.150   2.937  0.1469 -0.4773 -0.3072
  147MOL0     C19291   2.824   0.104   2.920  0.2159  0.3119 -0.1204
  147MOL0     C19292   2.760   0.041   2.795  0.0234 -1.2390 -0.4722
  147MOL0     C19293   2.825  -0.098   2.758  0.0298 -0.7750  0.7239
  147MOL0     C19294   2.794  -0.108   2.619 -0.2438  0.0479 -0.2312
  147MOL0     C19295   2.640  -0.101   2.574 -0.4995  0.0584  0.3489
  147MOL0     O19296   2.579  -0.222   2.616 -1.0366 -0.5215  0.0921
  147MOL0     C19297   2.449  -0.250   2.587  0.1324  0.1095  0.1304
  147MOL0     C19298   2.350  -0.164   2.540 -0.9000 -0.2169 -0.2516
  147MOL0     C19299   2.222  -0.206   2.523 -0.0012  0.5079  0.0468
  147MOL0     C19300   2.180  -0.329   2.550 -0.3087  0.4470  0.4782
  147MOL0     C19301   2.043  -0.376   2.543  1.1937 -0.1226  0.0700
  147MOL0     O19302   1.949  -0.293   2.487  0.1086 -0.2266  0.2274
  147MOL0     C19303   1.814  -0.309   2.516  0.0895  0.1195  0.1054
  147MOL0     C19304   1.765  -0.334   2.640  0.7673  0.5878 -0.2071
  147MOL0     C19305   1.629  -0.352   2.666 -0.7974 -0.3902 -0.2895
  147MOL0     C19306   1.539  -0.331   2.561  0.5042 -1.0427 -0.9066
  147MOL0     O19307   1.408  -0.341   2.585  1.0362 -0.0165 -0.3530
  147MOL0     C19308   1.306  -0.292   2.491  0.1245 -0.6065 -0.8859
  147MOL0     C19309   1.170  -0.341   2.552 -0.0031 -0.2439  0.4649
  147MOL0     C19310   1.064  -0.286   2.460 -0.3033  0.6018 -0.5154
  147MOL0     C19311   0.924  -0.314   2.532  0.3791 -0.2557  0.0779
  147MOL0     C19312   0.797  -0.233   2.501 -0.4547  0.8133  0.2721
  147MOL0     C19313   0.681  -0.267   2.593  0.0895 -0.2089  0.2122
  147MOL0     C19314   0.665  -0.422   2.595 -0.2607  0.3656 -0.1860
  147MOL0     C19315   0.526  -0.466   2.634  1.0075 -0.0921  0.0557
  147MOL0    Cl19316   0.478  -0.404   2.789 -0.2153  0.1125 -0.7339
  147MOL0     C19317   1.590  -0.308   2.438 -0.0507  0.5302  0.7375
  147MOL0     C19318   1.725  -0.292   2.414  0.2741 -0.1838 -0.6459
  147MOL0     O19319   2.013  -0.477   2.599 -0.2671  0.4530  0.0113
  147MOL0     C19320   2.281  -0.420   2.586 -0.7155  0.5478  0.3697
  147MOL0     C19321   2.414  -0.386   2.600  0.1914  0.9399 -0.4875
  147MOL0     N19322   2.761   0.109   3.044  0.6923 -0.2268 -0.0619
  147MOL0     N19323   2.831   0.162   3.136 -0.0613  0.2398 -0.2644
  147MOL0     C19324   3.759   0.429   2.301 -0.4505  0.3062  0.6034
  147MOL0     C19325   3.883   0.383   2.276 -0.4775  0.2076  0.9350
  147MOL0     C19326   4.290   0.194   2.356  0.0189 -0.7177  0.8303
  147MOL0     C19327   4.290   0.053   2.365 -0.2150 -1.4359 -0.1427
  147MOL0     C19328   4.414  -0.018   2.385  0.6763 -0.0898 -0.1533
  147MOL0     C19329   4.533   0.049   2.401 -0.5746 -0.1358  0.4181
  147MOL0     O19330   4.656  -0.002   2.420  0.2092  0.9572 -0.6149
  147MOL0     C19331   4.671  -0.121   2.500  0.1774 -0.0993  0.5992
  147MOL0     C19332   4.794  -0.203   2.469 -0.5612  0.1964  0.3294
  147MOL0     C19333   4.906  -0.097   2.483  0.3606 -0.3091  0.1443
  147MOL0     C19334   5.049  -0.164   2.477 -0.0561  0.7616 -0.1408
  147MOL0     C19335   5.157  -0.065   2.495 -0.7989  0.1657  0.0023
  147MOL0     C19336   5.230   0.030   2.516  0.5072  0.0928  1.2597
  147MOL0     C19337   4.542   0.187   2.382  0.6702  0.1619  0.3843
  147MOL0     C19338   4.421   0.259   2.369  0.1847  0.0584 -0.2774
  147MOL0     H19339   3.897   0.128   2.498 -0.2128  0.0441  0.6128
  147MOL0     H19340   3.685   0.228   2.567  2.0823  1.4372  1.8614
  147MOL0     H19341   3.608   0.451   2.665  0.6327  2.8297 -1.6446
  147MOL0     H19342   3.490   0.330   2.613  3.0559 -1.6409  0.7499
  147MOL0     H19343   3.321   0.500   2.545  1.0384  1.3722 -0.9543
  147MOL0     H19344   3.442   0.629   2.584 -0.3757  1.2735  2.5336
  147MOL0     H19345   3.462   0.578   2.810 -0.4832  0.1225  1.6856
  147MOL0     H19346   3.372   0.418   2.793 -1.4997 -0.4480  0.2898
  147MOL0     H19347   3.280   0.707   2.819  0.3931  0.5935 -1.9884
  147MOL0     H19348   3.177   0.581   2.739  2.2802  0.4552 -2.4361
  147MOL0     H19349   3.132   0.621   2.990  0.4049 -0.1104  0.3854
  147MOL0     H19350   3.297   0.580   3.025 -0.0477  2.5878 -1.3957
  147MOL0     H19351   3.243   0.338   2.941  0.0342 -0.1882 -2.7460
  147MOL0     H19352   3.093   0.406   2.886  0.9391 -0.4380 -0.2947
  147MOL0     H19353   3.185   0.402   3.182 -0.4666  0.5589 -0.1838
  147MOL0     H19354   3.026   0.450   3.125 -1.7587 -1.9341  1.9184
  147MOL0     H19355   3.073   0.220   3.247 -1.7976  0.6117  0.6101
  147MOL0     H19356   3.154   0.182   3.095  1.7722  0.7537  2.5784
  147MOL0     H19357   3.011   0.163   2.852 -0.4090 -1.1284 -0.8615
  147MOL0     H19358   2.757   0.116   2.716 -0.2619 -1.3397 -0.5574
  147MOL0     H19359   2.654   0.027   2.818 -0.0663  0.5505  0.3924
  147MOL0     H19360   2.785  -0.184   2.812 -4.0601 -1.6877 -3.1879
  147MOL0     H19361   2.933  -0.098   2.778 -0.0503  0.4795  1.1848
  147MOL0     H19362   2.856  -0.032   2.570  1.6811 -2.0728 -1.2768
  147MOL0     H19363   2.836  -0.205   2.593  0.4891  0.1232  0.6143
  147MOL0     H19364   2.635  -0.097   2.465 -2.3011 -1.1108  0.3346
  147MOL0     H19365   2.580  -0.020   2.616 -0.8759 -0.3063  0.5309
  147MOL0     H19366   2.383  -0.061   2.529  1.6237 -0.6567  2.1967
  147MOL0     H19367   2.146  -0.138   2.484 -0.0781  0.6258  0.3979
  147MOL0     H19368   1.839  -0.345   2.718  2.5081 -0.7075 -1.9101
  147MOL0     H19369   1.586  -0.369   2.764 -1.0446  2.1879  0.1282
  147MOL0     H19370   1.314  -0.339   2.392  0.2003 -0.3299 -1.0107
  147MOL0     H19371   1.299  -0.183   2.484 -0.9634 -0.5306  0.8332
  147MOL0     H19372   1.157  -0.305   2.654 -0.2207  0.4259  0.2065
  147MOL0     H19373   1.162  -0.450   2.563 -2.3482 -0.1655 -0.1263
  147MOL0     H19374   1.075  -0.349   2.371  0.3724  1.2816 -0.9284
  147MOL0     H19375   1.085  -0.181   2.438 -1.4593  0.8757 -0.3697
  147MOL0     H19376   0.908  -0.418   2.500 -2.0205  0.2460 -0.5909
  147MOL0     H19377   0.941  -0.299   2.638 -0.8119  0.5263  0.1805
  147MOL0     H19378   0.771  -0.257   2.398  1.1538 -1.4636  0.3293
  147MOL0     H19379   0.819  -0.125   2.500  2.0267  0.3729  0.4619
  147MOL0     H19380   0.598  -0.204   2.558  1.0408  0.8520 -0.1856
  147MOL0     H19381   0.708  -0.240   2.695  0.7677 -2.4484  0.6830
  147MOL0     H19382   0.677  -0.448   2.490  0.3003  0.9591 -0.2742
  147MOL0     H19383   0.738  -0.481   2.651 -0.4303  1.0254  0.7608
  147MOL0     H19384   0.517  -0.575   2.632  2.1374 -0.2002 -1.8575
  147MOL0     H19385   0.455  -0.420   2.564 -0.3329 -1.4641  0.4523
  147MOL0     H19386   1.526  -0.309   2.350  2.2799 -2.1575 -1.0936
  147MOL0     H19387   1.761  -0.282   2.312  0.3251  2.2226 -0.4555
  147MOL0     H19388   2.255  -0.522   2.614 -0.5098  0.7581  1.3641
  147MOL0     H19389   2.483  -0.461   2.636 -1.1625  0.1309  0.5306
  147MOL0     H19390   3.716   0.506   2.239 -0.6448  0.3886  0.8374
  147MOL0     H19391   3.934   0.431   2.193 -3.3836 -2.1682 -2.5198
  147MOL0     H19392   4.194   0.003   2.359 -1.2636  0.5044 -0.3279
  147MOL0     H19393   4.397  -0.125   2.386 -2.0185  0.2506  1.8615
  147MOL0     H19394   4.579  -0.179   2.486 -0.7676  1.4414  0.1860
  147MOL0     H19395   4.672  -0.089   2.604  0.5039  1.8234  0.0430
  147MOL0     H19396   4.798  -0.283   2.544  1.3329 -0.8669 -0.8231
  147MOL0     H19397   4.796  -0.255   2.373  0.0903 -1.3085  1.1085
  147MOL0     H19398   4.891  -0.049   2.579  0.9958 -1.1351  0.6691
  147MOL0     H19399   4.900  -0.028   2.398  2.2675  1.3542  1.2843
  147MOL0     H19400   5.063  -0.230   2.563 -1.5505  4.2736  3.0970
  147MOL0     H19401   5.070  -0.220   2.385 -0.2391 -2.1265  1.4576
  147MOL0     H19402   5.288   0.117   2.541 -0.1339  1.3753 -1.4016
  147MOL0     H19403   4.641   0.232   2.389  1.4446  0.1364 -5.4147
  147MOL0     H19404   4.427   0.365   2.349  0.1583  0.3648  1.2280
  148MOL0     O19405   8.819   6.138   0.228  0.0554 -0.0854 -0.7316
  148MOL0     C19406   8.852   6.049   0.307  0.4881 -0.5227 -0.6946
  148MOL0     O19407   8.767   5.987   0.399 -0.4103 -0.0101 -0.6081
  148MOL0     C19408   8.630   5.998   0.388 -0.3173 -0.6402 -0.2471
  148MOL0     C19409   8.561   6.007   0.267  1.3297 -0.5130  0.5611
  148MOL0     C19410   8.418   6.024   0.272 -0.6794 -0.9118  0.0976
  148MOL0     C19411   8.347   6.025   0.391 -0.7308  0.5145  0.1863
  148MOL0     O19412   8.208   6.018   0.387  0.3868  0.3837 -0.2314
  148MOL0     C19413   8.152   6.146   0.365  0.7256 -0.9204  0.2861
  148MOL0     C19414   8.160   6.250   0.485 -0.5988 -0.0359 -1.2474
  148MOL0     C19415   8.085   6.382   0.451 -0.5120 -0.5760  0.3174
  148MOL0     C19416   7.932   6.356   0.443 -0.4564 -0.3950 -0.0736
  148MOL0     C19417   7.861   6.490   0.435  0.5211 -0.7620  0.4606
  148MOL0     C19418   7.706   6.483   0.414 -0.1744  1.3104  0.6842
  148MOL0     C19419   7.673   6.439   0.274 -1.1398 -0.9439  0.1561
  148MOL0     C19420   7.521   6.410   0.241 -0.6761  0.3354  0.0670
  148MOL0     N19421   7.461   6.304   0.310  0.2957 -0.0081  0.0310
  148MOL0     C19422   7.456   6.176   0.266 -0.3335 -0.0358  0.2543
  148MOL0     C19423   7.370   6.110   0.348  0.1397  0.4319 -0.7026
  148MOL0     C19424   7.354   5.968   0.378  0.6019  0.0089 -0.6081
  148MOL0     C19425   7.205   5.919   0.388  0.2676 -0.3540  1.1427
  148MOL0     C19426   7.143   5.874   0.249  0.4739 -0.6043  0.1983
  148MOL0     C19427   6.986   5.846   0.240 -0.2067 -0.0362  0.7542
  148MOL0     O19428   6.933   5.760   0.344 -0.0633  0.3333  0.1447
  148MOL0     C19429   6.798   5.768   0.372 -1.1763 -0.2718 -0.5178
  148MOL0     C19430   6.697   5.811   0.284  0.5555  0.0058  0.2154
  148MOL0     C19431   6.560   5.790   0.307 -0.5659  0.6778  0.2843
  148MOL0     C19432   6.521   5.732   0.431 -0.0646 -0.3734 -1.2998
  148MOL0     C19433   6.380   5.691   0.458  0.5087 -0.6534 -0.2614
  148MOL0     O19434   6.347   5.654   0.585  0.1958  0.0499  0.0565
  148MOL0     C19435   6.213   5.642   0.606 -0.3650  0.7448 -0.1347
  148MOL0     C19436   6.141   5.523   0.582  0.3524 -1.6196  0.4529
  148MOL0     C19437   6.001   5.523   0.590  0.8143 -0.5273 -0.0665
  148MOL0     C19438   5.933   5.638   0.628 -0.3429  0.2646 -0.5684
  148MOL0     O19439   5.803   5.635   0.649 -0.8178 -0.6707  0.6509
  148MOL0     C19440   5.719   5.552   0.568  0.1595  0.0907 -0.2553
  148MOL0     C19441   5.577   5.620   0.557 -0.1726 -0.3141 -0.0878
  148MOL0     C19442   5.522   5.632   0.701  0.0480 -0.0381  0.0904
  148MOL0     C19443   5.366   5.665   0.709 -0.1663 -0.1750 -0.5347
  148MOL0     C19444   5.331   5.710   0.855  0.1396  0.6149  0.4233
  148MOL0     C19445   5.393   5.619   0.965  0.6056 -0.3314 -0.4731
  148MOL0     C19446   5.340   5.664   1.104 -0.4443 -0.1515 -0.7753
  148MOL0     C19447   5.340   5.546   1.199  0.5251 -0.2528 -0.2615
  148MOL0    Cl19448   5.196   5.442   1.193  0.0696 -0.0562  0.0063
  148MOL0     C19449   6.001   5.759   0.636  0.3563  1.2770 -0.2124
  148MOL0     C19450   6.138   5.760   0.629 -0.0862  0.3128 -0.0494
  148MOL0     O19451   6.302   5.676   0.362  0.5278 -0.4664  0.9581
  148MOL0     C19452   6.623   5.695   0.518  1.0118  0.9487 -0.9484
  148MOL0     C19453   6.755   5.715   0.493 -0.2323 -0.0395 -0.4151
  148MOL0     N19454   7.325   6.206   0.438  0.1388  0.0070  0.4343
  148MOL0     N19455   7.386   6.318   0.426  0.1108  0.4146  1.0623
  148MOL0     C19456   8.423   6.020   0.515  0.0464  0.0094 -0.2225
  148MOL0     C19457   8.566   6.015   0.510 -0.7900  0.1524  0.3591
  148MOL0     C19458   8.989   5.984   0.290 -0.4204 -0.3963 -0.3315
  148MOL0     C19459   9.077   6.034   0.188  0.0660 -1.3032  0.8595
  148MOL0     C19460   9.202   5.973   0.160  0.8713 -0.0275 -0.1517
  148MOL0     C19461   9.242   5.867   0.243 -0.2357  0.1074  0.8019
  148MOL0     O19462   9.355   5.790   0.211  0.2383  0.1461 -0.9619
  148MOL0     C19463   9.353   5.738   0.074 -0.2343 -0.5359 -0.2831
  148MOL0     C19464   9.453   5.624   0.044 -0.0769 -0.4602 -0.8758
  148MOL0     C19465   9.591   5.652   0.092  0.0254  0.1433 -0.1816
  148MOL0     C19466   9.671   5.518   0.077 -0.1106 -0.5429 -0.5450
  148MOL0     C19467   9.810   5.546   0.099 -0.2356 -0.0037  0.5113
  148MOL0     C19468   9.927   5.563   0.103 -0.3755 -0.2897 -0.0541
  148MOL0     C19469   9.162   5.817   0.349 -0.5715 -0.4855  0.2754
  148MOL0     C19470   9.036   5.883   0.374  0.3250  0.3613 -0.5714
  148MOL0     H19471   8.604   6.008   0.168 -1.6553 -1.2447 -0.8537
  148MOL0     H19472   8.352   6.032   0.186 -1.8529 -0.7504  0.9934
  148MOL0     H19473   8.050   6.113   0.342  1.2114 -1.8026 -0.6752
  148MOL0     H19474   8.191   6.200   0.278 -1.8795  4.7209  2.0836
  148MOL0     H19475   8.265   6.271   0.507 -1.4614  0.3834  3.6915
  148MOL0     H19476   8.117   6.207   0.575  1.9983 -2.0470 -0.8439
  148MOL0     H19477   8.122   6.419   0.355  0.3686  0.5799  1.0730
  148MOL0     H19478   8.100   6.457   0.530  1.8404  0.0243 -0.6276
  148MOL0     H19479   7.910   6.293   0.357 -1.0574 -2.3348  1.4155
  148MOL0     H19480   7.900   6.303   0.533  0.5509 -0.1951  0.4210
  148MOL0     H19481   7.904   6.561   0.363 -0.3018  1.9750  2.4960
  148MOL0     H19482   7.860   6.544   0.530 -0.2422 -1.7788  1.0490
  148MOL0     H19483   7.664   6.584   0.427  1.4023  2.4252 -2.0955
  148MOL0     H19484   7.664   6.409   0.483 -2.8369 -0.2447 -2.3317
  148MOL0     H19485   7.715   6.509   0.201  1.4722 -1.1275  1.3576
  148MOL0     H19486   7.724   6.342   0.273 -1.6574 -1.3348  2.9660
  148MOL0     H19487   7.513   6.379   0.136  1.2911 -2.4260  0.6159
  148MOL0     H19488   7.471   6.507   0.251 -0.5897  0.4195 -0.3011
  148MOL0     H19489   7.522   6.131   0.193 -2.7248 -1.6397 -1.0370
  148MOL0     H19490   7.410   5.943   0.468  3.2059  0.9477 -1.8758
  148MOL0     H19491   7.395   5.905   0.298  1.7841 -0.3235  0.2343
  148MOL0     H19492   7.133   5.993   0.424 -1.6504 -1.5139 -0.1860
  148MOL0     H19493   7.208   5.834   0.456  0.3163 -0.1474  1.4014
  148MOL0     H19494   7.166   5.956   0.180 -1.5207  0.2082  0.4082
  148MOL0     H19495   7.194   5.783   0.216  0.0070 -1.3775  1.5379
  148MOL0     H19496   6.968   5.797   0.144 -1.0882 -1.1597  1.4623
  148MOL0     H19497   6.931   5.940   0.254 -0.2829 -0.3509  3.0023
  148MOL0     H19498   6.726   5.865   0.195 -2.5937  0.8339 -0.4132
  148MOL0     H19499   6.485   5.820   0.235  0.8854  4.1369  0.0093
  148MOL0     H19500   6.201   5.441   0.544  2.6956  1.1037 -2.3812
  148MOL0     H19501   5.949   5.430   0.567  2.1191 -1.1013 -0.8135
  148MOL0     H19502   5.705   5.450   0.606 -2.6289  0.8980  1.2141
  148MOL0     H19503   5.763   5.554   0.468 -0.2685  2.0955 -0.4517
  148MOL0     H19504   5.510   5.554   0.501  0.8028 -0.6275 -0.9120
  148MOL0     H19505   5.585   5.721   0.514  2.5140 -0.9532 -1.2698
  148MOL0     H19506   5.572   5.722   0.739  0.3638 -0.3888  0.5169
  148MOL0     H19507   5.545   5.544   0.761 -0.1110  0.7822  1.4061
  148MOL0     H19508   5.326   5.741   0.641  0.1974 -0.0893 -0.6560
  148MOL0     H19509   5.315   5.576   0.670 -0.6662 -0.0418 -0.1917
  148MOL0     H19510   5.222   5.713   0.864 -0.0001  2.0623 -1.1020
  148MOL0     H19511   5.370   5.810   0.874 -2.4272  1.6904  0.5597
  148MOL0     H19512   5.502   5.631   0.959  0.3956  0.9304 -2.4329
  148MOL0     H19513   5.369   5.516   0.937 -1.3030  0.4853 -2.0468
  148MOL0     H19514   5.403   5.741   1.149  0.7144 -0.1373 -2.3318
  148MOL0     H19515   5.237   5.698   1.094 -1.0179 -1.7259 -0.4216
  148MOL0     H19516   5.337   5.579   1.303  0.8025 -2.6443  0.5599
  148MOL0     H19517   5.431   5.485   1.192  0.5826 -0.5146  2.1021
  148MOL0     H19518   5.945   5.848   0.662 -1.4721  0.2842 -0.5982
  148MOL0     H19519   6.197   5.849   0.613 -4.4784  3.0250 -3.1867
  148MOL0     H19520   6.600   5.665   0.620  0.1453  1.3254 -1.0286
  148MOL0     H19521   6.832   5.675   0.558  0.8026 -0.6138 -1.9300
  148MOL0     H19522   8.376   6.030   0.612  0.7074  3.4158 -0.1354
  148MOL0     H19523   8.623   6.013   0.602 -0.1950 -2.9405  0.0098
  148MOL0     H19524   9.050   6.118   0.124  0.5353 -2.1995 -0.5629
  148MOL0     H19525   9.263   6.008   0.077  4.4413 -1.5819  1.6230
  148MOL0     H19526   9.370   5.815  -0.001  2.1064 -0.8508 -0.1472
  148MOL0     H19527   9.256   5.690   0.061  0.0827 -0.9664 -1.1420
  148MOL0     H19528   9.408   5.530   0.078 -3.0075  1.3966  0.9570
  148MOL0     H19529   9.448   5.621  -0.065 -1.6366 -0.9260 -0.8265
  148MOL0     H19530   9.607   5.691   0.192  2.3887  2.9935 -1.5084
  148MOL0     H19531   9.630   5.722   0.016 -0.8803 -0.1943 -0.9745
  148MOL0     H19532   9.631   5.446   0.149  3.2914 -2.3043 -0.2375
  148MOL0     H19533   9.659   5.489  -0.028  0.1167  2.0325 -1.3377
  148MOL0     H19534  10.034   5.554   0.109 -0.3996 -0.4020  0.2020
  148MOL0     H19535   9.197   5.731   0.406 -1.2573 -1.8556 -1.3056
  148MOL0     H19536   8.965   5.839   0.443 -1.5721  1.1790 -1.9240
  149MOL0     O19537   9.042   3.054   8.047 -0.2435  0.2796 -0.0161
  149MOL0     C19538   9.046   2.934   8.073  0.6413  0.3481  0.2368
  149MOL0     O19539   8.949   2.861   8.139 -0.6814  0.7740  0.1562
  149MOL0     C19540   8.837   2.937   8.164 -0.0676 -0.2508  1.0591
  149MOL0     C19541   8.824   2.985   8.290 -0.1839  0.0491 -0.5568
  149MOL0     C19542   8.716   3.062   8.328 -0.5217 -1.0085  0.0920
  149MOL0     C19543   8.601   3.067   8.245 -1.0672  0.6234  0.3978
  149MOL0     O19544   8.483   3.128   8.283 -0.6064 -0.5879  0.6880
  149MOL0     C19545   8.436   3.114   8.419 -0.2989  0.0352 -1.2291
  149MOL0     C19546   8.296   3.185   8.423  0.5053 -0.3691  0.2368
  149MOL0     C19547   8.180   3.113   8.354  0.5254 -0.3744  0.2552
  149MOL0     C19548   8.074   3.216   8.322  0.2406  0.5073  0.9263
  149MOL0     C19549   7.937   3.162   8.276 -0.7571  0.0008  0.2654
  149MOL0     C19550   7.899   3.022   8.341 -0.4081  0.2824  0.6878
  149MOL0     C19551   7.779   2.952   8.288  0.0963 -0.4786  0.2362
  149MOL0     C19552   7.645   2.988   8.355 -0.0217  0.8318  0.0655
  149MOL0     N19553   7.534   2.929   8.284 -0.1898  0.1571  0.8781
  149MOL0     C19554   7.482   2.985   8.167  0.4439  0.5154  0.9233
  149MOL0     C19555   7.382   2.905   8.130 -0.2929  0.1420  0.0906
  149MOL0     C19556   7.296   2.912   8.010 -0.1972  0.1144  0.2150
  149MOL0     C19557   7.150   2.940   8.051  0.1182  0.0724  0.1986
  149MOL0     C19558   7.106   3.088   8.059  0.5693 -0.0316 -0.5020
  149MOL0     C19559   6.957   3.105   8.016 -0.0375  0.4654 -0.2952
  149MOL0     O19560   6.892   3.166   8.129  0.8191 -0.4313  0.6400
  149MOL0     C19561   6.754   3.181   8.120 -0.0765  0.7473  1.3680
  149MOL0     C19562   6.692   3.245   8.220  0.3099  0.0260 -1.7420
  149MOL0     C19563   6.561   3.231   8.254  0.0494 -0.7311  0.4661
  149MOL0     C19564   6.471   3.161   8.161  0.1027  0.9160  0.2264
  149MOL0     C19565   6.328   3.146   8.194 -0.4223  0.1969 -0.7949
  149MOL0     O19566   6.285   3.209   8.308 -0.3072  0.3462 -0.1683
  149MOL0     C19567   6.149   3.195   8.329  0.5315 -0.0775  0.0206
  149MOL0     C19568   6.061   3.273   8.251 -1.0059  0.4591  0.0814
  149MOL0     C19569   5.926   3.272   8.276 -0.4135 -0.0351 -0.5966
  149MOL0     C19570   5.870   3.186   8.378 -0.8329 -0.0061  0.3416
  149MOL0     O19571   5.735   3.153   8.406 -0.2208  0.3581  0.0682
  149MOL0     C19572   5.635   3.183   8.306  0.0088  0.1949  0.7430
  149MOL0     C19573   5.579   3.319   8.341  0.1245 -0.3909 -0.3310
  149MOL0     C19574   5.459   3.382   8.270 -0.6176 -0.0059 -0.3560
  149MOL0     C19575   5.469   3.363   8.121  0.1253 -0.1208 -0.4485
  149MOL0     C19576   5.349   3.439   8.057  0.2327 -0.7645 -0.3375
  149MOL0     C19577   5.344   3.409   7.908 -0.1710 -0.8073 -0.3697
  149MOL0     C19578   5.210   3.471   7.859 -0.1606  0.5748  0.5493
  149MOL0     C19579   5.194   3.433   7.712 -0.6757  0.4989 -0.0234
  149MOL0    Cl19580   5.320   3.520   7.612  0.0758  0.1432  0.0808
  149MOL0     C19581   5.961   3.125   8.466  0.1879 -0.4801 -0.2125
  149MOL0     C19582   6.100   3.127   8.437  0.0994 -0.0691 -0.6867
  149MOL0     O19583   6.257   3.079   8.121 -0.1093 -0.2672 -0.3313
  149MOL0     C19584   6.533   3.116   8.039  0.4870  1.1446  0.3900
  149MOL0     C19585   6.669   3.126   8.021 -0.1385 -0.0235  0.5081
  149MOL0     N19586   7.365   2.811   8.227  0.0991 -0.4123  0.2842
  149MOL0     N19587   7.460   2.827   8.313  1.0085 -0.8532  0.4283
  149MOL0     C19588   8.621   3.017   8.115  0.6329 -0.9448 -0.2180
  149MOL0     C19589   8.732   2.949   8.068  0.2310  0.4127 -0.7250
  149MOL0     C19590   9.168   2.863   8.017 -0.4843  0.4805  0.6447
  149MOL0     C19591   9.214   2.742   8.067  0.1942 -0.2957  0.8232
  149MOL0     C19592   9.326   2.678   8.025 -0.7246  0.6932 -0.1613
  149MOL0     C19593   9.399   2.729   7.916 -0.2860  0.5586  0.1043
  149MOL0     O19594   9.515   2.678   7.863  0.6543 -0.7847 -0.6089
  149MOL0     C19595   9.516   2.544   7.818 -0.1513 -0.0740  0.6446
  149MOL0     C19596   9.662   2.485   7.832  0.1670 -0.9563  0.4720
  149MOL0     C19597   9.695   2.472   7.985  0.2042  0.5282  0.3866
  149MOL0     C19598   9.681   2.324   8.023  1.1511 -0.0173  0.4561
  149MOL0     C19599   9.723   2.304   8.163  0.8125  0.0961  0.0867
  149MOL0     C19600   9.749   2.293   8.282  0.6459  0.5917 -0.1958
  149MOL0     C19601   9.361   2.851   7.868  0.7944 -0.5048  0.0550
  149MOL0     C19602   9.248   2.923   7.921 -0.1685  0.0815 -0.1401
  149MOL0     H19603   8.893   2.957   8.369 -0.1443  1.6711  0.0272
  149MOL0     H19604   8.706   3.117   8.421 -0.0004 -2.9091  1.3357
  149MOL0     H19605   8.511   3.166   8.479  0.5494 -3.2921  0.8530
  149MOL0     H19606   8.425   3.011   8.453 -2.1424  1.0250  1.4702
  149MOL0     H19607   8.297   3.278   8.365 -4.9260  0.0037  0.1830
  149MOL0     H19608   8.265   3.205   8.526 -1.9727 -1.7731 -0.1656
  149MOL0     H19609   8.146   3.034   8.421 -0.5295  0.5812  0.8894
  149MOL0     H19610   8.211   3.070   8.259 -3.1755  1.0683 -1.7885
  149MOL0     H19611   8.056   3.279   8.410  3.8688  0.4589  1.8435
  149MOL0     H19612   8.115   3.285   8.249 -2.0693  0.6515 -0.3278
  149MOL0     H19613   7.943   3.163   8.166 -0.0658 -0.6703  0.2923
  149MOL0     H19614   7.858   3.232   8.308 -1.5667 -1.6368  2.0134
  149MOL0     H19615   7.885   3.034   8.448 -0.3708 -0.0052  0.7267
  149MOL0     H19616   7.985   2.956   8.324  0.9267  1.9976  0.4637
  149MOL0     H19617   7.764   2.980   8.183 -1.5680  0.7770  0.7631
  149MOL0     H19618   7.794   2.844   8.292  2.9996 -0.1134  2.9678
  149MOL0     H19619   7.631   3.096   8.361 -0.0939  0.8588 -0.5588
  149MOL0     H19620   7.639   2.951   8.458 -2.0086  0.4858 -0.1313
  149MOL0     H19621   7.513   3.076   8.117  0.7457 -0.9121 -1.6178
  149MOL0     H19622   7.308   2.814   7.964  1.8539 -0.0634  1.0216
  149MOL0     H19623   7.334   2.988   7.941  0.5034  0.1891  0.6731
  149MOL0     H19624   7.146   2.901   8.153  2.1654  1.1529  0.7443
  149MOL0     H19625   7.090   2.892   7.972  0.4834 -1.0331  0.5676
  149MOL0     H19626   7.132   3.129   8.157 -2.1209  0.3422  0.1523
  149MOL0     H19627   7.157   3.143   7.980 -1.4093 -1.4360 -2.9238
  149MOL0     H19628   6.918   3.004   8.004 -1.7258  1.3571 -2.9286
  149MOL0     H19629   6.951   3.172   7.930  0.6730  3.0031  1.5070
  149MOL0     H19630   6.762   3.288   8.291  1.2323 -1.3201 -1.8041
  149MOL0     H19631   6.533   3.273   8.350 -0.3613  3.2706 -1.1771
  149MOL0     H19632   6.109   3.332   8.174 -1.9148  0.8369 -0.2039
  149MOL0     H19633   5.860   3.333   8.215 -1.7278  1.3467  2.0156
  149MOL0     H19634   5.557   3.106   8.297 -0.4867  0.7247  0.4678
  149MOL0     H19635   5.663   3.189   8.201 -1.2128 -0.0981  0.3824
  149MOL0     H19636   5.661   3.392   8.338 -1.1363  1.1981  1.2424
  149MOL0     H19637   5.547   3.317   8.446 -0.3045 -2.4072 -0.4703
  149MOL0     H19638   5.463   3.487   8.301 -1.1115 -0.5787  1.8234
  149MOL0     H19639   5.368   3.331   8.302 -1.5161  2.1085  0.6500
  149MOL0     H19640   5.564   3.394   8.076  0.2052  0.0866 -0.1379
  149MOL0     H19641   5.451   3.256   8.109  0.9624 -0.4586  1.0532
  149MOL0     H19642   5.363   3.546   8.073  0.8997 -1.0239  0.8623
  149MOL0     H19643   5.256   3.407   8.106 -0.5977  1.7602 -0.1029
  149MOL0     H19644   5.358   3.303   7.887 -3.2917 -1.1216 -1.2719
  149MOL0     H19645   5.422   3.469   7.859 -1.5705  0.3304 -1.2856
  149MOL0     H19646   5.131   3.427   7.920  0.5029  1.2965  1.9801
  149MOL0     H19647   5.198   3.579   7.861 -2.5689  0.3718  3.1749
  149MOL0     H19648   5.096   3.462   7.673 -1.9550 -3.5473 -0.2859
  149MOL0     H19649   5.187   3.324   7.700 -2.1530  0.6147 -0.4047
  149MOL0     H19650   5.935   3.080   8.561  1.0853  3.1070  1.9164
  149MOL0     H19651   6.159   3.069   8.507 -0.8833  2.4812  2.4685
  149MOL0     H19652   6.467   3.064   7.970  0.4835  3.2280 -1.2806
  149MOL0     H19653   6.703   3.074   7.932 -0.1741  0.3952  0.2453
  149MOL0     H19654   8.538   3.024   8.045  0.9926  1.2364 -0.4951
  149MOL0     H19655   8.734   2.898   7.972 -1.1272 -1.6879  0.3015
  149MOL0     H19656   9.148   2.695   8.139 -1.0494  1.4268  0.8712
  149MOL0     H19657   9.356   2.592   8.083 -2.5071  0.6160  0.7101
  149MOL0     H19658   9.497   2.550   7.710 -1.2200  1.6298  0.8901
  149MOL0     H19659   9.436   2.483   7.860 -1.5746  0.2327 -1.4355
  149MOL0     H19660   9.675   2.394   7.772 -2.1568 -1.3382  0.4414
  149MOL0     H19661   9.734   2.555   7.788 -0.8222 -0.6013 -0.6469
  149MOL0     H19662   9.637   2.542   8.045 -0.3718  0.8742 -0.5590
  149MOL0     H19663   9.802   2.491   7.994  0.7065 -0.4838 -2.3894
  149MOL0     H19664   9.585   2.285   7.989  0.9160  1.1156 -0.2240
  149MOL0     H19665   9.752   2.270   7.959 -0.8672 -1.7047 -0.4922
  149MOL0     H19666   9.740   2.285   8.388 -3.9952 -2.7920 -0.5861
  149MOL0     H19667   9.421   2.892   7.788 -1.2921  2.4911 -0.1368
  149MOL0     H19668   9.227   3.026   7.893 -0.8819  1.1736  3.6897
  150MOL0     O19669  10.974  10.322   9.166 -0.8396  0.2728 -0.1157
  150MOL0     C19670  10.978  10.420   9.241  0.4097 -0.1964 -0.4551
  150MOL0     O19671  11.082  10.508   9.256 -0.3886  0.1177 -0.0336
  150MOL0     C19672  11.202  10.477   9.195  0.1814 -0.7096 -0.3472
  150MOL0     C19673  11.206  10.461   9.051  0.0630  0.7668  0.4279
  150MOL0     C19674  11.331  10.434   8.984  0.3726 -0.2089 -0.8140
  150MOL0     C19675  11.447  10.439   9.060 -0.2970  0.3469  0.1441
  150MOL0     O19676  11.574  10.432   9.002  0.7501  0.5867  0.6491
  150MOL0     C19677  11.580  10.327   8.902 -0.5206  0.9209  0.0140
  150MOL0     C19678  11.723  10.295   8.865 -0.0581  0.4761 -0.6452
  150MOL0     C19679  11.807  10.234   8.979  0.5117 -0.6045 -0.2914
  150MOL0     C19680  11.754  10.099   9.044 -0.2044 -0.0529 -0.2038
  150MOL0     C19681  11.822   9.975   8.968  0.1324  0.1605 -0.8346
  150MOL0     C19682  11.753   9.851   9.015  0.3050 -0.2230  0.8477
  150MOL0     C19683  11.824   9.726   8.963  0.2962 -0.7610 -0.0678
  150MOL0     C19684  11.784   9.605   9.046  0.0029  0.0125 -0.1503
  150MOL0     N19685  11.658   9.549   9.006  1.2066  0.1528  0.1520
  150MOL0     C19686  11.545   9.564   9.085 -0.4998  0.6641  1.6909
  150MOL0     C19687  11.444   9.500   9.012  0.8134 -0.3349 -0.7215
  150MOL0     C19688  11.297   9.483   9.060 -0.7132 -0.1437 -0.5208
  150MOL0     C19689  11.247   9.353   8.998  0.4642 -0.0098 -0.2386
  150MOL0     C19690  11.099   9.338   9.031  0.0697  0.4865 -0.8758
  150MOL0     C19691  11.015   9.444   8.966  0.6914 -0.4422 -0.0576
  150MOL0     O19692  10.885   9.384   8.986  0.1103  0.4728  0.2499
  150MOL0     C19693  10.776   9.465   8.991 -0.1672 -0.7986 -0.3120
  150MOL0     C19694  10.661   9.405   9.034 -0.3891  0.2952  0.5230
  150MOL0     C19695  10.538   9.467   9.035 -0.3064  1.1815  0.0370
  150MOL0     C19696  10.537   9.606   8.998  0.3619 -0.4961  0.3604
  150MOL0     C19697  10.407   9.673   8.994  1.2784 -0.5352  0.1614
  150MOL0     O19698  10.300   9.593   8.958 -0.2865 -0.1362  0.4343
  150MOL0     C19699  10.171   9.639   8.959 -0.6082  0.5263  0.2036
  150MOL0     C19700  10.139   9.771   8.922  0.3887  0.0499  0.3982
  150MOL0     C19701  10.005   9.809   8.942  0.0881 -0.4947  0.4280
  150MOL0     C19702   9.906   9.731   8.988  0.1490  0.4541 -1.0339
  150MOL0     O19703   9.782   9.796   9.000  0.4046 -0.0486 -0.2173
  150MOL0     C19704   9.674   9.729   9.068 -0.5078 -0.0398  0.3932
  150MOL0     C19705   9.552   9.809   9.052  0.6140  0.2269 -0.0053
  150MOL0     C19706   9.440   9.761   9.151 -0.7436  0.5167  0.0364
  150MOL0     C19707   9.311   9.836   9.158 -0.3142 -0.7681  0.2715
  150MOL0     C19708   9.325   9.986   9.168 -0.6920  0.1352 -0.1121
  150MOL0     C19709   9.192  10.046   9.146 -0.7263  0.1093  0.2614
  150MOL0     C19710   9.210  10.193   9.160  0.3395 -0.1415  0.5741
  150MOL0     C19711   9.080  10.265   9.128 -0.3541 -0.7056  0.2488
  150MOL0    Cl19712   8.966  10.246   9.260  0.1789 -0.0631 -0.3371
  150MOL0     C19713   9.937   9.597   9.021 -1.1630 -0.8664  0.0432
  150MOL0     C19714  10.067   9.551   9.005 -0.4052  0.3022  0.9320
  150MOL0     O19715  10.404   9.794   9.025 -0.5167 -0.5006 -0.6494
  150MOL0     C19716  10.657   9.668   8.954 -0.7996  0.7657 -0.0392
  150MOL0     C19717  10.777   9.599   8.955 -0.3704 -1.0109  0.6575
  150MOL0     N19718  11.498   9.452   8.891 -0.3603  0.1255 -0.2806
  150MOL0     N19719  11.623   9.483   8.894  0.0996  0.7236 -0.3669
  150MOL0     C19720  11.445  10.459   9.201 -1.3017 -0.2312 -0.1146
  150MOL0     C19721  11.321  10.470   9.266  0.4257  0.2635 -0.0795
  150MOL0     C19722  10.854  10.463   9.302 -0.3235 -0.3128  0.1477
  150MOL0     C19723  10.762  10.376   9.365  0.2766 -0.6504  0.0900
  150MOL0     C19724  10.648  10.438   9.435 -0.5140 -0.9949 -0.4283
  150MOL0     C19725  10.631  10.578   9.431 -0.1729  0.4464  0.3636
  150MOL0     O19726  10.519  10.631   9.487 -0.0371 -0.2571  0.5168
  150MOL0     C19727  10.515  10.771   9.494  0.3280 -0.1150  0.2159
  150MOL0     C19728  10.407  10.804   9.604 -0.1257  0.7252 -0.5556
  150MOL0     C19729  10.266  10.740   9.566 -0.3375 -0.4234 -0.2573
  150MOL0     C19730  10.173  10.747   9.686 -0.7431  0.9883 -0.6328
  150MOL0     C19731  10.035  10.725   9.645 -0.2111  0.0772 -0.0751
  150MOL0     C19732   9.926  10.711   9.593  0.1500 -0.1020  0.0138
  150MOL0     C19733  10.717  10.653   9.349  0.3797  0.5169 -0.6317
  150MOL0     C19734  10.821  10.596   9.287 -0.2152  0.0062 -0.8827
  150MOL0     H19735  11.117  10.473   8.989 -0.2820 -1.0972  0.4897
  150MOL0     H19736  11.320  10.419   8.877  0.2867  1.4491 -1.0619
  150MOL0     H19737  11.522  10.363   8.816 -0.5080 -1.0942 -0.9027
  150MOL0     H19738  11.539  10.231   8.936  1.5039 -0.6636 -1.7312
  150MOL0     H19739  11.774  10.381   8.822 -2.6705  0.5884 -3.8775
  150MOL0     H19740  11.721  10.216   8.790 -0.2772 -0.6126  0.4651
  150MOL0     H19741  11.807  10.311   9.056 -0.0325 -1.8384  0.9980
  150MOL0     H19742  11.908  10.209   8.944  0.6771  1.7305 -1.6703
  150MOL0     H19743  11.790  10.095   9.147  1.5272  3.8025 -0.5248
  150MOL0     H19744  11.645  10.086   9.047 -0.2555  0.2960 -0.5878
  150MOL0     H19745  11.928   9.965   8.995 -0.0109  4.4910  2.5927
  150MOL0     H19746  11.805   9.998   8.863 -2.9141  1.0078 -0.2519
  150MOL0     H19747  11.645   9.855   8.994  0.4720 -4.0167 -1.5346
  150MOL0     H19748  11.766   9.857   9.124  1.0312  2.5151  0.7028
  150MOL0     H19749  11.786   9.708   8.862 -1.5842 -2.2379  0.8281
  150MOL0     H19750  11.932   9.740   8.957  0.0279  1.7278 -0.1756
  150MOL0     H19751  11.764   9.626   9.151 -0.2178  0.6072 -0.3077
  150MOL0     H19752  11.863   9.529   9.042  0.2632  0.2014  1.0701
  150MOL0     H19753  11.527   9.616   9.178 -1.8465  3.3605  0.0480
  150MOL0     H19754  11.232   9.564   9.026 -1.9738 -0.1312  1.7356
  150MOL0     H19755  11.298   9.487   9.170 -0.6603 -1.4694 -0.4547
  150MOL0     H19756  11.298   9.266   9.041 -3.9077 -1.4052  2.8314
  150MOL0     H19757  11.257   9.357   8.890 -1.6499  2.9744 -0.4283
  150MOL0     H19758  11.078   9.244   8.980  0.0272 -0.7939  1.3632
  150MOL0     H19759  11.076   9.326   9.138 -2.6411 -0.7669 -1.5078
  150MOL0     H19760  11.021   9.454   8.857 -2.0137  2.5620 -0.0864
  150MOL0     H19761  11.026   9.542   9.013 -2.0086  0.7061 -1.5901
  150MOL0     H19762  10.656   9.307   9.081 -3.3576  0.3204  0.4597
  150MOL0     H19763  10.450   9.415   9.071 -0.1709  1.1633  0.3443
  150MOL0     H19764  10.216   9.839   8.889  0.9386 -0.5606  0.4146
  150MOL0     H19765   9.979   9.914   8.929  2.2665 -0.1052 -1.3535
  150MOL0     H19766   9.700   9.723   9.174 -0.5844  2.2336  0.5851
  150MOL0     H19767   9.661   9.625   9.038  0.8728 -0.3205  0.7303
  150MOL0     H19768   9.512   9.787   8.953  2.1117 -1.7760 -0.2207
  150MOL0     H19769   9.575   9.916   9.064 -1.3544  0.7174 -0.2673
  150MOL0     H19770   9.488   9.777   9.248 -1.7166  0.4419  0.5371
  150MOL0     H19771   9.418   9.655   9.134 -2.4040  0.6139  1.3827
  150MOL0     H19772   9.267   9.818   9.060  3.0139 -2.6099 -1.0784
  150MOL0     H19773   9.245   9.791   9.233 -1.0306  2.7461  1.9443
  150MOL0     H19774   9.399  10.024   9.096  1.6125 -1.2510  1.3760
  150MOL0     H19775   9.359  10.013   9.269  2.7483 -1.8220 -0.5563
  150MOL0     H19776   9.125   9.996   9.217 -1.7570 -3.2227 -2.7743
  150MOL0     H19777   9.151  10.024   9.047 -0.0477 -0.3195  0.0697
  150MOL0     H19778   9.236  10.214   9.264  1.4258  1.0065  0.0979
  150MOL0     H19779   9.295  10.237   9.106  0.7993  1.6731  2.6515
  150MOL0     H19780   9.029  10.233   9.037 -1.0325 -1.5567  0.9176
  150MOL0     H19781   9.097  10.373   9.120 -2.5630  0.0582  3.8037
  150MOL0     H19782   9.848   9.542   9.047 -1.8340  0.2274  0.1500
  150MOL0     H19783  10.093   9.446   9.003 -0.8143  0.1579 -2.2608
  150MOL0     H19784  10.653   9.774   8.935  1.0901  0.9750  0.5030
  150MOL0     H19785  10.873   9.639   8.924 -1.0148  0.1837  0.1513
  150MOL0     H19786  11.547  10.477   9.236 -1.2431  2.3019 -1.3803
  150MOL0     H19787  11.316  10.493   9.372  0.9227 -1.0665  0.2452
  150MOL0     H19788  10.762  10.267   9.366  2.8906 -0.7122  0.8877
  150MOL0     H19789  10.582  10.379   9.498 -0.8803  0.7530  0.8918
  150MOL0     H19790  10.487  10.802   9.393 -4.6642 -1.8116  0.8373
  150MOL0     H19791  10.610  10.817   9.525  1.0780 -1.9143  0.7326
  150MOL0     H19792  10.436  10.757   9.698 -1.7502 -1.3248 -1.0016
  150MOL0     H19793  10.392  10.912   9.611  0.6476  0.8477 -0.6876
  150MOL0     H19794  10.272  10.635   9.536  2.8894 -0.5168  0.3354
  150MOL0     H19795  10.225  10.803   9.486  2.1629  1.7556  0.0237
  150MOL0     H19796  10.202  10.663   9.749  1.3251  1.7277 -0.4873
  150MOL0     H19797  10.188  10.836   9.747 -0.1678  0.2383  0.3429
  150MOL0     H19798   9.833  10.693   9.543  0.7463  0.7596 -1.4549
  150MOL0     H19799  10.714  10.761   9.336  2.3591  0.6364 -0.3406
  150MOL0     H19800  10.888  10.665   9.237 -1.1819  0.8971 -0.9660
  151MOL0     O19801   6.104   6.038  10.070 -0.6440  1.0210  0.1103
  151MOL0     C19802   6.147   6.129  10.136  0.2164  0.7900  0.3359
  151MOL0     O19803   6.069   6.211  10.197  0.3504  0.0633  0.6794
  151MOL0     C19804   5.958   6.158  10.251  1.0232 -0.4001  0.1675
  151MOL0     C19805   5.967   6.114  10.386  0.8068 -0.0895  0.4571
  151MOL0     C19806   5.847   6.088  10.453  0.3584  0.7472  0.9332
  151MOL0     C19807   5.723   6.112  10.398 -0.1328  0.5192  0.0864
  151MOL0     O19808   5.600   6.102  10.464  0.4458  0.6559 -0.5655
  151MOL0     C19809   5.574   5.985  10.546  0.0222 -0.5664 -0.6642
  151MOL0     C19810   5.460   6.012  10.636 -0.1178  0.4459 -0.3788
  151MOL0     C19811   5.327   5.973  10.582 -0.2837  0.6242 -0.1104
  151MOL0     C19812   5.282   6.052  10.451 -0.1730  0.0300 -0.0268
  151MOL0     C19813   5.133   6.040  10.433  0.8333  0.0364  0.4611
  151MOL0     C19814   5.092   6.064  10.283 -0.7704 -0.4779 -0.0224
  151MOL0     C19815   4.946   6.105  10.269 -0.4840  0.1453 -1.4309
  151MOL0     C19816   4.846   5.991  10.310  0.0028 -0.6640  0.3257
  151MOL0     N19817   4.725   6.059  10.330  0.3707 -0.6801  0.1329
  151MOL0     C19818   4.629   6.067  10.232 -0.4039 -0.3456  0.0537
  151MOL0     C19819   4.514   6.100  10.299  0.4843  0.2272 -0.2919
  151MOL0     C19820   4.379   6.137  10.246  0.1595  0.4032 -0.0656
  151MOL0     C19821   4.296   6.009  10.257  0.3978 -0.0256 -0.6143
  151MOL0     C19822   4.152   6.041  10.225  0.4885  0.2685  1.0503
  151MOL0     C19823   4.082   5.904  10.220  0.3046 -1.0093 -0.0792
  151MOL0     O19824   3.939   5.925  10.204 -0.6148  0.3081 -0.9660
  151MOL0     C19825   3.892   5.936  10.075 -0.3889  1.0145 -0.0333
  151MOL0     C19826   3.759   5.924  10.068 -0.3030 -1.0585 -0.9361
  151MOL0     C19827   3.690   5.931   9.949 -0.5380 -0.8864  0.3602
  151MOL0     C19828   3.759   5.965   9.832  0.1783  0.4032  0.5077
  151MOL0     C19829   3.686   5.979   9.706 -0.6756 -0.2703  0.6300
  151MOL0     O19830   3.559   5.939   9.708 -0.0113 -0.1107 -0.3906
  151MOL0     C19831   3.482   5.938   9.593  0.3990 -0.2908 -0.2246
  151MOL0     C19832   3.394   6.050   9.571 -0.5250 -0.7410 -0.5865
  151MOL0     C19833   3.315   6.056   9.464  0.3827  0.5216  0.0336
  151MOL0     C19834   3.315   5.952   9.370 -0.4213  0.3143  0.7812
  151MOL0     O19835   3.252   5.964   9.249  0.2317  0.2373  0.4421
  151MOL0     C19836   3.143   5.874   9.213 -0.6279  0.3148  0.0808
  151MOL0     C19837   3.068   5.942   9.096 -0.4940  0.2546  0.5637
  151MOL0     C19838   2.929   5.885   9.054  0.0072  0.9375 -0.6444
  151MOL0     C19839   2.827   5.983   8.990 -0.4017 -0.2777  0.3527
  151MOL0     C19840   2.704   5.896   8.974 -0.1678  0.2513 -0.0160
  151MOL0     C19841   2.578   5.978   8.930 -0.3160  0.7038 -0.1449
  151MOL0     C19842   2.464   5.884   8.902 -0.5503  0.3818 -0.3985
  151MOL0     C19843   2.345   5.957   8.837 -0.1315 -0.1288 -0.2209
  151MOL0    Cl19844   2.287   6.088   8.938 -0.2394 -0.0259 -0.1497
  151MOL0     C19845   3.390   5.839   9.395  0.7237  0.1155 -0.4543
  151MOL0     C19846   3.479   5.830   9.501  0.7106  0.5473  0.3204
  151MOL0     O19847   3.740   6.026   9.606  0.0300  0.4560 -0.3080
  151MOL0     C19848   3.900   5.979   9.836 -0.0609  0.2152 -0.5066
  151MOL0     C19849   3.968   5.969   9.960  0.2211  0.8034  0.6342
  151MOL0     N19850   4.543   6.096  10.433  0.0943 -0.3804 -0.3622
  151MOL0     N19851   4.669   6.079  10.451 -0.7108  0.2471  0.1875
  151MOL0     C19852   5.715   6.141  10.264 -0.2963 -1.4601  0.4204
  151MOL0     C19853   5.836   6.174  10.196  0.2742  0.2695  0.5625
  151MOL0     C19854   6.289   6.162  10.136  0.0064  0.1763  0.1721
  151MOL0     C19855   6.339   6.256  10.225  0.0718  0.1914  0.7963
  151MOL0     C19856   6.456   6.317  10.190  0.1816  0.3223 -0.0647
  151MOL0     C19857   6.550   6.273  10.093  0.0599 -0.0870  0.4637
  151MOL0     O19858   6.672   6.335  10.094  0.0590  0.1365  0.5876
  151MOL0     C19859   6.790   6.261  10.050  1.0421 -0.1112  0.0835
  151MOL0     C19860   6.913   6.325  10.106  0.5064 -0.6140  0.3545
  151MOL0     C19861   6.911   6.343  10.251 -0.1752 -0.0407 -0.1242
  151MOL0     C19862   6.959   6.224  10.330 -0.2987  0.8106  0.4124
  151MOL0     C19863   7.021   6.264  10.457 -0.0884 -0.1086 -0.0334
  151MOL0     C19864   7.084   6.295  10.555 -0.3344 -1.1915 -0.5298
  151MOL0     C19865   6.513   6.154  10.024 -0.0198  0.4194 -0.8741
  151MOL0     C19866   6.378   6.106  10.045 -0.1703 -0.7075  0.4747
  151MOL0     H19867   6.060   6.111  10.441  0.3944  6.0097  2.3107
  151MOL0     H19868   5.853   6.059  10.557 -2.7286 -0.6510  0.8574
  151MOL0     H19869   5.666   5.964  10.601 -0.3567  1.8217  1.0402
  151MOL0     H19870   5.544   5.901  10.483 -1.3124 -0.4195 -0.2516
  151MOL0     H19871   5.470   6.117  10.665  1.0926  0.4800 -0.8805
  151MOL0     H19872   5.467   5.954  10.728  2.6836  3.3705  1.4507
  151MOL0     H19873   5.264   6.006  10.665  1.4644 -0.0985  1.5833
  151MOL0     H19874   5.308   5.866  10.568 -0.1414  0.0874  3.1165
  151MOL0     H19875   5.317   6.156  10.447  1.9770 -0.5863  1.0118
  151MOL0     H19876   5.324   6.008  10.360 -3.8358  1.1034 -2.4598
  151MOL0     H19877   5.097   6.131  10.481 -1.3076 -0.0166 -0.9188
  151MOL0     H19878   5.081   5.948  10.462  1.0055 -0.6315 -1.2304
  151MOL0     H19879   5.089   5.970  10.226 -0.5269 -0.2578 -0.4007
  151MOL0     H19880   5.166   6.134  10.243 -1.9190  0.7105 -0.1282
  151MOL0     H19881   4.929   6.187  10.339  1.2276 -2.4498  2.3788
  151MOL0     H19882   4.921   6.139  10.168 -1.8906 -0.5630 -1.3372
  151MOL0     H19883   4.878   5.928  10.394  0.8164 -0.3399  0.2699
  151MOL0     H19884   4.844   5.933  10.217  0.1601  1.9111 -1.3909
  151MOL0     H19885   4.645   6.051  10.126 -0.7503  1.8012 -0.3821
  151MOL0     H19886   4.377   6.185  10.148 -2.2025  0.0340 -0.2477
  151MOL0     H19887   4.332   6.204  10.318  4.3632  1.0206  2.4867
  151MOL0     H19888   4.307   5.979  10.362 -3.4476  2.3573  0.7003
  151MOL0     H19889   4.342   5.936  10.191 -2.4970 -0.1479 -2.6912
  151MOL0     H19890   4.103   6.100  10.303 -1.8390 -0.6853  0.4075
  151MOL0     H19891   4.147   6.094  10.129 -0.8170 -0.3468  0.7475
  151MOL0     H19892   4.107   5.844  10.308  1.1250 -0.5467  0.0178
  151MOL0     H19893   4.122   5.848  10.135 -0.8643  1.9904 -2.8042
  151MOL0     H19894   3.708   5.919  10.163  1.2671  0.7339  0.0588
  151MOL0     H19895   3.585   5.922   9.972 -0.7954  1.7944  0.4945
  151MOL0     H19896   3.389   6.138   9.635 -2.3839 -0.0903 -1.5547
  151MOL0     H19897   3.240   6.133   9.449  0.7104  1.0070  0.8464
  151MOL0     H19898   3.083   5.855   9.302 -0.0854  0.0398  0.3948
  151MOL0     H19899   3.176   5.778   9.171  1.2180 -0.3786  2.8297
  151MOL0     H19900   3.136   5.956   9.011  0.2834  1.3606  1.3379
  151MOL0     H19901   3.065   6.040   9.146  3.5607  1.2524 -0.7878
  151MOL0     H19902   2.882   5.835   9.139 -0.5923  1.5244 -0.6162
  151MOL0     H19903   2.951   5.800   8.988  0.7361 -0.6716  1.5540
  151MOL0     H19904   2.808   6.062   9.063  0.0431 -0.8325  1.0780
  151MOL0     H19905   2.859   6.019   8.892 -0.2047 -0.9151  0.1776
  151MOL0     H19906   2.692   5.862   9.077  1.3469  1.4513  0.6110
  151MOL0     H19907   2.716   5.815   8.901 -1.9754 -0.1606  0.1052
  151MOL0     H19908   2.612   6.039   8.846 -1.7684  2.1451  0.2591
  151MOL0     H19909   2.555   6.039   9.018 -1.0391  0.6440 -0.2845
  151MOL0     H19910   2.506   5.810   8.834  0.1129  3.9796 -4.2991
  151MOL0     H19911   2.425   5.842   8.996 -0.2963 -0.4379 -0.6512
  151MOL0     H19912   2.264   5.885   8.823 -1.6768  1.5365 -0.3281
  151MOL0     H19913   2.377   6.004   8.744  1.3513 -0.5982  0.0402
  151MOL0     H19914   3.377   5.772   9.310  1.6975  1.9239 -2.1183
  151MOL0     H19915   3.544   5.743   9.503 -0.5876 -0.6438 -2.5789
  151MOL0     H19916   3.954   6.001   9.744 -0.3862  3.1869 -0.0536
  151MOL0     H19917   4.076   5.973   9.966  0.1522  3.4101  1.0482
  151MOL0     H19918   5.617   6.163  10.222  0.0440  2.1693  1.1585
  151MOL0     H19919   5.833   6.215  10.095  2.6039 -1.0691 -0.1260
  151MOL0     H19920   6.283   6.304  10.305  0.7634 -0.0006  1.4133
  151MOL0     H19921   6.467   6.399  10.260 -0.7949 -1.8749  2.9111
  151MOL0     H19922   6.783   6.256   9.941 -0.5563  1.3345  0.0693
  151MOL0     H19923   6.782   6.157  10.082 -0.1654  0.2245  0.9257
  151MOL0     H19924   7.004   6.277  10.070  1.9732  1.6171  0.8415
  151MOL0     H19925   6.914   6.425  10.061  1.1330 -0.4049  0.8266
  151MOL0     H19926   6.814   6.367  10.296  0.5847 -2.1903  3.0610
  151MOL0     H19927   6.978   6.427  10.273 -0.1969 -0.2244  0.7171
  151MOL0     H19928   6.866   6.169  10.347 -0.0707  0.8589  1.9563
  151MOL0     H19929   7.039   6.170  10.280  1.2784  1.9208  1.6069
  151MOL0     H19930   7.122   6.325  10.650 -1.7215 -2.4851  0.4824
  151MOL0     H19931   6.590   6.112   9.959  1.1208  0.9378  0.1001
  151MOL0     H19932   6.356   6.028   9.972 -0.4004  0.5926 -0.8929
  152MOL0     O19933   6.217   0.163   4.249 -0.1500 -0.1470  0.0984
  152MOL0     C19934   6.251   0.255   4.175 -0.2871 -0.0348 -0.4150
  152MOL0     O19935   6.197   0.279   4.050  0.0576  0.7102  0.3217
  152MOL0     C19936   6.116   0.193   3.978  0.2112  0.0528 -0.8275
  152MOL0     C19937   5.985   0.186   4.006  0.8376  0.4120 -0.5562
  152MOL0     C19938   5.901   0.119   3.915 -0.0050 -0.3182 -1.0845
  152MOL0     C19939   5.951   0.066   3.801 -0.0797 -0.2630  0.3651
  152MOL0     O19940   5.851   0.012   3.717  0.0639  0.4492 -0.0610
  152MOL0     C19941   5.893  -0.030   3.591  0.4293  0.4191 -0.1641
  152MOL0     C19942   5.771  -0.063   3.509  0.3488  0.1782  0.4212
  152MOL0     C19943   5.706   0.071   3.466  0.3307  0.7699  0.1628
  152MOL0     C19944   5.555   0.055   3.430 -0.9268 -0.3000  0.1033
  152MOL0     C19945   5.462   0.022   3.548 -1.0172 -0.3556  1.0038
  152MOL0     C19946   5.324   0.032   3.493 -0.0147  0.1684 -0.0122
  152MOL0     C19947   5.267   0.175   3.483 -0.6123 -0.1813  0.1270
  152MOL0     C19948   5.251   0.256   3.618  0.7181 -0.3953  0.7592
  152MOL0     N19949   5.143   0.215   3.707 -0.4234  0.1890 -0.1092
  152MOL0     C19950   5.017   0.176   3.665 -0.1681  0.5141 -0.3007
  152MOL0     C19951   4.946   0.165   3.786 -0.9626 -0.4551  0.2059
  152MOL0     C19952   4.799   0.127   3.818 -0.5789 -0.0955 -0.2171
  152MOL0     C19953   4.712   0.109   3.691 -0.0747 -0.8746  0.5775
  152MOL0     C19954   4.629  -0.018   3.706 -0.6862  0.0571 -0.6444
  152MOL0     C19955   4.506  -0.036   3.609  0.4254 -0.0854 -0.1438
  152MOL0     O19956   4.413   0.074   3.619  0.7680 -0.3614  0.0428
  152MOL0     C19957   4.287   0.055   3.590 -0.1275 -0.3536  0.1143
  152MOL0     C19958   4.255   0.059   3.451 -0.4437 -0.1684 -0.8424
  152MOL0     C19959   4.121   0.043   3.413  0.7770  0.7304 -0.3786
  152MOL0     C19960   4.021   0.012   3.514  0.0963 -0.4671  1.0021
  152MOL0     C19961   3.878  -0.014   3.465  0.1531  0.9018  0.2400
  152MOL0     O19962   3.801  -0.077   3.559  0.7730  0.5732 -0.6968
  152MOL0     C19963   3.663  -0.096   3.530 -0.4478  0.3042  0.0930
  152MOL0     C19964   3.579   0.012   3.543 -0.1747  0.4592 -0.4334
  152MOL0     C19965   3.453   0.012   3.481 -1.0135  0.7543  0.2038
  152MOL0     C19966   3.413  -0.112   3.419  0.5609  0.5143  0.3275
  152MOL0     O19967   3.298  -0.143   3.355 -0.2199 -0.2213  0.0897
  152MOL0     C19968   3.205  -0.035   3.326 -0.6146  0.4578 -1.3788
  152MOL0     C19969   3.066  -0.097   3.292 -0.1545  0.5930  0.0161
  152MOL0     C19970   3.059  -0.143   3.144  0.5139 -0.5279 -0.6467
  152MOL0     C19971   3.162  -0.247   3.103 -0.8319  0.5053  1.3346
  152MOL0     C19972   3.287  -0.189   3.036  0.1671 -0.2097 -0.6669
  152MOL0     C19973   3.375  -0.286   2.960 -0.4302  0.0425 -0.1145
  152MOL0     C19974   3.462  -0.373   3.053  0.1589  0.6027 -0.2608
  152MOL0     C19975   3.545  -0.480   2.987  0.7794 -0.6681  0.2720
  152MOL0    Cl19976   3.646  -0.589   3.102  0.2283  0.1666 -0.0252
  152MOL0     C19977   3.497  -0.224   3.425  0.2838 -0.5097 -0.7122
  152MOL0     C19978   3.623  -0.213   3.476  0.0547 -0.4742 -0.6436
  152MOL0     O19979   3.841   0.042   3.362  0.2495 -1.1729  0.1526
  152MOL0     C19980   4.055   0.008   3.653  0.0978  0.4946 -0.0108
  152MOL0     C19981   4.189   0.022   3.684  0.2382 -0.0891 -0.2761
  152MOL0     N19982   5.043   0.189   3.891 -0.5295 -0.1097  1.0210
  152MOL0     N19983   5.156   0.214   3.846 -0.0768 -0.0597 -0.0065
  152MOL0     C19984   6.087   0.086   3.767 -0.5409 -0.2500  0.0952
  152MOL0     C19985   6.171   0.142   3.859  0.1110  0.1968  0.3233
  152MOL0     C19986   6.364   0.342   4.215 -0.4541 -0.1301 -0.3348
  152MOL0     C19987   6.449   0.294   4.320 -0.1012  0.0474 -0.0653
  152MOL0     C19988   6.552   0.373   4.374  0.9560  0.1095  0.2611
  152MOL0     C19989   6.568   0.507   4.322  0.0672  0.7116  0.8837
  152MOL0     O19990   6.672   0.580   4.375 -0.5939  1.1877  0.4265
  152MOL0     C19991   6.740   0.689   4.305  0.0324  0.5532  0.3824
  152MOL0     C19992   6.872   0.738   4.382  0.1361 -0.1740 -0.4265
  152MOL0     C19993   6.940   0.834   4.289 -1.0631  0.1791  0.6586
  152MOL0     C19994   7.079   0.866   4.333 -0.1291 -0.3476 -0.0943
  152MOL0     C19995   7.150   0.944   4.223  0.3505  0.4893 -0.0119
  152MOL0     C19996   7.228   0.996   4.141  0.4081  0.0698 -0.3549
  152MOL0     C19997   6.492   0.551   4.204 -0.4941  0.9305  0.4998
  152MOL0     C19998   6.387   0.465   4.153 -0.5550  0.6829 -0.2285
  152MOL0     H19999   5.943   0.244   4.088  0.3539  3.1400 -2.6008
  152MOL0     H20000   5.795   0.129   3.936  0.5232 -0.6091  2.3948
  152MOL0     H20001   5.947  -0.124   3.608 -0.7886  0.2165  3.4603
  152MOL0     H20002   5.952   0.046   3.538 -1.2702  0.5877 -1.9233
  152MOL0     H20003   5.707  -0.130   3.568  1.2636  0.6989  2.0961
  152MOL0     H20004   5.808  -0.120   3.424  0.3226 -0.4681  0.8319
  152MOL0     H20005   5.772   0.126   3.399  0.6332  1.5199  1.0620
  152MOL0     H20006   5.700   0.143   3.548 -0.0372 -0.9883  1.7550
  152MOL0     H20007   5.532   0.157   3.397  2.5587  1.2137  1.8056
  152MOL0     H20008   5.542  -0.021   3.352 -0.5116 -1.5193  1.1947
  152MOL0     H20009   5.478   0.098   3.626  1.1059 -0.4929  0.7553
  152MOL0     H20010   5.484  -0.069   3.604 -1.0392  0.0679  1.7192
  152MOL0     H20011   5.247  -0.013   3.557  0.9370  1.5768  2.2121
  152MOL0     H20012   5.326  -0.026   3.400 -1.8584 -0.6179  0.3918
  152MOL0     H20013   5.341   0.226   3.421 -0.9135 -1.1523 -1.0654
  152MOL0     H20014   5.171   0.177   3.430 -2.3147  2.7727  2.9176
  152MOL0     H20015   5.234   0.363   3.599  1.1985 -0.5857 -0.9906
  152MOL0     H20016   5.348   0.267   3.668  0.6770 -0.9444  0.9650
  152MOL0     H20017   4.992   0.142   3.565  2.6840 -2.5852 -0.1556
  152MOL0     H20018   4.743   0.194   3.884 -0.4421  1.7548 -1.8664
  152MOL0     H20019   4.818   0.036   3.876  0.1328  0.7564  0.9323
  152MOL0     H20020   4.781   0.110   3.606  1.4747 -1.1126  1.7932
  152MOL0     H20021   4.641   0.192   3.685  0.2441 -0.6072  0.4873
  152MOL0     H20022   4.703  -0.096   3.688  0.3372  1.0260 -0.7402
  152MOL0     H20023   4.592  -0.022   3.809  0.7459 -5.2288 -0.0317
  152MOL0     H20024   4.451  -0.126   3.636  0.7623 -0.6340 -1.2454
  152MOL0     H20025   4.534  -0.056   3.505  1.2674 -1.1400  0.2596
  152MOL0     H20026   4.324   0.090   3.373  1.3432 -0.1167  0.6998
  152MOL0     H20027   4.091   0.053   3.310  0.7765 -0.0107 -0.4559
  152MOL0     H20028   3.607   0.096   3.606  1.7469  0.6727 -1.4948
  152MOL0     H20029   3.390   0.100   3.487 -1.0898  0.8990 -2.0612
  152MOL0     H20030   3.243   0.014   3.236 -2.3630 -0.1367 -2.5071
  152MOL0     H20031   3.191   0.032   3.411 -0.3735 -2.0599  0.7812
  152MOL0     H20032   2.987  -0.023   3.308  0.9165  2.1378 -1.4417
  152MOL0     H20033   3.033  -0.187   3.345 -2.0431  0.3111 -1.5076
  152MOL0     H20034   3.068  -0.057   3.078  2.9173  1.0146  1.4971
  152MOL0     H20035   2.959  -0.186   3.133  0.2372  0.7855 -4.3164
  152MOL0     H20036   3.193  -0.314   3.184 -1.0834 -1.3615 -0.0623
  152MOL0     H20037   3.112  -0.302   3.023 -1.6921  3.0861  0.0069
  152MOL0     H20038   3.355  -0.142   3.108  2.8155 -3.2698 -0.9334
  152MOL0     H20039   3.251  -0.118   2.961 -0.0439 -1.6739 -1.9941
  152MOL0     H20040   3.441  -0.228   2.896  0.8093  0.8585  1.8125
  152MOL0     H20041   3.312  -0.358   2.906  0.3966  0.8634 -2.2817
  152MOL0     H20042   3.527  -0.306   3.109 -0.5830 -0.1953  1.6243
  152MOL0     H20043   3.396  -0.413   3.130 -3.1329  0.9942 -2.6522
  152MOL0     H20044   3.612  -0.424   2.921  0.5939 -1.5453 -0.6960
  152MOL0     H20045   3.482  -0.539   2.919 -0.1806 -1.1507  1.5370
  152MOL0     H20046   3.460  -0.324   3.402 -0.3580 -1.6221  4.0588
  152MOL0     H20047   3.685  -0.301   3.466  0.3187 -1.1188  4.2341
  152MOL0     H20048   3.977  -0.012   3.726 -1.5287 -1.9581 -2.2432
  152MOL0     H20049   4.216   0.003   3.787 -1.5929 -0.6840  0.1236
  152MOL0     H20050   6.126   0.065   3.667  1.3071  1.4865  0.3957
  152MOL0     H20051   6.278   0.157   3.863  0.3486 -1.5152  1.3822
  152MOL0     H20052   6.439   0.192   4.354 -3.0074 -0.1465 -1.2602
  152MOL0     H20053   6.618   0.331   4.449  0.2878  0.0773  0.8334
  152MOL0     H20054   6.665   0.766   4.287 -1.6471 -1.5745 -2.8801
  152MOL0     H20055   6.769   0.649   4.208  0.9344 -1.1949  1.3257
  152MOL0     H20056   6.845   0.788   4.475  1.2139 -0.3739 -0.0024
  152MOL0     H20057   6.935   0.649   4.386 -1.5169 -1.7611 -4.2051
  152MOL0     H20058   6.884   0.929   4.283  0.0611  0.8952  1.2222
  152MOL0     H20059   6.943   0.782   4.193  0.0471  1.8541 -0.2744
  152MOL0     H20060   7.084   0.933   4.420 -0.3589 -0.6021  0.1163
  152MOL0     H20061   7.123   0.770   4.359 -1.0304 -0.7303  0.0504
  152MOL0     H20062   7.302   1.043   4.079 -1.0272 -0.9864 -2.9704
  152MOL0     H20063   6.520   0.652   4.176 -0.8155  1.3549  1.6622
  152MOL0     H20064   6.317   0.494   4.076  0.7393 -0.7938 -2.0442
  153MOL0     O20065  10.747   9.774   9.653  0.1712 -0.3232  0.0379
  153MOL0     C20066  10.864   9.727   9.657  0.1699 -0.3607  0.6021
  153MOL0     O20067  10.895   9.622   9.740  0.1094 -0.4200 -0.3141
  153MOL0     C20068  10.800   9.553   9.816 -0.0716 -0.2734 -0.1534
  153MOL0     C20069  10.690   9.496   9.751 -0.9552  0.4397  0.3721
  153MOL0     C20070  10.582   9.439   9.820  0.7065  0.5249  0.0755
  153MOL0     C20071  10.569   9.448   9.960  0.5070  0.1275  0.9159
  153MOL0     O20072  10.452   9.414  10.019 -0.4292  0.0779 -0.7618
  153MOL0     C20073  10.426   9.410  10.163  0.6261 -0.5786 -0.7397
  153MOL0     C20074  10.468   9.272  10.206  0.0057 -0.4104 -0.5681
  153MOL0     C20075  10.370   9.162  10.149  0.4752 -0.3618  0.7611
  153MOL0     C20076  10.412   9.026  10.195 -1.0936 -0.1158  0.2911
  153MOL0     C20077  10.301   8.909  10.193 -0.0535 -0.6504 -0.3216
  153MOL0     C20078  10.339   8.776  10.252 -0.0280 -0.4250  0.2764
  153MOL0     C20079  10.225   8.685  10.287 -0.1552 -0.1067 -0.0311
  153MOL0     C20080  10.150   8.621  10.160 -0.0407 -0.1485  0.1155
  153MOL0     N20081  10.030   8.548  10.208  0.7854 -1.1235  0.5479
  153MOL0     C20082   9.902   8.570  10.163 -0.5558  0.4275  0.2375
  153MOL0     C20083   9.820   8.505  10.240  0.0279  0.1238  0.8199
  153MOL0     C20084   9.662   8.502  10.225  0.0012 -0.3580 -0.1796
  153MOL0     C20085   9.596   8.590  10.331 -0.2994 -0.0581  0.0125
  153MOL0     C20086   9.574   8.512  10.460  0.4830 -0.0482 -0.4604
  153MOL0     C20087   9.473   8.580  10.551  0.2263  0.4727 -0.4686
  153MOL0     O20088   9.346   8.618  10.493 -0.3294 -0.5504 -0.5708
  153MOL0     C20089   9.253   8.670  10.582 -0.5483  0.3283 -0.6482
  153MOL0     C20090   9.115   8.665  10.547 -0.1739  0.2533  0.5708
  153MOL0     C20091   9.018   8.703  10.630  0.5964 -0.9139 -0.2643
  153MOL0     C20092   9.044   8.752  10.756 -0.0389  0.4802  0.4508
  153MOL0     C20093   8.934   8.804  10.849 -0.9587  0.3831  0.3795
  153MOL0     O20094   8.807   8.788  10.796  1.0579 -0.0895  0.1291
  153MOL0     C20095   8.686   8.827  10.856  0.7377  0.8557 -0.0492
  153MOL0     C20096   8.675   8.903  10.977  1.0374 -0.3128 -0.0315
  153MOL0     C20097   8.544   8.931  11.034 -0.4432  0.8943 -0.5733
  153MOL0     C20098   8.428   8.897  10.953 -0.8394 -0.3116 -0.2755
  153MOL0     O20099   8.301   8.920  10.999 -0.5149  0.0631 -0.6251
  153MOL0     C20100   8.271   8.997  11.123  0.1123 -0.3119  0.2978
  153MOL0     C20101   8.118   9.008  11.142  0.5363 -1.2106  0.5139
  153MOL0     C20102   8.077   9.076  11.272 -0.6100 -0.5297  0.2737
  153MOL0     C20103   7.929   9.087  11.263 -0.3790  0.7340  0.0728
  153MOL0     C20104   7.875   9.172  11.375 -0.0592  0.3764  0.7345
  153MOL0     C20105   7.717   9.188  11.369  1.4518  0.3841  0.0848
  153MOL0     C20106   7.629   9.058  11.353 -0.7072 -0.7300  1.2348
  153MOL0     C20107   7.474   9.062  11.357 -0.4029  0.1442  0.1145
  153MOL0    Cl20108   7.421   9.138  11.514  0.3383  0.0316 -0.3849
  153MOL0     C20109   8.445   8.834  10.827  0.8309  0.1323 -0.3486
  153MOL0     C20110   8.568   8.797  10.789 -0.3125 -0.3518  0.4643
  153MOL0     O20111   8.966   8.831  10.964 -0.1647  0.2660 -0.3371
  153MOL0     C20112   9.178   8.760  10.788  0.1075  0.9059 -0.5713
  153MOL0     C20113   9.285   8.713  10.709  0.8055  0.4837  1.0144
  153MOL0     N20114   9.887   8.448  10.345 -0.4343 -1.1240  0.2220
  153MOL0     N20115  10.016   8.472  10.322 -0.7178 -0.0623  0.2777
  153MOL0     C20116  10.691   9.495  10.024  0.1437 -0.0282  0.1215
  153MOL0     C20117  10.801   9.544   9.957  0.1764 -0.1765 -0.4051
  153MOL0     C20118  10.963   9.807   9.578  0.1866  0.4250  0.3353
  153MOL0     C20119  11.106   9.780   9.597  0.1655  0.8279  0.6120
  153MOL0     C20120  11.194   9.854   9.528 -0.2699 -0.3461 -0.3803
  153MOL0     C20121  11.156   9.954   9.440  0.6101 -0.0304  0.0413
  153MOL0     O20122  11.249  10.036   9.369 -0.1256 -0.3912 -0.1634
  153MOL0     C20123  11.212  10.118   9.257  0.0164 -0.3164 -0.6011
  153MOL0     C20124  11.328  10.114   9.160  0.4517 -0.3223  0.2137
  153MOL0     C20125  11.402   9.975   9.132 -0.5144  0.4038  0.0757
  153MOL0     C20126  11.321   9.845   9.148  0.6193 -1.3242  0.3371
  153MOL0     C20127  11.183   9.843   9.086 -1.0315  0.0611 -0.8464
  153MOL0     C20128  11.074   9.851   9.036  0.4728  0.2684 -0.3994
  153MOL0     C20129  11.016   9.971   9.413  0.4641 -0.1740 -0.3359
  153MOL0     C20130  10.931   9.900   9.483  0.8762 -0.3510 -0.0071
  153MOL0     H20131  10.687   9.510   9.644  0.1523  0.9949  0.4012
  153MOL0     H20132  10.501   9.416   9.751  1.3581  2.5018 -1.4656
  153MOL0     H20133  10.317   9.413  10.163  0.5521 -2.3079 -0.6441
  153MOL0     H20134  10.462   9.486  10.234 -0.4680 -2.1881  1.6640
  153MOL0     H20135  10.466   9.272  10.315  0.0113 -0.8270 -0.5670
  153MOL0     H20136  10.571   9.275  10.168 -0.3243 -0.1585 -1.4634
  153MOL0     H20137  10.358   9.165  10.040 -3.9873  0.7835  1.0834
  153MOL0     H20138  10.267   9.184  10.177 -0.7438 -2.5823 -1.5580
  153MOL0     H20139  10.499   8.995  10.136 -1.0971  2.1301 -0.9969
  153MOL0     H20140  10.444   9.037  10.299 -1.4580 -0.8452  0.4842
  153MOL0     H20141  10.245   8.909  10.099 -1.8462  2.6363  0.6023
  153MOL0     H20142  10.225   8.942  10.264 -0.1278  2.1798 -1.6057
  153MOL0     H20143  10.414   8.798  10.329  0.7301  0.8299 -0.7581
  153MOL0     H20144  10.393   8.733  10.167 -0.8990  2.2012 -1.7320
  153MOL0     H20145  10.270   8.603  10.343  1.7472  3.6691  4.7460
  153MOL0     H20146  10.152   8.730  10.355 -0.6520 -3.5226  1.9336
  153MOL0     H20147  10.216   8.550  10.110 -1.0739  0.1078 -1.7055
  153MOL0     H20148  10.107   8.699  10.097 -1.2806 -0.0308  1.0676
  153MOL0     H20149   9.871   8.644  10.090 -2.7163 -0.7733 -0.1599
  153MOL0     H20150   9.626   8.398  10.225 -0.5440 -0.1736  0.3825
  153MOL0     H20151   9.630   8.553  10.134  0.6594  0.8341  0.2406
  153MOL0     H20152   9.505   8.638  10.294 -1.3443 -0.8846  1.4184
  153MOL0     H20153   9.657   8.678  10.354  0.8444 -1.0565  0.9664
  153MOL0     H20154   9.538   8.410  10.442  2.3206 -0.3387 -3.0117
  153MOL0     H20155   9.672   8.504  10.508  0.1673  2.6438  0.8479
  153MOL0     H20156   9.520   8.671  10.590  0.0666  0.8317 -1.1085
  153MOL0     H20157   9.456   8.513  10.636 -2.7061  2.1990  0.4304
  153MOL0     H20158   9.093   8.630  10.447  0.1108  1.9923 -0.1230
  153MOL0     H20159   8.917   8.701  10.593  0.6932 -0.5402 -0.5480
  153MOL0     H20160   8.759   8.928  11.042  0.6112 -1.5620  1.0500
  153MOL0     H20161   8.534   8.977  11.132  0.2257  1.2258 -0.6539
  153MOL0     H20162   8.316   9.096  11.115  0.8688 -0.6785 -0.2095
  153MOL0     H20163   8.308   8.946  11.213 -1.5788 -1.5703  0.3386
  153MOL0     H20164   8.076   8.907  11.133 -0.1267 -0.9078  0.1326
  153MOL0     H20165   8.089   9.063  11.052  0.7590 -0.9220  0.6164
  153MOL0     H20166   8.125   9.174  11.270  0.3333 -0.9852 -0.5773
  153MOL0     H20167   8.112   9.022  11.360 -0.2924 -2.4530 -0.9709
  153MOL0     H20168   7.902   9.127  11.165  0.1066  1.2617  0.1537
  153MOL0     H20169   7.884   8.988  11.275  2.5989 -1.0109 -1.8397
  153MOL0     H20170   7.918   9.272  11.386 -0.3004  0.7035 -0.9081
  153MOL0     H20171   7.889   9.112  11.465  0.0484  0.6160  0.8765
  153MOL0     H20172   7.696   9.254  11.284 -0.2998 -0.8372 -0.4805
  153MOL0     H20173   7.697   9.248  11.458 -0.7156 -0.1398  0.0068
  153MOL0     H20174   7.656   9.007  11.260 -2.6574 -3.1162  1.8717
  153MOL0     H20175   7.674   8.989  11.426  1.7560 -1.7396 -1.0599
  153MOL0     H20176   7.425   8.965  11.353 -0.3910  0.1261  0.3707
  153MOL0     H20177   7.434   9.125  11.277 -0.3579 -0.6372 -0.5309
  153MOL0     H20178   8.352   8.816  10.773  0.3490 -1.3569  0.8853
  153MOL0     H20179   8.577   8.738  10.699  2.0190 -0.8486  0.9706
  153MOL0     H20180   9.202   8.805  10.884 -2.4559  1.5023 -0.1487
  153MOL0     H20181   9.382   8.717  10.758  1.8461  1.2496 -1.0048
  153MOL0     H20182  10.679   9.500  10.132 -1.0524 -0.5792  0.0298
  153MOL0     H20183  10.885   9.588  10.011  1.6904 -3.0469 -0.2266
  153MOL0     H20184  11.150   9.707   9.664 -0.4885 -0.3772 -0.2284
  153MOL0     H20185  11.296   9.841   9.562 -1.1111 -1.5527  1.8460
  153MOL0     H20186  11.201  10.220   9.293  0.5678 -0.1123 -1.0057
  153MOL0     H20187  11.121  10.088   9.204 -0.2060 -1.2470  0.2777
  153MOL0     H20188  11.288  10.148   9.064 -1.0477 -1.4971  0.3829
  153MOL0     H20189  11.404  10.186   9.193  0.8192  0.3067 -1.8790
  153MOL0     H20190  11.497   9.966   9.187 -1.4191  0.8392  1.7625
  153MOL0     H20191  11.428   9.984   9.026 -0.5862 -2.5473 -0.2825
  153MOL0     H20192  11.373   9.762   9.099  2.9193 -0.1439  0.6486
  153MOL0     H20193  11.302   9.832   9.255 -1.2181  0.6955  0.3201
  153MOL0     H20194  10.977   9.876   8.998 -0.0306  0.8708  1.2077
  153MOL0     H20195  10.970  10.033   9.337 -0.7404  0.2809  0.7183
  153MOL0     H20196  10.825   9.924   9.475  1.0817  1.4358  1.7018
  154MOL0     O20197   7.838   3.062   6.144  0.4014  0.5416  0.1045
  154MOL0     C20198   7.870   3.158   6.073 -0.2556 -0.5314 -0.4072
  154MOL0     O20199   7.804   3.276   6.070  0.3403 -0.4498  0.2762
  154MOL0     C20200   7.677   3.293   6.128 -0.6455 -0.4158  0.4948
  154MOL0     C20201   7.654   3.401   6.213  0.1433  0.2007  0.2836
  154MOL0     C20202   7.531   3.403   6.278 -0.5844 -0.7706  0.1554
  154MOL0     C20203   7.421   3.309   6.258 -0.9166  0.3684  0.3555
  154MOL0     O20204   7.306   3.302   6.334 -0.1162 -0.8485 -0.3599
  154MOL0     C20205   7.260   3.427   6.386  0.4426 -0.1218  0.0928
  154MOL0     C20206   7.114   3.408   6.451  0.6892  0.1357  1.1211
  154MOL0     C20207   7.025   3.325   6.348  0.8080 -0.4188  0.0868
  154MOL0     C20208   6.880   3.288   6.383 -0.7778  0.0633  0.2512
  154MOL0     C20209   6.804   3.414   6.414 -0.0955 -0.6357  0.8934
  154MOL0     C20210   6.698   3.401   6.514  0.2631 -0.4136  0.6742
  154MOL0     C20211   6.560   3.371   6.445  0.3094 -0.6466 -0.2105
  154MOL0     C20212   6.448   3.401   6.560 -0.4866 -0.1482 -1.0638
  154MOL0     N20213   6.305   3.376   6.517  0.5388  0.4311  0.0501
  154MOL0     C20214   6.220   3.480   6.486 -0.1138 -0.2192  0.4838
  154MOL0     C20215   6.093   3.432   6.484  0.0275 -0.0973  0.8216
  154MOL0     C20216   5.974   3.514   6.446  0.2705 -0.2965 -0.5844
  154MOL0     C20217   5.978   3.551   6.302 -0.2488  0.7877  0.0642
  154MOL0     C20218   5.864   3.646   6.271 -0.2998  0.3133  0.2823
  154MOL0     C20219   5.726   3.590   6.302 -0.7515 -0.9690  0.0193
  154MOL0     O20220   5.624   3.691   6.280  0.5182  0.5987  0.4543
  154MOL0     C20221   5.508   3.692   6.352 -0.1562  0.0553 -0.2658
  154MOL0     C20222   5.464   3.593   6.431 -0.0076  0.6619 -0.2825
  154MOL0     C20223   5.331   3.587   6.480 -0.9888  0.6978 -0.5130
  154MOL0     C20224   5.243   3.695   6.460  0.1113 -0.2415  0.1396
  154MOL0     C20225   5.112   3.712   6.527 -0.3714  0.0721  0.8331
  154MOL0     O20226   5.047   3.836   6.503  0.0429  0.8890 -0.2503
  154MOL0     C20227   4.932   3.843   6.579 -0.2097 -0.0396  0.5400
  154MOL0     C20228   4.926   3.892   6.712 -0.3184 -0.5572 -0.6132
  154MOL0     C20229   4.805   3.905   6.772 -0.3810 -0.3319 -0.0557
  154MOL0     C20230   4.686   3.877   6.705  0.3837 -0.2619  0.1111
  154MOL0     O20231   4.583   3.888   6.790 -0.2298  0.8336 -0.1225
  154MOL0     C20232   4.457   3.903   6.724 -0.4715  0.2232  0.1758
  154MOL0     C20233   4.358   3.935   6.831 -0.2830  0.1141 -0.4485
  154MOL0     C20234   4.224   3.951   6.767 -0.1750 -0.3340  0.7713
  154MOL0     C20235   4.112   3.976   6.873  0.0811  0.0835  0.9931
  154MOL0     C20236   3.979   4.033   6.817  0.3507  0.0043 -0.2127
  154MOL0     C20237   3.877   3.940   6.759 -0.0385 -0.5859  0.2235
  154MOL0     C20238   3.747   4.023   6.709 -0.7337  0.5810  0.3524
  154MOL0     C20239   3.641   3.925   6.658 -0.0157 -1.2160 -0.2705
  154MOL0    Cl20240   3.527   4.019   6.560  0.0258 -0.1791  0.2589
  154MOL0     C20241   4.689   3.822   6.578 -0.3033  0.6705  0.4471
  154MOL0     C20242   4.811   3.807   6.513  0.0728 -0.0252  0.6510
  154MOL0     O20243   5.080   3.622   6.605 -1.4788  0.0844 -0.1956
  154MOL0     C20244   5.295   3.799   6.380  0.6058 -0.1899  0.2394
  154MOL0     C20245   5.430   3.808   6.328  0.6980  0.2379  1.4153
  154MOL0     N20246   6.110   3.297   6.494  0.3461  1.5602  0.1359
  154MOL0     N20247   6.229   3.258   6.525 -0.0887  0.1193 -0.4787
  154MOL0     C20248   7.449   3.208   6.164  0.0495 -0.1023 -0.3421
  154MOL0     C20249   7.577   3.194   6.106 -0.2932  0.8881 -0.0320
  154MOL0     C20250   8.013   3.153   6.011  0.8165  0.4153 -0.2860
  154MOL0     C20251   8.109   3.066   6.072  0.3523 -0.0042  0.5721
  154MOL0     C20252   8.236   3.061   6.019  0.5322  0.1825 -1.3533
  154MOL0     C20253   8.269   3.130   5.901  0.0401  0.2690  0.1098
  154MOL0     O20254   8.383   3.123   5.833 -0.2499 -0.1777 -0.3088
  154MOL0     C20255   8.495   3.040   5.860  0.2423  0.5061  0.6322
  154MOL0     C20256   8.629   3.109   5.862 -0.3545  0.4521 -0.9832
  154MOL0     C20257   8.691   3.144   5.739  0.3300  0.0702 -0.4525
  154MOL0     C20258   8.821   3.224   5.761  1.0143  0.0854  0.2533
  154MOL0     C20259   8.890   3.244   5.638 -0.5807 -0.0309  0.7325
  154MOL0     C20260   8.935   3.242   5.528 -0.3432  0.2951 -0.2000
  154MOL0     C20261   8.178   3.211   5.841 -0.4852  0.1197  0.2468
  154MOL0     C20262   8.051   3.231   5.891  0.6519  0.0571 -0.7041
  154MOL0     H20263   7.734   3.473   6.229 -0.8646  1.8729 -1.7247
  154MOL0     H20264   7.519   3.480   6.353 -0.1644  0.9972 -1.5226
  154MOL0     H20265   7.279   3.496   6.303 -1.1817  1.5190  1.0037
  154MOL0     H20266   7.325   3.470   6.463  1.4379  1.3830 -1.5153
  154MOL0     H20267   7.068   3.506   6.461  0.2140  0.6044 -3.5231
  154MOL0     H20268   7.107   3.361   6.550 -3.0418  0.1124  0.9753
  154MOL0     H20269   7.061   3.221   6.341  0.9535 -0.3773  0.2042
  154MOL0     H20270   7.044   3.369   6.249 -0.0527  0.1626  0.1753
  154MOL0     H20271   6.830   3.236   6.301  0.0083 -0.7504  0.2761
  154MOL0     H20272   6.882   3.218   6.467 -0.6960 -0.0593  0.1473
  154MOL0     H20273   6.760   3.443   6.318  0.1572 -1.2386  0.5893
  154MOL0     H20274   6.864   3.498   6.450 -1.5884  2.3241 -2.8681
  154MOL0     H20275   6.697   3.498   6.563  4.8209 -0.1830  0.7787
  154MOL0     H20276   6.730   3.322   6.583 -2.8703 -1.8420  0.6594
  154MOL0     H20277   6.544   3.439   6.361  0.1665 -1.7758 -1.1194
  154MOL0     H20278   6.551   3.272   6.400  1.2873 -0.4350 -0.8773
  154MOL0     H20279   6.454   3.500   6.606 -1.5554 -0.0946 -1.0063
  154MOL0     H20280   6.466   3.333   6.644  0.3343  1.1052 -0.1893
  154MOL0     H20281   6.244   3.585   6.470  0.0320 -0.2148  0.7285
  154MOL0     H20282   5.958   3.601   6.510  1.0296  0.9191 -1.9646
  154MOL0     H20283   5.897   3.438   6.462  1.9669 -2.2688 -1.2947
  154MOL0     H20284   5.963   3.463   6.238  1.3136  0.8659 -0.4503
  154MOL0     H20285   6.077   3.594   6.287 -0.1503  0.1080 -1.3557
  154MOL0     H20286   5.875   3.736   6.331 -2.5274 -0.2495  1.6359
  154MOL0     H20287   5.880   3.672   6.166  2.3206 -3.4470 -0.4307
  154MOL0     H20288   5.717   3.559   6.406 -3.9481 -1.8314 -0.4007
  154MOL0     H20289   5.724   3.500   6.239 -0.4400 -1.1015  0.1962
  154MOL0     H20290   5.517   3.503   6.460 -2.5439 -0.1674  2.2932
  154MOL0     H20291   5.299   3.505   6.543  0.8271  1.6676  1.8428
  154MOL0     H20292   5.010   3.909   6.777 -1.0365  0.2506  0.1357
  154MOL0     H20293   4.791   3.946   6.872 -0.0404 -1.0743  0.3010
  154MOL0     H20294   4.431   3.811   6.672 -3.4273  1.8121 -1.4069
  154MOL0     H20295   4.454   3.974   6.641 -1.5539 -0.1442 -0.1107
  154MOL0     H20296   4.380   4.026   6.887 -0.6839  0.1528 -0.3526
  154MOL0     H20297   4.357   3.852   6.902 -1.4267 -2.3585 -3.1328
  154MOL0     H20298   4.195   3.857   6.719 -1.7171  0.3334  0.3136
  154MOL0     H20299   4.228   4.033   6.695  2.5543 -1.9132 -1.0527
  154MOL0     H20300   4.093   3.886   6.932 -1.9941  0.1121  0.4499
  154MOL0     H20301   4.149   4.052   6.942  0.7221  1.8034 -1.1151
  154MOL0     H20302   4.002   4.100   6.733  0.1434 -2.2031 -2.1382
  154MOL0     H20303   3.928   4.086   6.898  0.3776  1.3924 -1.0526
  154MOL0     H20304   3.843   3.861   6.826 -0.2972  0.8363  1.8490
  154MOL0     H20305   3.916   3.884   6.674 -1.3449 -1.3380  0.0994
  154MOL0     H20306   3.709   4.077   6.796  1.0787  0.3294  1.3483
  154MOL0     H20307   3.770   4.091   6.626 -0.5886 -1.0290 -0.9796
  154MOL0     H20308   3.587   3.879   6.741 -1.1078  1.3106  0.5167
  154MOL0     H20309   3.678   3.842   6.597 -0.7312 -1.6961 -0.0557
  154MOL0     H20310   4.597   3.790   6.531 -0.5017  1.6747  0.1231
  154MOL0     H20311   4.807   3.769   6.412 -3.6378 -0.4666  0.8127
  154MOL0     H20312   5.244   3.888   6.345  0.3779  0.7038  2.6330
  154MOL0     H20313   5.454   3.883   6.253 -0.9735 -0.2221  0.3671
  154MOL0     H20314   7.382   3.124   6.147  2.4610 -2.4339  0.9248
  154MOL0     H20315   7.585   3.105   6.043 -1.8030  0.3160  0.5233
  154MOL0     H20316   8.091   3.014   6.166 -1.5672  0.6198  0.5963
  154MOL0     H20317   8.314   3.008   6.073 -0.5838  1.4768  1.7623
  154MOL0     H20318   8.495   2.965   5.780 -0.5216  1.3102 -0.1384
  154MOL0     H20319   8.484   2.987   5.955 -0.9917  1.6545  1.1596
  154MOL0     H20320   8.626   3.199   5.923 -0.1460  0.3069 -0.7605
  154MOL0     H20321   8.692   3.035   5.913  1.9681  0.0184 -4.1887
  154MOL0     H20322   8.626   3.201   5.671  1.1725 -0.1570 -1.4722
  154MOL0     H20323   8.717   3.051   5.689 -0.2033 -1.1851  1.5200
  154MOL0     H20324   8.798   3.323   5.802 -1.2619  0.0379 -0.7639
  154MOL0     H20325   8.871   3.166   5.839 -2.6336  0.6983  3.3778
  154MOL0     H20326   8.984   3.242   5.432  2.3403  2.4766  1.0183
  154MOL0     H20327   8.209   3.273   5.758  1.5614 -1.6055 -0.3691
  154MOL0     H20328   7.976   3.296   5.847 -2.2960 -0.2383  3.3270
  155MOL0     O20329   4.799   4.030  10.243 -0.3813  0.8555 -0.1932
  155MOL0     C20330   4.896   4.052  10.311  0.3752 -0.0406 -0.8306
  155MOL0     O20331   4.898   4.042  10.455 -0.2268 -0.1349 -0.3451
  155MOL0     C20332   4.793   3.994  10.531 -0.0563  1.3736  0.8048
  155MOL0     C20333   4.753   4.060  10.642  0.2349 -0.1737  0.5537
  155MOL0     C20334   4.642   4.024  10.712 -0.1435 -0.2023  0.2027
  155MOL0     C20335   4.568   3.918  10.676  0.0733  0.3666 -0.5026
  155MOL0     O20336   4.450   3.892  10.745  0.8794 -0.3979  0.2040
  155MOL0     C20337   4.360   3.798  10.682  0.3955 -0.5852 -1.0355
  155MOL0     C20338   4.228   3.784  10.765  0.4193 -0.9377 -1.0062
  155MOL0     C20339   4.177   3.644  10.783  0.1960 -0.3066 -1.0766
  155MOL0     C20340   4.033   3.651  10.830  0.3502  0.8191 -0.1013
  155MOL0     C20341   3.963   3.511  10.801 -0.4626  0.3820  0.8246
  155MOL0     C20342   3.931   3.499  10.655 -0.4736  0.0143  0.3076
  155MOL0     C20343   3.867   3.364  10.632  0.0202 -0.2095 -0.8103
  155MOL0     C20344   3.945   3.238  10.663  0.4843  0.2237 -0.5659
  155MOL0     N20345   3.890   3.118  10.606  0.8006  0.5634 -0.1256
  155MOL0     C20346   3.961   3.002  10.572  0.1817  0.3990  0.7536
  155MOL0     C20347   3.860   2.908  10.555 -0.2258  0.2548  0.4595
  155MOL0     C20348   3.881   2.778  10.487  0.0347  0.6257 -0.0844
  155MOL0     C20349   3.750   2.694  10.485 -0.5364 -0.5701 -0.0937
  155MOL0     C20350   3.779   2.553  10.443 -0.9906 -0.1210 -0.1215
  155MOL0     C20351   3.658   2.466  10.409  0.2964  0.0457 -0.0221
  155MOL0     O20352   3.636   2.468  10.267 -0.2166 -0.5478 -0.0651
  155MOL0     C20353   3.507   2.432  10.248 -0.5763 -0.3472 -0.7574
  155MOL0     C20354   3.450   2.311  10.284  0.0684 -0.0490  0.6408
  155MOL0     C20355   3.318   2.284  10.241 -0.0062 -0.3675 -0.4071
  155MOL0     C20356   3.238   2.387  10.170 -0.4018  0.4669 -0.7024
  155MOL0     C20357   3.101   2.365  10.134 -0.2094 -0.8327 -0.4172
  155MOL0     O20358   3.038   2.474  10.096 -0.4056 -0.2062  0.0546
  155MOL0     C20359   2.911   2.456  10.036 -1.0973  0.0851  0.1492
  155MOL0     C20360   2.802   2.451  10.119 -0.1522 -0.0603 -0.1278
  155MOL0     C20361   2.675   2.442  10.064  0.3554  0.9551  1.0273
  155MOL0     C20362   2.652   2.427   9.928 -0.4107 -0.9745  0.2672
  155MOL0     O20363   2.532   2.427   9.867  0.3135  0.1111  0.5710
  155MOL0     C20364   2.412   2.448   9.937 -1.0515 -0.0032 -0.4626
  155MOL0     C20365   2.286   2.445   9.849 -0.6614 -0.3950  0.4579
  155MOL0     C20366   2.267   2.328   9.756 -0.5194 -0.4921  1.1156
  155MOL0     C20367   2.149   2.352   9.661 -0.9360 -0.1501  0.0476
  155MOL0     C20368   2.119   2.242   9.571 -0.1960  0.0757 -0.0758
  155MOL0     C20369   2.049   2.286   9.443  0.8512 -0.2320 -0.5600
  155MOL0     C20370   2.006   2.170   9.358  0.7430 -0.1924 -0.1392
  155MOL0     C20371   1.983   2.198   9.210 -0.1123  0.1989 -0.1976
  155MOL0    Cl20372   1.862   2.320   9.184  0.1904  0.0068 -0.0128
  155MOL0     C20373   2.762   2.440   9.845 -0.4782 -0.5525 -0.5040
  155MOL0     C20374   2.894   2.449   9.899  0.1216  0.2635  0.0145
  155MOL0     O20375   3.053   2.255  10.144 -0.3406  0.2180 -0.9373
  155MOL0     C20376   3.294   2.516  10.160 -0.0321 -0.0945 -0.3432
  155MOL0     C20377   3.431   2.541  10.199 -0.6169  0.3836  0.2106
  155MOL0     N20378   3.736   2.958  10.600 -0.1353  0.5849  0.3058
  155MOL0     N20379   3.759   3.080  10.627  0.2627 -0.6330 -0.0881
  155MOL0     C20380   4.617   3.832  10.570 -0.8587 -0.3270 -0.6737
  155MOL0     C20381   4.725   3.874  10.494 -0.3641 -0.3979 -0.7058
  155MOL0     C20382   5.008   4.126  10.247  0.3846 -0.2287 -0.0684
  155MOL0     C20383   4.997   4.206  10.138 -0.2064  0.0968 -0.3973
  155MOL0     C20384   5.098   4.289  10.096 -0.3163  0.3260  1.2311
  155MOL0     C20385   5.219   4.285  10.160  0.7824 -0.1926  0.2515
  155MOL0     O20386   5.331   4.358  10.134  0.2126  0.2118  0.7662
  155MOL0     C20387   5.391   4.342   9.999  0.6630 -0.7127  0.1818
  155MOL0     C20388   5.520   4.433   9.988  0.6382  0.1749 -0.0392
  155MOL0     C20389   5.582   4.404   9.851 -0.3752 -0.6720 -0.6251
  155MOL0     C20390   5.716   4.476   9.823  0.4699  0.2211  1.3308
  155MOL0     C20391   5.705   4.623   9.805  0.6708  0.1300  0.5584
  155MOL0     C20392   5.683   4.740   9.773 -0.7058 -0.2344 -0.6430
  155MOL0     C20393   5.238   4.199  10.265  0.3957  0.4719  0.4069
  155MOL0     C20394   5.133   4.122  10.311  0.2088 -0.1891  0.2126
  155MOL0     H20395   4.795   4.155  10.671 -2.2584  0.0985  3.9842
  155MOL0     H20396   4.608   4.097  10.785  1.0459  1.7147 -1.0676
  155MOL0     H20397   4.398   3.696  10.679  0.1659 -0.6876 -0.5961
  155MOL0     H20398   4.335   3.833  10.581 -1.0484  1.4220 -0.0620
  155MOL0     H20399   4.153   3.838  10.708  1.7694  3.4274  0.9318
  155MOL0     H20400   4.232   3.833  10.862  3.2680 -0.0627 -1.4688
  155MOL0     H20401   4.237   3.591  10.858 -0.5520 -0.0565 -0.2843
  155MOL0     H20402   4.184   3.587  10.690 -2.3205 -1.4907 -0.6093
  155MOL0     H20403   4.024   3.681  10.935 -2.8892  0.9595 -0.3187
  155MOL0     H20404   3.976   3.726  10.773  2.0941  0.8520 -1.9271
  155MOL0     H20405   3.872   3.507  10.862  1.1659 -2.5470  3.3402
  155MOL0     H20406   4.026   3.433  10.846  0.1595  0.3692 -0.0461
  155MOL0     H20407   4.019   3.493  10.592 -1.1475 -1.6608 -0.5507
  155MOL0     H20408   3.859   3.573  10.619 -0.0317  0.4026  0.2269
  155MOL0     H20409   3.775   3.367  10.692  0.5313 -0.7303  0.0052
  155MOL0     H20410   3.838   3.371  10.527 -2.4613 -0.6261 -0.2308
  155MOL0     H20411   3.962   3.232  10.770 -2.3898 -1.2967 -0.1130
  155MOL0     H20412   4.041   3.251  10.611  0.6092  1.5332 -0.0415
  155MOL0     H20413   4.066   3.017  10.551  0.4333  0.1159  1.7794
  155MOL0     H20414   3.957   2.724  10.543  0.0218  0.7357  0.0387
  155MOL0     H20415   3.912   2.789  10.382  0.6817 -0.7452 -0.0552
  155MOL0     H20416   3.696   2.726  10.395  0.6727 -1.2039 -1.0744
  155MOL0     H20417   3.694   2.718  10.575 -0.1284  1.1562 -0.2736
  155MOL0     H20418   3.851   2.549  10.361  1.0149 -2.0214  1.5713
  155MOL0     H20419   3.832   2.509  10.528  0.8710  0.1725 -1.0857
  155MOL0     H20420   3.568   2.493  10.465 -0.2674 -1.7468  0.0168
  155MOL0     H20421   3.678   2.362  10.439  0.5410 -0.2249 -1.0758
  155MOL0     H20422   3.507   2.243  10.347  0.6640 -0.8818 -0.7671
  155MOL0     H20423   3.276   2.186  10.263  0.5689 -1.0363 -2.1383
  155MOL0     H20424   2.816   2.449  10.226 -1.6144  1.9076  0.1491
  155MOL0     H20425   2.585   2.431  10.124  0.5520  0.9948  1.3334
  155MOL0     H20426   2.417   2.542   9.993  0.8278  0.5432 -1.4627
  155MOL0     H20427   2.406   2.369  10.013  1.1801  1.2126  1.0903
  155MOL0     H20428   2.295   2.538   9.793 -0.4422 -0.6842  0.0026
  155MOL0     H20429   2.203   2.455   9.918 -1.2911 -0.2836 -0.3052
  155MOL0     H20430   2.247   2.233   9.805  0.6463 -0.7688  1.0828
  155MOL0     H20431   2.360   2.308   9.702 -1.1447  0.5002 -0.3978
  155MOL0     H20432   2.058   2.376   9.716 -1.3510 -1.0676 -0.2167
  155MOL0     H20433   2.175   2.442   9.603  0.2276 -0.4209  0.1219
  155MOL0     H20434   2.052   2.181   9.631  0.8358 -2.0451 -0.9567
  155MOL0     H20435   2.213   2.187   9.556 -1.5804 -3.0638  1.8223
  155MOL0     H20436   2.126   2.342   9.388  0.2099  0.6638 -0.5720
  155MOL0     H20437   1.963   2.352   9.459  0.8675 -0.7585  2.1333
  155MOL0     H20438   2.082   2.092   9.364  1.4968  0.6068  1.1308
  155MOL0     H20439   1.921   2.117   9.401 -0.1615  1.4773  0.2265
  155MOL0     H20440   1.955   2.104   9.161  1.9333 -1.1166  1.0391
  155MOL0     H20441   2.083   2.227   9.178  0.2881 -0.7543  0.1399
  155MOL0     H20442   2.747   2.424   9.739  2.2446 -2.9356 -0.6648
  155MOL0     H20443   2.989   2.444   9.848  1.0541 -0.7916  1.7780
  155MOL0     H20444   3.254   2.605  10.112 -2.9540 -1.1121  0.0413
  155MOL0     H20445   3.490   2.628  10.175  0.1594  0.6117  2.7400
  155MOL0     H20446   4.565   3.738  10.556 -0.9784 -0.7838  2.1578
  155MOL0     H20447   4.770   3.801  10.428  0.5306 -1.3558  0.8964
  155MOL0     H20448   4.902   4.234  10.093  0.3707 -1.5610 -2.8908
  155MOL0     H20449   5.096   4.359  10.013  2.3409  0.7605  1.4371
  155MOL0     H20450   5.331   4.376   9.915  1.1251 -0.8014 -0.1908
  155MOL0     H20451   5.409   4.237   9.973 -5.7819 -0.9589 -6.4919
  155MOL0     H20452   5.495   4.537  10.010 -0.7326 -0.5672  2.2840
  155MOL0     H20453   5.591   4.411  10.068 -0.5852 -2.3175  0.4736
  155MOL0     H20454   5.513   4.446   9.777 -2.5237 -0.8306  1.2048
  155MOL0     H20455   5.593   4.297   9.830  0.5974 -1.1530  1.9721
  155MOL0     H20456   5.794   4.453   9.897  1.8222  0.5526  0.0522
  155MOL0     H20457   5.752   4.434   9.729  2.5503  0.7536  1.8206
  155MOL0     H20458   5.658   4.844   9.762  3.5909  1.0926  0.1638
  155MOL0     H20459   5.332   4.190  10.319  0.7135  1.4749  0.0398
  155MOL0     H20460   5.144   4.067  10.404 -0.8778 -0.8860 -0.0443
  156MOL0     O20461   3.948   2.786   5.809  0.8886  0.2386 -0.4597
  156MOL0     C20462   3.998   2.706   5.897 -0.8899 -0.1266 -0.3691
  156MOL0     O20463   3.929   2.631   5.997 -0.0745  0.3487 -0.0482
  156MOL0     C20464   3.789   2.635   5.990  0.5307 -0.2702 -0.3468
  156MOL0     C20465   3.717   2.755   6.011 -0.4321  0.5890  0.0249
  156MOL0     C20466   3.571   2.750   6.015  0.0536  0.7044  0.7987
  156MOL0     C20467   3.504   2.630   5.982  0.0175 -0.2009 -0.4751
  156MOL0     O20468   3.362   2.627   5.963 -0.3131  0.3148  0.6618
  156MOL0     C20469   3.288   2.629   6.083 -0.3803 -0.3323  0.2286
  156MOL0     C20470   3.136   2.603   6.051  0.0766  0.2361 -0.6813
  156MOL0     C20471   3.129   2.464   5.987  1.5064  0.6684 -0.1014
  156MOL0     C20472   2.987   2.417   5.993  0.3338  0.3705  0.0350
  156MOL0     C20473   2.949   2.308   5.888  0.5515  0.1084  1.2729
  156MOL0     C20474   2.936   2.385   5.753 -0.2931 -1.0009 -0.7198
  156MOL0     C20475   2.892   2.277   5.661 -0.5867  0.2075 -0.7526
  156MOL0     C20476   2.881   2.327   5.525 -0.3271  0.7706  0.1126
  156MOL0     N20477   2.786   2.242   5.459  0.5062 -0.2111  0.5703
  156MOL0     C20478   2.800   2.150   5.354  0.1185 -0.3768 -0.2528
  156MOL0     C20479   2.680   2.110   5.325  0.5792  0.3884  0.2908
  156MOL0     C20480   2.655   2.005   5.218 -0.5069  0.1186  0.4266
  156MOL0     C20481   2.682   1.855   5.255  1.1364  0.5291 -0.8678
  156MOL0     C20482   2.571   1.790   5.360  0.1616  0.4260  0.1231
  156MOL0     C20483   2.431   1.842   5.333 -0.5280 -0.6218  1.0012
  156MOL0     O20484   2.349   1.763   5.424  0.1471 -0.6941  0.9972
  156MOL0     C20485   2.214   1.763   5.409  0.2640  0.3066 -0.8103
  156MOL0     C20486   2.140   1.799   5.297  0.4120 -0.0066 -0.4187
  156MOL0     C20487   2.000   1.819   5.310 -0.9509  0.1728  0.4121
  156MOL0     C20488   1.931   1.816   5.430 -0.2727 -0.1865 -0.2079
  156MOL0     C20489   1.787   1.843   5.443 -0.4668 -0.8928  0.2336
  156MOL0     O20490   1.721   1.906   5.333 -0.1727  0.2071  0.0469
  156MOL0     C20491   1.586   1.910   5.334 -0.0070 -0.0187  0.1228
  156MOL0     C20492   1.514   1.879   5.220 -0.5666 -0.3486 -0.2373
  156MOL0     C20493   1.369   1.882   5.214 -0.9281  0.0841 -0.2303
  156MOL0     C20494   1.301   1.919   5.335  0.2281 -0.4812 -0.6821
  156MOL0     O20495   1.172   1.951   5.326  0.1431 -0.3258 -0.4441
  156MOL0     C20496   1.091   1.849   5.388  0.3350  0.8146  0.1392
  156MOL0     C20497   0.984   1.912   5.458  0.2821  0.2968 -0.5992
  156MOL0     C20498   0.907   1.811   5.555  0.1496 -0.0716 -0.3021
  156MOL0     C20499   0.779   1.885   5.611  0.5635  0.3189 -0.2664
  156MOL0     C20500   0.678   1.776   5.663 -0.0664  0.2753 -0.2343
  156MOL0     C20501   0.551   1.843   5.725 -0.3352  0.5222  0.2335
  156MOL0     C20502   0.452   1.737   5.759  0.2785 -0.4295 -0.0304
  156MOL0     C20503   0.341   1.808   5.835  0.0556  0.5735  0.1332
  156MOL0    Cl20504   0.204   1.696   5.834 -0.4628  0.2736  0.0450
  156MOL0     C20505   1.372   1.953   5.450 -0.6851 -0.1760  0.0510
  156MOL0     C20506   1.512   1.957   5.446 -0.2054  0.7033  0.4848
  156MOL0     O20507   1.733   1.787   5.540  0.4577  0.6497 -0.0125
  156MOL0     C20508   2.012   1.776   5.536  0.1008  0.5417  0.6104
  156MOL0     C20509   2.152   1.746   5.529 -0.2436  0.1356  0.5940
  156MOL0     N20510   2.587   2.166   5.404  0.4560 -0.7064  0.4288
  156MOL0     N20511   2.652   2.250   5.481 -0.3291 -0.4333  0.0611
  156MOL0     C20512   3.577   2.518   5.953  0.0068  0.1217  0.0979
  156MOL0     C20513   3.715   2.518   5.972  0.6444  0.3072 -0.0345
  156MOL0     C20514   4.138   2.692   5.899 -0.4864 -0.5094  0.3454
  156MOL0     C20515   4.213   2.660   6.015 -0.2281  0.4067 -0.3285
  156MOL0     C20516   4.350   2.653   6.016 -1.0690 -0.7693 -0.2843
  156MOL0     C20517   4.422   2.671   5.898 -0.2732  0.2631 -0.5076
  156MOL0     O20518   4.554   2.653   5.898 -0.0868  0.0803  0.2101
  156MOL0     C20519   4.622   2.639   5.767  0.0059 -0.4824  1.1226
  156MOL0     C20520   4.759   2.595   5.775 -0.7934  0.1332  0.2058
  156MOL0     C20521   4.841   2.708   5.828  0.4273 -1.0251  0.0377
  156MOL0     C20522   4.983   2.665   5.805 -0.5094  0.3585 -0.3106
  156MOL0     C20523   5.075   2.783   5.833 -0.0527  0.2569 -0.0239
  156MOL0     C20524   5.156   2.875   5.849  0.0058  0.0017  0.3605
  156MOL0     C20525   4.347   2.692   5.781  0.4914 -0.3172  0.3599
  156MOL0     C20526   4.207   2.718   5.783  0.9157  0.0031  1.2109
  156MOL0     H20527   3.762   2.847   6.048 -3.5327  2.7595 -1.1902
  156MOL0     H20528   3.508   2.838   6.018  0.2027  0.9907 -1.8112
  156MOL0     H20529   3.302   2.727   6.129  2.1217 -0.6144  0.2044
  156MOL0     H20530   3.332   2.562   6.157  2.2706 -0.8286 -1.6253
  156MOL0     H20531   3.092   2.688   6.000  1.1216  1.1493 -0.0986
  156MOL0     H20532   3.080   2.599   6.145  1.4983 -0.4554  0.1687
  156MOL0     H20533   3.189   2.386   6.035  0.9360  1.0358  1.2825
  156MOL0     H20534   3.167   2.464   5.885 -2.2780 -2.5968 -1.7603
  156MOL0     H20535   2.974   2.379   6.095  0.8249 -0.1644 -0.0940
  156MOL0     H20536   2.915   2.499   5.996 -1.6237 -1.2313 -0.6568
  156MOL0     H20537   2.854   2.261   5.914 -0.1196  0.2701 -0.6943
  156MOL0     H20538   3.020   2.225   5.890 -0.7377 -1.0852 -0.1452
  156MOL0     H20539   3.033   2.428   5.726  0.3973 -0.9170  1.7081
  156MOL0     H20540   2.863   2.466   5.761 -1.1370 -1.8898  1.2573
  156MOL0     H20541   2.973   2.203   5.658  1.0285  1.8972 -0.7022
  156MOL0     H20542   2.803   2.230   5.704 -0.4318 -0.7119 -1.4174
  156MOL0     H20543   2.970   2.317   5.463 -2.1150  2.5807 -2.9854
  156MOL0     H20544   2.864   2.434   5.547 -0.0014  0.0684  5.1173
  156MOL0     H20545   2.897   2.125   5.312  0.5386 -0.2536  0.6187
  156MOL0     H20546   2.725   2.036   5.140 -0.2319 -3.1643 -0.8094
  156MOL0     H20547   2.554   2.017   5.176 -1.2973 -2.3790  1.3905
  156MOL0     H20548   2.783   1.845   5.297  1.0286  2.4569 -0.0607
  156MOL0     H20549   2.683   1.795   5.163  2.3905  2.3382 -2.0876
  156MOL0     H20550   2.578   1.681   5.365 -3.4009  0.1364  1.3499
  156MOL0     H20551   2.598   1.832   5.457  0.3480  0.9800 -0.1648
  156MOL0     H20552   2.418   1.830   5.225  1.2908  3.0143  0.2166
  156MOL0     H20553   2.417   1.950   5.347 -0.8975 -0.3723 -1.0822
  156MOL0     H20554   2.196   1.823   5.208  3.4354 -2.7038  0.5737
  156MOL0     H20555   1.937   1.833   5.223 -1.8760  4.0533  1.4995
  156MOL0     H20556   1.577   1.873   5.131  0.6220  0.1126  0.5572
  156MOL0     H20557   1.324   1.870   5.116  0.0668 -1.0769 -0.5789
  156MOL0     H20558   1.145   1.785   5.458  0.6943  1.3551  0.3621
  156MOL0     H20559   1.046   1.785   5.312 -2.9739  2.6097  0.4218
  156MOL0     H20560   0.917   1.962   5.387  0.1299  2.0396  0.7244
  156MOL0     H20561   1.031   1.993   5.514 -1.6718  1.6921 -0.8520
  156MOL0     H20562   0.969   1.779   5.640  1.0687  0.8028 -0.6299
  156MOL0     H20563   0.857   1.733   5.498  1.4706  0.1996 -1.9223
  156MOL0     H20564   0.799   1.951   5.695 -2.9306 -1.5665  2.3230
  156MOL0     H20565   0.732   1.940   5.529 -0.0583 -1.1451 -0.9360
  156MOL0     H20566   0.719   1.711   5.741 -0.1855 -0.3048 -0.6465
  156MOL0     H20567   0.635   1.716   5.582  1.4098  0.0439 -0.8751
  156MOL0     H20568   0.511   1.923   5.663  0.9423  1.7422  0.9383
  156MOL0     H20569   0.581   1.897   5.816 -0.9331  2.4589 -0.6692
  156MOL0     H20570   0.413   1.693   5.666  1.0205 -2.3585  0.5341
  156MOL0     H20571   0.487   1.651   5.817 -0.4321 -0.6600  0.0644
  156MOL0     H20572   0.310   1.904   5.792  0.2537  0.7113  0.3014
  156MOL0     H20573   0.365   1.836   5.938  2.5911 -0.3450 -0.1441
  156MOL0     H20574   1.315   2.007   5.525 -2.2120  1.0230 -1.8643
  156MOL0     H20575   1.559   1.994   5.537 -2.3028  0.3856  1.7895
  156MOL0     H20576   1.959   1.756   5.629 -2.0241  1.9436 -0.2133
  156MOL0     H20577   2.208   1.715   5.617  0.4136 -0.6524 -0.0902
  156MOL0     H20578   3.523   2.431   5.917  1.0460  0.1225 -1.5786
  156MOL0     H20579   3.782   2.433   5.959  1.3070  0.9336 -0.8347
  156MOL0     H20580   4.151   2.643   6.102 -0.7415  0.6398 -0.6414
  156MOL0     H20581   4.402   2.620   6.105  2.0021 -2.0761 -2.3659
  156MOL0     H20582   4.614   2.730   5.706 -1.5694 -1.7796 -0.7491
  156MOL0     H20583   4.564   2.563   5.713  1.6591 -2.2895  1.7998
  156MOL0     H20584   4.763   2.507   5.840  0.5481 -1.2954 -1.6851
  156MOL0     H20585   4.780   2.566   5.672 -2.7959 -0.4832 -0.0738
  156MOL0     H20586   4.816   2.723   5.933  0.4066 -0.3927 -0.0544
  156MOL0     H20587   4.817   2.796   5.767 -0.8802  1.2754  3.6076
  156MOL0     H20588   5.001   2.581   5.874  0.4649 -2.0095 -3.2345
  156MOL0     H20589   4.993   2.625   5.704  1.3486 -0.1694  0.0255
  156MOL0     H20590   5.229   2.953   5.858  0.5377 -0.5557  1.0061
  156MOL0     H20591   4.392   2.710   5.684 -0.0490 -1.6314 -0.1450
  156MOL0     H20592   4.163   2.744   5.687  2.1627  0.3844  0.7167
  157MOL0     O20593   9.487   3.644   0.342  0.4453  0.3039 -0.3070
  157MOL0     C20594   9.605   3.665   0.382  0.5083  0.6183 -0.3983
  157MOL0     O20595   9.636   3.697   0.514  0.6202  0.1970 -0.1095
  157MOL0     C20596   9.534   3.743   0.593  0.2834  0.0165 -0.3188
  157MOL0     C20597   9.418   3.667   0.617  0.7645  1.3684 -0.0371
  157MOL0     C20598   9.325   3.718   0.700 -0.1606 -0.5584  0.2251
  157MOL0     C20599   9.327   3.852   0.749 -0.2852  0.2202 -0.1452
  157MOL0     O20600   9.231   3.895   0.837 -0.5112 -0.2050 -0.9034
  157MOL0     C20601   9.113   3.954   0.778  0.2576  0.1339  0.6334
  157MOL0     C20602   9.011   3.993   0.875 -0.8304  0.3205 -0.2327
  157MOL0     C20603   8.939   3.875   0.939  0.6370  0.1889 -0.9900
  157MOL0     C20604   8.854   3.934   1.061 -0.6944  0.0350  0.3921
  157MOL0     C20605   8.751   3.832   1.117 -0.2051 -0.2018  0.6031
  157MOL0     C20606   8.697   3.882   1.243  0.2190  0.4056 -0.9413
  157MOL0     C20607   8.633   3.782   1.326 -0.1262  0.3517  0.4166
  157MOL0     C20608   8.554   3.852   1.452 -0.4915  0.2638  0.4504
  157MOL0     N20609   8.476   3.757   1.527 -0.6971 -0.0501  0.5291
  157MOL0     C20610   8.381   3.795   1.616 -0.3476  0.7875  0.5253
  157MOL0     C20611   8.339   3.674   1.668 -0.4229  0.4478 -0.1776
  157MOL0     C20612   8.220   3.651   1.755  0.1937  0.0864 -0.2097
  157MOL0     C20613   8.083   3.689   1.685  0.1787  1.0002  0.2997
  157MOL0     C20614   8.049   3.570   1.585  0.1581 -0.6634  1.1737
  157MOL0     C20615   7.913   3.582   1.525 -0.4519 -0.0375  0.0294
  157MOL0     O20616   7.814   3.564   1.636 -0.0757 -0.2107 -0.2673
  157MOL0     C20617   7.685   3.561   1.589 -0.8465  0.0427 -0.0578
  157MOL0     C20618   7.643   3.571   1.460  0.1501 -0.2016  0.3712
  157MOL0     C20619   7.509   3.583   1.423 -0.4517  0.3565 -0.8820
  157MOL0     C20620   7.406   3.570   1.519 -0.3517 -0.3548  0.5279
  157MOL0     C20621   7.262   3.551   1.480  0.5193  0.7213 -0.1112
  157MOL0     O20622   7.168   3.543   1.587  0.0155 -0.2351  0.1000
  157MOL0     C20623   7.034   3.567   1.577  0.0231 -0.7609 -1.4811
  157MOL0     C20624   6.982   3.655   1.479  0.4192 -0.2741  0.3443
  157MOL0     C20625   6.844   3.686   1.479 -0.0450 -0.1611  0.6760
  157MOL0     C20626   6.756   3.627   1.578 -0.1648  0.0207  1.3063
  157MOL0     O20627   6.624   3.658   1.554 -0.4925  0.7753  0.0774
  157MOL0     C20628   6.522   3.567   1.600 -0.4278 -1.0497 -0.6122
  157MOL0     C20629   6.385   3.620   1.566  0.7637  0.3883  0.2273
  157MOL0     C20630   6.260   3.560   1.636 -0.5937  0.1681 -0.3759
  157MOL0     C20631   6.219   3.431   1.557  0.7562 -0.6880 -0.5339
  157MOL0     C20632   6.085   3.363   1.603  0.1491  0.0927  0.9980
  157MOL0     C20633   5.959   3.457   1.602 -0.1392 -0.5159  0.0696
  157MOL0     C20634   5.827   3.376   1.617  0.2298  0.3860 -0.0071
  157MOL0     C20635   5.703   3.469   1.640 -0.1946 -0.4038 -0.1372
  157MOL0    Cl20636   5.565   3.379   1.704 -0.0186 -0.0007  0.0174
  157MOL0     C20637   6.814   3.561   1.688  0.2473  0.1208  0.3465
  157MOL0     C20638   6.945   3.520   1.682 -0.4694 -0.0896  0.8606
  157MOL0     O20639   7.240   3.546   1.359 -0.5755 -0.5423  0.0090
  157MOL0     C20640   7.447   3.564   1.647  0.0885 -0.0594  0.4715
  157MOL0     C20641   7.581   3.561   1.681 -0.1819 -0.2166  0.4728
  157MOL0     N20642   8.415   3.571   1.613 -0.3782 -0.0426 -0.4628
  157MOL0     N20643   8.493   3.621   1.526 -1.0896  0.1201  0.1851
  157MOL0     C20644   9.435   3.934   0.716  0.8467  0.1962 -0.1674
  157MOL0     C20645   9.539   3.876   0.647  0.9144  0.4834  0.0710
  157MOL0     C20646   9.718   3.660   0.292 -0.2628  0.4759 -0.4485
  157MOL0     C20647   9.852   3.680   0.335  0.2322  0.2079  0.3491
  157MOL0     C20648   9.966   3.674   0.253  0.5804 -1.3146 -0.3939
  157MOL0     C20649   9.948   3.629   0.125  0.7333 -0.3065  0.2159
  157MOL0     O20650  10.053   3.614   0.039  0.7627 -0.3494  0.5496
  157MOL0     C20651  10.186   3.647   0.083  0.2764  0.2276 -0.7825
  157MOL0     C20652  10.272   3.585  -0.019 -0.3049 -0.9860  0.4363
  157MOL0     C20653  10.262   3.663  -0.153  0.3691  0.5578  0.5900
  157MOL0     C20654  10.346   3.589  -0.260  0.0687 -0.5958  0.4328
  157MOL0     C20655  10.498   3.602  -0.230  1.4233 -0.1338  0.9061
  157MOL0     C20656  10.615   3.602  -0.207 -0.2271  0.9437  0.6812
  157MOL0     C20657   9.819   3.619   0.076 -0.2032  0.2650 -0.6828
  157MOL0     C20658   9.707   3.627   0.154  0.5504 -0.4169  0.1729
  157MOL0     H20659   9.418   3.562   0.591  2.9711  1.5317 -1.0004
  157MOL0     H20660   9.237   3.658   0.722 -1.3983  1.3525  0.7728
  157MOL0     H20661   9.077   3.891   0.696  1.9311 -1.1510  0.8430
  157MOL0     H20662   9.144   4.045   0.725  3.5683 -0.6979  0.9033
  157MOL0     H20663   8.924   4.054   0.848 -1.8654  0.2736  2.6675
  157MOL0     H20664   9.062   4.046   0.956 -2.0811 -1.9374  2.1740
  157MOL0     H20665   9.016   3.807   0.977 -0.9250 -2.2121 -1.8994
  157MOL0     H20666   8.872   3.833   0.863 -0.5304 -1.0425  0.6385
  157MOL0     H20667   8.919   3.969   1.142  0.3182  2.1071 -1.2075
  157MOL0     H20668   8.793   4.014   1.019  0.7302 -0.5449 -3.1657
  157MOL0     H20669   8.802   3.738   1.141  2.4635  1.3260  1.3128
  157MOL0     H20670   8.667   3.819   1.048  0.2373 -0.7471  0.1555
  157MOL0     H20671   8.632   3.969   1.229  1.4493  1.6168  0.5565
  157MOL0     H20672   8.784   3.915   1.299  0.0805  0.9205 -1.0200
  157MOL0     H20673   8.565   3.733   1.255  1.7561  0.5686 -1.6572
  157MOL0     H20674   8.703   3.707   1.361  0.0526  0.8485  1.1431
  157MOL0     H20675   8.484   3.927   1.413 -1.1552 -0.7382 -0.3328
  157MOL0     H20676   8.631   3.902   1.511 -1.6809  2.4441  0.2842
  157MOL0     H20677   8.352   3.896   1.642 -0.1585  0.4829  1.9976
  157MOL0     H20678   8.238   3.705   1.848  1.2669 -0.9355  0.2033
  157MOL0     H20679   8.225   3.543   1.774 -0.5072 -0.1006 -0.9924
  157MOL0     H20680   8.086   3.782   1.628 -1.5769  1.6307  1.1777
  157MOL0     H20681   8.005   3.699   1.761 -1.8326  0.3661 -1.5641
  157MOL0     H20682   8.124   3.553   1.508 -3.0352  1.2306 -2.7183
  157MOL0     H20683   8.048   3.474   1.637 -4.0972 -1.0522  0.6669
  157MOL0     H20684   7.906   3.503   1.451 -3.4432 -1.5896  1.7856
  157MOL0     H20685   7.898   3.675   1.469  0.7896  0.4223  0.4120
  157MOL0     H20686   7.709   3.570   1.373 -1.2821  1.0452 -0.7890
  157MOL0     H20687   7.478   3.584   1.319  1.8475  1.9707 -1.6505
  157MOL0     H20688   7.053   3.712   1.419  1.2010 -1.2136  0.3453
  157MOL0     H20689   6.808   3.746   1.397  1.4113 -0.5474 -0.2825
  157MOL0     H20690   6.529   3.564   1.709 -0.9283 -3.7119 -0.5801
  157MOL0     H20691   6.531   3.464   1.564  1.7295 -2.3436  3.0722
  157MOL0     H20692   6.372   3.625   1.457 -2.2520 -0.3213  0.4731
  157MOL0     H20693   6.374   3.722   1.604  0.1523  2.3558 -4.5645
  157MOL0     H20694   6.171   3.622   1.623 -0.7941  0.2209  1.1013
  157MOL0     H20695   6.273   3.534   1.741 -0.7751  0.0707 -0.3775
  157MOL0     H20696   6.203   3.458   1.452  0.9835 -1.4229 -0.7643
  157MOL0     H20697   6.301   3.359   1.557  1.2762 -0.4135  4.1587
  157MOL0     H20698   6.103   3.322   1.703  1.5334 -4.1966 -0.7642
  157MOL0     H20699   6.072   3.281   1.532 -0.0657  0.2115  0.8989
  157MOL0     H20700   5.963   3.513   1.508  3.2548  1.5986  1.3189
  157MOL0     H20701   5.971   3.524   1.687  1.5061 -2.0426  1.0991
  157MOL0     H20702   5.807   3.310   1.532  2.4738  1.1068 -1.1760
  157MOL0     H20703   5.836   3.312   1.705 -2.3657 -0.0021  0.0565
  157MOL0     H20704   5.690   3.517   1.542 -0.1921  3.0738  1.3954
  157MOL0     H20705   5.726   3.555   1.704  0.7805 -1.1530  0.5323
  157MOL0     H20706   6.742   3.519   1.757 -1.7663 -1.2007 -2.4191
  157MOL0     H20707   6.983   3.457   1.762 -2.4134 -0.1055  1.8150
  157MOL0     H20708   7.371   3.572   1.724  0.9497 -0.5031  1.3897
  157MOL0     H20709   7.611   3.565   1.785  2.6781 -0.9474 -0.2252
  157MOL0     H20710   9.437   4.033   0.760  0.5700 -0.5747  1.6493
  157MOL0     H20711   9.630   3.929   0.623  1.0130 -1.2422 -4.1743
  157MOL0     H20712   9.867   3.710   0.439 -1.3491  1.3010  0.2998
  157MOL0     H20713  10.063   3.710   0.286  0.3797  1.0162 -2.0911
  157MOL0     H20714  10.206   3.608   0.183 -0.6575  0.8111 -0.3525
  157MOL0     H20715  10.195   3.755   0.092  0.7999  0.0003  3.4281
  157MOL0     H20716  10.377   3.585   0.012 -0.6403  1.9845  1.8946
  157MOL0     H20717  10.250   3.481  -0.043  2.5996 -2.4152  3.2775
  157MOL0     H20718  10.283   3.770  -0.140 -1.6478  0.6601  4.4177
  157MOL0     H20719  10.160   3.669  -0.194  0.7676 -0.3441 -0.5827
  157MOL0     H20720  10.315   3.484  -0.254 -3.2390  0.2843  0.9961
  157MOL0     H20721  10.335   3.638  -0.357  3.9821  3.1971  1.6097
  157MOL0     H20722  10.722   3.592  -0.207  0.0250  2.5507  3.0852
  157MOL0     H20723   9.794   3.615  -0.029 -2.1701  2.1696 -0.3684
  157MOL0     H20724   9.611   3.620   0.104  0.3391  0.3857  0.4392
  158MOL0     O20725   0.933   6.646  10.296  0.0355 -0.5117 -0.0306
  158MOL0     C20726   0.897   6.742  10.362 -0.2882 -0.0102 -0.2959
  158MOL0     O20727   0.980   6.825  10.432 -1.0063  0.6794 -0.7525
  158MOL0     C20728   1.114   6.805  10.415 -0.4009  0.2682  0.7648
  158MOL0     C20729   1.196   6.876  10.323  0.0113 -0.1423  0.4582
  158MOL0     C20730   1.331   6.846  10.306 -0.1933 -0.7080 -0.5643
  158MOL0     C20731   1.397   6.754  10.384 -0.3238 -0.0974  0.6072
  158MOL0     O20732   1.536   6.740  10.386 -0.1203  0.7793  0.4432
  158MOL0     C20733   1.607   6.737  10.263 -0.8319 -1.4509  0.3574
  158MOL0     C20734   1.748   6.686  10.255  0.0166 -0.2449 -0.4602
  158MOL0     C20735   1.752   6.543  10.309 -0.5122  0.0153 -0.3275
  158MOL0     C20736   1.894   6.482  10.318 -0.1083  0.2593 -0.0675
  158MOL0     C20737   1.889   6.332  10.308  0.0931  0.7294 -0.5963
  158MOL0     C20738   1.891   6.258  10.445  0.1087 -0.1630  0.0885
  158MOL0     C20739   1.925   6.104  10.434  0.9246  0.5247  0.3529
  158MOL0     C20740   1.864   6.025  10.552  0.6051 -0.0017  0.9459
  158MOL0     N20741   1.946   5.910  10.573  0.2465 -0.6274 -0.0208
  158MOL0     C20742   2.083   5.921  10.604 -0.2293 -0.0465 -0.4151
  158MOL0     C20743   2.118   5.791  10.608 -0.0237  0.6785  0.1045
  158MOL0     C20744   2.259   5.753  10.629 -0.3780  1.1250 -0.0983
  158MOL0     C20745   2.318   5.701  10.498  1.1774  0.1258 -0.2772
  158MOL0     C20746   2.330   5.793  10.379 -0.1470 -0.2640  0.0172
  158MOL0     C20747   2.427   5.915  10.414  0.1304  0.2938 -0.1245
  158MOL0     O20748   2.461   5.975  10.290 -0.4730  0.5273  0.0630
  158MOL0     C20749   2.439   6.108  10.280  0.0273  0.0997  0.7520
  158MOL0     C20750   2.517   6.209  10.332 -0.2000  0.3137  0.9036
  158MOL0     C20751   2.485   6.342  10.314 -0.6958  0.2466 -0.1674
  158MOL0     C20752   2.383   6.380  10.227 -0.1209  0.5830  0.1577
  158MOL0     C20753   2.372   6.524  10.192 -0.0932  0.9130 -0.6215
  158MOL0     O20754   2.237   6.568  10.175 -0.7815 -0.0277 -0.3748
  158MOL0     C20755   2.226   6.701  10.150 -0.0418  0.1076 -0.2286
  158MOL0     C20756   2.181   6.750  10.030 -0.4237 -0.8248  0.3648
  158MOL0     C20757   2.157   6.892  10.014 -0.3159  0.0916 -1.0025
  158MOL0     C20758   2.179   6.987  10.123  0.6645  0.5949  0.3349
  158MOL0     O20759   2.162   7.119  10.108  0.0998  0.3902  0.1149
  158MOL0     C20760   2.066   7.184  10.192  0.0045  0.3684 -0.4173
  158MOL0     C20761   1.926   7.118  10.211  0.6248 -0.2285  1.1700
  158MOL0     C20762   1.826   7.227  10.246  0.4509 -0.6297 -0.8046
  158MOL0     C20763   1.834   7.272  10.392 -0.5566  0.7230  0.5477
  158MOL0     C20764   1.706   7.312  10.457 -0.1174  0.0260  0.2926
  158MOL0     C20765   1.631   7.433  10.384  0.3620 -0.4296 -0.3872
  158MOL0     C20766   1.727   7.549  10.338 -0.1692  0.2131  0.1070
  158MOL0     C20767   1.658   7.685  10.312 -0.0563 -0.0688  0.0216
  158MOL0    Cl20768   1.554   7.753  10.447  0.1964 -0.1298  0.2302
  158MOL0     C20769   2.235   6.935  10.243 -0.0093  0.6523 -0.3923
  158MOL0     C20770   2.266   6.793  10.248  0.1973 -0.3750  0.4190
  158MOL0     O20771   2.475   6.591  10.178  0.2376  0.3494 -0.3431
  158MOL0     C20772   2.310   6.280  10.170  0.1538 -0.3237  0.5307
  158MOL0     C20773   2.336   6.146  10.191 -1.5934 -0.1439  0.3546
  158MOL0     N20774   2.008   5.708  10.584 -0.7540  0.5373 -0.4018
  158MOL0     N20775   1.902   5.782  10.574 -0.5250 -0.4488 -0.2842
  158MOL0     C20776   1.321   6.682  10.479  0.8576  0.0819  0.7932
  158MOL0     C20777   1.179   6.703  10.484 -0.0673 -0.4740 -0.4741
  158MOL0     C20778   0.747   6.769  10.384  0.1922  0.0644  0.6385
  158MOL0     C20779   0.704   6.882  10.450  0.2652  0.8546 -0.3920
  158MOL0     C20780   0.572   6.922  10.456  0.4612  0.1056 -0.1956
  158MOL0     C20781   0.476   6.839  10.388  0.3347  0.3890  0.7366
  158MOL0     O20782   0.338   6.872  10.377 -0.3619  0.2453 -0.1367
  158MOL0     C20783   0.284   6.893  10.509  0.2866 -0.2938  0.2713
  158MOL0     C20784   0.129   6.913  10.518  0.2492 -0.2074 -0.0719
  158MOL0     C20785   0.056   6.805  10.435  0.3713  0.4105 -0.1283
  158MOL0     C20786  -0.095   6.836  10.434 -0.4000  0.0764  0.3006
  158MOL0     C20787  -0.158   6.787  10.306 -0.5819  0.1168  0.0768
  158MOL0     C20788  -0.207   6.761  10.201 -0.5109  1.0481  1.1087
  158MOL0     C20789   0.522   6.722  10.323  0.1512 -0.0256 -0.5969
  158MOL0     C20790   0.658   6.690  10.322  0.0591  0.5819  0.5139
  158MOL0     H20791   1.150   6.954  10.263 -1.2368 -0.6152  0.7669
  158MOL0     H20792   1.385   6.896  10.226  2.0724  0.3840  1.5422
  158MOL0     H20793   1.614   6.838  10.221 -0.4938 -0.7782  1.9776
  158MOL0     H20794   1.549   6.683  10.188 -0.9867 -0.1980 -0.4632
  158MOL0     H20795   1.815   6.750  10.314  0.7420 -0.2275 -1.2718
  158MOL0     H20796   1.776   6.693  10.149 -0.6624 -1.9117 -0.7753
  158MOL0     H20797   1.692   6.481  10.241 -1.8033  3.3549 -2.5027
  158MOL0     H20798   1.706   6.548  10.408 -0.1697  0.0934 -0.1736
  158MOL0     H20799   1.960   6.513  10.236  1.8952 -2.4392  0.4002
  158MOL0     H20800   1.941   6.527  10.406 -1.0249  1.1607 -0.0219
  158MOL0     H20801   1.982   6.311  10.253  1.1921  2.1399  0.6553
  158MOL0     H20802   1.796   6.306  10.256  0.3994 -3.1537  0.4806
  158MOL0     H20803   1.795   6.272  10.496  0.1121  1.6140 -0.3173
  158MOL0     H20804   1.968   6.299  10.511  0.7261  1.1090 -1.3618
  158MOL0     H20805   1.875   6.066  10.345 -1.5704  1.6517  1.1893
  158MOL0     H20806   2.034   6.104  10.421  0.8384  2.2615 -0.5231
  158MOL0     H20807   1.757   6.007  10.537  0.7468  0.1295 -0.3178
  158MOL0     H20808   1.871   6.083  10.644 -1.6086  0.6367  0.7573
  158MOL0     H20809   2.143   6.010  10.622  0.1395 -0.3019 -0.3640
  158MOL0     H20810   2.271   5.690  10.717  2.2006  0.4880 -0.8159
  158MOL0     H20811   2.313   5.843  10.660  2.9774 -0.3619 -1.2071
  158MOL0     H20812   2.261   5.612  10.469 -0.9377  1.5983 -0.9027
  158MOL0     H20813   2.420   5.667  10.519  0.3445 -0.3512  3.7455
  158MOL0     H20814   2.391   5.741  10.305  1.9579 -0.3521  1.7030
  158MOL0     H20815   2.234   5.834  10.348  0.0079  0.2758  0.2210
  158MOL0     H20816   2.521   5.884  10.461 -0.1752 -2.3500 -1.1051
  158MOL0     H20817   2.378   5.976  10.491 -0.0541 -3.4158  2.9928
  158MOL0     H20818   2.605   6.179  10.388 -1.9192 -2.6688  2.2397
  158MOL0     H20819   2.538   6.421  10.366 -1.7415  0.6157  0.3867
  158MOL0     H20820   2.148   6.685   9.950 -2.0568  1.7333 -1.2115
  158MOL0     H20821   2.104   6.917   9.923  1.9509  1.6363 -2.0015
  158MOL0     H20822   2.048   7.285  10.157  0.9920  0.3832 -0.9265
  158MOL0     H20823   2.107   7.188  10.294 -1.1066 -2.4556  0.2583
  158MOL0     H20824   1.930   7.046  10.293 -0.1895  0.5948  1.9567
  158MOL0     H20825   1.892   7.062  10.123  1.3809 -2.2983  2.1548
  158MOL0     H20826   1.727   7.180  10.244  0.3819 -0.8413  2.3895
  158MOL0     H20827   1.839   7.314  10.181  1.7053  0.0241  0.2816
  158MOL0     H20828   1.861   7.189  10.458 -0.6856  2.0434  2.3348
  158MOL0     H20829   1.905   7.354  10.404  0.5705  0.1041 -1.4477
  158MOL0     H20830   1.733   7.344  10.558  0.0180 -1.0134  0.5902
  158MOL0     H20831   1.636   7.228  10.461 -1.9917  1.4544 -0.6285
  158MOL0     H20832   1.570   7.475  10.464  2.8260 -0.5495  1.6914
  158MOL0     H20833   1.569   7.392  10.304 -2.4824  0.7010  1.1162
  158MOL0     H20834   1.805   7.566  10.414 -1.8128  0.6248  1.7685
  158MOL0     H20835   1.766   7.523  10.239 -0.7795 -0.2345 -0.0183
  158MOL0     H20836   1.594   7.672  10.224  0.5820  1.2543 -0.6655
  158MOL0     H20837   1.726   7.764  10.279  1.2641 -1.4356 -0.6374
  158MOL0     H20838   2.254   6.992  10.333 -0.1177  0.4700 -0.2548
  158MOL0     H20839   2.290   6.754  10.346 -0.0735 -1.9245 -0.1077
  158MOL0     H20840   2.239   6.310  10.094  0.9095 -1.6971 -0.7886
  158MOL0     H20841   2.289   6.067  10.134  1.6437 -2.2338  0.3534
  158MOL0     H20842   1.361   6.602  10.540 -1.0929 -1.1087  0.6006
  158MOL0     H20843   1.118   6.661  10.563 -1.0348 -0.9674 -1.4653
  158MOL0     H20844   0.764   6.945  10.516  1.0555 -0.2882 -0.0046
  158MOL0     H20845   0.540   7.006  10.516 -1.7886 -0.5083 -0.4720
  158MOL0     H20846   0.320   6.985  10.556 -4.2072  0.8378  2.0990
  158MOL0     H20847   0.315   6.803  10.563 -0.9256 -1.5407 -1.0097
  158MOL0     H20848   0.087   6.897  10.618 -1.6630  0.9404 -0.6357
  158MOL0     H20849   0.093   7.006  10.475 -0.7554 -2.2295 -4.1363
  158MOL0     H20850   0.065   6.703  10.472 -2.3623 -0.5009 -1.6478
  158MOL0     H20851   0.092   6.799  10.332  2.0877 -1.0385  0.5148
  158MOL0     H20852  -0.138   6.788  10.522 -1.4090 -1.2423 -0.8652
  158MOL0     H20853  -0.110   6.945  10.431  1.4795  0.3585 -0.2457
  158MOL0     H20854  -0.247   6.739  10.104  1.0762  2.2378  0.1199
  158MOL0     H20855   0.451   6.656  10.275  0.1540  0.3669 -1.1485
  158MOL0     H20856   0.697   6.601  10.274 -0.2848  0.0518  1.1905
  159MOL0     O20857   4.048   2.806   4.583  0.2190  0.3076 -0.2118
  159MOL0     C20858   4.029   2.730   4.487 -0.4437 -0.3862  0.8449
  159MOL0     O20859   3.912   2.669   4.455 -0.3608 -0.1256  0.1810
  159MOL0     C20860   3.792   2.682   4.513  0.3094  0.1546 -0.5554
  159MOL0     C20861   3.761   2.786   4.610 -0.7129  0.1020  0.2622
  159MOL0     C20862   3.627   2.801   4.646  0.6481 -0.1302 -1.5379
  159MOL0     C20863   3.522   2.722   4.612 -0.2818  0.1765  0.7929
  159MOL0     O20864   3.393   2.741   4.661  0.5109  0.6302 -0.1199
  159MOL0     C20865   3.277   2.701   4.587 -0.1547 -0.1609  0.7355
  159MOL0     C20866   3.261   2.809   4.474 -0.5621 -0.5835 -0.5466
  159MOL0     C20867   3.129   2.786   4.395  0.2819  0.3365 -0.6049
  159MOL0     C20868   3.112   2.901   4.297 -0.6586 -0.4010 -0.1879
  159MOL0     C20869   2.975   2.899   4.236 -0.2364  0.4939  0.5199
  159MOL0     C20870   2.956   3.003   4.122  0.2308  0.1525  0.4544
  159MOL0     C20871   2.822   2.987   4.047  0.4679 -0.2729 -0.2425
  159MOL0     C20872   2.701   3.023   4.131  0.4586  0.3838 -0.1312
  159MOL0     N20873   2.589   3.035   4.040  0.2794 -0.4789 -0.4253
  159MOL0     C20874   2.554   3.154   3.981 -0.6802 -0.8193  0.4687
  159MOL0     C20875   2.446   3.126   3.897 -0.0532  0.3769 -1.0044
  159MOL0     C20876   2.356   3.222   3.809 -0.4226 -0.9353 -0.2822
  159MOL0     C20877   2.329   3.177   3.669  0.4077  0.1130  0.0934
  159MOL0     C20878   2.332   3.280   3.558  0.8327  0.2649 -0.4955
  159MOL0     C20879   2.249   3.237   3.444  0.4568 -0.2266  0.5300
  159MOL0     O20880   2.246   3.338   3.338 -0.4014  0.1351 -0.4443
  159MOL0     C20881   2.137   3.421   3.327  0.0148 -0.1841  0.9431
  159MOL0     C20882   2.029   3.435   3.421 -0.3016 -1.0583 -0.4518
  159MOL0     C20883   1.918   3.516   3.388 -0.0737  0.2008 -0.6708
  159MOL0     C20884   1.908   3.574   3.258 -0.7835 -0.3884 -0.3897
  159MOL0     C20885   1.783   3.638   3.227 -0.5169  0.5272 -0.1269
  159MOL0     O20886   1.743   3.628   3.092  0.0267 -0.1949  0.0036
  159MOL0     C20887   1.624   3.692   3.072 -0.1513  1.2562 -0.3151
  159MOL0     C20888   1.511   3.610   3.058  0.0134 -0.0372  0.0095
  159MOL0     C20889   1.389   3.672   3.023  0.5692  0.3075 -0.0789
  159MOL0     C20890   1.379   3.814   3.000 -0.5270 -0.3271  0.1009
  159MOL0     O20891   1.268   3.887   2.959 -0.0385 -0.4587 -0.0816
  159MOL0     C20892   1.159   3.801   2.912 -0.0679 -0.0595 -0.3149
  159MOL0     C20893   1.050   3.896   2.867  0.9568 -0.8937 -0.1700
  159MOL0     C20894   0.905   3.835   2.875  0.0997  0.0705 -0.7013
  159MOL0     C20895   0.799   3.939   2.904  0.6514 -0.3653  0.1901
  159MOL0     C20896   0.657   3.880   2.904  0.3873  0.4805 -0.1870
  159MOL0     C20897   0.562   3.996   2.898  0.2076 -0.2990  0.3612
  159MOL0     C20898   0.411   3.971   2.897 -0.4506  0.5613 -0.2835
  159MOL0     C20899   0.329   4.089   2.958  0.7949  0.1259  0.7343
  159MOL0    Cl20900   0.156   4.067   2.936  0.0396  0.0736 -0.0125
  159MOL0     C20901   1.489   3.887   3.030  0.2472 -0.1544  0.3473
  159MOL0     C20902   1.614   3.829   3.060 -0.7114  0.1297 -0.1843
  159MOL0     O20903   1.732   3.702   3.324 -0.5761  0.2456  0.6556
  159MOL0     C20904   2.013   3.565   3.170 -0.4861  0.8185  0.1380
  159MOL0     C20905   2.124   3.490   3.203 -0.3093 -0.1593  0.0109
  159MOL0     N20906   2.414   2.995   3.919 -0.7221 -0.0251  0.2200
  159MOL0     N20907   2.501   2.939   4.002 -0.6970 -0.0276  0.3700
  159MOL0     C20908   3.558   2.610   4.527  0.5525  0.1390 -0.4437
  159MOL0     C20909   3.687   2.598   4.473  0.2988  0.3141 -0.1870
  159MOL0     C20910   4.138   2.678   4.398 -0.1615 -0.8347 -0.0800
  159MOL0     C20911   4.268   2.671   4.452 -1.0077 -0.0073  0.3001
  159MOL0     C20912   4.372   2.622   4.373  0.3308 -0.6907 -0.7060
  159MOL0     C20913   4.361   2.596   4.242  0.0786 -0.5829 -0.8978
  159MOL0     O20914   4.469   2.571   4.158  0.0514  0.2204  0.4187
  159MOL0     C20915   4.457   2.447   4.082  0.0038  0.0334 -0.3959
  159MOL0     C20916   4.593   2.387   4.045 -0.4898 -0.2876 -0.5675
  159MOL0     C20917   4.681   2.379   4.176  0.3787  0.4521 -0.2865
  159MOL0     C20918   4.827   2.342   4.146 -0.1136  0.1138  0.4354
  159MOL0     C20919   4.907   2.339   4.264  0.1047 -0.0684  0.3234
  159MOL0     C20920   4.981   2.330   4.357 -0.0763  0.7054  0.2411
  159MOL0     C20921   4.237   2.605   4.189 -0.2095  0.3857 -0.3472
  159MOL0     C20922   4.122   2.642   4.263 -1.0297 -0.2891  0.4337
  159MOL0     H20923   3.835   2.862   4.631  0.2335 -0.1291 -1.9712
  159MOL0     H20924   3.608   2.889   4.706  0.6932 -1.6125  0.7524
  159MOL0     H20925   3.187   2.706   4.650 -0.8171 -2.1712  0.0412
  159MOL0     H20926   3.276   2.604   4.537 -1.5714  0.4536 -0.5010
  159MOL0     H20927   3.346   2.816   4.407  1.3434  1.3332  1.8763
  159MOL0     H20928   3.259   2.905   4.527  2.8172 -2.1678  2.9158
  159MOL0     H20929   3.042   2.777   4.460 -1.2697  0.3157 -2.5990
  159MOL0     H20930   3.136   2.694   4.337 -1.6190  0.8433 -1.7271
  159MOL0     H20931   3.126   2.999   4.345 -1.8288 -0.2912 -0.0377
  159MOL0     H20932   3.186   2.905   4.217 -1.4658  0.3333 -0.9326
  159MOL0     H20933   2.901   2.923   4.313 -1.6994  1.3669 -1.1008
  159MOL0     H20934   2.950   2.799   4.198 -1.1687  1.3773 -1.2770
  159MOL0     H20935   3.035   2.985   4.048 -1.3455 -0.9146 -1.0216
  159MOL0     H20936   2.962   3.103   4.166  0.9704  0.8132 -1.0810
  159MOL0     H20937   2.819   3.038   3.951 -0.9288 -0.8159 -0.5089
  159MOL0     H20938   2.811   2.882   4.018 -1.5586  0.5793 -2.9225
  159MOL0     H20939   2.721   3.117   4.183 -1.3282  0.2714  0.8424
  159MOL0     H20940   2.691   2.939   4.200  1.8375  0.3611  0.0664
  159MOL0     H20941   2.612   3.244   4.000 -1.7292  0.3551 -1.5615
  159MOL0     H20942   2.398   3.323   3.812  0.7084 -1.3677 -0.7939
  159MOL0     H20943   2.260   3.224   3.861  0.5635  1.8032  1.6780
  159MOL0     H20944   2.229   3.135   3.674  0.1156  0.9124  2.5428
  159MOL0     H20945   2.403   3.103   3.636  2.1537  2.8944 -2.8122
  159MOL0     H20946   2.276   3.367   3.594 -1.8701 -2.2722  2.0024
  159MOL0     H20947   2.433   3.296   3.520  2.2056 -5.3155 -0.0381
  159MOL0     H20948   2.149   3.213   3.481  0.0713  2.3720  1.3192
  159MOL0     H20949   2.288   3.151   3.388 -0.9345 -0.7428  0.3262
  159MOL0     H20950   2.019   3.385   3.517  0.8024  1.5887  1.1534
  159MOL0     H20951   1.834   3.502   3.456  1.1791  0.0893  0.9188
  159MOL0     H20952   1.505   3.504   3.079 -0.5257  0.4436  2.6710
  159MOL0     H20953   1.293   3.620   3.018  0.4942 -0.1461  3.5538
  159MOL0     H20954   1.118   3.754   3.002 -0.8499  0.0947 -0.5872
  159MOL0     H20955   1.208   3.736   2.839  2.2778  2.4751 -1.1796
  159MOL0     H20956   1.063   3.924   2.762 -3.2536  1.5722 -0.2658
  159MOL0     H20957   1.057   3.987   2.927  0.9209  0.0736 -1.5611
  159MOL0     H20958   0.901   3.762   2.956  1.8715  1.6047  0.8629
  159MOL0     H20959   0.884   3.773   2.787  1.6609  2.1841 -2.7069
  159MOL0     H20960   0.814   3.992   2.999  0.1459  0.4032 -0.1491
  159MOL0     H20961   0.797   4.018   2.829 -2.0403 -1.9089 -1.5537
  159MOL0     H20962   0.647   3.821   2.995  1.5977 -1.0051 -0.9690
  159MOL0     H20963   0.647   3.811   2.820 -1.1794 -0.1634  0.5048
  159MOL0     H20964   0.592   4.056   2.812  0.2013 -1.5279 -0.5195
  159MOL0     H20965   0.590   4.051   2.989 -1.9480  0.6612  0.4946
  159MOL0     H20966   0.377   3.958   2.794  0.3868  0.0930 -0.5049
  159MOL0     H20967   0.379   3.880   2.948 -0.2560  1.3538  1.3106
  159MOL0     H20968   0.350   4.187   2.917 -0.7275 -0.8035 -2.5747
  159MOL0     H20969   0.349   4.082   3.066  2.5933  0.8750  0.4728
  159MOL0     H20970   1.481   3.995   3.035 -0.2911 -0.2191  1.1427
  159MOL0     H20971   1.700   3.890   3.087 -1.0514  0.2691  0.6072
  159MOL0     H20972   2.005   3.615   3.074 -4.5742 -1.1532 -0.8066
  159MOL0     H20973   2.204   3.489   3.130 -0.0494 -1.5427  0.2866
  159MOL0     H20974   3.480   2.540   4.501  1.0747 -0.6460  0.0529
  159MOL0     H20975   3.720   2.527   4.398  1.2727  0.3143  0.2168
  159MOL0     H20976   4.295   2.693   4.555  0.4387  0.9408 -0.2399
  159MOL0     H20977   4.474   2.615   4.408 -0.6399 -0.8408  2.4112
  159MOL0     H20978   4.390   2.467   3.998  0.8515 -2.0174 -1.6511
  159MOL0     H20979   4.417   2.364   4.140  1.6536  0.7680  1.9298
  159MOL0     H20980   4.570   2.285   4.014 -3.2806 -0.1110  0.6310
  159MOL0     H20981   4.640   2.439   3.961  2.4888 -1.8207 -0.0008
  159MOL0     H20982   4.633   2.312   4.248  3.0234 -0.3548  0.8667
  159MOL0     H20983   4.681   2.477   4.224  0.7269 -0.8388  2.6002
  159MOL0     H20984   4.831   2.249   4.089  1.9294  1.0976 -1.1734
  159MOL0     H20985   4.869   2.427   4.091 -0.5856  1.0862  1.5329
  159MOL0     H20986   5.056   2.337   4.433 -0.9508  1.0042  1.0977
  159MOL0     H20987   4.226   2.588   4.083  1.1965 -4.0659  0.0223
  159MOL0     H20988   4.023   2.658   4.221 -0.2327  1.3211 -0.9183
  160MOL0     O20989   6.888   3.202   1.509 -0.7411  0.1168 -1.0467
  160MOL0     C20990   6.985   3.189   1.591  0.2264 -0.4726  0.2335
  160MOL0     O20991   6.979   3.199   1.730 -0.0627  0.4234  0.2556
  160MOL0     C20992   6.864   3.211   1.804 -0.6068  0.2269  1.5342
  160MOL0     C20993   6.738   3.174   1.750 -0.3695  0.4202 -1.6067
  160MOL0     C20994   6.622   3.206   1.824  0.7472 -0.2126 -0.1497
  160MOL0     C20995   6.627   3.271   1.955 -0.3921  0.0148 -0.1752
  160MOL0     O20996   6.529   3.275   2.047 -0.2683  0.1225  0.4118
  160MOL0     C20997   6.399   3.244   1.995  0.1910 -0.0183 -1.5926
  160MOL0     C20998   6.291   3.250   2.105  0.4010 -0.3237 -0.2873
  160MOL0     C20999   6.144   3.265   2.054 -0.2062 -0.3626  0.1242
  160MOL0     C21000   6.048   3.263   2.184  0.3707 -0.1348  0.6597
  160MOL0     C21001   5.899   3.252   2.136 -0.0232 -0.4403  0.6015
  160MOL0     C21002   5.847   3.110   2.112 -0.5644 -0.1231  0.0139
  160MOL0     C21003   5.696   3.123   2.064 -0.5452 -0.4839 -0.0522
  160MOL0     C21004   5.608   3.153   2.183 -0.3013 -0.3031 -0.1545
  160MOL0     N21005   5.475   3.139   2.142 -0.4774  0.0446 -0.1544
  160MOL0     C21006   5.411   3.239   2.069  0.5854  0.3914  0.1981
  160MOL0     C21007   5.288   3.188   2.027 -0.0559 -0.3034 -0.1786
  160MOL0     C21008   5.204   3.256   1.929 -0.0087  0.0355 -0.1738
  160MOL0     C21009   5.063   3.244   1.984  0.2577  0.6762 -0.2879
  160MOL0     C21010   4.992   3.119   1.924 -0.2737 -0.5788 -0.8182
  160MOL0     C21011   4.840   3.111   1.942 -0.0342  0.2875 -0.6576
  160MOL0     O21012   4.822   3.102   2.088  0.1371  0.3846  0.0543
  160MOL0     C21013   4.691   3.109   2.129  0.1250  0.3982  0.5091
  160MOL0     C21014   4.668   3.104   2.271  0.3494  0.4063 -0.7577
  160MOL0     C21015   4.535   3.104   2.320 -0.6652  0.2183  0.4405
  160MOL0     C21016   4.427   3.104   2.232  0.3671 -0.5347 -0.1502
  160MOL0     C21017   4.290   3.124   2.286  0.1253 -2.1159  0.9182
  160MOL0     O21018   4.193   3.133   2.192 -0.2332  0.9129  0.0814
  160MOL0     C21019   4.063   3.122   2.222 -0.1927 -0.0923 -0.6222
  160MOL0     C21020   4.002   3.009   2.172  0.1468  1.0255  0.1188
  160MOL0     C21021   3.863   2.989   2.192 -0.0478 -0.5086  0.1368
  160MOL0     C21022   3.790   3.068   2.281  1.1408  0.4638  0.4203
  160MOL0     O21023   3.651   3.052   2.294 -0.7875  0.5698  0.5853
  160MOL0     C21024   3.603   2.997   2.416 -0.2492 -0.2319  0.0869
  160MOL0     C21025   3.478   3.069   2.475 -0.3728 -0.7326 -0.2295
  160MOL0     C21026   3.367   3.059   2.372  0.1454  0.0127  0.2159
  160MOL0     C21027   3.229   3.094   2.450  0.0478  0.4430 -0.2521
  160MOL0     C21028   3.114   3.049   2.360 -0.9254  0.1969  0.3678
  160MOL0     C21029   2.983   3.062   2.435  0.1236 -0.5575  0.0672
  160MOL0     C21030   2.868   3.023   2.336 -0.0919 -0.3278  0.0725
  160MOL0     C21031   2.746   3.026   2.419  0.0531  0.5765 -0.0289
  160MOL0    Cl21032   2.604   2.980   2.316 -0.3305  0.1688 -0.0519
  160MOL0     C21033   3.855   3.176   2.341 -0.7826 -0.4668  0.7131
  160MOL0     C21034   3.992   3.209   2.313  0.7322 -0.4170 -0.4732
  160MOL0     O21035   4.271   3.135   2.405  0.3453  0.7902 -0.6836
  160MOL0     C21036   4.452   3.110   2.091  1.7945  0.0512 -0.2922
  160MOL0     C21037   4.581   3.104   2.042  0.3202 -0.7177 -0.4845
  160MOL0     N21038   5.270   3.063   2.089  0.9025 -0.6088  0.0485
  160MOL0     N21039   5.386   3.032   2.153  0.1934  0.0885  0.1269
  160MOL0     C21040   6.758   3.314   1.996 -0.0232  0.6184 -1.2189
  160MOL0     C21041   6.869   3.281   1.920  0.4756 -0.4196 -0.0065
  160MOL0     C21042   7.128   3.189   1.535 -0.4649  0.3955 -0.0945
  160MOL0     C21043   7.244   3.198   1.613  0.6122 -0.2090  0.3116
  160MOL0     C21044   7.370   3.194   1.552  0.6544 -0.3429  0.0821
  160MOL0     C21045   7.387   3.177   1.413 -0.1950 -0.3317  0.1252
  160MOL0     O21046   7.501   3.159   1.347  0.0944  0.8160 -0.7702
  160MOL0     C21047   7.624   3.161   1.425 -0.4886 -0.0556 -0.6098
  160MOL0     C21048   7.748   3.183   1.338  0.3826 -0.7704  0.4743
  160MOL0     C21049   7.868   3.173   1.429 -0.3610 -0.4087  0.5644
  160MOL0     C21050   8.003   3.193   1.365 -1.0228 -0.4710 -0.0189
  160MOL0     C21051   8.113   3.217   1.457  0.1875 -0.6247 -0.8114
  160MOL0     C21052   8.204   3.244   1.536 -1.0814  0.5758 -0.3900
  160MOL0     C21053   7.276   3.191   1.328 -0.0861  0.4565 -0.2286
  160MOL0     C21054   7.149   3.189   1.387 -0.4115  0.1088 -0.2969
  160MOL0     H21055   6.731   3.123   1.655  1.5317 -0.7695 -1.1616
  160MOL0     H21056   6.527   3.181   1.778 -1.3068  2.4910  2.2063
  160MOL0     H21057   6.400   3.141   1.959  0.1007  0.3295 -2.6241
  160MOL0     H21058   6.372   3.310   1.912  2.1551  1.4717 -1.1251
  160MOL0     H21059   6.319   3.338   2.163  2.0180 -2.0965  1.8137
  160MOL0     H21060   6.302   3.157   2.162 -1.5037 -0.2964  0.2002
  160MOL0     H21061   6.114   3.189   1.981 -2.9126  1.1694 -0.5082
  160MOL0     H21062   6.128   3.360   2.002 -2.8966 -1.7238 -1.8248
  160MOL0     H21063   6.062   3.181   2.255 -3.3724 -1.5766 -0.0060
  160MOL0     H21064   6.068   3.358   2.233 -0.1050  0.1200  0.3752
  160MOL0     H21065   5.873   3.303   2.043 -4.1117 -3.2994 -0.0702
  160MOL0     H21066   5.852   3.299   2.223  1.5405 -1.3417  1.9818
  160MOL0     H21067   5.863   3.042   2.196  0.2095 -1.7092 -1.3710
  160MOL0     H21068   5.906   3.059   2.035 -0.8001 -5.8989  3.0938
  160MOL0     H21069   5.689   3.201   1.988 -0.0067  0.7630  1.1485
  160MOL0     H21070   5.680   3.026   2.016  3.1689 -0.6593 -1.2415
  160MOL0     H21071   5.632   3.252   2.223  1.0348 -2.2591  4.5131
  160MOL0     H21072   5.625   3.078   2.261 -0.9612 -1.4813 -1.1042
  160MOL0     H21073   5.458   3.324   2.022 -0.8814  0.8286 -0.5287
  160MOL0     H21074   5.215   3.222   1.826 -0.4002  1.4378 -0.6979
  160MOL0     H21075   5.235   3.361   1.925  0.0356 -0.0019 -0.8925
  160MOL0     H21076   5.007   3.335   1.960  1.4376  1.4299 -0.2365
  160MOL0     H21077   5.052   3.253   2.093 -5.3339  0.3689 -0.5310
  160MOL0     H21078   5.005   3.114   1.816  1.2295 -4.2054 -0.6204
  160MOL0     H21079   5.043   3.027   1.956 -1.6476 -1.2593 -0.5237
  160MOL0     H21080   4.802   3.016   1.903 -0.3057  0.0233  0.2095
  160MOL0     H21081   4.787   3.198   1.903 -0.6687  0.0800 -0.2832
  160MOL0     H21082   4.754   3.094   2.338  1.6589 -0.3152 -2.4726
  160MOL0     H21083   4.527   3.108   2.428  0.2251 -0.4636  0.5428
  160MOL0     H21084   4.057   2.944   2.105  2.1611  1.7719  0.9656
  160MOL0     H21085   3.816   2.901   2.147  0.4210 -1.8440  2.1228
  160MOL0     H21086   3.679   3.004   2.494 -2.6955  0.2216  2.6210
  160MOL0     H21087   3.574   2.892   2.405  0.4966 -0.4050 -0.2806
  160MOL0     H21088   3.507   3.172   2.493  1.1586 -1.3834  1.3004
  160MOL0     H21089   3.437   3.034   2.571 -3.6732 -0.2866 -1.3666
  160MOL0     H21090   3.368   2.957   2.332  1.2792  1.0992 -2.8283
  160MOL0     H21091   3.387   3.140   2.300  0.9609  0.4682  0.9437
  160MOL0     H21092   3.225   3.035   2.542  0.0651  0.5799 -0.1628
  160MOL0     H21093   3.233   3.201   2.476 -0.2749  1.2094 -3.0326
  160MOL0     H21094   3.132   2.943   2.339 -0.5228  0.0181  1.5827
  160MOL0     H21095   3.108   3.104   2.266  1.9290 -0.0076 -0.0432
  160MOL0     H21096   2.961   3.166   2.460 -1.6437 -0.7483 -0.5936
  160MOL0     H21097   2.973   2.992   2.519 -0.3438 -0.2193  0.2967
  160MOL0     H21098   2.869   3.099   2.258 -3.0842 -0.0348  0.2207
  160MOL0     H21099   2.879   2.929   2.281 -0.0796 -0.9158  1.0366
  160MOL0     H21100   2.727   3.130   2.445  1.5026  0.5257  1.4403
  160MOL0     H21101   2.755   2.968   2.512  0.5176  3.3859  1.7819
  160MOL0     H21102   3.783   3.244   2.386 -0.5976 -0.6487  1.2918
  160MOL0     H21103   4.047   3.299   2.342  0.8895 -0.4167 -0.7632
  160MOL0     H21104   4.366   3.132   2.029  2.6628  0.8818 -1.2363
  160MOL0     H21105   4.602   3.107   1.936  1.4575  0.6921 -0.2538
  160MOL0     H21106   6.788   3.345   2.095 -1.2121  1.3915 -1.0806
  160MOL0     H21107   6.969   3.316   1.941 -0.2467  1.3684  0.6566
  160MOL0     H21108   7.238   3.222   1.719  0.5278 -0.9749  0.4849
  160MOL0     H21109   7.454   3.183   1.620 -0.3402 -1.1874  1.2137
  160MOL0     H21110   7.635   3.065   1.476  0.7889  0.4484  0.0966
  160MOL0     H21111   7.622   3.238   1.503  0.1792 -0.9424  0.3032
  160MOL0     H21112   7.753   3.102   1.265 -0.5325 -3.3340  3.0453
  160MOL0     H21113   7.747   3.279   1.286  1.5940 -1.9777 -1.9929
  160MOL0     H21114   7.871   3.076   1.479  0.8979 -1.4396 -1.3793
  160MOL0     H21115   7.860   3.250   1.506 -1.5002  1.4752 -1.3507
  160MOL0     H21116   8.022   3.106   1.301  0.6739  0.6348 -1.1097
  160MOL0     H21117   7.994   3.275   1.292  2.4047  2.2162  2.2886
  160MOL0     H21118   8.278   3.263   1.611 -0.9810  0.9567 -0.5856
  160MOL0     H21119   7.295   3.186   1.222 -1.6173  3.7111 -0.7829
  160MOL0     H21120   7.060   3.193   1.326 -0.6193 -0.1144 -0.0129
  161MOL0     O21121   3.671   2.629   0.014 -0.5585 -0.0351 -0.5963
  161MOL0     C21122   3.727   2.657   0.121  0.7003  0.3063 -0.7691
  161MOL0     O21123   3.662   2.720   0.226  0.1979  0.5166  0.0065
  161MOL0     C21124   3.530   2.760   0.202 -0.6600  0.8038 -0.2850
  161MOL0     C21125   3.437   2.682   0.264 -0.3475  1.0709 -0.4447
  161MOL0     C21126   3.300   2.704   0.242 -0.8879  0.3211  0.8990
  161MOL0     C21127   3.262   2.818   0.174  0.8284  0.7104 -0.3541
  161MOL0     O21128   3.126   2.835   0.168  0.2534 -0.2077 -1.2966
  161MOL0     C21129   3.075   2.946   0.099  0.2994 -0.2144  0.2337
  161MOL0     C21130   2.927   2.932   0.060 -0.4327 -0.2482 -0.0890
  161MOL0     C21131   2.878   3.050  -0.015  0.4814 -0.2158 -0.0274
  161MOL0     C21132   2.737   3.032  -0.065  0.2489  1.1302 -0.3590
  161MOL0     C21133   2.678   3.151  -0.137 -0.2991 -0.6118  0.1980
  161MOL0     C21134   2.535   3.138  -0.164  0.6021  0.2575  0.4406
  161MOL0     C21135   2.499   3.070  -0.292 -0.1912  1.0790  0.4054
  161MOL0     C21136   2.348   3.042  -0.312 -0.2707 -0.2456 -0.3464
  161MOL0     N21137   2.310   3.016  -0.452 -0.2251 -0.4662  0.6248
  161MOL0     C21138   2.241   2.902  -0.479  0.2239  0.2227  0.1205
  161MOL0     C21139   2.214   2.918  -0.613  0.2971 -0.3625  0.0613
  161MOL0     C21140   2.183   2.804  -0.699  0.8950  1.1350  0.2672
  161MOL0     C21141   2.072   2.850  -0.799 -0.0391  0.2296  0.2245
  161MOL0     C21142   2.016   2.733  -0.869  0.1459 -0.1229 -0.1587
  161MOL0     C21143   1.863   2.712  -0.849 -0.5312  0.7526 -0.9083
  161MOL0     O21144   1.827   2.610  -0.945 -0.2983 -0.4124 -0.5477
  161MOL0     C21145   1.688   2.601  -0.972 -0.6770 -0.0610  0.7081
  161MOL0     C21146   1.586   2.664  -0.904  0.1878  0.5349  0.1816
  161MOL0     C21147   1.448   2.653  -0.932  0.4651  0.8631 -1.4807
  161MOL0     C21148   1.407   2.566  -1.037 -0.4434 -0.3227 -0.4343
  161MOL0     C21149   1.260   2.542  -1.077 -0.6386 -0.2766  0.3057
  161MOL0     O21150   1.244   2.453  -1.178 -0.5664  0.1395  0.1236
  161MOL0     C21151   1.120   2.405  -1.210 -0.6979 -0.2405 -0.1211
  161MOL0     C21152   1.103   2.271  -1.235  0.3940  0.2579  0.4288
  161MOL0     C21153   0.983   2.230  -1.297  0.4256 -0.0534 -0.3304
  161MOL0     C21154   0.871   2.308  -1.309  0.3676 -0.2222  0.3951
  161MOL0     O21155   0.755   2.244  -1.344 -0.5318 -0.3797  0.3350
  161MOL0     C21156   0.637   2.318  -1.384  1.3011 -0.0026  0.1845
  161MOL0     C21157   0.647   2.387  -1.520  0.1300  0.3645 -0.5515
  161MOL0     C21158   0.572   2.303  -1.635  0.3494  0.3005  0.5812
  161MOL0     C21159   0.417   2.271  -1.612  0.1343  0.0708 -0.1674
  161MOL0     C21160   0.337   2.376  -1.676  0.1227 -0.7332  0.8991
  161MOL0     C21161   0.185   2.360  -1.692 -0.8442  0.2432 -0.5234
  161MOL0     C21162   0.108   2.395  -1.562  0.5537 -0.5418  0.6896
  161MOL0     C21163  -0.045   2.387  -1.596  1.2380 -0.0162 -0.1262
  161MOL0    Cl21164  -0.133   2.417  -1.437 -0.2280 -0.1455  0.1131
  161MOL0     C21165   0.899   2.443  -1.299 -0.3503  0.4122 -0.0273
  161MOL0     C21166   1.022   2.491  -1.248  0.1350 -0.2042  0.5530
  161MOL0     O21167   1.177   2.610  -1.022  0.0304  0.4360  0.7839
  161MOL0     C21168   1.511   2.498  -1.106 -0.8486 -0.0449 -0.2526
  161MOL0     C21169   1.655   2.517  -1.078  0.2817 -0.5039 -0.7549
  161MOL0     N21170   2.239   3.048  -0.651  0.3231 -0.0880  0.2552
  161MOL0     N21171   2.311   3.104  -0.556 -0.6020 -0.1677  0.6821
  161MOL0     C21172   3.357   2.898   0.118  0.4919 -0.9514 -0.4966
  161MOL0     C21173   3.494   2.863   0.114  0.7117  0.8665 -0.3647
  161MOL0     C21174   3.871   2.618   0.132  0.4501 -0.8404 -1.2506
  161MOL0     C21175   3.940   2.640   0.261 -0.1686 -0.6756  0.5050
  161MOL0     C21176   4.073   2.609   0.271 -0.3565  0.1246 -0.8009
  161MOL0     C21177   4.139   2.555   0.159 -0.9707  0.6950  0.0956
  161MOL0     O21178   4.274   2.506   0.171 -0.3306 -0.5142 -0.0257
  161MOL0     C21179   4.358   2.573   0.272  0.3167 -0.2288  0.0708
  161MOL0     C21180   4.514   2.560   0.245 -0.4806 -0.2351 -0.2674
  161MOL0     C21181   4.592   2.640   0.353  0.0935 -0.1051 -0.5316
  161MOL0     C21182   4.740   2.670   0.310  0.7479  0.2757  0.2284
  161MOL0     C21183   4.739   2.781   0.207  0.5448  0.4768 -0.6070
  161MOL0     C21184   4.734   2.847   0.109 -0.6351 -0.5011  0.1681
  161MOL0     C21185   4.072   2.523   0.044 -0.0051 -0.4598  0.4632
  161MOL0     C21186   3.941   2.569   0.028  0.2998 -0.1802  0.2858
  161MOL0     H21187   3.458   2.598   0.329  1.0027  0.3366 -1.7812
  161MOL0     H21188   3.234   2.627   0.280 -0.6272 -0.0738  0.5648
  161MOL0     H21189   3.120   2.962   0.001 -0.5087 -1.3446 -0.3434
  161MOL0     H21190   3.087   3.039   0.156  1.6472 -0.1495 -0.1259
  161MOL0     H21191   2.860   2.920   0.146  0.4237  2.7802  1.1343
  161MOL0     H21192   2.911   2.843  -0.002 -0.1406 -0.2543 -0.1584
  161MOL0     H21193   2.942   3.051  -0.104 -1.9392 -1.7766 -1.8927
  161MOL0     H21194   2.889   3.141   0.045 -0.1363 -2.2279  3.4390
  161MOL0     H21195   2.734   2.947  -0.133  2.4160 -0.6621  1.5845
  161MOL0     H21196   2.674   3.011   0.022 -2.3345 -0.4028 -2.4682
  161MOL0     H21197   2.730   3.171  -0.231  2.4737  2.7729  2.2030
  161MOL0     H21198   2.706   3.239  -0.079  0.6704 -1.2067  0.6559
  161MOL0     H21199   2.494   3.239  -0.175  1.0640  0.5793  1.5415
  161MOL0     H21200   2.481   3.094  -0.080 -0.9777 -1.3261 -1.3119
  161MOL0     H21201   2.536   3.131  -0.375 -1.9664  2.8744  0.8632
  161MOL0     H21202   2.533   2.966  -0.281 -1.5485  0.4112 -1.2726
  161MOL0     H21203   2.286   3.123  -0.272  0.0768  0.0591 -0.4215
  161MOL0     H21204   2.315   2.963  -0.244  1.1733 -1.3555 -0.8971
  161MOL0     H21205   2.231   2.815  -0.414  2.8418 -1.5942 -1.6794
  161MOL0     H21206   2.157   2.716  -0.639  2.6587 -0.1495 -0.7295
  161MOL0     H21207   2.272   2.774  -0.756  0.9853 -0.0749  1.0205
  161MOL0     H21208   2.123   2.912  -0.873  1.5409  0.4112  1.3900
  161MOL0     H21209   2.008   2.910  -0.733  0.1505 -1.9848  2.5859
  161MOL0     H21210   2.024   2.749  -0.977 -1.5516  2.0817 -0.0181
  161MOL0     H21211   2.065   2.637  -0.847  1.9158  0.5005 -1.1744
  161MOL0     H21212   1.808   2.805  -0.865 -1.9539  0.4194  1.5493
  161MOL0     H21213   1.835   2.682  -0.747 -0.1648 -2.0853 -1.5627
  161MOL0     H21214   1.613   2.712  -0.810  2.8671 -1.6063  0.6272
  161MOL0     H21215   1.373   2.705  -0.873  0.9105  0.4379 -0.5221
  161MOL0     H21216   1.174   2.196  -1.202  0.8793  0.0355 -1.0764
  161MOL0     H21217   0.966   2.123  -1.304 -0.3539 -0.0390  0.9352
  161MOL0     H21218   0.614   2.395  -1.310 -1.6917  2.4725 -3.0182
  161MOL0     H21219   0.558   2.242  -1.381  0.5843  0.5959 -1.9921
  161MOL0     H21220   0.751   2.407  -1.548  0.2835 -0.1012 -0.3318
  161MOL0     H21221   0.611   2.490  -1.517  2.8019  1.4196 -1.6944
  161MOL0     H21222   0.618   2.204  -1.646 -1.0899 -0.0608 -3.8776
  161MOL0     H21223   0.575   2.364  -1.725 -3.2309  0.4171  0.3786
  161MOL0     H21224   0.404   2.173  -1.658  1.8378  0.2664 -1.1537
  161MOL0     H21225   0.387   2.269  -1.507 -0.2407 -1.7810 -0.2901
  161MOL0     H21226   0.375   2.385  -1.778  0.0518  0.8239  0.9857
  161MOL0     H21227   0.360   2.472  -1.628 -1.4399  0.2082 -0.1494
  161MOL0     H21228   0.171   2.256  -1.722  0.1863 -0.6739  1.9160
  161MOL0     H21229   0.143   2.430  -1.765 -0.1414  0.5857 -0.6072
  161MOL0     H21230   0.127   2.327  -1.479 -0.7740 -1.5766  0.1811
  161MOL0     H21231   0.146   2.491  -1.526  1.4468 -0.2051 -1.0488
  161MOL0     H21232  -0.072   2.291  -1.641 -1.6139  0.6574  0.0049
  161MOL0     H21233  -0.069   2.462  -1.672 -1.0262 -0.1513  0.3802
  161MOL0     H21234   0.826   2.518  -1.328 -2.5878 -2.6449 -3.0291
  161MOL0     H21235   1.025   2.599  -1.249 -0.6502 -0.0593  3.7103
  161MOL0     H21236   1.479   2.428  -1.183  1.6063  0.0898 -1.4882
  161MOL0     H21237   1.732   2.457  -1.125  2.3975 -0.3157  2.1380
  161MOL0     H21238   3.325   2.983   0.058 -1.6527 -1.4421 -0.1253
  161MOL0     H21239   3.565   2.922   0.057  2.8514 -2.1354 -1.0231
  161MOL0     H21240   3.883   2.683   0.343 -0.5605 -3.9270  2.1036
  161MOL0     H21241   4.118   2.624   0.368 -3.2877  0.8014  0.5695
  161MOL0     H21242   4.323   2.537   0.369  2.5744  2.2135  1.9259
  161MOL0     H21243   4.333   2.679   0.266 -3.4949 -1.0564 -1.9974
  161MOL0     H21244   4.550   2.457   0.246 -1.0178 -0.4248 -0.2722
  161MOL0     H21245   4.528   2.587   0.139  0.6645 -0.8859 -0.3002
  161MOL0     H21246   4.606   2.579   0.443 -2.8515  0.6241  0.5235
  161MOL0     H21247   4.537   2.730   0.381  3.6208  2.3161 -0.8134
  161MOL0     H21248   4.795   2.711   0.396  0.0519  1.0129  0.3432
  161MOL0     H21249   4.772   2.571   0.278  1.0441 -0.1603  1.7720
  161MOL0     H21250   4.730   2.912   0.024 -3.8136 -0.4188  0.2776
  161MOL0     H21251   4.124   2.480  -0.041  1.0154 -0.5646  1.1264
  161MOL0     H21252   3.889   2.568  -0.067  3.4890 -0.9859 -1.6247
  162MOL0     O21253   8.291   7.498   8.106 -0.7476  0.0823 -0.0150
  162MOL0     C21254   8.204   7.414   8.087  1.3856 -1.3279 -0.0577
  162MOL0     O21255   8.215   7.279   8.096  0.1516  0.4316  0.4918
  162MOL0     C21256   8.336   7.221   8.103 -0.1225 -0.8490  0.6582
  162MOL0     C21257   8.369   7.172   8.230 -1.0501 -0.4982  0.1586
  162MOL0     C21258   8.499   7.129   8.249  0.1996  0.4012 -0.4124
  162MOL0     C21259   8.584   7.105   8.141 -0.1584 -0.2629 -0.7479
  162MOL0     O21260   8.702   7.057   8.181 -0.0472 -0.0158  0.1533
  162MOL0     C21261   8.811   7.051   8.087 -0.3766 -0.2094 -0.2724
  162MOL0     C21262   8.931   7.019   8.160 -0.5562  0.8367 -0.1562
  162MOL0     C21263   9.066   7.019   8.088  0.1203  0.1850 -0.2513
  162MOL0     C21264   9.164   6.929   8.162 -0.3967  0.4425 -0.4272
  162MOL0     C21265   9.137   6.771   8.180 -0.4589  0.0706 -0.1302
  162MOL0     C21266   9.106   6.708   8.048  0.3947  0.6599  0.6476
  162MOL0     C21267   9.100   6.551   8.055  0.4495 -0.3337 -0.5569
  162MOL0     C21268   8.975   6.498   8.121 -0.1454 -0.2579 -0.5914
  162MOL0     N21269   8.851   6.544   8.058  0.3675 -0.1448  0.1273
  162MOL0     C21270   8.818   6.536   7.921  0.6664  1.1364 -0.6127
  162MOL0     C21271   8.691   6.579   7.916  0.9637  0.9517  0.2659
  162MOL0     C21272   8.587   6.574   7.803  0.0855 -0.0765  0.4801
  162MOL0     C21273   8.435   6.548   7.837  0.8789 -0.5030  0.9071
  162MOL0     C21274   8.401   6.416   7.890 -0.4576  0.3326 -0.9819
  162MOL0     C21275   8.267   6.416   7.962 -0.1325  0.4316 -0.4075
  162MOL0     O21276   8.154   6.433   7.863  0.5627  0.1112 -0.0799
  162MOL0     C21277   8.023   6.470   7.911  0.0162  0.2790  0.4799
  162MOL0     C21278   7.980   6.454   8.042  0.0824 -0.2899  0.5116
  162MOL0     C21279   7.852   6.502   8.082 -0.4570  0.3307  0.5383
  162MOL0     C21280   7.765   6.563   7.988  0.2569 -0.5330 -0.2478
  162MOL0     C21281   7.638   6.610   8.036 -0.0518 -0.3073 -0.8789
  162MOL0     O21282   7.612   6.611   8.178  0.3007 -0.6098  0.5548
  162MOL0     C21283   7.484   6.648   8.217 -0.4326  0.4345 -0.1150
  162MOL0     C21284   7.453   6.792   8.208  0.2221 -0.0788 -0.3407
  162MOL0     C21285   7.327   6.822   8.265  1.0709  0.6891  0.5436
  162MOL0     C21286   7.237   6.729   8.322 -0.8203  0.3939 -0.6533
  162MOL0     O21287   7.112   6.750   8.373  0.5709 -0.4815  0.2368
  162MOL0     C21288   7.094   6.884   8.437 -0.5244  0.5006  0.0363
  162MOL0     C21289   6.983   6.876   8.544 -0.2563  0.1606 -0.1582
  162MOL0     C21290   6.844   6.834   8.476 -0.3823 -1.4783  0.1112
  162MOL0     C21291   6.729   6.860   8.576  0.2251  0.2056 -0.6264
  162MOL0     C21292   6.724   6.728   8.646 -0.6992 -0.4125 -0.4939
  162MOL0     C21293   6.606   6.726   8.752  0.4774  1.4973  0.9398
  162MOL0     C21294   6.588   6.587   8.817  0.7151 -1.3385 -0.3397
  162MOL0     C21295   6.470   6.592   8.920  0.0976 -0.0160  0.6967
  162MOL0    Cl21296   6.324   6.592   8.812  0.4126 -0.1004 -0.0701
  162MOL0     C21297   7.272   6.595   8.323  0.7342 -1.0080  0.2635
  162MOL0     C21298   7.400   6.552   8.279  0.4565 -0.1020 -0.3896
  162MOL0     O21299   7.559   6.665   7.958  0.5389  0.2281  0.1568
  162MOL0     C21300   7.801   6.570   7.855  0.2721  0.0999 -0.0269
  162MOL0     C21301   7.934   6.530   7.815  0.5762 -0.2924 -0.1270
  162MOL0     N21302   8.655   6.627   8.049  0.0188 -1.3148  0.5845
  162MOL0     N21303   8.759   6.623   8.121 -0.4395  0.5944 -0.7744
  162MOL0     C21304   8.548   7.150   8.013  0.1402  0.7046  0.1165
  162MOL0     C21305   8.430   7.207   7.994  0.2680  0.3825  0.3892
  162MOL0     C21306   8.069   7.470   8.073 -0.0655 -0.3274 -0.1320
  162MOL0     C21307   8.047   7.611   8.042 -0.0232  0.0360 -0.4126
  162MOL0     C21308   7.916   7.663   8.033 -0.5016 -0.5830 -0.8750
  162MOL0     C21309   7.810   7.583   8.066 -1.0701 -0.2324  0.1601
  162MOL0     O21310   7.685   7.639   8.070  0.0444 -0.4894 -0.4054
  162MOL0     C21311   7.622   7.672   7.947 -0.1051 -0.6274  0.5418
  162MOL0     C21312   7.535   7.548   7.911 -0.2329 -0.4459 -0.2568
  162MOL0     C21313   7.406   7.532   7.985 -0.2261 -0.3888  0.3347
  162MOL0     C21314   7.296   7.429   7.932 -0.2264  0.1068  0.2259
  162MOL0     C21315   7.230   7.489   7.817 -0.4524  0.7901  0.6734
  162MOL0     C21316   7.176   7.526   7.717 -0.5010 -0.8520  0.5529
  162MOL0     C21317   7.822   7.445   8.088  0.6636  0.8302  0.0791
  162MOL0     C21318   7.952   7.391   8.098  0.7277  0.4221  0.0173
  162MOL0     H21319   8.295   7.196   8.305 -1.2144  0.6970 -0.3597
  162MOL0     H21320   8.523   7.114   8.354 -3.0700  2.9743  0.8768
  162MOL0     H21321   8.820   7.142   8.027 -0.9153 -0.6767 -1.0861
  162MOL0     H21322   8.798   6.961   8.025 -0.1047  0.5056 -1.3858
  162MOL0     H21323   8.912   6.916   8.192  0.3827  1.1253  1.4720
  162MOL0     H21324   8.933   7.085   8.248  0.9855  1.1647 -0.4078
  162MOL0     H21325   9.113   7.117   8.083 -1.7352  1.0627 -1.8934
  162MOL0     H21326   9.061   6.983   7.985 -1.5059  0.3800 -0.2720
  162MOL0     H21327   9.267   6.942   8.126  0.8579 -2.6956  1.5122
  162MOL0     H21328   9.169   6.953   8.269 -2.3230 -1.5950  0.2084
  162MOL0     H21329   9.050   6.770   8.247  1.3232  0.8149  2.3296
  162MOL0     H21330   9.223   6.728   8.232  0.5502  0.9500 -1.0306
  162MOL0     H21331   9.190   6.733   7.983 -0.1382 -0.6425 -0.5982
  162MOL0     H21332   9.013   6.743   8.001  0.7512 -0.0872 -0.6601
  162MOL0     H21333   9.106   6.518   7.951 -0.6996 -1.5727 -0.2536
  162MOL0     H21334   9.196   6.517   8.096 -0.6632 -1.8006  0.9685
  162MOL0     H21335   8.973   6.543   8.220  1.8790  3.1824 -1.9357
  162MOL0     H21336   8.984   6.390   8.127  2.7521 -0.0092  2.2167
  162MOL0     H21337   8.868   6.481   7.843  2.0553  2.9427 -1.0624
  162MOL0     H21338   8.626   6.505   7.727 -0.6288 -0.9473  0.8874
  162MOL0     H21339   8.594   6.671   7.754 -4.4459 -0.6238 -1.8195
  162MOL0     H21340   8.388   6.569   7.740 -0.5453 -0.7784  1.5196
  162MOL0     H21341   8.398   6.630   7.899  1.7728  2.7464 -2.4703
  162MOL0     H21342   8.396   6.346   7.806  0.4882  0.0382 -0.8102
  162MOL0     H21343   8.479   6.380   7.958 -1.5067  1.2999  0.8334
  162MOL0     H21344   8.265   6.488   8.045 -0.2252 -1.3377  1.2042
  162MOL0     H21345   8.244   6.318   8.003  0.7430 -0.5090 -2.0730
  162MOL0     H21346   8.031   6.399   8.120 -1.9475 -0.6845  1.6075
  162MOL0     H21347   7.827   6.501   8.187 -1.8185  3.7723  0.3895
  162MOL0     H21348   7.517   6.866   8.159  0.0537 -0.4261 -1.0960
  162MOL0     H21349   7.300   6.927   8.257  3.0923  1.1089 -2.1067
  162MOL0     H21350   7.068   6.952   8.355 -2.6446 -1.2411 -0.8485
  162MOL0     H21351   7.174   6.916   8.504 -2.3630 -0.6687  3.0104
  162MOL0     H21352   6.975   6.968   8.602  1.0128 -0.0740  0.4246
  162MOL0     H21353   7.018   6.794   8.607  1.6808 -1.0177 -2.5634
  162MOL0     H21354   6.848   6.731   8.438  0.6966 -0.2788 -3.4968
  162MOL0     H21355   6.831   6.893   8.385  2.7842 -0.9733 -0.1385
  162MOL0     H21356   6.748   6.947   8.640 -1.0033  2.1453 -2.7642
  162MOL0     H21357   6.634   6.874   8.525  0.0475 -2.4769 -1.1824
  162MOL0     H21358   6.822   6.705   8.690  0.1856  2.8527 -0.5073
  162MOL0     H21359   6.703   6.645   8.579 -1.8541 -0.3136 -0.2836
  162MOL0     H21360   6.520   6.736   8.686  3.3147  0.0503 -3.4401
  162MOL0     H21361   6.610   6.811   8.821  2.3865  3.0299 -0.9218
  162MOL0     H21362   6.565   6.499   8.756  0.4220 -1.7556  0.3497
  162MOL0     H21363   6.688   6.570   8.860  0.6641  0.7019  0.6888
  162MOL0     H21364   6.482   6.679   8.986  5.9780 -0.0437  0.1469
  162MOL0     H21365   6.456   6.501   8.980 -1.0443 -2.3716 -2.8284
  162MOL0     H21366   7.208   6.516   8.361 -0.0242  0.2963  1.8020
  162MOL0     H21367   7.428   6.449   8.301 -1.8486 -0.3806  1.6995
  162MOL0     H21368   7.735   6.612   7.779  1.4299  1.9767 -0.0591
  162MOL0     H21369   7.970   6.543   7.713  2.1795  0.8830  0.5477
  162MOL0     H21370   8.618   7.120   7.936 -0.2286 -1.0549  0.4421
  162MOL0     H21371   8.402   7.232   7.892 -0.2806 -1.4369  0.0478
  162MOL0     H21372   8.136   7.671   8.026  1.2981 -1.8297 -0.3685
  162MOL0     H21373   7.903   7.769   8.017 -1.1184 -0.8281 -2.1677
  162MOL0     H21374   7.701   7.686   7.873  2.2737 -1.1446  2.8502
  162MOL0     H21375   7.561   7.763   7.948 -1.3545 -1.3458 -1.5750
  162MOL0     H21376   7.505   7.574   7.809 -1.3087  0.0241  0.1616
  162MOL0     H21377   7.594   7.457   7.920 -1.7097 -1.4541 -0.3020
  162MOL0     H21378   7.344   7.620   8.003  0.5631  0.3424 -0.4331
  162MOL0     H21379   7.441   7.508   8.087  1.9928  1.5605  0.1244
  162MOL0     H21380   7.342   7.330   7.927  1.9134  0.9485  1.4779
  162MOL0     H21381   7.214   7.423   8.004  0.6474 -0.9576  1.1717
  162MOL0     H21382   7.136   7.578   7.633  0.0167 -2.3944 -0.7085
  162MOL0     H21383   7.731   7.393   8.116 -0.5926  3.9605  2.4924
  162MOL0     H21384   7.963   7.284   8.114 -1.4844 -0.0087 -0.9327
  163MOL0     O21385   7.750  10.339   9.756 -0.0801 -0.1494 -0.7554
  163MOL0     C21386   7.824  10.430   9.779  0.5039 -0.6910 -0.4513
  163MOL0     O21387   7.787  10.552   9.831 -0.6453  0.1727  0.2245
  163MOL0     C21388   7.657  10.589   9.836 -0.8054 -0.8928 -0.5270
  163MOL0     C21389   7.562  10.556   9.734 -0.4046 -0.2398  1.3163
  163MOL0     C21390   7.434  10.597   9.738 -0.0641 -0.6921  0.5252
  163MOL0     C21391   7.393  10.683   9.841 -0.2054 -0.7192  0.0835
  163MOL0     O21392   7.267  10.740   9.844 -0.2852  0.3048 -0.2449
  163MOL0     C21393   7.208  10.743   9.979 -0.9198 -0.1966  0.0421
  163MOL0     C21394   7.107  10.622   9.983  0.4636  0.0756  0.7282
  163MOL0     C21395   7.170  10.487  10.006  0.1052  0.3106 -0.0644
  163MOL0     C21396   7.061  10.382   9.987  0.8894  0.8920 -0.0101
  163MOL0     C21397   7.002  10.359   9.846 -1.1550  0.7506 -0.9782
  163MOL0     C21398   6.979  10.212   9.808  0.6533  0.2160  0.8291
  163MOL0     C21399   6.869  10.136   9.901  0.0974 -0.7051  0.2598
  163MOL0     C21400   6.795  10.028   9.820 -0.9409 -0.0727  0.5876
  163MOL0     N21401   6.667  10.082   9.762 -0.7824 -0.3268 -0.2781
  163MOL0     C21402   6.658  10.165   9.641  0.1552  0.3091  0.4627
  163MOL0     C21403   6.521  10.181   9.640  0.6649 -0.5623  0.1054
  163MOL0     C21404   6.450  10.268   9.546  1.0825  1.4243 -0.3600
  163MOL0     C21405   6.297  10.264   9.570 -0.6765 -0.8781  0.3462
  163MOL0     C21406   6.238  10.337   9.699  0.3647 -0.9479  0.0599
  163MOL0     C21407   6.081  10.335   9.719  0.1918 -0.4916 -0.7235
  163MOL0     O21408   6.044  10.201   9.729 -1.2446 -0.6831  0.5883
  163MOL0     C21409   5.914  10.176   9.720 -0.5411  0.5835  0.0167
  163MOL0     C21410   5.852  10.130   9.836  0.1141  0.1154 -0.2011
  163MOL0     C21411   5.716  10.100   9.834  0.1029  1.0648 -0.3875
  163MOL0     C21412   5.634  10.130   9.723  0.0740 -0.1409  0.5481
  163MOL0     C21413   5.490  10.103   9.730 -0.3451  0.1068 -0.3203
  163MOL0     O21414   5.424  10.097   9.610 -1.1147  0.1238 -0.5441
  163MOL0     C21415   5.287  10.090   9.586 -0.2307 -1.2520 -0.2622
  163MOL0     C21416   5.256  10.116   9.456 -0.4481  0.2152  0.5219
  163MOL0     C21417   5.125  10.086   9.412  0.4869 -0.0742 -0.3654
  163MOL0     C21418   5.020  10.063   9.498 -0.3560  0.6984  0.3465
  163MOL0     O21419   4.886  10.061   9.457 -0.3900 -0.4621  0.2890
  163MOL0     C21420   4.860   9.950   9.364 -0.2632 -0.3444 -0.8316
  163MOL0     C21421   4.708   9.949   9.317  0.4523  0.2709 -0.3854
  163MOL0     C21422   4.607   9.963   9.437  1.0536 -0.3253  0.4503
  163MOL0     C21423   4.465   9.994   9.376 -0.1691 -0.1267 -0.4059
  163MOL0     C21424   4.345  10.018   9.477 -0.2630  0.3536  0.0955
  163MOL0     C21425   4.312  10.165   9.500  0.3439 -1.0098 -0.8111
  163MOL0     C21426   4.172  10.185   9.566 -0.4909  0.3687 -0.4176
  163MOL0     C21427   4.145  10.339   9.583 -0.3365  0.4841  1.0655
  163MOL0    Cl21428   3.986  10.363   9.667  0.3078 -0.0766  0.5960
  163MOL0     C21429   5.052  10.050   9.632  0.0501 -0.1166 -0.3182
  163MOL0     C21430   5.184  10.061   9.682 -0.6430  0.1685  0.4321
  163MOL0     O21431   5.438  10.109   9.840 -0.2672 -0.5377  0.4219
  163MOL0     C21432   5.700  10.178   9.601  0.5958 -0.4762  0.4013
  163MOL0     C21433   5.839  10.204   9.604  0.0635 -0.4212  0.0028
  163MOL0     N21434   6.465  10.103   9.738 -0.2482  0.0361 -0.4529
  163MOL0     N21435   6.549  10.050   9.826  0.0448  0.0444  0.2826
  163MOL0     C21436   7.488  10.728   9.930  0.3673  0.1411 -0.3269
  163MOL0     C21437   7.614  10.681   9.935 -0.2171  0.5883  0.4142
  163MOL0     C21438   7.966  10.420   9.741  0.1466 -0.1689 -0.0406
  163MOL0     C21439   8.018  10.295   9.710  0.3674 -0.0712 -0.3876
  163MOL0     C21440   8.152  10.271   9.703  0.2676 -0.6967 -0.0186
  163MOL0     C21441   8.246  10.367   9.715 -0.4315  0.4597 -0.2482
  163MOL0     O21442   8.376  10.319   9.707  0.9558 -0.0225 -0.2829
  163MOL0     C21443   8.489  10.414   9.732  0.6853  0.1483  0.0742
  163MOL0     C21444   8.522  10.478   9.597 -0.3563  0.2669 -0.2026
  163MOL0     C21445   8.582  10.377   9.494 -0.1759  0.0181 -1.0469
  163MOL0     C21446   8.606  10.443   9.367  0.1115 -0.1081  0.5293
  163MOL0     C21447   8.731  10.530   9.361 -0.3591  0.1915 -0.1022
  163MOL0     C21448   8.843  10.578   9.344 -0.3974 -0.9863 -0.7289
  163MOL0     C21449   8.196  10.500   9.738 -0.0339  0.5551  1.4994
  163MOL0     C21450   8.057  10.522   9.745  0.0504  0.4935 -0.0595
  163MOL0     H21451   7.589  10.488   9.653 -3.1302 -0.6331  0.6186
  163MOL0     H21452   7.365  10.580   9.656 -0.8879  3.4802  0.1303
  163MOL0     H21453   7.158  10.840   9.988 -1.4253 -0.2096 -2.0839
  163MOL0     H21454   7.284  10.728  10.056 -0.2402  2.9975  0.1170
  163MOL0     H21455   7.052  10.626   9.888  3.1917  0.9974 -0.9158
  163MOL0     H21456   7.038  10.631  10.067  0.5832  0.2396  0.8098
  163MOL0     H21457   7.199  10.476  10.111  2.3444 -0.4611 -0.7134
  163MOL0     H21458   7.263  10.471   9.949 -0.4045 -0.3047 -0.7414
  163MOL0     H21459   7.108  10.287  10.013 -0.3955  0.6377  1.5163
  163MOL0     H21460   6.976  10.395  10.055 -0.7086 -1.9389 -1.2969
  163MOL0     H21461   7.081  10.394   9.779  0.9880 -0.5160  0.7541
  163MOL0     H21462   6.908  10.409   9.822 -2.4656 -1.9568 -1.8796
  163MOL0     H21463   7.078  10.166   9.816  1.9222  2.2463 -1.6574
  163MOL0     H21464   6.955  10.204   9.702  2.3591 -0.4072  0.4608
  163MOL0     H21465   6.923  10.088   9.983  0.2883  1.5315  1.5167
  163MOL0     H21466   6.804  10.217   9.936  1.7858 -0.3881  2.9705
  163MOL0     H21467   6.782   9.939   9.882 -1.0234 -1.5746 -1.4758
  163MOL0     H21468   6.856  10.010   9.731 -4.7090 -0.2055 -2.2442
  163MOL0     H21469   6.734  10.211   9.578 -0.2968 -1.9753 -1.9053
  163MOL0     H21470   6.460  10.219   9.449 -0.1697 -1.7083  0.9706
  163MOL0     H21471   6.483  10.372   9.556 -1.9020  2.4084  0.2700
  163MOL0     H21472   6.264  10.160   9.559 -2.7379 -0.4679  1.9171
  163MOL0     H21473   6.264  10.320   9.482  1.8253 -0.1437 -0.2043
  163MOL0     H21474   6.282  10.279   9.781 -0.9007  0.0794  1.5423
  163MOL0     H21475   6.264  10.443   9.696 -0.1672 -0.8362 -1.5015
  163MOL0     H21476   6.019  10.386   9.645  0.1472 -0.7737 -0.8846
  163MOL0     H21477   6.061  10.384   9.815 -1.9944  2.0045 -2.3197
  163MOL0     H21478   5.905  10.105   9.928 -0.9135 -0.8761  0.1484
  163MOL0     H21479   5.669  10.066   9.925 -0.0850  4.0103  0.7430
  163MOL0     H21480   5.328  10.150   9.383 -1.6221  0.4246 -0.5821
  163MOL0     H21481   5.112  10.087   9.305  1.3234 -0.7095 -0.4800
  163MOL0     H21482   4.881   9.863   9.427  0.8135 -0.8502 -1.8588
  163MOL0     H21483   4.922   9.948   9.274  1.4359  0.6436  0.2637
  163MOL0     H21484   4.697   9.856   9.261  0.9766  0.3490 -0.6228
  163MOL0     H21485   4.706  10.031   9.244  2.4640 -0.7199 -1.6301
  163MOL0     H21486   4.633  10.054   9.492  0.2323  1.7408 -2.2966
  163MOL0     H21487   4.598   9.878   9.505 -0.1094 -0.6168 -0.0303
  163MOL0     H21488   4.470  10.083   9.313  1.8130  1.5444  1.9072
  163MOL0     H21489   4.438   9.909   9.312  0.5266  0.8481 -2.0446
  163MOL0     H21490   4.357   9.978   9.578  2.5772  2.3042  0.6580
  163MOL0     H21491   4.260   9.974   9.424  0.5723  1.3750 -2.2685
  163MOL0     H21492   4.323  10.222   9.408 -0.8943  1.9125  0.7164
  163MOL0     H21493   4.392  10.210   9.559 -0.3398  0.6788 -1.1334
  163MOL0     H21494   4.090  10.154   9.500 -1.8966  2.7045  0.0977
  163MOL0     H21495   4.173  10.142   9.667 -1.2173  1.5309  0.1068
  163MOL0     H21496   4.141  10.380   9.482 -2.5358  0.9675  1.2957
  163MOL0     H21497   4.220  10.385   9.648  0.4171 -0.3242  0.7953
  163MOL0     H21498   4.966  10.041   9.698 -1.8748 -0.6892 -2.7346
  163MOL0     H21499   5.194  10.042   9.788 -1.6808 -0.2847  0.4543
  163MOL0     H21500   5.648  10.195   9.507 -0.5420 -2.3397  0.6297
  163MOL0     H21501   5.875  10.254   9.515 -2.7073  3.6679  0.9312
  163MOL0     H21502   7.461  10.813   9.991  1.9163  2.0325 -2.1268
  163MOL0     H21503   7.674  10.714  10.018 -1.6311 -2.7015  2.9855
  163MOL0     H21504   7.957  10.208   9.687  0.0647 -0.2835  1.0969
  163MOL0     H21505   8.196  10.172   9.692 -0.4097 -1.0824  0.6114
  163MOL0     H21506   8.576  10.357   9.768 -0.8523 -1.9465  0.6585
  163MOL0     H21507   8.463  10.486   9.810 -0.0996  0.4766 -0.4815
  163MOL0     H21508   8.432  10.526   9.557 -0.8568  0.3514  0.9653
  163MOL0     H21509   8.589  10.561   9.619 -1.6214  0.9392  1.3866
  163MOL0     H21510   8.520  10.287   9.482 -0.0011 -1.3207  4.8749
  163MOL0     H21511   8.683  10.347   9.522 -0.2970  0.2403 -0.3525
  163MOL0     H21512   8.613  10.368   9.288  2.1203  0.6809 -0.0932
  163MOL0     H21513   8.521  10.509   9.344  0.0895 -0.8099 -1.7218
  163MOL0     H21514   8.944  10.614   9.333 -1.2222  1.5801 -0.4012
  163MOL0     H21515   8.267  10.581   9.725  0.7318 -0.1227  1.3311
  163MOL0     H21516   8.019  10.623   9.754 -5.1142 -1.0846 -0.7324
  164MOL0     O21517   4.473   6.935   1.245  0.1011  0.5297 -1.1115
  164MOL0     C21518   4.527   7.045   1.221 -0.2029  0.5641  1.1797
  164MOL0     O21519   4.467   7.142   1.150  0.0199 -0.1956  0.0586
  164MOL0     C21520   4.343   7.137   1.096  0.1964  0.2526 -0.1024
  164MOL0     C21521   4.274   7.022   1.061 -0.9089 -0.5499 -0.9447
  164MOL0     C21522   4.138   7.036   1.026  0.4962  0.0170 -0.0651
  164MOL0     C21523   4.075   7.150   0.993  0.7185 -0.2352  0.7288
  164MOL0     O21524   3.943   7.141   0.952  0.3045  0.1836  1.1122
  164MOL0     C21525   3.854   7.244   0.996  0.2784  0.5424 -0.2093
  164MOL0     C21526   3.813   7.340   0.887  0.1757 -0.4002  0.3883
  164MOL0     C21527   3.741   7.285   0.759  0.0736  0.7082  0.0752
  164MOL0     C21528   3.818   7.284   0.626  1.2475  0.1202 -0.0420
  164MOL0     C21529   3.722   7.233   0.507 -0.0462  0.4365  0.5880
  164MOL0     C21530   3.629   7.336   0.447 -0.4717  0.8223 -0.2755
  164MOL0     C21531   3.543   7.287   0.326  0.7229  0.4427 -0.0665
  164MOL0     C21532   3.442   7.394   0.288  0.4248  0.1092 -0.0912
  164MOL0     N21533   3.351   7.364   0.173 -1.1286 -0.2902  0.0481
  164MOL0     C21534   3.377   7.416   0.048  0.3744 -0.6210 -0.2696
  164MOL0     C21535   3.303   7.353  -0.043 -1.0905 -0.2343 -0.4719
  164MOL0     C21536   3.295   7.380  -0.189  0.7985 -0.2672  0.5860
  164MOL0     C21537   3.376   7.271  -0.267  0.1368 -0.6511 -0.2219
  164MOL0     C21538   3.524   7.260  -0.247 -0.0838  0.3891 -0.4473
  164MOL0     C21539   3.598   7.372  -0.316 -0.9500 -0.2857  0.4383
  164MOL0     O21540   3.598   7.481  -0.224 -0.7106  0.2849 -0.7147
  164MOL0     C21541   3.661   7.603  -0.254  0.2762 -0.0684  0.3192
  164MOL0     C21542   3.724   7.635  -0.367  0.3501  0.0623  0.0119
  164MOL0     C21543   3.782   7.765  -0.378 -0.0166  0.2829  1.0788
  164MOL0     C21544   3.784   7.853  -0.266 -0.2106  0.3722 -0.6478
  164MOL0     C21545   3.856   7.985  -0.273 -0.0846  1.6010  0.0029
  164MOL0     O21546   3.908   8.013  -0.400 -0.1230  0.6672  0.0754
  164MOL0     C21547   3.984   8.126  -0.410  0.4893 -1.6979 -0.7654
  164MOL0     C21548   4.108   8.136  -0.351  0.0334 -0.2060 -0.0519
  164MOL0     C21549   4.189   8.246  -0.369  0.3625 -1.5961  0.0818
  164MOL0     C21550   4.146   8.351  -0.449 -0.6900 -0.4227  0.7728
  164MOL0     O21551   4.231   8.450  -0.490  0.0545 -0.0765  0.0082
  164MOL0     C21552   4.351   8.479  -0.414 -1.0576 -0.1631 -0.8035
  164MOL0     C21553   4.430   8.596  -0.489 -0.3093  0.0647  0.2958
  164MOL0     C21554   4.568   8.637  -0.428 -0.3591  0.5383 -0.3059
  164MOL0     C21555   4.562   8.666  -0.277 -0.2511  0.0144  0.5429
  164MOL0     C21556   4.711   8.671  -0.235 -0.0887 -0.1412 -0.6820
  164MOL0     C21557   4.798   8.788  -0.291 -0.6113 -0.0320 -0.1492
  164MOL0     C21558   4.726   8.926  -0.296  0.4217 -0.0844  0.0792
  164MOL0     C21559   4.836   9.041  -0.296  0.1428  0.0871  0.0896
  164MOL0    Cl21560   4.759   9.186  -0.356  0.4300 -0.0840 -0.1509
  164MOL0     C21561   4.022   8.348  -0.516  0.0865 -0.7256 -0.6584
  164MOL0     C21562   3.940   8.236  -0.491  0.6875  0.5248  0.0107
  164MOL0     O21563   3.855   8.059  -0.176  0.5951  0.2535 -0.1162
  164MOL0     C21564   3.716   7.814  -0.143 -0.5747 -0.2737  0.0097
  164MOL0     C21565   3.660   7.687  -0.143  0.7412 -0.7988 -0.1241
  164MOL0     N21566   3.237   7.254   0.027 -0.2327  0.0678 -0.4544
  164MOL0     N21567   3.263   7.263   0.159  0.5772 -0.1739 -0.6217
  164MOL0     C21568   4.150   7.272   1.015 -1.4156  0.6295 -0.5208
  164MOL0     C21569   4.281   7.258   1.072 -0.4198 -0.5345 -0.1306
  164MOL0     C21570   4.660   7.071   1.280  0.4607  0.4652 -0.7164
  164MOL0     C21571   4.717   7.196   1.268 -0.5912  0.3572  0.2054
  164MOL0     C21572   4.844   7.232   1.318  0.2272  0.1603 -0.3240
  164MOL0     C21573   4.922   7.136   1.373 -0.1034  0.3053 -0.6741
  164MOL0     O21574   5.051   7.163   1.423 -0.1126  0.1489 -0.8275
  164MOL0     C21575   5.115   7.286   1.403  0.5976  0.6573 -0.0974
  164MOL0     C21576   5.246   7.297   1.483 -0.1657  0.2035 -0.7457
  164MOL0     C21577   5.329   7.423   1.457  1.1434  0.4587  0.1441
  164MOL0     C21578   5.474   7.408   1.502 -0.4472 -0.0184  0.1371
  164MOL0     C21579   5.490   7.396   1.647  0.5037 -0.6048 -0.7361
  164MOL0     C21580   5.512   7.367   1.764  1.3380 -0.3249 -0.2888
  164MOL0     C21581   4.874   7.005   1.387  1.0768  0.0501 -0.1333
  164MOL0     C21582   4.752   6.970   1.326 -0.1744 -0.7666 -0.2097
  164MOL0     H21583   4.314   6.922   1.073  1.7634  0.5657  0.0302
  164MOL0     H21584   4.077   6.946   1.020 -1.3477  1.2280 -0.3614
  164MOL0     H21585   3.875   7.300   1.087 -2.1775  3.7137 -1.3869
  164MOL0     H21586   3.765   7.183   1.014  2.1067 -2.3292 -0.3146
  164MOL0     H21587   3.894   7.399   0.843 -1.4846 -0.0523 -2.4119
  164MOL0     H21588   3.754   7.418   0.936  0.1998  0.6557 -1.2106
  164MOL0     H21589   3.657   7.351   0.736  0.5203  0.9943 -0.7877
  164MOL0     H21590   3.700   7.185   0.775 -0.1017  0.7808  0.0806
  164MOL0     H21591   3.849   7.385   0.596 -1.7137  1.4314  0.9339
  164MOL0     H21592   3.907   7.223   0.643  2.7383  1.8527 -1.2017
  164MOL0     H21593   3.676   7.138   0.536  2.2741 -0.4215  1.7276
  164MOL0     H21594   3.786   7.202   0.424 -0.4358 -2.9662  1.4127
  164MOL0     H21595   3.689   7.423   0.419  0.9700 -0.4507 -1.3210
  164MOL0     H21596   3.566   7.377   0.526  0.0146 -0.5356  0.8611
  164MOL0     H21597   3.611   7.268   0.244 -0.0196 -2.7392 -0.0643
  164MOL0     H21598   3.491   7.193   0.346  0.0795  0.9734  0.8714
  164MOL0     H21599   3.491   7.491   0.273 -0.1446  0.6469  1.3772
  164MOL0     H21600   3.382   7.409   0.378  0.9266  2.3023 -0.0532
  164MOL0     H21601   3.434   7.505   0.025 -0.4728 -0.2695 -1.0254
  164MOL0     H21602   3.338   7.478  -0.209  0.5395 -0.4707 -1.1747
  164MOL0     H21603   3.191   7.372  -0.221  1.1437 -1.8307 -0.2515
  164MOL0     H21604   3.352   7.284  -0.372  2.6438  1.5580 -0.6256
  164MOL0     H21605   3.334   7.172  -0.244 -2.9199  0.5319 -0.3030
  164MOL0     H21606   3.544   7.256  -0.140  0.4944  0.7670 -0.5381
  164MOL0     H21607   3.550   7.164  -0.293  0.0596  1.6209 -3.1277
  164MOL0     H21608   3.562   7.399  -0.415 -1.8075  3.6563  1.6172
  164MOL0     H21609   3.701   7.346  -0.341 -0.7177 -0.2980  1.3694
  164MOL0     H21610   3.746   7.558  -0.441  1.6779 -0.8058  1.2491
  164MOL0     H21611   3.846   7.778  -0.464 -0.7182 -1.5833  0.2089
  164MOL0     H21612   4.140   8.056  -0.286 -1.7867 -0.5141  0.5305
  164MOL0     H21613   4.286   8.229  -0.324  1.0103 -1.9099 -1.3628
  164MOL0     H21614   4.417   8.392  -0.403 -2.1722 -0.8113  1.4287
  164MOL0     H21615   4.317   8.519  -0.318  0.8825 -1.6206  0.5627
  164MOL0     H21616   4.366   8.684  -0.482 -1.7356 -0.9980  1.4193
  164MOL0     H21617   4.438   8.559  -0.591 -1.2613  2.6214 -0.7832
  164MOL0     H21618   4.626   8.719  -0.470 -0.1254 -0.0816 -1.2233
  164MOL0     H21619   4.623   8.543  -0.441  2.9777  2.5637 -1.8750
  164MOL0     H21620   4.509   8.757  -0.249  1.4100  2.1597 -2.7206
  164MOL0     H21621   4.520   8.577  -0.227  0.3795 -0.9191 -0.5497
  164MOL0     H21622   4.763   8.578  -0.259  4.5855  2.1391 -0.4671
  164MOL0     H21623   4.708   8.683  -0.126 -0.0574 -0.4623 -0.6442
  164MOL0     H21624   4.835   8.754  -0.388  0.8535 -0.0122  0.3777
  164MOL0     H21625   4.894   8.800  -0.240 -1.3224 -1.4179  1.6278
  164MOL0     H21626   4.657   8.939  -0.380 -0.0327  1.4294  0.6536
  164MOL0     H21627   4.677   8.941  -0.200 -0.1955 -0.0528 -0.2333
  164MOL0     H21628   4.927   9.013  -0.351  0.0233 -0.6924  0.2753
  164MOL0     H21629   4.873   9.071  -0.197 -1.0003  0.3565  0.4517
  164MOL0     H21630   4.002   8.429  -0.585  1.7808  1.3407  1.1438
  164MOL0     H21631   3.843   8.224  -0.537  0.1695 -1.1321  1.4594
  164MOL0     H21632   3.726   7.878  -0.056 -0.1008  0.5699 -0.6417
  164MOL0     H21633   3.605   7.654  -0.055 -0.3576 -1.9749 -1.2035
  164MOL0     H21634   4.116   7.373   0.994 -1.1432  1.3233  1.9651
  164MOL0     H21635   4.341   7.342   1.106 -0.3236 -0.2033 -1.0994
  164MOL0     H21636   4.654   7.273   1.224 -0.7820 -0.1015 -0.3306
  164MOL0     H21637   4.878   7.334   1.306  0.7010  0.1917  1.1580
  164MOL0     H21638   5.046   7.362   1.441  1.1485  0.6853  0.8636
  164MOL0     H21639   5.145   7.302   1.299  1.0583  1.5135  0.1560
  164MOL0     H21640   5.229   7.291   1.591  0.6251 -0.2101 -0.6324
  164MOL0     H21641   5.309   7.210   1.461 -0.6847 -0.0896 -1.0881
  164MOL0     H21642   5.277   7.507   1.505 -2.4029 -0.2950 -2.0116
  164MOL0     H21643   5.318   7.440   1.350 -0.3162  0.0110  0.2029
  164MOL0     H21644   5.526   7.322   1.458  1.3133  1.1554 -0.2202
  164MOL0     H21645   5.532   7.499   1.482  1.1960 -0.0784  3.9236
  164MOL0     H21646   5.509   7.343   1.868 -1.7954 -3.3318 -0.8796
  164MOL0     H21647   4.937   6.928   1.431  1.9378  0.7774 -0.0462
  164MOL0     H21648   4.723   6.865   1.317  0.3039 -0.8535 -0.7597
  165MOL0     O21649   9.398   7.841  10.634  0.8460 -0.4404 -0.7123
  165MOL0     C21650   9.423   7.873  10.523 -0.4404 -0.6758 -0.4937
  165MOL0     O21651   9.367   7.977  10.456  0.0519  0.0609  0.9481
  165MOL0     C21652   9.259   8.047  10.502 -0.5283 -0.7943  0.5132
  165MOL0     C21653   9.280   8.183  10.533  0.7097  0.3938 -0.1572
  165MOL0     C21654   9.171   8.269  10.572 -0.0791 -0.1632 -0.0647
  165MOL0     C21655   9.045   8.213  10.578 -0.3312 -0.0377 -0.2387
  165MOL0     O21656   8.941   8.305  10.579  0.3494  0.0854  1.3518
  165MOL0     C21657   8.818   8.273  10.639 -0.0240  0.1616  0.4295
  165MOL0     C21658   8.710   8.380  10.616 -0.2560  1.3726 -0.1348
  165MOL0     C21659   8.587   8.332  10.681  0.7547 -0.6354  0.2934
  165MOL0     C21660   8.476   8.404  10.616  0.3516 -0.6951  0.4707
  165MOL0     C21661   8.347   8.393  10.689  0.4543  0.5533  0.5669
  165MOL0     C21662   8.220   8.455  10.617 -0.1248 -0.1487  0.4897
  165MOL0     C21663   8.101   8.448  10.716  0.1326 -0.6002  1.3297
  165MOL0     C21664   8.041   8.314  10.743  0.0042 -0.2786  1.0480
  165MOL0     N21665   7.902   8.327  10.776  0.6451  0.0639  0.7578
  165MOL0     C21666   7.862   8.405  10.885 -0.3384 -0.8048  0.4448
  165MOL0     C21667   7.735   8.373  10.900  0.6599 -0.7451 -0.2450
  165MOL0     C21668   7.633   8.444  10.990 -1.3077 -0.7298  0.0654
  165MOL0     C21669   7.624   8.601  10.974 -0.1185 -0.3116  0.1016
  165MOL0     C21670   7.522   8.664  11.068  0.0062 -0.0951 -0.5055
  165MOL0     C21671   7.371   8.626  11.047 -0.2034  0.7768  0.3570
  165MOL0     O21672   7.334   8.504  11.121 -0.7700 -0.4867 -0.4089
  165MOL0     C21673   7.219   8.439  11.086  0.6636 -0.0690 -0.2058
  165MOL0     C21674   7.140   8.387  11.195 -0.0719 -0.5816  0.3925
  165MOL0     C21675   7.020   8.320  11.174 -0.2063  0.1242 -0.0111
  165MOL0     C21676   6.973   8.309  11.039 -0.5082  0.0336 -0.4469
  165MOL0     C21677   6.842   8.241  11.017  0.2395 -0.9344  0.1248
  165MOL0     O21678   6.783   8.168  11.123  0.1756  0.6193  0.0804
  165MOL0     C21679   6.672   8.102  11.092 -0.0384 -0.4630 -0.2170
  165MOL0     C21680   6.651   8.011  10.984  1.2282  0.0987 -0.2063
  165MOL0     C21681   6.541   7.932  10.982 -0.1826 -0.2627  0.7160
  165MOL0     C21682   6.440   7.938  11.081 -0.4350  0.3190  0.4050
  165MOL0     O21683   6.329   7.851  11.071 -0.8167 -0.6568 -0.0164
  165MOL0     C21684   6.264   7.839  10.944 -0.8100  0.2666  0.3648
  165MOL0     C21685   6.132   7.769  10.940  0.0734 -1.3203  0.5335
  165MOL0     C21686   6.032   7.839  11.040 -0.7048 -0.3573  0.3086
  165MOL0     C21687   5.908   7.758  11.053 -0.3193 -0.3020 -0.8836
  165MOL0     C21688   5.820   7.746  10.923 -0.0416 -0.3066  0.3866
  165MOL0     C21689   5.679   7.693  10.949  1.1086  0.1973 -0.2628
  165MOL0     C21690   5.599   7.686  10.832  0.5630  0.2873  0.2440
  165MOL0     C21691   5.546   7.819  10.764 -0.2753 -0.5014  0.7158
  165MOL0    Cl21692   5.671   7.891  10.652 -0.0462  0.6158 -0.6795
  165MOL0     C21693   6.453   8.028  11.178 -0.3503 -1.2001 -0.3871
  165MOL0     C21694   6.566   8.115  11.185 -0.0438  0.2518  0.7046
  165MOL0     O21695   6.795   8.245  10.902 -0.6581 -0.1297  0.6167
  165MOL0     C21696   7.054   8.363  10.932  0.8937  0.2352  0.2583
  165MOL0     C21697   7.173   8.434  10.954 -0.2790 -0.6858 -0.3507
  165MOL0     N21698   7.694   8.281  10.803 -0.3986 -0.1713 -0.3227
  165MOL0     N21699   7.792   8.258  10.731 -0.0797  0.1674  0.7455
  165MOL0     C21700   9.028   8.074  10.558 -0.6045  0.6249 -1.2640
  165MOL0     C21701   9.137   7.989  10.529 -0.6119  0.0291  0.9868
  165MOL0     C21702   9.543   7.797  10.469 -0.3895 -0.5978  0.0825
  165MOL0     C21703   9.587   7.823  10.336  0.4459  0.6201 -0.4176
  165MOL0     C21704   9.698   7.759  10.285  0.3211 -0.4105  0.1932
  165MOL0     C21705   9.767   7.662  10.354  0.6693 -0.1382 -0.2534
  165MOL0     O21706   9.881   7.592  10.319  0.6609  0.3537  0.3226
  165MOL0     C21707   9.932   7.624  10.182  0.0229  0.7112 -0.3930
  165MOL0     C21708  10.019   7.497  10.158  0.5896  0.3220  0.0012
  165MOL0     C21709  10.162   7.526  10.207 -0.1951  0.0563  0.3497
  165MOL0     C21710  10.171   7.545  10.360  0.1936 -0.3124  0.4707
  165MOL0     C21711  10.312   7.521  10.380 -0.2569 -0.1732 -0.4723
  165MOL0     C21712  10.428   7.500  10.409  0.0678 -1.1316 -0.2914
  165MOL0     C21713   9.730   7.638  10.481 -0.4883 -0.0687 -0.7526
  165MOL0     C21714   9.622   7.702  10.549 -0.4576  0.2987 -0.2201
  165MOL0     H21715   9.377   8.230  10.525  0.8837 -0.0246 -0.5978
  165MOL0     H21716   9.195   8.374  10.584  1.0725 -0.4758  0.5693
  165MOL0     H21717   8.827   8.278  10.748 -2.3449  1.4190  0.6159
  165MOL0     H21718   8.773   8.180  10.603 -2.6370  0.6399  2.1928
  165MOL0     H21719   8.695   8.376  10.508  0.3201 -0.5855 -0.1925
  165MOL0     H21720   8.742   8.476  10.659 -0.3810 -0.2372  4.0961
  165MOL0     H21721   8.594   8.342  10.790 -0.3246 -0.4870  0.3571
  165MOL0     H21722   8.568   8.225  10.684  0.1491 -0.5264  3.6214
  165MOL0     H21723   8.513   8.507  10.614  3.3513 -1.5793  2.5711
  165MOL0     H21724   8.458   8.362  10.517 -1.2655 -0.6649  0.7194
  165MOL0     H21725   8.364   8.449  10.782 -1.1010  0.6163  0.8476
  165MOL0     H21726   8.335   8.288  10.717  2.3316  0.1929  0.1310
  165MOL0     H21727   8.195   8.391  10.532 -3.0724  0.7827  0.5253
  165MOL0     H21728   8.243   8.555  10.580 -1.8796 -0.0353 -0.4171
  165MOL0     H21729   8.141   8.489  10.809  2.5593 -0.5459  0.3319
  165MOL0     H21730   8.023   8.507  10.667  0.8570  0.4431  1.4050
  165MOL0     H21731   8.093   8.277  10.832  0.7221 -0.6770  0.4723
  165MOL0     H21732   8.065   8.240  10.666  2.0100  2.5013 -1.1803
  165MOL0     H21733   7.919   8.470  10.951 -0.4862 -0.2083  0.0022
  165MOL0     H21734   7.665   8.426  11.093  0.1179 -0.5201 -0.3184
  165MOL0     H21735   7.538   8.393  10.970 -0.5345 -2.4226  0.5653
  165MOL0     H21736   7.589   8.611  10.871 -0.9207  0.4741  0.4394
  165MOL0     H21737   7.721   8.652  10.981 -0.7695  1.1758 -1.0504
  165MOL0     H21738   7.548   8.646  11.173  2.8220 -2.3527 -1.4734
  165MOL0     H21739   7.531   8.773  11.060 -2.3269  0.4894  2.8144
  165MOL0     H21740   7.365   8.623  10.938  0.6904  2.3199  0.2402
  165MOL0     H21741   7.318   8.712  11.089  1.7120  1.1937  2.0722
  165MOL0     H21742   7.173   8.411  11.296 -2.2576  0.6620  0.8734
  165MOL0     H21743   6.967   8.285  11.262 -0.1097 -0.1728 -0.0683
  165MOL0     H21744   6.711   8.001  10.895  0.8332 -0.6831 -0.3970
  165MOL0     H21745   6.522   7.858  10.905  1.2408 -0.0448  0.1147
  165MOL0     H21746   6.334   7.776  10.889  0.2832  2.3757 -0.7766
  165MOL0     H21747   6.253   7.938  10.900 -1.2281 -0.0435 -0.2509
  165MOL0     H21748   6.150   7.666  10.974 -0.1687 -1.0556  1.4760
  165MOL0     H21749   6.091   7.762  10.838  2.9518 -2.3441 -0.6724
  165MOL0     H21750   6.019   7.943  11.007  0.9578  0.2523  1.4028
  165MOL0     H21751   6.078   7.864  11.137 -2.9804 -0.5459  1.5041
  165MOL0     H21752   5.927   7.658  11.093  2.3450  1.1473  1.8874
  165MOL0     H21753   5.843   7.812  11.122  0.1027  0.3234 -0.9715
  165MOL0     H21754   5.864   7.670  10.857 -2.0692 -1.9954  0.9060
  165MOL0     H21755   5.828   7.843  10.872  5.1896 -0.9967 -0.6869
  165MOL0     H21756   5.620   7.750  11.022  1.0662 -0.2978  0.1015
  165MOL0     H21757   5.682   7.591  10.989  0.9044 -0.0490 -0.8636
  165MOL0     H21758   5.648   7.628  10.753 -0.0192 -2.7377  1.9343
  165MOL0     H21759   5.508   7.630  10.858  2.3520 -2.7695  0.3165
  165MOL0     H21760   5.516   7.886  10.845 -3.5588  1.6454 -1.9840
  165MOL0     H21761   5.461   7.812  10.696  1.1305  0.2226 -1.2252
  165MOL0     H21762   6.376   8.028  11.254 -0.5490  1.5521 -0.4916
  165MOL0     H21763   6.570   8.174  11.276 -0.5530  0.7293  0.4222
  165MOL0     H21764   7.019   8.350  10.831 -1.3544 -0.3974  1.0579
  165MOL0     H21765   7.233   8.477  10.874 -0.2818  2.7572  1.3490
  165MOL0     H21766   8.928   8.032  10.564  0.4672 -1.8939  1.5501
  165MOL0     H21767   9.108   7.888  10.504  0.0418  0.7944 -3.8328
  165MOL0     H21768   9.547   7.899  10.270 -1.7977  0.7616  1.0234
  165MOL0     H21769   9.727   7.790  10.185  0.8357  0.8243  0.6999
  165MOL0     H21770  10.001   7.709  10.175  3.5930 -1.5658  2.9419
  165MOL0     H21771   9.851   7.639  10.110  0.1807  2.6822 -0.2074
  165MOL0     H21772   9.986   7.402  10.201 -2.8890 -0.4880 -3.7809
  165MOL0     H21773  10.023   7.487  10.049 -0.6675  2.5358 -0.3177
  165MOL0     H21774  10.203   7.611  10.152  0.3297 -1.1154 -1.1259
  165MOL0     H21775  10.226   7.442  10.178  0.1739  0.4099  0.1162
  165MOL0     H21776  10.148   7.650  10.381  3.5890  1.6610 -4.0354
  165MOL0     H21777  10.103   7.470  10.402  0.5289 -0.6106  0.4850
  165MOL0     H21778  10.527   7.490  10.449  0.3818  1.3274 -0.2824
  165MOL0     H21779   9.794   7.571  10.537 -0.9330  0.3499  0.2710
  165MOL0     H21780   9.596   7.694  10.654 -0.8649  3.3549  0.0179
  166MOL0     O21781   3.597   6.756   4.663 -0.2627 -0.0170 -0.5875
  166MOL0     C21782   3.625   6.707   4.773 -0.2127 -0.6268  0.1708
  166MOL0     O21783   3.529   6.684   4.874  0.6007 -0.9394 -0.5884
  166MOL0     C21784   3.392   6.679   4.856  0.4345  0.2554  0.1805
  166MOL0     C21785   3.325   6.659   4.735 -0.1061  0.0315  1.2490
  166MOL0     C21786   3.189   6.629   4.729  0.2357 -0.0011  0.2301
  166MOL0     C21787   3.113   6.631   4.841  1.0263  0.2032 -0.2321
  166MOL0     O21788   2.985   6.574   4.840 -0.2607 -0.0277  0.0847
  166MOL0     C21789   2.976   6.447   4.907  0.3726  0.4768 -0.1509
  166MOL0     C21790   2.836   6.395   4.871 -0.2195 -0.7293 -0.0453
  166MOL0     C21791   2.725   6.484   4.923  0.1186 -0.0947 -0.5415
  166MOL0     C21792   2.592   6.402   4.907  0.0156 -0.1716 -0.2891
  166MOL0     C21793   2.520   6.394   4.765 -0.3106  0.9475  0.7153
  166MOL0     C21794   2.535   6.525   4.689  0.9414  0.4325  0.0029
  166MOL0     C21795   2.484   6.517   4.540 -0.4706 -0.6436 -1.1667
  166MOL0     C21796   2.591   6.450   4.449 -0.4198 -0.1628 -0.8003
  166MOL0     N21797   2.572   6.453   4.308 -0.3173  0.2274 -0.6545
  166MOL0     C21798   2.456   6.418   4.251  0.1483  0.2736  0.4556
  166MOL0     C21799   2.477   6.432   4.115  0.2260  0.0104 -0.5145
  166MOL0     C21800   2.388   6.396   4.001  0.5029  0.0764  0.0613
  166MOL0     C21801   2.407   6.262   3.943  0.2492 -0.1259 -0.2923
  166MOL0     C21802   2.281   6.225   3.851  0.0751  0.4466  0.1592
  166MOL0     C21803   2.299   6.089   3.784 -1.2217 -0.2804 -0.5131
  166MOL0     O21804   2.173   6.068   3.722 -0.3868  0.5582  0.5382
  166MOL0     C21805   2.122   5.946   3.688 -0.6632  0.3153 -0.2929
  166MOL0     C21806   2.202   5.833   3.669  1.0222  0.0143 -0.6052
  166MOL0     C21807   2.139   5.713   3.637 -0.3116  0.2406  0.5847
  166MOL0     C21808   1.999   5.699   3.603 -0.3089 -0.2999 -0.0265
  166MOL0     C21809   1.935   5.578   3.550 -0.5877 -0.3720 -0.0558
  166MOL0     O21810   2.016   5.471   3.536  0.3690 -0.6882  0.4111
  166MOL0     C21811   1.967   5.356   3.472 -0.6669  0.1512 -0.1727
  166MOL0     C21812   2.061   5.262   3.418  0.2448 -0.5763 -0.4977
  166MOL0     C21813   2.017   5.162   3.328 -0.4040 -0.3048 -0.0742
  166MOL0     C21814   1.884   5.128   3.299 -0.5027  0.3775  0.3180
  166MOL0     O21815   1.854   5.025   3.209  0.6888  0.3840 -0.0668
  166MOL0     C21816   1.733   4.952   3.214 -0.0923  0.5569 -0.1089
  166MOL0     C21817   1.717   4.867   3.341  0.3891 -0.8055 -0.0836
  166MOL0     C21818   1.814   4.749   3.332 -0.3698  0.5844 -1.3130
  166MOL0     C21819   1.799   4.673   3.465 -0.6818 -0.4563  0.0694
  166MOL0     C21820   1.903   4.562   3.476  0.2431 -0.3038 -0.8410
  166MOL0     C21821   1.869   4.484   3.597 -0.7320 -0.5151 -0.0695
  166MOL0     C21822   1.990   4.384   3.629 -0.5898  0.3638  0.9158
  166MOL0     C21823   1.986   4.250   3.553 -0.1284 -0.5535  0.0333
  166MOL0    Cl21824   1.885   4.147   3.660 -0.7706 -0.1040 -0.1555
  166MOL0     C21825   1.793   5.202   3.369  0.1571 -1.0455 -0.2292
  166MOL0     C21826   1.833   5.315   3.449  0.8874  0.3369 -0.1576
  166MOL0     O21827   1.813   5.591   3.522  0.4665  0.0800  0.3381
  166MOL0     C21828   1.922   5.812   3.630 -0.0841  0.2018 -0.2058
  166MOL0     C21829   1.985   5.932   3.659 -0.2818  0.2654 -0.5303
  166MOL0     N21830   2.601   6.500   4.096 -0.0365  0.3083  0.2175
  166MOL0     N21831   2.657   6.505   4.213 -0.4501  0.4142  0.3072
  166MOL0     C21832   3.174   6.651   4.971 -0.0820 -0.3796 -0.1111
  166MOL0     C21833   3.310   6.680   4.979 -0.5736 -0.9621  0.6722
  166MOL0     C21834   3.764   6.669   4.802 -0.5765  0.4569 -0.6872
  166MOL0     C21835   3.797   6.582   4.907 -0.9218 -0.1437  0.5313
  166MOL0     C21836   3.934   6.537   4.923  0.0330  0.5763  0.1674
  166MOL0     C21837   4.033   6.579   4.837 -0.2361  0.7056  0.3091
  166MOL0     O21838   4.160   6.527   4.841 -0.1829  0.0116  0.3520
  166MOL0     C21839   4.194   6.397   4.888 -0.7469  0.5326  0.2292
  166MOL0     C21840   4.322   6.332   4.833 -0.5774 -0.2500  0.1079
  166MOL0     C21841   4.300   6.279   4.688 -0.0668  0.1412  0.6247
  166MOL0     C21842   4.431   6.228   4.632 -0.7551 -0.7349  0.2343
  166MOL0     C21843   4.505   6.341   4.576  0.0785  1.0126 -0.8854
  166MOL0     C21844   4.578   6.419   4.520  0.3041  0.4054 -0.0914
  166MOL0     C21845   4.003   6.667   4.734  0.5097 -0.0430 -0.2747
  166MOL0     C21846   3.875   6.711   4.727  0.9065 -0.0893  1.5401
  166MOL0     H21847   3.393   6.655   4.650 -0.2912 -1.9137  1.1597
  166MOL0     H21848   3.139   6.605   4.636 -1.5434 -2.5035  1.7034
  166MOL0     H21849   2.981   6.464   5.015 -1.9866  3.5139 -0.3717
  166MOL0     H21850   3.051   6.372   4.880  0.4978  0.3544  0.5305
  166MOL0     H21851   2.827   6.292   4.905  1.0351 -1.7619 -2.5710
  166MOL0     H21852   2.839   6.394   4.761  0.3774 -1.8309 -0.0217
  166MOL0     H21853   2.736   6.580   4.871  0.9851  0.7216  1.0621
  166MOL0     H21854   2.728   6.509   5.030 -0.7841 -0.0426 -0.5253
  166MOL0     H21855   2.588   6.303   4.953  1.5445 -0.4386 -0.6697
  166MOL0     H21856   2.522   6.455   4.973  0.2550 -1.6126  1.1779
  166MOL0     H21857   2.414   6.366   4.769 -0.0466 -0.1931  0.2335
  166MOL0     H21858   2.571   6.315   4.709  0.8465  0.5952  2.2029
  166MOL0     H21859   2.640   6.558   4.686  0.7768  0.8966 -1.8097
  166MOL0     H21860   2.468   6.602   4.730 -0.2619  0.6134 -2.1786
  166MOL0     H21861   2.387   6.468   4.547 -0.3063 -0.8261  0.0212
  166MOL0     H21862   2.471   6.621   4.510  0.6341 -0.3874 -0.8002
  166MOL0     H21863   2.596   6.344   4.473  1.9764 -0.4063 -2.0612
  166MOL0     H21864   2.691   6.489   4.471  0.2114  0.1679 -3.8398
  166MOL0     H21865   2.370   6.373   4.300  1.1249 -2.2879 -0.0569
  166MOL0     H21866   2.406   6.461   3.915  1.9566  0.0458  0.3159
  166MOL0     H21867   2.285   6.418   4.032  1.1851  0.0773  2.5652
  166MOL0     H21868   2.402   6.190   4.024 -0.4949 -1.9461 -1.8702
  166MOL0     H21869   2.501   6.261   3.886 -0.6488  2.3795 -2.0140
  166MOL0     H21870   2.191   6.221   3.913  0.0142 -1.0957  0.0099
  166MOL0     H21871   2.274   6.305   3.777  2.1857  0.6919  0.1594
  166MOL0     H21872   2.321   6.009   3.855  0.8787 -2.0367 -2.9437
  166MOL0     H21873   2.378   6.095   3.709 -1.8022 -1.1147 -1.2109
  166MOL0     H21874   2.307   5.845   3.696  0.7538  0.9217  0.0810
  166MOL0     H21875   2.199   5.623   3.627  0.0652  0.3218  2.0112
  166MOL0     H21876   2.168   5.270   3.433  0.2802 -1.3259 -0.2967
  166MOL0     H21877   2.098   5.104   3.285  0.8243  1.4887 -0.2641
  166MOL0     H21878   1.732   4.883   3.129  1.1632 -2.7274  2.3231
  166MOL0     H21879   1.652   5.024   3.199  0.4343  1.2764  0.4384
  166MOL0     H21880   1.617   4.823   3.336  0.8986 -2.0915  0.4721
  166MOL0     H21881   1.719   4.926   3.432 -3.3075 -1.1889  0.3922
  166MOL0     H21882   1.916   4.786   3.314  0.2949  0.5105  1.7547
  166MOL0     H21883   1.785   4.675   3.257 -1.0035 -3.4254  2.4683
  166MOL0     H21884   1.826   4.738   3.550  0.9729 -0.6271 -0.2867
  166MOL0     H21885   1.698   4.642   3.492 -1.0647  1.6390  1.3627
  166MOL0     H21886   2.005   4.600   3.482 -0.9420  3.0678  0.0676
  166MOL0     H21887   1.890   4.485   3.399 -1.4628 -0.9770  0.0545
  166MOL0     H21888   1.782   4.422   3.573 -0.7380 -1.4224  2.1119
  166MOL0     H21889   1.853   4.544   3.687 -0.2843 -0.6456  0.0982
  166MOL0     H21890   2.084   4.429   3.595 -0.4645 -1.3418 -1.2441
  166MOL0     H21891   1.990   4.369   3.738 -2.4833  1.8858  1.1896
  166MOL0     H21892   2.089   4.215   3.542  0.3033  0.3879  0.8880
  166MOL0     H21893   1.927   4.260   3.462 -2.8317 -1.1352  1.6051
  166MOL0     H21894   1.687   5.182   3.365  0.4143 -2.9449  1.1794
  166MOL0     H21895   1.761   5.376   3.503  2.6329  1.3445  1.1254
  166MOL0     H21896   1.814   5.803   3.627 -0.1876  0.8894  1.0033
  166MOL0     H21897   1.940   6.030   3.677 -0.3160 -0.0577  1.3730
  166MOL0     H21898   3.116   6.643   5.063  0.5334  0.0965  0.3308
  166MOL0     H21899   3.361   6.699   5.073 -1.5665  1.6084  0.7795
  166MOL0     H21900   3.734   6.550   4.989 -1.0134  3.1844  1.9460
  166MOL0     H21901   3.969   6.459   4.990  1.0873  0.1563 -0.8144
  166MOL0     H21902   4.118   6.325   4.860 -0.1099 -0.2335  0.4326
  166MOL0     H21903   4.210   6.404   4.996 -0.5668  2.1346  0.1296
  166MOL0     H21904   4.406   6.401   4.824  0.4388 -1.3278  0.8735
  166MOL0     H21905   4.350   6.242   4.889 -1.0611 -0.9646 -0.7718
  166MOL0     H21906   4.254   6.351   4.619  1.0275  0.1845 -0.0966
  166MOL0     H21907   4.233   6.194   4.699 -0.6399  0.4604 -0.2795
  166MOL0     H21908   4.498   6.188   4.708  1.2425  1.2280 -0.4133
  166MOL0     H21909   4.412   6.152   4.556 -1.4639 -1.2682  0.9337
  166MOL0     H21910   4.632   6.506   4.489  0.7468  1.2775  2.8241
  166MOL0     H21911   4.072   6.707   4.661 -0.8736 -1.9804 -2.7982
  166MOL0     H21912   3.847   6.774   4.643 -0.0821 -0.6205  1.4548
  167MOL0     O21913   6.345   1.615   7.924 -0.6820 -0.3628  0.9458
  167MOL0     C21914   6.389   1.727   7.960 -1.1003  0.3026 -0.0179
  167MOL0     O21915   6.337   1.805   8.056  0.5541 -0.2866 -0.5834
  167MOL0     C21916   6.223   1.750   8.107 -0.6648  0.0512  0.2052
  167MOL0     C21917   6.231   1.674   8.233  0.1699  0.5129  0.5494
  167MOL0     C21918   6.112   1.618   8.283 -0.0792  0.8056 -0.3124
  167MOL0     C21919   5.990   1.624   8.214  1.5629  0.4990 -0.0396
  167MOL0     O21920   5.886   1.569   8.277  0.3028  0.0713 -0.2188
  167MOL0     C21921   5.761   1.624   8.251  0.6642 -0.4450 -0.6314
  167MOL0     C21922   5.667   1.560   8.346  0.8400  0.0424 -0.8124
  167MOL0     C21923   5.689   1.406   8.351  0.5340 -0.1734  0.4711
  167MOL0     C21924   5.570   1.334   8.417 -0.3204  0.6400 -0.4481
  167MOL0     C21925   5.599   1.192   8.471 -0.2112  0.2714 -0.3270
  167MOL0     C21926   5.572   1.074   8.373 -0.3598 -0.3172 -0.6163
  167MOL0     C21927   5.666   1.092   8.252 -0.0579  0.1756  0.2660
  167MOL0     C21928   5.817   1.072   8.281  0.2951 -0.8783 -0.3731
  167MOL0     N21929   5.893   1.096   8.161  0.1628 -0.9514 -1.0428
  167MOL0     C21930   5.951   1.220   8.131 -0.5002  0.1386  1.0859
  167MOL0     C21931   5.976   1.193   7.998 -0.6343 -0.4321 -1.0217
  167MOL0     C21932   6.017   1.306   7.907  0.2322 -0.4007 -0.1934
  167MOL0     C21933   6.163   1.341   7.917 -0.4067  0.0354 -0.1495
  167MOL0     C21934   6.255   1.223   7.927 -1.0846 -0.9295  1.1145
  167MOL0     C21935   6.402   1.271   7.904 -0.3585  0.4074  0.1092
  167MOL0     O21936   6.494   1.164   7.901  1.0939  0.6219  0.0352
  167MOL0     C21937   6.612   1.213   7.869 -0.0084 -0.0967 -0.9593
  167MOL0     C21938   6.699   1.268   7.966  0.0092  0.7614 -0.1229
  167MOL0     C21939   6.818   1.332   7.944 -0.6687 -0.1122 -0.0891
  167MOL0     C21940   6.862   1.333   7.810 -0.0520  0.8635  0.1572
  167MOL0     C21941   6.977   1.409   7.772  0.4645 -0.0177  0.4234
  167MOL0     O21942   7.045   1.466   7.886  0.1666 -0.1077 -0.0064
  167MOL0     C21943   7.175   1.503   7.885 -0.1642 -0.4483 -0.3570
  167MOL0     C21944   7.227   1.507   8.014  0.4711 -0.5203 -0.9758
  167MOL0     C21945   7.345   1.560   8.045  0.0829 -0.2538  0.2000
  167MOL0     C21946   7.428   1.611   7.946  0.0931  0.4089  0.5647
  167MOL0     O21947   7.554   1.647   7.961 -0.2794 -0.2294  0.0855
  167MOL0     C21948   7.574   1.743   8.068 -0.9749  0.0911 -0.0731
  167MOL0     C21949   7.725   1.796   8.081 -0.2482 -0.2932 -0.3303
  167MOL0     C21950   7.823   1.699   8.138 -0.2144  0.0960  0.3201
  167MOL0     C21951   7.958   1.761   8.129  0.2379 -0.2197 -0.0566
  167MOL0     C21952   8.062   1.706   8.236 -0.2838 -0.1125 -0.2896
  167MOL0     C21953   8.132   1.569   8.207  0.5673 -0.0059  0.1488
  167MOL0     C21954   8.044   1.451   8.233  0.2123 -0.1602 -0.0179
  167MOL0     C21955   8.132   1.319   8.251  0.0150  0.4381  0.0141
  167MOL0    Cl21956   8.032   1.167   8.282  0.2910 -0.5028  0.1587
  167MOL0     C21957   7.385   1.596   7.815  0.2005 -0.6888  0.2281
  167MOL0     C21958   7.254   1.543   7.779  0.3342 -1.0518  0.4226
  167MOL0     O21959   7.023   1.387   7.661 -0.2891 -0.1763  0.3908
  167MOL0     C21960   6.780   1.265   7.715  0.1855  0.1019  0.2839
  167MOL0     C21961   6.658   1.205   7.740  0.1348  0.9653  0.1947
  167MOL0     N21962   5.932   1.060   7.967  0.0675 -0.5503  0.2892
  167MOL0     N21963   5.888   1.008   8.067  0.3322 -0.3782 -0.7809
  167MOL0     C21964   5.984   1.704   8.091 -0.4492  0.4213 -0.1483
  167MOL0     C21965   6.101   1.769   8.040 -0.0739  0.3382 -0.4852
  167MOL0     C21966   6.528   1.764   7.914  0.2553  0.8448 -1.0313
  167MOL0     C21967   6.579   1.890   7.945  0.3154 -0.2858 -0.4588
  167MOL0     C21968   6.702   1.929   7.895  1.0425  0.3094 -0.1213
  167MOL0     C21969   6.778   1.835   7.820 -0.3621  0.2206 -0.6540
  167MOL0     O21970   6.904   1.869   7.772  0.6901  0.0152 -0.0495
  167MOL0     C21971   7.006   1.883   7.867 -0.1250 -0.0023  0.3919
  167MOL0     C21972   7.132   1.902   7.788  0.5277  0.4997  0.3765
  167MOL0     C21973   7.252   1.930   7.879 -0.2805 -0.3852  0.0157
  167MOL0     C21974   7.385   1.960   7.803 -0.1267  0.1723  0.2032
  167MOL0     C21975   7.386   2.100   7.766 -1.0298 -0.1450 -0.5540
  167MOL0     C21976   7.378   2.225   7.748 -0.8279  0.1671 -0.4713
  167MOL0     C21977   6.726   1.719   7.787 -0.3926  0.1756  0.0645
  167MOL0     C21978   6.611   1.680   7.842 -0.1378  0.0334  0.0428
  167MOL0     H21979   6.324   1.649   8.284 -1.1315 -1.9022  1.8588
  167MOL0     H21980   6.102   1.571   8.380 -1.5047 -0.8428 -1.1997
  167MOL0     H21981   5.734   1.621   8.145  1.2140  2.4497 -0.9431
  167MOL0     H21982   5.754   1.727   8.287  2.3280 -0.9334  1.2857
  167MOL0     H21983   5.563   1.581   8.320  0.3089 -2.4306 -0.9967
  167MOL0     H21984   5.681   1.597   8.448 -0.7970 -1.4261  0.0119
  167MOL0     H21985   5.778   1.387   8.411  0.7532  1.9994  0.9101
  167MOL0     H21986   5.700   1.369   8.249 -1.5749 -0.9501  0.4553
  167MOL0     H21987   5.532   1.406   8.490  3.4747  2.8499 -0.3836
  167MOL0     H21988   5.485   1.318   8.350  0.2664 -2.9143 -0.5194
  167MOL0     H21989   5.531   1.176   8.555  1.4437 -2.3147  0.6322
  167MOL0     H21990   5.697   1.186   8.520 -0.8677 -0.2934  0.9620
  167MOL0     H21991   5.466   1.083   8.345 -0.2851  0.0518 -0.7920
  167MOL0     H21992   5.596   0.990   8.439  1.3903  0.2541 -0.4901
  167MOL0     H21993   5.654   1.003   8.190  0.2711  0.3099  0.0019
  167MOL0     H21994   5.641   1.186   8.200  1.6870  1.3938  1.5010
  167MOL0     H21995   5.846   0.968   8.302 -0.3398 -1.0006 -0.0735
  167MOL0     H21996   5.847   1.139   8.362 -3.1494 -0.2515  0.5252
  167MOL0     H21997   5.954   1.314   8.185 -0.3435 -0.7004  2.5875
  167MOL0     H21998   5.954   1.395   7.916  1.8067  0.7530 -0.0526
  167MOL0     H21999   6.005   1.268   7.805  2.6499  4.0718 -2.4548
  167MOL0     H22000   6.181   1.401   8.006 -0.7486 -0.5291  0.3041
  167MOL0     H22001   6.189   1.416   7.842 -0.9811  2.0832  1.6124
  167MOL0     H22002   6.239   1.182   8.027 -1.0383 -0.3791  1.3495
  167MOL0     H22003   6.233   1.149   7.849  4.4675 -1.2212 -0.6266
  167MOL0     H22004   6.421   1.346   7.980 -2.8562  1.4821 -0.2075
  167MOL0     H22005   6.402   1.323   7.808 -2.2928 -1.6505 -1.1210
  167MOL0     H22006   6.675   1.258   8.072 -2.7005 -0.0610 -0.7289
  167MOL0     H22007   6.872   1.376   8.027  0.3146 -0.9842 -0.2490
  167MOL0     H22008   7.169   1.480   8.102 -1.3538  1.5422 -1.4593
  167MOL0     H22009   7.388   1.561   8.144 -1.8901  2.6431  1.1662
  167MOL0     H22010   7.551   1.705   8.168  3.3258 -0.0148  1.0561
  167MOL0     H22011   7.511   1.830   8.048 -2.3219 -0.6810  0.6302
  167MOL0     H22012   7.734   1.886   8.142  3.0471 -1.0090  0.4371
  167MOL0     H22013   7.753   1.837   7.983  3.4416  1.2434  1.1680
  167MOL0     H22014   7.822   1.610   8.073 -1.6872  1.0714 -1.0690
  167MOL0     H22015   7.796   1.666   8.239  0.8427  3.5594  1.8685
  167MOL0     H22016   8.003   1.764   8.029  1.4026  1.7600  0.4811
  167MOL0     H22017   7.939   1.866   8.153 -1.3163 -0.5334  0.1721
  167MOL0     H22018   8.015   1.701   8.335  0.1724  0.8456 -0.0170
  167MOL0     H22019   8.136   1.787   8.244 -2.4996  2.1272 -1.2521
  167MOL0     H22020   8.219   1.557   8.272 -0.0610  0.9618  1.2071
  167MOL0     H22021   8.171   1.564   8.105  0.6461 -2.0370  0.2287
  167MOL0     H22022   7.969   1.471   8.310  0.7392 -1.1021  0.7678
  167MOL0     H22023   7.984   1.431   8.143  0.8118 -2.2610 -0.0240
  167MOL0     H22024   8.199   1.331   8.336 -0.8978 -0.7895  0.9456
  167MOL0     H22025   8.194   1.305   8.163  3.7276 -1.2192  2.6541
  167MOL0     H22026   7.453   1.627   7.736  0.1030  0.4052  0.5583
  167MOL0     H22027   7.226   1.539   7.674 -0.2537 -3.5679  0.5955
  167MOL0     H22028   6.810   1.273   7.611  0.6801 -2.5574  0.1435
  167MOL0     H22029   6.594   1.160   7.665 -3.2691  1.5479  2.4934
  167MOL0     H22030   5.888   1.709   8.039  0.0030 -1.0405 -1.1939
  167MOL0     H22031   6.117   1.823   7.947 -0.8813  1.7264  0.1530
  167MOL0     H22032   6.528   1.968   8.001  0.5797 -0.6047  0.2425
  167MOL0     H22033   6.739   2.029   7.915 -0.7670  1.6652 -2.9565
  167MOL0     H22034   7.014   1.795   7.932 -5.0992 -1.1331 -0.1420
  167MOL0     H22035   6.980   1.968   7.931 -2.1445 -0.2377 -0.0479
  167MOL0     H22036   7.161   1.808   7.741 -1.6510 -0.2838  0.4871
  167MOL0     H22037   7.122   1.983   7.715 -3.8927  1.4436  1.7069
  167MOL0     H22038   7.253   1.848   7.951 -0.5618 -1.5228 -1.2344
  167MOL0     H22039   7.227   2.018   7.939  0.1413 -0.9718  1.0686
  167MOL0     H22040   7.470   1.947   7.871 -0.0298  1.5093  0.3567
  167MOL0     H22041   7.398   1.897   7.714 -1.5047  0.6298 -0.3434
  167MOL0     H22042   7.368   2.328   7.720 -0.4561  0.7248  1.3121
  167MOL0     H22043   6.775   1.645   7.725 -0.3160  0.4192 -0.1676
  167MOL0     H22044   6.581   1.579   7.815 -0.8402  0.9543 -3.0160
  168MOL0     O22045   1.118  11.217  10.601 -0.1047  0.2184 -0.0570
  168MOL0     C22046   1.070  11.196  10.492  0.0479 -0.1926 -0.9464
  168MOL0     O22047   1.125  11.120  10.389  0.2333 -0.0165 -0.2936
  168MOL0     C22048   1.235  11.037  10.402  0.3362  0.0590  1.1772
  168MOL0     C22049   1.335  11.038  10.492 -0.8058  0.9751 -0.4866
  168MOL0     C22050   1.452  10.963  10.476 -0.1643 -0.4895  0.0263
  168MOL0     C22051   1.457  10.856  10.387 -0.6624  0.2146 -0.1067
  168MOL0     O22052   1.571  10.781  10.369  0.0864  0.9038 -0.3258
  168MOL0     C22053   1.696  10.848  10.337  0.1062 -0.0126  0.0748
  168MOL0     C22054   1.797  10.727  10.322  0.1698 -0.7364  0.4978
  168MOL0     C22055   1.855  10.684  10.453  1.2075  0.2758 -0.5080
  168MOL0     C22056   1.956  10.574  10.443  0.1486 -0.5181 -0.0033
  168MOL0     C22057   2.004  10.512  10.578 -0.5204  0.4315  1.0623
  168MOL0     C22058   2.046  10.365  10.570  0.1024  0.1047 -0.2240
  168MOL0     C22059   2.111  10.335  10.702  0.4801  0.2018 -0.5509
  168MOL0     C22060   2.004  10.320  10.816 -0.1479  0.1291  0.0176
  168MOL0     N22061   2.072  10.268  10.935  0.5173 -0.3624 -0.5582
  168MOL0     C22062   2.023  10.170  11.017  0.1428 -0.7210 -0.2379
  168MOL0     C22063   2.113  10.168  11.124  1.6154 -0.2414  0.6077
  168MOL0     C22064   2.115  10.075  11.245  0.0719 -0.1289 -1.0682
  168MOL0     C22065   2.001   9.968  11.258  0.0920  0.5251  0.7320
  168MOL0     C22066   2.033   9.829  11.195 -0.1742  0.3025  1.0652
  168MOL0     C22067   2.126   9.740  11.285 -0.1023  0.8639  0.3862
  168MOL0     O22068   2.099   9.598  11.272  0.3201 -0.3380  0.6992
  168MOL0     C22069   2.006   9.540  11.356  0.2924 -0.6265 -0.0782
  168MOL0     C22070   1.885   9.596  11.403  0.3027  0.5942 -0.3514
  168MOL0     C22071   1.802   9.516  11.489  0.1961  0.1773 -0.5276
  168MOL0     C22072   1.839   9.386  11.542 -0.2677  0.2380 -0.0315
  168MOL0     C22073   1.752   9.309  11.626 -0.0009  0.4356 -0.1308
  168MOL0     O22074   1.635   9.374  11.670 -0.8197 -0.4014  0.2531
  168MOL0     C22075   1.576   9.320  11.778 -0.0108  0.2783 -0.3902
  168MOL0     C22076   1.638   9.276  11.904 -0.3625  0.3935  0.0024
  168MOL0     C22077   1.557   9.213  12.006 -0.2326 -0.0585  0.1712
  168MOL0     C22078   1.413   9.213  11.992 -0.3940 -0.1263 -0.7740
  168MOL0     O22079   1.315   9.186  12.087 -0.4925  0.4778 -0.5798
  168MOL0     C22080   1.354   9.099  12.194 -0.3061  0.0878 -0.7563
  168MOL0     C22081   1.234   9.017  12.247  0.0500 -0.2410 -0.0458
  168MOL0     C22082   1.108   9.102  12.290  0.0317  0.5176 -0.3810
  168MOL0     C22083   1.009   9.015  12.362  0.2155 -0.3278  0.1313
  168MOL0     C22084   0.915   9.103  12.432 -0.4821 -0.1559 -0.5902
  168MOL0     C22085   0.843   9.215  12.349  0.2544  0.7258 -0.5377
  168MOL0     C22086   0.748   9.283  12.442  0.9283  0.1483 -0.1242
  168MOL0     C22087   0.681   9.411  12.398 -0.6414  0.6470 -0.4687
  168MOL0    Cl22088   0.578   9.384  12.248  0.1531  0.1152  0.2268
  168MOL0     C22089   1.359   9.279  11.878  0.0842  0.4841 -0.4576
  168MOL0     C22090   1.438   9.333  11.780  0.2673 -0.5807 -0.3625
  168MOL0     O22091   1.774   9.192  11.645 -0.3142 -1.3754 -0.0381
  168MOL0     C22092   1.963   9.343  11.510  0.6234  0.1465 -0.6136
  168MOL0     C22093   2.039   9.420  11.419  0.4477  0.0162  0.5133
  168MOL0     N22094   2.201  10.269  11.103 -0.0591 -0.3324 -0.5915
  168MOL0     N22095   2.187  10.322  10.993  0.4488  0.1051 -0.0929
  168MOL0     C22096   1.343  10.834  10.306  0.0810 -0.1775  0.4752
  168MOL0     C22097   1.241  10.929  10.309  0.7171 -0.1155  0.7500
  168MOL0     C22098   0.933  11.260  10.469 -0.6015  0.4364 -0.7918
  168MOL0     C22099   0.867  11.244  10.338  0.6831 -0.5070  0.3927
  168MOL0     C22100   0.752  11.314  10.310  0.0085  0.0398 -0.2385
  168MOL0     C22101   0.693  11.388  10.413 -0.8647  0.4524 -0.2195
  168MOL0     O22102   0.577  11.453  10.377 -1.0265  0.4264  0.4004
  168MOL0     C22103   0.553  11.592  10.427  0.1445 -0.1150  0.4082
  168MOL0     C22104   0.453  11.600  10.542  0.7530  0.2612  0.1411
  168MOL0     C22105   0.298  11.610  10.516  0.0763  0.4455  0.8333
  168MOL0     C22106   0.227  11.593  10.653  0.6012 -0.0605  0.6363
  168MOL0     C22107   0.094  11.642  10.643 -0.2190  0.3898  0.4630
  168MOL0     C22108  -0.015  11.679  10.637  0.5633  0.8486 -0.7891
  168MOL0     C22109   0.762  11.417  10.531  0.1737 -0.0276  0.3620
  168MOL0     C22110   0.881  11.346  10.555  0.7048  0.6828 -0.4677
  168MOL0     H22111   1.349  11.118  10.564  1.7464  3.1747 -3.1477
  168MOL0     H22112   1.541  10.976  10.536  0.0738  0.1994 -0.4674
  168MOL0     H22113   1.744  10.916  10.407  0.8251  1.0676 -1.4120
  168MOL0     H22114   1.674  10.902  10.244  1.7031 -0.3364 -0.5207
  168MOL0     H22115   1.877  10.755  10.254 -0.3974 -0.6076 -0.1270
  168MOL0     H22116   1.749  10.638  10.279 -0.1057 -1.5640  2.4102
  168MOL0     H22117   1.773  10.652  10.519  0.9918  1.7970  0.0034
  168MOL0     H22118   1.895  10.773  10.502  1.3093  0.4307 -0.8720
  168MOL0     H22119   1.915  10.489  10.388 -1.1116  0.4063 -0.5436
  168MOL0     H22120   2.036  10.619  10.382  1.5526 -0.3010  1.9062
  168MOL0     H22121   1.916  10.514  10.644 -1.8859 -0.6900 -0.6165
  168MOL0     H22122   2.078  10.567  10.636  1.2743 -0.6469 -0.1187
  168MOL0     H22123   2.121  10.357  10.490 -0.0473 -1.2733 -0.2392
  168MOL0     H22124   1.965  10.299  10.540  0.7692 -1.3325  0.9722
  168MOL0     H22125   2.163  10.242  10.679  0.2655 -0.6189  2.0077
  168MOL0     H22126   2.187  10.409  10.727 -0.2861  0.6715  0.4637
  168MOL0     H22127   1.918  10.254  10.801  0.1187 -0.2548  0.1521
  168MOL0     H22128   1.965  10.416  10.851  1.2141  0.8289 -0.2878
  168MOL0     H22129   1.926  10.121  11.020 -0.2065 -0.0360  2.4636
  168MOL0     H22130   2.112  10.131  11.339  0.6198  1.1861 -1.8162
  168MOL0     H22131   2.209  10.018  11.252 -0.5454 -1.0047  0.6110
  168MOL0     H22132   1.910  10.009  11.212  1.4946  0.1325 -2.6858
  168MOL0     H22133   1.969   9.949  11.361 -2.3240 -0.9393 -0.1934
  168MOL0     H22134   1.937   9.778  11.184  0.1345  0.2245 -2.4958
  168MOL0     H22135   2.067   9.847  11.092  0.3489  0.8371  1.3250
  168MOL0     H22136   2.114   9.763  11.391  1.2695  0.0539  0.7390
  168MOL0     H22137   2.232   9.762  11.267  0.0821  0.7292  1.2501
  168MOL0     H22138   1.861   9.699  11.378  2.4562  0.9361 -1.2726
  168MOL0     H22139   1.713   9.570  11.521 -0.0668  1.0218 -2.5749
  168MOL0     H22140   1.746   9.282  11.909 -0.1538 -0.3695 -2.3587
  168MOL0     H22141   1.596   9.162  12.093 -4.3331 -4.1662 -0.0216
  168MOL0     H22142   1.398   9.164  12.270 -1.5935  1.5645 -1.2329
  168MOL0     H22143   1.433   9.028  12.167 -1.6612 -1.0565 -1.9046
  168MOL0     H22144   1.260   8.957  12.336 -0.5575 -0.3743  0.0445
  168MOL0     H22145   1.198   8.938  12.181  1.0108  0.5927 -1.6044
  168MOL0     H22146   1.067   9.152  12.202  0.4509 -1.0208 -1.4962
  168MOL0     H22147   1.137   9.182  12.359  1.4065 -1.5870  1.6463
  168MOL0     H22148   0.941   8.959  12.297 -2.7830  1.1167  1.8341
  168MOL0     H22149   1.054   8.945  12.433  1.1594 -1.2761 -1.3466
  168MOL0     H22150   0.984   9.155  12.499 -1.5819 -0.6613  0.9912
  168MOL0     H22151   0.851   9.041  12.495 -2.1755  0.3009 -1.7875
  168MOL0     H22152   0.779   9.168  12.274 -2.2282  1.2976  1.1066
  168MOL0     H22153   0.924   9.281  12.316  0.6445  0.7317  0.3823
  168MOL0     H22154   0.664   9.219  12.470 -0.1779  1.4984 -0.2891
  168MOL0     H22155   0.796   9.307  12.538 -1.5762  0.4679  1.1200
  168MOL0     H22156   0.764   9.478  12.376  1.2157 -1.6735 -0.9418
  168MOL0     H22157   0.624   9.448  12.484 -2.5875 -3.1050  0.0945
  168MOL0     H22158   1.252   9.282  11.859  0.2455  2.0921 -1.3618
  168MOL0     H22159   1.389   9.388  11.699  1.5802  2.2658  0.6383
  168MOL0     H22160   1.998   9.241  11.525 -1.4658 -0.1073  4.4819
  168MOL0     H22161   2.131   9.378  11.379  0.9867  0.3899  1.3403
  168MOL0     H22162   1.335  10.759  10.227  0.0556 -1.1897  1.4170
  168MOL0     H22163   1.165  10.922  10.232  2.0925 -1.3787 -0.5653
  168MOL0     H22164   0.921  11.188  10.262  0.7507  1.4267 -1.0708
  168MOL0     H22165   0.705  11.306  10.213 -2.0899 -1.3587  0.8168
  168MOL0     H22166   0.499  11.647  10.349 -1.5409  0.5560  1.9766
  168MOL0     H22167   0.644  11.646  10.455 -0.1320  0.8373 -0.4742
  168MOL0     H22168   0.467  11.517  10.612 -3.0796 -0.0414  0.7851
  168MOL0     H22169   0.486  11.688  10.596 -2.1486  0.4977  1.7651
  168MOL0     H22170   0.261  11.539  10.442  1.3071 -1.9035  2.3483
  168MOL0     H22171   0.270  11.705  10.470  0.4991 -0.6757 -1.8823
  168MOL0     H22172   0.237  11.490  10.688  1.1576  0.3252  1.6275
  168MOL0     H22173   0.286  11.645  10.728 -0.4765  0.9565  0.8238
  168MOL0     H22174  -0.111  11.724  10.628 -0.3472 -0.0569  2.7802
  168MOL0     H22175   0.732  11.490  10.605  1.4753 -0.1253  1.0177
  168MOL0     H22176   0.921  11.361  10.655 -3.5790 -1.5137  1.8649
  169MOL0     O22177   4.232   6.114   9.849 -0.1302  0.1949 -0.3462
  169MOL0     C22178   4.280   6.217   9.905 -0.2047  0.2995 -0.2081
  169MOL0     O22179   4.213   6.314   9.970  0.4628 -0.4856  0.3074
  169MOL0     C22180   4.074   6.326   9.965 -0.2417  0.6226  0.0265
  169MOL0     C22181   4.011   6.375  10.079 -0.2877 -0.0812  0.0298
  169MOL0     C22182   3.868   6.375  10.085  0.5177  1.0993  0.6268
  169MOL0     C22183   3.788   6.337   9.973 -0.7927 -0.5073  0.6447
  169MOL0     O22184   3.654   6.364   9.983  0.0149  0.2947 -0.1483
  169MOL0     C22185   3.578   6.272   9.903  0.6286  0.1528  0.0639
  169MOL0     C22186   3.439   6.248   9.960 -0.5297 -0.2115  0.6133
  169MOL0     C22187   3.425   6.226  10.108 -0.2555 -0.3264  0.1158
  169MOL0     C22188   3.270   6.198  10.139 -0.6339 -0.4844  0.7922
  169MOL0     C22189   3.171   6.322  10.110 -0.0486 -0.6859 -0.1696
  169MOL0     C22190   3.039   6.299  10.180  0.5503  0.3844  1.0269
  169MOL0     C22191   2.950   6.416  10.136  0.3075  0.7187 -1.2164
  169MOL0     C22192   2.827   6.422  10.228  0.6988 -0.8693 -0.3144
  169MOL0     N22193   2.830   6.499  10.360  0.0625  0.5361  0.8656
  169MOL0     C22194   2.874   6.628  10.374  0.0306  0.0751  0.3536
  169MOL0     C22195   2.917   6.644  10.504  0.1075 -0.1731 -0.2380
  169MOL0     C22196   2.983   6.767  10.555  0.0849  0.6218 -0.5727
  169MOL0     C22197   2.910   6.902  10.518 -0.0884 -0.5152  0.6226
  169MOL0     C22198   2.981   7.035  10.527  0.2697 -0.1761 -0.4191
  169MOL0     C22199   3.141   7.036  10.503  1.4045 -0.2547  0.3919
  169MOL0     O22200   3.198   6.996  10.622  0.0745 -0.1630 -0.5106
  169MOL0     C22201   3.326   7.010  10.644 -0.5296 -0.1745 -0.8094
  169MOL0     C22202   3.423   7.067  10.557 -0.6162  0.2197 -0.1736
  169MOL0     C22203   3.557   7.073  10.596 -0.0025  0.4073 -0.1387
  169MOL0     C22204   3.596   7.026  10.721 -0.3315 -0.1256  0.7065
  169MOL0     C22205   3.739   7.023  10.761  1.1584  0.3214 -0.1078
  169MOL0     O22206   3.831   7.060  10.663  0.1704 -0.1305 -0.1098
  169MOL0     C22207   3.963   7.064  10.692  0.7668  0.0362  0.4564
  169MOL0     C22208   4.065   7.009  10.598  0.0203 -0.1038 -0.2746
  169MOL0     C22209   4.201   7.006  10.646  0.1099 -0.9124 -0.4553
  169MOL0     C22210   4.246   7.066  10.760  0.6306  0.0138 -0.2995
  169MOL0     O22211   4.381   7.047  10.797 -0.4785  0.3267  0.4962
  169MOL0     C22212   4.444   7.106  10.918  0.4385  0.3949  0.7754
  169MOL0     C22213   4.588   7.046  10.929 -0.0314 -0.2624  0.2353
  169MOL0     C22214   4.674   7.138  11.018 -0.9069 -0.3663 -0.1955
  169MOL0     C22215   4.801   7.069  11.068  0.5079 -0.3519  0.0430
  169MOL0     C22216   4.929   7.082  10.970  0.1335  0.6943 -0.2978
  169MOL0     C22217   5.054   7.049  11.043  0.1756 -0.7084 -0.2714
  169MOL0     C22218   5.095   7.160  11.143  0.3041 -0.4481 -0.2120
  169MOL0     C22219   5.236   7.135  11.210 -0.1485  0.9777  0.5685
  169MOL0    Cl22220   5.270   7.234  11.348 -0.1834 -0.0220  0.3408
  169MOL0     C22221   4.147   7.137  10.836 -0.4259  0.1040  0.0248
  169MOL0     C22222   4.008   7.131  10.807  0.1306  0.7727  0.5344
  169MOL0     O22223   3.763   6.995  10.878  0.0684 -0.1987 -0.0446
  169MOL0     C22224   3.501   6.964  10.804  0.7583 -0.8183  0.4500
  169MOL0     C22225   3.365   6.958  10.771 -0.7083 -0.1784 -0.4118
  169MOL0     N22226   2.896   6.525  10.563  0.5965  0.0040 -0.2962
  169MOL0     N22227   2.859   6.431  10.480  0.5874  0.2072  0.2972
  169MOL0     C22228   3.854   6.306   9.854 -0.4911 -0.1857  0.4275
  169MOL0     C22229   3.994   6.300   9.853 -0.7913  0.3464  0.5958
  169MOL0     C22230   4.425   6.216   9.906 -0.3795  0.5994  0.1718
  169MOL0     C22231   4.491   6.328   9.944 -0.0987  0.2481  1.0149
  169MOL0     C22232   4.631   6.347   9.934  0.8500  0.1830  0.2792
  169MOL0     C22233   4.710   6.240   9.902  0.3586  0.6693  0.1686
  169MOL0     O22234   4.849   6.250   9.904  0.8938  0.1694  0.2700
  169MOL0     C22235   4.925   6.147   9.844 -0.1222 -0.3603 -0.2031
  169MOL0     C22236   5.052   6.216   9.804 -0.1766 -0.0488  0.6404
  169MOL0     C22237   5.042   6.317   9.685 -0.1273 -0.0858  0.3971
  169MOL0     C22238   5.054   6.235   9.554  0.0204 -0.4710  0.5534
  169MOL0     C22239   5.059   6.326   9.430 -0.0540  0.9210 -0.3292
  169MOL0     C22240   5.039   6.404   9.343  0.4660 -0.2555 -0.0778
  169MOL0     C22241   4.638   6.116   9.875  0.2314  0.1158  0.6828
  169MOL0     C22242   4.498   6.107   9.866  0.4389  0.2527  1.1808
  169MOL0     H22243   4.077   6.413  10.157 -1.0819  1.3452  0.0399
  169MOL0     H22244   3.820   6.411  10.175  0.8239 -2.8833  2.5439
  169MOL0     H22245   3.626   6.175   9.915  0.1506 -0.0430  0.4068
  169MOL0     H22246   3.566   6.304   9.799  0.8424  0.6097  0.1744
  169MOL0     H22247   3.399   6.161   9.906 -1.3325  0.9235 -0.6673
  169MOL0     H22248   3.371   6.331   9.943 -0.7517 -0.3465  0.8426
  169MOL0     H22249   3.448   6.323  10.154  1.4344 -0.4139 -0.4747
  169MOL0     H22250   3.501   6.152  10.133  0.3868  0.2186 -0.1865
  169MOL0     H22251   3.238   6.119  10.071 -0.6875  0.3758 -0.1952
  169MOL0     H22252   3.261   6.161  10.242  1.9344 -2.1532  0.5128
  169MOL0     H22253   3.159   6.334  10.002 -0.2806 -0.6419 -0.1392
  169MOL0     H22254   3.211   6.411  10.159  3.4491 -2.2157  0.1093
  169MOL0     H22255   3.039   6.290  10.289 -0.0818 -2.0896  0.8613
  169MOL0     H22256   3.004   6.202  10.144  2.5166 -0.0019 -0.0337
  169MOL0     H22257   3.000   6.513  10.144 -0.2173  0.8218  2.5839
  169MOL0     H22258   2.928   6.380  10.035 -2.1488 -2.8296  0.3555
  169MOL0     H22259   2.793   6.322  10.257  3.5391 -1.9459 -0.3476
  169MOL0     H22260   2.736   6.456  10.177  0.5642  3.2467  2.2370
  169MOL0     H22261   2.888   6.696  10.291 -0.7387  1.4149  1.2833
  169MOL0     H22262   3.085   6.772  10.514  0.1128 -0.7670 -0.7290
  169MOL0     H22263   3.007   6.762  10.661  1.0342  3.1203 -0.5920
  169MOL0     H22264   2.816   6.898  10.575  0.2439  0.1620  1.2235
  169MOL0     H22265   2.876   6.900  10.414 -1.7420  2.3397  0.9984
  169MOL0     H22266   2.935   7.099  10.452  2.8519  0.2010 -1.8251
  169MOL0     H22267   2.967   7.091  10.620  0.1601  0.2955 -0.7220
  169MOL0     H22268   3.166   7.140  10.481 -0.6275 -0.0924 -1.5342
  169MOL0     H22269   3.180   6.979  10.418 -0.3125  0.3324 -0.8288
  169MOL0     H22270   3.392   7.107  10.461  0.7892 -2.0860 -1.6882
  169MOL0     H22271   3.623   7.112  10.519 -2.1219 -2.4055 -3.7614
  169MOL0     H22272   4.040   6.958  10.505 -1.3007  1.8530 -1.0561
  169MOL0     H22273   4.273   6.966  10.574 -0.2067  0.2658 -1.4626
  169MOL0     H22274   4.393   7.076  11.009 -0.5295 -2.0621 -0.4749
  169MOL0     H22275   4.450   7.214  10.900  1.9054  0.0604 -1.0740
  169MOL0     H22276   4.623   7.044  10.825 -2.8453 -1.1570 -0.7706
  169MOL0     H22277   4.575   6.946  10.972  1.4482  0.1176  1.6900
  169MOL0     H22278   4.618   7.165  11.108  2.6638  1.9095  1.5633
  169MOL0     H22279   4.699   7.231  10.964 -0.3576 -0.3472  0.0858
  169MOL0     H22280   4.827   7.111  11.166 -3.6723 -0.1341  1.2829
  169MOL0     H22281   4.779   6.965  11.091 -0.6959  0.2971  2.1946
  169MOL0     H22282   4.943   7.183  10.929  1.8294  0.0938 -1.2921
  169MOL0     H22283   4.902   7.016  10.887 -0.7701 -1.8423  1.8696
  169MOL0     H22284   5.131   7.043  10.965  0.4002  0.7354 -0.1902
  169MOL0     H22285   5.039   6.950  11.086 -1.8816 -1.1470 -1.8565
  169MOL0     H22286   5.104   7.251  11.082 -0.5853 -0.2609 -0.0700
  169MOL0     H22287   5.029   7.163  11.229  0.8998  0.3345  0.2373
  169MOL0     H22288   5.321   7.128  11.141 -0.5661  1.9437 -0.0718
  169MOL0     H22289   5.234   7.034  11.251  2.0814 -0.3166 -2.1704
  169MOL0     H22290   4.186   7.190  10.922 -3.7721  0.3536  1.5351
  169MOL0     H22291   3.937   7.164  10.882 -0.3360 -0.5816  0.7094
  169MOL0     H22292   3.529   6.900  10.887  1.3047 -0.3986  0.6057
  169MOL0     H22293   3.296   6.910  10.840  1.6782 -1.7331  1.0021
  169MOL0     H22294   3.791   6.283   9.769 -1.2986 -0.5580  1.1074
  169MOL0     H22295   4.049   6.268   9.766 -0.1945 -2.0664  1.7647
  169MOL0     H22296   4.437   6.416   9.978  0.0693  1.2662 -1.2081
  169MOL0     H22297   4.673   6.447   9.940 -0.6503  1.1440 -3.0070
  169MOL0     H22298   4.884   6.114   9.748 -0.0631  1.8495 -1.0421
  169MOL0     H22299   4.931   6.068   9.919 -1.8707 -0.0534  0.2974
  169MOL0     H22300   5.100   6.257   9.894 -2.2142  1.4705  1.1067
  169MOL0     H22301   5.128   6.143   9.778 -2.0560 -2.1638  0.7306
  169MOL0     H22302   5.127   6.384   9.701  0.6202 -1.0869  0.6392
  169MOL0     H22303   4.956   6.384   9.690  0.1632  0.2450  1.1640
  169MOL0     H22304   5.144   6.174   9.559  1.6744  1.8944  1.0644
  169MOL0     H22305   4.969   6.166   9.544  3.2225 -4.4337 -4.8456
  169MOL0     H22306   4.999   6.468   9.268 -1.1606 -2.3385 -1.0824
  169MOL0     H22307   4.691   6.028   9.840 -1.0313 -0.3168 -0.2137
  169MOL0     H22308   4.458   6.012   9.832  1.5588  0.0815  0.3049
  170MOL0     O22309   2.954   1.240   7.552  0.2489  1.3051 -0.3077
  170MOL0     C22310   3.015   1.138   7.567 -0.5136  0.1708 -0.2151
  170MOL0     O22311   2.971   1.008   7.543  0.0681 -0.7031  0.4106
  170MOL0     C22312   2.838   0.974   7.537 -0.5634 -0.2217  0.5486
  170MOL0     C22313   2.795   0.858   7.607  0.2045  0.5422 -0.5071
  170MOL0     C22314   2.668   0.814   7.612 -1.0279 -0.3260  0.0831
  170MOL0     C22315   2.568   0.887   7.544 -0.3029  0.2593  0.2807
  170MOL0     O22316   2.447   0.817   7.543  0.2646 -0.4906  0.0586
  170MOL0     C22317   2.338   0.844   7.449  0.2567  0.7502  0.2195
  170MOL0     C22318   2.212   0.788   7.507  0.1479  0.4199 -0.2606
  170MOL0     C22319   2.162   0.877   7.618 -0.5890  0.2143 -0.0402
  170MOL0     C22320   2.041   0.818   7.687  0.1569 -0.7810 -0.1758
  170MOL0     C22321   2.067   0.704   7.786 -0.3133  0.2752  0.3523
  170MOL0     C22322   2.214   0.693   7.851  0.4368 -0.3114  0.5774
  170MOL0     C22323   2.225   0.550   7.914  0.4065 -0.0466 -0.4220
  170MOL0     C22324   2.356   0.536   7.994 -0.7290  0.9187  0.6448
  170MOL0     N22325   2.358   0.601   8.123  0.6548  0.2358 -0.3204
  170MOL0     C22326   2.247   0.609   8.206  0.6108  0.5696  0.7710
  170MOL0     C22327   2.281   0.686   8.310 -0.4339 -0.0014  0.6503
  170MOL0     C22328   2.196   0.722   8.436  0.0378  0.5653  0.0993
  170MOL0     C22329   2.112   0.848   8.403 -1.1483 -0.1349 -0.8666
  170MOL0     C22330   2.204   0.978   8.396 -0.5833 -0.5494  0.6318
  170MOL0     C22331   2.227   1.033   8.536  0.0184  0.3066  0.4270
  170MOL0     O22332   2.271   1.171   8.556 -0.3931 -0.3403  0.4257
  170MOL0     C22333   2.376   1.209   8.473  0.2558 -0.0311  0.2553
  170MOL0     C22334   2.370   1.324   8.387 -0.3094  0.5531  0.7845
  170MOL0     C22335   2.481   1.368   8.321 -0.3784 -0.1471  0.3226
  170MOL0     C22336   2.604   1.303   8.327  0.6192  0.2322  0.0135
  170MOL0     C22337   2.716   1.356   8.240 -0.2845  0.8892 -0.8188
  170MOL0     O22338   2.843   1.303   8.261  1.0255  0.2944 -0.1669
  170MOL0     C22339   2.953   1.360   8.193  1.3808  1.2390  0.4216
  170MOL0     C22340   3.055   1.420   8.263  0.0134 -0.2400  0.0592
  170MOL0     C22341   3.160   1.480   8.189  0.4635  0.4076 -0.0712
  170MOL0     C22342   3.171   1.476   8.050  0.6847 -0.0124 -0.5482
  170MOL0     O22343   3.278   1.504   7.965 -0.5324 -0.9294 -0.3155
  170MOL0     C22344   3.406   1.516   8.036 -0.2894 -0.2383  0.7097
  170MOL0     C22345   3.476   1.369   8.057 -0.2647 -0.4113 -0.3313
  170MOL0     C22346   3.412   1.273   8.155 -0.2483 -0.1286  0.3978
  170MOL0     C22347   3.475   1.136   8.151  0.6163 -0.1491  0.0341
  170MOL0     C22348   3.627   1.150   8.187  0.3037  0.1681  0.2181
  170MOL0     C22349   3.701   1.023   8.197 -0.7456  0.4937  0.3424
  170MOL0     C22350   3.827   1.034   8.288  0.2223 -0.1836 -0.4429
  170MOL0     C22351   3.911   0.903   8.297 -0.7002 -0.5448  0.3510
  170MOL0    Cl22352   4.071   0.925   8.380 -0.1467  0.3706 -0.3041
  170MOL0     C22353   3.067   1.404   7.984  0.8352 -0.2002  0.3558
  170MOL0     C22354   2.956   1.358   8.053 -0.1400  0.5211 -0.6269
  170MOL0     O22355   2.689   1.443   8.156  0.4088 -0.1780 -0.1238
  170MOL0     C22356   2.609   1.187   8.404 -0.8775 -0.2979 -0.0008
  170MOL0     C22357   2.503   1.148   8.477  0.9969 -0.0128  0.2881
  170MOL0     N22358   2.413   0.725   8.287 -0.3591  0.4033  0.0573
  170MOL0     N22359   2.456   0.674   8.175  0.2611 -0.2630  0.1698
  170MOL0     C22360   2.602   1.007   7.479 -0.2828  0.3588  0.2804
  170MOL0     C22361   2.738   1.046   7.471  0.2254  0.0495  0.0437
  170MOL0     C22362   3.156   1.150   7.610 -0.1152 -0.3370  0.3230
  170MOL0     C22363   3.213   1.271   7.651 -0.1756 -0.2464 -0.5774
  170MOL0     C22364   3.350   1.275   7.683 -0.0738 -1.1729 -0.4451
  170MOL0     C22365   3.431   1.161   7.678 -0.5156  0.0435 -0.4674
  170MOL0     O22366   3.559   1.181   7.721 -0.3750  0.4465 -0.4571
  170MOL0     C22367   3.652   1.072   7.741  0.2182  0.2664  1.0733
  170MOL0     C22368   3.775   1.131   7.813  0.2899 -0.5333  0.3435
  170MOL0     C22369   3.885   1.184   7.712 -0.3898 -0.4253 -0.3373
  170MOL0     C22370   3.969   1.065   7.667  0.2583  0.2805 -0.1427
  170MOL0     C22371   4.059   1.104   7.563  0.6592  0.3527  0.7425
  170MOL0     C22372   4.135   1.144   7.477 -0.3870 -0.0319  0.1945
  170MOL0     C22373   3.378   1.040   7.641  0.4326  0.8227  0.0977
  170MOL0     C22374   3.242   1.036   7.605 -0.1443 -0.4539  0.7355
  170MOL0     H22375   2.866   0.793   7.658  0.5033 -0.4793 -2.1816
  170MOL0     H22376   2.646   0.721   7.664  2.9288 -0.5742  1.6534
  170MOL0     H22377   2.355   0.781   7.361 -0.2624  0.8470  0.0517
  170MOL0     H22378   2.329   0.951   7.429 -1.7013  0.7359  0.8567
  170MOL0     H22379   2.212   0.687   7.551  0.4900  0.5194 -0.0307
  170MOL0     H22380   2.138   0.779   7.427  1.0609  0.1958 -1.1010
  170MOL0     H22381   2.142   0.973   7.568  3.4382  1.5146  0.4503
  170MOL0     H22382   2.245   0.898   7.686  0.4342 -1.2904 -0.7607
  170MOL0     H22383   1.989   0.900   7.740 -0.2871 -0.2275 -1.4364
  170MOL0     H22384   1.972   0.788   7.608 -1.6899  0.7657  0.7544
  170MOL0     H22385   2.046   0.611   7.733 -0.4312  0.8298 -0.5914
  170MOL0     H22386   1.988   0.711   7.862 -1.1675  0.3022 -0.5292
  170MOL0     H22387   2.234   0.772   7.924  1.2268  0.9909 -0.9655
  170MOL0     H22388   2.290   0.705   7.773  0.1075 -0.9613  0.1463
  170MOL0     H22389   2.144   0.521   7.981  0.4984  1.3773  0.3561
  170MOL0     H22390   2.232   0.484   7.828 -0.8713  3.0314 -3.1285
  170MOL0     H22391   2.442   0.572   7.937  1.5620 -2.7167  1.4298
  170MOL0     H22392   2.383   0.431   8.012 -3.9498 -0.2069 -0.4086
  170MOL0     H22393   2.160   0.545   8.202  0.9175  0.1674  0.4831
  170MOL0     H22394   2.256   0.733   8.527 -0.8431  1.2479  0.6059
  170MOL0     H22395   2.138   0.630   8.446 -0.8817  1.0589 -0.5166
  170MOL0     H22396   2.049   0.855   8.492 -0.9307  0.8814 -0.7843
  170MOL0     H22397   2.062   0.839   8.306 -0.4784  1.5791 -1.4151
  170MOL0     H22398   2.292   0.959   8.334 -1.1283 -1.3373  0.0769
  170MOL0     H22399   2.137   1.056   8.359 -0.8836 -0.9790  0.2628
  170MOL0     H22400   2.289   0.965   8.595 -0.2177 -0.9743 -0.7459
  170MOL0     H22401   2.133   1.020   8.591  2.5281 -1.7060  4.7585
  170MOL0     H22402   2.288   1.394   8.396  0.1705  1.1334  0.7012
  170MOL0     H22403   2.480   1.466   8.276 -0.5063  0.0996  0.8605
  170MOL0     H22404   3.040   1.433   8.369 -0.8229 -1.0943  0.0690
  170MOL0     H22405   3.239   1.530   8.243  0.7563  0.1833 -0.2895
  170MOL0     H22406   3.406   1.571   8.130 -2.0613 -1.4396  1.4627
  170MOL0     H22407   3.462   1.580   7.967 -2.3153  0.6579 -0.1863
  170MOL0     H22408   3.574   1.398   8.096 -0.2100 -1.4090  0.3188
  170MOL0     H22409   3.489   1.322   7.959  1.9025 -0.0216 -0.2690
  170MOL0     H22410   3.308   1.262   8.123 -0.2586  2.3316 -0.6169
  170MOL0     H22411   3.417   1.305   8.260  0.2473  0.2154  0.2750
  170MOL0     H22412   3.419   1.076   8.224 -0.7183 -1.1536 -1.7278
  170MOL0     H22413   3.456   1.083   8.057 -0.9274  1.6227 -0.7294
  170MOL0     H22414   3.638   1.213   8.275  2.8233  0.9831 -0.6101
  170MOL0     H22415   3.675   1.196   8.100 -0.2843 -1.2218 -0.8890
  170MOL0     H22416   3.731   0.985   8.098  0.2529  0.6598  0.5754
  170MOL0     H22417   3.632   0.954   8.247  0.4362 -1.0311 -0.0448
  170MOL0     H22418   3.902   1.111   8.268  1.6939 -0.6627  2.6799
  170MOL0     H22419   3.789   1.068   8.385  0.2278 -1.8233  0.1783
  170MOL0     H22420   3.935   0.877   8.193 -0.9628 -0.5172  0.2817
  170MOL0     H22421   3.862   0.817   8.344  1.7888 -2.5526 -0.4915
  170MOL0     H22422   3.062   1.368   7.881 -3.7031 -2.7231  1.1482
  170MOL0     H22423   2.880   1.316   7.988  0.4050  1.3684 -1.8398
  170MOL0     H22424   2.700   1.129   8.417 -2.6750 -3.0415  1.3599
  170MOL0     H22425   2.522   1.059   8.536  0.9371 -1.4603 -1.7641
  170MOL0     H22426   2.519   1.055   7.427 -2.3539 -2.1248  1.1085
  170MOL0     H22427   2.758   1.148   7.438  1.2037 -0.9865 -2.8420
  170MOL0     H22428   3.149   1.358   7.640 -0.9225 -0.5980  0.7175
  170MOL0     H22429   3.390   1.374   7.705 -3.7962  0.8727 -1.9627
  170MOL0     H22430   3.671   1.016   7.648 -1.0879 -3.0036  2.6096
  170MOL0     H22431   3.610   0.991   7.802 -3.1570  1.7526  0.9308
  170MOL0     H22432   3.728   1.214   7.867  1.7296  1.5096 -1.3901
  170MOL0     H22433   3.817   1.070   7.894  0.8077  1.4327  1.6305
  170MOL0     H22434   3.943   1.260   7.765 -0.8494 -0.1379 -0.2415
  170MOL0     H22435   3.843   1.238   7.626 -0.6171  1.6973  1.0562
  170MOL0     H22436   4.022   1.037   7.759 -0.9634 -0.0303  0.4969
  170MOL0     H22437   3.909   0.983   7.626 -0.2257  0.5115  0.0965
  170MOL0     H22438   4.212   1.177   7.409 -1.0202  1.9269  0.3532
  170MOL0     H22439   3.433   0.947   7.651  1.7081  1.7316  2.4979
  170MOL0     H22440   3.200   0.940   7.579  0.7382 -0.4858 -0.7427
  171MOL0     O22441   9.235   4.702   6.053  0.0478  0.6032 -0.9299
  171MOL0     C22442   9.249   4.588   6.112  0.5241 -0.8841  0.0260
  171MOL0     O22443   9.169   4.544   6.216  0.2152  0.7608  0.6883
  171MOL0     C22444   9.101   4.619   6.300 -0.0281 -0.1383 -0.2684
  171MOL0     C22445   9.116   4.757   6.328 -0.5777 -1.2539  1.0315
  171MOL0     C22446   9.033   4.828   6.408  0.1711  0.1280  0.0068
  171MOL0     C22447   8.924   4.759   6.470  0.3934  0.1132 -0.4608
  171MOL0     O22448   8.851   4.821   6.574 -0.1994  0.6856 -0.2932
  171MOL0     C22449   8.793   4.943   6.533  0.5462 -0.3166 -0.1942
  171MOL0     C22450   8.692   5.007   6.631 -0.7276 -0.8120 -0.2852
  171MOL0     C22451   8.605   5.120   6.571  0.3537  0.3926 -0.1843
  171MOL0     C22452   8.522   5.187   6.683 -0.3131 -0.2474  0.0180
  171MOL0     C22453   8.391   5.249   6.624 -0.2667 -0.0250  0.4601
  171MOL0     C22454   8.310   5.315   6.733  0.1297 -0.0643 -0.1571
  171MOL0     C22455   8.210   5.427   6.690 -0.4672  0.0498 -0.2062
  171MOL0     C22456   8.094   5.437   6.802 -0.2155  0.6198  0.7030
  171MOL0     N22457   8.008   5.556   6.775 -0.1418  0.1756 -0.5654
  171MOL0     C22458   8.031   5.675   6.716 -0.9387 -0.4073  0.6240
  171MOL0     C22459   7.922   5.748   6.766 -0.6656 -0.8399  0.2357
  171MOL0     C22460   7.913   5.893   6.714  0.1235 -1.1066 -1.1830
  171MOL0     C22461   7.768   5.963   6.722 -1.2735  0.3188 -0.9467
  171MOL0     C22462   7.666   5.880   6.641 -0.9493 -0.1368  0.1550
  171MOL0     C22463   7.526   5.934   6.650  0.8040 -0.2202  0.2890
  171MOL0     O22464   7.468   5.884   6.771  0.5872 -0.4168 -0.4269
  171MOL0     C22465   7.354   5.953   6.821  0.5173 -0.5150 -0.2269
  171MOL0     C22466   7.298   5.896   6.934  0.5535 -0.3741  0.1555
  171MOL0     C22467   7.180   5.948   6.985 -0.0846 -0.1098 -1.3473
  171MOL0     C22468   7.129   6.068   6.932  0.4338  0.5699  0.9313
  171MOL0     C22469   7.009   6.138   6.996 -0.5575  0.0495  0.6514
  171MOL0     O22470   6.939   6.223   6.923  0.4147 -0.4616  0.0987
  171MOL0     C22471   6.817   6.269   6.972  0.1994 -0.5918  0.2603
  171MOL0     C22472   6.725   6.299   6.873 -0.6455 -0.1890  1.1308
  171MOL0     C22473   6.605   6.360   6.919 -0.6566  0.3252 -0.4103
  171MOL0     C22474   6.577   6.392   7.050  0.0094 -0.2622 -0.3100
  171MOL0     O22475   6.465   6.455   7.092  0.4451 -0.3436 -0.3670
  171MOL0     C22476   6.392   6.533   6.998  0.1275 -0.1198  0.3891
  171MOL0     C22477   6.302   6.439   6.919  0.5134 -0.3613  0.1895
  171MOL0     C22478   6.207   6.512   6.841  0.5819 -0.2709  0.1893
  171MOL0     C22479   6.120   6.413   6.761 -0.5843 -0.9105  0.1139
  171MOL0     C22480   5.995   6.491   6.719  0.0208 -0.0900  0.1749
  171MOL0     C22481   5.907   6.384   6.666 -0.0446 -0.0122 -0.2325
  171MOL0     C22482   5.771   6.449   6.621 -0.3185 -0.6166  0.5519
  171MOL0     C22483   5.678   6.341   6.582  0.0900  0.2433 -1.1517
  171MOL0    Cl22484   5.699   6.286   6.417  0.0346  0.0037 -0.0408
  171MOL0     C22485   6.664   6.354   7.146  0.0134 -0.1628  0.0018
  171MOL0     C22486   6.788   6.305   7.107  0.8259  0.1834 -0.5388
  171MOL0     O22487   6.981   6.094   7.103 -0.0801  0.0198 -1.0869
  171MOL0     C22488   7.188   6.130   6.824  0.3381 -0.2049 -0.0747
  171MOL0     C22489   7.304   6.071   6.772  0.6548 -0.1758  0.6741
  171MOL0     N22490   7.834   5.662   6.826 -0.0120  0.4962  0.4679
  171MOL0     N22491   7.875   5.545   6.823 -0.8836  0.6083  0.5779
  171MOL0     C22492   8.904   4.617   6.440 -0.3562 -0.6311 -1.1434
  171MOL0     C22493   8.996   4.549   6.366  0.0468  1.0446  0.6424
  171MOL0     C22494   9.351   4.496   6.060  0.1517  0.2930  0.1406
  171MOL0     C22495   9.473   4.558   6.016  0.2117 -0.2429 -0.5077
  171MOL0     C22496   9.576   4.469   5.973  0.4952  0.5978  0.7966
  171MOL0     C22497   9.547   4.332   5.965  0.3409  0.7274 -0.0818
  171MOL0     O22498   9.629   4.229   5.927  0.2371  0.3036  0.1270
  171MOL0     C22499   9.766   4.244   5.943 -0.4325 -0.3057 -1.0174
  171MOL0     C22500   9.839   4.137   5.872  0.0186 -1.0073  1.0931
  171MOL0     C22501   9.872   4.161   5.719  0.1157  0.0964 -1.3102
  171MOL0     C22502  10.001   4.252   5.699  0.6374 -0.1085 -0.2307
  171MOL0     C22503   9.967   4.389   5.664 -0.3325 -0.3123 -0.3194
  171MOL0     C22504   9.941   4.504   5.643 -1.2191  0.3198  0.9591
  171MOL0     C22505   9.421   4.278   5.994 -0.6575  0.2232  0.1517
  171MOL0     C22506   9.324   4.361   6.046 -0.5837  0.4376  0.3186
  171MOL0     H22507   9.205   4.802   6.287 -1.0693  0.1105  1.4110
  171MOL0     H22508   9.044   4.932   6.438  0.3423 -0.0982  0.7446
  171MOL0     H22509   8.734   4.930   6.441  0.4639 -0.9781 -0.0564
  171MOL0     H22510   8.872   5.015   6.512  1.3312 -1.5397 -1.7150
  171MOL0     H22511   8.755   5.029   6.717  0.1549 -0.8756 -0.8915
  171MOL0     H22512   8.634   4.922   6.667 -1.4625 -0.2307 -0.0721
  171MOL0     H22513   8.546   5.081   6.487  0.2107  0.8579 -0.3016
  171MOL0     H22514   8.670   5.195   6.527 -0.3311  0.7471 -0.6096
  171MOL0     H22515   8.500   5.110   6.757  1.7287 -0.5354  0.3707
  171MOL0     H22516   8.583   5.264   6.732 -0.3965 -1.0516  1.4436
  171MOL0     H22517   8.335   5.161   6.590  1.6754 -0.6514 -1.4294
  171MOL0     H22518   8.402   5.313   6.536 -2.3403 -0.9436 -0.5309
  171MOL0     H22519   8.372   5.356   6.813  2.0058 -2.7479 -0.1281
  171MOL0     H22520   8.259   5.230   6.779 -0.0832  0.1271 -0.0389
  171MOL0     H22521   8.263   5.522   6.685 -1.6887  0.6832 -1.8878
  171MOL0     H22522   8.164   5.407   6.593  0.8891 -1.2795 -0.6015
  171MOL0     H22523   8.144   5.449   6.899  0.8344  1.4890  0.0729
  171MOL0     H22524   8.041   5.342   6.810  1.4772 -0.5405 -1.1149
  171MOL0     H22525   8.108   5.710   6.648 -1.0440 -2.7575 -0.8188
  171MOL0     H22526   7.931   5.897   6.606 -1.2935  0.4674 -1.4051
  171MOL0     H22527   7.981   5.959   6.768 -0.2912  0.2541 -2.2515
  171MOL0     H22528   7.782   6.058   6.669  0.9855  0.3430 -0.4143
  171MOL0     H22529   7.731   5.974   6.824 -3.7080  1.1353 -1.8462
  171MOL0     H22530   7.696   5.897   6.537  3.1178  0.9025  1.3243
  171MOL0     H22531   7.659   5.773   6.659  0.7390 -0.3760 -0.4242
  171MOL0     H22532   7.469   5.886   6.570 -0.9205 -4.5481  3.6447
  171MOL0     H22533   7.529   6.043   6.642  0.6131 -0.1291  1.2846
  171MOL0     H22534   7.339   5.806   6.979  0.6958 -0.1464  0.4879
  171MOL0     H22535   7.124   5.909   7.069  0.0894  2.3960  0.0341
  171MOL0     H22536   6.755   6.304   6.769  0.9307 -1.3499  1.4905
  171MOL0     H22537   6.545   6.373   6.830  0.6823 -3.9675 -2.1818
  171MOL0     H22538   6.467   6.587   6.940  0.9985 -0.1420  1.4739
  171MOL0     H22539   6.333   6.610   7.048  1.9041  0.0078  2.4205
  171MOL0     H22540   6.240   6.390   6.996 -0.1663 -3.0332 -1.9020
  171MOL0     H22541   6.352   6.362   6.859  1.3549  0.2598  0.0889
  171MOL0     H22542   6.254   6.576   6.766  0.7842 -1.2322 -0.5158
  171MOL0     H22543   6.144   6.582   6.897  0.7032  1.4661 -1.7046
  171MOL0     H22544   6.176   6.357   6.686 -0.8694 -4.6467  2.4278
  171MOL0     H22545   6.098   6.328   6.826  1.9942 -1.9365 -0.2309
  171MOL0     H22546   6.026   6.571   6.650  0.7044 -1.6797 -1.4356
  171MOL0     H22547   5.944   6.539   6.803  1.2102 -0.8517  1.3832
  171MOL0     H22548   5.892   6.310   6.745 -2.3687  2.6644  2.0723
  171MOL0     H22549   5.936   6.342   6.569  0.1641  0.6027 -0.4430
  171MOL0     H22550   5.735   6.513   6.702 -0.2414  0.1943 -0.0329
  171MOL0     H22551   5.793   6.506   6.530  2.0128  0.0547  1.4471
  171MOL0     H22552   5.573   6.372   6.586 -0.0734 -0.4127  0.6864
  171MOL0     H22553   5.686   6.264   6.659 -0.9047  0.4855 -0.7867
  171MOL0     H22554   6.642   6.376   7.250  0.7268 -0.2037  0.1645
  171MOL0     H22555   6.858   6.297   7.190  1.9913  1.3497 -1.3656
  171MOL0     H22556   7.163   6.227   6.782 -0.0598 -0.6719 -0.9410
  171MOL0     H22557   7.359   6.123   6.694  0.8257 -0.3237  0.6953
  171MOL0     H22558   8.834   4.562   6.502 -0.8261 -0.5039 -1.5551
  171MOL0     H22559   8.992   4.442   6.351 -1.7087  1.2304 -0.6390
  171MOL0     H22560   9.479   4.665   6.028 -1.7833 -0.1413 -0.1009
  171MOL0     H22561   9.672   4.512   5.943 -0.2904  1.9998  0.2022
  171MOL0     H22562   9.792   4.246   6.050  2.3139 -1.2885 -1.5768
  171MOL0     H22563   9.805   4.334   5.893 -0.7340 -1.3436 -3.2123
  171MOL0     H22564   9.932   4.115   5.925 -0.7871 -1.8217  2.1888
  171MOL0     H22565   9.780   4.045   5.872  0.5095 -1.3412  0.0194
  171MOL0     H22566   9.787   4.214   5.674 -1.5297 -0.3843  1.0590
  171MOL0     H22567   9.888   4.062   5.677  0.7804  0.1455 -1.1778
  171MOL0     H22568  10.070   4.250   5.783  0.5820  1.8505 -0.0939
  171MOL0     H22569  10.045   4.217   5.605  1.4030  2.5915 -0.9565
  171MOL0     H22570   9.926   4.606   5.613  1.4853  0.4667 -0.2284
  171MOL0     H22571   9.402   4.172   5.992 -1.3934  0.3461 -1.2330
  171MOL0     H22572   9.229   4.314   6.070 -0.9841  1.7722  1.4703
  172MOL0     O22573   2.542   1.080   4.978 -0.2848 -0.0537  0.3056
  172MOL0     C22574   2.589   0.988   4.905  0.6558  0.3263 -1.1016
  172MOL0     O22575   2.511   0.905   4.830 -0.2522 -0.0450  0.0266
  172MOL0     C22576   2.387   0.949   4.813  0.4113 -0.5654  0.3575
  172MOL0     C22577   2.273   0.876   4.824 -0.0258 -0.6478  0.1359
  172MOL0     C22578   2.145   0.915   4.761  0.7170  0.3297 -1.1065
  172MOL0     C22579   2.137   1.028   4.695  0.3813 -1.1976  1.9362
  172MOL0     O22580   2.010   1.055   4.639 -0.0065 -1.4878  0.1611
  172MOL0     C22581   1.957   1.190   4.650  0.1695  0.0038  0.5497
  172MOL0     C22582   1.806   1.169   4.662 -0.4923 -0.1347  0.2542
  172MOL0     C22583   1.725   1.294   4.686 -0.4707  0.6244 -0.0818
  172MOL0     C22584   1.575   1.257   4.716 -0.5158  0.7024 -0.2467
  172MOL0     C22585   1.488   1.362   4.660 -0.3428  0.0105 -1.1025
  172MOL0     C22586   1.348   1.313   4.673  0.1276 -0.6773  0.5750
  172MOL0     C22587   1.250   1.414   4.612 -0.5493  0.1709  0.7757
  172MOL0     C22588   1.104   1.383   4.629  0.3434  0.0167  0.3804
  172MOL0     N22589   1.015   1.485   4.583  0.1554 -0.1737  1.0159
  172MOL0     C22590   0.896   1.531   4.639 -0.2702  0.2418 -0.2251
  172MOL0     C22591   0.853   1.629   4.558  2.0016 -0.6836 -0.5203
  172MOL0     C22592   0.731   1.722   4.577  0.1183 -0.2017  0.2209
  172MOL0     C22593   0.628   1.711   4.465 -0.1923  0.3341  0.3093
  172MOL0     C22594   0.526   1.598   4.501  0.9632  0.6754  0.4076
  172MOL0     C22595   0.409   1.574   4.416 -0.4021 -0.4221 -0.0513
  172MOL0     O22596   0.320   1.688   4.395 -0.0721  0.7564  0.0890
  172MOL0     C22597   0.189   1.683   4.407  1.2886  0.5258 -0.2282
  172MOL0     C22598   0.105   1.577   4.381 -0.1686  0.1236  0.5161
  172MOL0     C22599  -0.031   1.582   4.385 -0.3843  0.2941 -0.5010
  172MOL0     C22600  -0.094   1.707   4.409 -0.6565 -0.2557  0.0717
  172MOL0     C22601  -0.241   1.721   4.414 -0.0468 -0.2554  0.7641
  172MOL0     O22602  -0.314   1.635   4.338 -0.6119 -0.2939  1.0967
  172MOL0     C22603  -0.455   1.647   4.351  0.1088 -0.2560 -0.4707
  172MOL0     C22604  -0.531   1.767   4.339  0.0993 -0.7685  0.6122
  172MOL0     C22605  -0.669   1.758   4.364  0.2734 -0.2215 -0.2810
  172MOL0     C22606  -0.733   1.635   4.390  0.2934 -0.7411  0.9076
  172MOL0     O22607  -0.867   1.615   4.406  0.1103 -0.5488 -0.6565
  172MOL0     C22608  -0.957   1.731   4.401 -0.0939 -0.5173  0.3158
  172MOL0     C22609  -1.083   1.702   4.466 -0.2292  0.3146  0.8959
  172MOL0     C22610  -1.178   1.810   4.448  0.2793 -0.2947  0.1349
  172MOL0     C22611  -1.307   1.795   4.532 -0.2185  0.1073 -0.7797
  172MOL0     C22612  -1.381   1.930   4.540 -0.0262  0.2739  0.3292
  172MOL0     C22613  -1.513   1.926   4.622 -0.2578  0.7212  0.1842
  172MOL0     C22614  -1.615   1.829   4.561 -0.1385 -0.9060  0.4475
  172MOL0     C22615  -1.749   1.845   4.632  0.4520 -0.3545  0.1338
  172MOL0    Cl22616  -1.717   1.823   4.816 -0.1726 -0.1073  0.0965
  172MOL0     C22617  -0.653   1.523   4.403 -0.3010 -0.4919 -0.0345
  172MOL0     C22618  -0.516   1.528   4.385  0.0687  0.1106 -0.0323
  172MOL0     O22619  -0.277   1.809   4.490 -0.1885  0.0872  0.2077
  172MOL0     C22620  -0.002   1.822   4.428  0.2785  0.0260  0.2031
  172MOL0     C22621   0.134   1.804   4.425  0.0597  0.3002 -1.2178
  172MOL0     N22622   0.931   1.630   4.446 -0.0508  0.3587  0.0076
  172MOL0     N22623   1.023   1.545   4.457 -0.9435 -0.0433 -0.5036
  172MOL0     C22624   2.248   1.112   4.688  0.0124  0.2240  0.2959
  172MOL0     C22625   2.370   1.068   4.751 -0.0258 -0.4249 -0.0086
  172MOL0     C22626   2.734   0.967   4.897  0.0840  0.1261 -0.2526
  172MOL0     C22627   2.809   0.970   5.011  0.5249 -0.1016 -0.4246
  172MOL0     C22628   2.947   0.949   4.998  0.7182  0.0296  0.0364
  172MOL0     C22629   3.010   0.924   4.875 -0.2706  0.9063  0.3720
  172MOL0     O22630   3.142   0.892   4.856  0.0596 -0.0914 -0.2190
  172MOL0     C22631   3.234   0.925   4.969  0.7829  0.4924  0.2919
  172MOL0     C22632   3.257   0.806   5.066 -1.0224 -0.0685  0.6749
  172MOL0     C22633   3.400   0.751   5.041  0.0555 -0.4714  0.2914
  172MOL0     C22634   3.437   0.627   5.133  0.4145  0.8040  0.1444
  172MOL0     C22635   3.578   0.602   5.117 -0.2601 -0.2270  0.1020
  172MOL0     C22636   3.697   0.587   5.101 -1.4135 -0.4300  0.2469
  172MOL0     C22637   2.929   0.914   4.762  0.7397  0.0234 -0.3806
  172MOL0     C22638   2.795   0.934   4.772  0.1062  0.0400 -0.6066
  172MOL0     H22639   2.277   0.788   4.888 -1.7451 -0.0345  1.1404
  172MOL0     H22640   2.057   0.858   4.792  0.5855 -0.3515 -2.6684
  172MOL0     H22641   1.986   1.242   4.558 -1.6447  0.6297  0.2994
  172MOL0     H22642   1.991   1.226   4.748  3.7424 -4.0583  1.0909
  172MOL0     H22643   1.795   1.103   4.749 -1.2431  1.3352  1.3033
  172MOL0     H22644   1.771   1.118   4.572  0.2610 -0.8915  0.3736
  172MOL0     H22645   1.739   1.361   4.600 -1.3945  0.8182 -0.0998
  172MOL0     H22646   1.760   1.348   4.774  0.8185 -0.4633  0.0931
  172MOL0     H22647   1.554   1.158   4.676  0.5125 -0.6552  2.3373
  172MOL0     H22648   1.557   1.254   4.824  1.2564  1.0180  0.0968
  172MOL0     H22649   1.511   1.381   4.554 -0.1788  0.5711 -0.9703
  172MOL0     H22650   1.503   1.457   4.713  2.1354 -1.7764  1.6761
  172MOL0     H22651   1.324   1.312   4.780  2.0165  1.8553  1.0986
  172MOL0     H22652   1.342   1.213   4.629 -0.6855 -0.4010  0.0309
  172MOL0     H22653   1.279   1.515   4.643  0.1044  0.7041 -1.3795
  172MOL0     H22654   1.261   1.407   4.504  3.6008 -1.3086  1.1059
  172MOL0     H22655   1.069   1.364   4.731  0.0235  1.2401  0.5175
  172MOL0     H22656   1.079   1.293   4.571  1.0539  1.6531 -2.6879
  172MOL0     H22657   0.859   1.498   4.735  2.1115 -2.0609  0.0008
  172MOL0     H22658   0.771   1.824   4.575 -2.1930  0.7929 -1.8657
  172MOL0     H22659   0.699   1.699   4.679  3.8286 -4.1892  0.7747
  172MOL0     H22660   0.682   1.684   4.373 -0.0862  0.8532  0.2116
  172MOL0     H22661   0.574   1.806   4.451 -0.7038  0.1969  1.2854
  172MOL0     H22662   0.583   1.505   4.504  1.3009  0.8888  0.8243
  172MOL0     H22663   0.489   1.613   4.603 -0.4629  1.7372 -0.2293
  172MOL0     H22664   0.355   1.488   4.455 -0.8528 -0.9465 -1.7604
  172MOL0     H22665   0.435   1.534   4.318 -0.0448  1.2943 -0.6881
  172MOL0     H22666   0.148   1.478   4.372  0.4905  0.5863 -2.2768
  172MOL0     H22667  -0.091   1.494   4.368 -3.5088  1.7587  1.7396
  172MOL0     H22668  -0.475   1.858   4.318  0.1094 -1.1167 -0.9739
  172MOL0     H22669  -0.726   1.850   4.352  0.6754  0.1588  0.6085
  172MOL0     H22670  -0.979   1.755   4.297 -0.8650 -1.6899  0.1896
  172MOL0     H22671  -0.908   1.816   4.451  0.7890  1.0077 -2.8774
  172MOL0     H22672  -1.069   1.703   4.574  0.4699 -0.7645  0.8249
  172MOL0     H22673  -1.128   1.608   4.432 -0.3721  1.1311 -1.4025
  172MOL0     H22674  -1.195   1.826   4.342  4.8302  0.7384 -0.6418
  172MOL0     H22675  -1.128   1.901   4.482  0.4104 -0.4813  0.4486
  172MOL0     H22676  -1.377   1.723   4.488  0.4664 -0.4868 -0.9244
  172MOL0     H22677  -1.274   1.760   4.630 -0.2637 -0.6910 -1.0377
  172MOL0     H22678  -1.401   1.960   4.437 -1.2032 -2.0863 -0.2036
  172MOL0     H22679  -1.315   2.000   4.592  0.1463  0.4509 -0.1192
  172MOL0     H22680  -1.559   2.025   4.629 -1.1186  0.3464 -0.0693
  172MOL0     H22681  -1.490   1.910   4.728 -1.1569 -1.6541  0.0651
  172MOL0     H22682  -1.625   1.836   4.452  1.6897 -4.2236 -0.0778
  172MOL0     H22683  -1.579   1.726   4.570 -1.5761 -1.6755 -1.7651
  172MOL0     H22684  -1.829   1.779   4.595 -1.5438 -0.8273  4.7032
  172MOL0     H22685  -1.793   1.944   4.612  0.2591 -0.3059  0.7933
  172MOL0     H22686  -0.689   1.422   4.422  0.8807 -0.5439  2.2808
  172MOL0     H22687  -0.462   1.435   4.400 -2.8590 -2.0655 -1.8769
  172MOL0     H22688  -0.047   1.920   4.433 -3.2784 -1.3956 -1.2769
  172MOL0     H22689   0.197   1.891   4.439  2.1219 -1.1913 -0.7019
  172MOL0     H22690   2.240   1.206   4.633  1.0326  1.0735  1.5407
  172MOL0     H22691   2.453   1.137   4.736 -1.5455  1.7396  0.9931
  172MOL0     H22692   2.766   0.988   5.109 -2.9240 -4.2031 -0.8920
  172MOL0     H22693   2.996   0.933   5.094  1.8766  0.4822 -0.4516
  172MOL0     H22694   3.183   1.005   5.024 -2.9909 -1.3026 -0.2482
  172MOL0     H22695   3.326   0.957   4.919 -1.0221  1.0610 -2.9585
  172MOL0     H22696   3.266   0.839   5.170 -0.3713  2.6881 -0.1997
  172MOL0     H22697   3.182   0.726   5.058  0.9888 -2.0769  0.9660
  172MOL0     H22698   3.468   0.836   5.055  0.8775 -0.9144 -0.8650
  172MOL0     H22699   3.414   0.724   4.936  1.9662  0.2812  0.2939
  172MOL0     H22700   3.406   0.661   5.232 -2.6690  2.0664 -1.1421
  172MOL0     H22701   3.390   0.535   5.097 -0.8198  0.9995  1.1532
  172MOL0     H22702   3.801   0.571   5.079 -0.2148 -1.7193  5.4961
  172MOL0     H22703   2.967   0.871   4.670 -1.4761  0.0602 -1.3808
  172MOL0     H22704   2.748   0.930   4.675 -0.1062  1.6283 -0.5948
  173MOL0     O22705   1.916   0.985   2.135  0.0573 -0.2706  0.0909
  173MOL0     C22706   1.990   0.902   2.074 -0.4590  0.1534 -0.4528
  173MOL0     O22707   1.961   0.845   1.955 -0.1456  0.1498  0.6419
  173MOL0     C22708   1.852   0.894   1.880  0.2323 -0.0241 -1.1680
  173MOL0     C22709   1.827   1.028   1.854 -1.5373  0.5451 -0.1069
  173MOL0     C22710   1.710   1.066   1.790 -0.7448  0.0757  0.8509
  173MOL0     C22711   1.616   0.966   1.755  0.3537  0.4997 -0.7289
  173MOL0     O22712   1.494   1.007   1.697  0.1782 -0.4687  0.6442
  173MOL0     C22713   1.417   1.058   1.805  0.1546 -0.3709  0.5160
  173MOL0     C22714   1.270   1.069   1.759  0.0552 -0.4488  0.2131
  173MOL0     C22715   1.187   1.134   1.876  0.3297 -0.2695 -0.2911
  173MOL0     C22716   1.036   1.136   1.842 -0.6059  0.2155 -0.1470
  173MOL0     C22717   0.971   1.201   1.966 -0.3811  0.1040  0.4356
  173MOL0     C22718   0.821   1.227   1.959 -0.7805  0.2542  0.0585
  173MOL0     C22719   0.747   1.109   1.903 -0.3228  0.8196 -0.3148
  173MOL0     C22720   0.607   1.109   1.949  1.0314  0.3956  0.5701
  173MOL0     N22721   0.530   1.197   1.858 -0.4986 -0.4052 -0.2996
  173MOL0     C22722   0.401   1.166   1.824  0.0838  0.4945 -0.0536
  173MOL0     C22723   0.357   1.268   1.745  0.1724  0.2979 -1.2567
  173MOL0     C22724   0.223   1.269   1.685  1.0723  0.1900  0.1165
  173MOL0     C22725   0.110   1.247   1.790  0.3633 -0.2814  0.3234
  173MOL0     C22726  -0.026   1.203   1.728 -0.3861 -0.7912  0.5471
  173MOL0     C22727  -0.088   1.269   1.593 -0.4279  0.3121  0.3056
  173MOL0     O22728  -0.185   1.183   1.537  0.2585  0.2911  0.0075
  173MOL0     C22729  -0.319   1.205   1.537  1.0894  0.3387  0.9426
  173MOL0     C22730  -0.399   1.290   1.619 -0.5063 -0.2671 -0.5179
  173MOL0     C22731  -0.529   1.317   1.577 -0.8812 -0.8626  0.0693
  173MOL0     C22732  -0.588   1.244   1.472 -0.0805 -0.4265  0.9840
  173MOL0     C22733  -0.729   1.268   1.441 -0.5978  0.2641  0.0683
  173MOL0     O22734  -0.790   1.361   1.523 -0.0653 -0.8818  0.5844
  173MOL0     C22735  -0.924   1.371   1.530 -0.8501 -0.5077 -0.2350
  173MOL0     C22736  -0.974   1.492   1.585  0.3506  0.1233  0.5782
  173MOL0     C22737  -1.111   1.500   1.621 -0.0496 -0.3582  0.7060
  173MOL0     C22738  -1.199   1.397   1.584  0.8458  0.3336  0.3049
  173MOL0     O22739  -1.343   1.409   1.590  0.4569 -0.0710 -0.2126
  173MOL0     C22740  -1.392   1.491   1.698 -1.2170 -0.5603  1.1647
  173MOL0     C22741  -1.428   1.637   1.641  0.2133  0.0619 -0.8140
  173MOL0     C22742  -1.492   1.731   1.749  0.2123 -0.3223 -0.7331
  173MOL0     C22743  -1.625   1.671   1.804 -0.7162  0.1191  0.0093
  173MOL0     C22744  -1.687   1.764   1.901  0.5020  0.6910  0.1865
  173MOL0     C22745  -1.755   1.883   1.834  0.5683 -0.9633 -0.8903
  173MOL0     C22746  -1.876   1.845   1.748  0.2496  0.8881 -0.0593
  173MOL0     C22747  -1.953   1.962   1.689  0.2076 -0.6027 -0.5503
  173MOL0    Cl22748  -2.051   2.025   1.825  0.0320  0.4964 -0.6903
  173MOL0     C22749  -1.152   1.286   1.518  0.7199 -0.4691 -0.4693
  173MOL0     C22750  -1.019   1.268   1.507  1.0831  0.1690  0.7328
  173MOL0     O22751  -0.794   1.207   1.357 -0.1663  0.0954  0.3532
  173MOL0     C22752  -0.522   1.135   1.413 -1.1819 -0.5019  0.9367
  173MOL0     C22753  -0.387   1.115   1.445  0.3761 -1.3595  0.7399
  173MOL0     N22754   0.461   1.366   1.747  0.0385  0.1750 -0.2936
  173MOL0     N22755   0.560   1.318   1.819  0.8993  0.2287  0.7016
  173MOL0     C22756   1.646   0.831   1.765  0.2883  0.1932 -0.0183
  173MOL0     C22757   1.767   0.801   1.822  0.3978  0.0230 -0.1524
  173MOL0     C22758   2.129   0.882   2.133  0.8137 -0.2774  0.4695
  173MOL0     C22759   2.217   0.784   2.087  0.9916  0.3657 -0.0347
  173MOL0     C22760   2.345   0.773   2.139 -0.3460 -0.4881 -0.1116
  173MOL0     C22761   2.388   0.863   2.243 -0.2737 -0.3862 -0.0780
  173MOL0     O22762   2.520   0.854   2.291 -0.1659 -0.4671  1.0552
  173MOL0     C22763   2.570   0.943   2.387 -0.9688 -0.1738  0.2059
  173MOL0     C22764   2.528   0.909   2.532 -0.3181 -0.7408 -0.0447
  173MOL0     C22765   2.587   1.007   2.634  0.0191 -1.2561 -0.8160
  173MOL0     C22766   2.734   0.984   2.689 -0.0835  0.0713  0.2690
  173MOL0     C22767   2.772   1.090   2.789  0.9148  1.2929 -0.6261
  173MOL0     C22768   2.807   1.171   2.876 -0.9544  0.1612  0.0684
  173MOL0     C22769   2.297   0.963   2.288 -0.0983 -0.7520  0.0684
  173MOL0     C22770   2.167   0.968   2.238  0.3565  0.0019 -1.3166
  173MOL0     H22771   1.902   1.098   1.890 -0.8269  0.1391 -0.7697
  173MOL0     H22772   1.691   1.171   1.772  2.0950  1.0624  2.9853
  173MOL0     H22773   1.459   1.150   1.847  0.7635  1.6079 -3.8988
  173MOL0     H22774   1.417   0.989   1.890  2.1899 -0.6633  0.3230
  173MOL0     H22775   1.226   0.971   1.736 -0.4399 -0.2879  0.4579
  173MOL0     H22776   1.256   1.133   1.672  0.4728 -1.0031 -0.2673
  173MOL0     H22777   1.214   1.240   1.881  0.0289  0.2514 -5.0792
  173MOL0     H22778   1.201   1.072   1.965 -0.4893 -2.3410 -1.5226
  173MOL0     H22779   1.014   1.193   1.751 -1.6584 -1.0675 -0.7240
  173MOL0     H22780   1.002   1.032   1.834  2.5127 -0.9743  0.3132
  173MOL0     H22781   1.021   1.296   1.984  2.0067 -1.0158  0.0831
  173MOL0     H22782   0.997   1.144   2.056  0.1760 -0.3006  0.0273
  173MOL0     H22783   0.807   1.305   1.883 -0.7998  1.2844  1.1068
  173MOL0     H22784   0.796   1.262   2.059  4.2056  2.6649  0.7251
  173MOL0     H22785   0.752   1.097   1.794  4.1960 -1.2312 -0.1017
  173MOL0     H22786   0.792   1.019   1.946  0.4265  0.8092 -1.0914
  173MOL0     H22787   0.602   1.132   2.056 -2.0768  1.5922  0.2663
  173MOL0     H22788   0.578   1.004   1.940 -0.0973  0.8219 -1.2163
  173MOL0     H22789   0.340   1.078   1.838 -0.1140  0.3651 -1.4950
  173MOL0     H22790   0.214   1.194   1.605 -0.4609 -0.5177  0.9162
  173MOL0     H22791   0.205   1.366   1.637  4.5639  0.1945 -1.5366
  173MOL0     H22792   0.095   1.344   1.839 -0.4190 -0.2128 -0.0412
  173MOL0     H22793   0.138   1.172   1.865  0.4997  1.0152  1.6268
  173MOL0     H22794  -0.009   1.100   1.696  0.5594 -0.0860 -1.3723
  173MOL0     H22795  -0.107   1.196   1.802 -0.2723 -1.1564  0.6386
  173MOL0     H22796  -0.010   1.287   1.519 -3.1085  2.2522 -2.3288
  173MOL0     H22797  -0.129   1.367   1.616  0.8530  0.4693  2.0578
  173MOL0     H22798  -0.367   1.353   1.702  0.3739 -0.1800 -0.9094
  173MOL0     H22799  -0.584   1.385   1.641 -1.6191 -0.1013 -1.3179
  173MOL0     H22800  -0.900   1.562   1.622 -0.2888  1.9562 -1.3950
  173MOL0     H22801  -1.152   1.586   1.673 -0.1528 -0.5674  0.9719
  173MOL0     H22802  -1.313   1.497   1.773 -0.4432 -1.5317  0.4611
  173MOL0     H22803  -1.478   1.433   1.733 -2.0083 -0.7475 -0.9651
  173MOL0     H22804  -1.500   1.610   1.563  0.8058 -0.7564 -1.0979
  173MOL0     H22805  -1.336   1.679   1.601  1.7133 -2.3422 -0.0878
  173MOL0     H22806  -1.511   1.832   1.711  1.4583  0.7209  1.2448
  173MOL0     H22807  -1.426   1.751   1.835 -2.6841  2.0630  1.1430
  173MOL0     H22808  -1.690   1.641   1.721 -1.7961  2.2794  0.0104
  173MOL0     H22809  -1.606   1.573   1.848  1.9235  0.2226 -0.7437
  173MOL0     H22810  -1.604   1.801   1.962  2.4525 -0.2762 -1.7736
  173MOL0     H22811  -1.760   1.710   1.961 -1.7311  3.5549  0.3085
  173MOL0     H22812  -1.681   1.943   1.780  0.4027 -0.4414 -0.5501
  173MOL0     H22813  -1.800   1.942   1.915 -0.9665  1.5762 -3.3895
  173MOL0     H22814  -1.854   1.778   1.664 -4.4551 -0.5040 -0.4676
  173MOL0     H22815  -1.950   1.796   1.812 -1.9776  0.3609 -2.8412
  173MOL0     H22816  -2.028   1.919   1.623 -1.5635 -0.4047  1.2290
  173MOL0     H22817  -1.898   2.042   1.637 -0.3782 -0.6640 -1.2772
  173MOL0     H22818  -1.226   1.209   1.498 -0.8301  1.2928 -1.9291
  173MOL0     H22819  -0.988   1.167   1.479  2.1658  0.6546  0.1017
  173MOL0     H22820  -0.563   1.077   1.331 -2.0615 -0.9864  1.7091
  173MOL0     H22821  -0.324   1.054   1.381  1.3454 -1.2653  1.5876
  173MOL0     H22822   1.572   0.760   1.731 -1.7603  1.7072  1.0911
  173MOL0     H22823   1.780   0.695   1.839 -2.4659 -0.0211  2.8775
  173MOL0     H22824   2.185   0.721   2.004  0.6342 -1.7956  1.6548
  173MOL0     H22825   2.407   0.689   2.111 -0.4527 -1.3276  2.0064
  173MOL0     H22826   2.533   1.043   2.361 -0.9804 -0.3363 -0.4413
  173MOL0     H22827   2.677   0.956   2.367 -0.1905 -3.3873  1.6856
  173MOL0     H22828   2.419   0.922   2.541 -0.2000  1.1468 -0.7778
  173MOL0     H22829   2.565   0.808   2.550  1.9687 -0.1802 -1.2269
  173MOL0     H22830   2.518   0.996   2.718 -1.2490  0.9173 -1.4999
  173MOL0     H22831   2.582   1.105   2.587 -1.7814 -0.8130  0.2123
  173MOL0     H22832   2.735   0.889   2.743 -0.4540 -1.1982 -1.8646
  173MOL0     H22833   2.803   0.995   2.604 -1.2854  0.9777 -0.6326
  173MOL0     H22834   2.845   1.235   2.952 -1.6066  1.1895 -0.4483
  173MOL0     H22835   2.326   1.049   2.348 -4.3326  1.6806 -0.9363
  173MOL0     H22836   2.107   1.053   2.269  1.0445 -0.1079  0.3737
  174MOL0     O22837   8.314   1.998   4.964 -0.0698  0.1031  0.9558
  174MOL0     C22838   8.343   2.082   5.038  0.2645 -0.5555 -0.2710
  174MOL0     O22839   8.247   2.162   5.102  0.7236 -0.9267 -0.4532
  174MOL0     C22840   8.110   2.131   5.077 -0.1929  0.2653 -0.2404
  174MOL0     C22841   8.042   2.147   4.958  0.1477  0.3251  0.7385
  174MOL0     C22842   7.904   2.115   4.944 -0.4821 -0.1013 -0.8494
  174MOL0     C22843   7.833   2.069   5.054 -0.1043 -0.0660 -0.2117
  174MOL0     O22844   7.698   2.038   5.033  0.2837  0.0232 -0.4535
  174MOL0     C22845   7.619   2.025   5.146  1.0093  0.5115 -0.4217
  174MOL0     C22846   7.581   2.162   5.205 -0.0134 -0.3614 -0.0721
  174MOL0     C22847   7.471   2.149   5.319 -0.4559  0.1634  0.1657
  174MOL0     C22848   7.425   2.284   5.368  0.1778 -1.2039 -0.2374
  174MOL0     C22849   7.289   2.271   5.447 -0.4913  0.7485 -0.8329
  174MOL0     C22850   7.187   2.168   5.385 -0.0843 -0.6889  0.2969
  174MOL0     C22851   7.059   2.184   5.467  0.1840 -0.5942 -0.3665
  174MOL0     C22852   6.953   2.084   5.426 -0.2934  0.5367  0.1473
  174MOL0     N22853   6.843   2.091   5.525  0.8964 -0.1966  0.4630
  174MOL0     C22854   6.743   2.184   5.511 -0.6405 -0.3201 -0.0131
  174MOL0     C22855   6.655   2.161   5.610 -1.0138 -0.5457  0.8586
  174MOL0     C22856   6.544   2.245   5.661  0.1736 -0.4126  0.0202
  174MOL0     C22857   6.561   2.251   5.813  0.0367 -0.1576  0.3025
  174MOL0     C22858   6.476   2.365   5.888 -0.4665 -0.0646 -0.4928
  174MOL0     C22859   6.497   2.364   6.043  0.0879  1.0473  0.4369
  174MOL0     O22860   6.424   2.471   6.103  0.5018  0.4465 -0.0007
  174MOL0     C22861   6.292   2.465   6.137 -1.0398  0.3440 -0.3392
  174MOL0     C22862   6.218   2.343   6.151 -0.0736  0.5468  1.8720
  174MOL0     C22863   6.095   2.344   6.218 -0.3941  0.2303  0.0651
  174MOL0     C22864   6.034   2.459   6.260 -0.0251 -0.0737  0.5979
  174MOL0     C22865   5.891   2.466   6.327 -1.0397  0.3055 -0.2898
  174MOL0     O22866   5.840   2.592   6.353  0.0037 -0.0962 -0.3130
  174MOL0     C22867   5.721   2.617   6.413  0.2219  0.2276 -0.1668
  174MOL0     C22868   5.660   2.737   6.390 -0.3695  0.9029  0.0665
  174MOL0     C22869   5.530   2.765   6.436  0.2506  0.1082  0.3434
  174MOL0     C22870   5.464   2.668   6.510  0.6878 -0.8426 -0.2703
  174MOL0     O22871   5.343   2.684   6.571  0.5485 -0.0684  0.7667
  174MOL0     C22872   5.245   2.618   6.514  0.8331  0.3558 -0.3317
  174MOL0     C22873   5.179   2.520   6.611 -0.6939  0.2347  0.1881
  174MOL0     C22874   5.124   2.584   6.739 -0.6206 -0.4966  0.5420
  174MOL0     C22875   5.005   2.674   6.718  0.9615 -0.7820 -0.1761
  174MOL0     C22876   4.877   2.591   6.660 -0.3220  0.8913  0.5137
  174MOL0     C22877   4.736   2.658   6.659 -0.4571  0.4575  0.4278
  174MOL0     C22878   4.638   2.543   6.600  0.9409 -0.9905  0.1280
  174MOL0     C22879   4.515   2.610   6.529 -0.4295  0.4523 -0.5724
  174MOL0    Cl22880   4.423   2.712   6.655  0.6131 -0.0942 -0.1251
  174MOL0     C22881   5.526   2.546   6.533  0.5617 -0.0591  0.3071
  174MOL0     C22882   5.652   2.512   6.485 -0.5633  0.3043  0.2590
  174MOL0     O22883   5.838   2.350   6.339 -0.1720  0.0650 -0.4545
  174MOL0     C22884   6.103   2.580   6.245  0.0348  0.4737  1.1945
  174MOL0     C22885   6.226   2.578   6.177 -0.4472 -0.4884  0.2709
  174MOL0     N22886   6.693   2.039   5.676 -0.1405  0.0202  0.5689
  174MOL0     N22887   6.806   2.008   5.618  0.2160  0.6747 -1.1211
  174MOL0     C22888   7.910   2.052   5.177 -0.3111  0.4159 -0.3150
  174MOL0     C22889   8.039   2.091   5.193 -0.3669  0.3505  0.0496
  174MOL0     C22890   8.488   2.118   5.060 -0.6588  1.2940  0.6741
  174MOL0     C22891   8.591   2.055   4.993  0.1403 -0.2147 -0.2084
  174MOL0     C22892   8.716   2.080   5.034  0.2952 -0.9821  0.3354
  174MOL0     C22893   8.751   2.160   5.147 -0.0064 -0.1260  0.9135
  174MOL0     O22894   8.886   2.183   5.174 -0.4033 -0.6440  0.6165
  174MOL0     C22895   8.989   2.087   5.158 -1.4145 -0.4416  0.4652
  174MOL0     C22896   9.063   2.115   5.023 -0.0395  0.4321  1.0273
  174MOL0     C22897   9.182   2.018   5.006  0.6503 -0.4473  0.6917
  174MOL0     C22898   9.268   2.060   4.886 -0.4036 -0.0026  0.3877
  174MOL0     C22899   9.193   2.036   4.761 -0.2634  0.3893 -0.2815
  174MOL0     C22900   9.160   2.028   4.649 -0.0647  0.3964  0.1728
  174MOL0     C22901   8.646   2.244   5.190 -0.1781  0.3681  0.1283
  174MOL0     C22902   8.518   2.212   5.157  0.3877 -0.5474 -0.3882
  174MOL0     H22903   8.104   2.175   4.874 -1.8608 -0.3658 -1.0470
  174MOL0     H22904   7.842   2.128   4.856 -2.8969  4.7176  1.1110
  174MOL0     H22905   7.666   1.964   5.224 -1.4379 -0.0272  0.7295
  174MOL0     H22906   7.530   1.973   5.109  0.8043 -0.0131  0.7618
  174MOL0     H22907   7.543   2.237   5.136 -1.2507  1.4730  2.4569
  174MOL0     H22908   7.675   2.211   5.230  0.8172 -1.2377 -1.3631
  174MOL0     H22909   7.501   2.088   5.405 -0.1558 -2.7519 -1.8746
  174MOL0     H22910   7.389   2.092   5.275 -0.8450  0.6082  0.3121
  174MOL0     H22911   7.493   2.336   5.436  0.2952  1.4642 -2.2316
  174MOL0     H22912   7.412   2.359   5.289 -0.3365 -0.0686  0.8846
  174MOL0     H22913   7.241   2.370   5.450 -0.7314  0.6482  2.4843
  174MOL0     H22914   7.305   2.241   5.551  0.3939 -0.6920 -1.3591
  174MOL0     H22915   7.227   2.069   5.408  0.5245 -0.0726  2.0555
  174MOL0     H22916   7.174   2.181   5.277  1.2626  0.3271  0.2337
  174MOL0     H22917   7.065   2.174   5.576  0.7736  0.5603 -0.2824
  174MOL0     H22918   7.025   2.287   5.459 -1.2479 -1.1009 -1.2625
  174MOL0     H22919   6.990   1.981   5.431  0.4270  0.8367  1.5911
  174MOL0     H22920   6.922   2.099   5.322 -0.1397  1.3667  0.2152
  174MOL0     H22921   6.743   2.266   5.440  0.8484  1.5518  2.0287
  174MOL0     H22922   6.453   2.191   5.634 -0.5891  1.6305 -1.8033
  174MOL0     H22923   6.546   2.351   5.631 -3.1995 -0.5295 -1.0459
  174MOL0     H22924   6.666   2.278   5.826 -0.2838  0.6512  1.3335
  174MOL0     H22925   6.536   2.152   5.853 -2.0801  0.2514  0.0922
  174MOL0     H22926   6.494   2.466   5.852 -1.3929  0.2408 -0.1360
  174MOL0     H22927   6.368   2.351   5.872 -0.7882 -0.7817  1.7940
  174MOL0     H22928   6.604   2.383   6.056  0.4085  1.7917 -2.5025
  174MOL0     H22929   6.477   2.270   6.095  1.8574 -0.0835 -0.8003
  174MOL0     H22930   6.262   2.247   6.126  1.8528  2.0465 -1.0589
  174MOL0     H22931   6.047   2.255   6.257  0.6212 -1.8769 -3.0766
  174MOL0     H22932   5.702   2.805   6.317  1.6517  1.4574  1.6420
  174MOL0     H22933   5.482   2.862   6.426 -0.2091 -0.2535 -1.4830
  174MOL0     H22934   5.279   2.559   6.429  0.2847 -2.9762  1.5799
  174MOL0     H22935   5.171   2.693   6.483  0.6784  0.8999  1.2521
  174MOL0     H22936   5.256   2.455   6.652  0.1302  0.6211 -0.7039
  174MOL0     H22937   5.107   2.461   6.553  1.4685 -0.6412 -1.7536
  174MOL0     H22938   5.190   2.642   6.805 -2.3509 -0.7404  2.6200
  174MOL0     H22939   5.087   2.504   6.804  1.3424  0.1947  2.6739
  174MOL0     H22940   4.979   2.715   6.815  3.3005 -1.5541  0.8389
  174MOL0     H22941   5.038   2.754   6.651  0.5911  0.2574  0.8640
  174MOL0     H22942   4.876   2.505   6.727  1.9973  0.7994  0.4925
  174MOL0     H22943   4.901   2.568   6.556 -0.4537  2.4252  0.1140
  174MOL0     H22944   4.739   2.746   6.595 -2.3443  0.4891  0.3059
  174MOL0     H22945   4.701   2.693   6.757 -2.4892 -2.3449  0.8482
  174MOL0     H22946   4.693   2.478   6.531  1.4943 -1.3899  0.9385
  174MOL0     H22947   4.602   2.480   6.681 -0.0495  0.3229  0.7444
  174MOL0     H22948   4.453   2.534   6.481 -0.8337 -1.2036  2.3548
  174MOL0     H22949   4.547   2.674   6.446 -0.9687 -0.0420 -1.1639
  174MOL0     H22950   5.494   2.477   6.611  0.9839  2.2827  2.7058
  174MOL0     H22951   5.696   2.417   6.514 -0.3386  0.1275 -0.6547
  174MOL0     H22952   6.060   2.676   6.272 -2.9045 -0.1328 -0.8992
  174MOL0     H22953   6.281   2.669   6.157  0.8308 -1.8677 -3.2499
  174MOL0     H22954   7.870   2.037   5.277  1.6638  2.0375  0.7997
  174MOL0     H22955   8.080   2.074   5.292 -0.6401  1.0398  0.2885
  174MOL0     H22956   8.578   1.980   4.916 -2.0644  0.2687 -0.3629
  174MOL0     H22957   8.782   2.021   4.971  1.4425  0.2833  0.3093
  174MOL0     H22958   8.948   1.988   5.177  0.5542 -1.4938 -0.4898
  174MOL0     H22959   9.063   2.103   5.237  0.0588  0.5865 -1.0494
  174MOL0     H22960   8.996   2.102   4.938 -0.5020  2.2681  1.0653
  174MOL0     H22961   9.099   2.218   5.021 -2.9813  1.5311 -0.8250
  174MOL0     H22962   9.144   1.916   4.992 -2.1415  0.6360 -0.2594
  174MOL0     H22963   9.232   2.027   5.103 -0.0520  3.5432  0.8495
  174MOL0     H22964   9.294   2.164   4.905 -0.9428 -0.2048  2.5156
  174MOL0     H22965   9.367   2.013   4.885  0.4045  1.5764  1.7196
  174MOL0     H22966   9.133   2.016   4.546 -2.4839 -1.0163  0.9047
  174MOL0     H22967   8.666   2.315   5.270 -0.4935 -1.1672  1.6335
  174MOL0     H22968   8.435   2.259   5.209 -0.1653  1.6915 -3.0576
  175MOL0     O22969   4.305   3.422   7.775  0.0035  0.0489  0.7953
  175MOL0     C22970   4.401   3.434   7.849 -0.2655  0.2480  0.1533
  175MOL0     O22971   4.418   3.369   7.958 -0.8035 -0.6002  0.6468
  175MOL0     C22972   4.313   3.313   8.033  0.6575 -0.8338  0.0656
  175MOL0     C22973   4.316   3.183   8.075  0.5284 -0.1474  0.0427
  175MOL0     C22974   4.203   3.120   8.134 -0.1638 -0.2087  0.8029
  175MOL0     C22975   4.098   3.205   8.167 -0.1915  0.1459  0.2746
  175MOL0     O22976   3.994   3.147   8.236  0.1497 -0.1496  0.6332
  175MOL0     C22977   3.860   3.193   8.209  0.9773  0.3579 -0.1855
  175MOL0     C22978   3.768   3.074   8.229  0.2160  0.0303 -0.5976
  175MOL0     C22979   3.625   3.107   8.208 -0.0358  0.8187  0.6342
  175MOL0     C22980   3.545   2.978   8.209 -0.0908  0.5441  0.2924
  175MOL0     C22981   3.396   3.011   8.192  0.0819 -0.2886  0.8213
  175MOL0     C22982   3.310   2.883   8.188  0.1664  0.5629 -0.0356
  175MOL0     C22983   3.170   2.925   8.211  0.6140 -0.2248 -0.4590
  175MOL0     C22984   3.087   2.801   8.260 -0.4556  0.4110 -0.2028
  175MOL0     N22985   2.948   2.851   8.297 -0.7559  0.2030  0.9609
  175MOL0     C22986   2.846   2.763   8.312  1.4934 -0.3594  0.5289
  175MOL0     C22987   2.758   2.828   8.397 -0.2335  0.3427 -0.1815
  175MOL0     C22988   2.631   2.770   8.448 -0.8913 -0.7942  0.2207
  175MOL0     C22989   2.511   2.813   8.378  0.1355 -0.1416  0.7868
  175MOL0     C22990   2.393   2.789   8.474 -0.3520 -0.0753  0.2392
  175MOL0     C22991   2.257   2.793   8.395 -0.1805 -0.1133 -0.5320
  175MOL0     O22992   2.156   2.771   8.490  0.7027  0.3262 -0.2475
  175MOL0     C22993   2.029   2.747   8.443 -0.0507 -0.1183  0.0011
  175MOL0     C22994   1.935   2.674   8.514  0.7261  1.1449  0.1465
  175MOL0     C22995   1.806   2.659   8.454 -0.3249 -0.1964 -0.0592
  175MOL0     C22996   1.772   2.726   8.339  0.2894 -0.4762 -0.6156
  175MOL0     C22997   1.629   2.723   8.286 -0.9886  0.7022 -0.4050
  175MOL0     O22998   1.541   2.625   8.326  0.2239  0.3099 -0.2168
  175MOL0     C22999   1.404   2.606   8.310  0.8392  0.9454  0.6375
  175MOL0     C23000   1.358   2.496   8.385  0.4074  0.1390 -0.2081
  175MOL0     C23001   1.219   2.470   8.388 -0.1505 -0.0823  0.2562
  175MOL0     C23002   1.135   2.550   8.307  0.5413  0.2930 -0.3597
  175MOL0     O23003   0.995   2.534   8.309 -0.0378 -0.0796  0.6004
  175MOL0     C23004   0.911   2.622   8.235  0.9085  0.0129 -1.0674
  175MOL0     C23005   0.757   2.605   8.267 -0.3786 -0.2985 -0.2001
  175MOL0     C23006   0.712   2.464   8.246 -0.1235  0.3816  0.1045
  175MOL0     C23007   0.572   2.449   8.282 -0.3384  0.5284  0.2807
  175MOL0     C23008   0.499   2.348   8.181  0.1648 -0.8515 -0.0877
  175MOL0     C23009   0.362   2.294   8.236  0.0500  0.0319  0.5301
  175MOL0     C23010   0.270   2.410   8.293 -0.2828 -0.5729  0.4968
  175MOL0     C23011   0.144   2.345   8.342  0.4816 -0.7332  0.2052
  175MOL0    Cl23012   0.010   2.458   8.389  0.1552  0.1282 -0.1050
  175MOL0     C23013   1.189   2.656   8.232  0.2043 -0.1472  0.1056
  175MOL0     C23014   1.324   2.684   8.238 -0.2955 -0.4245  0.1045
  175MOL0     O23015   1.598   2.813   8.213  0.0008 -0.0915 -0.2838
  175MOL0     C23016   1.864   2.799   8.271  0.4660  0.2752 -1.2976
  175MOL0     C23017   1.992   2.801   8.331 -0.3969 -0.3921  0.9033
  175MOL0     N23018   2.808   2.952   8.423  0.0264 -0.1895  0.3095
  175MOL0     N23019   2.928   2.963   8.366  1.0730  0.1503  0.2267
  175MOL0     C23020   4.097   3.343   8.132 -0.2295  0.5458 -0.0838
  175MOL0     C23021   4.213   3.401   8.075  1.6765  0.3333  1.0494
  175MOL0     C23022   4.513   3.518   7.809 -0.0113 -0.2636  0.4442
  175MOL0     C23023   4.607   3.568   7.899  0.1600  0.4372  0.8988
  175MOL0     C23024   4.710   3.651   7.860 -0.5417 -0.3096  0.4162
  175MOL0     C23025   4.725   3.694   7.730  0.0882 -0.2442 -0.2999
  175MOL0     O23026   4.820   3.787   7.697  0.2212  0.2503 -0.1387
  175MOL0     C23027   4.841   3.812   7.558 -0.2473  0.0105  0.6159
  175MOL0     C23028   4.939   3.932   7.552 -1.3934  0.4511  0.4413
  175MOL0     C23029   4.882   4.064   7.605  1.1391  0.0819  0.1804
  175MOL0     C23030   4.993   4.177   7.587  0.5203  0.9014  0.4300
  175MOL0     C23031   4.951   4.305   7.632  0.7972 -0.4578  0.2963
  175MOL0     C23032   4.906   4.416   7.660 -0.3811 -1.0810 -0.2286
  175MOL0     C23033   4.623   3.648   7.646  0.8886 -0.6809  0.3907
  175MOL0     C23034   4.517   3.567   7.681  0.0163  0.6584 -0.2993
  175MOL0     H23035   4.407   3.126   8.057  0.8051  0.4251 -0.4117
  175MOL0     H23036   4.204   3.017   8.166 -0.4658 -0.5174 -0.1604
  175MOL0     H23037   3.838   3.229   8.108  2.6994 -0.8209 -1.0252
  175MOL0     H23038   3.835   3.270   8.283  2.2878  2.3513 -1.7028
  175MOL0     H23039   3.774   3.039   8.333  0.7509 -2.4711 -1.3943
  175MOL0     H23040   3.800   2.992   8.165  4.2871  0.7030  0.3217
  175MOL0     H23041   3.614   3.162   8.114 -0.2280  1.1870  0.8696
  175MOL0     H23042   3.582   3.165   8.291  1.7065  0.0018  2.1687
  175MOL0     H23043   3.570   2.906   8.130 -1.4416  0.1966  0.1442
  175MOL0     H23044   3.555   2.917   8.299  3.1375 -0.8128 -0.8468
  175MOL0     H23045   3.378   3.056   8.095 -0.0979 -1.1711  0.4324
  175MOL0     H23046   3.373   3.081   8.273 -0.6023  1.6146 -0.9384
  175MOL0     H23047   3.349   2.819   8.267  3.5241  2.0296 -0.3251
  175MOL0     H23048   3.326   2.822   8.099 -1.6529 -0.6875  0.4461
  175MOL0     H23049   3.169   2.991   8.298 -0.7523  0.8416 -1.2597
  175MOL0     H23050   3.124   2.981   8.129  0.4180  1.5587  0.8095
  175MOL0     H23051   3.136   2.754   8.346 -1.1905 -0.3191 -0.1671
  175MOL0     H23052   3.076   2.727   8.180 -2.0431 -0.1044  0.4642
  175MOL0     H23053   2.833   2.661   8.278  0.1447 -0.1872  0.4733
  175MOL0     H23054   2.621   2.817   8.546 -2.2579 -1.0374  0.2185
  175MOL0     H23055   2.636   2.660   8.452  3.3989 -0.7799 -0.3922
  175MOL0     H23056   2.511   2.736   8.300 -1.0195 -1.3314  1.9123
  175MOL0     H23057   2.525   2.920   8.361  2.3964 -0.4914  0.1052
  175MOL0     H23058   2.402   2.691   8.523  1.2899 -0.5302 -0.8750
  175MOL0     H23059   2.378   2.858   8.557  0.1484 -0.3986  0.5997
  175MOL0     H23060   2.259   2.714   8.320  2.6670 -0.7124  0.0726
  175MOL0     H23061   2.242   2.891   8.347  0.1277 -0.7618 -2.0098
  175MOL0     H23062   1.957   2.630   8.611 -0.0497 -1.9838 -0.9577
  175MOL0     H23063   1.742   2.586   8.502  0.6588 -2.4447 -1.9942
  175MOL0     H23064   1.430   2.441   8.445  2.7875  0.9007 -2.2121
  175MOL0     H23065   1.174   2.394   8.451 -0.2932  0.1002  0.3741
  175MOL0     H23066   0.943   2.604   8.132  3.5850  0.3013 -0.3758
  175MOL0     H23067   0.936   2.724   8.267 -1.6931  0.0778  1.0793
  175MOL0     H23068   0.702   2.687   8.219  1.7889  2.8239  2.1889
  175MOL0     H23069   0.752   2.640   8.371  0.2139 -0.3626 -0.1491
  175MOL0     H23070   0.757   2.384   8.306  1.7603 -0.6664 -2.4783
  175MOL0     H23071   0.740   2.440   8.143  2.7886  0.8365  0.6798
  175MOL0     H23072   0.555   2.423   8.387 -1.1247  4.2135  1.2089
  175MOL0     H23073   0.523   2.547   8.275  3.4755  2.7379  1.4085
  175MOL0     H23074   0.554   2.255   8.163 -1.2082 -1.6645 -0.3086
  175MOL0     H23075   0.479   2.408   8.092 -3.6966  0.2637  1.3099
  175MOL0     H23076   0.374   2.223   8.319 -0.1942  0.3003  0.7977
  175MOL0     H23077   0.309   2.253   8.150 -0.8250  0.2100  0.9754
  175MOL0     H23078   0.322   2.460   8.374 -1.6277  3.3906 -0.8740
  175MOL0     H23079   0.246   2.488   8.220 -1.1417  1.3589  2.7098
  175MOL0     H23080   0.169   2.281   8.427 -0.8619 -0.7295  0.6188
  175MOL0     H23081   0.097   2.284   8.265  1.5285 -2.2217  0.6864
  175MOL0     H23082   1.126   2.731   8.184 -0.1272 -0.3533  0.2133
  175MOL0     H23083   1.361   2.777   8.196  1.7273 -1.4897 -0.6008
  175MOL0     H23084   1.833   2.852   8.182  0.5675  0.1762 -1.3919
  175MOL0     H23085   2.064   2.861   8.276  2.1503 -0.6573  3.6724
  175MOL0     H23086   4.014   3.405   8.163  0.1058  1.7060 -1.4384
  175MOL0     H23087   4.225   3.506   8.048 -2.9191  0.8485  0.0962
  175MOL0     H23088   4.599   3.535   8.002 -3.7129  2.0415  1.2724
  175MOL0     H23089   4.780   3.692   7.931 -0.1994 -1.7517  0.9329
  175MOL0     H23090   4.753   3.842   7.500  3.0294  1.6239 -4.1281
  175MOL0     H23091   4.890   3.733   7.500  1.6013  2.1986 -1.0158
  175MOL0     H23092   5.028   3.895   7.604 -0.7464 -3.1937 -2.7686
  175MOL0     H23093   4.954   3.948   7.445 -0.8358 -0.2458  0.4040
  175MOL0     H23094   4.857   4.053   7.711 -0.8016 -1.1177 -0.3640
  175MOL0     H23095   4.791   4.091   7.551 -1.2659 -1.1947  3.2568
  175MOL0     H23096   5.084   4.151   7.642  1.9743  1.6619 -1.5316
  175MOL0     H23097   5.012   4.178   7.480 -0.1256  0.9429  0.3083
  175MOL0     H23098   4.851   4.508   7.665  0.1331 -0.7404 -0.7273
  175MOL0     H23099   4.626   3.658   7.538 -0.2061 -2.8346  0.0925
  175MOL0     H23100   4.448   3.543   7.601 -0.5180  1.5756 -0.1190
  176MOL0     O23101  10.824   2.624   3.115  0.5214  1.0551  0.3799
  176MOL0     C23102  10.873   2.718   3.061  0.4836 -0.4486  0.3992
  176MOL0     O23103  10.824   2.843   3.063 -0.1299  0.2222  0.5107
  176MOL0     C23104  10.695   2.862   3.106 -0.3007  0.8388 -0.7361
  176MOL0     C23105  10.653   2.904   3.237 -0.3267  0.3935  0.8091
  176MOL0     C23106  10.522   2.923   3.264  0.2652 -0.0880  0.7903
  176MOL0     C23107  10.425   2.915   3.162  0.2865 -0.7105  0.8775
  176MOL0     O23108  10.300   2.966   3.168 -0.1345 -0.4351 -0.6452
  176MOL0     C23109  10.222   2.961   3.291  0.3378 -0.4869 -0.0794
  176MOL0     C23110  10.163   3.103   3.312  0.4344  0.4966  0.5472
  176MOL0     C23111  10.045   3.103   3.415 -0.2182  0.8643 -0.2127
  176MOL0     C23112   9.980   3.244   3.417 -0.0716 -0.3021 -0.5172
  176MOL0     C23113   9.851   3.235   3.495  0.1485  0.4362  0.0788
  176MOL0     C23114   9.763   3.353   3.459 -0.3742  0.1142 -0.5883
  176MOL0     C23115   9.635   3.347   3.540 -0.0834  0.0305 -0.3465
  176MOL0     C23116   9.539   3.450   3.486  0.7500 -0.5378 -0.6665
  176MOL0     N23117   9.408   3.442   3.567 -0.5891  0.0409  0.0051
  176MOL0     C23118   9.346   3.546   3.643  0.0383 -0.1692  0.6021
  176MOL0     C23119   9.234   3.496   3.694  0.0043  0.6974 -0.0754
  176MOL0     C23120   9.130   3.582   3.757 -0.3391 -0.5242  0.2435
  176MOL0     C23121   9.037   3.659   3.656  0.3180  0.6660 -0.4036
  176MOL0     C23122   8.955   3.772   3.717  0.7903 -0.4471  0.1234
  176MOL0     C23123   8.829   3.806   3.633 -0.3960 -0.0059 -0.5272
  176MOL0     O23124   8.745   3.882   3.714 -0.1024 -0.9583 -0.6925
  176MOL0     C23125   8.623   3.928   3.658  1.2399  0.1895 -0.3705
  176MOL0     C23126   8.511   3.938   3.739  0.4493 -0.5419  0.4748
  176MOL0     C23127   8.382   3.976   3.686 -0.2927 -1.0786 -0.0814
  176MOL0     C23128   8.369   4.026   3.559 -0.1900  0.9743 -0.7117
  176MOL0     C23129   8.247   4.098   3.524 -0.1475  0.4127 -0.1898
  176MOL0     O23130   8.179   4.140   3.636  0.6009 -0.6131 -0.1993
  176MOL0     C23131   8.078   4.235   3.613 -0.1023 -0.1907  0.0553
  176MOL0     C23132   7.970   4.224   3.521 -0.5306  0.6157 -0.3696
  176MOL0     C23133   7.875   4.325   3.508 -0.0180  0.1972 -0.0925
  176MOL0     C23134   7.883   4.444   3.580 -1.6998 -0.5200  0.4113
  176MOL0     O23135   7.792   4.541   3.542  0.7069 -0.4400  0.0381
  176MOL0     C23136   7.778   4.651   3.628  0.0617  0.1381 -0.4703
  176MOL0     C23137   7.625   4.660   3.653 -0.2505  0.4958  0.2051
  176MOL0     C23138   7.569   4.801   3.621 -0.2844  0.1334  0.6821
  176MOL0     C23139   7.629   4.889   3.736  0.1734 -0.4751  0.2618
  176MOL0     C23140   7.569   5.035   3.706 -0.1520  0.3228  0.0032
  176MOL0     C23141   7.666   5.125   3.769  0.1244  0.0630 -0.4999
  176MOL0     C23142   7.673   5.124   3.924 -0.0625  1.1616  0.6619
  176MOL0     C23143   7.768   5.233   3.972 -0.7350 -0.1076  0.3111
  176MOL0    Cl23144   7.715   5.413   3.986 -0.3882  0.1790  0.0150
  176MOL0     C23145   7.992   4.454   3.671 -0.1956  0.1496 -0.0999
  176MOL0     C23146   8.088   4.351   3.688 -0.7603 -1.4222  0.7669
  176MOL0     O23147   8.233   4.132   3.403  0.2084  0.0540 -0.4268
  176MOL0     C23148   8.478   4.018   3.474 -0.4586  1.1949 -0.4683
  176MOL0     C23149   8.601   3.956   3.523  0.4682 -0.6975 -0.7548
  176MOL0     N23150   9.222   3.366   3.648 -0.2154  0.1551  0.6780
  176MOL0     N23151   9.323   3.333   3.573  0.2116 -0.5153 -0.1292
  176MOL0     C23152  10.458   2.869   3.034  0.2205  0.0461  0.1651
  176MOL0     C23153  10.592   2.840   3.008  0.8441 -0.2101  0.4547
  176MOL0     C23154  11.005   2.682   2.996  0.7359  0.0119  0.1100
  176MOL0     C23155  11.048   2.761   2.884 -0.3026 -0.3145  0.3432
  176MOL0     C23156  11.164   2.734   2.813 -0.2663  0.1130 -0.0262
  176MOL0     C23157  11.242   2.624   2.846 -0.2200 -0.8545  0.2173
  176MOL0     O23158  11.367   2.633   2.789  0.4932  0.1781  0.7581
  176MOL0     C23159  11.418   2.514   2.731 -0.8020 -0.5810 -0.0084
  176MOL0     C23160  11.524   2.537   2.617 -0.3212 -0.2032 -0.0707
  176MOL0     C23161  11.654   2.628   2.655  0.3209  0.0361 -0.0721
  176MOL0     C23162  11.630   2.772   2.647  0.2896  0.0432 -0.2463
  176MOL0     C23163  11.587   2.819   2.513 -0.2222  0.5472 -0.5153
  176MOL0     C23164  11.565   2.864   2.404 -0.2831 -0.0709  0.5574
  176MOL0     C23165  11.208   2.549   2.960  0.5876 -0.5935  0.3225
  176MOL0     C23166  11.085   2.568   3.027  0.5862 -0.1205  0.3544
  176MOL0     H23167  10.724   2.909   3.319  0.3031 -0.1956  0.3177
  176MOL0     H23168  10.498   2.956   3.365 -0.8930 -0.6556  0.7231
  176MOL0     H23169  10.281   2.937   3.380 -1.4364 -2.0400  0.7368
  176MOL0     H23170  10.141   2.888   3.293 -0.6297  0.5369 -0.8084
  176MOL0     H23171  10.131   3.146   3.217  1.5443  0.4519  0.1401
  176MOL0     H23172  10.253   3.159   3.340  1.3748 -1.3293  1.3950
  176MOL0     H23173  10.089   3.085   3.514  0.7225 -1.6238 -0.9796
  176MOL0     H23174   9.967   3.030   3.390  0.1488  0.5499 -0.4588
  176MOL0     H23175  10.048   3.323   3.450 -0.1882  0.3759 -1.8541
  176MOL0     H23176   9.966   3.271   3.312  2.6773 -0.3288 -0.9485
  176MOL0     H23177   9.878   3.241   3.600 -0.6741 -0.4762  0.3544
  176MOL0     H23178   9.785   3.149   3.478  0.1628  0.5604 -0.6745
  176MOL0     H23179   9.743   3.356   3.351  1.2237 -0.4545 -0.9348
  176MOL0     H23180   9.823   3.440   3.485 -0.8262  0.0753  0.6273
  176MOL0     H23181   9.580   3.254   3.522  0.0625 -0.0016 -0.6374
  176MOL0     H23182   9.653   3.353   3.648  5.2586 -3.6296 -0.6462
  176MOL0     H23183   9.516   3.448   3.379  0.6514 -0.3930 -0.6483
  176MOL0     H23184   9.583   3.548   3.504 -2.5243  1.0718 -0.7549
  176MOL0     H23185   9.384   3.648   3.644  2.8207 -1.1305  0.1445
  176MOL0     H23186   9.189   3.655   3.813  5.3209 -1.3254 -3.7612
  176MOL0     H23187   9.066   3.520   3.820  1.0763  0.0111  2.2969
  176MOL0     H23188   8.964   3.591   3.611 -1.6389  3.4582 -1.7378
  176MOL0     H23189   9.094   3.705   3.575  1.3608 -1.2856 -0.8423
  176MOL0     H23190   8.916   3.744   3.815  0.5506  0.8622  0.4248
  176MOL0     H23191   9.015   3.862   3.732  0.2584 -0.1187  0.3034
  176MOL0     H23192   8.778   3.713   3.606  0.8634 -0.5662 -1.0738
  176MOL0     H23193   8.871   3.858   3.546  2.4716 -1.6381 -0.2672
  176MOL0     H23194   8.519   3.919   3.846 -0.6926 -3.1893  0.1602
  176MOL0     H23195   8.297   3.975   3.753 -1.6131 -1.9970 -1.7039
  176MOL0     H23196   7.953   4.133   3.463 -1.0643  0.6902 -0.3381
  176MOL0     H23197   7.792   4.310   3.439  1.5947 -0.7074 -1.9229
  176MOL0     H23198   7.822   4.738   3.579 -1.0913  0.7044 -0.5433
  176MOL0     H23199   7.827   4.642   3.725  2.1986  0.1126 -1.5063
  176MOL0     H23200   7.599   4.638   3.757 -1.4394  0.5819 -0.0546
  176MOL0     H23201   7.561   4.605   3.584 -0.7210  3.7262 -2.1927
  176MOL0     H23202   7.460   4.798   3.631 -0.3229  0.2995  0.2902
  176MOL0     H23203   7.589   4.817   3.515 -0.3290  0.6270  0.7467
  176MOL0     H23204   7.614   4.850   3.837  2.5035  0.1859  0.9226
  176MOL0     H23205   7.737   4.888   3.719  0.2597  1.6031  0.3672
  176MOL0     H23206   7.475   5.053   3.758  0.5568 -0.6346  1.6863
  176MOL0     H23207   7.571   5.065   3.601  1.5271 -0.2935 -0.1653
  176MOL0     H23208   7.644   5.225   3.731 -1.1787 -0.2197 -0.5353
  176MOL0     H23209   7.763   5.100   3.725 -0.5181 -0.5832 -1.6142
  176MOL0     H23210   7.578   5.148   3.973 -0.5904  3.1494 -1.2076
  176MOL0     H23211   7.706   5.024   3.955 -0.7944  1.0995  1.2731
  176MOL0     H23212   7.849   5.222   3.899 -0.9855 -0.0884  0.0292
  176MOL0     H23213   7.802   5.198   4.070 -0.0069  0.5680  0.3177
  176MOL0     H23214   8.006   4.546   3.727  1.3080  1.2580 -2.1375
  176MOL0     H23215   8.175   4.360   3.753  0.3244 -1.1320 -0.6597
  176MOL0     H23216   8.482   4.032   3.367  0.2942 -1.2340 -0.8238
  176MOL0     H23217   8.685   3.938   3.457  0.7476 -4.3443  0.3898
  176MOL0     H23218  10.395   2.874   2.945 -2.1801 -0.7098  1.7236
  176MOL0     H23219  10.638   2.813   2.913  1.5101 -1.0337  0.9952
  176MOL0     H23220  10.993   2.847   2.846  1.7292  1.0499  0.3162
  176MOL0     H23221  11.188   2.805   2.734  1.4315  1.9165  1.9643
  176MOL0     H23222  11.331   2.460   2.695 -0.7896 -0.1486 -0.6993
  176MOL0     H23223  11.464   2.461   2.815  0.3080 -1.0843 -0.9103
  176MOL0     H23224  11.549   2.444   2.565 -2.3348 -0.3720 -0.8104
  176MOL0     H23225  11.478   2.583   2.529 -0.4664 -1.6164 -0.7642
  176MOL0     H23226  11.738   2.606   2.588  0.1471  2.9660 -1.4056
  176MOL0     H23227  11.673   2.604   2.760 -4.1986 -0.4765  0.7950
  176MOL0     H23228  11.559   2.816   2.717  0.6070  3.2894 -1.7706
  176MOL0     H23229  11.725   2.827   2.653  0.0695  0.7354 -2.2623
  176MOL0     H23230  11.552   2.893   2.301 -0.5316 -3.0292 -0.3452
  176MOL0     H23231  11.278   2.471   2.990  0.5778  0.1311  2.4024
  176MOL0     H23232  11.061   2.509   3.114  1.5090  3.4394  3.2698
  177MOL0     O23233   5.658   5.038  11.193 -0.4881  0.0282  0.8887
  177MOL0     C23234   5.730   5.132  11.213  0.3862  0.6009 -0.0947
  177MOL0     O23235   5.690   5.259  11.249 -0.4281  0.2505 -0.2530
  177MOL0     C23236   5.556   5.286  11.261  0.2824  0.7097  0.7582
  177MOL0     C23237   5.466   5.224  11.342 -0.1683  1.3148 -0.3847
  177MOL0     C23238   5.327   5.254  11.344  0.7867  0.2164  1.4699
  177MOL0     C23239   5.280   5.344  11.250 -0.3938  0.3157 -0.4230
  177MOL0     O23240   5.143   5.362  11.236 -0.3785  0.1204  0.1991
  177MOL0     C23241   5.101   5.500  11.238  0.1047 -0.1170  0.3880
  177MOL0     C23242   4.952   5.513  11.263  0.0437 -0.4456  0.8346
  177MOL0     C23243   4.864   5.445  11.152 -0.3723  0.0303 -0.3041
  177MOL0     C23244   4.710   5.458  11.178 -0.2527  0.3499 -0.0933
  177MOL0     C23245   4.618   5.429  11.056 -0.3375 -0.9819 -0.4491
  177MOL0     C23246   4.591   5.275  11.037  0.5376  1.0410  0.2764
  177MOL0     C23247   4.485   5.262  10.926 -0.2681 -0.1651 -1.8427
  177MOL0     C23248   4.434   5.120  10.911  0.2296  0.6910 -0.3397
  177MOL0     N23249   4.328   5.118  10.808  0.0373 -0.5505  0.3460
  177MOL0     C23250   4.209   5.181  10.839  0.4654 -1.0688 -1.1983
  177MOL0     C23251   4.134   5.150  10.732  0.1861 -0.1361  0.0997
  177MOL0     C23252   3.982   5.164  10.710 -0.5743  0.4991 -0.3204
  177MOL0     C23253   3.926   5.253  10.595  0.0056  0.2294 -0.0729
  177MOL0     C23254   4.006   5.384  10.594 -0.1878 -0.3539  0.6544
  177MOL0     C23255   3.986   5.470  10.469 -0.6362 -0.3661  0.0625
  177MOL0     O23256   3.886   5.575  10.487  0.6624 -0.0699 -0.2287
  177MOL0     C23257   3.779   5.574  10.390 -0.4358  0.6788 -0.2965
  177MOL0     C23258   3.728   5.449  10.337 -0.0101  0.1112 -0.7575
  177MOL0     C23259   3.619   5.453  10.253 -0.0470  0.1114  1.1196
  177MOL0     C23260   3.554   5.575  10.220 -0.3932 -0.4921 -0.3923
  177MOL0     C23261   3.449   5.581  10.128  0.1369  0.8025  0.9665
  177MOL0     O23262   3.451   5.691  10.050  0.2333  0.2770  0.2378
  177MOL0     C23263   3.350   5.714   9.969  0.7998  0.5344 -0.1664
  177MOL0     C23264   3.244   5.775  10.018 -0.0986 -0.8469  0.8086
  177MOL0     C23265   3.137   5.820   9.940  0.2248  1.0061  0.7961
  177MOL0     C23266   3.138   5.806   9.801  0.0531 -0.8747  0.3071
  177MOL0     O23267   3.025   5.856   9.735  0.9612  0.0981 -1.0064
  177MOL0     C23268   3.042   5.914   9.605 -0.4077 -0.1957 -0.2021
  177MOL0     C23269   2.905   5.928   9.545  0.7809  0.4815  0.0946
  177MOL0     C23270   2.845   5.789   9.503  0.3712 -0.2590 -0.1434
  177MOL0     C23271   2.713   5.832   9.435 -0.6055 -0.0657 -0.5831
  177MOL0     C23272   2.654   5.706   9.364 -0.7634 -0.3465  0.3397
  177MOL0     C23273   2.518   5.736   9.298  0.5907 -0.1164 -0.5886
  177MOL0     C23274   2.400   5.726   9.395 -0.5067  0.3330 -0.0872
  177MOL0     C23275   2.270   5.671   9.325 -1.1009  0.2759 -0.0085
  177MOL0    Cl23276   2.276   5.489   9.306  0.3862 -0.1350  0.3671
  177MOL0     C23277   3.258   5.745   9.744  0.2247 -0.5759 -0.8407
  177MOL0     C23278   3.357   5.693   9.826  0.1048 -0.7438  0.6006
  177MOL0     O23279   3.371   5.484  10.128 -0.1809  0.9894 -0.1738
  177MOL0     C23280   3.606   5.698  10.282  0.1103 -0.4762 -0.8876
  177MOL0     C23281   3.715   5.694  10.368  0.0554  0.2807 -0.6359
  177MOL0     N23282   4.209   5.079  10.642 -0.2954  0.4588 -0.3299
  177MOL0     N23283   4.330   5.067  10.683 -0.7278  0.5940  0.5934
  177MOL0     C23284   5.372   5.408  11.166  0.1004  0.0365  0.6702
  177MOL0     C23285   5.507   5.376  11.164  1.0508  0.1321  0.4717
  177MOL0     C23286   5.874   5.099  11.201 -0.0480 -0.0847  0.7414
  177MOL0     C23287   5.969   5.204  11.222 -0.4905  0.0305 -0.1530
  177MOL0     C23288   6.109   5.175  11.219  0.4487  0.4525 -0.4512
  177MOL0     C23289   6.148   5.043  11.214 -0.7887 -0.1143  0.0297
  177MOL0     O23290   6.286   5.023  11.218  0.2998 -0.5490  0.2930
  177MOL0     C23291   6.335   4.895  11.199 -0.1383 -0.1730  0.1137
  177MOL0     C23292   6.494   4.902  11.203  0.2652 -0.9193 -0.6032
  177MOL0     C23293   6.556   4.903  11.340  0.7289 -0.5574  0.0469
  177MOL0     C23294   6.564   4.762  11.394  0.9382 -0.1476 -0.3112
  177MOL0     C23295   6.664   4.753  11.506  0.4427 -0.1002  0.8949
  177MOL0     C23296   6.748   4.767  11.593  0.3466  0.0244 -0.2100
  177MOL0     C23297   6.055   4.940  11.204 -0.3613 -0.2922 -0.0466
  177MOL0     C23298   5.921   4.971  11.177 -0.7934  0.0085 -0.1417
  177MOL0     H23299   5.517   5.151  11.405  1.3442  0.4502 -2.4959
  177MOL0     H23300   5.261   5.197  11.409 -2.6776 -0.4172 -2.2632
  177MOL0     H23301   5.118   5.551  11.142 -4.3458  0.7782 -0.1214
  177MOL0     H23302   5.152   5.563  11.311 -0.4524 -0.3445  0.9831
  177MOL0     H23303   4.937   5.621  11.260 -1.2160 -0.5759  1.5775
  177MOL0     H23304   4.926   5.481  11.365  1.2810 -1.0952  0.9732
  177MOL0     H23305   4.894   5.341  11.159  3.1069  0.8824 -0.8553
  177MOL0     H23306   4.904   5.476  11.056  0.8605  1.6470  0.6797
  177MOL0     H23307   4.685   5.399  11.267 -4.3986 -0.4325 -1.5568
  177MOL0     H23308   4.696   5.566  11.191  1.8272  0.6016  0.5123
  177MOL0     H23309   4.670   5.468  10.968 -0.5428 -0.5974 -0.4054
  177MOL0     H23310   4.524   5.483  11.072 -1.7100 -3.4653  0.4919
  177MOL0     H23311   4.570   5.233  11.136  2.6887  0.8012  0.6813
  177MOL0     H23312   4.684   5.228  11.002  0.2668  2.7201 -3.0963
  177MOL0     H23313   4.403   5.330  10.952  1.1359  0.8225  0.2957
  177MOL0     H23314   4.534   5.293  10.833 -0.9622  2.9403 -1.2848
  177MOL0     H23315   4.396   5.098  11.011 -0.9588 -2.3577 -1.3571
  177MOL0     H23316   4.512   5.051  10.877 -0.2164 -0.8554  1.6606
  177MOL0     H23317   4.181   5.229  10.932 -3.4339 -2.6230 -1.3530
  177MOL0     H23318   3.937   5.181  10.808  0.6211 -0.1133  0.3647
  177MOL0     H23319   3.952   5.060  10.696 -0.4159  0.3652  0.2729
  177MOL0     H23320   3.819   5.269  10.613 -0.2142 -1.7599  0.6783
  177MOL0     H23321   3.954   5.210  10.498  2.4313 -0.0239  0.6769
  177MOL0     H23322   3.978   5.449  10.678  2.4480 -0.3664  1.6433
  177MOL0     H23323   4.114   5.365  10.601  0.5358  2.3838 -1.0157
  177MOL0     H23324   3.960   5.413  10.379 -3.0095  1.5301 -0.5480
  177MOL0     H23325   4.085   5.511  10.449 -0.9566 -0.4050 -1.8615
  177MOL0     H23326   3.770   5.353  10.364 -1.1594  0.5298  2.9928
  177MOL0     H23327   3.576   5.359  10.219 -1.7909  0.7328  1.4883
  177MOL0     H23328   3.234   5.799  10.123 -4.7959 -1.5037  0.7124
  177MOL0     H23329   3.045   5.863   9.978 -0.5715 -1.0097  1.3099
  177MOL0     H23330   3.113   5.861   9.542 -1.8759 -2.4740 -0.0455
  177MOL0     H23331   3.070   6.019   9.623 -2.8759  0.6897 -1.0677
  177MOL0     H23332   2.917   5.980   9.450 -0.1715 -0.4621 -0.5757
  177MOL0     H23333   2.845   5.998   9.605 -0.5803 -2.0549  1.8964
  177MOL0     H23334   2.812   5.724   9.585 -3.4457 -0.5277 -1.7282
  177MOL0     H23335   2.905   5.724   9.438  0.7616 -2.2903  2.0536
  177MOL0     H23336   2.648   5.862   9.518  0.1678 -3.8114  1.6099
  177MOL0     H23337   2.730   5.904   9.354  1.6004 -0.6732 -0.7208
  177MOL0     H23338   2.658   5.610   9.418  0.2191 -0.1846  0.5737
  177MOL0     H23339   2.721   5.690   9.279 -0.5449  1.4628  0.1447
  177MOL0     H23340   2.503   5.664   9.216 -4.1653 -0.2410  0.1194
  177MOL0     H23341   2.511   5.832   9.246 -2.7194 -0.5604 -1.1586
  177MOL0     H23342   2.414   5.658   9.480  2.7072  0.7324 -0.1765
  177MOL0     H23343   2.379   5.830   9.423  2.2852  1.1818 -0.8277
  177MOL0     H23344   2.254   5.710   9.225 -0.3844 -1.3466 -0.7934
  177MOL0     H23345   2.176   5.686   9.380 -0.2506 -1.3206  2.0376
  177MOL0     H23346   3.257   5.732   9.637 -1.0315  2.8624 -1.3663
  177MOL0     H23347   3.443   5.644   9.782 -0.4915 -0.7560 -0.5977
  177MOL0     H23348   3.547   5.787  10.264  0.5297 -0.6381 -3.3557
  177MOL0     H23349   3.749   5.777  10.429 -0.6354 -1.3014  2.0977
  177MOL0     H23350   5.334   5.483  11.099  3.3069  1.4281  0.1914
  177MOL0     H23351   5.571   5.431  11.096  1.1639 -0.6289 -0.0529
  177MOL0     H23352   5.932   5.304  11.242 -0.3598 -0.1118  0.8672
  177MOL0     H23353   6.185   5.252  11.216  0.5858  0.3675  0.4968
  177MOL0     H23354   6.302   4.862  11.100  1.1957  1.1442 -0.8132
  177MOL0     H23355   6.304   4.819  11.271  3.0913 -2.0222 -0.2595
  177MOL0     H23356   6.538   4.818  11.149 -1.5283 -1.5714 -1.1086
  177MOL0     H23357   6.531   4.989  11.148  4.2548  0.1802  3.1952
  177MOL0     H23358   6.496   4.973  11.401 -1.1563 -2.5884  0.6511
  177MOL0     H23359   6.658   4.943  11.349  0.1161  0.7971  1.5155
  177MOL0     H23360   6.468   4.725  11.430  0.9144 -0.8942 -1.1041
  177MOL0     H23361   6.602   4.691  11.319  3.4422 -2.4902  2.8894
  177MOL0     H23362   6.818   4.788  11.671  1.3877 -0.9214 -0.8597
  177MOL0     H23363   6.070   4.833  11.198  0.7638 -0.0663 -2.3754
  177MOL0     H23364   5.852   4.887  11.180 -0.4311 -0.2802  0.2801
  178MOL0     O23365  10.205   4.482   9.285  0.0560  0.1186 -0.3097
  178MOL0     C23366  10.235   4.557   9.371  0.4052 -0.4598  0.1182
  178MOL0     O23367  10.141   4.626   9.454  0.7037 -0.5330 -0.1222
  178MOL0     C23368  10.018   4.658   9.416 -0.4813 -0.0761  0.5865
  178MOL0     C23369   9.925   4.687   9.510 -0.1521  0.0893 -0.4145
  178MOL0     C23370   9.798   4.734   9.477  0.6248 -0.5220  0.4227
  178MOL0     C23371   9.764   4.741   9.340 -0.0714  0.2812  0.1635
  178MOL0     O23372   9.635   4.773   9.302  0.4247  0.1630 -0.0991
  178MOL0     C23373   9.523   4.756   9.394 -0.5088  0.0782  1.0818
  178MOL0     C23374   9.406   4.709   9.294  0.5830  0.6146  0.2721
  178MOL0     C23375   9.279   4.666   9.368  0.5499  0.0238  0.0685
  178MOL0     C23376   9.194   4.793   9.411 -0.4334 -0.7481 -0.1966
  178MOL0     C23377   9.084   4.767   9.518  0.1061 -0.6338  0.4711
  178MOL0     C23378   8.973   4.871   9.511  0.2561 -0.9527  0.5053
  178MOL0     C23379   8.878   4.870   9.632 -0.6571 -0.1232  0.1397
  178MOL0     C23380   8.778   4.758   9.623 -0.2101  0.6646  0.2918
  178MOL0     N23381   8.700   4.743   9.751 -1.3355  0.0275 -0.2235
  178MOL0     C23382   8.609   4.643   9.774 -0.6836  0.6626  0.0398
  178MOL0     C23383   8.536   4.679   9.882 -0.4450  0.3420  0.3718
  178MOL0     C23384   8.442   4.594   9.959  0.1012 -0.3645  0.4037
  178MOL0     C23385   8.306   4.606   9.898 -0.9880  0.1731  0.9151
  178MOL0     C23386   8.199   4.559   9.989  0.2063 -0.0299  0.4056
  178MOL0     C23387   8.157   4.670  10.088  0.1228  0.6243 -0.0209
  178MOL0     O23388   8.088   4.609  10.195 -0.7448  0.7630 -0.3298
  178MOL0     C23389   8.158   4.579  10.310 -0.1938  0.0402 -0.7627
  178MOL0     C23390   8.294   4.598  10.341 -0.5854 -1.2651 -1.2459
  178MOL0     C23391   8.346   4.553  10.469 -0.1327 -0.3584  0.4389
  178MOL0     C23392   8.253   4.509  10.567 -0.0075  0.4001 -0.7502
  178MOL0     C23393   8.297   4.454  10.700 -1.0642  0.8346  0.4808
  178MOL0     O23394   8.414   4.496  10.742 -0.0253 -0.5116  0.7265
  178MOL0     C23395   8.472   4.433  10.849 -0.2865 -0.6943 -0.4195
  178MOL0     C23396   8.549   4.516  10.929 -0.0397 -0.3213  0.3062
  178MOL0     C23397   8.618   4.465  11.037  0.3782 -0.9885  0.4493
  178MOL0     C23398   8.610   4.331  11.064 -0.2805  0.4448  0.0622
  178MOL0     O23399   8.682   4.277  11.166 -0.6873 -0.5951  0.1053
  178MOL0     C23400   8.614   4.277  11.293  0.1663  0.0939 -0.2862
  178MOL0     C23401   8.687   4.201  11.404 -0.2150  0.1804 -0.8519
  178MOL0     C23402   8.619   4.222  11.540 -0.7563 -0.2314  0.3309
  178MOL0     C23403   8.691   4.134  11.645  0.3510 -0.3263  0.2560
  178MOL0     C23404   8.613   4.124  11.780 -0.1242 -0.3024 -0.0140
  178MOL0     C23405   8.686   4.042  11.885 -0.3662  0.3134  0.3079
  178MOL0     C23406   8.624   4.053  12.026 -0.4509  0.3898  0.4109
  178MOL0     C23407   8.480   3.997  12.028  0.6358  0.3483 -0.6228
  178MOL0    Cl23408   8.441   3.941  12.190  0.1857 -0.0459 -0.2984
  178MOL0     C23409   8.531   4.242  10.983 -0.6053 -0.1607 -0.7743
  178MOL0     C23410   8.468   4.298  10.871  0.1601  0.5438 -0.3532
  178MOL0     O23411   8.220   4.376  10.768 -0.8394 -0.3234  0.7947
  178MOL0     C23412   8.116   4.508  10.535 -0.0696  0.4678  0.3986
  178MOL0     C23413   8.077   4.537  10.405 -0.0628  0.2150  0.1759
  178MOL0     N23414   8.572   4.812   9.909  0.0049 -0.6407  0.9036
  178MOL0     N23415   8.667   4.845   9.826 -0.1588 -0.5645 -0.7211
  178MOL0     C23416   9.850   4.695   9.239 -0.8608  0.2119 -0.4857
  178MOL0     C23417   9.981   4.671   9.276 -0.8821  1.5429 -0.0755
  178MOL0     C23418  10.378   4.563   9.420  0.1280 -0.6470  0.4390
  178MOL0     C23419  10.476   4.486   9.354  0.4145  0.0039  0.6035
  178MOL0     C23420  10.612   4.496   9.369 -0.5252  0.0924 -0.3234
  178MOL0     C23421  10.654   4.577   9.467 -0.5797  0.1783 -0.7430
  178MOL0     O23422  10.789   4.588   9.497  0.1916  0.2508 -0.1463
  178MOL0     C23423  10.832   4.586   9.630 -0.3893  0.0232  0.4659
  178MOL0     C23424  10.978   4.569   9.612 -1.1154 -1.0722  1.0149
  178MOL0     C23425  11.053   4.566   9.753 -0.2706  0.7282  0.8176
  178MOL0     C23426  11.191   4.504   9.728 -1.1221 -0.3223  0.2837
  178MOL0     C23427  11.273   4.509   9.855 -0.8668  0.5436  0.0469
  178MOL0     C23428  11.338   4.518   9.956  0.2454  0.2024  0.7642
  178MOL0     C23429  10.566   4.657   9.531  1.0603 -0.1202 -0.3992
  178MOL0     C23430  10.426   4.653   9.513 -0.3372 -1.1156 -0.4683
  178MOL0     H23431   9.955   4.668   9.612 -1.3892 -2.3620 -0.4580
  178MOL0     H23432   9.740   4.769   9.561  1.9040  0.4239  0.9563
  178MOL0     H23433   9.506   4.855   9.435 -1.9360  0.3194  0.0113
  178MOL0     H23434   9.546   4.682   9.471 -2.3393  0.6478  2.2548
  178MOL0     H23435   9.453   4.630   9.234  0.4239 -0.7473  1.8595
  178MOL0     H23436   9.381   4.791   9.227  2.3030 -1.2635 -2.8882
  178MOL0     H23437   9.299   4.602   9.454 -0.6581  3.1890  2.9560
  178MOL0     H23438   9.229   4.614   9.285 -2.0690  3.0905 -0.4997
  178MOL0     H23439   9.267   4.865   9.450 -0.5125  0.6541 -2.5002
  178MOL0     H23440   9.153   4.839   9.321 -2.4683  2.1041  1.9764
  178MOL0     H23441   9.138   4.783   9.613  0.0436 -0.0903  0.4181
  178MOL0     H23442   9.046   4.665   9.518 -0.7270 -0.3258  0.2529
  178MOL0     H23443   8.908   4.869   9.422 -1.3141 -1.8708  1.6061
  178MOL0     H23444   9.021   4.969   9.509  3.1939 -2.2530  1.8490
  178MOL0     H23445   8.932   4.865   9.726 -1.5162 -1.8403  0.5821
  178MOL0     H23446   8.832   4.969   9.632  0.3289  0.3452  0.7261
  178MOL0     H23447   8.832   4.665   9.607 -2.8837 -0.8015 -0.9044
  178MOL0     H23448   8.709   4.783   9.542 -0.5305 -2.3793 -0.4903
  178MOL0     H23449   8.613   4.546   9.724  3.7719  0.5415  0.2068
  178MOL0     H23450   8.439   4.637  10.060 -1.9189 -0.6547  0.5177
  178MOL0     H23451   8.477   4.491   9.964 -1.3836 -0.8942  0.4050
  178MOL0     H23452   8.302   4.536   9.815  0.3612  2.6058 -1.3608
  178MOL0     H23453   8.284   4.709   9.869  0.1818  0.4163  0.8495
  178MOL0     H23454   8.113   4.527   9.931  0.3267 -0.2754  0.3611
  178MOL0     H23455   8.228   4.473  10.050 -2.3617 -0.3329  1.3158
  178MOL0     H23456   8.084   4.738  10.044 -2.3783 -0.7569  1.7152
  178MOL0     H23457   8.237   4.734  10.128  1.0266  1.0406 -2.3455
  178MOL0     H23458   8.362   4.640  10.267 -0.4936  0.9846  0.0575
  178MOL0     H23459   8.450   4.574  10.494 -0.3949 -0.7177  1.8865
  178MOL0     H23460   8.558   4.623  10.911  1.4528 -0.2557  1.2388
  178MOL0     H23461   8.668   4.535  11.103 -0.0658  0.8394 -1.0914
  178MOL0     H23462   8.510   4.242  11.281 -1.5600  5.0050 -2.1521
  178MOL0     H23463   8.607   4.378  11.333  5.5489 -0.5031  3.0762
  178MOL0     H23464   8.793   4.228  11.410  0.1999 -1.2866 -1.1435
  178MOL0     H23465   8.674   4.094  11.385 -1.6243  0.5025 -1.8011
  178MOL0     H23466   8.514   4.194  11.535 -0.9639  0.7122 -1.8190
  178MOL0     H23467   8.620   4.329  11.563 -1.5945  0.3353 -1.9437
  178MOL0     H23468   8.716   4.031  11.616  0.2532 -0.9762  2.3365
  178MOL0     H23469   8.785   4.188  11.656  0.1184 -0.2427  2.0547
  178MOL0     H23470   8.515   4.077  11.773  0.0551 -0.6922  0.0805
  178MOL0     H23471   8.585   4.225  11.812 -0.1262 -0.2811 -0.0809
  178MOL0     H23472   8.793   4.063  11.900  0.3066 -2.8661  0.8324
  178MOL0     H23473   8.693   3.938  11.849  2.7252  1.0527 -1.6634
  178MOL0     H23474   8.694   3.986  12.077  2.2321  2.7854  0.1103
  178MOL0     H23475   8.643   4.149  12.074  0.3671  0.3191  0.2447
  178MOL0     H23476   8.475   3.910  11.963 -0.8069  0.5529 -0.8268
  178MOL0     H23477   8.417   4.082  11.999 -0.4289 -0.1340  0.1705
  178MOL0     H23478   8.539   4.135  11.000  2.5798  0.1327  0.3608
  178MOL0     H23479   8.419   4.223  10.810  0.3966  0.5348 -0.5337
  178MOL0     H23480   8.038   4.483  10.607  1.6042 -1.1976  1.7379
  178MOL0     H23481   7.971   4.537  10.381 -0.9459  1.6873  3.4427
  178MOL0     H23482   9.812   4.674   9.140  1.1515  1.8217 -1.6821
  178MOL0     H23483  10.056   4.659   9.199 -0.9648 -0.2671  0.0829
  178MOL0     H23484  10.445   4.419   9.274  1.3618 -0.0598  0.2780
  178MOL0     H23485  10.689   4.432   9.326  2.2243  2.9626 -0.0749
  178MOL0     H23486  10.796   4.496   9.680  1.1388 -1.1811 -0.4841
  178MOL0     H23487  10.811   4.683   9.677 -0.6252  0.5268 -0.6247
  178MOL0     H23488  10.996   4.483   9.547 -2.7527  0.6800 -1.9989
  178MOL0     H23489  11.028   4.654   9.565 -0.6189  0.2221  3.6917
  178MOL0     H23490  10.999   4.504   9.825 -1.6034  1.5727  0.5708
  178MOL0     H23491  11.055   4.668   9.792 -1.2937  0.9380  0.3394
  178MOL0     H23492  11.184   4.405   9.683 -0.7514  0.8919 -2.7268
  178MOL0     H23493  11.248   4.568   9.660 -1.8038 -0.7314 -0.7050
  178MOL0     H23494  11.386   4.522  10.052 -1.5793 -0.5467  1.7590
  178MOL0     H23495  10.603   4.731   9.602  0.7813  0.4018 -0.7951
  178MOL0     H23496  10.362   4.726   9.561 -1.7241 -0.8264 -2.6051
  179MOL0     O23497   5.791   5.803   2.715 -0.6874  0.3310  0.8716
  179MOL0     C23498   5.809   5.918   2.687 -0.2774 -0.4482  0.1598
  179MOL0     O23499   5.729   6.023   2.711 -0.0893  0.1197  0.0267
  179MOL0     C23500   5.598   6.007   2.744 -0.1332 -0.6465  0.1025
  179MOL0     C23501   5.530   6.133   2.758 -1.2893 -0.3909 -0.4563
  179MOL0     C23502   5.400   6.145   2.788  0.9624  0.5897  0.0512
  179MOL0     C23503   5.316   6.033   2.800 -1.4436  0.8322 -0.2652
  179MOL0     O23504   5.184   6.048   2.823  0.0862 -0.1594  0.4487
  179MOL0     C23505   5.093   6.013   2.719  0.5373 -0.1006  0.1776
  179MOL0     C23506   5.080   6.127   2.621  0.4397  0.3287  0.1339
  179MOL0     C23507   5.185   6.130   2.512  0.3703  0.2298 -0.1709
  179MOL0     C23508   5.184   6.253   2.433  0.0249  0.0267  0.8666
  179MOL0     C23509   5.313   6.274   2.350  0.1626  0.1942 -0.3655
  179MOL0     C23510   5.446   6.316   2.418 -0.5114  0.4167 -0.4733
  179MOL0     C23511   5.422   6.434   2.510  0.1741  0.0855  0.3469
  179MOL0     C23512   5.559   6.486   2.547  0.2024 -0.4367 -0.3854
  179MOL0     N23513   5.556   6.613   2.614 -0.7499 -0.0272 -0.8568
  179MOL0     C23514   5.656   6.710   2.615 -0.0714 -0.3203  0.2026
  179MOL0     C23515   5.613   6.796   2.708  1.4413 -0.9705  0.3253
  179MOL0     C23516   5.686   6.920   2.755 -0.0280  0.0192  0.8319
  179MOL0     C23517   5.729   7.010   2.633 -0.2813 -0.2856  0.3073
  179MOL0     C23518   5.854   7.097   2.664 -0.4742 -0.0038 -0.5337
  179MOL0     C23519   5.995   7.029   2.642 -0.7487 -0.0845  0.0454
  179MOL0     O23520   5.986   6.985   2.508 -0.0814 -0.0050 -0.5739
  179MOL0     C23521   6.110   6.971   2.444  0.0918 -0.2645 -0.4126
  179MOL0     C23522   6.188   7.087   2.424  0.2432 -0.2254  0.0091
  179MOL0     C23523   6.302   7.075   2.342  0.3680  0.1396 -0.2191
  179MOL0     C23524   6.354   6.952   2.297 -0.1970  0.6103 -0.3105
  179MOL0     C23525   6.468   6.939   2.208 -0.0781 -0.2964 -0.2483
  179MOL0     O23526   6.514   7.058   2.162  0.2082 -0.1751  0.6638
  179MOL0     C23527   6.626   7.061   2.079  0.6013 -0.7544  0.0319
  179MOL0     C23528   6.729   6.960   2.072 -1.5853 -1.0909 -0.1282
  179MOL0     C23529   6.832   6.978   1.981 -0.1460  0.6669  0.0909
  179MOL0     C23530   6.844   7.090   1.890  0.3574 -0.1196 -0.5929
  179MOL0     O23531   6.948   7.119   1.802 -0.6159 -0.1403  0.3644
  179MOL0     C23532   7.039   7.016   1.777 -0.2737 -0.5086 -0.5455
  179MOL0     C23533   7.149   7.070   1.688 -0.0169  0.6735  0.0803
  179MOL0     C23534   7.264   6.972   1.681  0.3233 -1.0466  0.2714
  179MOL0     C23535   7.389   7.046   1.628  0.2788  0.2731  0.5917
  179MOL0     C23536   7.506   6.941   1.610  0.3389  0.1267  0.1290
  179MOL0     C23537   7.647   7.005   1.606 -0.4904 -1.3421 -0.4153
  179MOL0     C23538   7.677   7.049   1.463 -0.5019  0.3466  0.2698
  179MOL0     C23539   7.830   7.088   1.439 -0.5350  0.3417 -0.2285
  179MOL0    Cl23540   7.872   7.248   1.519  0.3175 -0.2109 -0.2616
  179MOL0     C23541   6.745   7.191   1.909 -0.5368  0.0325 -0.3213
  179MOL0     C23542   6.641   7.179   2.002  0.5840  0.9340 -0.4632
  179MOL0     O23543   6.513   6.827   2.186  0.9394  0.6991 -0.2893
  179MOL0     C23544   6.275   6.836   2.314 -0.1431 -0.0621  0.4983
  179MOL0     C23545   6.148   6.854   2.378  0.3382  0.1865 -0.1180
  179MOL0     N23546   5.494   6.747   2.769  0.0457 -0.6654 -0.2581
  179MOL0     N23547   5.464   6.632   2.711  0.1367 -0.7912  0.6752
  179MOL0     C23548   5.373   5.910   2.753  0.2326  1.0088 -0.7807
  179MOL0     C23549   5.517   5.889   2.741 -0.5129 -0.4333  0.4558
  179MOL0     C23550   5.944   5.952   2.636  0.9261 -0.0065 -0.1051
  179MOL0     C23551   6.038   5.856   2.598 -0.8993 -0.9885  0.0562
  179MOL0     C23552   6.151   5.892   2.519  0.4744  0.1424  0.4586
  179MOL0     C23553   6.190   6.020   2.498  0.1730  0.0356  0.4127
  179MOL0     O23554   6.303   6.058   2.438 -0.4384 -0.3459 -0.0764
  179MOL0     C23555   6.424   5.978   2.435 -0.0431 -0.0899 -0.1330
  179MOL0     C23556   6.545   6.077   2.432  0.2959  0.9493  0.1855
  179MOL0     C23557   6.672   6.007   2.412  0.3009  0.9986  0.5628
  179MOL0     C23558   6.779   6.100   2.370 -0.8170 -0.5003 -0.1097
  179MOL0     C23559   6.786   6.227   2.445  0.5384 -0.1164  0.6834
  179MOL0     C23560   6.783   6.322   2.530  0.2657  0.5579  0.1160
  179MOL0     C23561   6.112   6.118   2.554  0.8969 -0.0092 -0.8870
  179MOL0     C23562   5.981   6.093   2.624 -0.0536 -0.4342  1.0643
  179MOL0     H23563   5.588   6.224   2.756 -0.6786 -0.6123  2.5933
  179MOL0     H23564   5.351   6.242   2.790 -0.5890 -0.1497 -0.8974
  179MOL0     H23565   4.992   6.007   2.759 -0.9186  3.4340 -2.4533
  179MOL0     H23566   5.123   5.925   2.661 -1.8994 -2.5104  2.3120
  179MOL0     H23567   5.081   6.224   2.672  0.7927  1.4597 -1.9395
  179MOL0     H23568   4.981   6.130   2.575  1.4993 -1.0179 -2.3966
  179MOL0     H23569   5.167   6.041   2.452  0.2524 -0.1383  0.4100
  179MOL0     H23570   5.287   6.119   2.550  2.4261 -1.8226 -5.3102
  179MOL0     H23571   5.102   6.257   2.360 -1.0058 -0.2381  1.9788
  179MOL0     H23572   5.166   6.337   2.501 -3.0370  0.6026 -0.5094
  179MOL0     H23573   5.298   6.359   2.283  0.2474 -1.0791 -2.0600
  179MOL0     H23574   5.332   6.184   2.291  1.1333  1.1426 -1.5793
  179MOL0     H23575   5.515   6.349   2.340  0.3980  0.9483  0.5414
  179MOL0     H23576   5.489   6.237   2.479 -3.9060  0.8284  2.8119
  179MOL0     H23577   5.369   6.520   2.467  0.1984 -1.4880 -3.1252
  179MOL0     H23578   5.381   6.397   2.604 -0.3198  0.0748  0.1274
  179MOL0     H23579   5.617   6.503   2.455  4.1715  1.6795  2.1923
  179MOL0     H23580   5.608   6.416   2.616  0.5347 -1.8975 -2.0386
  179MOL0     H23581   5.738   6.722   2.544 -0.5622 -1.4120 -0.5730
  179MOL0     H23582   5.773   6.888   2.813 -0.8566 -2.7198  0.6764
  179MOL0     H23583   5.613   6.978   2.812 -2.0597 -1.2511 -0.3808
  179MOL0     H23584   5.647   7.077   2.606 -0.3433 -0.3281  0.3924
  179MOL0     H23585   5.737   6.953   2.540  1.2749  0.0760  0.1999
  179MOL0     H23586   5.848   7.180   2.592  0.2634  0.7751  0.2840
  179MOL0     H23587   5.842   7.145   2.761 -1.9008  0.3796 -0.8757
  179MOL0     H23588   5.999   6.947   2.714  1.0479 -0.7547 -0.7782
  179MOL0     H23589   6.070   7.104   2.668  0.9833 -1.9331  0.5465
  179MOL0     H23590   6.155   7.184   2.458  0.7122 -1.4079  4.4209
  179MOL0     H23591   6.366   7.161   2.326  0.7006  0.1848  1.1793
  179MOL0     H23592   6.765   6.894   2.151  1.3942  1.2593  0.6612
  179MOL0     H23593   6.920   6.914   1.979 -0.8901 -0.3893  0.5553
  179MOL0     H23594   6.988   6.928   1.736 -0.7001  0.3906 -2.0459
  179MOL0     H23595   7.081   6.981   1.871  0.4444 -1.1537 -1.0950
  179MOL0     H23596   7.180   7.170   1.719  0.4512 -0.0994  2.2206
  179MOL0     H23597   7.115   7.077   1.584  0.8767 -1.0212 -0.3554
  179MOL0     H23598   7.243   6.887   1.616  1.2875 -1.5789  0.6331
  179MOL0     H23599   7.285   6.932   1.781 -0.3417 -2.1675 -0.0194
  179MOL0     H23600   7.376   7.099   1.534 -0.1075  0.8577  0.9691
  179MOL0     H23601   7.410   7.120   1.706  1.6628  1.2202 -0.6319
  179MOL0     H23602   7.493   6.887   1.515 -0.1967  0.9262 -0.2710
  179MOL0     H23603   7.506   6.865   1.688  4.0530  2.0474  2.2279
  179MOL0     H23604   7.711   6.919   1.630 -0.8052 -1.1762  1.1106
  179MOL0     H23605   7.661   7.087   1.676 -1.4675 -1.6419  0.1515
  179MOL0     H23606   7.646   6.973   1.391 -1.8756  0.3688  0.8101
  179MOL0     H23607   7.619   7.140   1.445  1.6422  2.4009  2.8585
  179MOL0     H23608   7.850   7.089   1.331  2.2368  3.3817  0.1436
  179MOL0     H23609   7.888   7.010   1.488  0.9049  2.8880  2.4422
  179MOL0     H23610   6.753   7.286   1.855  1.0257  0.1769  0.1105
  179MOL0     H23611   6.566   7.257   2.005 -1.6935 -1.1262 -0.3886
  179MOL0     H23612   6.296   6.739   2.271 -3.2857 -0.9670  0.7657
  179MOL0     H23613   6.080   6.771   2.386 -1.2798  1.4836  0.1192
  179MOL0     H23614   5.302   5.830   2.736  0.0896  0.5280  1.7028
  179MOL0     H23615   5.550   5.789   2.716 -2.2633 -0.7282 -0.8597
  179MOL0     H23616   6.021   5.751   2.616  2.4730 -1.4936  0.9651
  179MOL0     H23617   6.219   5.815   2.484 -0.3385 -0.8675  1.0537
  179MOL0     H23618   6.429   5.909   2.351  1.1218 -0.5135  0.2738
  179MOL0     H23619   6.435   5.924   2.529  0.0827 -3.3131 -1.8808
  179MOL0     H23620   6.537   6.140   2.343 -0.0847  0.2752 -0.2667
  179MOL0     H23621   6.549   6.137   2.524 -1.6540  1.7486 -0.1975
  179MOL0     H23622   6.665   5.933   2.332 -0.0778  2.8428 -1.1853
  179MOL0     H23623   6.698   5.960   2.508 -1.3244  0.0940  0.5973
  179MOL0     H23624   6.877   6.052   2.363 -1.8905 -2.9559  0.4386
  179MOL0     H23625   6.767   6.136   2.268  0.3898  0.7796  0.1748
  179MOL0     H23626   6.794   6.402   2.600  2.1932  1.6709 -1.3530
  179MOL0     H23627   6.136   6.222   2.535 -0.8409  0.3364 -1.4427
  179MOL0     H23628   5.920   6.180   2.647 -2.9432 -1.0308 -3.2221
  180MOL0     O23629   1.957  10.291   3.482  0.1696 -0.1664  0.1572
  180MOL0     C23630   2.012  10.222   3.567  0.0571  0.2717  0.3808
  180MOL0     O23631   1.966  10.207   3.693  0.3630 -0.0740 -0.2144
  180MOL0     C23632   1.838  10.228   3.731  0.8343  0.4581 -0.3277
  180MOL0     C23633   1.815  10.196   3.863  0.0460 -0.4527  1.0143
  180MOL0     C23634   1.686  10.212   3.916 -0.4568 -0.2429  0.5895
  180MOL0     C23635   1.573  10.259   3.844 -0.1470 -0.4851 -0.0805
  180MOL0     O23636   1.444  10.274   3.885 -0.0364  0.5803  0.1796
  180MOL0     C23637   1.424  10.342   4.012 -0.2867  0.0491 -0.0858
  180MOL0     C23638   1.388  10.250   4.128 -0.0237  0.8519 -0.6097
  180MOL0     C23639   1.250  10.177   4.126 -0.8780 -0.1681 -0.0494
  180MOL0     C23640   1.128  10.259   4.064 -0.8496 -0.0012  0.0556
  180MOL0     C23641   1.077  10.381   4.148 -0.1033  0.0664  0.3107
  180MOL0     C23642   1.018  10.339   4.286 -0.0857 -0.0688 -0.8695
  180MOL0     C23643   0.946  10.453   4.354 -0.8145 -0.2279 -0.1319
  180MOL0     C23644   0.810  10.479   4.292  0.1766  0.1379  0.0689
  180MOL0     N23645   0.708  10.375   4.334 -0.0087  0.5670  0.4666
  180MOL0     C23646   0.602  10.397   4.420 -0.2568 -0.3963  0.1314
  180MOL0     C23647   0.518  10.293   4.402  0.4327 -0.3109  0.6639
  180MOL0     C23648   0.404  10.265   4.497 -0.6598  0.0573  0.1439
  180MOL0     C23649   0.347  10.133   4.484  0.8814 -0.3037  0.0258
  180MOL0     C23650   0.240  10.106   4.595 -0.0516 -0.7711 -0.5917
  180MOL0     C23651   0.229   9.964   4.640  0.5156  0.7749  1.6144
  180MOL0     O23652   0.127   9.948   4.733 -0.3154 -0.2920  0.2515
  180MOL0     C23653   0.059   9.828   4.743 -0.3539 -0.1879 -0.6817
  180MOL0     C23654   0.104   9.706   4.695 -0.2615  0.7372  0.3060
  180MOL0     C23655   0.025   9.591   4.719  0.4913  0.0497 -0.2868
  180MOL0     C23656  -0.093   9.595   4.796  0.2635 -0.2329  0.2497
  180MOL0     C23657  -0.176   9.478   4.825 -0.4155 -1.0164 -0.2790
  180MOL0     O23658  -0.282   9.494   4.913 -0.7204  0.2591  0.3130
  180MOL0     C23659  -0.363   9.389   4.948  0.6763 -0.4335 -0.1974
  180MOL0     C23660  -0.498   9.412   4.954 -0.5091 -0.1180  0.4746
  180MOL0     C23661  -0.590   9.312   4.998 -0.1323  0.1924  0.2711
  180MOL0     C23662  -0.541   9.175   5.027  0.1068  0.6267 -0.7361
  180MOL0     O23663  -0.640   9.079   5.054 -0.3725  0.0233  0.0476
  180MOL0     C23664  -0.732   9.112   5.161 -0.0224 -0.4006 -0.4361
  180MOL0     C23665  -0.741   8.986   5.254  0.8246 -0.6141 -0.8797
  180MOL0     C23666  -0.805   9.026   5.385  0.4695  0.2679  0.1351
  180MOL0     C23667  -0.960   9.034   5.379  0.0491  0.4332  1.0322
  180MOL0     C23668  -1.030   8.974   5.516  0.4729 -0.3460  0.1217
  180MOL0     C23669  -1.186   8.954   5.494 -0.1546  0.2624  0.3671
  180MOL0     C23670  -1.253   9.092   5.515 -0.5199  0.5535 -0.3877
  180MOL0     C23671  -1.399   9.094   5.462  0.0764  0.1691 -0.0289
  180MOL0    Cl23672  -1.496   8.967   5.532 -0.0489  0.4290 -0.1735
  180MOL0     C23673  -0.398   9.156   5.009  0.9702  0.2677 -0.1182
  180MOL0     C23674  -0.309   9.267   4.973  0.3311  1.6153  0.2717
  180MOL0     O23675  -0.148   9.373   4.767  0.0502 -0.3870 -0.1401
  180MOL0     C23676  -0.137   9.717   4.840 -0.8401  0.2271  0.3737
  180MOL0     C23677  -0.063   9.839   4.810 -0.7737  0.3856 -0.5441
  180MOL0     N23678   0.561  10.212   4.293  0.8769  0.4337 -0.2817
  180MOL0     N23679   0.672  10.271   4.251 -0.4213 -0.5506 -0.2324
  180MOL0     C23680   1.595  10.268   3.703  0.7530 -0.4683  0.4900
  180MOL0     C23681   1.722  10.259   3.651  1.1463 -0.5705  0.1451
  180MOL0     C23682   2.135  10.148   3.529  0.6107 -0.0538 -0.2522
  180MOL0     C23683   2.208  10.076   3.632 -0.2593 -0.0691  0.3459
  180MOL0     C23684   2.317   9.996   3.602 -0.4254 -0.0176 -0.3582
  180MOL0     C23685   2.362   9.996   3.465 -0.1496  0.3176 -0.3114
  180MOL0     O23686   2.467   9.920   3.432 -0.3370  0.1586  0.1068
  180MOL0     C23687   2.601   9.939   3.482 -0.3113 -0.4233  0.4281
  180MOL0     C23688   2.687   9.991   3.369  0.1131 -0.2517 -1.0783
  180MOL0     C23689   2.832   9.998   3.415 -0.2984  0.2412  0.7906
  180MOL0     C23690   2.929  10.045   3.308  0.0558 -0.3187  0.0341
  180MOL0     C23691   2.919   9.992   3.173  0.0567 -0.0580  0.0841
  180MOL0     C23692   2.900   9.958   3.058  0.1390  0.9461  0.1237
  180MOL0     C23693   2.297  10.069   3.363  0.0529  0.4117 -0.6304
  180MOL0     C23694   2.182  10.143   3.394 -0.5217 -0.1916 -0.3314
  180MOL0     H23695   1.894  10.165   3.931 -0.1682 -3.4605  0.0185
  180MOL0     H23696   1.666  10.186   4.019 -3.8954 -1.4773 -0.2650
  180MOL0     H23697   1.336  10.407   4.004  0.9131  2.0246  1.6223
  180MOL0     H23698   1.508  10.410   4.029 -1.6911  2.1485 -1.0156
  180MOL0     H23699   1.387  10.315   4.216  1.6248 -0.7425  0.6599
  180MOL0     H23700   1.472  10.187   4.159  0.2705  2.4866  2.3204
  180MOL0     H23701   1.238  10.136   4.227  2.3782 -0.9290  0.1558
  180MOL0     H23702   1.256  10.095   4.055  2.5362  1.0976 -1.4283
  180MOL0     H23703   1.148  10.277   3.958  1.1099 -1.4237  0.1263
  180MOL0     H23704   1.043  10.189   4.067 -0.6269 -0.2722  0.1194
  180MOL0     H23705   1.001  10.442   4.099  2.7452  2.3027 -1.7243
  180MOL0     H23706   1.149  10.464   4.145 -1.9376  1.7110 -2.5469
  180MOL0     H23707   1.091  10.313   4.362  0.7661  1.7166 -1.0437
  180MOL0     H23708   0.954  10.251   4.269 -4.3384  2.5892 -0.2122
  180MOL0     H23709   0.932  10.429   4.460 -1.8092 -1.3419 -0.4921
  180MOL0     H23710   1.008  10.542   4.340 -3.1079  1.5840  0.7256
  180MOL0     H23711   0.814  10.465   4.183 -2.7524  1.5827 -0.3343
  180MOL0     H23712   0.763  10.576   4.311 -2.1248 -0.9270  0.1107
  180MOL0     H23713   0.590  10.475   4.494  1.8406  0.5362 -0.4379
  180MOL0     H23714   0.329  10.341   4.473  0.3022  0.1413 -3.1292
  180MOL0     H23715   0.428  10.280   4.602 -0.5751  0.8336  0.0202
  180MOL0     H23716   0.433  10.065   4.496  2.1985  1.0621 -1.2031
  180MOL0     H23717   0.303  10.111   4.387 -2.1949 -3.7500  1.9487
  180MOL0     H23718   0.265  10.172   4.678 -0.4195  0.6517 -1.5817
  180MOL0     H23719   0.146  10.151   4.564  0.0498  1.0296  1.4590
  180MOL0     H23720   0.324   9.926   4.678 -0.2208 -0.6537  2.1134
  180MOL0     H23721   0.196   9.906   4.554  0.8077  0.4505  1.7224
  180MOL0     H23722   0.205   9.692   4.659  1.6152 -0.0906  5.0822
  180MOL0     H23723   0.056   9.499   4.672  1.7578  0.1744  0.2596
  180MOL0     H23724  -0.535   9.509   4.921  1.5836  1.5791  2.7643
  180MOL0     H23725  -0.696   9.339   4.998  0.2736  1.9094  0.2037
  180MOL0     H23726  -0.829   9.127   5.112  0.2214  1.0455 -0.5187
  180MOL0     H23727  -0.692   9.194   5.222  1.6617 -0.5626 -1.2693
  180MOL0     H23728  -0.637   8.961   5.279 -0.0884 -2.3062  1.5758
  180MOL0     H23729  -0.797   8.898   5.222 -1.7539 -0.5040  2.7290
  180MOL0     H23730  -0.772   9.114   5.441 -0.7805 -0.9778  3.0423
  180MOL0     H23731  -0.779   8.940   5.447  3.2256  1.7953  1.2666
  180MOL0     H23732  -0.986   9.140   5.364  2.7498  1.5469  3.1770
  180MOL0     H23733  -0.998   8.979   5.292  0.4934  0.8045  0.5930
  180MOL0     H23734  -1.012   9.031   5.608  0.1646 -2.2796  1.4251
  180MOL0     H23735  -0.987   8.874   5.525  1.3177 -0.0036  0.0487
  180MOL0     H23736  -1.207   8.877   5.570  2.1193 -0.9737 -0.1607
  180MOL0     H23737  -1.217   8.913   5.398  0.9289 -0.6648  0.4006
  180MOL0     H23738  -1.254   9.121   5.620 -0.5191  0.6835 -0.4231
  180MOL0     H23739  -1.198   9.171   5.463  2.2055 -0.3558  0.8901
  180MOL0     H23740  -1.384   9.088   5.353 -1.8372  0.5466 -0.3424
  180MOL0     H23741  -1.451   9.184   5.496  0.1052 -1.4323  4.9436
  180MOL0     H23742  -0.365   9.059   5.044 -2.0937 -0.7850  0.1091
  180MOL0     H23743  -0.202   9.250   4.971  0.4422  1.9335  2.1304
  180MOL0     H23744  -0.225   9.740   4.899 -0.4369 -2.8679  2.4079
  180MOL0     H23745  -0.095   9.940   4.833 -1.2021 -0.0482  0.8620
  180MOL0     H23746   1.510  10.299   3.643  1.1438 -1.0446 -0.3905
  180MOL0     H23747   1.726  10.256   3.542 -0.6117 -1.1806  0.0630
  180MOL0     H23748   2.170  10.073   3.734 -0.9455 -2.2884  0.0682
  180MOL0     H23749   2.364   9.952   3.690 -0.4335  2.2424  0.8592
  180MOL0     H23750   2.645   9.846   3.517  1.5472 -0.0494 -0.7689
  180MOL0     H23751   2.607  10.007   3.568  0.0864  2.2944 -1.6176
  180MOL0     H23752   2.677   9.925   3.282  1.4298 -0.7685 -0.8530
  180MOL0     H23753   2.662  10.094   3.341 -1.4314  0.0611  1.2007
  180MOL0     H23754   2.868   9.899   3.445  0.9304 -0.8242 -3.5232
  180MOL0     H23755   2.851  10.074   3.492 -0.9119 -0.1023  1.2903
  180MOL0     H23756   2.910  10.152   3.301 -0.0691 -0.3196  0.3629
  180MOL0     H23757   3.031  10.023   3.343  0.6687  0.0933 -1.4351
  180MOL0     H23758   2.871   9.926   2.960  1.6337  1.4998 -0.5443
  180MOL0     H23759   2.339  10.071   3.263  2.7761 -0.5679  0.3764
  180MOL0     H23760   2.123  10.198   3.322 -3.1900 -1.8728  0.4096
  181MOL0     O23761   7.142  10.931  10.765  0.0022  0.3651 -0.0314
  181MOL0     C23762   7.194  10.853  10.848  0.6401  0.3787  0.9080
  181MOL0     O23763   7.121  10.778  10.940  0.9025  0.3126 -0.3867
  181MOL0     C23764   6.986  10.795  10.963  0.3489  0.1746  0.5697
  181MOL0     C23765   6.905  10.910  10.924  0.0521 -0.1436  0.4946
  181MOL0     C23766   6.766  10.903  10.969 -0.4015 -1.0779 -1.0718
  181MOL0     C23767   6.711  10.798  11.047 -0.2041  0.0256  1.0893
  181MOL0     O23768   6.584  10.802  11.098 -0.3281 -0.5174 -0.0666
  181MOL0     C23769   6.523  10.677  11.140  0.1537 -0.9238  0.0321
  181MOL0     C23770   6.374  10.690  11.157 -0.5286  0.0635 -0.5506
  181MOL0     C23771   6.301  10.691  11.030  0.6299 -0.0706  0.5993
  181MOL0     C23772   6.152  10.720  11.060 -0.9738 -0.1591 -0.5487
  181MOL0     C23773   6.060  10.717  10.944 -0.4600 -0.4360 -0.2224
  181MOL0     C23774   5.919  10.756  10.981 -0.0355 -0.1395 -0.2035
  181MOL0     C23775   5.853  10.652  11.066 -0.1145  0.3820  0.0395
  181MOL0     C23776   5.703  10.681  11.069 -0.5553 -0.1265  0.3283
  181MOL0     N23777   5.625  10.624  11.177 -0.5873  0.1433  0.0804
  181MOL0     C23778   5.612  10.677  11.301 -0.3163 -0.0679  0.6211
  181MOL0     C23779   5.511  10.607  11.353  0.4656  0.2311 -0.0615
  181MOL0     C23780   5.439  10.634  11.480 -0.2949 -0.0714 -0.0531
  181MOL0     C23781   5.356  10.522  11.547  0.3654  0.4707 -0.0016
  181MOL0     C23782   5.287  10.580  11.668 -0.7463  0.1637 -0.0870
  181MOL0     C23783   5.233  10.466  11.755 -0.5443  0.0309  1.2028
  181MOL0     O23784   5.155  10.520  11.864 -0.5114  0.2427  0.2109
  181MOL0     C23785   5.025  10.559  11.843  0.1082 -0.0674 -0.1675
  181MOL0     C23786   4.941  10.598  11.955 -0.1463 -0.6495  0.3063
  181MOL0     C23787   4.813  10.639  11.937  0.1748 -0.2308  0.9065
  181MOL0     C23788   4.747  10.648  11.803 -0.2435 -0.3108 -0.5765
  181MOL0     C23789   4.605  10.669  11.792  0.0999 -0.7253  0.3204
  181MOL0     O23790   4.541  10.610  11.685  0.1674  0.0135 -0.6897
  181MOL0     C23791   4.419  10.553  11.687  0.4060  0.1015 -0.4938
  181MOL0     C23792   4.366  10.511  11.558  0.0931  1.0345  0.1056
  181MOL0     C23793   4.257  10.430  11.551  0.5151 -0.6488 -0.5639
  181MOL0     C23794   4.182  10.394  11.671  0.3660  0.4798  0.4557
  181MOL0     O23795   4.084  10.303  11.648 -0.0896 -0.3954  0.0079
  181MOL0     C23796   4.008  10.248  11.762 -0.6690  0.0357 -0.2594
  181MOL0     C23797   3.876  10.201  11.720  0.2028 -0.4319  0.8516
  181MOL0     C23798   3.884  10.104  11.597 -0.1919  0.2414  0.1618
  181MOL0     C23799   3.751  10.031  11.608 -0.6414  0.5736 -0.0165
  181MOL0     C23800   3.748   9.896  11.529  0.1810 -0.2351 -1.0933
  181MOL0     C23801   3.784   9.906  11.382 -0.1083 -0.0872  0.0293
  181MOL0     C23802   3.775   9.773  11.305 -0.1322  0.6708  0.4485
  181MOL0     C23803   3.799   9.769  11.153 -0.6347 -1.2252 -0.1702
  181MOL0    Cl23804   3.665   9.837  11.075 -0.2100 -0.0459  0.1579
  181MOL0     C23805   4.226  10.449  11.790  0.0859  0.0676 -0.7453
  181MOL0     C23806   4.336  10.534  11.804 -1.0252 -0.1061  0.6226
  181MOL0     O23807   4.548  10.745  11.873  0.6567  0.2114 -0.6111
  181MOL0     C23808   4.825  10.602  11.703 -0.9373 -0.4198  0.6692
  181MOL0     C23809   4.959  10.560  11.723  0.5430 -0.6157  0.5255
  181MOL0     N23810   5.463  10.512  11.256 -0.1415  0.0391 -0.6831
  181MOL0     N23811   5.546  10.519  11.155  0.5944 -0.3666 -0.3719
  181MOL0     C23812   6.790  10.686  11.057  0.4198  0.3366  0.7151
  181MOL0     C23813   6.927  10.682  11.027 -0.0623 -0.5557 -0.1734
  181MOL0     C23814   7.341  10.850  10.864 -0.2245  0.5729 -0.5574
  181MOL0     C23815   7.401  10.738  10.923 -0.3414  0.4209  0.2193
  181MOL0     C23816   7.535  10.745  10.954 -0.3870  0.0020  0.7046
  181MOL0     C23817   7.624  10.847  10.909  0.4420 -0.4775 -0.6655
  181MOL0     O23818   7.763  10.828  10.935  0.9116 -0.3203  0.0881
  181MOL0     C23819   7.854  10.937  10.896  0.7486 -1.1380 -0.1541
  181MOL0     C23820   7.993  10.885  10.890 -0.3202  0.0181 -0.5719
  181MOL0     C23821   8.085  10.974  10.802  1.2827  0.2846 -0.2441
  181MOL0     C23822   8.228  10.901  10.769  1.0944 -0.1603 -0.1350
  181MOL0     C23823   8.296  10.915  10.889  0.7982  0.0125 -0.6050
  181MOL0     C23824   8.367  10.945  10.981 -0.2961  0.5708  0.0773
  181MOL0     C23825   7.566  10.946  10.834  0.1558  0.0773 -0.3863
  181MOL0     C23826   7.427  10.948  10.814 -0.1393  0.4929 -0.9354
  181MOL0     H23827   6.942  10.992  10.864 -0.0713 -1.1979 -1.0982
  181MOL0     H23828   6.704  10.991  10.954  1.4677  0.1750 -1.7964
  181MOL0     H23829   6.571  10.659  11.237 -1.0476 -1.4451  0.5527
  181MOL0     H23830   6.543  10.593  11.072 -0.9170  1.0717 -2.9412
  181MOL0     H23831   6.368  10.775  11.226 -1.7578 -1.5911  1.4848
  181MOL0     H23832   6.332  10.606  11.213  0.8396  0.2479  0.8362
  181MOL0     H23833   6.310  10.603  10.966 -2.5968  0.7056 -1.1464
  181MOL0     H23834   6.337  10.768  10.962 -3.4872  1.8895  0.3191
  181MOL0     H23835   6.120  10.642  11.130 -2.6777 -1.5217 -2.7290
  181MOL0     H23836   6.148  10.814  11.115 -1.8193 -1.8215  2.4762
  181MOL0     H23837   6.063  10.614  10.907 -0.6832 -0.7394  0.5750
  181MOL0     H23838   6.093  10.797  10.877 -0.2271 -2.9771 -3.3770
  181MOL0     H23839   5.858  10.764  10.891 -1.4002 -3.8525  0.1709
  181MOL0     H23840   5.927  10.849  11.038  0.2703  1.0649 -2.1345
  181MOL0     H23841   5.870  10.551  11.028 -0.1833  1.2711 -2.5112
  181MOL0     H23842   5.906  10.658  11.162  0.5936 -1.1251 -0.2284
  181MOL0     H23843   5.656  10.648  10.976  1.0969 -2.9205  0.3678
  181MOL0     H23844   5.692  10.790  11.072  0.9168  0.0520 -0.0946
  181MOL0     H23845   5.661  10.767  11.338 -0.2574 -0.4911  1.6116
  181MOL0     H23846   5.371  10.719  11.470 -0.7831 -0.3768  0.5161
  181MOL0     H23847   5.522  10.660  11.547 -1.1209  0.6490  0.7201
  181MOL0     H23848   5.419  10.435  11.567 -2.4322 -1.7703 -0.2306
  181MOL0     H23849   5.279  10.485  11.479  1.1657 -1.1044 -0.1066
  181MOL0     H23850   5.361  10.643  11.719 -1.1307  0.0973  0.5604
  181MOL0     H23851   5.206  10.650  11.643  0.8192  2.6972  1.4484
  181MOL0     H23852   5.322  10.409  11.783  0.7283  0.0660 -2.2407
  181MOL0     H23853   5.170  10.407  11.688 -0.0987  1.9463 -1.0553
  181MOL0     H23854   4.984  10.588  12.054  2.1215  2.0459 -0.2721
  181MOL0     H23855   4.751  10.670  12.020 -0.4581 -1.9367  1.1226
  181MOL0     H23856   4.423  10.531  11.468 -0.3388  2.1117  0.0572
  181MOL0     H23857   4.218  10.396  11.456  1.5735 -0.7963 -0.9583
  181MOL0     H23858   4.010  10.322  11.844 -0.6008 -0.9304  0.6317
  181MOL0     H23859   4.060  10.162  11.803  0.1281  0.6923  0.1368
  181MOL0     H23860   3.812  10.286  11.696  0.6568 -0.5574 -0.9441
  181MOL0     H23861   3.830  10.156  11.809 -1.8520  0.7328  0.4257
  181MOL0     H23862   3.975  10.043  11.602  0.5871  1.2011 -1.4170
  181MOL0     H23863   3.880  10.149  11.497  0.2199 -1.0726 -0.4685
  181MOL0     H23864   3.731  10.012  11.714  0.9967  2.1765  0.6331
  181MOL0     H23865   3.676  10.095  11.561 -0.3209  0.3235 -0.8909
  181MOL0     H23866   3.652   9.843  11.529  1.3935 -2.7119 -4.2637
  181MOL0     H23867   3.812   9.834  11.593 -0.1042  0.9923  0.4763
  181MOL0     H23868   3.879   9.957  11.363 -1.3423  1.6566 -1.9556
  181MOL0     H23869   3.718   9.981  11.336  0.5016 -0.3872 -1.3963
  181MOL0     H23870   3.846   9.704  11.351 -1.7258 -2.2334 -1.1324
  181MOL0     H23871   3.674   9.735  11.324 -1.3056  2.6981 -1.2822
  181MOL0     H23872   3.819   9.671  11.110 -0.9665 -1.0336 -0.7730
  181MOL0     H23873   3.885   9.834  11.132 -1.0915 -1.6556 -4.0023
  181MOL0     H23874   4.177  10.431  11.885  1.3356  0.4025 -0.0263
  181MOL0     H23875   4.369  10.574  11.899 -1.8444  1.6896  0.1906
  181MOL0     H23876   4.781  10.615  11.605 -0.8841 -1.8354  0.4362
  181MOL0     H23877   5.020  10.546  11.634  0.7511  3.8320 -0.2289
  181MOL0     H23878   6.766  10.584  11.085 -0.4096 -0.1094 -1.4442
  181MOL0     H23879   6.983  10.597  11.065 -0.1441 -0.0128  1.2384
  181MOL0     H23880   7.341  10.657  10.964  1.4006 -0.3198  1.4362
  181MOL0     H23881   7.573  10.667  11.020  0.7842 -1.0420 -1.1075
  181MOL0     H23882   7.845  11.010  10.977  0.4775 -1.2001 -0.1285
  181MOL0     H23883   7.826  10.977  10.798 -1.5620  0.2710  0.9934
  181MOL0     H23884   8.041  10.874  10.988 -0.5617  0.9328 -0.3346
  181MOL0     H23885   7.991  10.787  10.843 -1.3305 -1.0703  1.6176
  181MOL0     H23886   8.106  11.058  10.869 -0.6979 -1.9134  3.4495
  181MOL0     H23887   8.037  10.997  10.707 -1.5094  1.6535  1.3799
  181MOL0     H23888   8.216  10.800  10.728  1.6590  0.0121 -0.7563
  181MOL0     H23889   8.281  10.960  10.693 -2.1391  1.6199 -1.2146
  181MOL0     H23890   8.450  10.954  11.048  1.6080  1.7321 -2.2717
  181MOL0     H23891   7.624  11.028  10.792 -0.6611  0.2746 -1.1432
  181MOL0     H23892   7.375  11.032  10.768 -0.7774 -0.0990 -1.3083
  182MOL0     O23893  10.345   9.331   6.663 -0.2045  0.3229  0.2777
  182MOL0     C23894  10.373   9.430   6.602  0.6740  0.2516 -0.5966
  182MOL0     O23895  10.285   9.536   6.576 -0.3533  0.4481  0.3048
  182MOL0     C23896  10.158   9.514   6.620  0.5978 -0.0162  0.6352
  182MOL0     C23897  10.098   9.589   6.725  0.8436 -0.3983  1.0264
  182MOL0     C23898   9.965   9.576   6.764 -0.1910  0.2719  0.9580
  182MOL0     C23899   9.891   9.481   6.689  0.4401 -0.1461 -0.3880
  182MOL0     O23900   9.758   9.477   6.709  0.6613 -0.0453  0.3330
  182MOL0     C23901   9.730   9.431   6.842 -0.2749  0.3784 -0.1196
  182MOL0     C23902   9.581   9.442   6.856  0.1535 -0.4816  0.3048
  182MOL0     C23903   9.529   9.426   7.000  0.6389 -0.2164  0.3657
  182MOL0     C23904   9.374   9.465   6.998  0.4715  0.7881  0.7574
  182MOL0     C23905   9.327   9.483   7.141 -0.9381 -0.1696 -0.1275
  182MOL0     C23906   9.182   9.533   7.137 -0.3979 -0.1507  0.5265
  182MOL0     C23907   9.136   9.595   7.265  0.1119  0.5322  0.0348
  182MOL0     C23908   9.125   9.500   7.383 -0.4820 -0.1407  0.8305
  182MOL0     N23909   9.098   9.568   7.512 -0.0833  0.3479 -0.4371
  182MOL0     C23910   8.973   9.569   7.571 -0.4156 -0.4257  0.7705
  182MOL0     C23911   8.992   9.639   7.685 -0.7918 -0.1139  0.2980
  182MOL0     C23912   8.904   9.670   7.809 -0.5132  0.2082 -0.8732
  182MOL0     C23913   8.755   9.647   7.782 -0.5092 -0.3967 -0.4088
  182MOL0     C23914   8.709   9.495   7.777 -0.2372 -0.1214  0.0356
  182MOL0     C23915   8.572   9.483   7.838 -0.7681  0.0705  0.2383
  182MOL0     O23916   8.560   9.369   7.921 -0.0227  0.4117 -0.3916
  182MOL0     C23917   8.432   9.318   7.947  0.5366  0.1557  0.4870
  182MOL0     C23918   8.426   9.204   8.022 -0.1323  0.3549  0.5743
  182MOL0     C23919   8.301   9.148   8.050  0.2284 -0.5457 -0.0052
  182MOL0     C23920   8.181   9.211   8.007  0.3059  1.0903 -0.8313
  182MOL0     C23921   8.054   9.154   8.047  0.2479  0.8006 -0.8906
  182MOL0     O23922   8.057   9.049   8.139  0.2847  0.1908 -1.0853
  182MOL0     C23923   7.942   8.985   8.186  0.2256 -0.2368 -0.2278
  182MOL0     C23924   7.825   9.046   8.224 -0.1247 -0.6592 -1.0446
  182MOL0     C23925   7.715   8.985   8.281  0.5007 -0.2134 -0.7176
  182MOL0     C23926   7.718   8.853   8.307  0.7117 -0.2412  0.0870
  182MOL0     O23927   7.616   8.799   8.377 -0.6008  0.2245 -0.4829
  182MOL0     C23928   7.637   8.666   8.424  0.0314 -0.3479  1.0366
  182MOL0     C23929   7.529   8.614   8.512  0.5223  0.5901  0.1671
  182MOL0     C23930   7.406   8.567   8.425 -0.3717 -0.7799  0.8377
  182MOL0     C23931   7.274   8.544   8.509 -0.0160 -0.1397 -0.2487
  182MOL0     C23932   7.156   8.519   8.411 -0.7276  0.0834 -0.7003
  182MOL0     C23933   7.024   8.474   8.486 -0.2947  0.1523 -0.5122
  182MOL0     C23934   6.902   8.484   8.395 -0.2966 -0.2686  0.0991
  182MOL0     C23935   6.782   8.422   8.469  0.2135 -0.0489  0.5313
  182MOL0    Cl23936   6.628   8.455   8.373 -0.1685 -0.0427  0.0950
  182MOL0     C23937   7.827   8.779   8.235 -0.1709  0.3374  0.5982
  182MOL0     C23938   7.932   8.850   8.179 -1.0456  0.4691  0.4387
  182MOL0     O23939   7.948   9.204   8.006 -0.4279 -0.1711 -0.2993
  182MOL0     C23940   8.185   9.340   7.946  0.3484  0.0499 -0.2978
  182MOL0     C23941   8.306   9.387   7.915 -0.0070  0.3289  0.4252
  182MOL0     N23942   9.126   9.674   7.687 -1.1096 -0.5844 -0.1210
  182MOL0     N23943   9.193   9.629   7.583  0.8052  0.1300 -0.0797
  182MOL0     C23944   9.947   9.408   6.582 -0.1447  0.0841  0.6404
  182MOL0     C23945  10.075   9.424   6.547 -0.2368  0.4043 -0.1138
  182MOL0     C23946  10.517   9.452   6.561  0.3805 -0.1225 -0.5497
  182MOL0     C23947  10.612   9.352   6.592 -0.0540  1.2289 -0.4947
  182MOL0     C23948  10.740   9.369   6.549  0.2170 -0.6982 -0.3028
  182MOL0     C23949  10.784   9.483   6.485 -0.1947 -0.9976  0.3318
  182MOL0     O23950  10.917   9.499   6.441  0.4666  0.8113  0.6317
  182MOL0     C23951  11.033   9.430   6.498  0.2596  0.5272 -0.4310
  182MOL0     C23952  11.061   9.490   6.637 -0.3688 -0.1720  0.4952
  182MOL0     C23953  11.205   9.448   6.688 -0.3611 -0.1564  0.3578
  182MOL0     C23954  11.221   9.458   6.840 -0.1083  0.3586  0.5211
  182MOL0     C23955  11.358   9.430   6.891 -0.4047  0.3730 -0.9811
  182MOL0     C23956  11.464   9.402   6.936  0.2038  0.0788  0.2882
  182MOL0     C23957  10.691   9.575   6.456 -0.8132 -0.7337  0.4189
  182MOL0     C23958  10.558   9.569   6.487 -0.4585 -0.2099  0.1902
  182MOL0     H23959  10.144   9.679   6.767 -1.2216  0.2684  1.9568
  182MOL0     H23960   9.926   9.642   6.840  1.5047  1.4461  0.8615
  182MOL0     H23961   9.780   9.498   6.912  1.4444 -2.0846  1.1432
  182MOL0     H23962   9.749   9.324   6.855 -2.2971 -0.0981 -0.7289
  182MOL0     H23963   9.536   9.364   6.794  0.8735 -0.4904 -0.2104
  182MOL0     H23964   9.535   9.533   6.815  3.1509  0.0930 -2.0395
  182MOL0     H23965   9.591   9.495   7.058  1.4648 -2.4212  2.2829
  182MOL0     H23966   9.542   9.324   7.037  0.2978 -0.1959  0.5393
  182MOL0     H23967   9.357   9.551   6.932 -1.0112 -1.1612 -1.5449
  182MOL0     H23968   9.326   9.384   6.943  1.0229  1.1572 -0.3017
  182MOL0     H23969   9.395   9.557   7.184 -0.1618 -0.4508 -0.8386
  182MOL0     H23970   9.325   9.384   7.188 -1.7916  0.4691  1.2420
  182MOL0     H23971   9.105   9.462   7.105 -0.8112 -0.5498  2.2776
  182MOL0     H23972   9.190   9.613   7.064  2.4357 -0.7208  0.0963
  182MOL0     H23973   9.221   9.655   7.302 -1.0418  1.1538  1.8037
  182MOL0     H23974   9.042   9.650   7.260  0.7554  1.5498 -1.5226
  182MOL0     H23975   9.206   9.427   7.386  0.0305  0.3839 -0.0062
  182MOL0     H23976   9.040   9.434   7.361  2.1396 -3.5064 -0.1969
  182MOL0     H23977   8.886   9.509   7.546 -0.2152 -0.9589  1.3346
  182MOL0     H23978   8.920   9.775   7.837  2.0921 -0.1091 -0.9607
  182MOL0     H23979   8.928   9.607   7.894  0.3392  0.9427 -0.5506
  182MOL0     H23980   8.719   9.696   7.691 -1.3005  0.9481  0.5905
  182MOL0     H23981   8.708   9.708   7.859 -0.5742 -2.6557  1.4592
  182MOL0     H23982   8.695   9.464   7.673 -0.5021 -0.2854  0.1215
  182MOL0     H23983   8.779   9.431   7.831 -0.9967  0.3082  1.5715
  182MOL0     H23984   8.494   9.480   7.761 -0.8806 -0.3065  0.3657
  182MOL0     H23985   8.554   9.573   7.898  0.8474 -0.7807  2.1036
  182MOL0     H23986   8.516   9.149   8.046  0.1561  0.4238 -0.2906
  182MOL0     H23987   8.292   9.056   8.106 -3.5342  0.1321  0.7946
  182MOL0     H23988   7.825   9.154   8.223  0.4730 -0.6503 -0.6708
  182MOL0     H23989   7.633   9.053   8.304 -0.4318 -1.2781 -0.8227
  182MOL0     H23990   7.729   8.666   8.484  2.5768  1.5987 -2.4990
  182MOL0     H23991   7.643   8.595   8.341 -0.3655  1.1956 -0.3658
  182MOL0     H23992   7.502   8.682   8.593  1.6357 -1.0786  2.0464
  182MOL0     H23993   7.564   8.527   8.570 -0.0613 -0.3661 -0.8830
  182MOL0     H23994   7.440   8.473   8.382  0.5692  0.1570 -0.5340
  182MOL0     H23995   7.399   8.639   8.344 -0.0987  2.4196  3.4289
  182MOL0     H23996   7.304   8.467   8.580  1.1375 -0.5919 -1.1812
  182MOL0     H23997   7.246   8.638   8.557 -1.4257 -1.8239  2.4468
  182MOL0     H23998   7.189   8.440   8.342 -0.0210  1.3407 -1.8520
  182MOL0     H23999   7.138   8.609   8.352  1.5238  1.7374  0.9735
  182MOL0     H24000   7.008   8.538   8.574  0.6660 -0.9453  0.4956
  182MOL0     H24001   7.032   8.373   8.527 -0.8235  0.2820 -0.0834
  182MOL0     H24002   6.887   8.587   8.361 -4.2559 -1.2654 -1.7814
  182MOL0     H24003   6.908   8.424   8.303 -3.8577  0.8183 -1.0311
  182MOL0     H24004   6.775   8.468   8.568  3.6085 -1.4035  1.5534
  182MOL0     H24005   6.793   8.314   8.475 -1.4411 -0.3027 -0.3289
  182MOL0     H24006   7.842   8.672   8.238  0.8273  0.4584  0.1826
  182MOL0     H24007   8.020   8.801   8.137 -2.9643 -0.7090 -2.5134
  182MOL0     H24008   8.101   9.405   7.926  0.1508 -0.3707 -0.8503
  182MOL0     H24009   8.309   9.482   7.862  1.0849 -0.0733 -0.2615
  182MOL0     H24010   9.891   9.335   6.525  0.8276 -0.5053  0.4085
  182MOL0     H24011  10.111   9.352   6.475  0.8557 -0.2835  1.0919
  182MOL0     H24012  10.578   9.269   6.654  0.3052  1.0993 -0.4661
  182MOL0     H24013  10.813   9.292   6.572  1.9279  1.6086  2.9363
  182MOL0     H24014  11.113   9.456   6.428 -3.5199  2.0640 -4.6673
  182MOL0     H24015  11.029   9.321   6.498 -1.7111  0.5737  0.0958
  182MOL0     H24016  11.061   9.599   6.633 -0.5757 -0.1582  0.8462
  182MOL0     H24017  10.983   9.460   6.707 -0.5523 -0.0598  0.3385
  182MOL0     H24018  11.276   9.518   6.643 -2.5047  0.2417 -2.6831
  182MOL0     H24019  11.233   9.351   6.647  1.2665 -0.1830  1.4160
  182MOL0     H24020  11.195   9.560   6.869 -0.2643 -0.7843  5.0984
  182MOL0     H24021  11.153   9.390   6.892  1.9580 -1.7178  0.6344
  182MOL0     H24022  11.558   9.386   6.986  0.2294 -0.3618  0.1015
  182MOL0     H24023  10.732   9.663   6.408 -1.5071 -1.6483 -2.0564
  182MOL0     H24024  10.484   9.642   6.455 -1.5603 -1.1218  0.6212
  183MOL0     O24025   4.778   5.206   5.402  0.3974 -0.7190 -0.8194
  183MOL0     C24026   4.800   5.319   5.363  0.0888  0.4579  0.2754
  183MOL0     O24027   4.711   5.406   5.311  0.6794 -0.0619 -0.4402
  183MOL0     C24028   4.580   5.373   5.292 -0.0735  1.0239  0.8403
  183MOL0     C24029   4.521   5.365   5.168 -0.9067  0.8386  0.2970
  183MOL0     C24030   4.383   5.325   5.162  0.5089 -0.1008  0.3520
  183MOL0     C24031   4.309   5.294   5.281 -0.4662 -0.5729  0.3921
  183MOL0     O24032   4.178   5.251   5.289 -0.1763  0.1701 -0.5160
  183MOL0     C24033   4.123   5.184   5.177  0.3738  0.1531 -0.0388
  183MOL0     C24034   3.981   5.170   5.211 -0.8139  0.0054 -0.3929
  183MOL0     C24035   3.893   5.070   5.122  0.1597  0.5412 -0.1097
  183MOL0     C24036   3.751   5.057   5.168 -0.4672 -0.2171 -0.0326
  183MOL0     C24037   3.673   4.948   5.105  0.4615  0.4470  1.0989
  183MOL0     C24038   3.643   4.968   4.960  0.3454 -0.4620  0.2314
  183MOL0     C24039   3.586   4.843   4.899 -0.3360 -0.2355 -0.2022
  183MOL0     C24040   3.538   4.860   4.747  0.3556 -0.2489  0.2628
  183MOL0     N24041   3.523   4.732   4.691  0.1994  0.3185  0.8863
  183MOL0     C24042   3.626   4.641   4.669  0.4899 -0.5818  0.4082
  183MOL0     C24043   3.563   4.522   4.653  0.3538  0.3974  0.5713
  183MOL0     C24044   3.628   4.387   4.644 -0.4508 -0.0111 -0.0830
  183MOL0     C24045   3.717   4.370   4.514  0.1504  0.5236  0.6595
  183MOL0     C24046   3.765   4.226   4.483  0.2148 -0.6319 -1.3922
  183MOL0     C24047   3.791   4.201   4.335  0.4874 -0.2954  0.5878
  183MOL0     O24048   3.859   4.076   4.336 -0.1317  0.0361 -0.3056
  183MOL0     C24049   3.995   4.077   4.360  0.2763 -0.4840 -1.2533
  183MOL0     C24050   4.072   4.199   4.372 -0.1249  1.0532 -0.2862
  183MOL0     C24051   4.212   4.177   4.406  0.3427  0.1219 -0.9495
  183MOL0     C24052   4.268   4.048   4.427  0.2605 -0.2478  0.3138
  183MOL0     C24053   4.409   4.028   4.449 -0.6966  0.2870 -0.6731
  183MOL0     O24054   4.493   4.128   4.452 -0.4922  0.3120 -0.8436
  183MOL0     C24055   4.633   4.110   4.444  0.5406 -1.2262 -0.4733
  183MOL0     C24056   4.681   4.009   4.358  0.3381 -0.8496  0.8780
  183MOL0     C24057   4.820   3.969   4.368  0.2468  0.5309 -0.0186
  183MOL0     C24058   4.908   4.049   4.449  0.7817 -0.2259 -0.5937
  183MOL0     O24059   5.045   4.021   4.447  0.0840  0.0527 -0.3548
  183MOL0     C24060   5.138   4.093   4.532  0.3977  0.5647 -0.0711
  183MOL0     C24061   5.280   4.036   4.529 -0.1172  0.8575  0.1982
  183MOL0     C24062   5.387   4.134   4.577  0.3051 -0.7528  0.8631
  183MOL0     C24063   5.525   4.063   4.559  0.6271  0.2298  1.1464
  183MOL0     C24064   5.638   4.139   4.615 -0.5858  0.3301  0.1914
  183MOL0     C24065   5.761   4.053   4.588 -0.6335 -0.5480 -0.5448
  183MOL0     C24066   5.887   4.138   4.587  0.4719 -0.6117  0.1381
  183MOL0     C24067   6.001   4.073   4.502  0.1107  0.0551 -0.5376
  183MOL0    Cl24068   6.153   4.126   4.573 -0.0672 -0.2042 -0.1200
  183MOL0     C24069   4.847   4.142   4.532 -0.3469 -0.1669 -0.2944
  183MOL0     C24070   4.711   4.163   4.539  0.2069  0.2482 -0.3418
  183MOL0     O24071   4.444   3.911   4.473 -0.3640  0.3702  0.7548
  183MOL0     C24072   4.185   3.936   4.423 -0.1489  0.1851  0.2693
  183MOL0     C24073   4.046   3.948   4.388 -0.5638  0.8924 -0.1610
  183MOL0     N24074   3.429   4.536   4.664  0.1025 -0.1704 -0.4338
  183MOL0     N24075   3.407   4.661   4.692 -0.0308 -0.2531  0.2026
  183MOL0     C24076   4.379   5.295   5.397 -0.1190 -0.3684 -0.7190
  183MOL0     C24077   4.507   5.343   5.408  1.1593 -0.3792 -0.6581
  183MOL0     C24078   4.941   5.364   5.377 -0.0055 -0.7740 -0.2112
  183MOL0     C24079   5.044   5.285   5.421  0.5500  0.2021 -0.2659
  183MOL0     C24080   5.171   5.326   5.428 -0.0737 -1.0468  0.7020
  183MOL0     C24081   5.205   5.452   5.399  0.0350  1.1291 -0.1343
  183MOL0     O24082   5.332   5.505   5.411 -0.6191  0.0843 -1.0706
  183MOL0     C24083   5.446   5.413   5.394 -0.4323 -1.2365 -0.1945
  183MOL0     C24084   5.568   5.495   5.373  0.1930  0.4931  0.4815
  183MOL0     C24085   5.690   5.401   5.359  0.5386  0.4538  0.0780
  183MOL0     C24086   5.817   5.487   5.349 -1.2889 -0.5933 -0.0193
  183MOL0     C24087   5.851   5.544   5.477 -0.1753 -0.2822 -0.3942
  183MOL0     C24088   5.881   5.593   5.585  0.1151  0.2722  0.2995
  183MOL0     C24089   5.101   5.545   5.361 -0.7353 -0.1757 -0.1366
  183MOL0     C24090   4.969   5.498   5.342 -0.0527 -0.5281  0.0932
  183MOL0     H24091   4.580   5.370   5.077 -1.0364  0.8227  0.2122
  183MOL0     H24092   4.339   5.326   5.063 -0.0384 -3.2938  0.4600
  183MOL0     H24093   4.166   5.085   5.159  1.0644  0.1249  1.5958
  183MOL0     H24094   4.143   5.245   5.089  1.9742  0.1496  0.2964
  183MOL0     H24095   3.935   5.268   5.193  3.1848  2.2416  0.2716
  183MOL0     H24096   3.972   5.140   5.316  0.6538  2.4321  0.5125
  183MOL0     H24097   3.946   4.976   5.136  2.4695  1.8951  0.8486
  183MOL0     H24098   3.901   5.089   5.014 -4.1615  0.0691 -0.7246
  183MOL0     H24099   3.735   5.053   5.276 -1.0505  0.9976 -0.0505
  183MOL0     H24100   3.716   5.154   5.130  3.1229  0.1218 -2.9418
  183MOL0     H24101   3.583   4.921   5.162  0.8657 -0.8423  1.1504
  183MOL0     H24102   3.737   4.859   5.101  0.7450  0.6369 -2.8016
  183MOL0     H24103   3.730   4.991   4.898 -1.2530 -2.0896 -2.8864
  183MOL0     H24104   3.571   5.050   4.957 -0.2401 -0.9924 -1.3453
  183MOL0     H24105   3.661   4.764   4.905  0.6555  0.6800 -0.0352
  183MOL0     H24106   3.504   4.800   4.957 -0.7852 -0.3693 -0.9358
  183MOL0     H24107   3.615   4.915   4.691  0.7082 -0.6307  0.3684
  183MOL0     H24108   3.446   4.919   4.749  1.0562  0.8870  0.3647
  183MOL0     H24109   3.735   4.647   4.665  1.0519 -5.4747  1.9334
  183MOL0     H24110   3.552   4.309   4.651 -0.4666 -0.1272 -1.3526
  183MOL0     H24111   3.700   4.384   4.726 -0.2760  2.1692 -0.0833
  183MOL0     H24112   3.812   4.423   4.527 -0.0806  0.8016  1.2301
  183MOL0     H24113   3.665   4.419   4.431  1.5751  0.7859 -0.1259
  183MOL0     H24114   3.852   4.208   4.546 -0.8098  0.6380  0.4790
  183MOL0     H24115   3.691   4.150   4.508 -0.4856 -0.2683 -2.2653
  183MOL0     H24116   3.845   4.275   4.276 -1.4331 -0.3329 -1.3356
  183MOL0     H24117   3.693   4.203   4.286  1.2659  2.1088 -1.0568
  183MOL0     H24118   4.045   4.302   4.354 -1.2763  0.4232 -2.4633
  183MOL0     H24119   4.277   4.261   4.428  0.3019  0.0062 -0.3744
  183MOL0     H24120   4.609   3.964   4.291 -0.1179 -0.2143  0.9327
  183MOL0     H24121   4.848   3.884   4.308  0.2302  1.6454 -1.6781
  183MOL0     H24122   5.105   4.092   4.637 -1.5512  1.6005 -0.6378
  183MOL0     H24123   5.141   4.197   4.501 -0.9495  0.7074  0.1969
  183MOL0     H24124   5.312   4.004   4.429  0.9876 -2.3428  1.4517
  183MOL0     H24125   5.283   3.945   4.590 -1.2917 -0.9389 -2.2396
  183MOL0     H24126   5.373   4.165   4.681  0.7760  0.2615  0.6404
  183MOL0     H24127   5.383   4.227   4.518 -2.0139  0.0401  2.1603
  183MOL0     H24128   5.519   3.962   4.602 -0.0815 -0.4948 -0.5305
  183MOL0     H24129   5.550   4.053   4.453  2.6274  2.2107  1.3661
  183MOL0     H24130   5.642   4.147   4.724  1.2917  2.7535  0.0350
  183MOL0     H24131   5.648   4.238   4.569  0.6501  1.3637  2.4969
  183MOL0     H24132   5.758   4.013   4.486  0.1170 -1.2273 -0.3098
  183MOL0     H24133   5.752   3.977   4.666 -4.9020 -0.1571 -0.3960
  183MOL0     H24134   5.868   4.242   4.560 -0.7948 -0.6088  1.0104
  183MOL0     H24135   5.917   4.156   4.690 -2.1248 -1.9309  1.2042
  183MOL0     H24136   6.000   4.085   4.394  4.5922  1.2604 -0.6374
  183MOL0     H24137   5.994   3.967   4.530 -1.0878  0.6252  1.5700
  183MOL0     H24138   4.913   4.190   4.604 -1.2907 -1.9186  1.8605
  183MOL0     H24139   4.661   4.215   4.620 -2.2731 -2.2759 -0.0908
  183MOL0     H24140   4.217   3.837   4.452 -2.7716 -0.9331 -0.4049
  183MOL0     H24141   3.980   3.863   4.403  2.8716 -2.1481 -0.8086
  183MOL0     H24142   4.318   5.272   5.483 -1.5364  0.9736 -1.3265
  183MOL0     H24143   4.556   5.352   5.504  0.4625  0.1847 -0.3402
  183MOL0     H24144   5.007   5.191   5.461  0.5277  0.0800 -0.5710
  183MOL0     H24145   5.250   5.264   5.469  1.8128  0.6933 -0.1219
  183MOL0     H24146   5.440   5.352   5.303  2.3684 -1.0598 -0.5985
  183MOL0     H24147   5.446   5.342   5.477 -2.1100 -0.9998  0.0509
  183MOL0     H24148   5.554   5.549   5.279 -1.8661 -1.0021 -0.1441
  183MOL0     H24149   5.585   5.557   5.461 -0.0668  0.0684  0.8337
  183MOL0     H24150   5.689   5.349   5.263  1.0111  1.6958 -0.6261
  183MOL0     H24151   5.695   5.331   5.442  3.5441 -2.6851 -2.4803
  183MOL0     H24152   5.905   5.428   5.322 -0.7277  0.9290 -1.7517
  183MOL0     H24153   5.816   5.565   5.273 -0.1967  1.3933  1.8635
  183MOL0     H24154   5.914   5.645   5.673  0.6324  2.0240 -0.8652
  183MOL0     H24155   5.140   5.640   5.325  0.3718 -0.0897  1.1879
  183MOL0     H24156   4.892   5.565   5.303 -1.5139 -1.8429  0.6025
  184MOL0     O24157   4.920   0.385  11.231  0.1339  0.4581  0.4783
  184MOL0     C24158   4.865   0.408  11.334 -0.1533 -0.7718  0.2538
  184MOL0     O24159   4.921   0.411  11.457 -0.5968  0.0929  0.3572
  184MOL0     C24160   5.046   0.379  11.472 -0.8063  0.3681  0.4814
  184MOL0     C24161   5.111   0.270  11.404 -0.2797  0.2216  0.2304
  184MOL0     C24162   5.245   0.244  11.432  0.2874 -0.1999  0.4746
  184MOL0     C24163   5.324   0.317  11.514  0.6814 -0.8033 -1.1708
  184MOL0     O24164   5.459   0.303  11.537 -0.0419  0.5736  0.4960
  184MOL0     C24165   5.545   0.410  11.537 -0.2669 -0.4637 -0.0839
  184MOL0     C24166   5.676   0.369  11.605 -0.3421  0.1112  0.9294
  184MOL0     C24167   5.797   0.448  11.554  0.0933  0.2351  0.0903
  184MOL0     C24168   5.909   0.417  11.647 -0.3021  0.3322  0.3751
  184MOL0     C24169   6.028   0.483  11.587 -0.1453  1.0665  0.3200
  184MOL0     C24170   6.151   0.434  11.657  0.3954  0.0427 -0.5048
  184MOL0     C24171   6.278   0.500  11.597  0.7470 -0.1709 -0.3958
  184MOL0     C24172   6.400   0.510  11.691 -1.3476  0.2426 -0.3785
  184MOL0     N24173   6.372   0.560  11.820  0.0715  0.2391  0.0806
  184MOL0     C24174   6.320   0.680  11.853  0.1850 -0.3254  0.3308
  184MOL0     C24175   6.257   0.659  11.968  0.0041  0.2719 -1.2474
  184MOL0     C24176   6.191   0.764  12.042  0.1573 -0.4039  0.3642
  184MOL0     C24177   6.042   0.770  12.038  0.3822  0.3623 -0.0926
  184MOL0     C24178   5.988   0.780  11.892  0.3003 -0.9554  0.2572
  184MOL0     C24179   5.837   0.771  11.893 -0.5699  0.5234  0.3989
  184MOL0     O24180   5.787   0.798  11.759 -0.1394  0.0773 -0.4360
  184MOL0     C24181   5.656   0.814  11.741  1.4377 -0.2749  0.1377
  184MOL0     C24182   5.625   0.874  11.617 -0.9018 -0.4116 -0.8899
  184MOL0     C24183   5.497   0.865  11.560 -1.3734 -0.0620 -0.4247
  184MOL0     C24184   5.388   0.817  11.637  0.6932  0.8242  0.2079
  184MOL0     C24185   5.253   0.818  11.576 -0.1264 -1.1103  0.0517
  184MOL0     O24186   5.229   0.867  11.453 -0.0929  0.1240  0.1127
  184MOL0     C24187   5.098   0.889  11.415 -0.3013  0.0607 -0.1096
  184MOL0     C24188   5.055   1.016  11.373 -0.4286 -0.1196  0.4038
  184MOL0     C24189   4.933   1.027  11.301 -0.3799  0.8171  1.1074
  184MOL0     C24190   4.849   0.914  11.275 -0.0781 -0.1165  0.3986
  184MOL0     O24191   4.725   0.942  11.212 -0.0020 -0.1998 -0.3790
  184MOL0     C24192   4.609   0.871  11.252  0.5237 -0.3023 -0.2126
  184MOL0     C24193   4.559   0.927  11.388 -0.2430 -0.9050 -0.0080
  184MOL0     C24194   4.415   0.886  11.428 -0.1405 -0.0085  0.0496
  184MOL0     C24195   4.398   0.960  11.565  0.3631  0.4228 -0.4176
  184MOL0     C24196   4.266   0.928  11.639  0.2886 -0.5930 -0.1577
  184MOL0     C24197   4.243   0.778  11.680  1.2688  0.0415 -0.5292
  184MOL0     C24198   4.104   0.755  11.740  0.3614  0.6198 -0.2225
  184MOL0     C24199   4.075   0.853  11.853  0.1774  0.3189 -1.1031
  184MOL0    Cl24200   3.909   0.824  11.898 -0.1586  0.6509 -0.3462
  184MOL0     C24201   4.889   0.787  11.330  0.8918 -1.0377  0.4284
  184MOL0     C24202   5.011   0.776  11.389  0.9027 -0.3533 -0.1445
  184MOL0     O24203   5.167   0.789  11.656 -0.0076 -0.6003  0.3224
  184MOL0     C24204   5.420   0.761  11.770 -0.8797 -0.2161 -1.4168
  184MOL0     C24205   5.553   0.760  11.816  0.9553  0.5185  0.1455
  184MOL0     N24206   6.281   0.530  12.014  0.1936  0.3901 -0.1805
  184MOL0     N24207   6.354   0.473  11.924 -0.2185  0.3604  0.8597
  184MOL0     C24208   5.257   0.412  11.583 -0.0254 -0.2271  0.7460
  184MOL0     C24209   5.124   0.444  11.569  0.6076  1.4937 -0.6591
  184MOL0     C24210   4.721   0.436  11.328 -0.0864 -0.1220  0.0741
  184MOL0     C24211   4.668   0.465  11.453 -0.4334 -0.0003 -1.1086
  184MOL0     C24212   4.531   0.494  11.460 -0.9888 -0.4046  0.2575
  184MOL0     C24213   4.442   0.486  11.351  0.3946  0.7628  0.6937
  184MOL0     O24214   4.307   0.507  11.369  0.1531 -0.2035  0.3937
  184MOL0     C24215   4.226   0.495  11.256  0.1540 -0.7024 -0.2419
  184MOL0     C24216   4.073   0.498  11.287  0.5578 -0.5287 -0.2125
  184MOL0     C24217   4.027   0.364  11.351 -1.3533 -0.6022 -0.1739
  184MOL0     C24218   3.888   0.365  11.395  0.0061 -0.4072  0.1005
  184MOL0     C24219   3.868   0.439  11.517 -0.2210 -0.0306  0.1364
  184MOL0     C24220   3.857   0.504  11.618  0.4460  0.0842  0.7309
  184MOL0     C24221   4.499   0.456  11.224  1.1169  0.4375  0.6393
  184MOL0     C24222   4.637   0.433  11.214 -0.2978 -0.3924 -0.1428
  184MOL0     H24223   5.067   0.208  11.327  2.2175 -0.8701 -0.3886
  184MOL0     H24224   5.300   0.168  11.376  4.5897  2.1823  1.0469
  184MOL0     H24225   5.505   0.504  11.577 -2.0783 -1.3725  0.3328
  184MOL0     H24226   5.572   0.431  11.433 -1.4669  0.1467 -0.2905
  184MOL0     H24227   5.699   0.266  11.575 -2.8249 -0.4826  0.8926
  184MOL0     H24228   5.655   0.376  11.712 -2.3258  1.9972  0.4800
  184MOL0     H24229   5.778   0.555  11.540 -3.1834  0.0724  2.2289
  184MOL0     H24230   5.832   0.409  11.458  3.3423 -2.1488  2.0249
  184MOL0     H24231   5.887   0.452  11.748  2.0039  1.1373  0.6565
  184MOL0     H24232   5.925   0.309  11.655  0.0255  0.5366  3.6637
  184MOL0     H24233   6.021   0.593  11.591 -0.4477  1.2489 -2.6653
  184MOL0     H24234   6.040   0.455  11.482 -3.0601 -2.2621  0.7118
  184MOL0     H24235   6.167   0.326  11.650  0.7112  0.1484 -1.4974
  184MOL0     H24236   6.151   0.458  11.764  0.9324  2.1411 -0.9244
  184MOL0     H24237   6.303   0.447  11.504  1.0544  0.3930 -0.6414
  184MOL0     H24238   6.252   0.601  11.565  1.3836  0.2898  0.5040
  184MOL0     H24239   6.481   0.569  11.648 -1.3043  1.4713  1.2886
  184MOL0     H24240   6.433   0.407  11.709 -1.5692  0.5457  2.0713
  184MOL0     H24241   6.312   0.769  11.792 -2.0457  1.7703  3.3389
  184MOL0     H24242   6.245   0.858  12.035  1.5812 -0.6352  4.9330
  184MOL0     H24243   6.228   0.735  12.142 -0.3868  1.2488  1.0682
  184MOL0     H24244   5.989   0.852  12.087 -2.2076 -0.3366 -1.5442
  184MOL0     H24245   6.003   0.686  12.096  0.9394  1.2144  1.5786
  184MOL0     H24246   6.015   0.875  11.846 -0.0258 -1.0833 -0.2044
  184MOL0     H24247   6.018   0.699  11.826  2.3157 -1.7798  2.0623
  184MOL0     H24248   5.809   0.855  11.958  3.8098  1.0906  1.8869
  184MOL0     H24249   5.813   0.676  11.941 -1.5778  1.9147  2.8906
  184MOL0     H24250   5.705   0.917  11.557 -1.1289  0.3829 -0.6300
  184MOL0     H24251   5.485   0.913  11.463  0.2846  1.5199  0.0909
  184MOL0     H24252   5.128   1.096  11.381 -0.4552  0.1783 -1.7665
  184MOL0     H24253   4.908   1.124  11.261  0.2575  0.8868  0.8832
  184MOL0     H24254   4.635   0.766  11.270 -2.8147 -1.1441  0.4073
  184MOL0     H24255   4.533   0.869  11.174  0.0956  0.3234  0.1717
  184MOL0     H24256   4.548   1.033  11.362  2.0926 -1.0721 -2.0889
  184MOL0     H24257   4.629   0.929  11.472 -1.8400 -0.5770  1.3754
  184MOL0     H24258   4.388   0.781  11.440 -1.5558  0.2327 -0.7744
  184MOL0     H24259   4.353   0.927  11.347  0.6615  0.1569 -0.4919
  184MOL0     H24260   4.472   0.912  11.629 -2.8475 -2.2545  1.5976
  184MOL0     H24261   4.414   1.067  11.548  0.5749  0.5252  0.3827
  184MOL0     H24262   4.184   0.958  11.574  1.7125  1.1514 -1.2536
  184MOL0     H24263   4.264   0.988  11.731  1.6663 -1.2322  0.3156
  184MOL0     H24264   4.323   0.755  11.750  0.7726 -3.4626 -0.9194
  184MOL0     H24265   4.251   0.713  11.592 -0.4481  0.7510 -1.2600
  184MOL0     H24266   4.030   0.748  11.659 -0.8742 -2.6336  1.0070
  184MOL0     H24267   4.103   0.654  11.784 -1.3784  0.4209 -0.6451
  184MOL0     H24268   4.076   0.956  11.817 -0.6002  1.2286  1.3092
  184MOL0     H24269   4.144   0.837  11.937 -0.9807 -0.0667 -0.2036
  184MOL0     H24270   4.832   0.703  11.292 -1.8255  1.2817 -0.9486
  184MOL0     H24271   5.047   0.675  11.402 -2.3477 -1.5200  0.7173
  184MOL0     H24272   5.349   0.712  11.835 -0.2434  0.8290  0.1451
  184MOL0     H24273   5.567   0.705  11.909  0.0252 -4.4224 -2.3344
  184MOL0     H24274   5.310   0.468  11.660 -1.8346  1.6820  0.6889
  184MOL0     H24275   5.077   0.527  11.619 -1.0244  0.5015 -0.4993
  184MOL0     H24276   4.718   0.478  11.548 -1.2052  0.8459 -0.7949
  184MOL0     H24277   4.497   0.522  11.559  2.3850  0.5756  1.2582
  184MOL0     H24278   4.240   0.406  11.194 -3.9136 -1.6437 -0.1221
  184MOL0     H24279   4.244   0.590  11.205  2.2604  0.5414  2.5599
  184MOL0     H24280   4.055   0.575  11.362  1.4216 -2.4955  2.1271
  184MOL0     H24281   4.010   0.521  11.201 -0.6477 -2.4421  0.0970
  184MOL0     H24282   4.093   0.349  11.437  0.7410  0.5010 -1.5057
  184MOL0     H24283   4.050   0.279  11.286  2.0208  0.9741 -1.3143
  184MOL0     H24284   3.824   0.401  11.314  0.0555  3.4154  1.5458
  184MOL0     H24285   3.857   0.264  11.422 -0.3275 -1.0596 -2.4472
  184MOL0     H24286   3.835   0.575  11.696  0.9938  1.7408 -0.5604
  184MOL0     H24287   4.432   0.448  11.139 -1.0384  3.6689  1.8341
  184MOL0     H24288   4.679   0.399  11.120  0.1348 -2.5495  0.7804
  185MOL0     O24289   9.653   2.450   9.778 -0.5156 -0.0483 -0.2493
  185MOL0     C24290   9.747   2.478   9.707  0.5889 -1.0367  0.4710
  185MOL0     O24291   9.802   2.391   9.614  0.8163 -0.2079 -1.0012
  185MOL0     C24292   9.724   2.278   9.586 -0.7304 -0.2317 -0.4318
  185MOL0     C24293   9.774   2.155   9.613 -0.0242 -0.2402 -0.7083
  185MOL0     C24294   9.701   2.043   9.570  0.1854 -0.1873  1.2107
  185MOL0     C24295   9.585   2.047   9.490  0.7877 -0.2244  0.4967
  185MOL0     O24296   9.503   1.936   9.469  0.8916 -0.4864  0.5026
  185MOL0     C24297   9.392   1.951   9.385 -0.5966 -0.6473 -0.7823
  185MOL0     C24298   9.328   1.819   9.359 -0.3143 -0.5875  0.3206
  185MOL0     C24299   9.283   1.762   9.498 -0.4880  0.0072  1.1195
  185MOL0     C24300   9.236   1.619   9.472 -0.4313 -0.9080 -0.5288
  185MOL0     C24301   9.107   1.618   9.389 -0.0671 -0.2182 -0.1164
  185MOL0     C24302   9.012   1.504   9.414 -0.8302 -0.6071 -0.2021
  185MOL0     C24303   8.878   1.516   9.337  0.3260 -0.3472 -0.0217
  185MOL0     C24304   8.792   1.389   9.323 -0.3951  0.1836 -0.5434
  185MOL0     N24305   8.752   1.342   9.455  0.0645  0.1406 -0.6286
  185MOL0     C24306   8.823   1.270   9.546 -0.5469  0.1494  0.1480
  185MOL0     C24307   8.738   1.242   9.643  0.2026 -0.3658  0.5969
  185MOL0     C24308   8.773   1.168   9.762 -0.7862 -0.4673  0.3400
  185MOL0     C24309   8.775   1.023   9.732 -0.3624 -0.8929 -0.3118
  185MOL0     C24310   8.641   0.972   9.683 -0.3262  0.2611  0.2690
  185MOL0     C24311   8.519   0.996   9.773 -0.2846  0.5725  0.3370
  185MOL0     O24312   8.439   0.878   9.747  1.3124  1.8023 -0.5099
  185MOL0     C24313   8.305   0.877   9.791  0.0729  0.6236 -0.1576
  185MOL0     C24314   8.227   0.987   9.831 -0.7649 -0.5852  0.3345
  185MOL0     C24315   8.090   0.963   9.874  0.1450  0.2606  0.0048
  185MOL0     C24316   8.034   0.836   9.890 -0.0429  0.1159 -0.4095
  185MOL0     C24317   7.900   0.823   9.938 -0.3753  0.1799 -0.9554
  185MOL0     O24318   7.860   0.701   9.929 -0.1848 -0.3514  0.2174
  185MOL0     C24319   7.736   0.659   9.973 -0.3731 -0.2790  0.0928
  185MOL0     C24320   7.617   0.733   9.977 -0.5098 -0.6227 -0.1425
  185MOL0     C24321   7.497   0.678  10.024  0.4244 -0.2463  0.6435
  185MOL0     C24322   7.491   0.547  10.058  0.4327 -0.0686 -1.0114
  185MOL0     O24323   7.382   0.476  10.111 -1.2784 -0.9148  0.3767
  185MOL0     C24324   7.260   0.541  10.142 -0.4984  0.0187 -0.8114
  185MOL0     C24325   7.167   0.439  10.183  0.0007  0.0872  0.4513
  185MOL0     C24326   7.024   0.507  10.197  0.4804 -0.2595  0.5094
  185MOL0     C24327   6.918   0.395  10.164  0.0854  0.1699 -1.1907
  185MOL0     C24328   6.945   0.271  10.247  0.2690 -0.7073 -0.2214
  185MOL0     C24329   6.844   0.156  10.221  0.4255 -0.4449  0.3769
  185MOL0     C24330   6.701   0.186  10.261 -0.0894 -0.1924 -0.0567
  185MOL0     C24331   6.612   0.063  10.240  0.0160 -0.3485  0.2042
  185MOL0    Cl24332   6.441   0.093  10.292  0.0104 -0.6426  0.0437
  185MOL0     C24333   7.611   0.476  10.061  0.5941 -0.3094  0.4528
  185MOL0     C24334   7.730   0.527  10.017 -0.4247 -0.2665  0.5475
  185MOL0     O24335   7.840   0.923   9.981  0.3299  0.6792 -0.8977
  185MOL0     C24336   8.111   0.731   9.850 -0.2496 -0.0182  0.1175
  185MOL0     C24337   8.244   0.751   9.800  0.8806  0.2514 -0.4785
  185MOL0     N24338   8.616   1.303   9.620 -0.0132 -0.1689 -0.4083
  185MOL0     N24339   8.624   1.352   9.496 -0.3274 -0.1016 -0.2619
  185MOL0     C24340   9.553   2.176   9.447  0.6962 -0.2449 -0.2785
  185MOL0     C24341   9.616   2.293   9.490 -0.3644 -0.0246  0.5821
  185MOL0     C24342   9.775   2.624   9.696  0.0381 -0.3233  1.2264
  185MOL0     C24343   9.901   2.662   9.644 -0.7831  0.4355 -0.5903
  185MOL0     C24344   9.933   2.801   9.633 -0.5792 -0.0452 -0.0750
  185MOL0     C24345   9.848   2.907   9.678  0.3006 -0.2397 -0.2286
  185MOL0     O24346   9.881   3.043   9.663  0.0754  0.5408 -0.0261
  185MOL0     C24347   9.963   3.086   9.551  0.4907  0.8070  0.2735
  185MOL0     C24348   9.974   3.240   9.532  0.5530  0.8268  0.8782
  185MOL0     C24349   9.852   3.295   9.470  0.2984 -0.7212 -0.4848
  185MOL0     C24350   9.863   3.449   9.476  0.6001 -0.4301 -0.1167
  185MOL0     C24351   9.758   3.511   9.395 -0.4859 -0.1219  0.3620
  185MOL0     C24352   9.675   3.556   9.322 -0.4325  0.4479  0.2828
  185MOL0     C24353   9.726   2.859   9.742 -1.3312 -0.6815  0.5943
  185MOL0     C24354   9.687   2.728   9.747 -0.6086 -0.5666  0.9813
  185MOL0     H24355   9.858   2.146   9.680  1.2834  2.0673 -1.9256
  185MOL0     H24356   9.729   1.942   9.597 -0.9269 -1.0967 -0.8198
  185MOL0     H24357   9.417   1.995   9.288  3.8624 -1.6251 -0.2994
  185MOL0     H24358   9.325   2.025   9.430  1.2659  1.6410 -1.5527
  185MOL0     H24359   9.405   1.760   9.307 -1.3235  0.9146 -3.1888
  185MOL0     H24360   9.243   1.833   9.292  0.6737  1.5497 -0.5822
  185MOL0     H24361   9.200   1.823   9.534 -0.8656  0.1625  0.0184
  185MOL0     H24362   9.367   1.771   9.569 -1.5850  2.7704  2.1880
  185MOL0     H24363   9.300   1.545   9.424 -1.7088 -0.7854 -2.5236
  185MOL0     H24364   9.210   1.585   9.573 -1.4066  0.4684 -0.2770
  185MOL0     H24365   9.138   1.596   9.286 -0.6086 -2.3917  0.1367
  185MOL0     H24366   9.057   1.713   9.405 -1.5458 -1.4538  3.6177
  185MOL0     H24367   8.977   1.487   9.516  0.0555 -1.3030 -0.0064
  185MOL0     H24368   9.055   1.409   9.382 -2.5913 -1.4987 -0.0039
  185MOL0     H24369   8.807   1.588   9.378  0.6072  0.4185 -0.8543
  185MOL0     H24370   8.906   1.546   9.236 -1.0458  0.2042 -0.2549
  185MOL0     H24371   8.855   1.307   9.286  0.3472 -0.1162  1.2744
  185MOL0     H24372   8.711   1.410   9.252 -0.8239 -0.7546 -0.3573
  185MOL0     H24373   8.930   1.253   9.536 -0.0691  3.3571 -1.5551
  185MOL0     H24374   8.705   1.199   9.842 -1.9119 -4.1963  0.9922
  185MOL0     H24375   8.871   1.207   9.792 -0.9724 -0.7670  1.3556
  185MOL0     H24376   8.799   0.964   9.820 -0.6849  0.8587  1.0050
  185MOL0     H24377   8.853   1.009   9.656 -1.2326 -0.4170 -1.3275
  185MOL0     H24378   8.620   1.009   9.583 -0.1323 -1.0276 -0.2666
  185MOL0     H24379   8.661   0.865   9.669  0.1600  0.2371  1.0182
  185MOL0     H24380   8.469   1.089   9.746 -3.0080 -0.5352  1.2729
  185MOL0     H24381   8.542   1.008   9.879  0.0638 -1.2999  0.5045
  185MOL0     H24382   8.254   1.092   9.838 -0.7301 -0.4057 -1.8178
  185MOL0     H24383   8.027   1.047   9.903  0.0400 -0.6824  2.8790
  185MOL0     H24384   7.615   0.836   9.942  0.8590 -0.7592 -0.7088
  185MOL0     H24385   7.411   0.742  10.035  0.2225 -0.2382 -0.7849
  185MOL0     H24386   7.234   0.587  10.047 -2.4076 -0.9058 -0.7812
  185MOL0     H24387   7.277   0.617  10.219  0.7781 -1.8084  0.8055
  185MOL0     H24388   7.204   0.402  10.280 -0.2159 -0.9785  0.1415
  185MOL0     H24389   7.172   0.364  10.104 -1.0839  1.9669 -1.4975
  185MOL0     H24390   7.004   0.600  10.142  1.6615  0.6035  1.5001
  185MOL0     H24391   7.022   0.523  10.305 -0.2054 -1.5979  0.7151
  185MOL0     H24392   6.827   0.446  10.198  0.3569  0.4399 -0.8712
  185MOL0     H24393   6.920   0.366  10.059 -1.2834 -0.8769 -0.9704
  185MOL0     H24394   6.939   0.287  10.355  0.1056 -1.6820 -0.0706
  185MOL0     H24395   7.043   0.223  10.248  0.9075  0.5516 -0.2888
  185MOL0     H24396   6.883   0.069  10.274  1.9731 -0.8072 -1.2697
  185MOL0     H24397   6.846   0.126  10.116  4.6940  0.9113 -0.1311
  185MOL0     H24398   6.699   0.229  10.362 -1.8428  0.1779 -0.2114
  185MOL0     H24399   6.670   0.267  10.195  2.3250  0.3140 -0.6265
  185MOL0     H24400   6.651  -0.015  10.306 -1.0389 -1.0399  0.0447
  185MOL0     H24401   6.622   0.032  10.136  2.0218  1.0725 -0.0811
  185MOL0     H24402   7.590   0.377  10.100 -2.7719  0.9663  2.2344
  185MOL0     H24403   7.821   0.467  10.015 -2.0022 -2.8250 -2.5186
  185MOL0     H24404   8.067   0.631   9.852 -1.3540  0.4273 -0.8468
  185MOL0     H24405   8.292   0.660   9.765 -2.3230 -1.5012 -0.7211
  185MOL0     H24406   9.475   2.195   9.374  0.4125  1.1410  0.3465
  185MOL0     H24407   9.584   2.387   9.445 -1.1534 -1.1009 -1.2309
  185MOL0     H24408   9.967   2.585   9.607 -0.1622  0.2007  0.9364
  185MOL0     H24409  10.032   2.830   9.598 -0.8471 -0.9726 -1.6912
  185MOL0     H24410   9.912   3.051   9.461 -0.4853  4.8091 -0.9136
  185MOL0     H24411  10.063   3.040   9.559 -0.6612 -2.0195 -0.2832
  185MOL0     H24412   9.990   3.283   9.631  2.5251 -0.2079  1.0634
  185MOL0     H24413  10.065   3.271   9.479 -0.7298  2.0718 -0.7117
  185MOL0     H24414   9.758   3.260   9.513 -0.8409  1.7040 -0.7877
  185MOL0     H24415   9.855   3.259   9.367  0.5823 -0.2029 -0.6596
  185MOL0     H24416   9.856   3.493   9.576  2.3942  2.0341 -0.9826
  185MOL0     H24417   9.956   3.487   9.432  0.5699 -0.7365 -0.4527
  185MOL0     H24418   9.591   3.583   9.262 -1.4968 -2.3364  0.4211
  185MOL0     H24419   9.658   2.932   9.785 -0.7850  1.7789 -2.3229
  185MOL0     H24420   9.598   2.695   9.801 -3.0064 -0.2261 -2.4190
  186MOL0     O24421   6.053   3.298  10.989 -0.0045  0.2905 -0.6853
  186MOL0     C24422   6.058   3.421  10.985 -0.0080 -0.2746 -0.5162
  186MOL0     O24423   6.020   3.505  11.087  0.2565 -0.1289  0.3878
  186MOL0     C24424   5.962   3.443  11.192  0.0849 -1.5723  0.4202
  186MOL0     C24425   5.848   3.370  11.177  0.0963  0.1970  0.2532
  186MOL0     C24426   5.793   3.321  11.290 -0.0746 -0.4730 -0.1419
  186MOL0     C24427   5.841   3.349  11.420  0.6321 -0.6348  0.4549
  186MOL0     O24428   5.773   3.303  11.528 -0.1278 -0.0682  0.1268
  186MOL0     C24429   5.635   3.351  11.541  1.0314  1.0220 -0.9961
  186MOL0     C24430   5.562   3.250  11.649  0.0550  0.3821  0.2984
  186MOL0     C24431   5.550   3.104  11.597  0.0749 -0.2739  0.1582
  186MOL0     C24432   5.453   3.087  11.496  0.5551  0.2451  0.5696
  186MOL0     C24433   5.428   2.940  11.469  0.0288 -0.1348 -0.0374
  186MOL0     C24434   5.335   2.916  11.350 -0.3352 -0.2242 -0.3842
  186MOL0     C24435   5.187   2.955  11.374 -1.1763 -0.2182 -0.2059
  186MOL0     C24436   5.114   2.947  11.244  0.6896  0.2925  0.7113
  186MOL0     N24437   5.107   2.818  11.173  0.0790 -0.5459  0.2846
  186MOL0     C24438   5.042   2.698  11.213  0.5616 -0.0140  0.3937
  186MOL0     C24439   5.082   2.609  11.120 -0.7461  0.7121  0.3906
  186MOL0     C24440   5.051   2.455  11.143 -0.2939 -0.2489 -0.1254
  186MOL0     C24441   4.918   2.398  11.076 -0.4485  0.0009  0.1072
  186MOL0     C24442   4.903   2.254  11.123  0.0353 -0.6857  0.3527
  186MOL0     C24443   4.765   2.197  11.080 -0.1174 -0.1664 -0.7874
  186MOL0     O24444   4.665   2.245  11.167  0.0671 -0.5769  1.2937
  186MOL0     C24445   4.532   2.207  11.134  0.2677  1.0072 -0.0675
  186MOL0     C24446   4.486   2.174  11.008 -0.6839 -0.5007  0.3804
  186MOL0     C24447   4.343   2.159  10.984  0.3395  0.2281  0.2657
  186MOL0     C24448   4.242   2.178  11.082 -0.3986 -0.5877 -0.3765
  186MOL0     C24449   4.093   2.159  11.055  0.4592  0.5288 -0.4977
  186MOL0     O24450   4.006   2.106  11.159 -0.4336 -0.3794  0.5385
  186MOL0     C24451   3.874   2.090  11.133 -0.1215 -0.3477 -0.3776
  186MOL0     C24452   3.822   1.960  11.116  0.6240 -0.1159  0.3050
  186MOL0     C24453   3.682   1.945  11.096  0.6393  0.3657  0.0392
  186MOL0     C24454   3.592   2.057  11.089 -0.1880  0.4660  0.6215
  186MOL0     O24455   3.460   2.029  11.052 -0.3324  0.0189 -0.2184
  186MOL0     C24456   3.361   2.132  11.055 -0.2167 -0.8520  0.4124
  186MOL0     C24457   3.218   2.072  11.044  0.3400 -1.2879 -0.0939
  186MOL0     C24458   3.117   2.180  10.995 -0.4680  0.5489 -0.4037
  186MOL0     C24459   2.979   2.124  10.957  0.2665  0.3726 -0.2170
  186MOL0     C24460   2.891   2.236  10.892  0.6193  0.5561 -0.0534
  186MOL0     C24461   2.751   2.187  10.875 -0.1206  0.4020  0.6431
  186MOL0     C24462   2.644   2.294  10.846 -0.8882  0.3520  0.7825
  186MOL0     C24463   2.511   2.250  10.888  0.2016  0.3826  0.1976
  186MOL0    Cl24464   2.418   2.139  10.782  0.6212  0.1442 -0.4922
  186MOL0     C24465   3.650   2.181  11.109 -0.0125  0.8495 -0.0009
  186MOL0     C24466   3.784   2.196  11.141 -0.0112 -0.1142  0.2077
  186MOL0     O24467   4.053   2.216  10.961  0.1023 -0.4950  0.3157
  186MOL0     C24468   4.293   2.216  11.207 -0.5032 -0.1626  0.2275
  186MOL0     C24469   4.433   2.216  11.232  1.1602  1.1475  0.4147
  186MOL0     N24470   5.152   2.669  11.021  0.3780  0.8586 -0.1655
  186MOL0     N24471   5.173   2.788  11.051 -0.0244 -0.3307 -0.7896
  186MOL0     C24472   5.953   3.434  11.435 -0.4035  0.5879  0.6060
  186MOL0     C24473   6.013   3.476  11.324  0.2804  0.0734 -0.2878
  186MOL0     C24474   6.139   3.488  10.872  0.4399 -0.3056 -0.6027
  186MOL0     C24475   6.161   3.627  10.866 -0.0871 -0.4138 -0.0979
  186MOL0     C24476   6.229   3.678  10.752 -0.5121 -0.7942 -0.3926
  186MOL0     C24477   6.285   3.594  10.661 -0.2286 -0.0928  0.9815
  186MOL0     O24478   6.371   3.628  10.552  0.5550 -0.0720 -0.4804
  186MOL0     C24479   6.377   3.772  10.530 -0.8293  0.3161 -0.1771
  186MOL0     C24480   6.444   3.790  10.391  0.5030 -0.4269 -0.1774
  186MOL0     C24481   6.359   3.749  10.270  0.2336 -0.3794 -0.0657
  186MOL0     C24482   6.422   3.786  10.141  0.7772  0.5735 -0.0454
  186MOL0     C24483   6.557   3.727  10.134 -0.2646  0.6244  0.3929
  186MOL0     C24484   6.667   3.672  10.140 -1.0326 -0.0343  0.4553
  186MOL0     C24485   6.271   3.458  10.666  0.4268  0.1615  0.1716
  186MOL0     C24486   6.195   3.411  10.769  0.7308 -0.6099 -0.6745
  186MOL0     H24487   5.803   3.353  11.080 -2.4335  0.3097  1.3264
  186MOL0     H24488   5.694   3.277  11.281 -1.3177  2.3199 -1.3521
  186MOL0     H24489   5.584   3.359  11.445 -0.2878  0.9427 -0.3155
  186MOL0     H24490   5.625   3.445  11.597 -1.9557 -0.9386  2.1499
  186MOL0     H24491   5.465   3.285  11.686  0.2737 -0.8486  2.1890
  186MOL0     H24492   5.624   3.256  11.739 -0.2325  1.4623  0.4449
  186MOL0     H24493   5.526   3.041  11.683  0.6354 -2.5708 -1.2763
  186MOL0     H24494   5.643   3.066  11.554 -1.0294 -1.5677 -1.1878
  186MOL0     H24495   5.360   3.132  11.532  0.2742  0.5059 -0.4287
  186MOL0     H24496   5.491   3.131  11.403 -0.8181 -2.7449 -1.5950
  186MOL0     H24497   5.394   2.890  11.560  3.6407 -0.3871  1.3536
  186MOL0     H24498   5.526   2.897  11.445  0.5711  0.9212  0.2348
  186MOL0     H24499   5.339   2.807  11.340 -0.8346 -0.3375  0.5595
  186MOL0     H24500   5.367   2.966  11.257 -2.8118  0.7013 -0.8114
  186MOL0     H24501   5.135   2.890  11.444 -0.4249 -2.7780 -1.8745
  186MOL0     H24502   5.176   3.056  11.416 -2.2881 -0.2795 -0.3297
  186MOL0     H24503   5.151   3.016  11.168 -0.0923 -1.5202 -1.4269
  186MOL0     H24504   5.015   2.988  11.270  0.6514  1.6796 -1.3640
  186MOL0     H24505   4.976   2.681  11.298  2.6653  0.1631  2.1696
  186MOL0     H24506   5.046   2.435  11.250  1.7099  0.0930  0.0531
  186MOL0     H24507   5.133   2.391  11.107 -2.0592 -3.4081  1.0133
  186MOL0     H24508   4.927   2.396  10.967 -0.1831  0.2533  0.1246
  186MOL0     H24509   4.838   2.470  11.096  0.1054  1.3801 -2.2658
  186MOL0     H24510   4.978   2.196  11.068 -0.5828 -0.5836 -0.6217
  186MOL0     H24511   4.925   2.238  11.229  2.6867  0.8460  0.1047
  186MOL0     H24512   4.757   2.088  11.081 -1.5048 -0.1583  2.6914
  186MOL0     H24513   4.751   2.228  10.975 -0.4929 -2.2973 -1.4088
  186MOL0     H24514   4.549   2.178  10.920 -2.3010 -0.7470 -0.8373
  186MOL0     H24515   4.303   2.141  10.885 -2.9755 -2.8587  1.9278
  186MOL0     H24516   3.890   1.875  11.119  1.3369  0.4056 -0.5609
  186MOL0     H24517   3.644   1.846  11.072 -0.3504  0.4433  1.1589
  186MOL0     H24518   3.374   2.187  10.962 -1.4017  0.1153  0.8029
  186MOL0     H24519   3.366   2.201  11.140 -0.1434  3.4458 -2.7684
  186MOL0     H24520   3.189   2.029  11.140  1.4560  0.1277  0.9250
  186MOL0     H24521   3.223   2.002  10.960  0.6161 -0.5939 -0.6647
  186MOL0     H24522   3.153   2.229  10.905 -1.8857 -0.7130 -1.7086
  186MOL0     H24523   3.102   2.260  11.068  2.0101 -2.0973  3.4055
  186MOL0     H24524   2.991   2.047  10.881  1.7419 -0.5419  0.8853
  186MOL0     H24525   2.944   2.079  11.050  2.3517 -0.4496  0.2254
  186MOL0     H24526   2.932   2.279  10.801 -0.6991  0.0417 -0.9154
  186MOL0     H24527   2.893   2.311  10.972  0.0506  1.4116 -0.8152
  186MOL0     H24528   2.726   2.130  10.965  1.3144 -0.5686  0.4662
  186MOL0     H24529   2.754   2.122  10.787  0.7424  1.0303  0.2002
  186MOL0     H24530   2.675   2.382  10.904  2.1236 -0.4582  0.5772
  186MOL0     H24531   2.645   2.304  10.737 -0.3405 -2.8557  0.3925
  186MOL0     H24532   2.454   2.342  10.901  0.5548  0.9058 -1.6868
  186MOL0     H24533   2.524   2.210  10.989  0.3142 -0.8110 -0.2714
  186MOL0     H24534   3.594   2.272  11.092  0.5915  1.4881  1.2960
  186MOL0     H24535   3.824   2.295  11.162 -1.6691  0.8883 -1.0985
  186MOL0     H24536   4.226   2.242  11.288  0.2719  2.1219  0.1916
  186MOL0     H24537   4.475   2.245  11.328  1.1821  3.4566 -0.2235
  186MOL0     H24538   5.976   3.466  11.536 -1.1670  2.1730  0.3096
  186MOL0     H24539   6.105   3.533  11.338 -1.2704  2.7128 -0.2869
  186MOL0     H24540   6.102   3.703  10.917  2.1145  0.8402  0.6912
  186MOL0     H24541   6.229   3.786  10.742 -4.4335 -0.5114  1.0317
  186MOL0     H24542   6.449   3.818  10.599  2.6370 -2.0343 -1.9062
  186MOL0     H24543   6.285   3.827  10.549 -0.9254 -0.0770  0.5217
  186MOL0     H24544   6.480   3.892  10.376 -0.5567 -0.2712 -1.9857
  186MOL0     H24545   6.534   3.727  10.394 -0.0296 -1.1792  0.4722
  186MOL0     H24546   6.266   3.806  10.279  0.8231  0.8625 -1.3275
  186MOL0     H24547   6.341   3.641  10.273  2.9195 -0.8799  2.1270
  186MOL0     H24548   6.362   3.758  10.054  0.3657  2.1580 -0.2986
  186MOL0     H24549   6.438   3.894  10.144  0.6263  0.6303 -1.0620
  186MOL0     H24550   6.758   3.617  10.153  0.2679  1.3627 -2.0307
  186MOL0     H24551   6.309   3.389  10.592  0.9775  0.6104  0.0309
  186MOL0     H24552   6.176   3.305  10.759 -4.6431 -0.0431  0.5850
  187MOL0     O24553   6.605   5.759   9.105  0.3245 -0.3461  0.0723
  187MOL0     C24554   6.624   5.869   9.163 -0.4566 -0.5343  0.2451
  187MOL0     O24555   6.746   5.930   9.174 -0.2003 -0.2217 -0.6490
  187MOL0     C24556   6.866   5.873   9.142  1.2796  0.5473  0.2623
  187MOL0     C24557   6.971   5.962   9.116  0.4260 -0.3532  0.2341
  187MOL0     C24558   7.093   5.913   9.085  0.0296 -0.1022  0.6055
  187MOL0     C24559   7.121   5.775   9.076  0.1749  0.7423  0.9705
  187MOL0     O24560   7.237   5.732   9.029  0.0955  0.4887 -0.2791
  187MOL0     C24561   7.308   5.627   9.099  0.3519 -0.5061  0.2607
  187MOL0     C24562   7.455   5.614   9.038  0.2187 -0.4311  0.6266
  187MOL0     C24563   7.467   5.497   8.938 -0.1735 -0.1155  0.1848
  187MOL0     C24564   7.608   5.487   8.880  0.3464 -0.4070  0.4570
  187MOL0     C24565   7.596   5.448   8.731 -0.4061 -0.4020  0.3257
  187MOL0     C24566   7.719   5.370   8.678  0.1488 -1.5724  1.3629
  187MOL0     C24567   7.744   5.394   8.531  0.5967 -0.1183 -0.1571
  187MOL0     C24568   7.647   5.334   8.426  0.0680  1.0734  0.1416
  187MOL0     N24569   7.601   5.198   8.471  0.9206 -0.0655  0.1966
  187MOL0     C24570   7.471   5.174   8.528 -0.4805 -1.0449 -0.6096
  187MOL0     C24571   7.479   5.047   8.563 -0.3658  0.1209 -0.3434
  187MOL0     C24572   7.375   4.962   8.623 -0.2439 -0.2222  0.0737
  187MOL0     C24573   7.358   4.825   8.544 -0.9861  0.3734 -1.2487
  187MOL0     C24574   7.281   4.729   8.629  0.5569  0.2357  0.3011
  187MOL0     C24575   7.131   4.774   8.643 -0.4611  0.2158  0.7133
  187MOL0     O24576   7.072   4.786   8.518 -0.7635  0.0531  0.4992
  187MOL0     C24577   6.941   4.808   8.506  0.3984 -0.2696 -0.0421
  187MOL0     C24578   6.885   4.802   8.383  0.3263  0.1639  0.6532
  187MOL0     C24579   6.747   4.809   8.362 -0.3635 -0.6297  0.7803
  187MOL0     C24580   6.660   4.825   8.476  0.2663  0.0804  0.6007
  187MOL0     C24581   6.518   4.835   8.459 -0.1760 -0.4390 -0.1562
  187MOL0     O24582   6.475   4.886   8.336  0.3631 -0.3918  0.0276
  187MOL0     C24583   6.341   4.884   8.305 -0.0740 -0.2594 -0.0489
  187MOL0     C24584   6.242   4.910   8.399  0.5277  0.2702 -0.4474
  187MOL0     C24585   6.106   4.887   8.370  0.0861 -0.1250 -0.0172
  187MOL0     C24586   6.064   4.843   8.249  0.4247  0.0146  0.7940
  187MOL0     O24587   5.935   4.828   8.222  0.1105 -0.3530 -0.2120
  187MOL0     C24588   5.883   4.838   8.084  0.5744  1.6013 -0.7233
  187MOL0     C24589   5.728   4.859   8.096  0.0902 -0.3679 -0.4236
  187MOL0     C24590   5.657   4.818   7.974  0.2938  0.6209 -0.3169
  187MOL0     C24591   5.504   4.836   7.991  0.5032 -0.1028 -0.1448
  187MOL0     C24592   5.419   4.800   7.866 -0.7628  0.1506 -0.1483
  187MOL0     C24593   5.270   4.806   7.894  0.1284  0.3427 -0.2799
  187MOL0     C24594   5.210   4.941   7.904  1.1457 -0.2959  0.3477
  187MOL0     C24595   5.060   4.934   7.918 -0.6836 -0.0549  0.1475
  187MOL0    Cl24596   5.008   5.105   7.930 -0.1474  0.2463  0.0339
  187MOL0     C24597   6.166   4.818   8.153 -0.6690 -0.3806 -0.3601
  187MOL0     C24598   6.297   4.841   8.180 -0.1170 -0.4562 -0.4596
  187MOL0     O24599   6.443   4.780   8.546 -0.1859 -0.8197 -0.1162
  187MOL0     C24600   6.718   4.838   8.602 -0.0083 -0.7458 -0.0750
  187MOL0     C24601   6.858   4.822   8.622 -0.2523  0.2031  0.0283
  187MOL0     N24602   7.607   4.996   8.534  0.0594  0.6839 -0.1800
  187MOL0     N24603   7.676   5.088   8.473  0.6197  0.6784  0.6001
  187MOL0     C24604   7.018   5.683   9.112  0.3005 -0.5996 -0.1730
  187MOL0     C24605   6.894   5.735   9.138 -0.3039  0.6023 -0.7054
  187MOL0     C24606   6.500   5.940   9.218  0.2513  0.4522  0.2008
  187MOL0     C24607   6.373   5.884   9.202 -0.0257  0.3545  0.0421
  187MOL0     C24608   6.265   5.962   9.246  0.5196 -0.0612 -0.8736
  187MOL0     C24609   6.282   6.081   9.318  0.3780 -0.3868 -0.0082
  187MOL0     O24610   6.178   6.158   9.368  0.2633 -0.4204  0.5113
  187MOL0     C24611   6.052   6.109   9.428 -0.4070  0.4760 -0.3672
  187MOL0     C24612   5.946   6.093   9.332  0.3261 -0.0990 -0.0065
  187MOL0     C24613   5.814   6.046   9.401  0.2882 -0.6641 -0.4144
  187MOL0     C24614   5.705   6.017   9.308 -0.8069  0.4299  0.1257
  187MOL0     C24615   5.594   5.985   9.391 -0.5733 -1.2819  0.5522
  187MOL0     C24616   5.494   5.958   9.445  0.2757  0.0456  0.3410
  187MOL0     C24617   6.409   6.124   9.341 -0.1290 -0.8538  0.1549
  187MOL0     C24618   6.516   6.062   9.287 -0.1754  0.3333  0.9025
  187MOL0     H24619   6.943   6.066   9.129  2.1262  0.3571 -1.3410
  187MOL0     H24620   7.178   5.971   9.051  0.9496 -1.5686  0.3009
  187MOL0     H24621   7.254   5.533   9.083 -1.9184  0.6421  0.7040
  187MOL0     H24622   7.317   5.644   9.207  0.4199 -0.9727  0.3307
  187MOL0     H24623   7.523   5.589   9.120  0.1552 -0.8327  0.5635
  187MOL0     H24624   7.493   5.709   9.002  0.1668 -0.5407  0.2785
  187MOL0     H24625   7.383   5.505   8.869  0.4991 -2.3626 -0.9849
  187MOL0     H24626   7.451   5.408   9.000 -0.4797  1.7449  3.0020
  187MOL0     H24627   7.647   5.588   8.892 -3.2238  1.0523  0.7845
  187MOL0     H24628   7.674   5.422   8.939  0.1581  0.2012  1.3612
  187MOL0     H24629   7.580   5.546   8.684 -0.5297 -0.4207  0.3284
  187MOL0     H24630   7.506   5.391   8.706 -0.2018 -0.6389  0.1318
  187MOL0     H24631   7.712   5.261   8.693 -1.7580 -1.7217 -0.2474
  187MOL0     H24632   7.806   5.407   8.733  0.0144  3.3091 -1.1886
  187MOL0     H24633   7.715   5.500   8.523 -0.2600 -0.2767  0.6625
  187MOL0     H24634   7.850   5.387   8.506  0.4706  1.9242 -1.5563
  187MOL0     H24635   7.700   5.308   8.334  0.0580 -2.5240  0.9992
  187MOL0     H24636   7.568   5.409   8.411 -0.5342  1.1226  2.9687
  187MOL0     H24637   7.390   5.242   8.551  0.3492  0.1751 -1.1781
  187MOL0     H24638   7.289   5.026   8.646  1.4682  1.6851  1.6318
  187MOL0     H24639   7.410   4.941   8.724  0.6633  2.1881  0.3271
  187MOL0     H24640   7.454   4.775   8.532 -0.5596  1.3619 -2.0693
  187MOL0     H24641   7.312   4.848   8.448 -0.5633 -0.2171 -1.6001
  187MOL0     H24642   7.294   4.626   8.594 -2.1715 -0.1385  0.1613
  187MOL0     H24643   7.332   4.725   8.726  1.0479  0.7022  0.0664
  187MOL0     H24644   7.127   4.875   8.686  1.2055  2.5281 -3.9483
  187MOL0     H24645   7.078   4.701   8.706 -1.5903 -1.3999 -1.9413
  187MOL0     H24646   6.954   4.788   8.300  2.3963 -2.5082  2.6416
  187MOL0     H24647   6.696   4.808   8.266  0.1727 -1.9900  0.4833
  187MOL0     H24648   6.271   4.941   8.499  1.8854 -0.7960 -0.4799
  187MOL0     H24649   6.036   4.879   8.453 -1.4522 -1.0473 -1.3406
  187MOL0     H24650   5.909   4.744   8.033  1.0630  0.3215  1.7212
  187MOL0     H24651   5.936   4.920   8.035  0.8948  1.3189 -0.8568
  187MOL0     H24652   5.714   4.965   8.119  0.3040 -0.3735 -0.2565
  187MOL0     H24653   5.687   4.808   8.183 -0.4709 -0.6938 -0.8804
  187MOL0     H24654   5.681   4.712   7.960  0.2449  0.3059  1.6973
  187MOL0     H24655   5.694   4.879   7.891  0.4047  2.2555  0.8937
  187MOL0     H24656   5.465   4.782   8.078 -2.3116 -0.5517 -1.5547
  187MOL0     H24657   5.490   4.943   8.012  0.8678 -0.1360  0.2608
  187MOL0     H24658   5.459   4.699   7.860  0.8929  0.6674  1.3626
  187MOL0     H24659   5.441   4.859   7.776  0.2628  1.1507  0.7260
  187MOL0     H24660   5.266   4.752   7.989  0.8182 -1.0221 -0.9909
  187MOL0     H24661   5.226   4.749   7.812  0.0278  0.0452 -0.0187
  187MOL0     H24662   5.252   4.998   7.988 -0.9235 -2.1603  2.8126
  187MOL0     H24663   5.221   4.998   7.811 -5.4362  0.3917 -0.4616
  187MOL0     H24664   5.027   4.883   8.009  1.0173  0.0157  0.8441
  187MOL0     H24665   5.013   4.886   7.832  1.6037 -2.2183 -0.0092
  187MOL0     H24666   6.131   4.775   8.060  0.0763 -0.3399 -0.6630
  187MOL0     H24667   6.365   4.831   8.096  1.4645  3.7562  0.0827
  187MOL0     H24668   6.663   4.841   8.695  0.8567  2.4151  0.4655
  187MOL0     H24669   6.899   4.811   8.722  1.6688  1.1250 -0.6113
  187MOL0     H24670   7.023   5.575   9.113 -1.1027 -0.6908  0.9758
  187MOL0     H24671   6.812   5.666   9.156  1.6461 -1.9222 -0.9018
  187MOL0     H24672   6.368   5.789   9.149 -1.9508  1.2140 -1.4383
  187MOL0     H24673   6.172   5.909   9.227  0.1053  0.6471 -0.8717
  187MOL0     H24674   6.018   6.189   9.494 -1.1892  2.3167 -2.8519
  187MOL0     H24675   6.065   6.026   9.498 -2.4980  0.8388  0.5303
  187MOL0     H24676   5.929   6.182   9.270 -0.8405 -0.0714  0.3264
  187MOL0     H24677   5.975   6.011   9.265 -1.0128 -3.5230  3.2408
  187MOL0     H24678   5.785   6.123   9.473  1.0409 -1.4090  0.7244
  187MOL0     H24679   5.835   5.955   9.457 -0.8377 -0.9354 -0.4169
  187MOL0     H24680   5.676   6.099   9.242  0.8470 -0.9051 -2.4385
  187MOL0     H24681   5.733   5.933   9.243 -0.5067  0.2710  0.4565
  187MOL0     H24682   5.397   5.918   9.468 -0.4439 -0.7087 -3.3693
  187MOL0     H24683   6.425   6.212   9.403 -0.4011  0.6983 -1.8519
  187MOL0     H24684   6.615   6.105   9.300 -0.3919  1.0948  0.1017
  188MOL0     O24685   4.773   3.235   3.438  0.3294 -0.6756 -0.5281
  188MOL0     C24686   4.769   3.234   3.561  0.4950 -1.3362  0.2668
  188MOL0     O24687   4.664   3.193   3.638 -0.4920  0.5820 -0.7504
  188MOL0     C24688   4.545   3.166   3.570  0.6853  0.3588 -0.0742
  188MOL0     C24689   4.458   3.069   3.613  0.2095  0.1584 -0.0043
  188MOL0     C24690   4.325   3.069   3.571 -0.2424  0.3568  0.3483
  188MOL0     C24691   4.270   3.160   3.477 -0.3048  0.0466  0.6767
  188MOL0     O24692   4.137   3.138   3.451 -0.4442  0.1257  0.1194
  188MOL0     C24693   4.100   3.145   3.315 -0.8210 -0.6971  0.3681
  188MOL0     C24694   3.979   3.063   3.311 -0.0017  0.0984 -0.6419
  188MOL0     C24695   3.852   3.137   3.367 -0.2367  0.2700 -0.5000
  188MOL0     C24696   3.726   3.062   3.318  0.7406  0.0956 -0.1359
  188MOL0     C24697   3.602   3.139   3.309 -0.6789  0.3321  0.1820
  188MOL0     C24698   3.549   3.187   3.451 -0.4905  0.7471 -0.0755
  188MOL0     C24699   3.397   3.217   3.465  0.3205  0.0135  0.2297
  188MOL0     C24700   3.367   3.376   3.454 -0.0217  0.6927 -1.0323
  188MOL0     N24701   3.383   3.427   3.313 -0.3460  0.1131  0.8306
  188MOL0     C24702   3.400   3.561   3.283  0.5513 -0.6453  0.1423
  188MOL0     C24703   3.404   3.566   3.144  0.1603  0.5845 -0.7825
  188MOL0     C24704   3.403   3.691   3.057 -0.2706 -0.8804 -0.4998
  188MOL0     C24705   3.546   3.733   3.025  0.1314 -0.0275 -0.2936
  188MOL0     C24706   3.534   3.826   2.905  0.0852  0.1071 -0.2029
  188MOL0     C24707   3.669   3.846   2.839 -0.9028 -0.7865 -0.0558
  188MOL0     O24708   3.783   3.847   2.933  1.2866 -0.3844 -0.3491
  188MOL0     C24709   3.910   3.848   2.876  0.3990 -0.2819  0.3399
  188MOL0     C24710   3.934   3.897   2.747  0.3624 -0.0564  0.0384
  188MOL0     C24711   4.065   3.916   2.702  0.0402  0.0644  0.0168
  188MOL0     C24712   4.167   3.881   2.790 -0.4989 -0.6780  0.4456
  188MOL0     C24713   4.305   3.938   2.759  0.4923 -0.3451 -0.2328
  188MOL0     O24714   4.411   3.893   2.835  0.5549 -0.8278  0.0552
  188MOL0     C24715   4.546   3.933   2.808 -0.3195  0.3950  0.0881
  188MOL0     C24716   4.577   4.069   2.769  0.4308 -0.3240 -0.0318
  188MOL0     C24717   4.709   4.100   2.743  0.0564  0.7879 -0.0428
  188MOL0     C24718   4.816   4.009   2.759 -0.8394  0.4495  0.0482
  188MOL0     O24719   4.946   4.036   2.741 -0.0623  0.2425  0.3261
  188MOL0     C24720   5.000   4.156   2.808  0.0436 -0.4523  0.3566
  188MOL0     C24721   5.153   4.147   2.843  0.6609  0.6878 -0.7288
  188MOL0     C24722   5.182   4.058   2.964  0.1766  0.6401  0.4468
  188MOL0     C24723   5.335   4.031   2.970  0.3812  0.4544 -0.2590
  188MOL0     C24724   5.379   3.916   2.877  1.1126  0.9264  0.1543
  188MOL0     C24725   5.515   3.871   2.919 -1.4390  0.2253 -0.2280
  188MOL0     C24726   5.563   3.744   2.854  0.6503 -0.4367  0.0682
  188MOL0     C24727   5.617   3.787   2.719  0.2311 -0.2394 -0.2372
  188MOL0    Cl24728   5.627   3.644   2.614  0.0067 -0.0735  0.2910
  188MOL0     C24729   4.784   3.876   2.797 -0.1390 -0.2090 -0.1205
  188MOL0     C24730   4.651   3.840   2.821  0.4910 -1.6555  0.3382
  188MOL0     O24731   4.320   3.986   2.648  0.0718  0.1397 -0.1819
  188MOL0     C24732   4.145   3.828   2.921  0.3201 -0.9186  1.0031
  188MOL0     C24733   4.010   3.811   2.965 -1.0502 -0.1992  0.0665
  188MOL0     N24734   3.392   3.433   3.104 -0.0279  0.2203  0.1786
  188MOL0     N24735   3.393   3.352   3.202  0.1430 -0.2778  1.2268
  188MOL0     C24736   4.354   3.258   3.423 -0.5397  0.4537 -0.4707
  188MOL0     C24737   4.497   3.255   3.469  0.6211 -0.3496 -0.0297
  188MOL0     C24738   4.883   3.295   3.624 -0.5942 -0.5760  0.1088
  188MOL0     C24739   4.991   3.340   3.546 -0.3678 -0.6235 -0.3573
  188MOL0     C24740   5.095   3.416   3.606  0.0614 -0.3014 -0.2813
  188MOL0     C24741   5.085   3.446   3.737 -0.0625 -0.8120 -0.9859
  188MOL0     O24742   5.188   3.527   3.789  0.0332 -0.5302 -0.6982
  188MOL0     C24743   5.266   3.614   3.713  0.0752 -0.7124  0.3428
  188MOL0     C24744   5.183   3.722   3.651  0.3590 -0.1615  0.2739
  188MOL0     C24745   5.258   3.817   3.553 -0.8099 -0.1145 -0.6562
  188MOL0     C24746   5.171   3.905   3.471 -0.2546  0.0332  0.1278
  188MOL0     C24747   5.079   3.980   3.549  0.5022 -0.6213  0.0832
  188MOL0     C24748   5.037   4.065   3.625 -0.4783 -0.4110  0.1013
  188MOL0     C24749   4.978   3.402   3.817 -0.8061 -0.3535  1.1129
  188MOL0     C24750   4.874   3.327   3.758 -0.1555  0.2371  0.6123
  188MOL0     H24751   4.486   2.989   3.681 -1.1702 -0.1300  0.2638
  188MOL0     H24752   4.258   2.991   3.605 -2.1720  1.3895 -0.8940
  188MOL0     H24753   4.179   3.094   3.259 -0.2449 -1.5825  1.9430
  188MOL0     H24754   4.081   3.245   3.274  1.6205 -0.0591  0.6189
  188MOL0     H24755   3.997   2.969   3.364 -3.5743 -0.3491  0.0546
  188MOL0     H24756   3.959   3.034   3.207 -0.7455 -0.3409 -0.3908
  188MOL0     H24757   3.846   3.231   3.310 -1.9512  1.3728  1.3779
  188MOL0     H24758   3.840   3.159   3.473 -0.4106  0.2683 -0.5190
  188MOL0     H24759   3.750   3.028   3.217  2.2449 -0.5236  0.4008
  188MOL0     H24760   3.712   2.976   3.385 -0.7689 -0.2395 -0.8202
  188MOL0     H24761   3.529   3.069   3.268 -1.6054 -1.5584  4.5585
  188MOL0     H24762   3.617   3.220   3.237 -1.0900 -0.6405 -1.0541
  188MOL0     H24763   3.613   3.265   3.490 -0.9853  2.5765 -2.6834
  188MOL0     H24764   3.564   3.104   3.522  0.7948  0.5436 -0.5605
  188MOL0     H24765   3.343   3.168   3.383  0.8271 -1.6384  0.8393
  188MOL0     H24766   3.360   3.191   3.565  1.1326 -0.9973  0.2735
  188MOL0     H24767   3.397   3.438   3.539 -1.9802  0.0041  0.2216
  188MOL0     H24768   3.259   3.376   3.470  0.0065 -1.8863 -0.3024
  188MOL0     H24769   3.394   3.652   3.342  0.9195  0.7383 -1.8435
  188MOL0     H24770   3.353   3.769   3.115 -2.2472 -3.1049  0.9726
  188MOL0     H24771   3.342   3.669   2.968 -0.8094 -1.9796  0.1160
  188MOL0     H24772   3.612   3.647   3.008  2.0757  1.6487 -1.8027
  188MOL0     H24773   3.576   3.790   3.113 -0.6937 -1.7215  1.1336
  188MOL0     H24774   3.466   3.788   2.829 -1.5607 -0.6229  1.5545
  188MOL0     H24775   3.503   3.923   2.946  0.2332  0.4696 -0.9244
  188MOL0     H24776   3.663   3.944   2.790 -1.4397 -1.5513 -1.5776
  188MOL0     H24777   3.678   3.771   2.761 -2.4835 -1.6373  0.5305
  188MOL0     H24778   3.857   3.937   2.681  0.2748  1.8255  1.1976
  188MOL0     H24779   4.090   3.947   2.601 -0.5805 -0.3836 -0.2794
  188MOL0     H24780   4.499   4.144   2.781  1.3640  0.3479  2.6513
  188MOL0     H24781   4.734   4.205   2.727  0.8195  0.3793 -1.7808
  188MOL0     H24782   4.938   4.188   2.892 -0.4685 -3.6187  1.3475
  188MOL0     H24783   4.987   4.236   2.734 -0.1195 -1.0876 -0.3177
  188MOL0     H24784   5.186   4.251   2.849 -3.5078  2.1341  0.3475
  188MOL0     H24785   5.203   4.111   2.753 -1.3441 -0.0322 -1.6320
  188MOL0     H24786   5.127   3.964   2.957 -0.9501  1.1102  2.2802
  188MOL0     H24787   5.143   4.118   3.047  1.2932 -1.5839  2.7010
  188MOL0     H24788   5.392   4.122   2.952 -0.0494  1.5496  3.1939
  188MOL0     H24789   5.352   3.996   3.072 -0.3426  0.1132 -0.2480
  188MOL0     H24790   5.377   3.957   2.775 -0.4052 -1.2327 -0.7692
  188MOL0     H24791   5.310   3.831   2.882 -1.0249  2.3614 -2.2602
  188MOL0     H24792   5.521   3.846   3.025  2.3023  0.3679 -0.2895
  188MOL0     H24793   5.590   3.950   2.911 -1.7305  0.8683  2.3426
  188MOL0     H24794   5.647   3.700   2.909  0.0309 -0.0920  1.3216
  188MOL0     H24795   5.488   3.665   2.845  0.0998 -0.2234  2.3477
  188MOL0     H24796   5.718   3.829   2.732 -0.4129  1.1872  0.3179
  188MOL0     H24797   5.539   3.850   2.676 -0.1839  0.6927  1.7754
  188MOL0     H24798   4.862   3.802   2.805  1.0288  0.6952 -2.3038
  188MOL0     H24799   4.632   3.737   2.850 -1.3108 -1.3334  0.4324
  188MOL0     H24800   4.233   3.802   2.979  2.2481 -0.3007 -1.4712
  188MOL0     H24801   3.995   3.782   3.069  4.9663 -0.4891  1.2280
  188MOL0     H24802   4.313   3.321   3.346 -1.1485  1.9811  1.0365
  188MOL0     H24803   4.560   3.326   3.417  0.9216 -0.8344 -0.3248
  188MOL0     H24804   4.993   3.316   3.441 -1.0150  0.4945 -0.6413
  188MOL0     H24805   5.179   3.437   3.541  0.3161 -0.3607  0.0299
  188MOL0     H24806   5.311   3.552   3.635  0.4186  1.6560 -1.4913
  188MOL0     H24807   5.362   3.646   3.755  1.1730 -0.2100 -2.3613
  188MOL0     H24808   5.082   3.698   3.616  0.7960  0.6311 -1.6646
  188MOL0     H24809   5.163   3.789   3.734 -0.0567 -2.5633  2.2212
  188MOL0     H24810   5.317   3.751   3.488 -0.7601  1.2014 -2.0115
  188MOL0     H24811   5.336   3.871   3.607  0.1325 -0.8542 -1.2390
  188MOL0     H24812   5.237   3.970   3.413  0.0022  2.5489  2.9870
  188MOL0     H24813   5.114   3.841   3.404  2.3073 -1.3538 -0.8668
  188MOL0     H24814   5.018   4.136   3.703  3.2501 -0.1092  0.9447
  188MOL0     H24815   4.977   3.434   3.921  0.3107 -0.6975  1.2373
  188MOL0     H24816   4.794   3.292   3.823 -1.6434  1.2405 -0.6092
  189MOL0     O24817   5.841  10.626   6.363  0.0105  0.3853  0.3047
  189MOL0     C24818   5.843  10.602   6.481  1.3597 -0.3517 -0.5339
  189MOL0     O24819   5.729  10.585   6.546  0.3573  0.5923 -0.3228
  189MOL0     C24820   5.602  10.608   6.493  0.0889  0.3039 -0.3171
  189MOL0     C24821   5.554  10.730   6.447  0.4928  0.1412 -0.0623
  189MOL0     C24822   5.422  10.745   6.414  0.2416  0.2260 -0.0454
  189MOL0     C24823   5.338  10.634   6.407 -0.3056 -0.0255 -0.1941
  189MOL0     O24824   5.215  10.646   6.350 -0.0906  0.5564  0.3709
  189MOL0     C24825   5.118  10.538   6.352  0.7802  0.3572 -0.3006
  189MOL0     C24826   4.971  10.581   6.344  0.3896 -0.3784 -0.0011
  189MOL0     C24827   4.883  10.458   6.378  0.1496 -0.1789  0.3182
  189MOL0     C24828   4.743  10.505   6.380 -0.4940  0.1393  0.9826
  189MOL0     C24829   4.631  10.390   6.382  0.3881 -0.1146  0.5818
  189MOL0     C24830   4.481  10.441   6.360 -0.7786  0.5655 -0.5396
  189MOL0     C24831   4.445  10.542   6.481 -0.1106  0.3622  0.7909
  189MOL0     C24832   4.307  10.605   6.476 -0.0679  0.0009 -0.2550
  189MOL0     N24833   4.214  10.496   6.442 -0.6778 -0.8244  0.1118
  189MOL0     C24834   4.148  10.415   6.532 -0.3738  0.4298  0.0031
  189MOL0     C24835   4.071  10.331   6.451  0.0677 -0.2539  0.0504
  189MOL0     C24836   3.992  10.215   6.504  0.3060 -0.3622 -0.0588
  189MOL0     C24837   3.846  10.250   6.523  0.4546 -0.0608 -0.1450
  189MOL0     C24838   3.753  10.230   6.396  0.3514 -0.2996 -0.1208
  189MOL0     C24839   3.621  10.301   6.410 -0.1780  0.1432  0.5677
  189MOL0     O24840   3.546  10.217   6.504  0.3337 -0.6122 -0.0154
  189MOL0     C24841   3.410  10.246   6.508 -0.0613  0.1234  0.8139
  189MOL0     C24842   3.337  10.134   6.550  0.1632 -0.3368  0.2402
  189MOL0     C24843   3.202  10.153   6.557 -0.3538  0.2878  0.0416
  189MOL0     C24844   3.136  10.267   6.540 -0.3150  0.1984  1.0232
  189MOL0     C24845   2.991  10.272   6.547 -0.3799 -0.5715  0.1259
  189MOL0     O24846   2.917  10.172   6.588 -0.1967 -0.1014 -0.4648
  189MOL0     C24847   2.796  10.191   6.648 -0.0281  0.4565  0.4634
  189MOL0     C24848   2.687  10.110   6.610 -0.4810 -0.0991 -0.2436
  189MOL0     C24849   2.564  10.113   6.676 -0.4652 -1.0512 -0.0424
  189MOL0     C24850   2.542  10.211   6.775  0.2278  0.2668 -0.3973
  189MOL0     O24851   2.422  10.209   6.856 -0.7766 -0.5856 -0.2490
  189MOL0     C24852   2.367  10.080   6.898  0.7120 -0.2341 -0.8940
  189MOL0     C24853   2.236  10.098   6.988 -0.7931  0.7556  0.3477
  189MOL0     C24854   2.131  10.178   6.893  0.2506  0.6639  0.0168
  189MOL0     C24855   1.985  10.148   6.930  0.0512 -0.8132 -0.9456
  189MOL0     C24856   1.871  10.250   6.881 -0.1484 -0.4312 -0.1228
  189MOL0     C24857   1.728  10.204   6.920 -1.4897 -0.1313  0.4639
  189MOL0     C24858   1.608  10.295   6.863 -0.6007 -0.5244  0.2113
  189MOL0     C24859   1.469  10.224   6.856  0.6238  0.0913 -1.1778
  189MOL0    Cl24860   1.437  10.151   7.018 -0.2193  0.0187 -0.4950
  189MOL0     C24861   2.646  10.295   6.817  0.3231 -0.0667  0.0301
  189MOL0     C24862   2.767  10.286   6.753  0.0002  0.2984  0.4004
  189MOL0     O24863   2.940  10.379   6.509  0.0294 -0.0471  0.5395
  189MOL0     C24864   3.216  10.387   6.517 -0.9043  0.0800 -0.4804
  189MOL0     C24865   3.354  10.372   6.491  0.1804 -0.2328 -0.1406
  189MOL0     N24866   4.074  10.383   6.322 -0.7291 -0.9661 -0.1171
  189MOL0     N24867   4.160  10.480   6.315 -0.3532 -0.0767 -0.6801
  189MOL0     C24868   5.391  10.511   6.467 -0.0705  0.0060 -0.0195
  189MOL0     C24869   5.530  10.498   6.500 -0.4322 -0.2437 -0.7578
  189MOL0     C24870   5.963  10.589   6.560  0.1545 -0.1716  0.5968
  189MOL0     C24871   6.088  10.584   6.498  0.2901  0.2014  0.0820
  189MOL0     C24872   6.207  10.543   6.566  0.4440  0.4941 -0.1462
  189MOL0     C24873   6.197  10.529   6.704  0.3649 -0.3586  0.0122
  189MOL0     O24874   6.304  10.519   6.792  0.3573  0.8521 -0.2343
  189MOL0     C24875   6.424  10.477   6.738  0.1827 -0.2727  0.7150
  189MOL0     C24876   6.408  10.332   6.684 -0.3906  0.1475  0.2657
  189MOL0     C24877   6.328  10.242   6.770  0.7870 -0.4853  1.1081
  189MOL0     C24878   6.339  10.087   6.754 -0.5484 -0.1769  0.2116
  189MOL0     C24879   6.326  10.053   6.616  0.0276  0.1119  0.1753
  189MOL0     C24880   6.319  10.023   6.500 -0.9407  0.6233  0.4319
  189MOL0     C24881   6.070  10.540   6.768 -0.3865  0.4677 -0.7147
  189MOL0     C24882   5.951  10.573   6.693  0.0816  0.1668  0.3869
  189MOL0     H24883   5.617  10.817   6.434  2.3914 -0.9516  1.3703
  189MOL0     H24884   5.384  10.843   6.390  0.2673 -0.2656 -2.3377
  189MOL0     H24885   5.127  10.487   6.448  0.1898  2.4105  0.9059
  189MOL0     H24886   5.148  10.459   6.282 -3.9315 -1.9164 -0.1362
  189MOL0     H24887   4.943  10.608   6.241  0.5815  0.0958  0.0684
  189MOL0     H24888   4.965  10.665   6.413  0.0207  0.3062 -0.8510
  189MOL0     H24889   4.912  10.410   6.472 -0.8159 -0.0075  0.7217
  189MOL0     H24890   4.902  10.381   6.303 -1.5340  0.2841 -0.6329
  189MOL0     H24891   4.733  10.572   6.466  0.2445 -1.0499  2.0342
  189MOL0     H24892   4.713  10.558   6.289 -2.5761 -1.6362  0.5401
  189MOL0     H24893   4.640  10.333   6.475 -1.4457 -1.5375 -0.0432
  189MOL0     H24894   4.658  10.320   6.302 -0.8403  0.3178 -0.2492
  189MOL0     H24895   4.412  10.356   6.366 -2.4250  1.9357  2.1294
  189MOL0     H24896   4.473  10.488   6.262 -0.8670 -0.0029 -0.8097
  189MOL0     H24897   4.438  10.481   6.572  0.4879  1.0981  1.3400
  189MOL0     H24898   4.528  10.613   6.492  1.3268 -1.0143 -0.6165
  189MOL0     H24899   4.294  10.680   6.398 -0.7524 -0.6001 -0.7324
  189MOL0     H24900   4.296  10.654   6.573  1.2816 -0.0193 -0.0619
  189MOL0     H24901   4.168  10.393   6.637 -0.5985 -1.9940 -0.4009
  189MOL0     H24902   4.039  10.194   6.600 -0.3679  3.1493  1.1531
  189MOL0     H24903   3.994  10.121   6.446  3.4106 -0.7433  0.4978
  189MOL0     H24904   3.846  10.354   6.560  2.4142 -0.1363  0.1708
  189MOL0     H24905   3.808  10.194   6.609 -0.1664  3.0756  1.8168
  189MOL0     H24906   3.804  10.275   6.310  0.2141 -0.9116 -0.5263
  189MOL0     H24907   3.737  10.124   6.378 -0.5374 -0.1008 -0.5424
  189MOL0     H24908   3.565  10.297   6.316 -0.4395 -2.9895  0.7625
  189MOL0     H24909   3.638  10.403   6.445  1.8090 -0.8248  2.6877
  189MOL0     H24910   3.392  10.042   6.567 -1.5280 -1.7025 -1.2734
  189MOL0     H24911   3.147  10.060   6.573  1.4504 -0.6628  1.1185
  189MOL0     H24912   2.698  10.022   6.546  0.1182  1.2013 -1.9956
  189MOL0     H24913   2.483  10.048   6.645  1.0509 -1.3003 -4.2258
  189MOL0     H24914   2.440  10.018   6.949 -1.9004 -2.2307  0.6733
  189MOL0     H24915   2.333  10.040   6.802  0.1151  0.2058 -0.8729
  189MOL0     H24916   2.250  10.142   7.087  0.1366  0.4260  0.3681
  189MOL0     H24917   2.185  10.002   7.001 -1.0279  1.2136  3.2916
  189MOL0     H24918   2.157  10.173   6.787  1.2817  1.6166  0.2109
  189MOL0     H24919   2.157  10.281   6.920 -0.4836  0.5987  1.0229
  189MOL0     H24920   1.960  10.045   6.904  1.5476 -1.0214 -1.6610
  189MOL0     H24921   1.978  10.137   7.039 -0.1969  0.3364 -0.8375
  189MOL0     H24922   1.893  10.252   6.774 -1.4541  0.8926 -0.4008
  189MOL0     H24923   1.886  10.350   6.924  0.6128  0.0831 -1.5051
  189MOL0     H24924   1.706  10.178   7.023 -6.6782 -1.9616 -0.7945
  189MOL0     H24925   1.712  10.106   6.872  1.4606 -0.9540  0.9285
  189MOL0     H24926   1.600  10.380   6.932 -0.4458  1.2354 -1.8301
  189MOL0     H24927   1.643  10.343   6.771 -1.7832  0.8221  0.4266
  189MOL0     H24928   1.468  10.137   6.789  1.8846 -0.2637 -0.7689
  189MOL0     H24929   1.390  10.290   6.819  2.1228  3.6289  1.3243
  189MOL0     H24930   2.641  10.359   6.905 -0.3434 -0.7319  0.4900
  189MOL0     H24931   2.847  10.348   6.793 -1.0269  1.5315  0.5865
  189MOL0     H24932   3.179  10.487   6.534 -2.3151 -0.5272  0.2436
  189MOL0     H24933   3.419  10.455   6.465  3.3950 -2.5091 -0.0221
  189MOL0     H24934   5.345  10.414   6.478  2.8421 -1.1659  3.7508
  189MOL0     H24935   5.552  10.406   6.553  2.9238  0.0710 -1.4270
  189MOL0     H24936   6.104  10.614   6.395 -1.1027  1.0692  0.0886
  189MOL0     H24937   6.293  10.524   6.502  0.5731  0.0007  0.1702
  189MOL0     H24938   6.504  10.479   6.812 -0.8825  3.2916  1.9629
  189MOL0     H24939   6.458  10.552   6.666  1.7677 -1.5141  0.1014
  189MOL0     H24940   6.371  10.344   6.582  0.2370 -0.2448 -0.0196
  189MOL0     H24941   6.504  10.284   6.661 -1.5282 -1.7228 -0.8318
  189MOL0     H24942   6.227  10.264   6.735  0.2346 -0.5479  2.6042
  189MOL0     H24943   6.342  10.271   6.874  3.1944  0.9601  0.4641
  189MOL0     H24944   6.433  10.049   6.796 -0.6819  0.4131  1.0452
  189MOL0     H24945   6.256  10.043   6.810 -1.4629  2.0264  0.6946
  189MOL0     H24946   6.338   9.997   6.397 -2.8630 -2.0013  0.6373
  189MOL0     H24947   6.062  10.538   6.877 -0.6111 -1.4538 -0.7314
  189MOL0     H24948   5.854  10.586   6.739  0.1362 -0.0869  0.5745
  190MOL0     O24949   2.797   8.865   6.355 -0.3450 -0.5587 -0.6801
  190MOL0     C24950   2.819   8.796   6.455  0.6165 -0.1459 -0.0123
  190MOL0     O24951   2.724   8.720   6.515 -0.3313 -0.6400  0.6839
  190MOL0     C24952   2.586   8.743   6.478 -0.8474 -0.1207  0.2375
  190MOL0     C24953   2.521   8.660   6.382  0.0157 -0.1570  0.1967
  190MOL0     C24954   2.398   8.693   6.331 -0.0996  0.9356 -0.0570
  190MOL0     C24955   2.324   8.803   6.387  0.0009  0.2345  0.5869
  190MOL0     O24956   2.188   8.820   6.363  0.2953 -0.3172 -0.2830
  190MOL0     C24957   2.105   8.712   6.339  0.4449  0.8788  0.4277
  190MOL0     C24958   1.957   8.747   6.369 -0.2099  0.7209  0.1371
  190MOL0     C24959   1.872   8.623   6.348  0.9242  0.1022  0.0776
  190MOL0     C24960   1.724   8.652   6.386  0.4736 -0.5340  0.9275
  190MOL0     C24961   1.644   8.524   6.402  0.4252  0.2335  0.2906
  190MOL0     C24962   1.510   8.565   6.456  0.9905  0.2481  0.1483
  190MOL0     C24963   1.400   8.458   6.427  0.3689 -0.1633  0.3045
  190MOL0     C24964   1.394   8.347   6.534 -0.7718 -0.4138 -0.1854
  190MOL0     N24965   1.269   8.280   6.548 -0.8992  0.1462  0.0910
  190MOL0     C24966   1.151   8.349   6.561  0.3409  0.8052  0.2550
  190MOL0     C24967   1.059   8.254   6.593  0.2399 -0.2752 -0.0913
  190MOL0     C24968   0.907   8.282   6.601  0.5891  0.6543  0.5066
  190MOL0     C24969   0.862   8.274   6.746  0.1507 -0.4529 -1.2149
  190MOL0     C24970   0.900   8.400   6.823 -0.0619 -0.1134 -0.3327
  190MOL0     C24971   0.886   8.377   6.972  0.5597 -0.3796  0.6164
  190MOL0     O24972   1.004   8.327   7.041 -0.2868  0.1085 -0.9577
  190MOL0     C24973   1.126   8.360   6.999 -0.0833 -0.3006  0.8082
  190MOL0     C24974   1.221   8.263   6.976 -0.3085  0.2687  0.2282
  190MOL0     C24975   1.351   8.302   6.933  0.6893  0.5548  0.2159
  190MOL0     C24976   1.377   8.438   6.913  0.2504  0.5505 -0.4070
  190MOL0     C24977   1.506   8.483   6.856 -1.3108  0.2784 -0.0873
  190MOL0     O24978   1.586   8.380   6.818 -0.3552 -0.1760  0.5994
  190MOL0     C24979   1.722   8.401   6.785 -0.5362  0.3293  0.2429
  190MOL0     C24980   1.807   8.518   6.783 -0.4431 -0.5318 -0.7278
  190MOL0     C24981   1.945   8.506   6.748 -0.2958  0.5564  0.5020
  190MOL0     C24982   2.003   8.383   6.721  0.5724 -0.1417  0.3857
  190MOL0     O24983   2.132   8.369   6.691 -0.0476 -0.0428 -0.5252
  190MOL0     C24984   2.216   8.491   6.690 -0.7616 -0.6043 -0.1242
  190MOL0     C24985   2.360   8.462   6.668  0.2101  0.1635  0.3864
  190MOL0     C24986   2.411   8.360   6.760 -0.3330 -0.3246 -0.7732
  190MOL0     C24987   2.562   8.357   6.748  0.3590  0.3205 -0.0368
  190MOL0     C24988   2.621   8.262   6.853 -0.1224  0.1468  0.2754
  190MOL0     C24989   2.750   8.326   6.897  0.2354 -0.4210  0.8651
  190MOL0     C24990   2.819   8.239   7.015 -0.5673 -0.6539  0.1674
  190MOL0     C24991   2.970   8.286   7.018 -0.8059  0.6639 -0.5080
  190MOL0    Cl24992   2.994   8.464   7.033 -0.2787 -0.3210  0.0071
  190MOL0     C24993   1.915   8.274   6.719  1.0176  0.5308  0.4043
  190MOL0     C24994   1.779   8.279   6.747 -1.0207 -0.1947 -0.0015
  190MOL0     O24995   1.524   8.597   6.841  0.1776 -0.7721 -0.3851
  190MOL0     C24996   1.282   8.535   6.944  0.1695  0.0256 -0.5585
  190MOL0     C24997   1.159   8.495   6.996 -0.0682 -0.4727  0.0410
  190MOL0     N24998   1.122   8.129   6.587 -0.8099  0.0665 -1.0896
  190MOL0     N24999   1.246   8.152   6.552  0.7147  0.5438 -0.6370
  190MOL0     C25000   2.377   8.879   6.487 -0.4914 -0.1746 -0.9047
  190MOL0     C25001   2.512   8.858   6.531  0.0443  0.2476  0.5437
  190MOL0     C25002   2.959   8.770   6.493  1.3120 -0.3490 -0.2768
  190MOL0     C25003   2.993   8.680   6.593  0.5435 -0.4283 -0.7113
  190MOL0     C25004   3.128   8.651   6.619  0.0291 -0.5219 -0.4162
  190MOL0     C25005   3.234   8.719   6.549 -1.0442 -0.5238 -0.0268
  190MOL0     O25006   3.362   8.687   6.590  0.2460 -0.4737  0.0803
  190MOL0     C25007   3.476   8.764   6.563  0.6065  0.5029  0.7483
  190MOL0     C25008   3.495   8.879   6.671  0.2738  0.8509 -0.3130
  190MOL0     C25009   3.631   8.952   6.646 -0.0622 -0.5871  0.0842
  190MOL0     C25010   3.741   8.865   6.718  0.0489 -1.0736 -1.0544
  190MOL0     C25011   3.868   8.916   6.670 -0.4530 -1.0573  0.4795
  190MOL0     C25012   3.973   8.972   6.625  0.8733  0.5694  0.0038
  190MOL0     C25013   3.193   8.806   6.443  0.5783 -0.5531 -0.0718
  190MOL0     C25014   3.060   8.828   6.411 -0.5561 -0.3014 -0.3608
  190MOL0     H25015   2.580   8.577   6.344  1.7473  1.1342 -0.0514
  190MOL0     H25016   2.359   8.625   6.256  1.5369  0.7526 -0.7934
  190MOL0     H25017   2.134   8.632   6.407  1.2959 -1.4165 -2.4187
  190MOL0     H25018   2.107   8.668   6.239  0.3267  1.2735  0.2479
  190MOL0     H25019   1.934   8.817   6.288  0.6327 -0.5161 -1.2258
  190MOL0     H25020   1.959   8.797   6.467  1.2006  1.7127 -0.3628
  190MOL0     H25021   1.909   8.544   6.415 -0.0194 -0.3384  0.0948
  190MOL0     H25022   1.884   8.592   6.244 -0.5361  2.3025 -0.8206
  190MOL0     H25023   1.731   8.693   6.488 -0.5592 -3.4177  2.2722
  190MOL0     H25024   1.675   8.719   6.316  2.0781 -0.6839 -0.4068
  190MOL0     H25025   1.687   8.453   6.472 -3.1785 -1.0102  1.5087
  190MOL0     H25026   1.627   8.479   6.303 -1.4978  2.0338 -0.2743
  190MOL0     H25027   1.484   8.657   6.402  4.7274  1.1179 -0.4481
  190MOL0     H25028   1.512   8.583   6.564  1.4644 -0.3569  0.2430
  190MOL0     H25029   1.301   8.503   6.429  0.8437  0.9599 -0.1221
  190MOL0     H25030   1.419   8.415   6.328 -1.6469  0.0752 -0.2223
  190MOL0     H25031   1.417   8.391   6.631  2.4287 -1.1244 -0.4927
  190MOL0     H25032   1.468   8.269   6.514 -3.0672 -3.0250  0.8112
  190MOL0     H25033   1.128   8.456   6.556 -1.0484  0.5538  0.6944
  190MOL0     H25034   0.855   8.203   6.546  0.9629  1.2323 -0.7016
  190MOL0     H25035   0.884   8.373   6.545 -1.2369 -0.1427 -0.1443
  190MOL0     H25036   0.908   8.190   6.798  3.8118  1.9508 -0.0881
  190MOL0     H25037   0.753   8.283   6.744  0.3299  3.1716 -1.5397
  190MOL0     H25038   1.003   8.429   6.798  0.6998 -2.6023 -0.4338
  190MOL0     H25039   0.828   8.477   6.795 -3.2913 -3.2005 -1.1723
  190MOL0     H25040   0.810   8.298   6.978 -1.1477  1.2790  2.0849
  190MOL0     H25041   0.856   8.467   7.027 -0.5926 -0.5674  0.3221
  190MOL0     H25042   1.181   8.165   6.998 -0.4809  0.3159  0.1213
  190MOL0     H25043   1.422   8.221   6.933 -0.1369 -0.2289 -1.7339
  190MOL0     H25044   1.757   8.614   6.789 -0.0064 -0.3574  0.5582
  190MOL0     H25045   1.996   8.601   6.735 -0.1328  0.1037 -3.0377
  190MOL0     H25046   2.207   8.551   6.781 -0.3999 -1.0748  0.2287
  190MOL0     H25047   2.178   8.538   6.599  1.6162 -2.2608 -2.1018
  190MOL0     H25048   2.423   8.552   6.664 -1.3278  1.2866  0.3494
  190MOL0     H25049   2.370   8.416   6.569  0.0181 -1.1651  0.9682
  190MOL0     H25050   2.371   8.260   6.742 -2.5359 -0.2565  2.8305
  190MOL0     H25051   2.390   8.381   6.865 -2.5614  0.9144 -1.4001
  190MOL0     H25052   2.582   8.318   6.648 -1.4713 -0.4837 -0.1293
  190MOL0     H25053   2.603   8.458   6.753 -0.7084  0.7995 -0.6534
  190MOL0     H25054   2.630   8.160   6.814 -1.4381 -0.1533  0.6891
  190MOL0     H25055   2.554   8.246   6.939  0.6758 -1.7332  0.6130
  190MOL0     H25056   2.742   8.429   6.932 -1.9197 -0.1231 -0.3451
  190MOL0     H25057   2.823   8.332   6.816  1.0426 -1.3756  1.4916
  190MOL0     H25058   2.773   8.262   7.112 -2.4761  2.1112 -1.2566
  190MOL0     H25059   2.824   8.130   7.006 -0.5781 -0.8315  2.0091
  190MOL0     H25060   3.021   8.244   6.931 -3.3846  0.9414 -2.2618
  190MOL0     H25061   3.022   8.237   7.101 -1.1267 -0.1258 -0.7624
  190MOL0     H25062   1.960   8.176   6.709  4.7431  2.1084 -0.3787
  190MOL0     H25063   1.723   8.187   6.737 -1.2880  0.1134 -1.4624
  190MOL0     H25064   1.300   8.641   6.929  1.2752 -0.0303  0.2022
  190MOL0     H25065   1.082   8.570   7.010 -0.7273 -0.9420 -0.9900
  190MOL0     H25066   2.319   8.953   6.541 -0.1692 -1.3440  1.1437
  190MOL0     H25067   2.560   8.930   6.596  0.4056  2.0633 -1.6197
  190MOL0     H25068   2.908   8.626   6.635  0.9406 -2.2495 -2.1017
  190MOL0     H25069   3.160   8.571   6.686  2.2128  0.3490 -0.3409
  190MOL0     H25070   3.462   8.813   6.466 -1.8345  2.4685  1.9682
  190MOL0     H25071   3.564   8.699   6.558 -0.1584 -0.6323  1.5217
  190MOL0     H25072   3.406   8.941   6.660  1.1922  2.2523 -0.0749
  190MOL0     H25073   3.488   8.830   6.769 -0.8925 -1.1435 -1.3363
  190MOL0     H25074   3.624   9.054   6.685  1.9522  1.1298 -3.5861
  190MOL0     H25075   3.649   8.962   6.539 -4.3267 -0.0049 -0.7494
  190MOL0     H25076   3.738   8.869   6.827 -0.5230 -1.0111 -1.0688
  190MOL0     H25077   3.752   8.761   6.685  2.1085 -1.6134  1.0431
  190MOL0     H25078   4.056   9.023   6.581  1.3130  1.4843  1.8245
  190MOL0     H25079   3.271   8.849   6.381  0.1963 -0.1132 -0.2573
  190MOL0     H25080   3.037   8.883   6.321  1.3254 -1.0114 -1.3041
  191MOL0     O25081   9.271   0.078  10.693 -0.2329 -0.1134  0.1327
  191MOL0     C25082   9.341   0.175  10.665  0.0423 -0.1261  0.4669
  191MOL0     O25083   9.293   0.302  10.636 -0.0439  0.5037 -0.6921
  191MOL0     C25084   9.166   0.339  10.697  0.3021  0.6391  0.1813
  191MOL0     C25085   9.096   0.430  10.619  0.0176  0.6082  0.1947
  191MOL0     C25086   8.980   0.486  10.661  0.1755  0.1255  0.3563
  191MOL0     C25087   8.930   0.459  10.793  0.5120  0.4722 -0.4779
  191MOL0     O25088   8.808   0.502  10.842 -0.1361  0.2781 -0.2475
  191MOL0     C25089   8.714   0.553  10.744 -0.0101 -0.5598  0.0022
  191MOL0     C25090   8.566   0.530  10.774  0.1819 -0.4101  0.2640
  191MOL0     C25091   8.516   0.609  10.888 -0.6707  0.9063  0.3251
  191MOL0     C25092   8.376   0.559  10.928  0.2846  0.1543 -0.5864
  191MOL0     C25093   8.320   0.660  11.034  0.6722  0.5304  0.0482
  191MOL0     C25094   8.212   0.577  11.110 -0.5470  0.0152 -0.8194
  191MOL0     C25095   8.132   0.671  11.199  0.5700 -0.6777 -0.1406
  191MOL0     C25096   8.023   0.581  11.248  0.2045  0.0500  0.0754
  191MOL0     N25097   8.071   0.487  11.349  1.2950 -0.0190 -0.0674
  191MOL0     C25098   8.096   0.351  11.344 -0.2827 -0.0561  0.5153
  191MOL0     C25099   8.109   0.297  11.471 -0.8283 -0.5427  0.3029
  191MOL0     C25100   8.171   0.162  11.521  0.1434 -0.1448  0.2063
  191MOL0     C25101   8.311   0.173  11.544 -0.8168 -0.0882  0.4458
  191MOL0     C25102   8.369   0.039  11.608  0.0259 -0.2716 -0.7598
  191MOL0     C25103   8.525   0.032  11.606  1.4965 -0.4060  0.4418
  191MOL0     O25104   8.574  -0.028  11.485  1.1770  0.5104 -0.2583
  191MOL0     C25105   8.707  -0.050  11.473 -0.7165 -1.0192 -0.9985
  191MOL0     C25106   8.757  -0.102  11.350  0.4027  0.3736  0.3526
  191MOL0     C25107   8.893  -0.111  11.322 -0.1832  0.3681 -0.4843
  191MOL0     C25108   8.991  -0.077  11.416 -0.0439  0.1482 -1.3422
  191MOL0     C25109   9.136  -0.095  11.394  0.3753  0.1353  0.4069
  191MOL0     O25110   9.165  -0.082  11.263  0.0608  0.0497 -0.2847
  191MOL0     C25111   9.288  -0.110  11.217  0.4938 -0.2565  0.6763
  191MOL0     C25112   9.319  -0.035  11.108 -0.0827  0.2339  1.2916
  191MOL0     C25113   9.438  -0.071  11.036  0.5160 -1.0364  0.8053
  191MOL0     C25114   9.518  -0.176  11.074 -0.1208 -0.5814  0.2549
  191MOL0     O25115   9.633  -0.202  11.004 -0.7027  0.2085  0.3400
  191MOL0     C25116   9.757  -0.265  11.065 -0.3021 -0.7899 -0.2779
  191MOL0     C25117   9.818  -0.174  11.181  0.2847  0.0023  0.9290
  191MOL0     C25118   9.963  -0.216  11.214  0.1360  0.2839  0.7369
  191MOL0     C25119  10.027  -0.104  11.301 -0.1736 -0.2396  0.6381
  191MOL0     C25120  10.173  -0.131  11.333  0.9768  0.7794 -0.4156
  191MOL0     C25121  10.254  -0.146  11.209 -0.7095 -0.4813  0.6247
  191MOL0     C25122  10.235  -0.052  11.090 -0.7933 -0.0426  0.6305
  191MOL0     C25123  10.251   0.095  11.121 -0.9085 -1.0877 -0.5470
  191MOL0    Cl25124  10.426   0.139  11.134 -0.0329  0.2173 -0.2041
  191MOL0     C25125   9.490  -0.239  11.193  0.2419 -0.8951 -0.5378
  191MOL0     C25126   9.372  -0.215  11.254 -0.5416  0.4557 -0.4096
  191MOL0     O25127   9.208  -0.131  11.488  0.9425  0.3620  0.2661
  191MOL0     C25128   8.948  -0.047  11.549 -0.4649 -0.0806  0.4233
  191MOL0     C25129   8.805  -0.025  11.577 -0.6296  0.4347 -0.4803
  191MOL0     N25130   8.097   0.410  11.556 -0.0304 -0.7171 -0.0200
  191MOL0     N25131   8.068   0.518  11.485 -0.1046  0.0793  0.2231
  191MOL0     C25132   8.999   0.376  10.877 -0.0229  0.1565 -1.0773
  191MOL0     C25133   9.121   0.312  10.830  0.2822 -0.0242  0.0075
  191MOL0     C25134   9.486   0.156  10.654  0.4073  0.0761 -0.0622
  191MOL0     C25135   9.563   0.261  10.616 -0.0236 -0.1877 -0.2318
  191MOL0     C25136   9.700   0.250  10.620  0.8003 -0.1112  1.2240
  191MOL0     C25137   9.761   0.135  10.662 -0.2989 -0.1629  0.0028
  191MOL0     O25138   9.895   0.139  10.673 -0.6861 -0.2127  0.1504
  191MOL0     C25139   9.963   0.021  10.716 -0.0848 -0.9109 -0.4168
  191MOL0     C25140  10.102   0.072  10.733 -0.1186  0.2376  0.7295
  191MOL0     C25141  10.186   0.085  10.592  0.9362  0.1047 -0.7229
  191MOL0     C25142  10.316   0.162  10.605  0.3365  0.0191 -0.3514
  191MOL0     C25143  10.296   0.283  10.683 -0.6315 -0.0870 -0.5684
  191MOL0     C25144  10.277   0.389  10.745  0.0156 -0.6029  1.0755
  191MOL0     C25145   9.683   0.029  10.697  0.4113  0.6751 -0.1897
  191MOL0     C25146   9.550   0.039  10.681 -0.3803  0.0763  0.0679
  191MOL0     H25147   9.137   0.451  10.521 -0.8605  1.5405  0.0102
  191MOL0     H25148   8.937   0.564  10.598  1.5073 -0.6462 -1.5995
  191MOL0     H25149   8.733   0.502  10.649  1.6635  0.6201 -0.3400
  191MOL0     H25150   8.732   0.660  10.734  0.5086 -0.8197 -2.4731
  191MOL0     H25151   8.555   0.423  10.793 -1.3943 -0.3262 -0.0954
  191MOL0     H25152   8.506   0.563  10.688 -1.4388 -2.3276  0.5981
  191MOL0     H25153   8.514   0.715  10.862  0.9060  1.2893  1.5701
  191MOL0     H25154   8.587   0.592  10.970 -1.2980  1.5101  1.0080
  191MOL0     H25155   8.316   0.551  10.837  0.0742 -0.9717 -0.3633
  191MOL0     H25156   8.391   0.460  10.971  0.9404  0.3167 -0.4360
  191MOL0     H25157   8.290   0.749  10.977 -1.2933 -0.6024 -0.7971
  191MOL0     H25158   8.397   0.685  11.106  0.4783 -0.5193  0.6399
  191MOL0     H25159   8.274   0.510  11.170  0.6221  1.1085 -0.7787
  191MOL0     H25160   8.151   0.519  11.040  0.7338 -2.7590  0.2084
  191MOL0     H25161   8.195   0.705  11.281 -0.2385 -0.9380  0.6061
  191MOL0     H25162   8.089   0.757  11.147  2.7140  0.1303 -0.6929
  191MOL0     H25163   7.990   0.519  11.164  0.5049 -0.4892  0.3492
  191MOL0     H25164   7.935   0.640  11.278  0.7278  0.7985  0.1760
  191MOL0     H25165   8.106   0.290  11.254 -2.2855  3.0402 -2.0309
  191MOL0     H25166   8.144   0.085  11.447 -1.3028  0.3902  0.1480
  191MOL0     H25167   8.122   0.135  11.615  1.5716 -0.9125  0.7636
  191MOL0     H25168   8.328   0.260  11.608  1.8337  0.5092 -0.9335
  191MOL0     H25169   8.362   0.209  11.454 -1.4077 -1.2270 -0.3728
  191MOL0     H25170   8.336   0.028  11.711  0.6379  1.3615 -0.3494
  191MOL0     H25171   8.330  -0.048  11.555 -0.5738 -0.9270  0.7040
  191MOL0     H25172   8.554  -0.019  11.698 -1.9767 -1.6259  1.0183
  191MOL0     H25173   8.564   0.134  11.603 -0.4315  0.3589  0.1987
  191MOL0     H25174   8.679  -0.110  11.275  1.3957  2.3706 -0.9779
  191MOL0     H25175   8.925  -0.151  11.226  1.4376 -0.2667  0.2746
  191MOL0     H25176   9.262   0.051  11.073 -2.0627 -1.6103 -0.3260
  191MOL0     H25177   9.472  -0.020  10.946  0.4497 -1.6219  0.4441
  191MOL0     H25178   9.835  -0.299  10.997  2.1572  1.5054  1.1610
  191MOL0     H25179   9.725  -0.358  11.113  2.6049 -0.8741  1.7557
  191MOL0     H25180   9.767  -0.192  11.277 -1.1080 -0.4956  0.1236
  191MOL0     H25181   9.818  -0.072  11.141 -2.7271  0.0128  0.7528
  191MOL0     H25182  10.012  -0.237  11.118 -0.6847  0.2531  0.3240
  191MOL0     H25183   9.963  -0.310  11.270  2.9772 -0.6168 -0.5354
  191MOL0     H25184  10.027  -0.009  11.249 -2.1879 -0.0534  0.9256
  191MOL0     H25185   9.954  -0.112  11.382 -0.2200 -1.4444  0.5038
  191MOL0     H25186  10.176  -0.218  11.399 -2.7181 -0.0204 -1.0781
  191MOL0     H25187  10.208  -0.051  11.398 -0.5692 -0.0877  1.5983
  191MOL0     H25188  10.225  -0.245  11.172 -1.0523  0.4839 -1.9451
  191MOL0     H25189  10.361  -0.137  11.232 -0.6828  1.0842 -0.0171
  191MOL0     H25190  10.301  -0.082  11.008  0.8821  3.7561  0.3645
  191MOL0     H25191  10.135  -0.067  11.048 -0.0426 -3.4143 -0.2675
  191MOL0     H25192  10.201   0.129  11.212  0.7794  0.0292  0.0177
  191MOL0     H25193  10.208   0.154  11.039 -0.1513 -2.4058 -1.9373
  191MOL0     H25194   9.554  -0.313  11.239  0.5950  1.0305  2.2915
  191MOL0     H25195   9.347  -0.281  11.337  1.1679 -1.0206 -1.0035
  191MOL0     H25196   9.024  -0.027  11.624  4.3033 -2.8883 -3.0872
  191MOL0     H25197   8.778   0.014  11.674 -0.0267  1.4862 -0.7185
  191MOL0     H25198   8.947   0.346  10.967  0.8223 -0.3185 -0.7320
  191MOL0     H25199   9.174   0.238  10.889  0.4849 -2.1584 -2.6780
  191MOL0     H25200   9.519   0.354  10.581 -0.8476 -0.0463  1.1244
  191MOL0     H25201   9.769   0.328  10.589  0.4529 -0.8743 -1.8143
  191MOL0     H25202   9.949  -0.057  10.641  0.4773  0.5626 -2.1488
  191MOL0     H25203   9.926  -0.005  10.816 -1.3862 -2.3883 -1.2374
  191MOL0     H25204  10.102   0.164  10.792  0.5042 -0.9952  2.7516
  191MOL0     H25205  10.165  -0.001  10.784  1.1460 -1.7642 -3.2603
  191MOL0     H25206  10.135   0.144  10.515  3.9048 -0.2253 -3.1611
  191MOL0     H25207  10.187  -0.019  10.556 -0.6073  0.8776 -3.2312
  191MOL0     H25208  10.385   0.095  10.656 -1.0062 -0.8082  0.4156
  191MOL0     H25209  10.366   0.185  10.510  0.5741  4.0228  0.5403
  191MOL0     H25210  10.257   0.487  10.783  2.3962  0.8118 -1.0302
  191MOL0     H25211   9.721  -0.065  10.734 -1.7822 -1.1037 -2.1186
  191MOL0     H25212   9.497  -0.055  10.694 -1.5734  0.7441  0.2095
  192MOL0     O25213   2.069   2.959   3.004  0.5928 -0.2426 -0.1812
  192MOL0     C25214   2.144   2.956   3.103  0.2996  0.7363  0.2949
  192MOL0     O25215   2.152   2.856   3.209 -0.2011 -0.2921  0.0295
  192MOL0     C25216   2.049   2.762   3.216  0.2959  0.4424  0.0449
  192MOL0     C25217   1.908   2.801   3.211  0.0728  0.0748 -0.1278
  192MOL0     C25218   1.813   2.704   3.228 -0.2871 -0.3567 -0.7947
  192MOL0     C25219   1.843   2.572   3.265  0.0676  0.6171  0.0593
  192MOL0     O25220   1.738   2.485   3.294 -0.1999 -1.2097 -0.4428
  192MOL0     C25221   1.768   2.355   3.335 -0.4544 -0.3001  0.5435
  192MOL0     C25222   1.637   2.279   3.392  0.2764  0.2663  0.1950
  192MOL0     C25223   1.671   2.142   3.433  0.1411  0.1938  0.3461
  192MOL0     C25224   1.557   2.078   3.502 -0.5596  0.5439  0.2479
  192MOL0     C25225   1.561   1.920   3.500 -0.1238  0.0369 -0.6227
  192MOL0     C25226   1.443   1.851   3.583  0.4142 -0.0263 -0.3192
  192MOL0     C25227   1.306   1.882   3.518 -0.6516  0.7407 -0.5669
  192MOL0     C25228   1.190   1.806   3.581 -0.5191  0.6082  1.2216
  192MOL0     N25229   1.067   1.817   3.495 -0.5467  0.2396  1.0513
  192MOL0     C25230   0.997   1.709   3.437  0.8026  0.1530 -0.0586
  192MOL0     C25231   0.876   1.771   3.397 -0.3222 -1.1642  0.1900
  192MOL0     C25232   0.749   1.715   3.341  0.2184  0.4652 -0.4705
  192MOL0     C25233   0.796   1.698   3.191  0.4745 -0.1931  1.2362
  192MOL0     C25234   0.694   1.610   3.109 -0.4157  0.0647 -0.7880
  192MOL0     C25235   0.544   1.644   3.147 -0.7096  0.4568  0.6249
  192MOL0     O25236   0.471   1.578   3.034 -0.3566  0.0611 -0.1620
  192MOL0     C25237   0.335   1.583   3.040  0.3163  0.1697  0.0233
  192MOL0     C25238   0.257   1.646   3.138 -0.0968 -0.1750 -0.1498
  192MOL0     C25239   0.114   1.632   3.143 -0.8328  0.1373 -0.1316
  192MOL0     C25240   0.055   1.552   3.043  0.0217  0.4919 -0.1427
  192MOL0     C25241  -0.093   1.540   3.042 -0.4836  0.2295 -0.3526
  192MOL0     O25242  -0.157   1.612   3.138 -0.5420 -0.0249 -0.4778
  192MOL0     C25243  -0.287   1.583   3.168  0.4096  0.3280 -0.5125
  192MOL0     C25244  -0.317   1.454   3.216  0.7590 -0.0090  0.4286
  192MOL0     C25245  -0.441   1.420   3.270 -0.5581  0.2815  0.2260
  192MOL0     C25246  -0.535   1.527   3.295 -0.2126  0.7749  0.5069
  192MOL0     O25247  -0.636   1.493   3.382 -0.1566 -0.1888 -0.4112
  192MOL0     C25248  -0.723   1.606   3.432 -0.2038  0.1662 -0.9037
  192MOL0     C25249  -0.801   1.539   3.543 -0.1181  0.2387 -1.1019
  192MOL0     C25250  -0.870   1.652   3.620 -0.8249 -0.1670 -0.0044
  192MOL0     C25251  -0.783   1.755   3.688 -0.1975  0.2807 -0.2032
  192MOL0     C25252  -0.829   1.892   3.634  0.3534  0.8551  0.0205
  192MOL0     C25253  -0.778   2.002   3.725 -0.3256 -0.4077 -0.2887
  192MOL0     C25254  -0.821   2.137   3.674  0.0644  0.0683 -0.3607
  192MOL0     C25255  -0.793   2.254   3.770 -0.9345 -1.2574 -0.2758
  192MOL0    Cl25256  -0.628   2.303   3.739  0.4067  0.1634 -0.4850
  192MOL0     C25257  -0.512   1.655   3.228  0.0006  0.2437 -0.7187
  192MOL0     C25258  -0.383   1.678   3.173  0.6196  0.4550  0.3094
  192MOL0     O25259  -0.138   1.459   2.960 -0.3396 -0.3612 -0.2328
  192MOL0     C25260   0.131   1.494   2.940  0.0017 -0.2684  0.3395
  192MOL0     C25261   0.272   1.500   2.949  0.0233  0.7790 -0.1339
  192MOL0     N25262   0.886   1.909   3.425 -0.7166  0.1604 -1.0122
  192MOL0     N25263   0.998   1.937   3.473  0.2796  0.5571 -0.7804
  192MOL0     C25264   1.981   2.534   3.268  0.4684  0.4587 -0.2909
  192MOL0     C25265   2.080   2.624   3.233  0.2706 -0.4576  0.4094
  192MOL0     C25266   2.252   3.054   3.109 -0.4287 -0.0576 -0.1826
  192MOL0     C25267   2.242   3.176   3.038  0.1968  0.5788 -0.2527
  192MOL0     C25268   2.350   3.270   3.036  0.5965  0.7469 -0.4755
  192MOL0     C25269   2.460   3.239   3.104 -0.1814 -1.7100  0.4107
  192MOL0     O25270   2.552   3.350   3.095 -0.6541  0.0291 -0.0167
  192MOL0     C25271   2.644   3.367   3.206  0.9021  0.6542  0.2225
  192MOL0     C25272   2.647   3.515   3.247 -0.7113 -0.4107 -0.1850
  192MOL0     C25273   2.690   3.621   3.137  0.4740 -0.3128  0.7526
  192MOL0     C25274   2.812   3.594   3.048  0.1325 -0.0063 -0.2712
  192MOL0     C25275   2.929   3.541   3.120  0.3603  0.8725 -0.3351
  192MOL0     C25276   3.025   3.481   3.169 -0.6721  0.2258 -0.6819
  192MOL0     C25277   2.471   3.119   3.167  0.3214  0.6632 -0.7174
  192MOL0     C25278   2.374   3.026   3.164 -0.1471 -0.4605 -0.5013
  192MOL0     H25279   1.877   2.892   3.162  0.8969 -0.5595 -1.9397
  192MOL0     H25280   1.710   2.720   3.195 -0.6333 -2.2213 -0.7489
  192MOL0     H25281   1.840   2.357   3.417 -3.0046 -2.5130  3.0840
  192MOL0     H25282   1.804   2.307   3.243 -0.3493  1.7209 -0.5137
  192MOL0     H25283   1.556   2.280   3.319 -0.3230  6.0247  0.4764
  192MOL0     H25284   1.598   2.334   3.478 -1.1116 -1.6486  0.8602
  192MOL0     H25285   1.760   2.142   3.496  1.1222  1.3648 -0.9660
  192MOL0     H25286   1.715   2.087   3.349 -0.8901  0.3461 -0.3151
  192MOL0     H25287   1.556   2.104   3.609  2.3990  1.5915  0.1086
  192MOL0     H25288   1.463   2.110   3.455  0.6807  2.4339 -1.1119
  192MOL0     H25289   1.659   1.890   3.540 -1.4152  0.1799  3.0281
  192MOL0     H25290   1.542   1.892   3.396 -0.1969 -1.7946 -0.1665
  192MOL0     H25291   1.445   1.901   3.680 -2.5771  2.3914 -1.3618
  192MOL0     H25292   1.464   1.744   3.596  3.0542  0.2363 -1.6015
  192MOL0     H25293   1.294   1.990   3.505  0.1104  0.6868 -1.8841
  192MOL0     H25294   1.315   1.835   3.420 -1.9158 -0.5398 -0.1060
  192MOL0     H25295   1.160   1.842   3.680 -1.3589  0.8586  0.8871
  192MOL0     H25296   1.229   1.707   3.606  2.5107  0.5135 -2.9547
  192MOL0     H25297   1.023   1.604   3.447 -0.5365 -0.4400 -2.1200
  192MOL0     H25298   0.664   1.780   3.365  0.1619 -0.7062  3.0490
  192MOL0     H25299   0.724   1.621   3.390 -3.0852  1.0298 -0.8554
  192MOL0     H25300   0.887   1.638   3.186  1.0569  0.7753 -2.4702
  192MOL0     H25301   0.817   1.797   3.150  0.5655  0.3107  2.4418
  192MOL0     H25302   0.705   1.617   3.001 -0.4051 -0.8947 -0.8588
  192MOL0     H25303   0.714   1.506   3.138 -0.2786 -0.7783 -3.6092
  192MOL0     H25304   0.521   1.751   3.150  0.4061  0.7338 -0.1232
  192MOL0     H25305   0.518   1.602   3.244  1.5929  0.2199  1.1937
  192MOL0     H25306   0.310   1.707   3.211  1.2468 -1.3005 -0.1347
  192MOL0     H25307   0.062   1.687   3.222 -2.0134  1.1446 -1.5571
  192MOL0     H25308  -0.240   1.377   3.213 -0.4568 -1.2449 -0.2614
  192MOL0     H25309  -0.462   1.324   3.317 -0.8838  0.1225 -0.2383
  192MOL0     H25310  -0.792   1.630   3.351 -2.2651 -2.1478  0.0295
  192MOL0     H25311  -0.658   1.691   3.453  1.3435 -0.8149 -1.4887
  192MOL0     H25312  -0.737   1.485   3.613 -1.3671 -1.3041 -1.0984
  192MOL0     H25313  -0.883   1.481   3.501 -1.3095  0.7067  0.4957
  192MOL0     H25314  -0.934   1.612   3.699 -3.1184  1.0509 -1.1099
  192MOL0     H25315  -0.940   1.702   3.551 -1.2660 -0.8936 -0.0987
  192MOL0     H25316  -0.814   1.757   3.793  1.9909  0.8562  0.4983
  192MOL0     H25317  -0.675   1.744   3.670 -0.3088  1.1063 -1.5324
  192MOL0     H25318  -0.936   1.888   3.617  0.3097 -1.6889  0.6039
  192MOL0     H25319  -0.777   1.905   3.539  1.5198 -0.1202  0.4994
  192MOL0     H25320  -0.670   2.004   3.741 -0.2808 -1.3165 -0.4278
  192MOL0     H25321  -0.814   1.983   3.826 -0.3066  2.1278  0.2642
  192MOL0     H25322  -0.783   2.159   3.574 -1.7348  1.3670 -0.8170
  192MOL0     H25323  -0.931   2.132   3.675 -0.0999  1.7031 -2.2569
  192MOL0     H25324  -0.811   2.243   3.877  0.4300 -2.0874 -0.1009
  192MOL0     H25325  -0.860   2.334   3.738  2.0526  1.0334 -1.2913
  192MOL0     H25326  -0.589   1.731   3.226 -1.9625 -1.6230 -3.7884
  192MOL0     H25327  -0.367   1.777   3.131 -0.8079  2.0841  3.2466
  192MOL0     H25328   0.097   1.442   2.851 -0.7727  3.7100 -1.9600
  192MOL0     H25329   0.333   1.450   2.874  1.5134  0.9321  0.9333
  192MOL0     H25330   2.018   2.434   3.289  1.5669 -0.5173 -5.6049
  192MOL0     H25331   2.186   2.600   3.236  1.3949  3.3679 -1.7961
  192MOL0     H25332   2.155   3.209   2.983 -0.0458 -0.2569 -0.3850
  192MOL0     H25333   2.333   3.360   2.977  1.1465  0.7198 -0.6837
  192MOL0     H25334   2.745   3.335   3.178  0.7159  1.4066 -1.4034
  192MOL0     H25335   2.607   3.317   3.296  0.1178 -0.9269 -0.9403
  192MOL0     H25336   2.553   3.550   3.291 -1.3731  0.6994 -2.3751
  192MOL0     H25337   2.717   3.527   3.331  0.3201  0.5201 -1.1403
  192MOL0     H25338   2.710   3.714   3.191 -1.0173  0.1597  0.5549
  192MOL0     H25339   2.600   3.639   3.077 -0.1098  2.2289  2.2284
  192MOL0     H25340   2.786   3.527   2.965 -1.5654 -0.7391  0.8047
  192MOL0     H25341   2.838   3.694   3.012 -0.9011 -0.8127 -3.6099
  192MOL0     H25342   3.112   3.450   3.223  0.5673  3.8209 -0.3234
  192MOL0     H25343   2.571   3.096   3.205 -0.4785  0.6709  1.5604
  192MOL0     H25344   2.391   2.933   3.218  2.1090 -0.9036 -1.8351
  193MOL0     O25345   1.759   4.471   6.462 -0.1331 -0.3056 -0.3947
  193MOL0     C25346   1.775   4.595   6.451 -0.4158  0.1935 -0.0382
  193MOL0     O25347   1.682   4.689   6.479 -0.1843  0.3283  0.8540
  193MOL0     C25348   1.561   4.677   6.537 -0.1994 -0.3410  0.3033
  193MOL0     C25349   1.498   4.549   6.563  0.1430  0.7249 -0.1256
  193MOL0     C25350   1.359   4.534   6.589  0.3758 -1.0020  0.8936
  193MOL0     C25351   1.291   4.650   6.607 -0.2889 -0.3052  0.4321
  193MOL0     O25352   1.158   4.661   6.643 -0.0008  0.4848  0.2168
  193MOL0     C25353   1.127   4.576   6.760 -0.3898 -0.6844  0.3024
  193MOL0     C25354   1.030   4.656   6.847 -0.1308 -0.1889  0.4184
  193MOL0     C25355   0.908   4.724   6.774 -0.0672  0.5964 -0.9248
  193MOL0     C25356   0.807   4.624   6.728  0.0954  0.5957 -0.2840
  193MOL0     C25357   0.751   4.527   6.825  0.0955 -0.3270  0.6118
  193MOL0     C25358   0.657   4.596   6.919 -0.2336  0.3015  1.0016
  193MOL0     C25359   0.522   4.521   6.927 -0.3493  0.4939 -0.4761
  193MOL0     C25360   0.406   4.626   6.890 -0.0871 -0.1655 -1.4342
  193MOL0     N25361   0.275   4.580   6.939 -0.2279  0.4741  0.0144
  193MOL0     C25362   0.239   4.559   7.075  0.2327  0.6791  0.7705
  193MOL0     C25363   0.106   4.535   7.066 -0.9903 -0.1988 -0.8241
  193MOL0     C25364   0.022   4.504   7.172  0.3736  0.6120 -0.0947
  193MOL0     C25365  -0.049   4.634   7.207  1.2192  0.3443 -1.1357
  193MOL0     C25366  -0.178   4.640   7.127  0.6030  0.1545  0.1220
  193MOL0     C25367  -0.245   4.777   7.126  0.2175  0.2838  0.1618
  193MOL0     O25368  -0.380   4.743   7.112 -0.2448  0.5305 -0.5443
  193MOL0     C25369  -0.471   4.845   7.142  0.3720  0.2549  0.0198
  193MOL0     C25370  -0.446   4.985   7.134  0.3267  0.2790  0.0699
  193MOL0     C25371  -0.555   5.076   7.133  0.4287  0.3041  0.1421
  193MOL0     C25372  -0.687   5.038   7.133  0.2620 -0.4574 -0.6073
  193MOL0     C25373  -0.806   5.128   7.132  0.1593 -0.6110 -0.5021
  193MOL0     O25374  -0.774   5.256   7.171  0.4429 -0.0249 -0.3621
  193MOL0     C25375  -0.874   5.355   7.183 -0.7667  0.4122 -0.4446
  193MOL0     C25376  -0.986   5.362   7.094  0.1996  0.0992 -0.9943
  193MOL0     C25377  -1.096   5.451   7.110 -0.2098 -0.2203  0.5204
  193MOL0     C25378  -1.091   5.541   7.219 -0.0980  0.4733  0.0106
  193MOL0     O25379  -1.183   5.644   7.248 -0.6077 -0.6846 -0.5157
  193MOL0     C25380  -1.274   5.665   7.144  0.5921 -0.3644  0.5453
  193MOL0     C25381  -1.395   5.763   7.186 -0.2179 -0.8287  0.4865
  193MOL0     C25382  -1.535   5.710   7.164  0.3442 -0.5564  0.2641
  193MOL0     C25383  -1.632   5.823   7.201 -0.2551  0.1383  0.1143
  193MOL0     C25384  -1.773   5.775   7.154  0.0194 -0.3711 -0.1158
  193MOL0     C25385  -1.895   5.856   7.213  0.7438 -0.2502  0.1893
  193MOL0     C25386  -2.023   5.788   7.202  0.6157 -0.8406 -0.5540
  193MOL0     C25387  -2.136   5.887   7.238  0.8850 -0.9302  0.1656
  193MOL0    Cl25388  -2.159   6.015   7.099 -0.6375 -0.2200 -0.1471
  193MOL0     C25389  -0.990   5.534   7.307  0.0281 -0.2061 -0.0699
  193MOL0     C25390  -0.878   5.450   7.286 -0.4787  0.5453 -0.0172
  193MOL0     O25391  -0.916   5.087   7.099  0.3792 -0.4420  0.3444
  193MOL0     C25392  -0.714   4.900   7.141 -0.2519  0.3297  0.2635
  193MOL0     C25393  -0.609   4.805   7.156 -0.1007  0.0214 -0.2721
  193MOL0     N25394   0.072   4.537   6.932 -0.0844  0.2356  0.1984
  193MOL0     N25395   0.170   4.561   6.859  0.7268  0.0409 -0.4679
  193MOL0     C25396   1.350   4.777   6.596 -0.2835 -0.4962 -1.2422
  193MOL0     C25397   1.485   4.786   6.559 -1.2117 -0.2472  0.1161
  193MOL0     C25398   1.911   4.653   6.406  0.5746  0.2040 -0.3152
  193MOL0     C25399   2.010   4.570   6.357  0.4690 -0.6176 -0.4060
  193MOL0     C25400   2.138   4.624   6.322  0.0201  0.4781  0.4833
  193MOL0     C25401   2.152   4.769   6.313  0.0645  0.6387 -0.1139
  193MOL0     O25402   2.266   4.839   6.263  0.0723 -0.0768 -0.4629
  193MOL0     C25403   2.391   4.770   6.237  0.6250 -0.1098 -0.0465
  193MOL0     C25404   2.518   4.858   6.229 -0.0265 -0.2261  0.1759
  193MOL0     C25405   2.542   4.939   6.098  0.0161 -0.2472 -0.3689
  193MOL0     C25406   2.674   5.023   6.097  0.1404 -1.0229 -0.5265
  193MOL0     C25407   2.723   5.043   5.958  0.3750 -0.4712 -0.5556
  193MOL0     C25408   2.764   5.083   5.857 -0.3615 -0.3173 -0.0236
  193MOL0     C25409   2.046   4.848   6.355 -0.3491  0.3549 -0.3689
  193MOL0     C25410   1.929   4.789   6.408 -1.2712  0.5044 -0.8853
  193MOL0     H25411   1.554   4.459   6.538  2.9066  1.3566  3.1783
  193MOL0     H25412   1.318   4.434   6.578 -2.9202  0.0511  2.2235
  193MOL0     H25413   1.211   4.546   6.824  0.1410 -3.0035 -1.3234
  193MOL0     H25414   1.081   4.486   6.717 -1.3451 -0.3956  0.7039
  193MOL0     H25415   1.083   4.742   6.888 -1.3228  1.4221 -1.2536
  193MOL0     H25416   0.995   4.595   6.930  0.0179 -1.4347 -0.4017
  193MOL0     H25417   0.937   4.786   6.688 -0.3166  2.9676  0.6143
  193MOL0     H25418   0.856   4.796   6.838 -0.8852  1.4973 -2.5265
  193MOL0     H25419   0.727   4.671   6.670  0.8295  1.9530 -0.2307
  193MOL0     H25420   0.853   4.553   6.658  1.7407  0.6234  0.7275
  193MOL0     H25421   0.824   4.470   6.883 -2.2273 -1.6239  2.4900
  193MOL0     H25422   0.706   4.453   6.758  3.6154  0.2727 -2.7368
  193MOL0     H25423   0.630   4.695   6.881 -0.1725  0.6871  1.9304
  193MOL0     H25424   0.702   4.613   7.017 -1.2456  2.0379  1.2165
  193MOL0     H25425   0.510   4.443   6.851  2.1684  0.2036 -0.6351
  193MOL0     H25426   0.507   4.488   7.031  2.6826 -2.3355 -0.7743
  193MOL0     H25427   0.408   4.633   6.781 -2.2943  1.7034 -1.4342
  193MOL0     H25428   0.422   4.719   6.945 -1.3930 -1.2777  0.9898
  193MOL0     H25429   0.293   4.573   7.168  1.2749  0.4137  0.2246
  193MOL0     H25430   0.085   4.474   7.256  0.1753 -2.9868 -1.0517
  193MOL0     H25431  -0.047   4.422   7.149  0.5878 -0.5347  2.9393
  193MOL0     H25432   0.011   4.722   7.182 -1.5151  3.1294  1.4171
  193MOL0     H25433  -0.080   4.640   7.311  0.5728 -3.1597 -0.9817
  193MOL0     H25434  -0.167   4.604   7.025 -1.9670 -0.6254  0.0606
  193MOL0     H25435  -0.249   4.571   7.173  0.1179  0.1599 -0.6011
  193MOL0     H25436  -0.203   4.837   7.044  1.5364  0.9148  1.2432
  193MOL0     H25437  -0.215   4.830   7.217  0.3053 -1.5413  1.2395
  193MOL0     H25438  -0.345   5.024   7.126 -0.0248  0.9829 -1.1420
  193MOL0     H25439  -0.535   5.181   7.117  3.7047 -0.1513  0.4941
  193MOL0     H25440  -0.981   5.300   7.005  0.3177 -0.5995 -0.5156
  193MOL0     H25441  -1.166   5.437   7.028  1.7594 -3.2505 -0.8526
  193MOL0     H25442  -1.314   5.571   7.106 -0.2883 -0.2725  1.2181
  193MOL0     H25443  -1.222   5.711   7.059 -2.7630 -1.8872 -2.6092
  193MOL0     H25444  -1.382   5.846   7.116 -0.0908 -1.6121 -0.4364
  193MOL0     H25445  -1.390   5.796   7.290  1.6310 -0.7799  0.4054
  193MOL0     H25446  -1.560   5.612   7.208  3.5218 -1.1787  0.8832
  193MOL0     H25447  -1.537   5.692   7.056  3.0973  0.0182  0.0495
  193MOL0     H25448  -1.631   5.857   7.305 -1.1142 -0.0556  0.1904
  193MOL0     H25449  -1.612   5.916   7.146 -0.0927  0.3102  0.4606
  193MOL0     H25450  -1.781   5.671   7.187  2.5043 -0.7440 -0.4620
  193MOL0     H25451  -1.776   5.787   7.045 -2.1400 -0.1322 -0.0723
  193MOL0     H25452  -1.898   5.952   7.160  1.4178 -0.4051 -0.1424
  193MOL0     H25453  -1.889   5.874   7.321 -2.3931 -4.4684  1.3315
  193MOL0     H25454  -2.040   5.743   7.103 -0.3028 -1.5354 -0.0967
  193MOL0     H25455  -2.031   5.705   7.274  0.4132 -0.2389  0.1259
  193MOL0     H25456  -2.117   5.935   7.334  3.3629  2.0262 -1.5911
  193MOL0     H25457  -2.232   5.837   7.250 -0.4161  1.7054  1.5937
  193MOL0     H25458  -0.973   5.614   7.378  2.3316 -0.0377 -0.7254
  193MOL0     H25459  -0.786   5.447   7.343 -1.4669 -4.0763  1.7862
  193MOL0     H25460  -0.817   4.868   7.135 -0.9996  2.7583 -1.1299
  193MOL0     H25461  -0.629   4.699   7.165  1.2955 -0.1756  0.8860
  193MOL0     H25462   1.303   4.868   6.632  1.9775  1.3502 -2.7283
  193MOL0     H25463   1.529   4.884   6.545  0.8241 -1.3752 -2.3115
  193MOL0     H25464   2.001   4.462   6.345 -0.3112 -0.3317 -2.8043
  193MOL0     H25465   2.225   4.560   6.310  1.5694  2.4062  0.8085
  193MOL0     H25466   2.373   4.726   6.138 -0.5982  3.0088 -1.3628
  193MOL0     H25467   2.405   4.687   6.306 -1.0044  0.2554  0.7589
  193MOL0     H25468   2.517   4.931   6.311 -1.7085  1.7660 -1.4916
  193MOL0     H25469   2.604   4.791   6.232  0.0894 -0.0557  0.9382
  193MOL0     H25470   2.460   5.005   6.069 -0.0407 -1.0911 -2.2227
  193MOL0     H25471   2.536   4.864   6.019  1.3648  0.7335 -1.4684
  193MOL0     H25472   2.662   5.125   6.132 -0.4177 -1.1025 -0.4693
  193MOL0     H25473   2.743   4.975   6.167 -0.9065 -0.3047  1.0628
  193MOL0     H25474   2.798   5.125   5.765 -3.3092  0.5138 -0.8450
  193MOL0     H25475   2.058   4.956   6.350 -1.1984  0.4156 -2.1227
  193MOL0     H25476   1.850   4.855   6.440 -2.4412 -0.0772 -2.4332
  194MOL0     O25477   6.527   8.427   3.210 -0.5176 -0.2702  1.1606
  194MOL0     C25478   6.628   8.372   3.263  0.7517 -0.4368 -0.2580
  194MOL0     O25479   6.626   8.249   3.328 -0.4778 -0.1134 -0.3904
  194MOL0     C25480   6.507   8.183   3.324  0.6279 -0.5803  0.2399
  194MOL0     C25481   6.389   8.236   3.382  0.4723  0.4781 -0.2595
  194MOL0     C25482   6.270   8.159   3.382 -0.7168 -0.3489 -0.3044
  194MOL0     C25483   6.278   8.025   3.348 -0.2289  0.1039 -0.6054
  194MOL0     O25484   6.160   7.950   3.347 -0.0587 -0.0583 -0.3771
  194MOL0     C25485   6.118   7.929   3.210 -0.9215  0.3568 -0.9284
  194MOL0     C25486   5.962   7.903   3.212  0.9158 -0.0509 -0.0924
  194MOL0     C25487   5.911   7.897   3.067  0.1157 -0.0398 -0.1231
  194MOL0     C25488   5.771   7.848   3.071 -0.2382 -0.0050  0.8096
  194MOL0     C25489   5.728   7.784   2.937  0.1639 -0.9319 -0.4066
  194MOL0     C25490   5.775   7.640   2.925 -0.6858 -0.5427  0.2811
  194MOL0     C25491   5.719   7.578   2.801 -0.0648 -0.3002  0.1429
  194MOL0     C25492   5.777   7.438   2.763 -0.1419  0.0521 -0.7265
  194MOL0     N25493   5.888   7.467   2.658  0.5857 -0.3548  0.0356
  194MOL0     C25494   5.865   7.516   2.532 -0.5897 -1.1571  0.2860
  194MOL0     C25495   5.976   7.488   2.464 -0.5905 -0.2024  0.3498
  194MOL0     C25496   5.992   7.526   2.317  0.4418  0.0602 -0.6938
  194MOL0     C25497   6.020   7.404   2.227 -0.1634 -0.2664  0.4870
  194MOL0     C25498   5.893   7.321   2.203 -0.2604  0.5155  0.1778
  194MOL0     C25499   5.849   7.234   2.328 -0.6614 -0.7512  0.7707
  194MOL0     O25500   5.736   7.285   2.392  0.0460 -0.0262 -0.2577
  194MOL0     C25501   5.608   7.265   2.337  0.2043  0.0650 -0.1041
  194MOL0     C25502   5.586   7.193   2.217  0.5612 -0.1028  0.7699
  194MOL0     C25503   5.453   7.194   2.167  0.6111 -0.2262 -0.1927
  194MOL0     C25504   5.345   7.250   2.236  1.0487  0.8633  0.1418
  194MOL0     C25505   5.202   7.236   2.177  0.5233  0.6170  0.6267
  194MOL0     O25506   5.106   7.322   2.224  0.0313  1.3202 -0.4699
  194MOL0     C25507   4.979   7.287   2.189  0.2876  1.0382  0.1110
  194MOL0     C25508   4.925   7.156   2.213 -0.1303  0.4137  1.2911
  194MOL0     C25509   4.787   7.128   2.170 -0.1871 -1.3422 -0.0578
  194MOL0     C25510   4.709   7.224   2.103  0.3903  0.3592  0.4511
  194MOL0     O25511   4.583   7.180   2.065 -0.3155 -0.3381 -0.3556
  194MOL0     C25512   4.478   7.272   2.084  0.3506  0.2364  0.3707
  194MOL0     C25513   4.364   7.196   2.163 -0.7600 -0.1007  0.3382
  194MOL0     C25514   4.275   7.115   2.077 -0.9027  0.1897 -0.1859
  194MOL0     C25515   4.151   7.070   2.157  0.2210 -0.7800 -0.2734
  194MOL0     C25516   4.045   7.005   2.062  0.6806  0.4306 -0.2542
  194MOL0     C25517   4.078   6.867   2.012 -0.2410  0.5344  0.2999
  194MOL0     C25518   3.952   6.817   1.939  0.0047  0.9678  0.1826
  194MOL0     C25519   3.983   6.787   1.789  0.0808  0.5078  0.4739
  194MOL0    Cl25520   4.066   6.626   1.784 -0.3363  0.6295 -0.1657
  194MOL0     C25521   4.760   7.357   2.084 -0.3145 -0.1976  0.0677
  194MOL0     C25522   4.895   7.384   2.121  0.4468  0.3625 -0.2455
  194MOL0     O25523   5.185   7.153   2.089  0.2102  0.1685  0.0850
  194MOL0     C25524   5.371   7.314   2.357  0.1491 -0.4151 -0.6361
  194MOL0     C25525   5.504   7.321   2.407 -0.2887  0.3557  0.5963
  194MOL0     N25526   6.061   7.430   2.550 -0.0936  0.1502 -0.1234
  194MOL0     N25527   6.013   7.422   2.672 -0.2064 -0.1587  0.6744
  194MOL0     C25528   6.396   7.974   3.293  0.3668 -0.3605  0.9217
  194MOL0     C25529   6.506   8.057   3.282  0.0483 -0.0379  0.3439
  194MOL0     C25530   6.762   8.436   3.261 -0.1265 -0.1966 -0.1305
  194MOL0     C25531   6.874   8.363   3.281  0.4552 -0.2469 -0.2814
  194MOL0     C25532   7.003   8.421   3.288 -0.3933  0.0304  0.0963
  194MOL0     C25533   7.019   8.563   3.280 -0.0258 -0.1625  0.3580
  194MOL0     O25534   7.148   8.617   3.287 -0.1592  0.5788 -0.0413
  194MOL0     C25535   7.178   8.753   3.303  0.4084  1.1831 -0.3358
  194MOL0     C25536   7.289   8.764   3.404 -0.0849  0.3456  0.2239
  194MOL0     C25537   7.385   8.894   3.394  0.4298  0.7530  0.0080
  194MOL0     C25538   7.522   8.859   3.437  0.5116  0.2852 -0.2175
  194MOL0     C25539   7.542   8.771   3.554  0.5924  0.2715 -0.2028
  194MOL0     C25540   7.547   8.696   3.648 -0.5637  0.6279  0.0646
  194MOL0     C25541   6.904   8.639   3.256  0.3441 -0.0591  0.0994
  194MOL0     C25542   6.778   8.576   3.243  0.0897 -1.4932 -1.0178
  194MOL0     H25543   6.383   8.340   3.412 -0.2060  0.4021 -0.1164
  194MOL0     H25544   6.178   8.208   3.410  0.6894  1.3711  1.6863
  194MOL0     H25545   6.182   7.855   3.162 -0.3980  0.3443 -0.2215
  194MOL0     H25546   6.136   8.022   3.154 -1.1886  0.1954 -1.2815
  194MOL0     H25547   5.915   7.983   3.269  0.9737 -0.3414  0.3718
  194MOL0     H25548   5.948   7.804   3.258 -1.4282  1.5480  3.0274
  194MOL0     H25549   5.979   7.832   3.010 -1.3394  0.0010 -1.9826
  194MOL0     H25550   5.920   7.992   3.015  2.7751 -1.3173 -2.2660
  194MOL0     H25551   5.739   7.773   3.143 -0.7476  1.1498  1.8280
  194MOL0     H25552   5.703   7.928   3.101 -0.6699  0.9936 -2.4325
  194MOL0     H25553   5.755   7.844   2.851 -2.9951  1.8555  0.3255
  194MOL0     H25554   5.619   7.779   2.940  0.2318 -3.3749  0.3343
  194MOL0     H25555   5.740   7.582   3.011 -5.1694 -0.5781 -1.2814
  194MOL0     H25556   5.884   7.643   2.917 -0.8272  0.8781 -2.0288
  194MOL0     H25557   5.612   7.568   2.818 -0.4239  2.6961  0.2751
  194MOL0     H25558   5.726   7.651   2.720 -1.6388  2.5730  2.4116
  194MOL0     H25559   5.700   7.375   2.718 -3.9795  0.9917  3.7928
  194MOL0     H25560   5.814   7.374   2.844 -2.6505  0.8574  1.2090
  194MOL0     H25561   5.776   7.563   2.491 -1.6121 -0.8566  2.6737
  194MOL0     H25562   6.066   7.607   2.314 -0.4954  0.9208 -1.3948
  194MOL0     H25563   5.897   7.564   2.277 -0.7879 -2.8605 -0.8197
  194MOL0     H25564   6.092   7.336   2.273 -0.6549 -1.6240 -0.7011
  194MOL0     H25565   6.062   7.431   2.130  0.4599 -1.3548  0.4369
  194MOL0     H25566   5.810   7.382   2.166 -0.4285 -0.4301 -1.0625
  194MOL0     H25567   5.909   7.243   2.127  1.0806  1.1354 -0.2186
  194MOL0     H25568   5.937   7.243   2.392  0.6468  3.0362 -1.2127
  194MOL0     H25569   5.846   7.125   2.319  3.4222 -0.9857  0.6171
  194MOL0     H25570   5.667   7.154   2.157 -1.5422 -1.9167 -1.0575
  194MOL0     H25571   5.439   7.153   2.068 -0.3812 -1.0915  0.2821
  194MOL0     H25572   4.984   7.074   2.253  2.2831  2.2138  1.7070
  194MOL0     H25573   4.755   7.026   2.189  3.4902 -2.0941  3.5440
  194MOL0     H25574   4.450   7.308   1.984  1.0800  2.2528  0.8529
  194MOL0     H25575   4.506   7.361   2.139  1.3985  0.7577 -0.9463
  194MOL0     H25576   4.308   7.274   2.214  1.3066 -0.0670  2.7101
  194MOL0     H25577   4.396   7.131   2.245 -0.3192  0.4867  0.6309
  194MOL0     H25578   4.323   7.029   2.030 -0.5004  0.7145 -0.7532
  194MOL0     H25579   4.247   7.176   1.990  2.3952 -2.3199 -3.3233
  194MOL0     H25580   4.180   7.015   2.247  2.6123  2.7261  1.3100
  194MOL0     H25581   4.114   7.166   2.195  2.8759  0.5401 -0.7802
  194MOL0     H25582   4.024   7.069   1.976 -2.7909 -0.8673 -0.5352
  194MOL0     H25583   3.952   6.989   2.116  1.8884  0.9231  2.0755
  194MOL0     H25584   4.097   6.802   2.098 -1.2345 -1.3111 -0.8093
  194MOL0     H25585   4.175   6.870   1.962 -0.5762 -1.6377 -0.6016
  194MOL0     H25586   3.925   6.723   1.987 -1.2420  0.4653 -1.3931
  194MOL0     H25587   3.871   6.890   1.940 -0.5805  0.3444 -0.5425
  194MOL0     H25588   4.038   6.872   1.748 -2.6252  2.0657 -0.1441
  194MOL0     H25589   3.885   6.766   1.746 -0.1571 -0.9132  1.6126
  194MOL0     H25590   4.694   7.434   2.045 -0.1305 -0.9261 -1.7726
  194MOL0     H25591   4.930   7.484   2.101  0.3142  0.4264 -0.1570
  194MOL0     H25592   5.298   7.367   2.418  2.5319 -0.9442  2.9974
  194MOL0     H25593   5.515   7.374   2.502 -1.4561  1.8665 -0.0686
  194MOL0     H25594   6.394   7.870   3.260  2.3872 -0.2230  0.2059
  194MOL0     H25595   6.590   8.017   3.227  1.1273 -0.8975  2.4969
  194MOL0     H25596   6.869   8.255   3.281  0.2331 -0.3418  2.9513
  194MOL0     H25597   7.096   8.366   3.291  0.6406  1.6886 -0.7749
  194MOL0     H25598   7.095   8.816   3.338 -0.7128 -0.2459 -0.3011
  194MOL0     H25599   7.201   8.788   3.202 -1.5719  0.9477 -0.9148
  194MOL0     H25600   7.251   8.753   3.506 -0.8143  1.2876  0.0728
  194MOL0     H25601   7.353   8.677   3.394  1.2669  0.8876  3.0983
  194MOL0     H25602   7.343   8.973   3.457 -1.7450  1.4057 -2.1376
  194MOL0     H25603   7.378   8.941   3.296 -0.7718  2.3819  0.8305
  194MOL0     H25604   7.567   8.800   3.357  0.5739 -1.9285  1.3529
  194MOL0     H25605   7.587   8.948   3.440  0.8699  0.0103  1.4417
  194MOL0     H25606   7.556   8.633   3.734 -2.3998 -0.2708 -0.3322
  194MOL0     H25607   6.905   8.745   3.233  0.2110  0.6775  3.0884
  194MOL0     H25608   6.688   8.631   3.217 -2.0578 -3.2014  2.1082
  195MOL0     O25609   9.518   6.771   0.079 -0.1493  0.5975  0.4643
  195MOL0     C25610   9.629   6.782   0.031  0.2190  0.3094 -0.3538
  195MOL0     O25611   9.656   6.832  -0.095  0.9009  0.1403  0.7362
  195MOL0     C25612   9.549   6.893  -0.167 -0.3018 -0.2929  1.0115
  195MOL0     C25613   9.549   7.031  -0.170  0.4576  1.4685 -0.2558
  195MOL0     C25614   9.460   7.105  -0.242 -0.0402 -0.8264  0.1311
  195MOL0     C25615   9.349   7.041  -0.304 -0.6046  0.1197 -0.5823
  195MOL0     O25616   9.248   7.106  -0.374 -0.0972  0.7207 -0.3722
  195MOL0     C25617   9.232   7.253  -0.359  0.3745  1.2731 -0.2291
  195MOL0     C25618   9.100   7.307  -0.422 -0.4394 -0.2771 -0.3633
  195MOL0     C25619   8.975   7.266  -0.338 -0.6084  0.0297 -0.3861
  195MOL0     C25620   8.840   7.306  -0.411  0.2001 -0.0895 -0.4869
  195MOL0     C25621   8.722   7.271  -0.315  0.7758 -0.0927  0.8236
  195MOL0     C25622   8.725   7.343  -0.176  0.0438 -0.1480  0.4245
  195MOL0     C25623   8.593   7.340  -0.098  0.3685  0.4165 -0.2971
  195MOL0     C25624   8.537   7.197  -0.082  0.4787  0.0410 -0.0296
  195MOL0     N25625   8.414   7.189  -0.012 -0.0966 -0.0798 -0.2939
  195MOL0     C25626   8.295   7.229  -0.062  0.9726 -0.7680 -0.8754
  195MOL0     C25627   8.209   7.200   0.037 -0.7657 -0.2509  0.3173
  195MOL0     C25628   8.059   7.231   0.055  0.6302  0.1920  0.5096
  195MOL0     C25629   8.025   7.296   0.195  0.0405  0.4178 -0.6193
  195MOL0     C25630   7.933   7.420   0.190  0.5489  0.1764  0.5732
  195MOL0     C25631   7.802   7.383   0.121 -0.6647 -0.4326 -0.7565
  195MOL0     O25632   7.743   7.269   0.184 -0.2837 -0.2424  0.3049
  195MOL0     C25633   7.608   7.257   0.180  0.1462  1.1249 -0.2314
  195MOL0     C25634   7.553   7.155   0.254  0.3616 -0.1413 -0.8062
  195MOL0     C25635   7.410   7.140   0.260  0.1563 -0.8370 -0.5425
  195MOL0     C25636   7.328   7.225   0.183 -0.1631 -0.0644 -0.1137
  195MOL0     C25637   7.183   7.197   0.176  1.2201  0.0348  0.2276
  195MOL0     O25638   7.126   7.223   0.054  0.3548  0.1302 -0.3533
  195MOL0     C25639   6.993   7.191   0.043  0.6733 -1.3731  1.1136
  195MOL0     C25640   6.905   7.303   0.057  0.3056 -0.0435  0.5561
  195MOL0     C25641   6.764   7.273   0.061  0.0707  0.4016  0.9557
  195MOL0     C25642   6.723   7.146   0.041 -0.2845 -0.6406 -0.1572
  195MOL0     O25643   6.588   7.133   0.048  0.2040 -0.4004  0.2562
  195MOL0     C25644   6.523   7.012   0.008 -0.2211 -0.0464 -0.3374
  195MOL0     C25645   6.370   7.026  -0.001  0.4658  0.1879 -0.0004
  195MOL0     C25646   6.317   7.102  -0.117  0.0641  0.2930 -0.0007
  195MOL0     C25647   6.171   7.110  -0.105  0.6336  0.0745  0.6432
  195MOL0     C25648   6.111   7.156  -0.237 -0.6984 -0.6318 -0.3181
  195MOL0     C25649   5.961   7.174  -0.219  0.0067  0.0926  0.6535
  195MOL0     C25650   5.899   7.247  -0.340  0.2722  0.2525  0.3671
  195MOL0     C25651   5.891   7.161  -0.472 -0.1182 -0.3417 -0.4094
  195MOL0    Cl25652   5.799   7.247  -0.601 -0.1213 -0.0168 -0.1779
  195MOL0     C25653   6.804   7.046   0.017 -0.3297  0.2169  0.7946
  195MOL0     C25654   6.943   7.066   0.014 -0.6352 -0.1604 -0.5632
  195MOL0     O25655   7.122   7.151   0.272  0.1868  0.2776  0.5688
  195MOL0     C25656   7.391   7.323   0.106 -0.6067 -0.1310 -1.4402
  195MOL0     C25657   7.526   7.335   0.107 -1.3235  0.4935 -0.3561
  195MOL0     N25658   8.279   7.141   0.133 -0.0627 -0.1512 -0.6891
  195MOL0     N25659   8.401   7.140   0.116 -0.6104 -0.3256 -0.6353
  195MOL0     C25660   9.358   6.901  -0.303 -0.0233 -0.8676  0.0606
  195MOL0     C25661   9.452   6.828  -0.239  0.1642 -0.0442 -0.6261
  195MOL0     C25662   9.745   6.728   0.111  0.9754  0.4106 -0.5733
  195MOL0     C25663   9.873   6.707   0.048 -0.3212  0.0148  0.2721
  195MOL0     C25664   9.970   6.630   0.109  1.1506 -0.6918  0.2907
  195MOL0     C25665   9.958   6.585   0.244 -1.5159  0.7850 -0.2446
  195MOL0     O25666  10.062   6.528   0.319 -0.2743  0.6618  0.1876
  195MOL0     C25667  10.175   6.484   0.243  0.3629 -0.6441 -0.5174
  195MOL0     C25668  10.287   6.431   0.315 -0.3435  0.3819  0.8466
  195MOL0     C25669  10.303   6.278   0.287 -0.2255  0.1491 -0.3897
  195MOL0     C25670  10.416   6.213   0.370 -0.3442 -0.6130 -0.6016
  195MOL0     C25671  10.450   6.073   0.339  0.1410 -0.8205  0.6016
  195MOL0     C25672  10.495   5.965   0.317  0.0914  0.2519  0.5809
  195MOL0     C25673   9.839   6.613   0.307  0.2508  0.3026 -0.2441
  195MOL0     C25674   9.728   6.680   0.242  1.1440  0.2156 -0.1276
  195MOL0     H25675   9.624   7.072  -0.102 -0.5938  1.3965  0.9758
  195MOL0     H25676   9.474   7.212  -0.238 -0.5248 -0.6132 -2.3086
  195MOL0     H25677   9.314   7.306  -0.409 -0.1709  2.3160 -0.0337
  195MOL0     H25678   9.245   7.284  -0.255  1.5267 -0.9227  0.3413
  195MOL0     H25679   9.092   7.271  -0.525  1.9278 -1.1128 -0.3214
  195MOL0     H25680   9.109   7.416  -0.433  0.2804  0.1673  3.3807
  195MOL0     H25681   8.984   7.301  -0.235  0.2597 -0.2433 -0.3567
  195MOL0     H25682   8.962   7.158  -0.339 -1.7745  0.1535 -0.0404
  195MOL0     H25683   8.836   7.412  -0.439  1.9385 -0.0547 -0.6915
  195MOL0     H25684   8.829   7.254  -0.506 -0.3949  1.8282 -1.5156
  195MOL0     H25685   8.721   7.162  -0.311  0.1091 -0.0639  1.8445
  195MOL0     H25686   8.634   7.303  -0.372  2.6679  1.9121 -1.1488
  195MOL0     H25687   8.740   7.451  -0.189  0.2217 -0.0799  1.1857
  195MOL0     H25688   8.802   7.312  -0.105  0.3252 -2.2626 -0.7289
  195MOL0     H25689   8.608   7.373   0.005  0.4284 -0.5020 -0.0049
  195MOL0     H25690   8.520   7.400  -0.154 -1.0688 -1.1525 -0.1587
  195MOL0     H25691   8.615   7.143  -0.026  1.0777  0.3636 -0.5344
  195MOL0     H25692   8.528   7.148  -0.179 -1.0971 -1.6931  0.9339
  195MOL0     H25693   8.264   7.277  -0.154 -1.2817 -1.2517 -0.4225
  195MOL0     H25694   8.018   7.130   0.072 -0.6380  0.2390 -1.8257
  195MOL0     H25695   8.006   7.284  -0.025 -0.7539 -0.1154  1.1789
  195MOL0     H25696   8.121   7.325   0.238  1.1624  1.9360 -3.8323
  195MOL0     H25697   7.978   7.221   0.260 -3.3182  2.9911  0.1764
  195MOL0     H25698   7.919   7.465   0.288 -1.7891 -1.3502  1.0280
  195MOL0     H25699   7.975   7.491   0.118 -1.2626  0.5663 -0.1516
  195MOL0     H25700   7.818   7.358   0.016 -0.4260  1.1308 -1.1080
  195MOL0     H25701   7.756   7.482   0.129  0.4912  0.0734 -0.0029
  195MOL0     H25702   7.614   7.091   0.317 -1.7490 -0.9529  0.5252
  195MOL0     H25703   7.354   7.074   0.325 -2.7118  0.9664 -1.0297
  195MOL0     H25704   6.948   7.400   0.077  0.1413  0.0710  0.3442
  195MOL0     H25705   6.682   7.343   0.072  0.7421  2.0397 -2.8283
  195MOL0     H25706   6.548   6.950   0.095 -0.7427 -1.8390 -1.4151
  195MOL0     H25707   6.560   6.972  -0.086 -2.7189  0.2204 -1.5302
  195MOL0     H25708   6.330   7.076   0.088  2.3806 -1.7016  2.0435
  195MOL0     H25709   6.324   6.927  -0.009 -1.4201  1.0937 -1.2142
  195MOL0     H25710   6.352   7.045  -0.203 -3.7413  1.8202 -2.8399
  195MOL0     H25711   6.358   7.203  -0.124  1.5277 -0.0043  2.8389
  195MOL0     H25712   6.122   7.019  -0.070 -1.4366  1.0800  0.4714
  195MOL0     H25713   6.150   7.184  -0.027  1.0996  0.4644  0.4066
  195MOL0     H25714   6.120   7.078  -0.313  1.9135 -2.2259  1.4788
  195MOL0     H25715   6.164   7.239  -0.284  2.0656 -2.5701 -0.8817
  195MOL0     H25716   5.938   7.228  -0.127 -0.2974 -1.5872  1.6258
  195MOL0     H25717   5.901   7.084  -0.202 -3.2726  2.1549  0.7063
  195MOL0     H25718   5.800   7.274  -0.302  0.7102  0.8899  1.0702
  195MOL0     H25719   5.956   7.336  -0.368 -1.0267  0.9642 -0.1122
  195MOL0     H25720   5.841   7.070  -0.437  1.9206 -0.0163  3.9501
  195MOL0     H25721   5.989   7.136  -0.512  1.5346  2.7517  1.3575
  195MOL0     H25722   6.768   6.944   0.009 -0.8636  0.5391 -3.4514
  195MOL0     H25723   7.005   6.977   0.006  0.4353  0.4861  0.3969
  195MOL0     H25724   7.339   7.395   0.043 -2.9446  0.6635  1.1876
  195MOL0     H25725   7.567   7.413   0.043 -2.1922  3.1646  2.1468
  195MOL0     H25726   9.281   6.846  -0.355 -0.2040 -0.3351 -0.2468
  195MOL0     H25727   9.457   6.720  -0.240  0.5630 -0.0249 -0.8528
  195MOL0     H25728   9.887   6.740  -0.054 -0.4020  1.3299  0.6703
  195MOL0     H25729  10.066   6.626   0.058  1.8966  3.1998  1.0290
  195MOL0     H25730  10.217   6.570   0.190 -1.8198  2.3092  2.1701
  195MOL0     H25731  10.142   6.401   0.179  0.6443 -1.4434  0.3417
  195MOL0     H25732  10.373   6.489   0.281 -1.1219 -0.2879 -2.6828
  195MOL0     H25733  10.268   6.450   0.421 -1.6375  2.8700  0.2565
  195MOL0     H25734  10.315   6.258   0.180 -0.3043 -1.6775 -0.0977
  195MOL0     H25735  10.217   6.220   0.319  0.1752 -0.1612  0.1449
  195MOL0     H25736  10.506   6.274   0.361 -0.8996  0.6747  1.7933
  195MOL0     H25737  10.384   6.207   0.474 -0.8751  0.3933 -0.6959
  195MOL0     H25738  10.527   5.865   0.294  0.6752  0.2035  1.5518
  195MOL0     H25739   9.829   6.605   0.414  2.3819 -1.5142 -0.1127
  195MOL0     H25740   9.639   6.709   0.297  0.0302 -4.1590  0.7963
  196MOL0     O25741   4.175   0.920   6.813 -0.5496  0.3872  0.0875
  196MOL0     C25742   4.253   0.898   6.910  0.0361  0.1426  0.5988
  196MOL0     O25743   4.216   0.897   7.040 -0.5026  0.1447  0.6693
  196MOL0     C25744   4.081   0.921   7.075  0.0396  0.0219  0.2089
  196MOL0     C25745   4.068   1.002   7.184  0.5860  0.1963 -0.4817
  196MOL0     C25746   3.940   1.021   7.237  0.7095  0.2405  0.7020
  196MOL0     C25747   3.821   0.969   7.177 -0.3310  0.3785 -0.5209
  196MOL0     O25748   3.688   0.985   7.212 -0.0605 -1.1548  1.0484
  196MOL0     C25749   3.663   1.076   7.327  1.0619  0.1056 -0.0648
  196MOL0     C25750   3.538   1.161   7.285 -0.0983  0.0271 -0.1197
  196MOL0     C25751   3.403   1.090   7.273 -0.9589 -0.4380  0.2893
  196MOL0     C25752   3.292   1.192   7.253 -0.7698 -0.1593 -0.7011
  196MOL0     C25753   3.159   1.128   7.207 -0.1837 -0.8756  0.5314
  196MOL0     C25754   3.037   1.211   7.183 -0.5946  0.3922  0.3723
  196MOL0     C25755   2.911   1.140   7.143  0.3128 -0.1177  0.2255
  196MOL0     C25756   2.798   1.238   7.113  0.8186 -0.2663  0.6477
  196MOL0     N25757   2.676   1.160   7.075 -0.4402 -0.0088 -1.0773
  196MOL0     C25758   2.642   1.143   6.948  0.7228  0.5392  0.2665
  196MOL0     C25759   2.527   1.079   6.953  0.4559  0.0325 -0.0648
  196MOL0     C25760   2.456   1.043   6.832  0.2591  0.4812  0.4508
  196MOL0     C25761   2.309   1.052   6.842 -0.0153 -0.0659  0.4242
  196MOL0     C25762   2.246   0.946   6.740  0.3328 -0.0696 -0.5238
  196MOL0     C25763   2.099   0.965   6.734 -0.0534  0.5767  0.3622
  196MOL0     O25764   2.040   0.976   6.862  0.2431 -0.4720  0.2907
  196MOL0     C25765   1.911   0.955   6.868  0.2804 -0.4546  0.5821
  196MOL0     C25766   1.856   0.828   6.845  0.9139  1.1774  0.7657
  196MOL0     C25767   1.709   0.808   6.860 -0.9294 -0.3468  0.3615
  196MOL0     C25768   1.626   0.911   6.898  0.3426  0.0684  0.7881
  196MOL0     C25769   1.485   0.891   6.923  0.6433 -0.0656 -0.1518
  196MOL0     O25770   1.402   0.995   6.900 -0.4720 -1.2507  0.4781
  196MOL0     C25771   1.272   1.000   6.947  0.6129  0.3565 -0.2040
  196MOL0     C25772   1.221   1.125   6.962 -0.1018 -0.3097  0.4265
  196MOL0     C25773   1.089   1.144   6.997  0.0976 -0.4733  0.1212
  196MOL0     C25774   1.002   1.042   7.011 -0.5738 -0.8253  0.4682
  196MOL0     O25775   0.872   1.073   7.044 -0.2172 -0.6548 -0.2185
  196MOL0     C25776   0.770   0.993   6.983  0.3628 -0.5952 -0.2807
  196MOL0     C25777   0.643   1.064   7.026 -1.0559 -0.0585 -0.4117
  196MOL0     C25778   0.522   0.998   6.957 -0.7782 -0.2967  0.3146
  196MOL0     C25779   0.383   1.059   6.989  0.3789 -0.0033 -0.6179
  196MOL0     C25780   0.347   1.047   7.141  0.0305 -0.2211 -0.1042
  196MOL0     C25781   0.197   1.039   7.164 -0.1375 -0.4648 -0.2059
  196MOL0     C25782   0.163   1.013   7.305  0.9927  0.1076 -0.0042
  196MOL0     C25783   0.014   0.974   7.317  0.2065  0.1649  0.4284
  196MOL0    Cl25784  -0.029   0.836   7.216 -0.5378  0.1360  0.1780
  196MOL0     C25785   1.048   0.912   6.988 -0.4281 -0.9194 -0.0870
  196MOL0     C25786   1.182   0.893   6.960  0.6640  1.0116  0.3210
  196MOL0     O25787   1.453   0.785   6.974 -0.0997 -0.2637 -0.0902
  196MOL0     C25788   1.685   1.039   6.916  0.7552 -0.0408  0.4115
  196MOL0     C25789   1.824   1.062   6.895 -0.2610  0.4307  0.5195
  196MOL0     N25790   2.486   1.057   7.080 -0.0387  0.8981 -0.2121
  196MOL0     N25791   2.587   1.099   7.156  0.3992  0.0635  0.8224
  196MOL0     C25792   3.851   0.887   7.068  1.0697  0.2077 -0.6670
  196MOL0     C25793   3.979   0.858   7.016  0.1807  0.5625  0.3179
  196MOL0     C25794   4.392   0.882   6.876 -1.1107  0.1545  0.3990
  196MOL0     C25795   4.496   0.940   6.957 -0.4844 -0.7085  0.3592
  196MOL0     C25796   4.627   0.929   6.914 -0.2420 -0.4777 -0.5917
  196MOL0     C25797   4.671   0.852   6.808  0.2539 -0.2599  0.7887
  196MOL0     O25798   4.798   0.841   6.764 -0.5517  0.3191 -0.1156
  196MOL0     C25799   4.908   0.884   6.842  0.1664  0.4150  0.0707
  196MOL0     C25800   4.944   1.030   6.805 -0.8365  1.0918  0.1336
  196MOL0     C25801   5.094   1.056   6.846 -0.2826  0.5142  0.1160
  196MOL0     C25802   5.127   1.204   6.814  0.5005  0.3439  0.2945
  196MOL0     C25803   5.268   1.233   6.850  0.3414 -0.7431  0.0718
  196MOL0     C25804   5.382   1.248   6.882  0.3060  0.0630 -0.4580
  196MOL0     C25805   4.568   0.794   6.729 -1.2029  0.1440 -0.5599
  196MOL0     C25806   4.431   0.803   6.762 -0.3701 -0.7459  0.4204
  196MOL0     H25807   4.150   1.050   7.237 -1.0729  0.0649  2.4382
  196MOL0     H25808   3.930   1.088   7.321 -2.5909 -0.8978  1.3586
  196MOL0     H25809   3.742   1.146   7.355  0.7311  0.8722 -0.9683
  196MOL0     H25810   3.639   1.019   7.417  1.6124  1.0529  0.7008
  196MOL0     H25811   3.563   1.197   7.185 -2.5019 -2.9659 -1.9885
  196MOL0     H25812   3.524   1.242   7.357  1.3246  0.0556  0.1594
  196MOL0     H25813   3.367   1.036   7.361 -1.1806  2.0332  1.8235
  196MOL0     H25814   3.396   1.025   7.185  0.1569 -0.6004  0.3045
  196MOL0     H25815   3.271   1.228   7.355 -1.2743 -1.9972 -0.1283
  196MOL0     H25816   3.333   1.268   7.186  2.0008  2.3724  3.3935
  196MOL0     H25817   3.142   1.053   7.285  0.8797 -0.8876  0.7734
  196MOL0     H25818   3.176   1.072   7.114 -1.0027 -2.3672  1.2450
  196MOL0     H25819   3.052   1.283   7.102 -1.8240 -1.2431 -1.4127
  196MOL0     H25820   3.033   1.271   7.274 -0.5061  0.3380  0.4125
  196MOL0     H25821   2.933   1.062   7.069  0.3040  1.1201 -1.1360
  196MOL0     H25822   2.878   1.095   7.237  1.7104  1.9724  1.8116
  196MOL0     H25823   2.834   1.301   7.031  2.4296 -1.1891  0.5863
  196MOL0     H25824   2.766   1.290   7.204 -1.9850  1.7081 -1.3181
  196MOL0     H25825   2.697   1.179   6.861 -1.4365  0.4980 -1.1944
  196MOL0     H25826   2.498   0.946   6.803  1.7926 -0.0562  3.9427
  196MOL0     H25827   2.488   1.109   6.750 -0.3356  1.4408  0.9768
  196MOL0     H25828   2.278   1.154   6.819 -0.5065 -0.5353 -1.0719
  196MOL0     H25829   2.268   1.020   6.938 -0.8169  0.5970  0.3115
  196MOL0     H25830   2.297   0.954   6.643 -1.5764 -3.4870 -1.9867
  196MOL0     H25831   2.266   0.844   6.775  3.6541  0.2380 -1.1677
  196MOL0     H25832   2.067   0.881   6.671  2.8239 -0.2145 -0.2181
  196MOL0     H25833   2.077   1.056   6.677 -1.8509  0.8818  1.4786
  196MOL0     H25834   1.926   0.746   6.831  1.1553  1.6341 -0.8604
  196MOL0     H25835   1.669   0.708   6.849  1.1530 -1.0492 -1.6000
  196MOL0     H25836   1.282   1.214   6.975  0.6938 -0.5991 -1.1925
  196MOL0     H25837   1.046   1.240   7.027 -0.5631 -1.5561  2.9663
  196MOL0     H25838   0.768   0.894   7.030  0.4394  0.2823  1.6937
  196MOL0     H25839   0.781   0.988   6.874 -0.6852 -2.7130 -0.3351
  196MOL0     H25840   0.646   1.165   6.985  2.1396 -0.0817 -0.4904
  196MOL0     H25841   0.636   1.062   7.135  1.1973  1.6592 -0.1660
  196MOL0     H25842   0.516   0.892   6.981 -1.6777 -0.6429 -1.3509
  196MOL0     H25843   0.539   0.994   6.850 -0.9276  1.6218  0.1732
  196MOL0     H25844   0.381   1.165   6.962 -1.3555 -0.6775 -3.6000
  196MOL0     H25845   0.313   1.011   6.919 -2.4823  1.6788  0.8853
  196MOL0     H25846   0.404   1.126   7.190 -1.2668  1.3889 -1.0621
  196MOL0     H25847   0.386   0.948   7.168 -0.2806 -0.5716 -0.8894
  196MOL0     H25848   0.170   0.948   7.109  1.0395 -1.0570  0.1592
  196MOL0     H25849   0.140   1.126   7.132  0.5122  0.4295  0.9847
  196MOL0     H25850   0.236   0.937   7.335 -1.3544 -2.1623  0.3155
  196MOL0     H25851   0.188   1.106   7.358  0.3004 -0.6231  1.6757
  196MOL0     H25852  -0.043   1.064   7.289  0.0755 -1.0730 -4.0642
  196MOL0     H25853  -0.006   0.949   7.421 -2.4976 -4.1786 -0.8834
  196MOL0     H25854   0.980   0.828   6.997 -2.5472 -0.0227 -4.6391
  196MOL0     H25855   1.219   0.792   6.945 -1.1947  0.4871 -1.0382
  196MOL0     H25856   1.634   1.132   6.940  2.4148  1.1037 -0.3674
  196MOL0     H25857   1.850   1.166   6.911 -0.7379  1.1460 -2.8166
  196MOL0     H25858   3.769   0.831   7.023 -2.4362  2.5000  2.2299
  196MOL0     H25859   4.013   0.785   6.943  1.5556 -0.2833  1.7367
  196MOL0     H25860   4.475   0.995   7.049 -1.2530 -0.2095 -0.1068
  196MOL0     H25861   4.700   0.983   6.973 -0.8949  1.9872 -1.9321
  196MOL0     H25862   4.987   0.817   6.809  1.4623  0.9292  1.9624
  196MOL0     H25863   4.896   0.875   6.950 -1.0263 -1.0063 -0.1439
  196MOL0     H25864   4.945   1.052   6.698  0.5079  0.3666 -0.0242
  196MOL0     H25865   4.879   1.098   6.861 -2.2451 -0.5108  0.5417
  196MOL0     H25866   5.155   0.992   6.781 -0.7182  0.0911  0.1230
  196MOL0     H25867   5.127   1.045   6.950  0.2132  0.4212 -0.0449
  196MOL0     H25868   5.105   1.224   6.709  0.5493 -0.3455  0.1487
  196MOL0     H25869   5.058   1.265   6.873 -1.4848 -0.0579 -1.4972
  196MOL0     H25870   5.486   1.271   6.897  0.8824 -0.8635 -2.6286
  196MOL0     H25871   4.594   0.727   6.648 -2.8748 -3.0363  1.3626
  196MOL0     H25872   4.356   0.761   6.696 -0.5987  0.1692  0.0937
  197MOL0     O25873   4.234  10.169   4.282 -0.1126  0.0281 -0.6613
  197MOL0     C25874   4.264  10.141   4.400  0.6674 -0.0471  0.0865
  197MOL0     O25875   4.184  10.139   4.504  0.8700  0.4575 -0.1260
  197MOL0     C25876   4.047  10.178   4.500 -1.7587 -0.6183  0.0548
  197MOL0     C25877   3.990  10.237   4.614  0.4033  0.1406  0.3022
  197MOL0     C25878   3.854  10.254   4.612  1.5382  0.0709  0.2684
  197MOL0     C25879   3.773  10.225   4.497  0.4938 -0.0385 -0.1606
  197MOL0     O25880   3.642  10.249   4.468 -0.1052 -0.0855 -0.4094
  197MOL0     C25881   3.571  10.346   4.543 -0.4645  0.3451  0.4911
  197MOL0     C25882   3.430  10.346   4.497  0.7169 -0.6966  0.0195
  197MOL0     C25883   3.359  10.221   4.557  0.4063  0.4100  0.4485
  197MOL0     C25884   3.206  10.223   4.518  0.4341  0.6546 -0.4473
  197MOL0     C25885   3.139  10.085   4.549  0.3105 -1.0093  0.3917
  197MOL0     C25886   3.128  10.044   4.691  0.7311  0.2001 -0.0152
  197MOL0     C25887   3.089   9.894   4.700 -0.6124 -0.7794 -0.1019
  197MOL0     C25888   2.959   9.855   4.627  0.1578  0.3595  0.3018
  197MOL0     N25889   2.840   9.928   4.676  0.7660  0.5576  0.3496
  197MOL0     C25890   2.780   9.904   4.794 -0.3877 -0.2095 -0.3600
  197MOL0     C25891   2.657   9.961   4.789  0.4558 -0.2067  0.2867
  197MOL0     C25892   2.563   9.947   4.909  1.2640 -0.6794 -1.0890
  197MOL0     C25893   2.487  10.074   4.954 -0.1634  0.1773 -0.5661
  197MOL0     C25894   2.409  10.137   4.842 -0.0525 -0.0628  0.4281
  197MOL0     C25895   2.318  10.242   4.901 -0.5214  0.2873  1.0017
  197MOL0     O25896   2.224  10.198   4.997  0.5958 -0.0336 -0.0660
  197MOL0     C25897   2.110  10.133   4.954  0.0841  0.0511 -0.2159
  197MOL0     C25898   2.072  10.119   4.816  0.5553 -0.2736  0.3302
  197MOL0     C25899   1.951  10.051   4.792 -0.0726 -0.5027 -0.0113
  197MOL0     C25900   1.864  10.004   4.898  0.7297 -0.5391  0.6301
  197MOL0     C25901   1.739   9.936   4.868  0.1589 -0.1682  0.1836
  197MOL0     O25902   1.699   9.903   4.739 -0.2612 -0.0452  0.3501
  197MOL0     C25903   1.582   9.846   4.706 -1.1530 -0.6276  0.3102
  197MOL0     C25904   1.575   9.833   4.571 -0.0244  1.0912  0.5218
  197MOL0     C25905   1.463   9.775   4.503 -0.2514 -0.2478 -0.4250
  197MOL0     C25906   1.357   9.732   4.582 -0.1562  0.1825 -0.3974
  197MOL0     O25907   1.257   9.666   4.509  0.2013  0.5188 -0.7897
  197MOL0     C25908   1.146   9.615   4.590 -0.6893 -0.3158 -0.1852
  197MOL0     C25909   1.054   9.503   4.534  0.6478 -0.1916  0.0024
  197MOL0     C25910   0.972   9.439   4.635 -0.3967 -0.3354 -0.0194
  197MOL0     C25911   0.873   9.527   4.698  0.6965 -0.3106  0.0025
  197MOL0     C25912   0.802   9.473   4.822 -0.1969 -0.8000  0.9962
  197MOL0     C25913   0.687   9.561   4.877 -0.1669  0.6272 -0.7268
  197MOL0     C25914   0.606   9.472   4.978 -0.2662  0.6383  0.4546
  197MOL0     C25915   0.494   9.544   5.051 -0.4453  0.0968  0.8592
  197MOL0    Cl25916   0.356   9.572   4.933  0.1731  0.0674 -0.0241
  197MOL0     C25917   1.360   9.753   4.720  0.1733 -0.3347  0.7188
  197MOL0     C25918   1.468   9.819   4.783  0.5217 -1.1591 -0.2148
  197MOL0     O25919   1.678   9.896   4.970  0.1420  0.1569  0.0669
  197MOL0     C25920   1.902  10.032   5.026 -0.0946 -0.4204 -0.1693
  197MOL0     C25921   2.025  10.087   5.052  0.1749  0.3980  0.1111
  197MOL0     N25922   2.646  10.011   4.655 -0.0746  0.3105  0.7171
  197MOL0     N25923   2.757   9.985   4.583  0.4363  0.9620 -0.0153
  197MOL0     C25924   3.831  10.154   4.391  0.1885 -0.9548 -0.4638
  197MOL0     C25925   3.967  10.140   4.395 -0.6526 -0.7544  0.0348
  197MOL0     C25926   4.410  10.134   4.426 -0.2206 -0.5653  0.3482
  197MOL0     C25927   4.490  10.088   4.325  0.5778  0.7671 -0.4779
  197MOL0     C25928   4.623  10.074   4.349  0.1462  0.7566  0.4808
  197MOL0     C25929   4.684  10.114   4.465 -0.7568 -0.0164  0.1385
  197MOL0     O25930   4.820  10.092   4.486 -0.1497  0.0877  0.1434
  197MOL0     C25931   4.898  10.007   4.391 -0.2227 -0.1610 -0.2575
  197MOL0     C25932   4.975  10.092   4.295  0.2580 -0.7695 -0.8752
  197MOL0     C25933   5.086  10.154   4.376 -1.0328 -0.6297  0.4458
  197MOL0     C25934   5.163  10.268   4.299  0.7329  0.5484 -0.4355
  197MOL0     C25935   5.240  10.224   4.185 -0.0748  0.1812  0.7639
  197MOL0     C25936   5.294  10.189   4.085  0.1141 -0.4683 -0.2976
  197MOL0     C25937   4.604  10.157   4.568  0.6471 -0.2554  0.4495
  197MOL0     C25938   4.467  10.163   4.550 -0.3565  0.3075  0.2019
  197MOL0     H25939   4.044  10.276   4.700 -0.4781  0.7048  0.6076
  197MOL0     H25940   3.805  10.306   4.694  0.0324 -0.0153 -0.5357
  197MOL0     H25941   3.620  10.440   4.518  0.3727 -0.6611 -2.0168
  197MOL0     H25942   3.577  10.345   4.652  3.0779 -1.4846  0.4534
  197MOL0     H25943   3.432  10.351   4.388  1.3662 -0.8090  0.0269
  197MOL0     H25944   3.374  10.435   4.530 -0.2772 -2.1881  2.7334
  197MOL0     H25945   3.379  10.223   4.664  1.4772  1.3945  0.2471
  197MOL0     H25946   3.399  10.135   4.503 -0.3184 -0.0602  0.6391
  197MOL0     H25947   3.159  10.297   4.584 -0.8741  0.4199 -1.0929
  197MOL0     H25948   3.196  10.255   4.413 -1.9170 -0.7167 -0.7114
  197MOL0     H25949   3.190  10.013   4.483  0.3536  3.2065 -4.8322
  197MOL0     H25950   3.033  10.094   4.524  0.2836  2.5988  1.3365
  197MOL0     H25951   3.050  10.097   4.746  0.2425  1.5085 -1.8425
  197MOL0     H25952   3.217  10.061   4.751  1.9999  0.3269 -1.8530
  197MOL0     H25953   3.172   9.835   4.662  2.2232  2.3586  0.7163
  197MOL0     H25954   3.079   9.862   4.804 -0.2897  0.6634  0.3936
  197MOL0     H25955   2.951   9.748   4.644  0.8280 -0.4758 -3.5868
  197MOL0     H25956   2.973   9.858   4.518  2.2204 -1.0924  0.4714
  197MOL0     H25957   2.826   9.858   4.880 -1.7260  1.2617  1.2357
  197MOL0     H25958   2.622   9.897   4.987 -0.7825 -1.4009  0.0655
  197MOL0     H25959   2.491   9.867   4.890  0.9259 -0.8062  0.5324
  197MOL0     H25960   2.557  10.150   4.991  0.1071  0.3780 -1.4596
  197MOL0     H25961   2.415  10.051   5.033 -0.1477  1.7410 -0.0577
  197MOL0     H25962   2.468  10.186   4.764  0.1281  0.7059  1.0411
  197MOL0     H25963   2.347  10.056   4.801  1.1111 -2.1240  2.5035
  197MOL0     H25964   2.268  10.303   4.825  0.9481  0.4034  0.0729
  197MOL0     H25965   2.381  10.318   4.949  0.1799  0.4195 -0.0920
  197MOL0     H25966   2.136  10.142   4.731 -0.3542 -1.0074 -0.5812
  197MOL0     H25967   1.926  10.023   4.690  1.3497 -1.0838 -0.2260
  197MOL0     H25968   1.654   9.875   4.510  1.6235 -0.5364  1.4302
  197MOL0     H25969   1.451   9.774   4.395 -0.8939 -0.2930 -0.3595
  197MOL0     H25970   1.098   9.703   4.633  0.4540 -0.1454  0.7907
  197MOL0     H25971   1.189   9.578   4.684  0.0651  1.8472  0.3840
  197MOL0     H25972   1.113   9.425   4.485 -1.1263 -0.1431 -2.4180
  197MOL0     H25973   0.986   9.544   4.458 -1.0263 -0.6496  1.1954
  197MOL0     H25974   1.024   9.396   4.721 -2.1096  2.2902  2.5398
  197MOL0     H25975   0.925   9.357   4.580  1.9523 -3.1708  1.9413
  197MOL0     H25976   0.924   9.619   4.728  2.2700 -0.7953 -1.0506
  197MOL0     H25977   0.798   9.555   4.623 -0.9213 -1.9395  0.9381
  197MOL0     H25978   0.885   9.448   4.890  0.6000 -2.3010 -0.4380
  197MOL0     H25979   0.754   9.384   4.781  0.6666 -0.2904 -1.2328
  197MOL0     H25980   0.619   9.590   4.797  1.4684 -0.5673 -2.6496
  197MOL0     H25981   0.730   9.653   4.917  1.0669  0.3040 -1.2527
  197MOL0     H25982   0.565   9.387   4.923 -2.4845  2.5764 -1.1498
  197MOL0     H25983   0.673   9.441   5.058  1.8517 -0.2234 -1.5313
  197MOL0     H25984   0.535   9.645   5.065  1.5812 -0.4762 -0.5190
  197MOL0     H25985   0.452   9.502   5.143 -2.9699 -1.1915 -0.7846
  197MOL0     H25986   1.277   9.726   4.784  0.0513  0.6062  0.9737
  197MOL0     H25987   1.454   9.842   4.889  0.9872  1.4598 -0.6468
  197MOL0     H25988   1.842  10.004   5.113 -3.3926  2.8336 -1.1258
  197MOL0     H25989   2.065  10.086   5.152  1.0091 -3.0668 -0.1164
  197MOL0     H25990   3.766  10.111   4.315 -0.0472 -3.4167  1.0085
  197MOL0     H25991   4.020  10.082   4.320 -1.0484 -0.3368 -0.5855
  197MOL0     H25992   4.448  10.039   4.238  2.9580 -1.5614 -0.4385
  197MOL0     H25993   4.677  10.043   4.260 -1.5633  0.2579 -0.4166
  197MOL0     H25994   4.844   9.926   4.341  3.3215 -2.4741 -0.7813
  197MOL0     H25995   4.976   9.965   4.456  0.0269  1.5583  0.6128
  197MOL0     H25996   5.019  10.031   4.215 -3.6036 -0.9463 -3.1159
  197MOL0     H25997   4.919  10.175   4.251  0.7574  0.5798  0.8966
  197MOL0     H25998   5.157  10.077   4.407 -1.3915 -0.2852  2.2522
  197MOL0     H25999   5.055  10.194   4.472  0.8991 -1.7331  1.6023
  197MOL0     H26000   5.099  10.351   4.267  0.1481  1.3248  2.4425
  197MOL0     H26001   5.228  10.315   4.374  2.5751  0.7048 -2.0709
  197MOL0     H26002   5.341  10.158   3.994 -3.8741 -0.8961 -2.4388
  197MOL0     H26003   4.652  10.172   4.664  2.9787 -0.5252 -0.6037
  197MOL0     H26004   4.413  10.202   4.636 -0.4696  1.4608 -0.3720
  198MOL0     O26005  10.567   6.173   9.830 -0.1534 -0.0048  0.6519
  198MOL0     C26006  10.524   6.068   9.861  0.5312  0.3340  0.0628
  198MOL0     O26007  10.598   5.969   9.930  0.0155 -0.3751 -0.2143
  198MOL0     C26008  10.733   5.987   9.967  0.6711  0.0041  0.6702
  198MOL0     C26009  10.786   6.108  10.002  0.0263 -0.4210 -0.3062
  198MOL0     C26010  10.917   6.119  10.043 -0.7321  0.7298 -0.5344
  198MOL0     C26011  11.003   6.012  10.035  0.2405 -0.6143 -0.0700
  198MOL0     O26012  11.128   6.020  10.091  0.7604 -0.9460  0.9425
  198MOL0     C26013  11.231   6.067  10.004 -0.0934 -0.0441  0.0473
  198MOL0     C26014  11.372   6.057  10.070  0.1070 -0.1355  0.0387
  198MOL0     C26015  11.474   6.106   9.975  0.0803 -0.5359  0.2074
  198MOL0     C26016  11.610   6.071  10.038 -0.2425  0.7222 -0.3421
  198MOL0     C26017  11.719   6.139   9.963 -0.7075  0.4018 -0.3008
  198MOL0     C26018  11.870   6.083   9.963  0.4462  0.2631 -0.7400
  198MOL0     C26019  11.933   6.110  10.102 -0.3795 -0.1088  0.5816
  198MOL0     C26020  12.066   6.044  10.113 -0.8931 -0.0634  0.2541
  198MOL0     N26021  12.135   6.071  10.243  1.1900  0.5068 -0.6602
  198MOL0     C26022  12.167   6.198  10.297 -0.5404  0.4045 -0.2347
  198MOL0     C26023  12.223   6.173  10.414 -0.0230  0.3624 -0.2856
  198MOL0     C26024  12.284   6.277  10.500  0.2851 -0.4437 -1.0605
  198MOL0     C26025  12.178   6.322  10.608 -0.1470 -0.2730  0.4409
  198MOL0     C26026  12.249   6.410  10.711  0.2666 -0.5804 -0.4197
  198MOL0     C26027  12.172   6.455  10.827 -0.1799  0.3073  0.6414
  198MOL0     O26028  12.069   6.547  10.787 -0.6093 -0.4698  0.5495
  198MOL0     C26029  11.935   6.523  10.808  0.0321 -0.1053  0.2074
  198MOL0     C26030  11.886   6.452  10.910 -0.8714  0.1596 -0.4606
  198MOL0     C26031  11.749   6.438  10.937 -0.7883  0.1999 -0.1809
  198MOL0     C26032  11.660   6.509  10.862  0.5516  0.2429  0.7231
  198MOL0     C26033  11.519   6.516  10.898  0.3318  0.8670 -0.2299
  198MOL0     O26034  11.436   6.607  10.831  0.0698  0.2896 -0.3022
  198MOL0     C26035  11.300   6.595  10.828  1.0692 -0.5806  0.2557
  198MOL0     C26036  11.217   6.663  10.918  0.2487 -0.5959 -0.1548
  198MOL0     C26037  11.077   6.644  10.922  0.3697 -0.3453 -0.1052
  198MOL0     C26038  11.017   6.564  10.828 -1.1863  0.3363  0.3385
  198MOL0     O26039  10.880   6.551  10.840  0.3666  0.3461 -0.4100
  198MOL0     C26040  10.807   6.482  10.733 -0.0645  0.1044  0.9718
  198MOL0     C26041  10.659   6.524  10.765 -0.1431  0.2135 -0.0285
  198MOL0     C26042  10.567   6.446  10.671 -1.0262 -0.2940 -0.3490
  198MOL0     C26043  10.436   6.473  10.724 -0.4135  0.2248  0.2263
  198MOL0     C26044  10.334   6.389  10.636  0.0114  0.0177  0.5688
  198MOL0     C26045  10.184   6.418  10.649 -0.3679 -1.1380 -0.0680
  198MOL0     C26046  10.088   6.309  10.597  0.2218 -0.0748  0.4003
  198MOL0     C26047   9.965   6.370  10.523  0.3830  0.3516  0.0126
  198MOL0    Cl26048  10.014   6.450  10.369 -0.4039  0.1114  0.1879
  198MOL0     C26049  11.099   6.498  10.731 -0.0090 -0.1721  0.6462
  198MOL0     C26050  11.242   6.507  10.733  0.9734  0.4963  0.0668
  198MOL0     O26051  11.475   6.429  10.978 -0.1293 -0.5350 -0.2341
  198MOL0     C26052  11.708   6.588  10.763 -0.7748  0.5432  0.8204
  198MOL0     C26053  11.841   6.591  10.725 -0.3336 -0.6035 -0.3902
  198MOL0     N26054  12.227   6.035  10.444 -0.0313 -0.3088  0.3177
  198MOL0     N26055  12.178   5.982  10.338 -0.0090 -0.6416 -0.5468
  198MOL0     C26056  10.957   5.886  10.009  1.1332  0.5991  0.4984
  198MOL0     C26057  10.814   5.876   9.982  1.3082 -0.4280  0.6080
  198MOL0     C26058  10.383   6.028   9.843  0.5695 -0.1655  0.6880
  198MOL0     C26059  10.300   6.110   9.753  0.3033 -0.5286 -1.1927
  198MOL0     C26060  10.181   6.072   9.709 -0.4677  0.4318 -0.2921
  198MOL0     C26061  10.132   5.942   9.736 -1.0584 -0.6920  0.5658
  198MOL0     O26062  10.019   5.891   9.685  0.9868  0.3668 -0.0331
  198MOL0     C26063   9.911   5.961   9.739 -0.0098  0.6760 -0.1235
  198MOL0     C26064   9.836   6.048   9.644 -1.2213  0.2498  0.0499
  198MOL0     C26065   9.796   5.963   9.522  0.3475  0.0089  0.3022
  198MOL0     C26066   9.683   6.042   9.447 -0.3169  0.0896 -0.0653
  198MOL0     C26067   9.629   5.946   9.345  0.3165 -0.6113  0.7987
  198MOL0     C26068   9.590   5.873   9.251  0.5181  0.1282 -0.0905
  198MOL0     C26069  10.207   5.866   9.821  0.1666  0.1129  0.1732
  198MOL0     C26070  10.326   5.908   9.880 -0.1497  0.5600 -1.1532
  198MOL0     H26071  10.720   6.194  10.014 -0.2251 -0.6531  0.0003
  198MOL0     H26072  10.962   6.215  10.067  1.8118 -0.6735  0.7919
  198MOL0     H26073  11.213   6.172   9.979 -0.0910 -0.0407  0.0591
  198MOL0     H26074  11.232   6.017   9.907 -4.6827  1.8933 -1.2812
  198MOL0     H26075  11.399   5.953  10.093 -0.0021  0.2604  2.0549
  198MOL0     H26076  11.379   6.115  10.162 -0.3569  1.0553 -0.6550
  198MOL0     H26077  11.456   6.214   9.966 -3.0001 -0.9263  0.4892
  198MOL0     H26078  11.465   6.069   9.873 -1.4506  2.6722 -0.9717
  198MOL0     H26079  11.613   6.099  10.143 -1.0986  3.0494 -0.8715
  198MOL0     H26080  11.609   5.962  10.027 -5.1252  0.6876 -1.7486
  198MOL0     H26081  11.713   6.239  10.007 -1.1818 -0.1238  0.8547
  198MOL0     H26082  11.686   6.139   9.858 -1.7927  1.4718  0.0106
  198MOL0     H26083  11.933   6.114   9.879  3.4859 -3.2108  0.0149
  198MOL0     H26084  11.863   5.975   9.949  2.6769 -0.2383  1.3563
  198MOL0     H26085  11.952   6.214  10.129  1.8912 -0.2647 -0.2008
  198MOL0     H26086  11.868   6.076  10.184 -0.5079  3.4878  2.1384
  198MOL0     H26087  12.127   6.082  10.031 -0.3558  0.5182  0.9126
  198MOL0     H26088  12.056   5.937  10.091  1.2673 -0.5793  1.5310
  198MOL0     H26089  12.158   6.292  10.243 -0.5071 -0.0582 -1.0534
  198MOL0     H26090  12.315   6.364  10.441  2.4899 -0.2109  0.3144
  198MOL0     H26091  12.369   6.228  10.550 -1.2302 -0.4490  1.7051
  198MOL0     H26092  12.140   6.230  10.654  1.9619 -1.1773  0.4627
  198MOL0     H26093  12.100   6.383  10.561  1.4682  0.6559 -1.1400
  198MOL0     H26094  12.330   6.350  10.755  0.3324 -2.0067 -2.3422
  198MOL0     H26095  12.290   6.502  10.669 -2.1315  0.3914 -0.7389
  198MOL0     H26096  12.235   6.499  10.905 -1.7057  0.2041  1.9743
  198MOL0     H26097  12.138   6.356  10.858  3.5511 -1.3886 -0.0573
  198MOL0     H26098  11.961   6.415  10.979  0.0946 -0.7137 -1.9081
  198MOL0     H26099  11.719   6.384  11.027  0.9931  0.2381  0.4858
  198MOL0     H26100  11.268   6.726  10.991 -3.0260  0.0116  1.8046
  198MOL0     H26101  11.037   6.714  10.995  1.5307  0.6289 -0.3581
  198MOL0     H26102  10.815   6.373  10.736 -2.2583 -0.0838  2.6337
  198MOL0     H26103  10.844   6.504  10.632  0.6052 -1.7086  0.7850
  198MOL0     H26104  10.654   6.633  10.754  2.9866  0.4329 -0.1794
  198MOL0     H26105  10.641   6.491  10.868 -0.0813 -0.9286 -0.3672
  198MOL0     H26106  10.583   6.338  10.673 -0.0195 -0.1640 -0.9329
  198MOL0     H26107  10.571   6.477  10.566 -2.1957 -0.1337 -0.3564
  198MOL0     H26108  10.426   6.446  10.829 -1.3606  1.2391  0.4182
  198MOL0     H26109  10.428   6.582  10.712  1.0653  0.4092  0.6887
  198MOL0     H26110  10.350   6.281  10.645 -0.5888 -0.2695 -1.3926
  198MOL0     H26111  10.356   6.409  10.531  0.2329  0.8333  0.7689
  198MOL0     H26112  10.176   6.514  10.597  1.8669 -0.7586  0.1808
  198MOL0     H26113  10.153   6.437  10.752 -0.6077 -2.7523  0.1929
  198MOL0     H26114  10.131   6.237  10.527  1.0567  2.4586 -1.8576
  198MOL0     H26115  10.038   6.253  10.677  1.9385 -1.2808  0.6777
  198MOL0     H26116   9.903   6.438  10.581 -2.7500 -0.2318 -2.4049
  198MOL0     H26117   9.898   6.288  10.494  1.0212 -0.8548  1.7780
  198MOL0     H26118  11.067   6.416  10.668  0.4992 -0.1583  0.3657
  198MOL0     H26119  11.311   6.458  10.665  0.1266  0.2581 -0.6254
  198MOL0     H26120  11.645   6.654  10.705 -1.4310  0.0400  0.9484
  198MOL0     H26121  11.885   6.663  10.657  1.8584  1.2415  2.6594
  198MOL0     H26122  11.020   5.797  10.010  1.6908  0.9802  0.1065
  198MOL0     H26123  10.768   5.782   9.953 -1.0449  1.0634 -0.8594
  198MOL0     H26124  10.323   6.206   9.709 -3.2323 -0.1657 -2.5529
  198MOL0     H26125  10.141   6.132   9.628  1.4441  2.0281 -0.1292
  198MOL0     H26126   9.936   6.012   9.833  0.1336  0.3114  0.0394
  198MOL0     H26127   9.840   5.880   9.759  1.0211 -0.6460 -1.5647
  198MOL0     H26128   9.746   6.082   9.697 -1.3836  0.1162 -0.1350
  198MOL0     H26129   9.902   6.131   9.618  2.8032 -1.5418  3.3710
  198MOL0     H26130   9.756   5.869   9.561 -0.8540 -0.0699 -1.0220
  198MOL0     H26131   9.882   5.940   9.458 -0.7843 -1.2748 -0.8252
  198MOL0     H26132   9.598   6.079   9.505  1.1362  2.3737  0.7161
  198MOL0     H26133   9.732   6.126   9.398 -0.2515  1.0505  1.5624
  198MOL0     H26134   9.561   5.794   9.184  3.6937 -2.3659  1.1959
  198MOL0     H26135  10.182   5.763   9.843 -2.1415  0.6845  0.4732
  198MOL0     H26136  10.367   5.840   9.954 -0.1850  2.8483  1.0940
  199MOL0     O26137   8.912  11.055  10.120  0.6182 -0.1573 -0.3695
  199MOL0     C26138   8.888  11.135  10.023  0.9954 -0.6182 -0.8115
  199MOL0     O26139   8.761  11.179   9.994 -0.0098 -0.6412 -0.2252
  199MOL0     C26140   8.656  11.157  10.081 -0.6045  0.2169 -0.2749
  199MOL0     C26141   8.530  11.092  10.042 -0.5377 -0.6715 -0.2387
  199MOL0     C26142   8.417  11.075  10.124  0.5608  0.0358  0.0376
  199MOL0     C26143   8.430  11.117  10.258 -0.4593  0.3121  0.2280
  199MOL0     O26144   8.333  11.095  10.356 -0.5985 -0.4833 -0.3511
  199MOL0     C26145   8.202  11.039  10.335 -0.7385  0.0156  1.3843
  199MOL0     C26146   8.217  10.882  10.359  0.0713 -0.5576  0.6104
  199MOL0     C26147   8.092  10.799  10.320  0.3566 -0.5152 -0.2021
  199MOL0     C26148   8.121  10.643  10.350 -0.1015 -0.0074 -0.4790
  199MOL0     C26149   8.037  10.551  10.273  0.3897 -0.2442 -0.2085
  199MOL0     C26150   8.091  10.519  10.140 -0.6220 -0.3223  0.2501
  199MOL0     C26151   8.214  10.429  10.135 -0.1868 -0.0067 -0.3476
  199MOL0     C26152   8.184  10.286  10.150  0.4814  0.2105 -0.7913
  199MOL0     N26153   8.298  10.198  10.152  0.5704 -0.2834  0.2100
  199MOL0     C26154   8.339  10.137  10.035  0.3701 -0.7045 -0.4657
  199MOL0     C26155   8.459  10.098  10.053  0.2273 -0.4106 -0.2851
  199MOL0     C26156   8.509   9.991   9.969  0.0255 -0.1495  0.5854
  199MOL0     C26157   8.621  10.042   9.872  0.4256 -0.1104 -0.3021
  199MOL0     C26158   8.753  10.063   9.950 -0.9123 -0.1567 -0.4651
  199MOL0     C26159   8.876  10.077   9.856  0.7907  0.6052 -1.0305
  199MOL0     O26160   8.869  10.210   9.812 -0.2808  0.3875  0.2974
  199MOL0     C26161   8.963  10.243   9.706  0.3054 -0.3255 -0.0331
  199MOL0     C26162   9.079  10.180   9.661  0.5779  0.2026  0.1419
  199MOL0     C26163   9.163  10.244   9.571 -0.5670  0.3939 -0.1465
  199MOL0     C26164   9.147  10.381   9.537 -0.8730  0.5215 -0.2405
  199MOL0     C26165   9.252  10.463   9.481 -0.2958 -0.4872 -0.4749
  199MOL0     O26166   9.341  10.397   9.402 -0.1053  0.1322  0.1406
  199MOL0     C26167   9.456  10.460   9.359 -0.0135  0.2415 -1.1376
  199MOL0     C26168   9.456  10.580   9.291  1.2872 -1.0732 -0.2866
  199MOL0     C26169   9.572  10.632   9.227 -0.6174  0.1492 -0.3951
  199MOL0     C26170   9.689  10.561   9.222 -0.2879 -0.1303 -0.0563
  199MOL0     O26171   9.798  10.614   9.163  0.0134  0.2168 -0.8180
  199MOL0     C26172   9.918  10.533   9.162 -0.1174  0.3101 -0.0490
  199MOL0     C26173   9.987  10.548   9.295 -0.8016 -0.1980  0.7586
  199MOL0     C26174  10.101  10.451   9.307  0.2497 -1.0969  1.2061
  199MOL0     C26175  10.192  10.428   9.186  0.0314 -0.0373  0.6719
  199MOL0     C26176  10.313  10.334   9.216 -0.1501  0.2904 -0.2467
  199MOL0     C26177  10.375  10.272   9.090 -0.7455 -0.5606  0.0381
  199MOL0     C26178  10.489  10.174   9.124  1.0676 -0.0068 -0.5404
  199MOL0     C26179  10.573  10.131   9.006 -0.1138 -0.1323  0.6465
  199MOL0    Cl26180  10.711  10.058   9.083  0.2699 -0.0490  0.3890
  199MOL0     C26181   9.692  10.438   9.295  0.7854  0.2972  0.2559
  199MOL0     C26182   9.575  10.392   9.365  0.6775  0.8366 -0.1585
  199MOL0     O26183   9.249  10.583   9.508  0.4674  1.2289 -0.3425
  199MOL0     C26184   9.034  10.438   9.579 -0.0936 -0.1413  0.1690
  199MOL0     C26185   8.940  10.370   9.659 -0.1030 -0.2815  0.4805
  199MOL0     N26186   8.498  10.135  10.184 -0.1949  0.7817  0.2323
  199MOL0     N26187   8.400  10.196  10.240  0.0819  0.2332 -0.2978
  199MOL0     C26188   8.542  11.182  10.309 -0.5191 -0.0035  0.3261
  199MOL0     C26189   8.659  11.200  10.219  0.1238 -0.7327 -0.4731
  199MOL0     C26190   8.992  11.191   9.950 -0.0223  0.2482 -0.9519
  199MOL0     C26191   9.132  11.165   9.996  0.1614  0.4443 -0.0569
  199MOL0     C26192   9.238  11.206   9.918  0.2190  0.0568  0.0429
  199MOL0     C26193   9.216  11.271   9.798 -1.3978  0.0430 -0.7244
  199MOL0     O26194   9.316  11.317   9.712  0.1473 -0.1804 -0.5100
  199MOL0     C26195   9.448  11.313   9.761 -0.3442 -0.3413 -0.7283
  199MOL0     C26196   9.514  11.167   9.747  0.5697  0.1166 -1.4295
  199MOL0     C26197   9.495  11.111   9.608  0.0745  0.2301  0.4261
  199MOL0     C26198   9.555  10.981   9.583 -0.5428 -0.3050  0.5604
  199MOL0     C26199   9.478  10.873   9.647  0.1795 -0.5223  0.8632
  199MOL0     C26200   9.440  10.780   9.718 -0.5994  0.1145 -0.0327
  199MOL0     C26201   9.089  11.289   9.752 -0.9094  1.0258 -0.7443
  199MOL0     C26202   8.979  11.251   9.826 -1.1394  0.2354  0.1985
  199MOL0     H26203   8.517  11.058   9.940 -1.1240 -3.3396  0.6379
  199MOL0     H26204   8.329  11.027  10.082  1.8255 -1.8991 -0.5208
  199MOL0     H26205   8.159  11.066  10.239 -1.6666  0.8255  2.0062
  199MOL0     H26206   8.124  11.071  10.405 -1.7054 -2.0721  1.3579
  199MOL0     H26207   8.244  10.861  10.463 -5.4137  0.3027  2.5142
  199MOL0     H26208   8.295  10.851  10.289 -3.3205 -1.5373 -3.1498
  199MOL0     H26209   8.072  10.813  10.214 -1.8440 -2.1401 -0.0792
  199MOL0     H26210   8.009  10.836  10.382 -0.4679 -1.9902 -0.3825
  199MOL0     H26211   8.227  10.623  10.332  0.7666 -1.0391  4.4451
  199MOL0     H26212   8.105  10.621  10.455 -0.5998  2.8796  0.1176
  199MOL0     H26213   7.942  10.599  10.249 -0.8904 -1.6717  1.7679
  199MOL0     H26214   8.014  10.459  10.326  0.8904 -0.5165 -0.4498
  199MOL0     H26215   8.114  10.615  10.093 -0.7260 -0.8412 -0.8911
  199MOL0     H26216   8.009  10.474  10.083  0.9399 -2.7619 -0.2520
  199MOL0     H26217   8.268  10.448  10.041  0.7957  2.7028  0.6559
  199MOL0     H26218   8.277  10.453  10.222 -1.6616 -0.1813  0.8026
  199MOL0     H26219   8.115  10.260  10.069  1.0522 -0.6323 -1.0232
  199MOL0     H26220   8.143  10.279  10.251  1.2617 -1.1718 -0.5392
  199MOL0     H26221   8.283  10.141   9.942  1.8173  1.5547 -1.3228
  199MOL0     H26222   8.421   9.948   9.920  0.4382 -0.3491 -0.0013
  199MOL0     H26223   8.557   9.907  10.020  0.6140  0.0675  0.4017
  199MOL0     H26224   8.586  10.133   9.822  2.2886 -0.6898 -2.8687
  199MOL0     H26225   8.640   9.968   9.793  0.2190 -1.0479  0.5083
  199MOL0     H26226   8.751  10.145  10.021  3.1647 -0.8626  0.7444
  199MOL0     H26227   8.769   9.975  10.013  0.1067  2.6607  3.5384
  199MOL0     H26228   8.871  10.016   9.766  0.2285  2.2516 -2.1664
  199MOL0     H26229   8.964  10.049   9.915  0.6520  1.0543 -0.5970
  199MOL0     H26230   9.103  10.078   9.688 -2.7965 -0.7404  0.0742
  199MOL0     H26231   9.251  10.189   9.537 -0.5725  0.2419  0.0828
  199MOL0     H26232   9.359  10.628   9.281  1.9323 -0.1046 -2.5093
  199MOL0     H26233   9.562  10.727   9.177  0.5312  0.7448  0.4754
  199MOL0     H26234   9.978  10.571   9.079  0.6694 -1.1139 -0.1767
  199MOL0     H26235   9.888  10.430   9.137 -0.2023  0.0759  0.9824
  199MOL0     H26236   9.924  10.531   9.383 -0.1802 -1.1884  1.0168
  199MOL0     H26237  10.022  10.651   9.311 -2.0392  0.1513  1.3391
  199MOL0     H26238  10.058  10.356   9.339  0.3409 -1.6618 -0.2740
  199MOL0     H26239  10.160  10.492   9.391  2.8102  0.4974 -1.1722
  199MOL0     H26240  10.133  10.362   9.121 -1.5245 -0.7340  2.6840
  199MOL0     H26241  10.227  10.511   9.123  0.8503 -1.1339 -0.3607
  199MOL0     H26242  10.298  10.260   9.295  0.8808 -0.1792 -0.4786
  199MOL0     H26243  10.393  10.396   9.256 -1.7019  0.6089  2.5761
  199MOL0     H26244  10.419  10.356   9.035 -0.0049 -1.3079 -0.5293
  199MOL0     H26245  10.301  10.228   9.022 -0.2784  1.2624 -1.7636
  199MOL0     H26246  10.561  10.211   9.198  3.1446 -2.5931 -1.1200
  199MOL0     H26247  10.449  10.082   9.168 -1.8829  2.0116  1.4101
  199MOL0     H26248  10.606  10.220   8.952  0.4463  0.3864  1.8301
  199MOL0     H26249  10.531  10.062   8.931  1.3458 -0.6218  0.2403
  199MOL0     H26250   9.783  10.381   9.314  1.2913  0.7677 -0.6855
  199MOL0     H26251   9.582  10.302   9.426  0.2057 -0.0524 -1.3622
  199MOL0     H26252   9.009  10.541   9.556 -0.8994 -0.0219  1.4804
  199MOL0     H26253   8.854  10.428   9.690 -0.0867  0.1150 -0.1954
  199MOL0     H26254   8.565  11.192  10.415  0.0940  1.3103  0.0857
  199MOL0     H26255   8.751  11.237  10.263 -0.7458 -0.6114  1.3306
  199MOL0     H26256   9.149  11.111  10.089  1.7621 -0.7837 -1.0059
  199MOL0     H26257   9.339  11.188   9.954  0.6010  2.1773  0.1234
  199MOL0     H26258   9.460  11.340   9.867 -2.0099  1.9635 -1.0425
  199MOL0     H26259   9.512  11.384   9.709  1.9998 -0.6770  1.4450
  199MOL0     H26260   9.620  11.169   9.773  0.9158 -2.4882 -2.3877
  199MOL0     H26261   9.469  11.095   9.816 -1.2676  2.4075 -0.0549
  199MOL0     H26262   9.531  11.184   9.535 -0.9163 -1.0050 -1.3760
  199MOL0     H26263   9.388  11.105   9.585  0.4089  0.6181 -1.3928
  199MOL0     H26264   9.571  10.960   9.477  0.1878 -0.9245  0.7888
  199MOL0     H26265   9.650  10.977   9.636 -0.2221 -2.0217 -0.0928
  199MOL0     H26266   9.409  10.707   9.790 -2.6093  1.0185  0.1146
  199MOL0     H26267   9.083  11.315   9.647  0.0946 -1.7409 -1.5594
  199MOL0     H26268   8.886  11.284   9.780 -1.6840 -0.1253  1.0082
  200MOL0     O26269   0.982   5.514   3.452  0.3048 -0.1061 -0.5678
  200MOL0     C26270   0.949   5.630   3.430  0.2736 -0.3092 -0.4638
  200MOL0     O26271   1.011   5.738   3.473 -0.0149  0.3150  0.2157
  200MOL0     C26272   1.132   5.735   3.537 -0.6799  1.1425  0.4621
  200MOL0     C26273   1.247   5.704   3.474  0.1154 -0.1974  1.3750
  200MOL0     C26274   1.373   5.717   3.534  1.3318 -0.4848 -0.3169
  200MOL0     C26275   1.383   5.773   3.670  0.2379  0.3481  0.0238
  200MOL0     O26276   1.505   5.791   3.729 -0.1175  0.2080 -0.2775
  200MOL0     C26277   1.513   5.805   3.868 -0.9319 -1.0235  0.7463
  200MOL0     C26278   1.655   5.800   3.921 -0.4782 -0.0048  0.5656
  200MOL0     C26279   1.708   5.657   3.911  1.1867 -0.8984 -0.6360
  200MOL0     C26280   1.850   5.657   3.966  0.2606  0.0345 -0.2064
  200MOL0     C26281   1.913   5.522   3.987  0.2862 -0.0742 -0.0010
  200MOL0     C26282   2.043   5.523   4.061 -0.0525 -0.2882  0.3138
  200MOL0     C26283   2.101   5.383   4.088  0.2262  0.9639  0.2580
  200MOL0     C26284   2.244   5.395   4.132  0.5856 -0.0827 -0.7359
  200MOL0     N26285   2.258   5.473   4.259 -0.0760  0.6749 -0.3591
  200MOL0     C26286   2.235   5.425   4.382  0.2062 -0.4293 -0.6354
  200MOL0     C26287   2.278   5.514   4.467 -0.5806  0.0581 -0.5623
  200MOL0     C26288   2.278   5.499   4.610 -0.1679 -0.0535 -0.9229
  200MOL0     C26289   2.153   5.557   4.676  0.0261  0.0726 -0.5423
  200MOL0     C26290   2.158   5.520   4.818  0.4322  0.7663 -0.4794
  200MOL0     C26291   2.045   5.586   4.902  0.5672 -0.4530  0.0827
  200MOL0     O26292   2.069   5.728   4.909  0.1099 -0.3303 -0.6163
  200MOL0     C26293   1.989   5.778   5.005 -0.4588  0.5994 -0.9228
  200MOL0     C26294   2.014   5.750   5.141 -0.4148 -0.5695  0.4858
  200MOL0     C26295   1.935   5.805   5.244 -0.4724 -0.3548 -0.7022
  200MOL0     C26296   1.820   5.883   5.216  0.6171  1.0119  0.1007
  200MOL0     C26297   1.725   5.932   5.323 -0.2574  0.6795 -0.4979
  200MOL0     O26298   1.763   5.904   5.453 -0.7855  0.3986 -0.2151
  200MOL0     C26299   1.664   5.909   5.549 -0.2576  0.2217  0.7878
  200MOL0     C26300   1.594   5.790   5.584  0.2376  0.3430 -0.4210
  200MOL0     C26301   1.487   5.797   5.680  0.1541 -0.3116 -0.4258
  200MOL0     C26302   1.445   5.920   5.750  0.4983  0.1101  0.7284
  200MOL0     O26303   1.331   5.921   5.827 -0.2771  0.6396  0.1056
  200MOL0     C26304   1.285   6.046   5.882  0.2121  1.1862 -1.0403
  200MOL0     C26305   1.136   6.022   5.929  0.0796 -0.8202 -0.1058
  200MOL0     C26306   1.057   5.980   5.817  0.4299  0.7229 -0.0770
  200MOL0     C26307   0.905   5.966   5.858  0.2336  0.3171  0.3747
  200MOL0     C26308   0.842   5.855   5.772 -0.5822 -0.0609  0.6226
  200MOL0     C26309   0.702   5.872   5.766 -0.6448  1.0405  0.3214
  200MOL0     C26310   0.636   5.746   5.712  0.7302  0.8410  0.6250
  200MOL0     C26311   0.486   5.743   5.704  0.0136  0.1633  0.1300
  200MOL0    Cl26312   0.445   5.580   5.661 -0.1498 -0.1341 -0.1348
  200MOL0     C26313   1.524   6.036   5.725  0.0973  0.8503 -0.0498
  200MOL0     C26314   1.623   6.030   5.623  0.9930 -0.0647  0.0464
  200MOL0     O26315   1.619   5.985   5.292 -0.1315  0.3775 -0.1340
  200MOL0     C26316   1.799   5.911   5.082  0.2464 -0.4693 -0.1339
  200MOL0     C26317   1.881   5.866   4.979 -0.3577 -0.2867  0.6090
  200MOL0     N26318   2.327   5.626   4.397 -0.0326 -0.4202  1.1494
  200MOL0     N26319   2.313   5.601   4.267  0.6203  0.2099 -0.7963
  200MOL0     C26320   1.259   5.813   3.728  0.7766 -0.7577 -0.1613
  200MOL0     C26321   1.134   5.795   3.660 -0.4526 -0.4185  0.0738
  200MOL0     C26322   0.830   5.636   3.343 -0.6804  0.3648  0.0295
  200MOL0     C26323   0.773   5.532   3.275 -0.3288  0.4998  0.5424
  200MOL0     C26324   0.665   5.550   3.197  0.2416 -0.8881 -0.0720
  200MOL0     C26325   0.626   5.677   3.155 -0.1279  1.3694  0.0820
  200MOL0     O26326   0.522   5.694   3.064  0.5949  0.4277 -0.6226
  200MOL0     C26327   0.477   5.581   2.985 -1.0226  0.1432 -0.5919
  200MOL0     C26328   0.385   5.623   2.869 -0.3514 -0.0624 -0.0782
  200MOL0     C26329   0.238   5.647   2.901 -0.2120  0.0810 -0.0175
  200MOL0     C26330   0.138   5.534   2.916 -0.0193 -0.5291 -0.1289
  200MOL0     C26331   0.001   5.598   2.919  0.2747  0.4725  0.0823
  200MOL0     C26332  -0.112   5.639   2.934 -0.4297  0.1900  0.0868
  200MOL0     C26333   0.678   5.790   3.225  0.2182  0.4478 -1.0515
  200MOL0     C26334   0.776   5.768   3.324  0.3276 -0.8334 -0.4152
  200MOL0     H26335   1.232   5.681   3.369 -0.5985  0.1659  1.3845
  200MOL0     H26336   1.469   5.706   3.483  0.4614  0.6859 -2.3369
  200MOL0     H26337   1.437   5.743   3.917 -1.0164  0.1113  2.0919
  200MOL0     H26338   1.481   5.907   3.891  0.0157  0.5509 -3.8124
  200MOL0     H26339   1.657   5.819   4.029  0.8699 -0.1854  0.5831
  200MOL0     H26340   1.715   5.872   3.865 -0.6110 -2.0919 -2.5459
  200MOL0     H26341   1.709   5.640   3.803 -0.2678  0.4275 -0.8927
  200MOL0     H26342   1.641   5.586   3.961  0.8327  0.3670  0.7540
  200MOL0     H26343   1.909   5.718   3.897 -0.9525  2.1048  0.5054
  200MOL0     H26344   1.853   5.720   4.056 -1.9193  2.0903 -1.4568
  200MOL0     H26345   1.924   5.477   3.888 -1.9687 -1.4144  0.2875
  200MOL0     H26346   1.851   5.457   4.049  5.1443 -2.1596  3.2654
  200MOL0     H26347   2.037   5.587   4.150  0.7151  0.7252 -0.3382
  200MOL0     H26348   2.111   5.570   3.989  0.0183 -0.7620  0.0657
  200MOL0     H26349   2.026   5.345   4.158 -1.2499 -1.3430 -2.3766
  200MOL0     H26350   2.088   5.321   3.999 -0.5002 -0.9032  1.5993
  200MOL0     H26351   2.302   5.445   4.054  0.1366  0.2760 -0.8449
  200MOL0     H26352   2.288   5.296   4.143  2.2110  0.8786  2.6329
  200MOL0     H26353   2.190   5.332   4.417  0.3762  0.3230  1.7716
  200MOL0     H26354   2.365   5.554   4.647 -0.4456 -0.3178  0.1452
  200MOL0     H26355   2.291   5.393   4.632 -4.4945 -1.5733 -4.1185
  200MOL0     H26356   2.064   5.511   4.631  1.2208  0.1084 -3.1248
  200MOL0     H26357   2.140   5.665   4.664 -1.7668  0.2725  2.3197
  200MOL0     H26358   2.155   5.411   4.833  0.1908  0.8755  0.2703
  200MOL0     H26359   2.245   5.571   4.859 -1.1751  1.5084  2.1807
  200MOL0     H26360   2.054   5.535   4.998  4.4831 -2.6425 -1.2293
  200MOL0     H26361   1.949   5.559   4.857  0.4733  0.1948 -0.1197
  200MOL0     H26362   2.094   5.678   5.159 -0.5932 -0.4378  1.9357
  200MOL0     H26363   1.963   5.782   5.347 -0.3124 -1.9782 -1.0722
  200MOL0     H26364   1.615   5.697   5.533  4.8780  0.5099  0.7301
  200MOL0     H26365   1.442   5.705   5.716  2.3503 -2.2187 -2.1958
  200MOL0     H26366   1.290   6.127   5.809  1.2703  0.4846 -1.7736
  200MOL0     H26367   1.350   6.075   5.965 -0.6228 -0.5556  0.2937
  200MOL0     H26368   1.094   6.113   5.975 -1.7936 -0.3847 -2.4740
  200MOL0     H26369   1.133   5.938   6.000  0.4291 -2.5431 -2.0330
  200MOL0     H26370   1.091   5.880   5.786 -1.2187  0.3762 -0.8442
  200MOL0     H26371   1.068   6.044   5.729  0.7188 -1.8683 -2.0523
  200MOL0     H26372   0.892   5.945   5.965 -1.8035  1.2017  0.3453
  200MOL0     H26373   0.845   6.056   5.841  0.5505  0.7832  1.5980
  200MOL0     H26374   0.868   5.765   5.828 -0.4751 -1.3313 -1.3561
  200MOL0     H26375   0.902   5.855   5.680 -3.0101 -1.3185 -1.0911
  200MOL0     H26376   0.671   5.953   5.699  0.2239  0.6247 -0.6119
  200MOL0     H26377   0.657   5.891   5.864 -1.4419 -1.8709  0.6347
  200MOL0     H26378   0.676   5.721   5.613  0.6917 -0.4159  0.9149
  200MOL0     H26379   0.662   5.660   5.773 -2.2078 -0.9956 -0.5191
  200MOL0     H26380   0.457   5.807   5.620 -1.3997 -0.7166 -0.0836
  200MOL0     H26381   0.430   5.777   5.792 -1.0119 -1.6781  0.2432
  200MOL0     H26382   1.508   6.130   5.777 -5.7381  0.6153 -0.7143
  200MOL0     H26383   1.693   6.112   5.613  0.9608  0.2686  2.1193
  200MOL0     H26384   1.717   5.975   5.051 -0.6444 -1.3407  0.3505
  200MOL0     H26385   1.861   5.898   4.878 -0.5436 -0.1247  0.6989
  200MOL0     H26386   1.254   5.852   3.829 -0.5273 -1.1024 -0.0711
  200MOL0     H26387   1.035   5.821   3.695 -0.3026 -0.9689  0.9199
  200MOL0     H26388   0.815   5.433   3.287  1.1101  1.2387  2.0025
  200MOL0     H26389   0.632   5.464   3.140  1.4110 -0.3326 -1.6748
  200MOL0     H26390   0.424   5.511   3.050  0.0197  2.3442  2.9206
  200MOL0     H26391   0.560   5.535   2.931 -2.8570 -2.1366 -1.6381
  200MOL0     H26392   0.426   5.715   2.828 -1.5604 -0.1590 -1.6081
  200MOL0     H26393   0.396   5.539   2.799  1.3678  0.8479 -0.9561
  200MOL0     H26394   0.191   5.721   2.835  0.1712  0.6254  0.3174
  200MOL0     H26395   0.236   5.707   2.992  3.0807  0.3667 -0.0153
  200MOL0     H26396   0.148   5.453   2.843  1.5829  1.8298 -2.6935
  200MOL0     H26397   0.166   5.486   3.010 -2.4194 -0.5371  0.6649
  200MOL0     H26398  -0.209   5.678   2.958 -1.2250 -2.6644  1.9293
  200MOL0     H26399   0.636   5.886   3.198 -1.1590  0.4120  0.7068
  200MOL0     H26400   0.829   5.848   3.374  0.2857 -1.7673  1.1782
  201MOL0     O26401   1.260   6.552   4.165 -0.8546  0.3300  0.7210
  201MOL0     C26402   1.232   6.472   4.255 -0.5589 -0.6080  0.2285
  201MOL0     O26403   1.108   6.433   4.290  0.7569  0.0774 -0.4810
  201MOL0     C26404   0.995   6.467   4.223 -0.8100 -0.6219  0.3587
  201MOL0     C26405   0.982   6.548   4.107  0.8760 -0.0847  0.0263
  201MOL0     C26406   0.859   6.553   4.036  0.7408 -0.3236  0.8746
  201MOL0     C26407   0.744   6.487   4.079  0.7056 -0.3299  0.0539
  201MOL0     O26408   0.615   6.489   4.026  0.5639  0.0483  0.5392
  201MOL0     C26409   0.595   6.585   3.935  0.0464 -0.1314  1.4960
  201MOL0     C26410   0.451   6.573   3.882  0.0649  0.1674 -0.3321
  201MOL0     C26411   0.406   6.686   3.789  0.2107 -0.1033  0.4038
  201MOL0     C26412   0.256   6.683   3.760 -0.3086 -0.2506  0.0462
  201MOL0     C26413   0.225   6.764   3.634 -1.1166  0.3883  1.0619
  201MOL0     C26414   0.076   6.779   3.627 -0.5840 -0.8263  0.4649
  201MOL0     C26415   0.041   6.858   3.504  0.0094 -0.4326  0.4303
  201MOL0     C26416  -0.108   6.857   3.488 -0.2707  0.4057 -0.6246
  201MOL0     N26417  -0.144   6.929   3.370 -0.0778  0.7458 -0.0465
  201MOL0     C26418  -0.147   7.065   3.358 -0.7669 -0.0569 -0.3627
  201MOL0     C26419  -0.180   7.096   3.233  1.1427  0.6213  1.0606
  201MOL0     C26420  -0.215   7.230   3.188 -1.3366  1.0735  0.2062
  201MOL0     C26421  -0.359   7.252   3.215  0.2401  0.9585 -0.1825
  201MOL0     C26422  -0.413   7.358   3.119  0.5609  0.0267 -0.5200
  201MOL0     C26423  -0.568   7.365   3.142 -0.1937  0.1351 -0.1743
  201MOL0     O26424  -0.597   7.373   3.277 -0.3377 -0.2240 -0.3563
  201MOL0     C26425  -0.721   7.395   3.322 -1.0714 -0.7564  0.0838
  201MOL0     C26426  -0.744   7.420   3.458 -0.2963 -0.5373 -0.2137
  201MOL0     C26427  -0.871   7.445   3.509  0.0734  0.3097 -0.5563
  201MOL0     C26428  -0.988   7.431   3.420 -0.0871  0.0027  0.0064
  201MOL0     C26429  -1.123   7.467   3.465  0.2412  0.0107 -0.2197
  201MOL0     O26430  -1.220   7.482   3.366  0.2045 -0.2298 -0.3463
  201MOL0     C26431  -1.352   7.507   3.402 -0.8348  0.0982  0.6931
  201MOL0     C26432  -1.427   7.602   3.328 -0.4969 -0.7068 -0.1831
  201MOL0     C26433  -1.560   7.632   3.366  0.2059 -0.8309  0.1670
  201MOL0     C26434  -1.610   7.577   3.484 -0.3800 -0.3501  0.3396
  201MOL0     O26435  -1.726   7.614   3.546 -0.2049  0.0813 -0.0269
  201MOL0     C26436  -1.826   7.688   3.482 -0.2035  1.0131  0.4102
  201MOL0     C26437  -1.941   7.708   3.574 -0.5764 -0.2795 -0.1702
  201MOL0     C26438  -2.052   7.782   3.494  0.1269  0.0036  0.0031
  201MOL0     C26439  -2.170   7.817   3.573  0.3038  0.1367  0.2789
  201MOL0     C26440  -2.269   7.703   3.594 -0.1424 -0.2941 -0.6922
  201MOL0     C26441  -2.398   7.757   3.660 -0.2836  0.4168  0.0990
  201MOL0     C26442  -2.506   7.656   3.695  1.1190 -0.2661 -0.8686
  201MOL0     C26443  -2.635   7.682   3.626  0.2067 -0.0800  0.2076
  201MOL0    Cl26444  -2.690   7.846   3.660  0.0435  0.2970  0.4939
  201MOL0     C26445  -1.537   7.478   3.558 -0.1343  0.0977 -0.1056
  201MOL0     C26446  -1.412   7.438   3.504  0.8582  0.6325 -0.1529
  201MOL0     O26447  -1.131   7.502   3.582  0.4711 -0.3804  0.4889
  201MOL0     C26448  -0.961   7.401   3.287 -1.0251  0.7441 -0.2030
  201MOL0     C26449  -0.828   7.382   3.236 -0.7837 -0.2774  1.0701
  201MOL0     N26450  -0.181   6.978   3.162 -0.0771  0.1732  0.8870
  201MOL0     N26451  -0.165   6.874   3.243  0.1552 -0.5649  0.3416
  201MOL0     C26452   0.755   6.414   4.199 -0.1671  0.6071  0.6182
  201MOL0     C26453   0.884   6.399   4.264 -0.0833 -0.2760 -0.5862
  201MOL0     C26454   1.351   6.406   4.326  0.5126  0.6323  0.2069
  201MOL0     C26455   1.334   6.303   4.423 -0.4372 -0.6808  0.7290
  201MOL0     C26456   1.441   6.235   4.480 -0.3835 -0.8038  0.1108
  201MOL0     C26457   1.570   6.277   4.441  0.3879  0.3323 -0.1226
  201MOL0     O26458   1.669   6.212   4.512 -0.3096  0.4465  0.4100
  201MOL0     C26459   1.805   6.250   4.467 -0.1851  0.2942 -0.0822
  201MOL0     C26460   1.907   6.179   4.562  0.6420 -0.2814  1.2036
  201MOL0     C26461   1.891   6.031   4.596 -0.4225 -0.4382 -0.9416
  201MOL0     C26462   1.888   5.950   4.465  0.0788  0.4068  0.3746
  201MOL0     C26463   1.886   5.808   4.497 -0.0323 -0.1282 -0.6838
  201MOL0     C26464   1.876   5.693   4.539  0.2814 -1.0819  0.5650
  201MOL0     C26465   1.586   6.370   4.337 -0.1987 -0.1357  0.7324
  201MOL0     C26466   1.479   6.436   4.278 -0.7912 -0.3197 -0.8822
  201MOL0     H26467   1.057   6.618   4.073 -2.0059  2.8698 -0.6792
  201MOL0     H26468   0.858   6.609   3.942  3.0012 -1.9848 -0.2345
  201MOL0     H26469   0.671   6.578   3.856  0.1677 -1.6216  1.7285
  201MOL0     H26470   0.611   6.687   3.972 -0.4409  1.0883 -1.3359
  201MOL0     H26471   0.384   6.582   3.967  1.3886 -0.7840  0.8716
  201MOL0     H26472   0.424   6.481   3.827  1.0196 -1.0262  1.1161
  201MOL0     H26473   0.468   6.677   3.700 -0.3404  0.1889 -0.0145
  201MOL0     H26474   0.428   6.786   3.830 -1.1341  0.9042 -1.2184
  201MOL0     H26475   0.239   6.577   3.741  1.5265 -0.5913  0.0909
  201MOL0     H26476   0.209   6.735   3.844  1.4585 -0.9374  1.5262
  201MOL0     H26477   0.260   6.713   3.544 -0.4989  2.2930  0.1768
  201MOL0     H26478   0.285   6.856   3.635  0.8820 -0.8200 -0.3678
  201MOL0     H26479   0.033   6.831   3.713 -2.0595  0.8756 -1.2291
  201MOL0     H26480   0.036   6.678   3.619 -2.5848 -0.2320  2.0291
  201MOL0     H26481   0.089   6.956   3.510 -1.0410  0.0639  1.0536
  201MOL0     H26482   0.076   6.813   3.410  1.3458 -0.7280  1.0411
  201MOL0     H26483  -0.142   6.902   3.582  1.0989 -1.8478  1.0225
  201MOL0     H26484  -0.141   6.754   3.471 -0.2086  0.6343 -2.3133
  201MOL0     H26485  -0.140   7.134   3.441 -1.0502  0.7198 -0.9673
  201MOL0     H26486  -0.192   7.243   3.082 -0.5260  0.2817  0.2673
  201MOL0     H26487  -0.154   7.305   3.240  3.3861 -1.7138 -0.6825
  201MOL0     H26488  -0.366   7.287   3.318  0.3756  0.3519  0.0354
  201MOL0     H26489  -0.417   7.160   3.202 -1.2385  1.8414  0.0105
  201MOL0     H26490  -0.362   7.453   3.138 -1.1077  0.9708 -0.5473
  201MOL0     H26491  -0.406   7.322   3.016 -0.1836  0.0088 -0.5683
  201MOL0     H26492  -0.616   7.275   3.102 -0.9658  0.3244  0.2996
  201MOL0     H26493  -0.615   7.455   3.100 -2.3110 -1.1895 -0.8276
  201MOL0     H26494  -0.657   7.433   3.522  1.3096 -3.8767 -1.4486
  201MOL0     H26495  -0.876   7.459   3.616  2.8012  0.9448 -0.4465
  201MOL0     H26496  -1.395   7.657   3.241 -2.3672  0.2500 -0.3142
  201MOL0     H26497  -1.614   7.710   3.315 -2.9642  1.4361  6.0365
  201MOL0     H26498  -1.859   7.624   3.400  0.8306  0.1820  0.6147
  201MOL0     H26499  -1.792   7.781   3.436  3.4632 -0.5873 -0.5276
  201MOL0     H26500  -1.900   7.750   3.667  1.5079 -1.8106 -0.3169
  201MOL0     H26501  -1.979   7.609   3.598  2.8709 -1.8445 -0.5643
  201MOL0     H26502  -2.084   7.740   3.398 -3.2340  3.2449 -0.5161
  201MOL0     H26503  -2.005   7.873   3.458 -0.7024  0.3279 -0.2994
  201MOL0     H26504  -2.150   7.846   3.677 -2.2791 -0.8949  1.1387
  201MOL0     H26505  -2.215   7.899   3.515 -0.4417  0.1465  0.8535
  201MOL0     H26506  -2.213   7.626   3.649 -1.1147  0.6523  1.7982
  201MOL0     H26507  -2.293   7.667   3.494  3.1063 -0.1966 -1.6236
  201MOL0     H26508  -2.446   7.830   3.594 -3.2186 -0.7611  0.7335
  201MOL0     H26509  -2.364   7.811   3.749 -1.8921 -2.1544  2.4500
  201MOL0     H26510  -2.470   7.553   3.687  1.4057 -0.3594  1.1836
  201MOL0     H26511  -2.521   7.652   3.803  1.4723 -0.9149 -0.8397
  201MOL0     H26512  -2.704   7.613   3.675 -2.6339  3.4140  1.5867
  201MOL0     H26513  -2.628   7.661   3.519 -1.2513 -0.4379  0.1565
  201MOL0     H26514  -1.577   7.421   3.641  2.4557 -4.5865 -1.7244
  201MOL0     H26515  -1.372   7.356   3.562 -2.7288  0.6839  2.7684
  201MOL0     H26516  -1.041   7.389   3.215 -0.3599  0.3160 -0.8893
  201MOL0     H26517  -0.821   7.376   3.128 -0.5306 -0.0060  1.0714
  201MOL0     H26518   0.674   6.351   4.234  0.2361 -0.6644 -0.6423
  201MOL0     H26519   0.895   6.328   4.345 -0.6729 -1.1508 -1.2553
  201MOL0     H26520   1.239   6.275   4.469  1.1943 -2.4403  3.2869
  201MOL0     H26521   1.430   6.156   4.554  0.4008 -0.4719  0.5923
  201MOL0     H26522   1.813   6.358   4.488 -2.7718  0.6105 -0.3821
  201MOL0     H26523   1.828   6.231   4.362  0.1250 -1.3701  0.2662
  201MOL0     H26524   1.998   6.186   4.502 -0.0126  0.9417  0.2817
  201MOL0     H26525   1.911   6.230   4.658  0.8231  0.8384  0.6215
  201MOL0     H26526   1.799   6.015   4.654 -0.9252  0.4329 -1.4759
  201MOL0     H26527   1.975   5.997   4.658 -0.7205  0.1522 -0.1917
  201MOL0     H26528   1.802   5.959   4.398  0.9006 -2.3879 -1.2319
  201MOL0     H26529   1.978   5.965   4.405  1.0582 -0.0240  1.6835
  201MOL0     H26530   1.855   5.594   4.576 -0.0996 -1.3509 -0.3596
  201MOL0     H26531   1.684   6.412   4.314  0.1949 -0.5997  1.5177
  201MOL0     H26532   1.499   6.506   4.197  0.0943  1.2629  0.6123
  202MOL0     O26533  10.956  10.274   3.675 -0.6915 -0.0139 -0.2221
  202MOL0     C26534  11.058  10.226   3.731 -0.7291  0.1959  0.4757
  202MOL0     O26535  11.070  10.114   3.810  0.2721  0.5366 -0.3373
  202MOL0     C26536  10.946  10.047   3.834 -0.6793 -0.5004  0.7952
  202MOL0     C26537  10.891   9.967   3.737  1.5454 -0.0801  0.2663
  202MOL0     C26538  10.773   9.900   3.779  0.0338  0.1562  0.0868
  202MOL0     C26539  10.700   9.911   3.898  0.7196  0.8520  0.1194
  202MOL0     O26540  10.577   9.850   3.919  0.4678  1.3363  0.5922
  202MOL0     C26541  10.476   9.912   3.994 -0.0431 -0.1879 -0.3778
  202MOL0     C26542  10.347   9.833   3.992 -0.2537  0.1910  0.0813
  202MOL0     C26543  10.243   9.879   4.095 -0.1003 -0.2922  0.2321
  202MOL0     C26544  10.107   9.802   4.081  0.0636  0.2838 -0.0760
  202MOL0     C26545  10.039   9.820   3.948  0.2670 -0.9781 -0.0131
  202MOL0     C26546   9.895   9.775   3.960  0.4403  0.5092  0.7310
  202MOL0     C26547   9.878   9.630   3.991 -0.2997 -0.2829  0.4775
  202MOL0     C26548   9.732   9.593   3.997 -0.0806  0.1735 -0.7159
  202MOL0     N26549   9.669   9.604   4.129 -1.2661  0.4950  0.3364
  202MOL0     C26550   9.709   9.518   4.234  0.2011 -0.5007  0.1379
  202MOL0     C26551   9.640   9.571   4.336 -0.1817  0.9682 -0.2075
  202MOL0     C26552   9.638   9.520   4.481  0.5387 -0.2935  0.6911
  202MOL0     C26553   9.510   9.455   4.530 -0.2000 -0.4490 -0.3438
  202MOL0     C26554   9.504   9.463   4.681 -0.4066 -0.8952 -0.7654
  202MOL0     C26555   9.373   9.405   4.738 -0.0749 -0.4393 -0.3457
  202MOL0     O26556   9.361   9.449   4.877 -0.2798 -0.2808 -0.0448
  202MOL0     C26557   9.240   9.453   4.942 -0.4013  0.2206  1.0164
  202MOL0     C26558   9.226   9.536   5.044 -0.2348  0.0691 -0.3102
  202MOL0     C26559   9.106   9.554   5.105 -0.0846  0.2084 -0.2599
  202MOL0     C26560   8.989   9.481   5.074 -0.5862 -0.0664  0.2610
  202MOL0     C26561   8.859   9.506   5.139 -0.2154 -0.2582 -0.1176
  202MOL0     O26562   8.859   9.623   5.214  0.1090 -0.7790 -0.5035
  202MOL0     C26563   8.745   9.656   5.282 -0.1208  0.1897 -0.5635
  202MOL0     C26564   8.713   9.619   5.411 -0.1658  0.5857 -0.2386
  202MOL0     C26565   8.589   9.638   5.467 -0.3468 -0.4894 -0.4252
  202MOL0     C26566   8.494   9.716   5.403  0.2445  0.2261  0.2982
  202MOL0     O26567   8.367   9.752   5.458  0.5200  0.2183 -0.1879
  202MOL0     C26568   8.373   9.841   5.572  0.5626  0.2951 -0.0300
  202MOL0     C26569   8.243   9.915   5.613 -0.2206 -0.4913 -0.3862
  202MOL0     C26570   8.253   9.964   5.757 -0.6657  0.1988 -0.8332
  202MOL0     C26571   8.270   9.853   5.861 -0.2600 -0.3738  0.7640
  202MOL0     C26572   8.147   9.761   5.859 -0.7097 -0.8102  0.0695
  202MOL0     C26573   8.135   9.680   5.993  0.7020 -0.3621 -0.1662
  202MOL0     C26574   7.993   9.617   6.018 -0.4599  0.2896  0.4926
  202MOL0     C26575   7.994   9.478   6.079  0.0372 -0.4599  0.9795
  202MOL0    Cl26576   7.822   9.408   6.047  0.1673  0.0244  0.2534
  202MOL0     C26577   8.521   9.747   5.268 -0.2015  0.4149  0.2680
  202MOL0     C26578   8.642   9.715   5.209 -0.1805  0.8965 -0.4200
  202MOL0     O26579   8.762   9.432   5.121  0.5190  0.5317 -0.2708
  202MOL0     C26580   9.005   9.392   4.970  0.5519 -1.0430  0.2954
  202MOL0     C26581   9.129   9.377   4.906 -0.6271  0.2853  0.2246
  202MOL0     N26582   9.548   9.666   4.288  0.0562 -0.5345 -0.1027
  202MOL0     N26583   9.566   9.694   4.164 -0.2705  0.2811  0.2125
  202MOL0     C26584  10.756  10.000   3.982 -0.0536 -0.3169 -0.4188
  202MOL0     C26585  10.882  10.070   3.949  0.4963  0.0909  0.2949
  202MOL0     C26586  11.186  10.289   3.704  0.6329 -0.5233 -0.3052
  202MOL0     C26587  11.315  10.229   3.723 -0.6646 -0.0717  0.1738
  202MOL0     C26588  11.429  10.303   3.698  0.7993  0.2729 -1.0645
  202MOL0     C26589  11.416  10.442   3.672 -1.3127  0.2512  0.0117
  202MOL0     O26590  11.526  10.524   3.650  0.2639 -0.3514  0.4751
  202MOL0     C26591  11.654  10.474   3.629 -0.0365  0.0347  0.0801
  202MOL0     C26592  11.740  10.587   3.578  0.3074 -0.5905  0.0229
  202MOL0     C26593  11.796  10.672   3.688 -0.0544 -0.2279 -0.8684
  202MOL0     C26594  11.843  10.816   3.661 -0.1714  0.1161  0.0220
  202MOL0     C26595  11.961  10.805   3.568  0.9303  0.4191 -1.1518
  202MOL0     C26596  12.058  10.793   3.498  0.1438 -0.0907  0.7319
  202MOL0     C26597  11.293  10.504   3.672  0.6612  0.7412  0.0660
  202MOL0     C26598  11.179  10.424   3.677 -0.3376  0.1614  0.7936
  202MOL0     H26599  10.937   9.955   3.639  1.5914  4.7951 -0.5542
  202MOL0     H26600  10.745   9.833   3.699  1.0583  1.8320 -1.7753
  202MOL0     H26601  10.450  10.011   3.957 -1.9003 -0.6031 -0.2847
  202MOL0     H26602  10.507   9.928   4.098  0.6250  0.2857 -0.6482
  202MOL0     H26603  10.363   9.728   4.018 -0.3566  0.5248  1.6192
  202MOL0     H26604  10.312   9.842   3.889  1.1993  3.0167 -0.2668
  202MOL0     H26605  10.218   9.982   4.067 -2.6463 -1.0899 -0.6858
  202MOL0     H26606  10.277   9.868   4.198  0.1135 -0.6303  0.1266
  202MOL0     H26607  10.111   9.697   4.113  1.4625  1.0943  2.7766
  202MOL0     H26608  10.056   9.859   4.159  1.6073 -1.3283  2.2840
  202MOL0     H26609  10.089   9.774   3.862 -0.3357 -1.5423 -0.0685
  202MOL0     H26610  10.018   9.925   3.923 -0.2915 -0.2954  2.9670
  202MOL0     H26611   9.846   9.790   3.864 -1.9530 -4.7002  0.8158
  202MOL0     H26612   9.845   9.828   4.041  0.5919 -0.0136  1.1800
  202MOL0     H26613   9.920   9.570   3.909 -2.2976 -1.1617  0.0362
  202MOL0     H26614   9.926   9.610   4.087  2.3441  3.7820  0.2463
  202MOL0     H26615   9.729   9.491   3.958  0.2040  0.0426 -0.3979
  202MOL0     H26616   9.679   9.660   3.928  0.5288  3.2198  1.5528
  202MOL0     H26617   9.788   9.444   4.228  0.8789  0.2872 -0.9992
  202MOL0     H26618   9.664   9.599   4.552 -1.3917 -1.1728  2.4927
  202MOL0     H26619   9.721   9.449   4.488  1.1502 -0.0989 -2.6553
  202MOL0     H26620   9.515   9.351   4.499  2.4087  0.5006 -3.6320
  202MOL0     H26621   9.423   9.500   4.481 -1.6265 -1.8071  0.8360
  202MOL0     H26622   9.591   9.411   4.723 -0.9773 -2.8277 -1.8321
  202MOL0     H26623   9.512   9.568   4.709 -1.9038 -0.5810 -1.4443
  202MOL0     H26624   9.376   9.296   4.734  1.5728 -0.7384  3.8296
  202MOL0     H26625   9.291   9.442   4.676  0.3603  1.9226  0.3569
  202MOL0     H26626   9.307   9.607   5.063  0.3427 -0.7612  0.4092
  202MOL0     H26627   9.112   9.638   5.173  0.7445  0.6599 -0.8740
  202MOL0     H26628   8.788   9.567   5.469 -0.2381  0.8956  0.1340
  202MOL0     H26629   8.566   9.624   5.572  0.2151  2.2400  0.1141
  202MOL0     H26630   8.439   9.928   5.561 -1.7581  2.0613 -0.7759
  202MOL0     H26631   8.420   9.785   5.653 -1.0243 -1.2895 -0.1317
  202MOL0     H26632   8.161   9.842   5.605 -0.4296 -0.1383 -1.6483
  202MOL0     H26633   8.226   9.997   5.543  0.3292 -0.5517 -0.5938
  202MOL0     H26634   8.159  10.017   5.776 -1.4794 -0.8166 -1.8168
  202MOL0     H26635   8.333  10.039   5.762 -0.1903 -0.2875 -1.1229
  202MOL0     H26636   8.358   9.793   5.836  2.2447  2.6617  1.7068
  202MOL0     H26637   8.281   9.898   5.960  0.8947  0.8821  0.0955
  202MOL0     H26638   8.153   9.707   5.765 -0.1559  0.2402 -0.5196
  202MOL0     H26639   8.057   9.822   5.846  0.5345  0.7019 -1.9965
  202MOL0     H26640   8.167   9.739   6.079 -2.6927 -0.9178  1.6481
  202MOL0     H26641   8.213   9.603   5.985  0.9698 -0.3079  1.5526
  202MOL0     H26642   7.943   9.684   6.090 -0.3102  1.3924 -0.4012
  202MOL0     H26643   7.928   9.617   5.930 -0.4354 -0.9658  0.4633
  202MOL0     H26644   8.010   9.478   6.187 -3.8665 -1.0346  1.7233
  202MOL0     H26645   8.074   9.410   6.048  0.0635 -0.5784  1.3039
  202MOL0     H26646   8.436   9.790   5.215 -2.0054 -0.9698  1.8685
  202MOL0     H26647   8.650   9.735   5.103 -1.8394 -0.8019 -0.9181
  202MOL0     H26648   8.917   9.334   4.947 -0.6886  0.3231  1.4363
  202MOL0     H26649   9.129   9.308   4.823 -1.0260  2.1118 -1.3643
  202MOL0     H26650  10.704  10.017   4.076 -1.6700 -1.4455 -1.0595
  202MOL0     H26651  10.926  10.151   4.006 -1.6775  2.5044 -1.2359
  202MOL0     H26652  11.310  10.126   3.757 -0.7604 -0.1000  0.0713
  202MOL0     H26653  11.521  10.247   3.715 -0.1678 -0.2189  4.9278
  202MOL0     H26654  11.639  10.397   3.553  0.2513 -3.2710  3.0513
  202MOL0     H26655  11.690  10.439   3.727 -0.7851  0.9153  0.6839
  202MOL0     H26656  11.824  10.540   3.527 -0.6726 -1.0728 -1.2018
  202MOL0     H26657  11.691  10.658   3.511  2.0806  3.1456  2.3441
  202MOL0     H26658  11.879  10.611   3.724 -0.4906 -0.0637  0.4684
  202MOL0     H26659  11.725  10.679   3.771  1.7725 -1.5174  0.9142
  202MOL0     H26660  11.760  10.876   3.621 -0.7229 -0.8789 -0.3450
  202MOL0     H26661  11.870  10.862   3.757  1.2711 -2.4908  0.9512
  202MOL0     H26662  12.142  10.778   3.434 -1.6381  0.4040 -1.8524
  202MOL0     H26663  11.286  10.610   3.652 -0.8681  0.6943  0.2193
  202MOL0     H26664  11.084  10.476   3.666  0.3703  1.1533 -0.9664
  203MOL0     O26665  10.410  10.553   5.141  0.2806 -0.8533 -0.2569
  203MOL0     C26666  10.397  10.438   5.100 -0.4611 -0.0667  0.0471
  203MOL0     O26667  10.332  10.342   5.160  0.2098  0.9261 -0.1320
  203MOL0     C26668  10.253  10.379   5.275 -0.9881  0.3961  0.3328
  203MOL0     C26669  10.312  10.389   5.400  0.1225  1.1899  0.0875
  203MOL0     C26670  10.239  10.408   5.523 -0.0039  0.0925  0.1449
  203MOL0     C26671  10.101  10.427   5.509 -0.6275 -0.1107 -0.4637
  203MOL0     O26672  10.034  10.452   5.619  0.3648 -0.5735 -0.7848
  203MOL0     C26673   9.895  10.430   5.645  0.3230 -0.2231 -0.3147
  203MOL0     C26674   9.864  10.492   5.774 -0.5380 -0.0025 -0.4143
  203MOL0     C26675   9.733  10.461   5.826 -0.5112 -0.0021 -0.0243
  203MOL0     C26676   9.698  10.537   5.959  0.3740  0.1908 -0.2221
  203MOL0     C26677   9.544  10.514   5.980 -0.3539  0.2368 -0.5680
  203MOL0     C26678   9.477  10.588   6.096  0.7337 -0.3637 -0.6521
  203MOL0     C26679   9.324  10.574   6.075  0.4610  0.0227 -0.2166
  203MOL0     C26680   9.286  10.454   6.168 -0.5042  0.8778  0.4954
  203MOL0     N26681   9.141  10.447   6.172  0.3428  0.8740  0.0321
  203MOL0     C26682   9.054  10.473   6.277 -0.2940 -0.3081  0.1346
  203MOL0     C26683   8.935  10.418   6.246 -0.1611  0.0344 -0.3018
  203MOL0     C26684   8.812  10.398   6.334 -0.0335 -0.4302 -0.6484
  203MOL0     C26685   8.753  10.258   6.337  0.7230 -0.5311 -1.0008
  203MOL0     C26686   8.857  10.139   6.353  0.4833 -0.2116  1.2080
  203MOL0     C26687   8.927  10.154   6.493  0.2681  0.6484 -0.7776
  203MOL0     O26688   8.833  10.168   6.598 -0.4195  0.3724  0.4492
  203MOL0     C26689   8.760  10.057   6.644 -0.3799 -0.4259  0.1962
  203MOL0     C26690   8.666  10.094   6.739 -0.4334  0.9005 -0.4079
  203MOL0     C26691   8.580  10.008   6.800  0.1407 -0.8014  0.7725
  203MOL0     C26692   8.574   9.879   6.743 -0.1303  0.7638 -0.1221
  203MOL0     C26693   8.485   9.775   6.801 -0.0208 -0.4245  0.0794
  203MOL0     O26694   8.480   9.647   6.741 -0.2175 -0.4852 -0.2890
  203MOL0     C26695   8.391   9.558   6.800  0.3765  0.2848  0.1494
  203MOL0     C26696   8.404   9.507   6.924 -0.6356 -0.4401  0.0660
  203MOL0     C26697   8.309   9.414   6.967  0.0994  0.3896  0.4479
  203MOL0     C26698   8.200   9.368   6.885 -0.2092  0.0947 -0.7074
  203MOL0     O26699   8.105   9.288   6.953  0.7338 -0.1921  0.6023
  203MOL0     C26700   8.074   9.166   6.882  0.1250  0.5343 -0.7592
  203MOL0     C26701   7.928   9.192   6.830  0.0330  0.6302 -0.7481
  203MOL0     C26702   7.849   9.065   6.800  0.0814  0.7485 -0.3727
  203MOL0     C26703   7.704   9.096   6.770  0.3088  0.3244  0.2238
  203MOL0     C26704   7.610   8.974   6.773 -0.3737  0.2270  0.2588
  203MOL0     C26705   7.462   9.036   6.745 -0.0911  0.4888 -0.2890
  203MOL0     C26706   7.451   9.061   6.596 -0.0023 -0.5801 -0.4213
  203MOL0     C26707   7.308   9.109   6.569  0.0266 -0.4676 -1.1520
  203MOL0    Cl26708   7.232   9.232   6.682 -0.3412 -0.0340  0.0277
  203MOL0     C26709   8.190   9.427   6.762 -0.4869  0.4462 -0.2718
  203MOL0     C26710   8.290   9.517   6.724 -0.0583 -0.5707 -0.4830
  203MOL0     O26711   8.421   9.810   6.905  1.0199 -0.2455  0.3338
  203MOL0     C26712   8.661   9.838   6.638  0.3753 -0.4246 -0.1166
  203MOL0     C26713   8.751   9.930   6.587 -0.8278 -0.2920  0.1359
  203MOL0     N26714   8.945  10.374   6.112  0.2152  0.8523 -0.5463
  203MOL0     N26715   9.063  10.390   6.070  0.6262 -0.2146 -0.4570
  203MOL0     C26716  10.042  10.411   5.386 -0.2855 -0.1434  0.5116
  203MOL0     C26717  10.120  10.380   5.268  0.8301 -1.2180  0.3797
  203MOL0     C26718  10.462  10.404   4.979 -1.0325 -0.7167  0.6712
  203MOL0     C26719  10.454  10.279   4.905 -0.5459 -0.3064 -0.4292
  203MOL0     C26720  10.532  10.244   4.796 -0.6839 -0.5614  0.1839
  203MOL0     C26721  10.602  10.345   4.731  0.3067 -0.4359  1.8612
  203MOL0     O26722  10.660  10.317   4.612 -0.6656  0.0409 -0.9806
  203MOL0     C26723  10.722  10.423   4.540 -0.0162  0.9321 -0.7437
  203MOL0     C26724  10.793  10.355   4.418 -0.1449  0.1796  0.2810
  203MOL0     C26725  10.862  10.474   4.337 -1.2700 -0.0222  0.3209
  203MOL0     C26726  10.923  10.431   4.204 -0.0495  0.0944  0.1086
  203MOL0     C26727  11.020  10.524   4.156 -0.7195 -0.4539  0.4573
  203MOL0     C26728  11.107  10.599   4.114  0.1176  0.5664  1.1073
  203MOL0     C26729  10.593  10.474   4.783  0.0942 -0.3328  0.5113
  203MOL0     C26730  10.535  10.501   4.909 -0.6178  0.3579  0.3963
  203MOL0     H26731  10.420  10.377   5.410 -0.3264 -3.0149  1.8004
  203MOL0     H26732  10.301  10.431   5.609  0.0541  1.4926 -0.2516
  203MOL0     H26733   9.874  10.324   5.657 -6.4414  0.4543 -1.8891
  203MOL0     H26734   9.835  10.458   5.558  1.3721 -2.1322 -1.7342
  203MOL0     H26735   9.887  10.599   5.770 -2.5995  0.4719 -0.7333
  203MOL0     H26736   9.940  10.460   5.847 -2.4336 -0.5262  1.4182
  203MOL0     H26737   9.742  10.354   5.848 -1.9671 -1.1483 -3.9738
  203MOL0     H26738   9.653  10.468   5.751 -0.6843  2.1303  0.2886
  203MOL0     H26739   9.756  10.497   6.042 -0.4169 -1.0027 -0.2172
  203MOL0     H26740   9.705  10.645   5.949  2.4060  0.2186  1.0662
  203MOL0     H26741   9.539  10.406   5.995 -0.3161  0.3777  0.5552
  203MOL0     H26742   9.490  10.536   5.888 -0.6178  2.8931  0.1417
  203MOL0     H26743   9.515  10.690   6.085  1.0130 -0.1977  1.4271
  203MOL0     H26744   9.501  10.557   6.198 -2.3848 -0.0226  0.3104
  203MOL0     H26745   9.267  10.661   6.112 -0.4171  0.4467 -2.4010
  203MOL0     H26746   9.297  10.558   5.971  0.0147 -2.2710  0.1988
  203MOL0     H26747   9.329  10.474   6.267  3.0410  1.0208 -0.9416
  203MOL0     H26748   9.325  10.361   6.128 -0.2672  0.9793  0.4899
  203MOL0     H26749   9.080  10.522   6.370 -2.0692  2.7284 -0.7961
  203MOL0     H26750   8.740  10.469   6.293  1.9074  1.8665 -0.2930
  203MOL0     H26751   8.840  10.434   6.433  2.5839 -0.5435 -1.2748
  203MOL0     H26752   8.699  10.246   6.243 -1.4032 -0.4228  0.1339
  203MOL0     H26753   8.684  10.256   6.422  0.3451 -2.1892 -1.3002
  203MOL0     H26754   8.791  10.052   6.351 -0.4964  0.3384 -3.7835
  203MOL0     H26755   8.926  10.129   6.269 -0.2590 -0.0788  0.5664
  203MOL0     H26756   8.991  10.242   6.494 -0.3925  1.1321  0.0594
  203MOL0     H26757   8.997  10.071   6.511  3.4329  3.1568 -0.6736
  203MOL0     H26758   8.662  10.197   6.771 -1.5844  1.0144 -0.8482
  203MOL0     H26759   8.522  10.026   6.890 -1.8939 -0.1916 -0.5959
  203MOL0     H26760   8.480   9.550   6.988 -1.2268 -2.1259  2.0016
  203MOL0     H26761   8.303   9.374   7.067 -1.4235 -1.3385 -0.2688
  203MOL0     H26762   8.074   9.085   6.956 -1.0875  1.1928 -0.0163
  203MOL0     H26763   8.148   9.139   6.806  2.4802  0.8918  1.2641
  203MOL0     H26764   7.937   9.258   6.743 -0.9684  3.1072  0.9045
  203MOL0     H26765   7.872   9.248   6.905 -2.3423 -1.0205 -1.1674
  203MOL0     H26766   7.845   8.998   6.886  1.4371 -0.3157 -1.1046
  203MOL0     H26767   7.890   9.011   6.714  1.5307 -0.0823  0.7980
  203MOL0     H26768   7.660   9.169   6.839  0.3556  0.2791  0.3022
  203MOL0     H26769   7.706   9.132   6.667  0.9422  0.5113  0.2946
  203MOL0     H26770   7.627   8.937   6.875  0.1098 -0.5909 -0.1063
  203MOL0     H26771   7.634   8.898   6.698  1.0019 -0.6450  1.5268
  203MOL0     H26772   7.451   9.125   6.808  1.6995  1.7079 -1.6061
  203MOL0     H26773   7.382   8.965   6.769 -0.3118  0.9145  0.2597
  203MOL0     H26774   7.521   9.141   6.570  1.6209 -1.1723  1.8464
  203MOL0     H26775   7.489   8.975   6.542  3.4005  0.7127 -0.3163
  203MOL0     H26776   7.241   9.022   6.569  0.7858 -1.1240 -3.3013
  203MOL0     H26777   7.311   9.161   6.473 -0.5818  0.1724 -0.8329
  203MOL0     H26778   8.110   9.424   6.688 -0.1542 -1.7871 -0.6052
  203MOL0     H26779   8.286   9.572   6.631  2.4247  2.2608  0.9249
  203MOL0     H26780   8.660   9.741   6.590 -2.2285  0.5125 -2.1982
  203MOL0     H26781   8.812   9.901   6.502  0.7482  0.2685  1.0446
  203MOL0     H26782   9.936  10.427   5.364 -0.3946  0.2766  1.2973
  203MOL0     H26783  10.072  10.373   5.171  0.8181  0.4955  0.2389
  203MOL0     H26784  10.386  10.200   4.936 -1.6204  1.5565  2.2740
  203MOL0     H26785  10.520  10.148   4.745  0.8875  0.5124 -2.4428
  203MOL0     H26786  10.799  10.469   4.602 -0.0037 -2.1901  1.8197
  203MOL0     H26787  10.642  10.495   4.520  0.4909  2.0803  1.1485
  203MOL0     H26788  10.874  10.286   4.446  1.2398  1.1364 -1.1423
  203MOL0     H26789  10.727  10.294   4.355  1.3614 -0.5596 -0.6704
  203MOL0     H26790  10.948  10.516   4.391  1.0070 -1.4268 -1.9877
  203MOL0     H26791  10.786  10.545   4.304  0.8859  1.8358 -0.9824
  203MOL0     H26792  10.972  10.335   4.223 -0.7060 -0.1102  0.8283
  203MOL0     H26793  10.841  10.418   4.132 -0.1295 -0.1928  0.2511
  203MOL0     H26794  11.162  10.662   4.047 -0.7792 -1.0943 -1.3653
  203MOL0     H26795  10.637  10.559   4.732  0.9926  0.5561  2.6175
  203MOL0     H26796  10.534  10.608   4.931  2.6994  0.3602  0.9963
  204MOL0     O26797   3.321   1.229   4.097  0.2357 -0.4132  0.6391
  204MOL0     C26798   3.361   1.339   4.049 -0.3762 -0.4882  0.0130
  204MOL0     O26799   3.281   1.444   4.014 -0.5589  0.6450  0.5554
  204MOL0     C26800   3.149   1.464   4.002 -0.8942  1.0372 -0.2975
  204MOL0     C26801   3.059   1.358   4.009 -0.1672  0.1951  0.0264
  204MOL0     C26802   2.923   1.372   4.002 -0.3998  0.1317 -0.6249
  204MOL0     C26803   2.871   1.497   3.972  0.4253 -0.5032 -0.2949
  204MOL0     O26804   2.737   1.527   3.951  0.0569  0.0324 -0.1814
  204MOL0     C26805   2.656   1.474   4.058 -0.1193 -0.7569  0.6657
  204MOL0     C26806   2.519   1.516   4.017  0.3384 -0.0200  0.2270
  204MOL0     C26807   2.477   1.664   4.030 -0.3019 -1.9835  0.1311
  204MOL0     C26808   2.326   1.687   3.988 -1.0535 -0.4929  0.6578
  204MOL0     C26809   2.238   1.704   4.112 -0.1422  0.3644  1.1780
  204MOL0     C26810   2.092   1.742   4.083 -0.0044 -0.2048  0.6912
  204MOL0     C26811   2.025   1.652   3.977  0.5323 -0.3405  1.0188
  204MOL0     C26812   1.875   1.687   3.953 -0.9175  0.8706  0.5553
  204MOL0     N26813   1.818   1.590   3.873  0.3612  0.7446  0.2381
  204MOL0     C26814   1.748   1.479   3.915  0.4040 -0.0986 -0.2623
  204MOL0     C26815   1.691   1.427   3.803  1.1062  0.5457 -0.2549
  204MOL0     C26816   1.607   1.298   3.794  0.3569  0.3053 -0.5200
  204MOL0     C26817   1.469   1.316   3.732  0.4632 -0.1287  0.1445
  204MOL0     C26818   1.394   1.403   3.833 -0.3155 -0.2736 -0.0580
  204MOL0     C26819   1.240   1.396   3.806  0.8589 -0.2232 -0.5810
  204MOL0     O26820   1.206   1.421   3.665  0.3184 -0.4686 -0.1470
  204MOL0     C26821   1.072   1.401   3.632 -0.5787 -0.2682 -1.3876
  204MOL0     C26822   0.975   1.482   3.689  0.0825  0.5179 -0.7092
  204MOL0     C26823   0.840   1.477   3.648 -0.3151  0.1899  0.2305
  204MOL0     C26824   0.799   1.380   3.544 -0.0829 -0.4554 -0.0632
  204MOL0     C26825   0.663   1.381   3.488  0.6020 -0.2124 -0.1073
  204MOL0     O26826   0.567   1.448   3.551  0.1759  0.4095 -0.2075
  204MOL0     C26827   0.439   1.415   3.523  0.4381 -0.9380 -0.3797
  204MOL0     C26828   0.377   1.390   3.401 -1.1465  0.7244  0.7200
  204MOL0     C26829   0.242   1.369   3.394  0.3715  0.4980 -0.0961
  204MOL0     C26830   0.165   1.365   3.504 -0.0068 -0.4593 -0.6471
  204MOL0     O26831   0.042   1.333   3.470  0.2312  0.1270  0.5650
  204MOL0     C26832  -0.062   1.353   3.567  0.7710  0.1492  0.0862
  204MOL0     C26833  -0.205   1.324   3.504 -1.1563 -0.7269 -0.1458
  204MOL0     C26834  -0.304   1.284   3.618 -0.5062  0.0310  0.3977
  204MOL0     C26835  -0.455   1.291   3.576  0.0946  0.4848 -0.2678
  204MOL0     C26836  -0.542   1.231   3.689  0.4931 -0.0925  0.4913
  204MOL0     C26837  -0.679   1.200   3.642 -0.3540  0.3975 -0.8917
  204MOL0     C26838  -0.778   1.163   3.752  0.7060 -0.6254 -0.6108
  204MOL0     C26839  -0.776   1.022   3.795  0.4368  0.1685 -0.0409
  204MOL0    Cl26840  -0.843   0.932   3.661  0.1634  0.0665 -0.0334
  204MOL0     C26841   0.219   1.398   3.630 -1.2672 -0.0646  0.3118
  204MOL0     C26842   0.353   1.423   3.638 -0.3450 -0.1389 -0.0554
  204MOL0     O26843   0.655   1.304   3.392  0.1452  0.2754  0.0912
  204MOL0     C26844   0.903   1.289   3.501  0.0849 -0.0027  0.0701
  204MOL0     C26845   1.036   1.298   3.551 -0.4586 -0.2214  0.2072
  204MOL0     N26846   1.728   1.508   3.698 -0.2396 -0.0606 -0.3748
  204MOL0     N26847   1.807   1.592   3.736 -0.5343  0.2831 -0.3915
  204MOL0     C26848   2.958   1.603   3.951 -0.2896 -0.2018 -0.5848
  204MOL0     C26849   3.098   1.586   3.963  0.5872 -0.0650  0.1837
  204MOL0     C26850   3.508   1.347   4.018  0.2864  1.3949  0.1987
  204MOL0     C26851   3.553   1.441   3.926  1.0679 -0.0434  0.5562
  204MOL0     C26852   3.693   1.442   3.897  0.8564  0.9083 -0.1057
  204MOL0     C26853   3.782   1.355   3.957  0.3638  0.4720  0.4040
  204MOL0     O26854   3.919   1.362   3.929  0.6294 -0.5786 -0.4274
  204MOL0     C26855   3.974   1.241   3.880 -0.2772  0.3726  0.3791
  204MOL0     C26856   4.101   1.199   3.963 -0.3764 -0.8934  0.2103
  204MOL0     C26857   4.225   1.280   3.933 -0.3124 -0.6765 -0.3350
  204MOL0     C26858   4.359   1.248   4.003  0.3840 -0.4822 -0.0120
  204MOL0     C26859   4.411   1.117   3.956  0.9543 -0.0812 -0.7164
  204MOL0     C26860   4.439   1.004   3.915  0.4524  0.0326  0.5584
  204MOL0     C26861   3.735   1.266   4.054 -0.0105  0.2760 -0.3797
  204MOL0     C26862   3.593   1.256   4.076  0.1694  0.1044 -0.5060
  204MOL0     H26863   3.075   1.257   4.044 -4.6918 -0.6902  0.2466
  204MOL0     H26864   2.860   1.286   4.024 -0.6656  0.4020 -0.2993
  204MOL0     H26865   2.675   1.510   4.160 -0.6653  1.7991 -0.0661
  204MOL0     H26866   2.663   1.366   4.070 -0.0138 -0.6792  1.3510
  204MOL0     H26867   2.447   1.457   4.075 -0.8675  0.6718 -0.5312
  204MOL0     H26868   2.514   1.489   3.911 -0.6049  0.0939  0.2364
  204MOL0     H26869   2.534   1.722   3.957 -3.8293  1.3917 -0.2444
  204MOL0     H26870   2.501   1.705   4.128  2.0135 -3.1566  0.1020
  204MOL0     H26871   2.305   1.785   3.942 -3.9987  0.3810  3.4550
  204MOL0     H26872   2.288   1.608   3.922  1.3987 -0.5343 -0.8297
  204MOL0     H26873   2.280   1.781   4.177  1.3054  0.6367 -0.0313
  204MOL0     H26874   2.227   1.610   4.168  2.7411 -0.4275  0.5980
  204MOL0     H26875   2.084   1.847   4.056 -1.3950  0.1591  2.3383
  204MOL0     H26876   2.028   1.734   4.172 -2.6950 -1.9998 -1.2318
  204MOL0     H26877   2.078   1.653   3.881 -3.2254  0.1821 -1.2573
  204MOL0     H26878   2.034   1.555   4.025 -0.2864 -0.8404  0.2000
  204MOL0     H26879   1.873   1.782   3.898  1.2477  0.0116 -1.1840
  204MOL0     H26880   1.822   1.693   4.048  0.8952 -1.2284  1.8017
  204MOL0     H26881   1.762   1.415   4.001  2.3685 -0.2515 -0.6466
  204MOL0     H26882   1.607   1.230   3.880 -0.6081  0.8115 -0.0964
  204MOL0     H26883   1.640   1.236   3.710 -1.3212  0.6553 -1.4878
  204MOL0     H26884   1.419   1.219   3.733 -4.0392  1.9369 -0.8652
  204MOL0     H26885   1.463   1.348   3.628  1.5141 -3.6866 -1.1491
  204MOL0     H26886   1.425   1.364   3.930  0.7653 -2.1895 -1.1027
  204MOL0     H26887   1.420   1.508   3.822 -4.3346  0.8193 -0.8925
  204MOL0     H26888   1.197   1.477   3.867  1.4544 -0.4318  0.1279
  204MOL0     H26889   1.193   1.302   3.838  3.3279 -1.7891 -1.3240
  204MOL0     H26890   1.006   1.550   3.768  1.0563 -0.9896  0.2601
  204MOL0     H26891   0.765   1.537   3.697 -1.5540  0.1461 -1.5428
  204MOL0     H26892   0.448   1.370   3.321 -0.6717  0.7557  1.1238
  204MOL0     H26893   0.202   1.335   3.299 -0.9295  0.1675  0.5460
  204MOL0     H26894  -0.053   1.452   3.612  3.2502 -0.5508  1.3458
  204MOL0     H26895  -0.046   1.283   3.649  1.5470  0.7984  0.5035
  204MOL0     H26896  -0.204   1.244   3.429  0.0137  1.3004 -2.3981
  204MOL0     H26897  -0.236   1.413   3.449  1.6506  0.7014  0.4300
  204MOL0     H26898  -0.289   1.349   3.704  0.8258  0.4837 -0.1476
  204MOL0     H26899  -0.281   1.180   3.641 -0.5654  0.6668  3.8693
  204MOL0     H26900  -0.474   1.394   3.546 -0.6208  0.9561  1.6522
  204MOL0     H26901  -0.464   1.221   3.492 -0.7025  0.8352 -0.4764
  204MOL0     H26902  -0.545   1.296   3.776  0.9412 -0.5464  0.8528
  204MOL0     H26903  -0.487   1.141   3.719  1.9595  0.4124 -0.5666
  204MOL0     H26904  -0.680   1.121   3.566  0.3029 -0.7172  0.2234
  204MOL0     H26905  -0.710   1.289   3.586 -1.9207  0.4336 -0.0357
  204MOL0     H26906  -0.752   1.212   3.846  1.5238 -1.5004 -0.3740
  204MOL0     H26907  -0.880   1.188   3.720  1.0955  0.5552 -0.9890
  204MOL0     H26908  -0.825   0.991   3.888 -0.5817 -2.5118 -1.3761
  204MOL0     H26909  -0.670   0.996   3.807  0.6522  0.1803 -1.6946
  204MOL0     H26910   0.156   1.400   3.718  0.7388 -0.0477  1.8125
  204MOL0     H26911   0.397   1.445   3.735 -1.9216  2.5878  0.1684
  204MOL0     H26912   0.883   1.215   3.425 -0.7805 -2.6734  2.6887
  204MOL0     H26913   1.119   1.232   3.524 -1.2822 -2.3133  2.4574
  204MOL0     H26914   2.917   1.700   3.924  3.1313  2.0768  1.6556
  204MOL0     H26915   3.160   1.673   3.942  0.4938 -0.6212 -2.7685
  204MOL0     H26916   3.496   1.525   3.888 -0.2141  0.1716  2.8484
  204MOL0     H26917   3.726   1.516   3.825  1.7587  0.8844  0.2632
  204MOL0     H26918   3.998   1.268   3.776  0.7512  2.0161  1.0134
  204MOL0     H26919   3.900   1.160   3.881 -0.1627  0.2713  0.9007
  204MOL0     H26920   4.084   1.215   4.070  1.5964 -3.7230  1.0694
  204MOL0     H26921   4.138   1.098   3.944 -0.6418 -0.6991 -1.4341
  204MOL0     H26922   4.217   1.388   3.947  0.8712 -0.5349 -0.6591
  204MOL0     H26923   4.247   1.287   3.826  0.4006  2.1338 -0.0713
  204MOL0     H26924   4.432   1.326   3.979 -1.7913  1.9338  0.7895
  204MOL0     H26925   4.359   1.254   4.113 -0.5595 -2.7907  0.1764
  204MOL0     H26926   4.478   0.912   3.878  1.3652 -0.4813  2.6558
  204MOL0     H26927   3.800   1.203   4.115  0.0153 -1.2088 -1.8525
  204MOL0     H26928   3.561   1.178   4.145  1.4459 -0.1487 -0.1716
  205MOL0     O26929   6.331   4.217   7.993 -0.0024 -0.2297 -0.4777
  205MOL0     C26930   6.359   4.147   8.096  0.3007  0.3374 -0.7391
  205MOL0     O26931   6.271   4.083   8.175 -0.1620 -0.1766  0.0141
  205MOL0     C26932   6.133   4.060   8.152 -0.4488 -0.2731  0.2157
  205MOL0     C26933   6.075   4.046   8.028  0.2871  0.1536  0.1805
  205MOL0     C26934   5.945   4.007   8.005 -0.4869  0.2375 -0.3501
  205MOL0     C26935   5.869   3.981   8.120  0.3178  0.3238  0.1728
  205MOL0     O26936   5.741   3.936   8.133 -0.9089 -0.1749 -0.3816
  205MOL0     C26937   5.649   4.027   8.062  0.9803 -0.3939  0.0662
  205MOL0     C26938   5.516   4.033   8.133 -0.1631 -0.6003  0.6028
  205MOL0     C26939   5.529   4.110   8.270 -0.1543 -1.4004  0.2292
  205MOL0     C26940   5.500   4.020   8.396 -0.8041  0.5414  0.4778
  205MOL0     C26941   5.348   3.988   8.410  0.9285 -0.9380  1.0139
  205MOL0     C26942   5.319   3.919   8.543  0.0883  0.3174  0.0160
  205MOL0     C26943   5.370   3.771   8.537  1.0500 -0.7897 -0.0855
  205MOL0     C26944   5.401   3.735   8.678 -0.2778  0.4316 -0.4061
  205MOL0     N26945   5.288   3.752   8.771 -0.2699  0.6123 -0.6856
  205MOL0     C26946   5.250   3.871   8.832 -0.8846 -0.0394 -0.0654
  205MOL0     C26947   5.136   3.820   8.905 -0.1889 -2.1758  0.2414
  205MOL0     C26948   5.033   3.893   8.992 -0.7611 -0.0719 -0.1152
  205MOL0     C26949   4.887   3.881   8.961 -0.5703  0.4360  0.4757
  205MOL0     C26950   4.799   3.962   9.057  0.2815 -0.9541  0.0190
  205MOL0     C26951   4.795   4.114   9.035 -0.4895  0.1679  0.2896
  205MOL0     O26952   4.744   4.188   9.146 -0.0566  0.1895  0.1903
  205MOL0     C26953   4.608   4.180   9.167 -0.3631 -0.8611  0.2656
  205MOL0     C26954   4.570   4.225   9.292 -0.8417  0.1690 -0.2809
  205MOL0     C26955   4.432   4.202   9.334 -0.1771 -0.1726 -0.0606
  205MOL0     C26956   4.345   4.130   9.247  0.2780 -0.1162 -0.3225
  205MOL0     C26957   4.200   4.117   9.289  0.3738 -0.0219 -0.3779
  205MOL0     O26958   4.112   4.095   9.185 -0.3343  0.2229 -0.4964
  205MOL0     C26959   3.981   4.077   9.231  0.0023  0.0194  0.3409
  205MOL0     C26960   3.887   4.171   9.207  0.5263 -0.0555  0.3170
  205MOL0     C26961   3.755   4.164   9.250  0.5393  0.6035 -0.4997
  205MOL0     C26962   3.717   4.041   9.320 -0.4706  0.2286 -1.2598
  205MOL0     O26963   3.580   4.032   9.349 -0.2096  0.1583  0.3867
  205MOL0     C26964   3.535   3.906   9.403  0.4373  0.3132  0.2895
  205MOL0     C26965   3.384   3.905   9.426 -0.6309  0.3195  0.6389
  205MOL0     C26966   3.302   3.784   9.366 -0.9243 -0.3112 -1.0231
  205MOL0     C26967   3.161   3.780   9.425 -0.4618 -0.6782  1.0115
  205MOL0     C26968   3.071   3.667   9.376 -0.4343 -0.3137  0.0340
  205MOL0     C26969   3.063   3.661   9.222  0.2471 -0.0758  0.1369
  205MOL0     C26970   2.924   3.618   9.175  0.1271 -0.1176  0.0887
  205MOL0     C26971   2.915   3.626   9.020 -0.5219  0.0777 -0.6138
  205MOL0    Cl26972   2.760   3.539   8.975 -0.1076  0.0335  0.2182
  205MOL0     C26973   3.820   3.947   9.345 -0.2027 -0.5771  0.8298
  205MOL0     C26974   3.947   3.966   9.305 -0.5930 -1.1981 -0.3304
  205MOL0     O26975   4.174   4.139   9.407 -0.0893 -0.5133 -0.1387
  205MOL0     C26976   4.383   4.106   9.117 -0.6564  0.3247  0.9233
  205MOL0     C26977   4.516   4.123   9.080 -0.1744 -0.5195 -0.0994
  205MOL0     N26978   5.126   3.684   8.890 -0.0654  0.0331  0.2540
  205MOL0     N26979   5.218   3.642   8.812  0.1901  0.0852 -0.7658
  205MOL0     C26980   5.921   3.989   8.249 -0.0510 -0.7627 -0.1970
  205MOL0     C26981   6.054   4.026   8.262 -0.4371 -0.7120  1.1721
  205MOL0     C26982   6.500   4.140   8.140  0.0477 -0.0428  0.2596
  205MOL0     C26983   6.537   4.073   8.252  0.0065  0.2637  1.2283
  205MOL0     C26984   6.673   4.058   8.279 -0.2789  0.4794  0.4512
  205MOL0     C26985   6.777   4.109   8.197  0.1632  0.8495  0.5833
  205MOL0     O26986   6.907   4.090   8.208 -0.2945  0.8996 -0.1724
  205MOL0     C26987   6.968   4.005   8.315  0.0750 -0.7705  0.0967
  205MOL0     C26988   6.955   3.849   8.285  0.0028 -0.2064  0.3940
  205MOL0     C26989   6.978   3.786   8.146 -0.2131  0.0698  0.3914
  205MOL0     C26990   7.077   3.866   8.050 -0.2233  1.5771 -0.0921
  205MOL0     C26991   7.116   3.786   7.933  0.1801  0.1688 -0.6828
  205MOL0     C26992   7.148   3.744   7.825  0.0627  0.2593 -0.4259
  205MOL0     C26993   6.731   4.194   8.093 -0.2017  0.3202 -0.0755
  205MOL0     C26994   6.593   4.200   8.068  0.0935 -0.5574 -0.3827
  205MOL0     H26995   6.139   4.051   7.941  1.6035 -3.1615  0.8141
  205MOL0     H26996   5.905   3.980   7.908 -0.5197 -0.3923 -0.1683
  205MOL0     H26997   5.620   3.990   7.963  1.5206  0.0400 -0.2561
  205MOL0     H26998   5.687   4.126   8.035 -0.1104 -0.1409 -0.6323
  205MOL0     H26999   5.472   3.935   8.150 -0.2146 -1.0049 -1.5503
  205MOL0     H27000   5.455   4.095   8.066  1.3257  4.0006  3.0104
  205MOL0     H27001   5.464   4.198   8.276 -0.2032 -1.2058 -2.1240
  205MOL0     H27002   5.636   4.132   8.275 -0.3170 -0.2100 -1.0573
  205MOL0     H27003   5.548   3.922   8.395  0.8138  1.2285 -3.1195
  205MOL0     H27004   5.543   4.070   8.484  0.8826 -0.9787  0.5594
  205MOL0     H27005   5.323   3.931   8.321 -1.6540  0.6593  0.6333
  205MOL0     H27006   5.290   4.081   8.412 -0.7686 -1.9674  1.4222
  205MOL0     H27007   5.210   3.921   8.546  0.0481 -1.0043 -0.0652
  205MOL0     H27008   5.358   3.971   8.632 -1.3842 -1.7348  1.9793
  205MOL0     H27009   5.297   3.704   8.491 -0.3264  1.4217 -1.3584
  205MOL0     H27010   5.470   3.775   8.494  1.0817  4.4839 -0.1780
  205MOL0     H27011   5.486   3.799   8.705 -1.5689  1.5668  1.1849
  205MOL0     H27012   5.446   3.637   8.697  1.0730  1.2935  1.0851
  205MOL0     H27013   5.281   3.974   8.824 -0.6141 -0.2906 -3.4312
  205MOL0     H27014   5.070   3.996   8.992 -3.6274  1.0425  0.3513
  205MOL0     H27015   5.047   3.862   9.096 -3.6426 -2.0271 -0.1874
  205MOL0     H27016   4.852   3.777   8.969 -0.1992  0.2890  0.2044
  205MOL0     H27017   4.866   3.924   8.863 -2.4874 -1.5615 -0.0849
  205MOL0     H27018   4.695   3.930   9.067 -0.1172  0.5020  0.8574
  205MOL0     H27019   4.852   3.951   9.152 -0.2774 -0.8736  0.3427
  205MOL0     H27020   4.742   4.125   8.940 -0.0830  0.9437  0.1441
  205MOL0     H27021   4.899   4.150   9.034 -0.9007  1.3905  0.7002
  205MOL0     H27022   4.646   4.268   9.357 -0.0353 -1.2318 -0.2651
  205MOL0     H27023   4.411   4.235   9.435 -1.3570  0.9092 -0.6363
  205MOL0     H27024   3.915   4.254   9.142  0.9410 -0.5766 -0.1763
  205MOL0     H27025   3.692   4.251   9.242 -1.1986 -0.2210  2.5031
  205MOL0     H27026   3.602   3.876   9.485  1.3406 -0.9901 -0.8617
  205MOL0     H27027   3.555   3.827   9.330  0.0401  0.6308 -0.1636
  205MOL0     H27028   3.332   3.988   9.376 -0.5094 -0.4804 -0.8683
  205MOL0     H27029   3.360   3.911   9.532 -0.0111 -0.0327  0.7994
  205MOL0     H27030   3.352   3.687   9.371  1.5182  0.8844 -0.5992
  205MOL0     H27031   3.310   3.810   9.260  1.7000  1.7300 -0.4468
  205MOL0     H27032   3.153   3.761   9.532 -2.5885  2.6433  1.5869
  205MOL0     H27033   3.123   3.882   9.414 -2.2625 -1.2446  1.4711
  205MOL0     H27034   2.971   3.694   9.411  0.6398  0.9818  2.3811
  205MOL0     H27035   3.103   3.572   9.420  1.5978  0.3715  0.1601
  205MOL0     H27036   3.148   3.600   9.191 -1.0530 -1.9651  0.0931
  205MOL0     H27037   3.064   3.762   9.180 -1.0727 -0.4845 -0.9469
  205MOL0     H27038   2.917   3.518   9.218  0.3659  0.7465  2.2818
  205MOL0     H27039   2.844   3.669   9.229  0.3283 -0.6765  0.9381
  205MOL0     H27040   3.004   3.571   8.988  0.9427  3.5399 -3.0015
  205MOL0     H27041   2.918   3.732   8.993  0.4319  1.2706  3.5037
  205MOL0     H27042   3.793   3.853   9.392 -2.3878 -0.2899  0.2572
  205MOL0     H27043   4.016   3.887   9.334  0.4521 -0.1345  0.1461
  205MOL0     H27044   4.315   4.047   9.057  0.0654  0.2774  0.1377
  205MOL0     H27045   4.555   4.083   8.987  0.4121  2.2073 -1.0921
  205MOL0     H27046   5.867   3.970   8.341  1.4598 -1.9257  0.4763
  205MOL0     H27047   6.100   4.019   8.360  0.5857  0.5131  0.7999
  205MOL0     H27048   6.459   4.035   8.316  0.0553 -1.9272  0.0842
  205MOL0     H27049   6.705   4.002   8.366 -1.1259 -2.5122 -1.0234
  205MOL0     H27050   6.919   4.039   8.406  1.4275 -0.0741  0.5941
  205MOL0     H27051   7.074   4.031   8.310 -0.6155  2.2963 -0.7003
  205MOL0     H27052   7.027   3.795   8.347 -0.6978  0.0296  1.4376
  205MOL0     H27053   6.857   3.810   8.313 -0.6376  1.1786  0.1673
  205MOL0     H27054   6.880   3.781   8.097 -0.7293  2.4754  0.9997
  205MOL0     H27055   7.019   3.686   8.159  2.3985  0.9926 -0.2563
  205MOL0     H27056   7.034   3.961   8.018 -1.9502  0.8129 -0.1412
  205MOL0     H27057   7.169   3.883   8.107 -0.2260  1.1166  0.0583
  205MOL0     H27058   7.156   3.701   7.728  0.8797  1.6933 -1.0207
  205MOL0     H27059   6.804   4.243   8.028  2.3714  0.1617  2.5017
  205MOL0     H27060   6.552   4.251   7.981 -2.5715 -0.0268  1.0901
  206MOL0     O27061   6.959  10.651   0.521 -0.4265  0.0103  0.3651
  206MOL0     C27062   6.960  10.745   0.602  0.1025 -0.1883 -0.2048
  206MOL0     O27063   6.848  10.807   0.661 -0.3784 -0.7003 -0.4224
  206MOL0     C27064   6.717  10.775   0.643 -0.0871  0.0188 -0.0093
  206MOL0     C27065   6.619  10.794   0.743 -0.2439  0.2404  0.4117
  206MOL0     C27066   6.488  10.769   0.712 -0.6004  1.2572  0.6588
  206MOL0     C27067   6.441  10.723   0.587 -0.1507  0.1367  0.1230
  206MOL0     O27068   6.308  10.702   0.559  0.3142  0.5176 -0.0425
  206MOL0     C27069   6.220  10.751   0.653  0.0692  0.8591  0.3207
  206MOL0     C27070   6.073  10.768   0.609  0.1542 -0.2163 -0.3437
  206MOL0     C27071   6.030  10.644   0.525  0.8388 -0.2148 -0.0479
  206MOL0     C27072   5.887  10.671   0.473  0.7715  0.4449  0.1287
  206MOL0     C27073   5.815  10.546   0.416  0.3939 -0.3266  0.1105
  206MOL0     C27074   5.873  10.488   0.278 -0.7523 -0.0141 -0.7883
  206MOL0     C27075   5.794  10.364   0.259 -0.0761  0.3160  0.1954
  206MOL0     C27076   5.831  10.300   0.123  0.0373  0.0503 -0.3528
  206MOL0     N27077   5.969  10.247   0.117 -0.0556 -0.2392  0.9554
  206MOL0     C27078   6.017  10.119   0.146  0.1289  0.1671 -0.0100
  206MOL0     C27079   6.147  10.110   0.103  0.8168 -0.3565 -1.2463
  206MOL0     C27080   6.251   9.996   0.121  0.1837  0.2006  0.0500
  206MOL0     C27081   6.191   9.854   0.085  0.1769 -0.2598  0.4320
  206MOL0     C27082   6.153   9.852  -0.062 -0.5302 -0.7218 -0.0474
  206MOL0     C27083   6.022   9.783  -0.082 -0.2293  0.0139 -0.4982
  206MOL0     O27084   5.987   9.792  -0.227  0.4922  0.3679  0.0447
  206MOL0     C27085   5.867   9.736  -0.262 -0.4482  0.3950  0.5535
  206MOL0     C27086   5.836   9.710  -0.401 -0.6066 -0.5242 -0.4610
  206MOL0     C27087   5.714   9.660  -0.449 -0.1753  0.2083 -0.0930
  206MOL0     C27088   5.618   9.630  -0.358  0.1559  0.9544 -0.7886
  206MOL0     C27089   5.481   9.590  -0.405  0.0209 -0.1363 -0.3029
  206MOL0     O27090   5.475   9.517  -0.525 -0.1574 -0.1402  0.7853
  206MOL0     C27091   5.363   9.481  -0.595 -1.0365 -0.5500  0.9606
  206MOL0     C27092   5.230   9.517  -0.568  1.1560  0.6576 -0.2140
  206MOL0     C27093   5.113   9.458  -0.632  0.6265 -0.3123  1.0343
  206MOL0     C27094   5.130   9.364  -0.735  0.7170  1.1619 -0.4616
  206MOL0     O27095   5.021   9.305  -0.789 -0.2621 -0.8416 -0.7441
  206MOL0     C27096   5.012   9.164  -0.762 -0.8527  0.0283  0.1985
  206MOL0     C27097   4.867   9.112  -0.803  0.2439 -1.0242 -0.2389
  206MOL0     C27098   4.749   9.185  -0.736 -0.6000  0.1673 -0.0910
  206MOL0     C27099   4.615   9.117  -0.778  0.0087 -0.4099 -0.6467
  206MOL0     C27100   4.485   9.170  -0.703 -0.0371 -0.2838 -1.3462
  206MOL0     C27101   4.371   9.065  -0.711  0.0996  0.0010 -0.5123
  206MOL0     C27102   4.245   9.121  -0.654  0.1982 -0.5422 -0.4255
  206MOL0     C27103   4.146   9.172  -0.762  0.3970 -0.8753  0.1649
  206MOL0    Cl27104   3.986   9.236  -0.697 -0.1858 -0.0433 -0.1773
  206MOL0     C27105   5.265   9.326  -0.755 -0.3916 -0.3589  0.0169
  206MOL0     C27106   5.378   9.383  -0.691 -0.2747 -0.1739 -0.4315
  206MOL0     O27107   5.385   9.640  -0.340 -0.1834 -0.9926  0.1528
  206MOL0     C27108   5.640   9.653  -0.222  0.4308  0.0254 -0.0260
  206MOL0     C27109   5.764   9.702  -0.173  1.4904  0.2894 -0.0347
  206MOL0     N27110   6.181  10.240   0.071  0.1003 -0.6115 -0.0866
  206MOL0     N27111   6.076  10.319   0.064  0.6427  0.0185  0.4115
  206MOL0     C27112   6.541  10.710   0.493 -0.2016  0.1967  0.7341
  206MOL0     C27113   6.677  10.739   0.521  0.6749  0.0255 -0.2116
  206MOL0     C27114   7.092  10.808   0.641  0.5131  0.3614 -1.1075
  206MOL0     C27115   7.212  10.778   0.575  0.2569  0.7354  1.1039
  206MOL0     C27116   7.321  10.855   0.582  0.1476  0.4929 -0.1876
  206MOL0     C27117   7.330  10.962   0.667  0.7620  0.1096 -1.0214
  206MOL0     O27118   7.440  11.048   0.664  0.1227 -0.2750  0.5865
  206MOL0     C27119   7.538  11.033   0.562 -0.4142  0.9566 -0.5639
  206MOL0     C27120   7.497  11.044   0.417  0.1909 -0.6563 -0.4770
  206MOL0     C27121   7.421  11.169   0.391 -0.2999  0.5949  0.1564
  206MOL0     C27122   7.391  11.202   0.242  0.0865 -0.0522  0.2077
  206MOL0     C27123   7.362  11.344   0.236  0.2545  0.0819 -0.0751
  206MOL0     C27124   7.341  11.462   0.229  0.5385 -0.1524 -0.8306
  206MOL0     C27125   7.222  10.982   0.750 -0.0806  0.2262 -0.8440
  206MOL0     C27126   7.107  10.900   0.742  0.5320 -0.1039  0.3463
  206MOL0     H27127   6.636  10.834   0.843  1.3413 -0.0066  0.2664
  206MOL0     H27128   6.427  10.772   0.802  0.9599 -1.3341  1.9211
  206MOL0     H27129   6.243  10.856   0.675 -3.3805  1.9822 -0.7628
  206MOL0     H27130   6.223  10.681   0.736  1.2905 -1.6708 -1.7136
  206MOL0     H27131   6.060  10.864   0.558 -2.2084  0.3704  1.1725
  206MOL0     H27132   6.004  10.795   0.690  0.3989  0.6148 -0.3936
  206MOL0     H27133   6.045  10.553   0.583 -1.0408 -0.2310  0.4743
  206MOL0     H27134   6.091  10.640   0.434  0.7226 -0.0594 -0.1339
  206MOL0     H27135   5.819  10.703   0.552 -1.7024  0.7846 -2.0210
  206MOL0     H27136   5.884  10.749   0.395  0.9672 -0.3522 -0.6972
  206MOL0     H27137   5.706  10.556   0.414  0.1154 -2.9157 -0.4976
  206MOL0     H27138   5.829  10.470   0.494 -0.8446  0.3467  1.0309
  206MOL0     H27139   5.977  10.469   0.306 -1.3574 -1.0108  0.9172
  206MOL0     H27140   5.876  10.558   0.194  1.3492 -0.5855 -1.2387
  206MOL0     H27141   5.828  10.295   0.336  0.3651 -1.8087 -1.7900
  206MOL0     H27142   5.687  10.385   0.261  0.2426  2.5883 -1.4660
  206MOL0     H27143   5.814  10.362   0.035  3.2355 -1.9293 -2.6152
  206MOL0     H27144   5.763  10.215   0.112 -4.4239  2.9689  2.0131
  206MOL0     H27145   5.965  10.036   0.193  2.6803 -0.9207  1.1050
  206MOL0     H27146   6.277   9.997   0.228 -3.5187 -0.4161  1.0938
  206MOL0     H27147   6.344  10.007   0.065 -0.2569 -2.2015 -1.2889
  206MOL0     H27148   6.112   9.827   0.156  0.4469  0.5870  1.0641
  206MOL0     H27149   6.266   9.774   0.089 -2.0942 -2.5600  0.1175
  206MOL0     H27150   6.154   9.955  -0.100 -1.0817 -1.2087 -1.4200
  206MOL0     H27151   6.230   9.800  -0.120 -0.8050 -1.7467  0.4895
  206MOL0     H27152   5.952   9.849  -0.029  0.4132 -0.3104  0.7990
  206MOL0     H27153   6.014   9.682  -0.040  1.1625  1.0894  2.6582
  206MOL0     H27154   5.916   9.735  -0.471 -1.8571 -0.1673 -1.8055
  206MOL0     H27155   5.692   9.651  -0.555 -2.0433 -2.5636  0.4317
  206MOL0     H27156   5.205   9.583  -0.486 -0.8319  0.6529 -0.7669
  206MOL0     H27157   5.013   9.491  -0.607  0.4126 -1.1521  1.3082
  206MOL0     H27158   5.041   9.147  -0.657  4.6819  0.0994 -1.0144
  206MOL0     H27159   5.080   9.100  -0.820 -0.9012  1.6271 -1.7100
  206MOL0     H27160   4.870   9.005  -0.779 -0.6462 -0.6097  2.0792
  206MOL0     H27161   4.857   9.124  -0.911 -1.9596 -1.6676 -0.1562
  206MOL0     H27162   4.746   9.285  -0.781  1.7647 -0.9194 -3.0202
  206MOL0     H27163   4.764   9.184  -0.627  1.4943 -1.6463 -0.3299
  206MOL0     H27164   4.600   9.137  -0.885  0.4071  0.8921 -0.4837
  206MOL0     H27165   4.621   9.009  -0.766  1.6517 -0.3169 -0.3353
  206MOL0     H27166   4.447   9.260  -0.751 -1.9601  1.2343  2.5796
  206MOL0     H27167   4.510   9.197  -0.600 -0.9461 -1.6683 -0.7293
  206MOL0     H27168   4.396   8.977  -0.651 -1.0558 -0.0404 -0.0715
  206MOL0     H27169   4.341   9.047  -0.815 -0.2697 -1.6953 -0.1364
  206MOL0     H27170   4.193   9.043  -0.597 -1.5375  0.6155 -0.3454
  206MOL0     H27171   4.271   9.202  -0.585  1.8650 -0.8077 -0.7008
  206MOL0     H27172   4.143   9.095  -0.840  1.8789 -1.4152  0.6078
  206MOL0     H27173   4.192   9.256  -0.815 -0.6511  0.8817  1.9040
  206MOL0     H27174   5.293   9.246  -0.823  2.2446  1.8383 -1.6912
  206MOL0     H27175   5.475   9.337  -0.706 -1.3325 -2.2549 -1.1884
  206MOL0     H27176   5.559   9.632  -0.153 -0.5644 -0.2380 -1.2355
  206MOL0     H27177   5.769   9.716  -0.065  1.2246 -1.0100  0.1575
  206MOL0     H27178   6.511  10.681   0.392  3.8945 -1.1806 -0.2709
  206MOL0     H27179   6.737  10.750   0.431 -2.7082 -1.0547 -2.8320
  206MOL0     H27180   7.207  10.698   0.501  2.1348  1.8097 -0.2819
  206MOL0     H27181   7.405  10.815   0.527  0.0587 -2.0013  1.3287
  206MOL0     H27182   7.586  10.936   0.577 -1.2302  0.0777 -3.1218
  206MOL0     H27183   7.617  11.105   0.587  0.0347  1.0018 -2.0580
  206MOL0     H27184   7.599  11.041   0.376  0.6998 -2.8437  0.7930
  206MOL0     H27185   7.448  10.954   0.377 -2.7420  0.6693 -0.1198
  206MOL0     H27186   7.474  11.256   0.433  0.2491  1.7640 -2.6463
  206MOL0     H27187   7.326  11.166   0.443 -2.2313 -0.5058 -3.1224
  206MOL0     H27188   7.480  11.187   0.182 -0.6647  1.7064 -1.4534
  206MOL0     H27189   7.311  11.138   0.204  0.4592 -0.5988  0.3289
  206MOL0     H27190   7.311  11.565   0.219 -1.7085 -0.3797  2.0171
  206MOL0     H27191   7.216  11.072   0.810 -0.6194 -0.3455 -0.0264
  206MOL0     H27192   7.025  10.922   0.809 -0.6578  1.1097 -1.4053
  207MOL0     O27193   8.126   8.461   3.385  0.7470 -0.0383  0.5954
  207MOL0     C27194   8.208   8.377   3.345  0.6318 -0.5832 -0.0855
  207MOL0     O27195   8.303   8.389   3.239 -0.2253  0.1499 -0.5227
  207MOL0     C27196   8.327   8.513   3.204  0.3693 -0.1327  0.6426
  207MOL0     C27197   8.372   8.610   3.296 -0.5294 -0.4370 -0.3723
  207MOL0     C27198   8.393   8.738   3.251  0.6037  0.6741 -0.2520
  207MOL0     C27199   8.379   8.764   3.111  0.4816  0.6440 -1.0896
  207MOL0     O27200   8.423   8.888   3.066 -0.4190  0.1885  0.5520
  207MOL0     C27201   8.531   8.884   2.966  0.2806 -0.2272 -0.1556
  207MOL0     C27202   8.581   9.014   2.913  0.7762 -0.5362 -0.2352
  207MOL0     C27203   8.474   9.100   2.831  0.3753 -0.5467  0.3159
  207MOL0     C27204   8.385   9.015   2.736 -0.3729  0.4213  0.0282
  207MOL0     C27205   8.299   9.092   2.632 -0.6635 -0.2798 -0.1832
  207MOL0     C27206   8.227   9.220   2.688 -0.2351 -0.1854 -0.1776
  207MOL0     C27207   8.158   9.303   2.583 -0.3893 -0.8769 -0.1492
  207MOL0     C27208   8.130   9.442   2.629 -0.0219  0.5312  0.1016
  207MOL0     N27209   8.016   9.444   2.718  0.5605 -0.5187 -0.7593
  207MOL0     C27210   7.989   9.551   2.801  0.0829 -0.2240  0.4420
  207MOL0     C27211   7.869   9.521   2.855  0.9230  0.3946 -0.0941
  207MOL0     C27212   7.803   9.614   2.955 -0.0524  0.4461  0.3311
  207MOL0     C27213   7.669   9.664   2.898  0.6294  0.8472  0.1977
  207MOL0     C27214   7.580   9.724   3.017  0.0295 -0.1748  1.0548
  207MOL0     C27215   7.423   9.707   2.993  0.0469  0.2421 -0.6469
  207MOL0     O27216   7.385   9.700   2.854  0.6910  0.2566  0.3168
  207MOL0     C27217   7.245   9.704   2.829  0.4075  0.1790 -0.1375
  207MOL0     C27218   7.197   9.679   2.697 -0.1780  0.3760 -0.6984
  207MOL0     C27219   7.062   9.694   2.661 -0.4362 -0.0281  0.6280
  207MOL0     C27220   6.967   9.721   2.761  0.0633 -0.7294  0.0613
  207MOL0     C27221   6.828   9.739   2.732  0.1577  0.4456 -0.0904
  207MOL0     O27222   6.744   9.745   2.833  0.8071 -0.4270 -0.3161
  207MOL0     C27223   6.614   9.705   2.821  0.2012  0.4408 -0.2286
  207MOL0     C27224   6.577   9.594   2.742 -0.8546 -0.4175 -0.1123
  207MOL0     C27225   6.446   9.558   2.701 -0.0462  0.2605 -0.0683
  207MOL0     C27226   6.344   9.635   2.748  0.2345 -0.7204  1.2464
  207MOL0     O27227   6.213   9.621   2.711  0.2216  0.1769  0.0358
  207MOL0     C27228   6.162   9.489   2.737  0.6554  0.9016  1.0804
  207MOL0     C27229   6.148   9.478   2.886 -0.4202 -0.3627  0.6785
  207MOL0     C27230   6.034   9.389   2.935 -0.6896 -0.0666 -0.1677
  207MOL0     C27231   6.080   9.248   2.916  0.4578 -0.2559  0.1416
  207MOL0     C27232   5.975   9.143   2.967 -0.2840 -0.3203  0.2307
  207MOL0     C27233   6.020   8.990   2.958 -0.0755 -0.8490 -0.1379
  207MOL0     C27234   6.015   8.944   2.808 -0.1066 -0.0915 -0.5586
  207MOL0     C27235   6.085   8.805   2.805 -1.3364 -0.0913 -0.4009
  207MOL0    Cl27236   6.031   8.731   2.658 -0.4805 -0.0542 -0.0795
  207MOL0     C27237   6.376   9.750   2.820 -0.3820  0.2122 -0.1586
  207MOL0     C27238   6.507   9.788   2.855  0.9125  0.3512 -1.2657
  207MOL0     O27239   6.793   9.746   2.617  0.1143  0.5658  0.2542
  207MOL0     C27240   7.013   9.724   2.895  0.3658  1.0119 -0.1249
  207MOL0     C27241   7.150   9.710   2.932  1.3541  0.4132 -0.0661
  207MOL0     N27242   7.828   9.392   2.816 -0.3003 -0.7119 -0.3356
  207MOL0     N27243   7.909   9.357   2.719  0.0443 -0.0253 -0.1970
  207MOL0     C27244   8.331   8.672   3.024  1.1012 -0.2794 -0.7439
  207MOL0     C27245   8.312   8.543   3.062 -0.5217  0.8518 -0.2090
  207MOL0     C27246   8.197   8.249   3.417 -0.5113  0.2540  0.0668
  207MOL0     C27247   8.076   8.232   3.487  0.1598 -0.3635 -1.0463
  207MOL0     C27248   8.064   8.130   3.577  1.2568  0.0445 -0.6153
  207MOL0     C27249   8.155   8.031   3.596  0.2490 -0.4563 -0.0217
  207MOL0     O27250   8.125   7.933   3.682 -0.6543 -0.6801  1.0716
  207MOL0     C27251   8.241   7.864   3.730 -0.0160 -0.6367 -0.2687
  207MOL0     C27252   8.211   7.813   3.877 -0.5502  0.4831  0.1444
  207MOL0     C27253   8.332   7.781   3.957 -0.2709 -0.4573  0.7270
  207MOL0     C27254   8.424   7.898   4.005 -0.2310 -0.1106 -0.5118
  207MOL0     C27255   8.368   7.961   4.127 -0.2090  0.5639  0.0895
  207MOL0     C27256   8.313   8.033   4.211 -0.4168 -1.0411  0.2298
  207MOL0     C27257   8.277   8.045   3.517 -0.0281  0.2352 -0.6832
  207MOL0     C27258   8.297   8.152   3.438 -0.3635  0.4349  0.5412
  207MOL0     H27259   8.389   8.587   3.400 -1.3726 -1.6655 -0.4729
  207MOL0     H27260   8.420   8.826   3.307 -0.5535 -0.3144  1.9547
  207MOL0     H27261   8.506   8.825   2.877 -0.1658 -1.4251  0.7218
  207MOL0     H27262   8.617   8.840   3.016  0.5648 -1.0417 -1.3128
  207MOL0     H27263   8.656   8.988   2.838  1.5501  5.0400 -1.8778
  207MOL0     H27264   8.630   9.072   2.992 -0.4543  0.7817 -0.3820
  207MOL0     H27265   8.519   9.181   2.773  2.9892 -1.6365  0.6759
  207MOL0     H27266   8.412   9.143   2.910  1.1042  0.5811  0.3007
  207MOL0     H27267   8.450   8.948   2.679 -1.5335  0.0450 -0.8822
  207MOL0     H27268   8.313   8.958   2.796  0.2584 -0.8294 -0.3745
  207MOL0     H27269   8.226   9.019   2.595  1.7558 -1.9880 -1.9043
  207MOL0     H27270   8.364   9.118   2.548 -0.6232 -1.5587 -0.5731
  207MOL0     H27271   8.312   9.271   2.736  0.2627 -0.2502 -0.9702
  207MOL0     H27272   8.145   9.194   2.756 -0.8479  1.0827 -0.4010
  207MOL0     H27273   8.236   9.314   2.507  2.2322  1.6639  2.6245
  207MOL0     H27274   8.072   9.252   2.538 -2.0304  3.2457 -2.1343
  207MOL0     H27275   8.109   9.504   2.541 -0.8034  0.1982  0.0390
  207MOL0     H27276   8.218   9.475   2.686  1.2742 -2.6069  0.1068
  207MOL0     H27277   8.043   9.642   2.824 -1.9021  1.1947 -0.2197
  207MOL0     H27278   7.869   9.700   2.971  0.6905  0.1016 -0.7625
  207MOL0     H27279   7.798   9.552   3.045  3.8750 -2.1292 -0.9497
  207MOL0     H27280   7.623   9.579   2.847  0.5002  2.4109 -2.4759
  207MOL0     H27281   7.686   9.743   2.825 -0.2960  2.3052  1.4969
  207MOL0     H27282   7.602   9.669   3.109  0.2265 -1.9163  0.0145
  207MOL0     H27283   7.609   9.828   3.039  0.3020 -0.0384  0.0777
  207MOL0     H27284   7.385   9.797   3.042  1.8497  0.3385  0.6800
  207MOL0     H27285   7.383   9.617   3.041 -0.5934  0.3013 -1.0527
  207MOL0     H27286   7.271   9.643   2.626  0.1143 -0.0547 -0.1873
  207MOL0     H27287   7.025   9.669   2.562  2.7408 -1.3185 -0.3743
  207MOL0     H27288   6.646   9.523   2.697 -1.0723 -0.7508  0.0714
  207MOL0     H27289   6.426   9.480   2.628  1.0847 -0.1695  0.0626
  207MOL0     H27290   6.223   9.410   2.692  0.6831  1.2570  0.4922
  207MOL0     H27291   6.060   9.490   2.698 -0.0931 -0.5499  2.8161
  207MOL0     H27292   6.116   9.577   2.921  0.7998 -0.1628  1.2858
  207MOL0     H27293   6.246   9.454   2.928  0.6666 -0.7818 -1.9080
  207MOL0     H27294   5.938   9.410   2.888 -1.2116  1.2166  1.4083
  207MOL0     H27295   6.028   9.415   3.041  1.5839 -0.1529  0.0312
  207MOL0     H27296   6.095   9.233   2.809 -0.4881  0.5690 -0.1244
  207MOL0     H27297   6.176   9.226   2.964  0.1595 -1.6107  0.1554
  207MOL0     H27298   5.879   9.155   2.918 -0.4418 -0.2509  0.5573
  207MOL0     H27299   5.955   9.168   3.071 -4.1976  0.4296 -0.5680
  207MOL0     H27300   5.943   8.925   3.001 -3.4795  1.6353 -1.9672
  207MOL0     H27301   6.121   8.977   2.997  1.6155  4.2059 -2.0260
  207MOL0     H27302   5.918   8.945   2.758 -0.4800 -2.2423  0.0319
  207MOL0     H27303   6.065   9.027   2.757 -1.5825  2.7172  2.2228
  207MOL0     H27304   6.058   8.750   2.896  1.8124 -0.3781  0.4891
  207MOL0     H27305   6.194   8.807   2.808 -1.2902  4.1649  0.7810
  207MOL0     H27306   6.295   9.819   2.841  1.0666  1.9725 -0.0343
  207MOL0     H27307   6.529   9.873   2.920  0.5198 -2.3027  2.6643
  207MOL0     H27308   6.938   9.745   2.970 -0.8051 -1.5800 -0.4569
  207MOL0     H27309   7.172   9.712   3.038 -0.2585 -1.4899  0.3460
  207MOL0     H27310   8.292   8.690   2.924 -1.6799  0.1336  0.3143
  207MOL0     H27311   8.283   8.457   3.002  1.9745 -0.4069  0.2538
  207MOL0     H27312   7.985   8.291   3.477 -1.1408 -1.7804  1.3799
  207MOL0     H27313   7.971   8.126   3.632  1.6256  0.0832  0.0256
  207MOL0     H27314   8.326   7.931   3.746 -0.6625  0.4893 -1.3884
  207MOL0     H27315   8.269   7.787   3.658 -0.3781 -1.1293  0.1131
  207MOL0     H27316   8.160   7.898   3.923 -0.9950  0.8156 -0.9077
  207MOL0     H27317   8.134   7.736   3.881  1.4454 -1.6383 -0.1861
  207MOL0     H27318   8.405   7.718   3.905 -0.8896 -0.8573  0.3345
  207MOL0     H27319   8.285   7.737   4.045 -2.1271  0.4140  0.2113
  207MOL0     H27320   8.518   7.859   4.045 -1.4278 -1.2921  1.2638
  207MOL0     H27321   8.441   7.971   3.925  0.7695  0.9928  0.6588
  207MOL0     H27322   8.265   8.095   4.284  1.7733 -0.4217  1.2178
  207MOL0     H27323   8.355   7.970   3.519  1.0126  1.3030 -0.4217
  207MOL0     H27324   8.395   8.166   3.392  0.3311  0.0612  1.8512
  208MOL0     O27325   4.441   7.586   1.911  0.0211 -0.0993 -0.9537
  208MOL0     C27326   4.411   7.690   1.969 -0.3333 -0.2796 -0.1305
  208MOL0     O27327   4.284   7.735   1.998  0.1540  0.3798  0.0390
  208MOL0     C27328   4.182   7.645   1.984  0.4604 -0.7819 -0.2470
  208MOL0     C27329   4.149   7.530   2.044  0.2776  1.1404  0.5097
  208MOL0     C27330   4.027   7.466   2.000  0.3507 -0.1868 -0.1637
  208MOL0     C27331   3.935   7.533   1.922 -0.1544  0.3973  0.5159
  208MOL0     O27332   3.801   7.504   1.908  0.2525 -0.9047  0.6510
  208MOL0     C27333   3.739   7.428   2.018  0.6458  0.3499  0.3126
  208MOL0     C27334   3.739   7.278   1.972 -1.3378  0.1213 -0.6036
  208MOL0     C27335   3.634   7.254   1.863  0.1261  0.2310  0.0378
  208MOL0     C27336   3.658   7.110   1.794  0.1357  0.0311  0.1004
  208MOL0     C27337   3.549   7.078   1.707 -0.6035 -1.5716 -0.8586
  208MOL0     C27338   3.562   6.941   1.640  0.3660  0.0366  1.1399
  208MOL0     C27339   3.423   6.915   1.578 -0.4819  0.6300  0.3410
  208MOL0     C27340   3.429   6.912   1.426 -1.3352 -0.5553  0.1636
  208MOL0     N27341   3.324   6.829   1.362 -0.4813  0.6286  1.0088
  208MOL0     C27342   3.311   6.695   1.382 -0.0079  0.4252 -0.7362
  208MOL0     C27343   3.190   6.658   1.338 -0.2788  0.9899  0.7548
  208MOL0     C27344   3.142   6.512   1.319 -0.7729 -0.2325 -0.7472
  208MOL0     C27345   3.144   6.439   1.456  0.7003 -0.2302 -0.3630
  208MOL0     C27346   3.047   6.512   1.557 -0.0164 -0.1533  0.7562
  208MOL0     C27347   3.016   6.431   1.677 -0.0593  0.0919 -0.2659
  208MOL0     O27348   2.960   6.305   1.651 -0.7692 -0.2289  0.8860
  208MOL0     C27349   2.826   6.282   1.630 -0.6723 -0.1747  1.2112
  208MOL0     C27350   2.732   6.388   1.618 -1.1723  0.5843 -0.2689
  208MOL0     C27351   2.593   6.364   1.600  0.5413 -0.1924  0.2499
  208MOL0     C27352   2.548   6.231   1.590 -0.8584 -0.6094 -0.0730
  208MOL0     C27353   2.399   6.208   1.581 -0.8755  0.1094  1.0677
  208MOL0     O27354   2.358   6.078   1.555 -0.3092  0.0336  0.4325
  208MOL0     C27355   2.225   6.067   1.524  0.2805  0.9456 -0.8366
  208MOL0     C27356   2.138   5.992   1.602  0.1530  0.5130  0.6687
  208MOL0     C27357   2.001   5.993   1.571  0.5948 -0.3836  0.6734
  208MOL0     C27358   1.950   6.057   1.459  0.8349 -0.2491 -0.9499
  208MOL0     O27359   1.815   6.083   1.443 -0.6851  0.8093  0.1005
  208MOL0     C27360   1.738   6.063   1.319 -0.5933 -0.6470  0.2940
  208MOL0     C27361   1.594   6.051   1.354  0.5521  0.1883 -0.8014
  208MOL0     C27362   1.505   6.009   1.239  0.5297 -0.0782 -0.1133
  208MOL0     C27363   1.366   5.966   1.291 -0.4041  0.0998  0.3229
  208MOL0     C27364   1.260   5.999   1.187  0.4812  0.6650  0.1943
  208MOL0     C27365   1.120   5.977   1.251  0.0345  0.1489  0.4604
  208MOL0     C27366   1.004   5.982   1.152  0.2442 -0.5936  0.8920
  208MOL0     C27367   0.874   5.946   1.211 -0.4776  0.5372  0.9977
  208MOL0    Cl27368   0.848   6.040   1.364  0.1495  0.4819  0.2099
  208MOL0     C27369   2.042   6.110   1.373  0.3408 -1.0450  0.5230
  208MOL0     C27370   2.175   6.116   1.401  0.4431  0.0125 -0.5595
  208MOL0     O27371   2.332   6.309   1.583  0.5671 -0.1201  0.3606
  208MOL0     C27372   2.637   6.124   1.595  0.3655 -0.0216  0.6089
  208MOL0     C27373   2.778   6.158   1.620  0.4526  0.6277 -0.6072
  208MOL0     N27374   3.130   6.773   1.307  0.3868  0.4392  0.2813
  208MOL0     N27375   3.204   6.875   1.316 -0.2324  0.1488  0.1700
  208MOL0     C27376   3.965   7.655   1.866  0.2877  0.1312 -0.8288
  208MOL0     C27377   4.089   7.711   1.888 -0.1348 -0.1083  0.2714
  208MOL0     C27378   4.531   7.756   2.037  0.2332  0.4694 -0.1115
  208MOL0     C27379   4.514   7.862   2.121  0.0444 -0.8476 -0.2697
  208MOL0     C27380   4.632   7.922   2.179 -0.0210  0.2955  0.0414
  208MOL0     C27381   4.761   7.874   2.150 -0.3465 -0.5920 -0.0799
  208MOL0     O27382   4.871   7.931   2.210  0.2410  0.2913 -0.2732
  208MOL0     C27383   4.908   7.865   2.335 -0.5226  0.2308  0.5713
  208MOL0     C27384   5.003   7.749   2.315  0.4585  0.8753  0.6116
  208MOL0     C27385   5.130   7.799   2.254  0.2218  0.1275 -0.1512
  208MOL0     C27386   5.219   7.679   2.238  0.5788  0.3658 -0.1434
  208MOL0     C27387   5.355   7.724   2.201 -0.5462 -0.6289 -0.0767
  208MOL0     C27388   5.476   7.724   2.181  0.3589 -0.8311 -0.1238
  208MOL0     C27389   4.774   7.774   2.065  0.4283  0.2258  0.4119
  208MOL0     C27390   4.663   7.721   1.999  0.4549 -0.6067  0.3378
  208MOL0     H27391   4.235   7.496   2.100 -0.2056  0.6647  0.9743
  208MOL0     H27392   4.001   7.363   2.021  0.4551 -0.1231  0.2847
  208MOL0     H27393   3.634   7.457   2.029  0.9151  1.5458 -0.1143
  208MOL0     H27394   3.791   7.445   2.113  0.5182 -1.1182  0.6728
  208MOL0     H27395   3.721   7.209   2.056 -0.6894  1.5220  0.7278
  208MOL0     H27396   3.838   7.254   1.934 -0.6977  0.7075  0.6497
  208MOL0     H27397   3.641   7.340   1.796 -1.1527 -1.4227 -2.3469
  208MOL0     H27398   3.538   7.240   1.914  0.0449 -0.0326 -0.1860
  208MOL0     H27399   3.755   7.105   1.742  1.2304 -0.4852  2.1002
  208MOL0     H27400   3.667   7.028   1.865 -0.8390 -0.8570 -0.7623
  208MOL0     H27401   3.543   7.158   1.633  0.5160  1.2521  1.8765
  208MOL0     H27402   3.457   7.086   1.767 -0.8496 -0.8218 -1.3284
  208MOL0     H27403   3.587   6.869   1.719 -0.3646 -0.2210  1.1409
  208MOL0     H27404   3.641   6.940   1.564 -0.2079 -0.5674  0.5290
  208MOL0     H27405   3.404   6.815   1.618  3.1418  0.5554  2.2901
  208MOL0     H27406   3.351   6.983   1.622 -1.8415 -0.0503 -0.7384
  208MOL0     H27407   3.527   6.885   1.387 -0.4620 -0.3120  2.0999
  208MOL0     H27408   3.414   7.018   1.406 -1.7980 -0.2632  1.9350
  208MOL0     H27409   3.394   6.632   1.410 -0.1066  1.4403  2.3141
  208MOL0     H27410   3.205   6.454   1.252  0.3391  0.3842 -0.2527
  208MOL0     H27411   3.043   6.511   1.271  0.6351 -2.7282 -4.0157
  208MOL0     H27412   3.247   6.429   1.492  0.9298 -0.8469 -1.1416
  208MOL0     H27413   3.106   6.339   1.431  0.0781 -0.0847 -0.0074
  208MOL0     H27414   3.088   6.608   1.590 -1.4327 -0.7088  4.6049
  208MOL0     H27415   2.957   6.535   1.500 -0.8300 -2.1245  1.1636
  208MOL0     H27416   2.958   6.491   1.748  0.5146  0.2731  0.0563
  208MOL0     H27417   3.117   6.425   1.718  0.5226 -2.3057 -1.8711
  208MOL0     H27418   2.767   6.491   1.622 -0.4133  0.2878  2.3687
  208MOL0     H27419   2.529   6.451   1.591  1.4306  0.5073  0.5356
  208MOL0     H27420   2.174   5.930   1.684 -1.4628 -3.6012 -1.4763
  208MOL0     H27421   1.942   5.940   1.645  1.5763 -0.1125  1.6770
  208MOL0     H27422   1.767   5.971   1.268 -2.7612 -0.9507 -0.5003
  208MOL0     H27423   1.756   6.147   1.251 -0.2184  0.0046  1.1742
  208MOL0     H27424   1.546   6.137   1.402  0.4716 -1.2406  1.8236
  208MOL0     H27425   1.594   5.963   1.419  1.2316 -1.9097 -3.4735
  208MOL0     H27426   1.562   5.934   1.183 -0.0358 -0.6744  0.0946
  208MOL0     H27427   1.484   6.102   1.186 -1.3693  0.2132  1.0499
  208MOL0     H27428   1.361   5.860   1.317 -0.2070 -0.0225 -0.1289
  208MOL0     H27429   1.352   6.012   1.389  0.8874  3.1295 -0.7926
  208MOL0     H27430   1.274   5.937   1.099 -0.1363 -0.0288  0.5733
  208MOL0     H27431   1.277   6.102   1.153  0.1002  1.2454  1.6451
  208MOL0     H27432   1.106   6.060   1.321  1.5429  1.1225 -0.3261
  208MOL0     H27433   1.116   5.879   1.299  0.0371 -1.2472 -2.2046
  208MOL0     H27434   0.995   6.085   1.115 -0.0823 -1.1753 -0.6969
  208MOL0     H27435   1.037   5.918   1.070  3.5326  1.6793  0.2074
  208MOL0     H27436   0.871   5.838   1.227 -2.3289 -0.0157 -2.3625
  208MOL0     H27437   0.807   5.968   1.128  1.9657 -0.7687 -1.4883
  208MOL0     H27438   2.013   6.164   1.283  0.2545  3.3938  2.9528
  208MOL0     H27439   2.234   6.179   1.336  0.5072  1.3381  0.7236
  208MOL0     H27440   2.600   6.024   1.579  1.4006 -0.0748 -1.7857
  208MOL0     H27441   2.850   6.078   1.603 -0.4295  0.2677 -3.1463
  208MOL0     H27442   3.902   7.711   1.798  3.1011  3.3197 -1.0946
  208MOL0     H27443   4.113   7.800   1.830 -1.3247  0.5746  0.7976
  208MOL0     H27444   4.416   7.901   2.142  0.8057  1.4956 -0.7738
  208MOL0     H27445   4.614   8.012   2.238  0.1562  1.3762 -1.5007
  208MOL0     H27446   4.815   7.845   2.388  0.0051 -0.0315  1.4247
  208MOL0     H27447   4.961   7.939   2.396  0.9287  0.8778 -1.3651
  208MOL0     H27448   5.028   7.694   2.407 -4.0056  0.5121  1.8696
  208MOL0     H27449   4.958   7.678   2.245  2.9817  0.3592 -0.6138
  208MOL0     H27450   5.178   7.871   2.321  0.5074 -0.6169  0.4580
  208MOL0     H27451   5.120   7.843   2.154  1.8726  2.4173  0.6054
  208MOL0     H27452   5.234   7.626   2.333  1.3363 -0.7958 -0.8887
  208MOL0     H27453   5.183   7.603   2.168  0.2147 -0.9187  1.3715
  208MOL0     H27454   5.579   7.729   2.154 -0.3391  1.0373 -2.9764
  208MOL0     H27455   4.871   7.731   2.046 -0.8934 -3.1031  0.5387
  208MOL0     H27456   4.676   7.635   1.933 -1.3564 -0.4631 -0.2634
  209MOL0     O27457   8.454   4.306   7.471  0.9666  0.2864  0.3270
  209MOL0     C27458   8.467   4.375   7.370  0.5806 -0.5317 -0.3469
  209MOL0     O27459   8.423   4.501   7.355 -0.1033 -0.7883 -0.3322
  209MOL0     C27460   8.315   4.551   7.433 -0.5674  0.8469 -0.7177
  209MOL0     C27461   8.308   4.687   7.444 -1.4832 -0.2313  0.6448
  209MOL0     C27462   8.214   4.746   7.528  0.3263 -0.5759 -0.1346
  209MOL0     C27463   8.123   4.667   7.601  0.5201 -0.1642  0.4739
  209MOL0     O27464   8.015   4.732   7.666  1.7384  0.0825  0.3255
  209MOL0     C27465   7.882   4.679   7.655  0.0223  0.1752 -0.0938
  209MOL0     C27466   7.795   4.763   7.749  0.5783 -0.0869 -0.2168
  209MOL0     C27467   7.651   4.730   7.745 -0.8711 -0.8126  0.8913
  209MOL0     C27468   7.560   4.847   7.768  0.9019  0.1943 -0.6149
  209MOL0     C27469   7.419   4.814   7.719 -0.3357 -0.3333  0.7971
  209MOL0     C27470   7.341   4.936   7.714  0.4099 -0.6354 -0.1179
  209MOL0     C27471   7.192   4.904   7.689 -0.0425  0.0122 -0.3775
  209MOL0     C27472   7.179   4.847   7.550  0.5103 -0.0883  0.6024
  209MOL0     N27473   7.040   4.843   7.501  0.4898 -0.1427  0.4943
  209MOL0     C27474   6.967   4.943   7.440  0.3167 -0.0494 -0.2657
  209MOL0     C27475   6.845   4.890   7.403  0.7559 -0.3154 -0.4119
  209MOL0     C27476   6.725   4.987   7.388 -0.6104 -0.0934  0.2585
  209MOL0     C27477   6.610   4.933   7.301  0.5529  0.5326  0.3112
  209MOL0     C27478   6.491   5.019   7.351 -0.2847 -0.3287  0.8226
  209MOL0     C27479   6.369   5.016   7.258 -0.6031 -0.3051 -0.2719
  209MOL0     O27480   6.283   5.120   7.295  0.3932  0.2044 -0.3891
  209MOL0     C27481   6.160   5.124   7.233 -0.2352 -0.6273  0.5161
  209MOL0     C27482   6.073   5.227   7.274 -1.3112 -0.1207  0.0025
  209MOL0     C27483   5.941   5.234   7.226 -0.0555 -0.5592  0.1875
  209MOL0     C27484   5.892   5.141   7.133 -0.7500  0.3982  0.0182
  209MOL0     C27485   5.751   5.138   7.094  0.5192  0.7367 -0.3550
  209MOL0     O27486   5.712   5.055   7.001 -0.4933 -0.2839  0.6506
  209MOL0     C27487   5.580   5.056   6.966  0.6556 -0.0924  0.1768
  209MOL0     C27488   5.510   5.174   6.922 -0.5198  0.1430 -0.0370
  209MOL0     C27489   5.366   5.186   6.930 -0.2565 -0.4087 -0.1775
  209MOL0     C27490   5.286   5.067   6.950  1.1706 -0.7172 -0.3680
  209MOL0     O27491   5.156   5.084   6.959  0.8180  0.6931 -0.2655
  209MOL0     C27492   5.093   5.164   6.853 -0.5456  1.1602  0.4987
  209MOL0     C27493   4.939   5.183   6.881  1.0003  0.1394  0.7085
  209MOL0     C27494   4.862   5.045   6.857  0.0040  0.7289 -0.0499
  209MOL0     C27495   4.707   5.063   6.850 -0.2497 -0.4884 -0.3037
  209MOL0     C27496   4.665   5.091   6.991  0.3546 -0.2546 -0.3397
  209MOL0     C27497   4.511   5.101   7.006 -0.7210 -0.2567  0.2797
  209MOL0     C27498   4.479   5.164   7.139 -0.6004  0.1093 -0.3229
  209MOL0     C27499   4.372   5.078   7.210 -1.0579 -0.3301  0.4250
  209MOL0    Cl27500   4.222   5.068   7.112 -0.2935  0.0981  0.1379
  209MOL0     C27501   5.356   4.952   6.980  0.1495 -0.1764  0.1506
  209MOL0     C27502   5.496   4.951   6.993  0.7044  0.1698  0.4834
  209MOL0     O27503   5.686   5.231   7.142 -0.4630  0.3064  0.1506
  209MOL0     C27504   5.982   5.042   7.084  0.0567 -0.0100  0.2254
  209MOL0     C27505   6.120   5.043   7.134  0.3900  0.5792  0.4340
  209MOL0     N27506   6.846   4.756   7.438  0.4477 -0.0480 -0.0532
  209MOL0     N27507   6.967   4.730   7.486  0.1694 -0.8128 -0.8226
  209MOL0     C27508   8.135   4.532   7.601 -0.4522  0.9017  0.5091
  209MOL0     C27509   8.236   4.470   7.517  0.0596 -0.4798 -1.1399
  209MOL0     C27510   8.566   4.332   7.276  0.0708  0.3411 -0.1495
  209MOL0     C27511   8.646   4.423   7.205 -0.2110  0.1603  0.5663
  209MOL0     C27512   8.763   4.377   7.140 -0.0382  0.2335  0.5161
  209MOL0     C27513   8.787   4.241   7.125 -0.0676  0.2434  0.1092
  209MOL0     O27514   8.867   4.184   7.032  0.1146 -0.3745  0.0864
  209MOL0     C27515   8.968   4.280   6.978  0.2270 -0.1553  0.2602
  209MOL0     C27516   8.909   4.345   6.845  0.0188 -0.0517  0.1439
  209MOL0     C27517   8.890   4.235   6.739  0.2443  0.5237 -0.8443
  209MOL0     C27518   8.856   4.279   6.600  0.1996 -0.2517 -0.1754
  209MOL0     C27519   8.886   4.176   6.494  0.0474 -0.7381 -1.1260
  209MOL0     C27520   8.896   4.066   6.433  0.0774 -0.1995  0.3304
  209MOL0     C27521   8.700   4.150   7.188  0.4966 -0.7159 -0.2642
  209MOL0     C27522   8.600   4.196   7.278 -0.1572 -0.2648  0.0119
  209MOL0     H27523   8.375   4.735   7.373 -1.8576  1.2636  1.2645
  209MOL0     H27524   8.214   4.855   7.528  1.9811 -0.4089 -4.1286
  209MOL0     H27525   7.873   4.572   7.674  0.4325 -0.1750 -1.7057
  209MOL0     H27526   7.850   4.697   7.552 -1.1887  1.8512  0.5364
  209MOL0     H27527   7.809   4.870   7.731  0.3880 -0.1187 -0.5588
  209MOL0     H27528   7.832   4.744   7.851 -0.3355 -0.3906  0.0613
  209MOL0     H27529   7.643   4.644   7.812  1.5738 -0.5919  1.5843
  209MOL0     H27530   7.635   4.688   7.646 -0.1223  1.7170 -0.3925
  209MOL0     H27531   7.553   4.872   7.874  0.7094 -0.4532 -0.4723
  209MOL0     H27532   7.591   4.929   7.702  0.7172 -0.9102 -2.1310
  209MOL0     H27533   7.375   4.738   7.785 -1.6337 -0.5888 -0.3192
  209MOL0     H27534   7.422   4.771   7.618  3.2676 -4.7810  2.4309
  209MOL0     H27535   7.379   5.015   7.648 -1.1766  0.1668 -0.1455
  209MOL0     H27536   7.344   4.982   7.814  0.9128  2.8244 -1.5720
  209MOL0     H27537   7.168   4.827   7.763 -3.3367  0.3373 -0.9522
  209MOL0     H27538   7.124   4.989   7.681 -2.7101 -1.8100  1.4771
  209MOL0     H27539   7.215   4.744   7.555 -0.1032 -0.3895 -0.6560
  209MOL0     H27540   7.234   4.897   7.469  1.4835 -3.2206 -0.8273
  209MOL0     H27541   6.989   5.050   7.440  3.7119 -0.5871 -2.5201
  209MOL0     H27542   6.771   5.076   7.345  3.1664 -1.9209  0.1570
  209MOL0     H27543   6.687   5.015   7.487 -0.2295  1.0649  0.0910
  209MOL0     H27544   6.596   4.826   7.320 -1.7162  1.0635  2.0350
  209MOL0     H27545   6.628   4.935   7.193  0.4479 -0.6197  0.2641
  209MOL0     H27546   6.473   4.975   7.449  0.5116 -1.7444  0.3593
  209MOL0     H27547   6.514   5.125   7.362 -3.4034  0.5764 -0.3224
  209MOL0     H27548   6.324   4.917   7.271  2.4634 -1.7771  0.0827
  209MOL0     H27549   6.396   5.026   7.153 -0.9328 -0.3545 -0.3619
  209MOL0     H27550   6.111   5.289   7.354 -1.6298 -0.5039  0.4520
  209MOL0     H27551   5.878   5.315   7.264 -1.1623 -0.7160 -1.2339
  209MOL0     H27552   5.555   5.269   6.898 -2.0477  0.7261 -0.7341
  209MOL0     H27553   5.325   5.285   6.911  1.1010  0.1963 -0.0364
  209MOL0     H27554   5.096   5.114   6.756 -0.4815  1.4875  0.3273
  209MOL0     H27555   5.143   5.257   6.823 -0.9668  1.4668  0.7200
  209MOL0     H27556   4.906   5.254   6.805  1.0154 -0.7603 -0.1699
  209MOL0     H27557   4.923   5.234   6.976 -1.5197  2.6059 -0.9029
  209MOL0     H27558   4.873   4.983   6.946 -1.2898 -1.5454 -1.4024
  209MOL0     H27559   4.899   4.991   6.770 -3.2866 -0.5725 -0.7540
  209MOL0     H27560   4.681   5.135   6.772  1.9041 -0.8734 -1.4512
  209MOL0     H27561   4.666   4.967   6.816 -1.0509  0.5488 -2.4418
  209MOL0     H27562   4.711   5.184   7.025 -2.2816  0.5535  1.3129
  209MOL0     H27563   4.699   5.010   7.056  2.0931 -1.3287 -2.4627
  209MOL0     H27564   4.476   4.997   7.005  0.4747 -0.7030 -1.8750
  209MOL0     H27565   4.475   5.164   6.924 -0.6601  1.6505  1.6651
  209MOL0     H27566   4.568   5.179   7.200 -2.7499 -0.5042  3.2283
  209MOL0     H27567   4.445   5.267   7.127 -3.2128 -0.5691  0.5222
  209MOL0     H27568   4.355   5.127   7.306  3.4032  1.4958  0.5200
  209MOL0     H27569   4.411   4.976   7.214 -1.5849 -0.6447 -1.2973
  209MOL0     H27570   5.299   4.861   6.996 -0.8178  0.3994  0.0603
  209MOL0     H27571   5.538   4.862   7.038 -0.9966 -0.8041  0.2421
  209MOL0     H27572   5.949   4.976   7.004 -1.8572  1.1303  0.0223
  209MOL0     H27573   6.178   4.960   7.095  0.6265  0.1818  1.6064
  209MOL0     H27574   8.062   4.464   7.643 -2.1313  3.3952  1.8501
  209MOL0     H27575   8.235   4.362   7.512 -0.1689 -0.4377 -2.5722
  209MOL0     H27576   8.620   4.528   7.213 -2.1011 -0.2963  0.8184
  209MOL0     H27577   8.834   4.444   7.091  1.3972 -1.2726  0.4487
  209MOL0     H27578   9.050   4.217   6.941  1.2844  1.2487  0.1182
  209MOL0     H27579   9.017   4.346   7.050 -1.3656  1.1859  0.1743
  209MOL0     H27580   8.815   4.392   6.875  0.5376  0.6113  0.7566
  209MOL0     H27581   8.976   4.419   6.801 -2.2347  1.8218 -0.3513
  209MOL0     H27582   8.824   4.158   6.781  1.1399 -1.6869 -3.2085
  209MOL0     H27583   8.986   4.183   6.726  0.6844  0.8314  0.9344
  209MOL0     H27584   8.748   4.292   6.596 -0.1879 -2.5329  0.9547
  209MOL0     H27585   8.912   4.370   6.578 -0.9042  0.1420 -1.4940
  209MOL0     H27586   8.903   3.973   6.380  1.6862 -0.3660  0.7808
  209MOL0     H27587   8.724   4.045   7.175 -0.1888 -0.6829 -2.0526
  209MOL0     H27588   8.545   4.135   7.349 -1.8400 -0.4546 -1.3997
  210MOL0     O27589   6.026   8.845   3.850  0.2697  0.1978  0.0553
  210MOL0     C27590   6.035   8.958   3.819 -0.8223 -0.0559  0.0417
  210MOL0     O27591   5.935   9.039   3.771  0.3610 -0.4350 -0.0620
  210MOL0     C27592   5.811   8.982   3.740  0.6406 -0.3086 -0.4190
  210MOL0     C27593   5.794   8.861   3.673 -0.0699 -0.5796  0.1280
  210MOL0     C27594   5.669   8.806   3.639  0.2629  0.9359  0.5219
  210MOL0     C27595   5.558   8.865   3.685  0.1841 -0.0431 -0.8794
  210MOL0     O27596   5.433   8.807   3.644 -0.3243 -0.5660  0.0730
  210MOL0     C27597   5.315   8.844   3.715  0.4855  0.1746 -0.1590
  210MOL0     C27598   5.192   8.765   3.669 -0.0555 -0.6542  0.3808
  210MOL0     C27599   5.104   8.819   3.549 -0.5552  0.1065 -0.8100
  210MOL0     C27600   5.187   8.886   3.434 -1.0742  0.3412 -0.3381
  210MOL0     C27601   5.098   8.923   3.318 -0.0852  0.1824 -0.3900
  210MOL0     C27602   5.172   8.977   3.199 -0.1753 -0.5280 -0.1548
  210MOL0     C27603   5.079   9.057   3.109  0.0397 -0.8059  0.3427
  210MOL0     C27604   5.068   9.203   3.152 -0.0076 -0.7882  0.3851
  210MOL0     N27605   4.970   9.279   3.077  0.1410  0.1107  0.6370
  210MOL0     C27606   4.836   9.262   3.072  0.8031  0.4540  0.7549
  210MOL0     C27607   4.797   9.349   2.981 -0.1709  0.2007  0.6514
  210MOL0     C27608   4.648   9.357   2.936 -0.1576 -0.6031 -0.3247
  210MOL0     C27609   4.588   9.225   2.893  0.2661 -0.6221 -0.8886
  210MOL0     C27610   4.433   9.266   2.879 -0.9619 -0.3952  0.1351
  210MOL0     C27611   4.348   9.170   2.785 -0.3641 -0.0020 -0.6761
  210MOL0     O27612   4.348   9.223   2.655  0.7228  0.0252  0.0707
  210MOL0     C27613   4.248   9.168   2.574 -0.2755 -0.4974  0.6154
  210MOL0     C27614   4.187   9.043   2.572  0.0104 -0.1862  0.3338
  210MOL0     C27615   4.110   8.998   2.464 -0.0437 -0.0865  0.5763
  210MOL0     C27616   4.086   9.088   2.353  0.0106  0.6982 -0.0641
  210MOL0     C27617   3.978   9.060   2.250 -0.2407 -0.6071  0.3875
  210MOL0     O27618   3.934   9.166   2.171 -0.3893  0.3160 -0.1285
  210MOL0     C27619   3.823   9.144   2.091 -1.3515 -0.5939 -0.7703
  210MOL0     C27620   3.833   9.085   1.969 -0.2094 -0.8046 -0.5203
  210MOL0     C27621   3.722   9.069   1.882 -0.0716 -1.0154  0.7605
  210MOL0     C27622   3.597   9.101   1.928  0.6215 -0.1648  0.5194
  210MOL0     O27623   3.483   9.059   1.856  0.6994  0.2171 -0.1601
  210MOL0     C27624   3.449   8.928   1.889  0.0008  0.1088  1.1316
  210MOL0     C27625   3.344   8.865   1.791  0.0020 -0.2296  0.1551
  210MOL0     C27626   3.211   8.933   1.809  0.0558  0.0809 -0.0833
  210MOL0     C27627   3.123   8.939   1.690  0.3567 -0.6329  0.4755
  210MOL0     C27628   2.980   8.963   1.724  0.0226 -0.1871  0.3414
  210MOL0     C27629   2.884   8.974   1.606  0.0978  0.6089  0.5240
  210MOL0     C27630   2.891   8.853   1.508  0.9488 -0.2002  0.4340
  210MOL0     C27631   2.790   8.872   1.396  0.1308 -0.5145 -0.1616
  210MOL0    Cl27632   2.859   8.970   1.261 -0.1600  0.0755  0.0860
  210MOL0     C27633   3.588   9.174   2.053  0.6280 -0.5029 -0.1768
  210MOL0     C27634   3.706   9.201   2.125  0.0483 -1.3896  0.0809
  210MOL0     O27635   3.912   8.958   2.268 -0.3513  0.1825  0.3519
  210MOL0     C27636   4.138   9.220   2.357 -0.3212 -0.0715  0.5522
  210MOL0     C27637   4.218   9.254   2.465  0.2148  0.0778  0.1459
  210MOL0     N27638   4.904   9.422   2.943 -0.0514  0.7180 -0.2218
  210MOL0     N27639   5.007   9.384   3.003 -0.4134 -0.1861 -0.1128
  210MOL0     C27640   5.569   8.999   3.734 -0.0211  0.3403 -0.3768
  210MOL0     C27641   5.695   9.048   3.773  0.3753 -0.1945  0.9968
  210MOL0     C27642   6.160   9.023   3.858  0.1493  0.3146  0.1765
  210MOL0     C27643   6.271   8.948   3.902  0.1307 -0.0297  0.5126
  210MOL0     C27644   6.387   9.008   3.942  0.2941 -0.0654 -0.2740
  210MOL0     C27645   6.404   9.141   3.927 -0.6067 -0.5589  0.0311
  210MOL0     O27646   6.525   9.188   3.968 -0.1754 -0.8298  0.2894
  210MOL0     C27647   6.554   9.321   3.931 -0.6257 -0.3928  0.9624
  210MOL0     C27648   6.709   9.342   3.930 -0.0475  0.2068  0.7783
  210MOL0     C27649   6.751   9.471   3.865  0.1523  0.1285  0.4326
  210MOL0     C27650   6.715   9.591   3.943  0.4929 -0.6334  0.1016
  210MOL0     C27651   6.820   9.624   4.042 -0.5003 -0.4954  0.7380
  210MOL0     C27652   6.892   9.655   4.136  0.2784  0.3808  0.9291
  210MOL0     C27653   6.306   9.221   3.878 -0.1229  0.6068  0.9092
  210MOL0     C27654   6.183   9.164   3.843 -1.2922 -1.0227 -0.1865
  210MOL0     H27655   5.882   8.808   3.637  0.9031  1.9212 -1.4389
  210MOL0     H27656   5.658   8.719   3.574  1.3250  1.9815 -1.1311
  210MOL0     H27657   5.290   8.949   3.699  1.7938  0.6727  0.8818
  210MOL0     H27658   5.345   8.834   3.820 -0.2189 -1.6417 -0.0902
  210MOL0     H27659   5.122   8.746   3.752 -1.1169  2.0172  0.2026
  210MOL0     H27660   5.226   8.668   3.634  0.4492  0.4666 -2.4514
  210MOL0     H27661   5.043   8.898   3.594  1.0751  0.8539  0.1516
  210MOL0     H27662   5.041   8.738   3.512 -0.4362 -0.7105  0.7214
  210MOL0     H27663   5.243   8.976   3.463 -0.7921  0.0398  0.0603
  210MOL0     H27664   5.260   8.813   3.397 -2.2761 -0.3194 -1.4694
  210MOL0     H27665   5.026   9.000   3.348 -1.5923 -1.8373  1.4567
  210MOL0     H27666   5.046   8.833   3.285  1.4064 -1.6022  1.8715
  210MOL0     H27667   5.222   8.898   3.144 -0.8187 -0.5349 -0.7381
  210MOL0     H27668   5.255   9.039   3.234  0.5145 -0.8635 -1.1520
  210MOL0     H27669   5.115   9.043   3.007  3.3525  0.3294  1.2466
  210MOL0     H27670   4.981   9.008   3.109 -0.9280  1.0504  0.1690
  210MOL0     H27671   5.165   9.250   3.132 -1.7175  3.2191  0.4422
  210MOL0     H27672   5.042   9.215   3.257 -4.1238  3.0362 -0.7377
  210MOL0     H27673   4.766   9.192   3.118 -1.0171  0.5890 -1.6270
  210MOL0     H27674   4.634   9.432   2.858  1.1185  0.0947  0.0750
  210MOL0     H27675   4.605   9.405   3.025  1.9656  0.4758  0.1941
  210MOL0     H27676   4.609   9.144   2.962 -0.8907 -0.8046 -0.7211
  210MOL0     H27677   4.637   9.194   2.800 -0.2227  1.2671 -1.8469
  210MOL0     H27678   4.390   9.273   2.979 -0.7701  0.5252  0.1591
  210MOL0     H27679   4.413   9.360   2.826  0.9972 -0.1660 -0.2810
  210MOL0     H27680   4.250   9.162   2.834  0.5291  2.4065  1.8062
  210MOL0     H27681   4.397   9.073   2.783  1.4433  0.8590 -0.5575
  210MOL0     H27682   4.196   8.975   2.656 -1.8309 -1.0303 -0.1107
  210MOL0     H27683   4.059   8.903   2.467  0.7511 -0.5990 -0.8441
  210MOL0     H27684   3.931   9.047   1.945  1.8631  3.2528  0.5700
  210MOL0     H27685   3.736   9.012   1.790  0.2295  1.4850 -0.8469
  210MOL0     H27686   3.407   8.927   1.990 -0.5296 -1.1216  0.9180
  210MOL0     H27687   3.541   8.869   1.887  1.5680  2.4318 -0.6253
  210MOL0     H27688   3.335   8.758   1.809  1.2980 -0.3351  0.2180
  210MOL0     H27689   3.378   8.871   1.687 -2.0220  1.7105 -0.4999
  210MOL0     H27690   3.236   9.037   1.831 -0.9963  0.2668  0.3044
  210MOL0     H27691   3.153   8.897   1.895  1.3795 -0.8871  0.4462
  210MOL0     H27692   3.154   9.018   1.621 -2.7025 -0.0438 -0.3824
  210MOL0     H27693   3.128   8.839   1.645 -0.1947 -0.7169  0.5885
  210MOL0     H27694   2.973   9.056   1.782  1.7069  1.2323 -1.5468
  210MOL0     H27695   2.947   8.886   1.794  0.4782 -0.9748 -0.2874
  210MOL0     H27696   2.901   9.060   1.541  0.6749 -1.7967 -2.7167
  210MOL0     H27697   2.788   8.987   1.657 -1.6039 -3.1627 -1.3026
  210MOL0     H27698   2.988   8.833   1.462  0.9985  4.8495 -2.3305
  210MOL0     H27699   2.855   8.766   1.565 -0.8252  0.5957  0.5982
  210MOL0     H27700   2.698   8.924   1.423 -0.3736 -0.0195 -2.6024
  210MOL0     H27701   2.768   8.771   1.360 -0.5178 -1.8277  3.4743
  210MOL0     H27702   3.489   9.199   2.090 -0.9569 -4.4496 -1.1828
  210MOL0     H27703   3.706   9.252   2.221  0.4844 -0.6468 -0.3035
  210MOL0     H27704   4.128   9.300   2.284  4.9967  1.9506  1.5188
  210MOL0     H27705   4.264   9.352   2.460 -0.2827  0.4891  2.3365
  210MOL0     H27706   5.480   9.056   3.758  0.2059  0.8784 -0.7886
  210MOL0     H27707   5.705   9.135   3.836 -1.9353 -0.0520  1.2450
  210MOL0     H27708   6.270   8.841   3.889  1.4264 -0.2457  1.9301
  210MOL0     H27709   6.464   8.941   3.978  0.0356  0.1390  0.6719
  210MOL0     H27710   6.495   9.402   3.975 -0.9188  0.1330 -0.3729
  210MOL0     H27711   6.519   9.329   3.828 -3.5575 -1.3122  1.7810
  210MOL0     H27712   6.745   9.333   4.033 -0.8653 -0.1340  1.0430
  210MOL0     H27713   6.756   9.257   3.880 -0.0795  1.8280 -2.2145
  210MOL0     H27714   6.717   9.475   3.761  1.6805 -0.4496 -0.1207
  210MOL0     H27715   6.860   9.465   3.854  0.3685  0.2161  2.2270
  210MOL0     H27716   6.717   9.681   3.880  0.4989 -0.6447  0.0851
  210MOL0     H27717   6.614   9.577   3.983  0.9115 -0.5502  1.2187
  210MOL0     H27718   6.947   9.682   4.224  0.9328 -1.6832  1.2153
  210MOL0     H27719   6.306   9.328   3.864  0.1732  0.3539 -1.5895
  210MOL0     H27720   6.105   9.221   3.792  0.5564  1.0878 -0.8014
  211MOL0     O27721   0.106  10.628   7.072 -0.1469  0.5527 -0.0124
  211MOL0     C27722   0.201  10.654   7.140  1.4161  0.0130 -0.5145
  211MOL0     O27723   0.213  10.627   7.276  1.3158  0.3137  0.4108
  211MOL0     C27724   0.115  10.545   7.323 -0.3868 -0.3198 -0.6436
  211MOL0     C27725  -0.001  10.602   7.387  0.8896 -0.3571 -0.3896
  211MOL0     C27726  -0.116  10.525   7.417 -0.3944  0.3979 -0.1976
  211MOL0     C27727  -0.106  10.387   7.405  1.0159 -0.0162  0.5933
  211MOL0     O27728  -0.203  10.297   7.450 -1.0144 -0.0418  0.4071
  211MOL0     C27729  -0.337  10.339   7.449 -0.0440  0.5300  0.0452
  211MOL0     C27730  -0.417  10.205   7.437  0.4227 -0.7394 -0.2329
  211MOL0     C27731  -0.424  10.143   7.299 -1.4313 -0.1653 -0.1912
  211MOL0     C27732  -0.510  10.018   7.303  0.2595 -0.8845 -0.2947
  211MOL0     C27733  -0.521   9.942   7.169 -0.1753 -0.3050 -0.3680
  211MOL0     C27734  -0.566  10.030   7.044  0.3484 -0.3556 -0.1979
  211MOL0     C27735  -0.690  10.113   7.070  0.0100  0.1389 -0.2718
  211MOL0     C27736  -0.700  10.248   6.991  0.6449 -0.0935 -0.4572
  211MOL0     N27737  -0.623  10.359   7.050 -0.3271  0.4802 -0.5114
  211MOL0     C27738  -0.552  10.442   6.968  0.1313 -0.5072 -0.4703
  211MOL0     C27739  -0.502  10.537   7.055 -0.8326 -0.6750 -0.6016
  211MOL0     C27740  -0.408  10.648   7.032 -0.4153  0.0173 -0.1608
  211MOL0     C27741  -0.286  10.611   6.955 -0.2228  0.2546  0.0673
  211MOL0     C27742  -0.193  10.514   7.027 -0.0933  0.0741  0.0798
  211MOL0     C27743  -0.089  10.451   6.940 -0.1261 -0.7815  0.1541
  211MOL0     O27744  -0.154  10.352   6.868  0.2235  0.4383  1.0027
  211MOL0     C27745  -0.150  10.223   6.902 -0.0671  1.5820 -0.9865
  211MOL0     C27746  -0.199  10.133   6.811  0.6541 -0.0068  0.8341
  211MOL0     C27747  -0.210   9.994   6.832  0.0078  0.1862  0.6017
  211MOL0     C27748  -0.171   9.942   6.951  0.1523 -0.7871  0.1641
  211MOL0     C27749  -0.186   9.798   6.983 -0.3308  0.6108  0.0541
  211MOL0     O27750  -0.274   9.730   6.906 -0.8403 -0.1535  0.1737
  211MOL0     C27751  -0.377   9.659   6.951  0.2438  0.1278 -0.6250
  211MOL0     C27752  -0.478   9.646   6.861 -1.0062  0.9064  0.4518
  211MOL0     C27753  -0.607   9.595   6.898 -0.8502 -0.0709  0.6956
  211MOL0     C27754  -0.630   9.537   7.018 -0.2119  0.4412  0.1254
  211MOL0     O27755  -0.746   9.471   7.057 -0.3199  0.8571  0.8357
  211MOL0     C27756  -0.854   9.561   7.063  0.1492 -0.8853  0.0275
  211MOL0     C27757  -0.938   9.531   7.182 -0.0792 -0.0213  0.8290
  211MOL0     C27758  -1.025   9.647   7.212 -0.7133  0.1132  0.9865
  211MOL0     C27759  -1.131   9.614   7.314  0.6378 -0.2461  0.3273
  211MOL0     C27760  -1.254   9.701   7.284  0.5114 -0.2872 -0.3289
  211MOL0     C27761  -1.228   9.851   7.294  0.2348  0.0502 -0.2455
  211MOL0     C27762  -1.145   9.883   7.420  0.0395 -0.2030 -0.1853
  211MOL0     C27763  -1.154  10.019   7.465 -0.9865 -0.4740  0.2684
  211MOL0    Cl27764  -1.010  10.055   7.565 -0.0680 -0.0657  0.5159
  211MOL0     C27765  -0.523   9.537   7.108 -0.3108  0.5140  0.4776
  211MOL0     C27766  -0.391   9.598   7.075  1.3832 -0.4351 -0.7766
  211MOL0     O27767  -0.128   9.757   7.077  0.4437  0.1588 -0.1012
  211MOL0     C27768  -0.118  10.028   7.048 -0.4641  0.2851  0.3813
  211MOL0     C27769  -0.111  10.167   7.026 -0.3801  0.1716 -1.1747
  211MOL0     N27770  -0.570  10.517   7.178 -0.3899  0.9045  0.2753
  211MOL0     N27771  -0.639  10.414   7.174  0.4763 -0.9274  0.0285
  211MOL0     C27772   0.005  10.332   7.344 -0.0930  0.6070 -1.1204
  211MOL0     C27773   0.119  10.408   7.310 -0.8622 -0.2290  0.2410
  211MOL0     C27774   0.308  10.719   7.074  0.3755  1.0378 -0.1045
  211MOL0     C27775   0.408  10.795   7.141  0.2508 -0.7841  1.4317
  211MOL0     C27776   0.501  10.866   7.062  0.0838 -0.1479  0.1096
  211MOL0     C27777   0.500  10.858   6.924 -0.3461  0.0787  0.7404
  211MOL0     O27778   0.577  10.937   6.848  0.0594 -0.4911  0.8540
  211MOL0     C27779   0.717  10.943   6.887 -1.0982 -0.3089  1.1259
  211MOL0     C27780   0.781  11.039   6.790  0.4981  0.3278  0.6491
  211MOL0     C27781   0.934  11.050   6.791  0.0611 -0.2761 -0.4682
  211MOL0     C27782   1.013  10.916   6.805  0.7700 -0.2237 -0.4139
  211MOL0     C27783   1.154  10.956   6.828  0.0055 -0.6444  1.0985
  211MOL0     C27784   1.271  10.995   6.832 -0.7883  1.1569 -0.7074
  211MOL0     C27785   0.399  10.790   6.864  0.7563 -0.5232  0.2797
  211MOL0     C27786   0.310  10.715   6.929 -0.2380 -0.4545 -0.3851
  211MOL0     H27787  -0.006  10.710   7.396  0.6332 -0.4762  1.0160
  211MOL0     H27788  -0.204  10.572   7.459 -1.6218 -0.7182 -1.4354
  211MOL0     H27789  -0.357  10.415   7.373  0.6607 -0.0251 -0.7182
  211MOL0     H27790  -0.358  10.393   7.541  1.9239  1.8531 -0.2244
  211MOL0     H27791  -0.518  10.224   7.473  0.3542  0.0926 -0.8502
  211MOL0     H27792  -0.375  10.136   7.511 -1.5241 -1.0153  0.6659
  211MOL0     H27793  -0.324  10.114   7.265 -1.0651  0.8420 -0.0219
  211MOL0     H27794  -0.457  10.223   7.233  2.2906  3.4672  1.8686
  211MOL0     H27795  -0.482   9.946   7.380 -0.1634 -2.3509 -1.4605
  211MOL0     H27796  -0.610  10.053   7.329  0.9228  0.1384  0.9634
  211MOL0     H27797  -0.593   9.861   7.182 -0.1547 -0.2279  0.2771
  211MOL0     H27798  -0.427   9.891   7.145  0.1021 -0.5796  1.1848
  211MOL0     H27799  -0.573   9.964   6.957 -2.0469  0.0530 -0.3827
  211MOL0     H27800  -0.485  10.102   7.029 -0.3515  0.8778  1.5867
  211MOL0     H27801  -0.769  10.052   7.025  1.1807  1.1217 -3.9522
  211MOL0     H27802  -0.721  10.128   7.174  0.6966 -1.4208  0.2010
  211MOL0     H27803  -0.801  10.288   6.988  0.3439 -0.7159  0.7478
  211MOL0     H27804  -0.668  10.227   6.889 -1.6821  2.7011 -1.8857
  211MOL0     H27805  -0.532  10.442   6.862  4.6110  4.7532 -0.0626
  211MOL0     H27806  -0.372  10.680   7.130  2.1854  1.7347 -1.5443
  211MOL0     H27807  -0.457  10.727   6.974 -1.5281 -1.5649 -1.4836
  211MOL0     H27808  -0.235  10.703   6.926  1.9785 -0.3580  1.7029
  211MOL0     H27809  -0.308  10.564   6.858 -1.2454 -2.9980  1.7084
  211MOL0     H27810  -0.150  10.574   7.108  1.1174 -0.2933 -0.2641
  211MOL0     H27811  -0.256  10.440   7.077 -2.3220  3.2875  2.3809
  211MOL0     H27812  -0.004  10.409   6.994  0.3256 -1.0142 -0.7195
  211MOL0     H27813  -0.050  10.529   6.873 -2.5269 -0.1082 -0.5876
  211MOL0     H27814  -0.240  10.170   6.718 -2.2117 -0.5420  1.7835
  211MOL0     H27815  -0.251   9.931   6.754 -0.5857 -1.1696  1.9623
  211MOL0     H27816  -0.457   9.687   6.762  0.0209  1.3414  0.8346
  211MOL0     H27817  -0.683   9.587   6.821  0.2203  0.8745 -0.5036
  211MOL0     H27818  -0.918   9.548   6.975 -1.1169  1.0356  0.5908
  211MOL0     H27819  -0.813   9.662   7.072  1.5361 -1.5327  1.4108
  211MOL0     H27820  -0.867   9.524   7.265  0.6357 -0.4007  0.1928
  211MOL0     H27821  -0.986   9.434   7.166 -1.1328  0.6812 -0.4473
  211MOL0     H27822  -1.068   9.692   7.122 -2.6914  0.6383  2.1199
  211MOL0     H27823  -0.958   9.725   7.249  1.5163 -0.2084 -1.9622
  211MOL0     H27824  -1.154   9.507   7.312 -1.2022  0.1301 -0.5633
  211MOL0     H27825  -1.090   9.632   7.414 -0.0263 -2.8309  1.1362
  211MOL0     H27826  -1.323   9.672   7.364  1.1772 -0.3615  0.2252
  211MOL0     H27827  -1.302   9.670   7.191  2.4974 -0.0993 -1.4623
  211MOL0     H27828  -1.326   9.898   7.305  1.2254  2.4705 -1.0810
  211MOL0     H27829  -1.188   9.877   7.196 -2.6390  2.8864 -0.8393
  211MOL0     H27830  -1.170   9.835   7.516  3.6924  3.2981  2.9083
  211MOL0     H27831  -1.043   9.853   7.395 -0.3205 -2.3844  0.7236
  211MOL0     H27832  -1.248  10.045   7.516 -0.3470  1.7633  0.4145
  211MOL0     H27833  -1.151  10.079   7.374 -1.8911 -0.6020  0.1429
  211MOL0     H27834  -0.550   9.486   7.199  0.7775 -0.5260  0.2394
  211MOL0     H27835  -0.315   9.579   7.151 -1.1308 -0.4607  1.9378
  211MOL0     H27836  -0.084   9.990   7.143 -2.3228  2.8995  2.2399
  211MOL0     H27837  -0.073  10.215   7.115 -0.8190 -2.0659  0.3215
  211MOL0     H27838  -0.001  10.225   7.325  0.6958  0.4792 -0.6969
  211MOL0     H27839   0.204  10.364   7.258 -1.5270 -0.1241 -0.9488
  211MOL0     H27840   0.411  10.807   7.249  4.9936  0.7031  1.3729
  211MOL0     H27841   0.572  10.928   7.116 -1.4277  1.3929  0.4360
  211MOL0     H27842   0.747  10.838   6.880  2.7210  0.6568  0.8468
  211MOL0     H27843   0.725  10.983   6.989  3.4951 -0.9055  1.1825
  211MOL0     H27844   0.740  11.015   6.692  2.7610  1.5895 -0.7055
  211MOL0     H27845   0.730  11.134   6.806 -0.3337 -0.3273  1.9910
  211MOL0     H27846   0.960  11.114   6.876  0.1887 -1.4973  0.4454
  211MOL0     H27847   0.968  11.093   6.696 -2.5537 -1.0006 -1.8200
  211MOL0     H27848   0.971  10.857   6.886  2.4266  1.0880  1.4855
  211MOL0     H27849   0.997  10.857   6.714  0.6061 -0.0344 -0.5098
  211MOL0     H27850   1.370  11.036   6.835  0.5085 -1.4387 -3.2241
  211MOL0     H27851   0.394  10.782   6.756 -3.8222 -1.2927  0.3474
  211MOL0     H27852   0.240  10.656   6.870  1.9978 -4.5832  0.6771
  212MOL0     O27853   2.433   8.595   3.049  0.3147  0.3703  0.2552
  212MOL0     C27854   2.487   8.635   2.949 -0.0240 -0.4808  0.4551
  212MOL0     O27855   2.427   8.624   2.829 -0.3685 -0.0922  0.7282
  212MOL0     C27856   2.304   8.577   2.811  0.9257  0.6047  0.2784
  212MOL0     C27857   2.287   8.495   2.701 -0.5539 -0.3545  0.3069
  212MOL0     C27858   2.166   8.439   2.667  0.3025  0.8917 -0.1755
  212MOL0     C27859   2.049   8.466   2.751 -0.0451  0.0486  0.5249
  212MOL0     O27860   1.938   8.394   2.714 -0.2705  0.0179  0.7375
  212MOL0     C27861   1.840   8.366   2.815  0.3019  0.6731 -0.3520
  212MOL0     C27862   1.735   8.270   2.744  0.3558  0.2332 -1.2596
  212MOL0     C27863   1.610   8.229   2.824 -0.5113 -0.0436  0.1797
  212MOL0     C27864   1.643   8.185   2.969  0.4039 -0.3528  0.2054
  212MOL0     C27865   1.522   8.163   3.056  0.2600 -0.5535 -0.5571
  212MOL0     C27866   1.432   8.280   3.075  1.0153  0.2796 -1.5846
  212MOL0     C27867   1.354   8.279   3.207  0.6397  0.9412 -1.0737
  212MOL0     C27868   1.307   8.421   3.251  0.6794 -0.6180  0.5191
  212MOL0     N27869   1.206   8.480   3.163  0.6342 -0.4197  0.2535
  212MOL0     C27870   1.124   8.580   3.214 -0.1178  0.0188  0.2388
  212MOL0     C27871   1.009   8.565   3.147 -0.8894 -0.0369 -0.0426
  212MOL0     C27872   0.885   8.649   3.173 -0.1773 -0.0887  0.3831
  212MOL0     C27873   0.759   8.561   3.137  1.0066  0.7781 -0.7449
  212MOL0     C27874   0.632   8.639   3.148 -0.6087 -0.9022 -0.0817
  212MOL0     C27875   0.520   8.539   3.111 -0.1339  0.8457 -0.2207
  212MOL0     O27876   0.484   8.446   3.220  0.4616  0.8324 -0.0031
  212MOL0     C27877   0.361   8.394   3.231  0.2006  0.0659 -0.1487
  212MOL0     C27878   0.336   8.346   3.360  0.4238  0.7096 -0.4228
  212MOL0     C27879   0.215   8.298   3.401 -0.0755 -0.2756 -0.1542
  212MOL0     C27880   0.107   8.299   3.314 -0.0287 -0.2973  0.2516
  212MOL0     C27881  -0.030   8.261   3.368 -0.0120 -0.3945  0.4741
  212MOL0     O27882  -0.036   8.256   3.505  0.2887 -0.5413 -0.2276
  212MOL0     C27883  -0.154   8.215   3.563 -0.0987  0.4580  0.8685
  212MOL0     C27884  -0.223   8.318   3.627  0.0872  1.4612 -0.2427
  212MOL0     C27885  -0.337   8.289   3.697  1.1158  0.7010 -0.7364
  212MOL0     C27886  -0.392   8.155   3.706  0.0935 -0.2343  0.0727
  212MOL0     O27887  -0.508   8.127   3.766  0.8812  0.4086  0.0386
  212MOL0     C27888  -0.605   8.225   3.796  0.0599  0.2693  0.0613
  212MOL0     C27889  -0.741   8.174   3.745 -0.8014  0.2063  0.4218
  212MOL0     C27890  -0.757   8.179   3.594 -0.9436 -0.7042 -0.3039
  212MOL0     C27891  -0.720   8.316   3.527 -0.7317 -0.7014  0.1348
  212MOL0     C27892  -0.827   8.422   3.572 -0.6222 -0.3728 -0.1763
  212MOL0     C27893  -0.794   8.547   3.482  0.0712 -0.0094 -0.6242
  212MOL0     C27894  -0.853   8.536   3.334 -0.6986 -0.6304 -0.6010
  212MOL0     C27895  -0.901   8.669   3.280 -0.5320  0.1200  0.5918
  212MOL0    Cl27896  -1.063   8.724   3.338  0.3386  0.2395 -0.1921
  212MOL0     C27897  -0.318   8.056   3.642 -0.0269 -0.3678  0.3336
  212MOL0     C27898  -0.205   8.085   3.568 -0.0410 -0.3875 -0.1301
  212MOL0     O27899  -0.125   8.246   3.284 -0.1439 -0.2037  0.7671
  212MOL0     C27900   0.118   8.351   3.184 -0.6996  0.4558 -0.6549
  212MOL0     C27901   0.248   8.392   3.145 -0.1046 -0.5389  0.4996
  212MOL0     N27902   1.011   8.459   3.061  0.1136  0.7113  0.1737
  212MOL0     N27903   1.139   8.415   3.064  0.7928  0.2012 -0.2667
  212MOL0     C27904   2.065   8.551   2.863  0.5776 -0.3113 -0.4952
  212MOL0     C27905   2.192   8.603   2.898  0.5722  0.0266  0.3761
  212MOL0     C27906   2.625   8.693   2.955 -0.5905 -0.8084 -0.2005
  212MOL0     C27907   2.694   8.748   2.846 -0.3088  0.3015  0.0832
  212MOL0     C27908   2.804   8.835   2.867  0.5099 -0.8128  1.0662
  212MOL0     C27909   2.851   8.863   2.998 -0.8101 -0.1918 -0.5618
  212MOL0     O27910   2.947   8.952   3.006 -0.3087 -0.1537  0.0356
  212MOL0     C27911   2.989   8.994   3.137 -0.2101  0.5433 -0.3449
  212MOL0     C27912   3.093   9.111   3.112  0.7285 -0.2568 -0.1078
  212MOL0     C27913   3.203   9.133   3.216  0.6541 -0.7692  0.2116
  212MOL0     C27914   3.242   9.283   3.237  0.6009  0.6817  0.2689
  212MOL0     C27915   3.372   9.283   3.305  0.6460  0.3780 -1.1100
  212MOL0     C27916   3.480   9.277   3.369 -0.0091 -0.8404  0.4455
  212MOL0     C27917   2.794   8.795   3.106  0.1888 -0.3233  0.0957
  212MOL0     C27918   2.679   8.715   3.088  0.1818 -0.7238  0.3957
  212MOL0     H27919   2.372   8.478   2.636 -1.0509 -1.0644 -0.1669
  212MOL0     H27920   2.139   8.380   2.580  1.7212 -0.3834  0.2130
  212MOL0     H27921   1.797   8.463   2.841  1.4263  2.0937 -3.3161
  212MOL0     H27922   1.878   8.304   2.896 -0.7113 -2.3751 -2.0058
  212MOL0     H27923   1.779   8.175   2.714  2.4087  0.9744 -0.8332
  212MOL0     H27924   1.699   8.322   2.655  0.5850 -0.7841 -1.9541
  212MOL0     H27925   1.566   8.147   2.766  1.5046 -0.5654 -0.7041
  212MOL0     H27926   1.532   8.304   2.813  0.1669  0.5419 -0.7814
  212MOL0     H27927   1.702   8.092   2.977 -1.0227 -1.5609 -2.2648
  212MOL0     H27928   1.695   8.262   3.027 -0.7251 -0.2959  1.1839
  212MOL0     H27929   1.571   8.141   3.151  0.1954  2.3124  0.2447
  212MOL0     H27930   1.464   8.076   3.025  1.2876 -1.5835  0.3182
  212MOL0     H27931   1.366   8.298   2.990  0.3701  1.3426 -0.8853
  212MOL0     H27932   1.495   8.369   3.079  1.6963 -0.1248  3.3025
  212MOL0     H27933   1.277   8.202   3.198 -0.8127  2.2684 -0.2764
  212MOL0     H27934   1.427   8.247   3.282 -0.2063  1.8467  0.1821
  212MOL0     H27935   1.387   8.494   3.270 -1.1702  0.7673  3.6792
  212MOL0     H27936   1.256   8.409   3.347 -0.8034  0.8402 -0.0457
  212MOL0     H27937   1.143   8.656   3.289 -1.1962 -0.8145  1.4137
  212MOL0     H27938   0.882   8.740   3.113 -2.3094 -1.2040 -1.3826
  212MOL0     H27939   0.888   8.673   3.279  0.0098 -2.1549  0.8892
  212MOL0     H27940   0.753   8.466   3.193  1.5417  0.5666 -1.0406
  212MOL0     H27941   0.771   8.538   3.031  2.1895  0.6246 -0.5987
  212MOL0     H27942   0.616   8.689   3.244  1.7074  1.0142 -0.6089
  212MOL0     H27943   0.627   8.712   3.067 -0.0177 -1.5479 -0.7167
  212MOL0     H27944   0.552   8.488   3.020  1.0972  0.5970  0.3443
  212MOL0     H27945   0.429   8.595   3.086  0.0955  0.4514 -2.0474
  212MOL0     H27946   0.423   8.356   3.424  1.5519  0.6034 -1.8833
  212MOL0     H27947   0.215   8.260   3.502 -0.9543  0.1575  0.0101
  212MOL0     H27948  -0.174   8.415   3.628 -1.0392  2.0466  0.2319
  212MOL0     H27949  -0.378   8.372   3.753 -1.1295 -2.4413  2.7772
  212MOL0     H27950  -0.577   8.321   3.752 -1.2522  0.5031 -0.3167
  212MOL0     H27951  -0.627   8.233   3.903 -0.2928  1.2138 -0.0798
  212MOL0     H27952  -0.823   8.238   3.780 -0.8065  0.6493 -0.3661
  212MOL0     H27953  -0.748   8.069   3.776  0.7363 -0.1085 -0.2425
  212MOL0     H27954  -0.859   8.140   3.585 -1.3112  0.2433 -0.3208
  212MOL0     H27955  -0.698   8.099   3.547 -0.0032  0.6479 -1.5114
  212MOL0     H27956  -0.613   8.338   3.540 -1.2137  1.3648  1.1129
  212MOL0     H27957  -0.739   8.293   3.422  0.3147 -1.1451  0.0336
  212MOL0     H27958  -0.826   8.451   3.677 -0.2421 -0.7939 -0.0572
  212MOL0     H27959  -0.922   8.372   3.555 -0.6345 -0.8554  1.1689
  212MOL0     H27960  -0.686   8.555   3.470  0.2737 -1.6043 -0.0052
  212MOL0     H27961  -0.830   8.636   3.535 -1.8802 -1.9802  1.5852
  212MOL0     H27962  -0.769   8.497   3.274 -0.3535 -3.2346  1.4100
  212MOL0     H27963  -0.932   8.461   3.334  0.1923 -1.6077 -0.6563
  212MOL0     H27964  -0.910   8.654   3.172  1.1114  2.5755  0.0413
  212MOL0     H27965  -0.820   8.742   3.291 -1.3538  0.9624  1.2356
  212MOL0     H27966  -0.348   7.954   3.663 -0.1695 -0.4601 -0.3077
  212MOL0     H27967  -0.153   7.999   3.527  2.4975  0.8153  0.3937
  212MOL0     H27968   0.036   8.364   3.115 -0.2641  2.1280 -0.8884
  212MOL0     H27969   0.268   8.437   3.049  0.9365 -0.3375  0.7992
  212MOL0     H27970   1.977   8.572   2.922  1.4020  0.0035  0.6405
  212MOL0     H27971   2.191   8.651   2.995  2.1298  2.3377 -0.6598
  212MOL0     H27972   2.660   8.732   2.745 -0.1206 -2.4141  0.3895
  212MOL0     H27973   2.858   8.889   2.790  3.6483 -0.7613  3.1094
  212MOL0     H27974   3.033   8.912   3.194 -0.6004  0.2596 -0.4509
  212MOL0     H27975   2.899   9.031   3.186 -1.7590 -0.1524 -2.5284
  212MOL0     H27976   3.146   9.095   3.017  1.2260  0.1501  0.0957
  212MOL0     H27977   3.042   9.208   3.103  1.3987  0.3109  1.8107
  212MOL0     H27978   3.287   9.074   3.180 -0.8349 -1.3578 -2.6153
  212MOL0     H27979   3.176   9.086   3.311 -6.0869 -1.8433 -1.7076
  212MOL0     H27980   3.235   9.335   3.141 -1.2336 -1.6416 -0.9662
  212MOL0     H27981   3.166   9.332   3.297 -0.8784  0.9636 -1.7211
  212MOL0     H27982   3.568   9.273   3.429 -0.2641 -1.3448  0.7906
  212MOL0     H27983   2.822   8.830   3.205  1.2845  0.7975 -0.5854
  212MOL0     H27984   2.627   8.679   3.176 -2.0607 -0.5804 -0.8024
  213MOL0     O27985   7.884   0.513   7.184  0.2569 -0.3018 -0.0540
  213MOL0     C27986   7.962   0.426   7.184 -0.4577 -0.4363  0.4306
  213MOL0     O27987   7.937   0.293   7.184  0.1022 -0.6388 -0.4178
  213MOL0     C27988   7.813   0.240   7.150 -0.3748  0.3217 -0.5534
  213MOL0     C27989   7.712   0.303   7.084  0.6075  0.9196  0.3620
  213MOL0     C27990   7.589   0.238   7.072 -0.1673  0.1867 -0.1053
  213MOL0     C27991   7.576   0.108   7.123  0.7467 -0.4566  0.3411
  213MOL0     O27992   7.458   0.044   7.117 -0.0340 -0.4350 -0.1631
  213MOL0     C27993   7.333   0.118   7.129 -0.5007  0.2369 -0.1934
  213MOL0     C27994   7.220   0.019   7.122 -0.1710  0.3612 -0.4341
  213MOL0     C27995   7.082   0.093   7.141 -0.1460  0.5221 -0.3057
  213MOL0     C27996   6.973  -0.015   7.145  0.6545  0.3131  0.1219
  213MOL0     C27997   6.829   0.024   7.173  0.2127  0.1988  0.0988
  213MOL0     C27998   6.747  -0.108   7.180 -0.5858  0.3126  0.3095
  213MOL0     C27999   6.602  -0.064   7.220  0.1015  0.2684 -0.0375
  213MOL0     C28000   6.489  -0.158   7.175 -0.1090 -0.1325  0.2275
  213MOL0     N28001   6.488  -0.284   7.251  0.5597  0.1699  0.5826
  213MOL0     C28002   6.493  -0.293   7.387  0.9329 -0.3259 -0.1044
  213MOL0     C28003   6.535  -0.411   7.434  0.7594 -1.0901  0.1379
  213MOL0     C28004   6.545  -0.463   7.572 -0.1294  0.1113 -0.8859
  213MOL0     C28005   6.422  -0.554   7.614  0.1204  0.6054 -0.1597
  213MOL0     C28006   6.435  -0.577   7.763  0.2620  0.2526  0.0180
  213MOL0     C28007   6.316  -0.634   7.821 -0.0967 -0.6127  0.8341
  213MOL0     O28008   6.201  -0.548   7.820  0.0796  0.4849 -0.2087
  213MOL0     C28009   6.075  -0.608   7.794  0.1931  0.3820 -0.0255
  213MOL0     C28010   6.034  -0.616   7.668  0.4049 -0.7677  0.6560
  213MOL0     C28011   5.915  -0.686   7.630  0.3145 -1.1064 -0.5580
  213MOL0     C28012   5.836  -0.748   7.724  0.5087 -1.4591  0.3430
  213MOL0     C28013   5.714  -0.818   7.698  0.5965 -0.3552  0.0691
  213MOL0     O28014   5.667  -0.880   7.807  0.4286  0.1687 -0.1309
  213MOL0     C28015   5.542  -0.925   7.805  0.5139 -0.2692  0.3213
  213MOL0     C28016   5.491  -1.024   7.722  0.0189  0.8023 -0.5845
  213MOL0     C28017   5.357  -1.069   7.721 -0.1544  0.2072  0.1856
  213MOL0     C28018   5.265  -1.011   7.808 -0.0922 -0.1205 -0.0443
  213MOL0     O28019   5.139  -1.030   7.819  0.2352  0.8398 -0.5033
  213MOL0     C28020   5.074  -1.126   7.732  0.0558  0.1158  0.2442
  213MOL0     C28021   4.922  -1.118   7.746  0.4614 -0.3871 -0.4461
  213MOL0     C28022   4.835  -1.184   7.637  0.5304  0.0755 -0.1620
  213MOL0     C28023   4.821  -1.337   7.636 -0.0783  0.3518  0.2879
  213MOL0     C28024   4.711  -1.394   7.539  0.1884 -0.4094  0.0437
  213MOL0     C28025   4.658  -1.534   7.578  0.0109  0.1593  0.0774
  213MOL0     C28026   4.524  -1.557   7.510  0.3166 -0.3790 -0.1353
  213MOL0     C28027   4.478  -1.711   7.526 -0.0740 -0.7130  0.2605
  213MOL0    Cl28028   4.329  -1.726   7.434 -0.3458  0.1283 -0.1493
  213MOL0     C28029   5.318  -0.907   7.889  1.1192 -0.3898 -0.3765
  213MOL0     C28030   5.453  -0.864   7.893  0.0369  0.6882 -0.2936
  213MOL0     O28031   5.657  -0.800   7.594  0.0394 -0.3673 -0.5433
  213MOL0     C28032   5.877  -0.736   7.860  0.1342 -0.5025  0.1829
  213MOL0     C28033   5.998  -0.668   7.892  0.4313  0.4205 -0.6289
  213MOL0     N28034   6.560  -0.479   7.322  0.2607 -0.1815  0.3682
  213MOL0     N28035   6.545  -0.407   7.212 -0.5566  0.0656  0.1359
  213MOL0     C28036   7.677   0.040   7.174 -0.0903 -0.1904 -1.1261
  213MOL0     C28037   7.799   0.108   7.197 -0.0225  0.6768  0.9658
  213MOL0     C28038   8.099   0.471   7.211 -0.3767 -0.1223  0.0284
  213MOL0     C28039   8.192   0.377   7.228 -0.3360 -0.3240 -0.1500
  213MOL0     C28040   8.311   0.414   7.275 -0.6961  0.8799 -0.5602
  213MOL0     C28041   8.350   0.549   7.291  0.4803 -0.9572  0.4263
  213MOL0     O28042   8.480   0.583   7.321 -0.3932 -0.7050 -1.6390
  213MOL0     C28043   8.500   0.716   7.379  0.1690  0.2531  0.0131
  213MOL0     C28044   8.628   0.701   7.465 -0.7380 -0.4453  0.2692
  213MOL0     C28045   8.610   0.609   7.585 -0.1477  0.4088 -0.8828
  213MOL0     C28046   8.728   0.627   7.682 -0.4429  0.4968  0.2533
  213MOL0     C28047   8.695   0.528   7.791  0.4360  0.0428  0.5246
  213MOL0     C28048   8.687   0.440   7.871  0.9738  0.5706  0.0264
  213MOL0     C28049   8.262   0.647   7.255 -0.4388  0.6783  0.3850
  213MOL0     C28050   8.132   0.603   7.223 -0.7832 -0.1827 -0.2354
  213MOL0     H28051   7.721   0.404   7.044  0.0210  1.4900  1.5666
  213MOL0     H28052   7.514   0.280   7.007  0.1915 -0.3637 -0.8852
  213MOL0     H28053   7.316   0.197   7.055  1.4119  3.4324  2.4899
  213MOL0     H28054   7.336   0.165   7.227  0.6088  1.9328 -0.9927
  213MOL0     H28055   7.225  -0.051   7.205 -0.8087  0.6961 -0.1089
  213MOL0     H28056   7.223  -0.020   7.020  0.2223 -0.6924 -0.0278
  213MOL0     H28057   7.067   0.158   7.054 -0.8291 -0.8322 -1.2414
  213MOL0     H28058   7.074   0.160   7.226 -5.3009 -0.2826  0.1755
  213MOL0     H28059   6.978  -0.070   7.051 -2.8496 -1.7327  0.9655
  213MOL0     H28060   6.995  -0.092   7.220  2.3531 -1.0570 -1.6947
  213MOL0     H28061   6.800   0.092   7.093 -1.2112 -3.3588 -2.6782
  213MOL0     H28062   6.823   0.087   7.262 -0.9899  0.3009 -0.0333
  213MOL0     H28063   6.791  -0.177   7.252  0.1513  0.6406  0.1843
  213MOL0     H28064   6.736  -0.154   7.082 -3.1109  1.7510 -0.1641
  213MOL0     H28065   6.612  -0.053   7.329  0.1927  2.1479 -0.1903
  213MOL0     H28066   6.579   0.036   7.181  0.3651  0.9458  1.4659
  213MOL0     H28067   6.502  -0.176   7.068 -3.3610 -1.7834  0.0049
  213MOL0     H28068   6.397  -0.102   7.194  0.5032  0.1823  2.6548
  213MOL0     H28069   6.463  -0.208   7.447  1.3887 -0.0391 -0.2767
  213MOL0     H28070   6.549  -0.372   7.633 -3.3042 -1.3812  1.8202
  213MOL0     H28071   6.635  -0.520   7.598 -0.7921 -0.5210  0.0565
  213MOL0     H28072   6.425  -0.650   7.563  2.0261  1.1285 -1.1302
  213MOL0     H28073   6.329  -0.501   7.591  0.7403  1.5936 -0.4587
  213MOL0     H28074   6.518  -0.649   7.772 -1.0223 -1.1873  0.7090
  213MOL0     H28075   6.459  -0.482   7.811 -0.0496  0.5025 -0.3190
  213MOL0     H28076   6.345  -0.640   7.926 -0.1924  1.0833  0.9844
  213MOL0     H28077   6.299  -0.734   7.779 -1.6625 -0.2262  0.4661
  213MOL0     H28078   6.089  -0.570   7.587 -1.6719 -1.1953 -1.1181
  213MOL0     H28079   5.894  -0.695   7.524 -0.6806  2.2797 -0.7734
  213MOL0     H28080   5.563  -1.088   7.670  1.8011 -0.5473  3.2039
  213MOL0     H28081   5.324  -1.152   7.659 -0.3679 -0.2395  0.8878
  213MOL0     H28082   5.110  -1.223   7.766 -1.4159 -0.8778 -0.8602
  213MOL0     H28083   5.105  -1.100   7.630 -2.7419  2.8523 -0.0516
  213MOL0     H28084   4.904  -1.010   7.751  1.5722 -0.2481  1.4329
  213MOL0     H28085   4.895  -1.165   7.841  2.1749  1.0117  0.8103
  213MOL0     H28086   4.866  -1.151   7.538 -1.1769  0.8610 -0.4709
  213MOL0     H28087   4.734  -1.143   7.653  1.1004  0.3784  3.4635
  213MOL0     H28088   4.912  -1.384   7.598 -0.1775  1.0331 -0.8640
  213MOL0     H28089   4.798  -1.375   7.736 -3.3602  0.5771 -0.2693
  213MOL0     H28090   4.760  -1.390   7.441  0.1631  0.4095  0.0619
  213MOL0     H28091   4.625  -1.328   7.551  1.7717  1.5044  1.4295
  213MOL0     H28092   4.656  -1.540   7.687 -0.9561  1.3404  0.1344
  213MOL0     H28093   4.728  -1.612   7.547  0.1442  0.3607 -0.1315
  213MOL0     H28094   4.453  -1.491   7.560 -0.2137  1.0950 -2.6439
  213MOL0     H28095   4.525  -1.530   7.404 -2.7643 -0.5053 -0.2999
  213MOL0     H28096   4.453  -1.723   7.632 -0.9403 -3.1401 -0.1349
  213MOL0     H28097   4.551  -1.788   7.498  1.0638 -0.6197  2.7149
  213MOL0     H28098   5.256  -0.844   7.953  1.8956  3.3612 -2.9549
  213MOL0     H28099   5.485  -0.775   7.947  0.9504  0.5609 -0.6039
  213MOL0     H28100   5.820  -0.779   7.941  1.3435 -1.9881  0.2816
  213MOL0     H28101   6.037  -0.657   7.993 -0.5277  0.6307 -0.2708
  213MOL0     H28102   7.661  -0.062   7.207 -2.0671  0.8796  1.5743
  213MOL0     H28103   7.891   0.062   7.230  0.1299 -1.4393 -2.0177
  213MOL0     H28104   8.179   0.271   7.209 -2.2920 -0.0296 -0.6746
  213MOL0     H28105   8.398   0.350   7.288  1.9002  4.2973  0.2359
  213MOL0     H28106   8.416   0.751   7.441 -2.0047 -1.6197 -1.6694
  213MOL0     H28107   8.514   0.790   7.301  1.3922  0.4973  0.4394
  213MOL0     H28108   8.708   0.658   7.403 -0.0859 -0.6842  1.2503
  213MOL0     H28109   8.660   0.800   7.498 -0.0796 -0.0489 -1.4392
  213MOL0     H28110   8.601   0.505   7.551  0.9513  0.3810 -1.1135
  213MOL0     H28111   8.514   0.627   7.634 -0.3524 -1.9552 -0.3074
  213MOL0     H28112   8.820   0.598   7.629  0.1830  2.1076  0.3917
  213MOL0     H28113   8.732   0.732   7.710  0.8848  0.5621 -0.0979
  213MOL0     H28114   8.683   0.364   7.946 -0.0217  0.9637  0.3937
  213MOL0     H28115   8.287   0.753   7.258  3.9900 -0.1723  0.1292
  213MOL0     H28116   8.062   0.686   7.225  1.8327  2.2518 -1.6600
  214MOL0     O28117   5.100   2.908   2.954  0.8038 -0.0293 -0.6156
  214MOL0     C28118   5.193   2.861   3.026  0.9130 -0.2345 -0.6770
  214MOL0     O28119   5.200   2.724   3.056 -0.6429 -0.4934 -0.1082
  214MOL0     C28120   5.090   2.649   3.009  0.3739 -0.4518  0.7262
  214MOL0     C28121   5.012   2.583   3.106  0.1808  0.3241  0.6579
  214MOL0     C28122   4.902   2.500   3.063  0.6966 -0.5209  0.2463
  214MOL0     C28123   4.872   2.480   2.924  0.8053 -0.3827 -0.3335
  214MOL0     O28124   4.764   2.391   2.904  0.1292  0.2961  0.6848
  214MOL0     C28125   4.744   2.370   2.763  0.2733  0.0784 -0.5208
  214MOL0     C28126   4.651   2.246   2.731  0.5470 -0.9637 -0.3351
  214MOL0     C28127   4.506   2.284   2.770  0.2151 -0.0767  0.9389
  214MOL0     C28128   4.414   2.163   2.727 -0.0570 -0.2150  0.6482
  214MOL0     C28129   4.260   2.199   2.744  0.7424 -0.2526 -0.4620
  214MOL0     C28130   4.215   2.279   2.870  0.6573  0.5941  0.6059
  214MOL0     C28131   4.063   2.281   2.899  0.0907 -0.7062 -0.3161
  214MOL0     C28132   3.991   2.350   2.786 -0.7016 -0.0294 -0.3545
  214MOL0     N28133   3.848   2.332   2.808  0.1404  0.1933  0.0863
  214MOL0     C28134   3.786   2.392   2.912 -0.6438  0.6171  0.4878
  214MOL0     C28135   3.665   2.340   2.908  0.1408  0.1968  0.7687
  214MOL0     C28136   3.552   2.375   3.004  0.1469  0.7246 -0.7886
  214MOL0     C28137   3.466   2.491   2.955 -0.7052  0.5446 -0.4072
  214MOL0     C28138   3.374   2.462   2.836 -0.1411  0.1585  0.9020
  214MOL0     C28139   3.226   2.468   2.884 -0.2360  1.2209 -0.6015
  214MOL0     O28140   3.202   2.371   2.988 -0.0902  0.9551  0.3399
  214MOL0     C28141   3.072   2.337   3.017  0.2453  0.3250 -0.2063
  214MOL0     C28142   2.947   2.390   2.970 -0.8403 -0.6200 -0.9344
  214MOL0     C28143   2.830   2.328   3.011 -0.5360 -1.1518  0.2455
  214MOL0     C28144   2.825   2.215   3.093  0.0173  0.5191 -0.0356
  214MOL0     C28145   2.701   2.153   3.127  0.2787 -0.5386 -0.2705
  214MOL0     O28146   2.591   2.235   3.107  0.1431  0.6923  1.6028
  214MOL0     C28147   2.468   2.175   3.114  0.5899  0.0401 -0.8694
  214MOL0     C28148   2.375   2.256   3.179  0.1349 -0.9639  0.3484
  214MOL0     C28149   2.244   2.227   3.169 -0.0345  0.8814 -0.5430
  214MOL0     C28150   2.204   2.101   3.113 -1.0186 -0.5234 -0.5084
  214MOL0     O28151   2.075   2.068   3.129  0.5232 -0.1420 -0.3992
  214MOL0     C28152   2.049   1.946   3.203  0.1153 -0.5631  0.3504
  214MOL0     C28153   2.102   1.956   3.350  0.5308  0.5445 -0.6742
  214MOL0     C28154   2.059   1.823   3.417  0.5220  0.1312  0.1896
  214MOL0     C28155   2.102   1.802   3.570  0.0827  0.6044 -0.1841
  214MOL0     C28156   2.076   1.911   3.674 -0.0804  0.2746 -0.7496
  214MOL0     C28157   1.935   1.962   3.680 -0.4901  0.6078 -0.5093
  214MOL0     C28158   1.911   2.051   3.798  0.2713 -0.7106 -0.1164
  214MOL0     C28159   1.766   2.091   3.811 -0.0947  0.0462  1.0958
  214MOL0    Cl28160   1.652   1.951   3.840 -0.3094  0.0870 -0.6323
  214MOL0     C28161   2.293   2.009   3.065 -0.8650  1.1391  0.7331
  214MOL0     C28162   2.422   2.044   3.058 -0.3909 -0.4061 -0.5475
  214MOL0     O28163   2.700   2.042   3.175 -0.4284 -0.0542 -0.2256
  214MOL0     C28164   2.949   2.168   3.134  0.3004 -0.6986  0.4240
  214MOL0     C28165   3.068   2.240   3.118  0.8087  0.5776  0.2427
  214MOL0     N28166   3.649   2.260   2.797  0.5685  0.9154 -0.6473
  214MOL0     N28167   3.757   2.259   2.735  0.2019  0.1382  0.3917
  214MOL0     C28168   4.953   2.556   2.829 -0.6286  1.0192  0.2398
  214MOL0     C28169   5.053   2.638   2.873 -0.5150  0.8198 -0.0032
  214MOL0     C28170   5.320   2.934   3.049  0.3840  0.2191 -0.4168
  214MOL0     C28171   5.362   3.033   2.956 -0.5303 -0.6010  0.1633
  214MOL0     C28172   5.488   3.088   2.978 -0.4570 -0.9017  0.2509
  214MOL0     C28173   5.567   3.063   3.087 -0.1452  0.5721  0.2524
  214MOL0     O28174   5.691   3.129   3.091  0.3062  0.0862 -0.3291
  214MOL0     C28175   5.742   3.167   3.219  1.4828  1.4928  0.4357
  214MOL0     C28176   5.891   3.187   3.190 -0.2405  0.6217 -0.0322
  214MOL0     C28177   5.959   3.057   3.141 -0.2084  0.0485  0.4986
  214MOL0     C28178   6.106   3.085   3.086  0.1253 -0.1883 -0.1741
  214MOL0     C28179   6.189   3.127   3.202 -0.9904  0.7462 -0.1588
  214MOL0     C28180   6.269   3.159   3.289  0.5959  0.0056  0.3025
  214MOL0     C28181   5.521   2.971   3.179  0.1633 -0.4467 -0.3471
  214MOL0     C28182   5.408   2.890   3.153 -0.7384  0.5723  0.0325
  214MOL0     H28183   5.022   2.594   3.214  0.2940 -0.5448  0.7440
  214MOL0     H28184   4.838   2.453   3.137  0.8825  0.5722  1.1201
  214MOL0     H28185   4.840   2.347   2.716  0.6730  3.1437 -1.4144
  214MOL0     H28186   4.700   2.459   2.718 -0.7654 -0.3322 -0.3469
  214MOL0     H28187   4.680   2.157   2.788 -0.2745 -0.0568  1.6231
  214MOL0     H28188   4.650   2.228   2.624  0.6098  1.7583 -0.8664
  214MOL0     H28189   4.471   2.371   2.714  1.5625 -0.0103  0.1419
  214MOL0     H28190   4.493   2.302   2.877 -0.3555 -0.0709  0.8698
  214MOL0     H28191   4.434   2.134   2.623 -2.3427  2.2239 -0.6082
  214MOL0     H28192   4.438   2.074   2.786 -3.9236 -3.1949 -1.7260
  214MOL0     H28193   4.205   2.105   2.734 -2.3443  1.1406  1.9153
  214MOL0     H28194   4.233   2.266   2.663  0.1231  2.4486  1.8321
  214MOL0     H28195   4.251   2.382   2.871  1.7177  0.2397 -0.0122
  214MOL0     H28196   4.260   2.222   2.953 -0.9410 -0.9719  0.4581
  214MOL0     H28197   4.015   2.185   2.918 -2.1946  0.7735  2.2769
  214MOL0     H28198   4.042   2.353   2.979  2.7823  1.7565 -1.6049
  214MOL0     H28199   4.011   2.302   2.690 -2.1706  0.7165 -1.0791
  214MOL0     H28200   4.012   2.457   2.776 -2.4780  0.2926 -1.1119
  214MOL0     H28201   3.820   2.458   2.991 -1.4313  1.6928 -0.0614
  214MOL0     H28202   3.593   2.414   3.098 -0.1930 -1.2777  0.2566
  214MOL0     H28203   3.494   2.285   3.025 -0.1366  1.1955  0.5770
  214MOL0     H28204   3.528   2.576   2.925  1.2641 -2.0659 -4.6113
  214MOL0     H28205   3.398   2.520   3.036 -4.5308  1.7027 -3.6921
  214MOL0     H28206   3.393   2.536   2.758 -1.4353 -0.5267 -0.1107
  214MOL0     H28207   3.383   2.365   2.787 -3.6464  0.7440 -1.2966
  214MOL0     H28208   3.167   2.449   2.795  1.2570  1.0313 -1.5883
  214MOL0     H28209   3.201   2.569   2.920 -3.1464  0.4671 -0.2843
  214MOL0     H28210   2.936   2.480   2.910  4.0990  1.8524  1.3070
  214MOL0     H28211   2.735   2.370   2.979 -0.2643 -1.2438 -0.7331
  214MOL0     H28212   2.413   2.350   3.218 -1.8423 -0.0913  0.2573
  214MOL0     H28213   2.167   2.284   3.219 -0.7229 -0.8205  0.4241
  214MOL0     H28214   2.089   1.853   3.162 -1.2103 -2.4655  3.0888
  214MOL0     H28215   1.941   1.931   3.200  0.2060 -1.1610 -0.7115
  214MOL0     H28216   2.069   2.040   3.411 -2.0179 -1.4425  0.8888
  214MOL0     H28217   2.212   1.955   3.357  0.4670 -0.9064  0.6572
  214MOL0     H28218   2.082   1.735   3.356  0.5945 -0.0533  0.4785
  214MOL0     H28219   1.949   1.823   3.417  0.4907 -1.9147 -0.0947
  214MOL0     H28220   2.057   1.712   3.614 -0.6489  1.8698  1.8165
  214MOL0     H28221   2.209   1.780   3.566 -0.2112 -1.0569  0.4808
  214MOL0     H28222   2.145   1.995   3.659  1.8184 -0.4816  2.6934
  214MOL0     H28223   2.110   1.859   3.763  0.2974  1.9455  0.1180
  214MOL0     H28224   1.869   1.876   3.691  0.3478  0.1478  1.2578
  214MOL0     H28225   1.923   2.003   3.580 -0.5536  1.2403 -0.2493
  214MOL0     H28226   1.944   1.991   3.883  2.6314 -1.7481 -1.6567
  214MOL0     H28227   1.964   2.147   3.791  0.1504 -0.7623 -3.5122
  214MOL0     H28228   1.729   2.134   3.718  0.2819  3.1120  2.2625
  214MOL0     H28229   1.750   2.152   3.900  3.4040 -0.1098  1.9639
  214MOL0     H28230   2.263   1.915   3.020 -0.5467  0.5814  1.6555
  214MOL0     H28231   2.494   1.982   3.006 -0.6271 -0.8735 -0.3299
  214MOL0     H28232   2.949   2.078   3.194 -2.1506 -0.9120  0.1944
  214MOL0     H28233   3.156   2.201   3.169  0.5514 -1.1990 -0.5739
  214MOL0     H28234   4.930   2.543   2.724 -0.9409 -2.3075  0.6066
  214MOL0     H28235   5.121   2.689   2.805 -0.9229  2.0666  0.4849
  214MOL0     H28236   5.310   3.067   2.867  0.6750 -2.9000 -1.5401
  214MOL0     H28237   5.531   3.164   2.914  0.2755 -0.8766  0.7615
  214MOL0     H28238   5.729   3.088   3.293 -0.4132  2.6540  1.4413
  214MOL0     H28239   5.701   3.264   3.249  2.1616  1.8947  0.0838
  214MOL0     H28240   5.897   3.272   3.122  1.5021  0.6252  0.0663
  214MOL0     H28241   5.942   3.214   3.283  0.6179  2.1380 -0.8976
  214MOL0     H28242   5.909   3.019   3.052  1.5226  0.7303 -0.8289
  214MOL0     H28243   5.962   2.982   3.220 -2.2064  2.3418  2.9154
  214MOL0     H28244   6.145   2.988   3.054  0.1248 -0.2950  0.1530
  214MOL0     H28245   6.098   3.150   2.998  2.9626 -0.6279 -0.8537
  214MOL0     H28246   6.350   3.193   3.350 -1.0333  0.6881  2.2213
  214MOL0     H28247   5.563   2.959   3.278 -1.4869 -0.2361  0.4093
  214MOL0     H28248   5.399   2.805   3.219  0.7560  1.3465  1.2968
  215MOL0     O28249   8.828   3.772   6.903  0.1959 -0.0574  0.2476
  215MOL0     C28250   8.829   3.654   6.933  0.2238  0.2768  0.4786
  215MOL0     O28251   8.725   3.593   6.995  0.1379 -0.1340 -0.0340
  215MOL0     C28252   8.651   3.664   7.078  0.2866 -0.1876  1.3033
  215MOL0     C28253   8.510   3.689   7.056 -0.2745  0.5323  0.0805
  215MOL0     C28254   8.439   3.782   7.138 -0.3593 -0.9638 -1.2880
  215MOL0     C28255   8.507   3.836   7.249  0.0982  1.0795 -0.3625
  215MOL0     O28256   8.430   3.917   7.331 -0.5671  0.5811  0.0816
  215MOL0     C28257   8.465   3.912   7.465  0.3793  0.4023 -1.0879
  215MOL0     C28258   8.365   3.962   7.565 -0.7199  0.6263  0.3900
  215MOL0     C28259   8.234   4.007   7.500 -0.1298 -0.4643 -0.3429
  215MOL0     C28260   8.126   4.052   7.609 -0.8186 -1.1615 -0.1202
  215MOL0     C28261   7.992   4.093   7.565  0.0279  0.2923  0.3247
  215MOL0     C28262   7.893   4.153   7.668  0.0345  0.6833 -0.0333
  215MOL0     C28263   7.748   4.162   7.619 -0.5445  0.0684 -0.7168
  215MOL0     C28264   7.721   4.272   7.518 -0.2129  0.2070  0.3786
  215MOL0     N28265   7.581   4.323   7.539 -0.3988  0.0833  0.6789
  215MOL0     C28266   7.536   4.395   7.647 -0.3892  0.4279 -0.3815
  215MOL0     C28267   7.397   4.383   7.631 -0.1849 -0.7402 -0.4193
  215MOL0     C28268   7.292   4.427   7.731  0.6255 -0.1489 -0.5064
  215MOL0     C28269   7.175   4.335   7.752  0.1750 -0.2724 -0.6644
  215MOL0     C28270   7.073   4.381   7.860  0.0567  0.3389 -0.2428
  215MOL0     C28271   6.983   4.488   7.811 -0.0285  0.1462 -0.2733
  215MOL0     O28272   6.886   4.509   7.913 -0.2194 -0.0401  0.1894
  215MOL0     C28273   6.776   4.580   7.876  0.2299  0.4537 -0.4158
  215MOL0     C28274   6.734   4.618   7.752  0.5133  0.7473 -0.0453
  215MOL0     C28275   6.600   4.662   7.728 -0.4128  0.3397 -0.0202
  215MOL0     C28276   6.502   4.648   7.824  0.3271  0.2918 -0.2989
  215MOL0     C28277   6.358   4.684   7.793 -0.5522 -0.3493  0.5646
  215MOL0     O28278   6.338   4.766   7.682 -0.3589  0.4108 -0.3964
  215MOL0     C28279   6.211   4.812   7.639  0.0751 -0.0935  0.0853
  215MOL0     C28280   6.206   4.948   7.607  0.1211  0.4693  0.2642
  215MOL0     C28281   6.082   5.009   7.585  0.5589 -0.0283  0.4281
  215MOL0     C28282   5.963   4.945   7.592 -0.7384 -0.8629 -0.6061
  215MOL0     O28283   5.849   5.017   7.555 -0.4958  0.6914 -0.0717
  215MOL0     C28284   5.722   4.960   7.585  0.0045  0.3247 -0.0515
  215MOL0     C28285   5.620   5.072   7.594  0.7834 -0.4806 -1.0632
  215MOL0     C28286   5.617   5.166   7.468 -0.5160  0.0058 -0.6272
  215MOL0     C28287   5.546   5.295   7.488  0.5580 -0.5610  0.5159
  215MOL0     C28288   5.394   5.280   7.517  0.0512  0.5684  0.3734
  215MOL0     C28289   5.327   5.416   7.491  0.1083  0.2911 -0.1981
  215MOL0     C28290   5.312   5.468   7.343 -0.0713 -0.9125  0.1993
  215MOL0     C28291   5.219   5.379   7.249 -0.4397 -0.9247 -0.1177
  215MOL0    Cl28292   5.053   5.388   7.308  0.1907 -0.4480 -0.2042
  215MOL0     C28293   5.960   4.814   7.635 -0.5863 -0.2182  0.0210
  215MOL0     C28294   6.085   4.737   7.652  0.1296 -0.8782 -0.3529
  215MOL0     O28295   6.270   4.649   7.868 -0.0043  0.1332 -0.4885
  215MOL0     C28296   6.545   4.593   7.951  0.1437  0.0870 -0.6438
  215MOL0     C28297   6.683   4.568   7.981 -0.1810 -0.8174 -0.0181
  215MOL0     N28298   7.362   4.340   7.508 -0.0618 -0.2924 -0.2078
  215MOL0     N28299   7.474   4.306   7.453 -0.5954  0.3652 -0.2220
  215MOL0     C28300   8.640   3.802   7.276 -0.2015  0.8410 -0.8360
  215MOL0     C28301   8.711   3.714   7.196  0.3273 -0.0060  0.4950
  215MOL0     C28302   8.961   3.576   6.915  0.1697 -0.2952 -0.1033
  215MOL0     C28303   8.972   3.445   6.963 -0.4956  0.0307 -0.9497
  215MOL0     C28304   9.094   3.378   6.946  0.1163 -0.0676 -0.1751
  215MOL0     C28305   9.204   3.436   6.886 -0.5854  0.1322  0.1884
  215MOL0     O28306   9.325   3.369   6.867  0.5593  0.0953  0.0110
  215MOL0     C28307   9.322   3.236   6.903  0.4317  0.4679 -0.1587
  215MOL0     C28308   9.460   3.171   6.875 -0.5475 -0.7496 -0.1361
  215MOL0     C28309   9.500   3.200   6.726 -0.0430  0.1682 -0.0711
  215MOL0     C28310   9.622   3.111   6.677  0.4241 -0.7661  0.8046
  215MOL0     C28311   9.636   3.127   6.528 -0.6508  0.6656 -0.2512
  215MOL0     C28312   9.647   3.140   6.405  0.3513 -1.2990 -0.1568
  215MOL0     C28313   9.202   3.569   6.849 -0.2933 -1.2468  0.8986
  215MOL0     C28314   9.076   3.641   6.867 -1.2299 -1.4605  0.6923
  215MOL0     H28315   8.466   3.640   6.970 -2.4394 -1.9268  2.3910
  215MOL0     H28316   8.334   3.803   7.128 -0.2509  1.2488  1.2689
  215MOL0     H28317   8.565   3.955   7.481  1.1255 -2.2524  2.8127
  215MOL0     H28318   8.482   3.806   7.488  1.6783  0.7749 -0.1938
  215MOL0     H28319   8.416   4.047   7.612  0.8713  0.5596 -1.0867
  215MOL0     H28320   8.349   3.878   7.632 -2.6461 -0.0996 -0.9125
  215MOL0     H28321   8.196   3.922   7.441  2.6849 -0.8328 -1.7658
  215MOL0     H28322   8.243   4.095   7.436  0.8332 -0.4249 -0.1589
  215MOL0     H28323   8.125   3.972   7.684  0.2826 -0.9267  0.1696
  215MOL0     H28324   8.169   4.142   7.654  0.1645 -2.2827  1.2606
  215MOL0     H28325   7.941   4.012   7.512 -4.0745  1.4591  2.0878
  215MOL0     H28326   8.016   4.172   7.493  2.7904 -0.4624  0.3221
  215MOL0     H28327   7.932   4.250   7.700  1.3865 -0.3752  1.7314
  215MOL0     H28328   7.894   4.088   7.755  1.3112  0.8380  0.0870
  215MOL0     H28329   7.730   4.069   7.564 -0.7017 -1.3553  1.5914
  215MOL0     H28330   7.683   4.151   7.706  1.0793  0.3232  0.5765
  215MOL0     H28331   7.713   4.226   7.419  0.8939  1.2455 -0.2188
  215MOL0     H28332   7.800   4.347   7.506 -0.4511  0.8024  2.2262
  215MOL0     H28333   7.595   4.433   7.729  3.4486 -2.2037 -1.6372
  215MOL0     H28334   7.255   4.524   7.698 -0.7422 -0.1024  1.0284
  215MOL0     H28335   7.340   4.438   7.829  1.5906 -0.3994 -0.9427
  215MOL0     H28336   7.216   4.240   7.788 -0.4459  0.0024  0.8599
  215MOL0     H28337   7.114   4.319   7.663 -0.4611 -1.3170 -0.0724
  215MOL0     H28338   7.010   4.294   7.882  2.6193 -1.4944  0.3793
  215MOL0     H28339   7.133   4.400   7.950 -0.1516 -0.1277  0.0002
  215MOL0     H28340   6.941   4.456   7.716 -0.1289  0.4572 -0.3339
  215MOL0     H28341   7.037   4.579   7.783  0.4514  0.5805  1.8653
  215MOL0     H28342   6.807   4.632   7.673 -0.3615  1.8550 -0.6873
  215MOL0     H28343   6.567   4.706   7.634 -0.4868 -0.9109 -0.5924
  215MOL0     H28344   6.299   5.002   7.602 -0.7246  1.9061 -2.8472
  215MOL0     H28345   6.079   5.113   7.555  0.6212 -0.2996 -0.5755
  215MOL0     H28346   5.724   4.901   7.676 -1.3666 -0.9638 -0.8114
  215MOL0     H28347   5.690   4.901   7.498  2.2059  1.2378 -1.5852
  215MOL0     H28348   5.649   5.134   7.679  2.4453 -2.1681 -0.3185
  215MOL0     H28349   5.519   5.034   7.607  1.1001 -0.8609  0.4232
  215MOL0     H28350   5.569   5.108   7.388 -0.6764  4.0385 -3.8131
  215MOL0     H28351   5.711   5.205   7.428 -0.5140 -0.0141 -0.6426
  215MOL0     H28352   5.588   5.356   7.568 -2.3925  2.0095  0.3371
  215MOL0     H28353   5.562   5.352   7.395  1.4480 -0.1086  0.9343
  215MOL0     H28354   5.376   5.251   7.621  0.1153  1.1257  0.5437
  215MOL0     H28355   5.341   5.205   7.457 -0.6343 -0.2034  1.8640
  215MOL0     H28356   5.373   5.488   7.558 -0.1288 -0.3979  0.7279
  215MOL0     H28357   5.227   5.390   7.526  0.8549 -0.9466  1.1366
  215MOL0     H28358   5.270   5.568   7.354  2.0215  0.0959 -0.4301
  215MOL0     H28359   5.414   5.478   7.304 -0.5796  1.4132 -0.6642
  215MOL0     H28360   5.262   5.279   7.249 -0.2064 -0.8350  0.5300
  215MOL0     H28361   5.209   5.408   7.144  0.8948  0.3150  0.0618
  215MOL0     H28362   5.865   4.763   7.649  0.2069 -2.1989 -1.4273
  215MOL0     H28363   6.082   4.630   7.671  0.5165 -0.6138  1.3811
  215MOL0     H28364   6.474   4.591   8.033  1.5649  0.7025  0.6663
  215MOL0     H28365   6.715   4.523   8.075  0.3068 -0.2569  0.0884
  215MOL0     H28366   8.709   3.839   7.351  0.7820 -3.2644  0.5324
  215MOL0     H28367   8.815   3.698   7.220  0.1276 -0.4855  1.0857
  215MOL0     H28368   8.895   3.390   7.016  1.0268 -1.0606  0.1800
  215MOL0     H28369   9.087   3.275   6.981 -2.8432 -0.0863 -0.5774
  215MOL0     H28370   9.242   3.181   6.853 -0.8760  0.4138  1.8714
  215MOL0     H28371   9.299   3.240   7.010  1.4932  1.7373  0.0547
  215MOL0     H28372   9.540   3.206   6.940 -1.6917 -1.8499  1.9727
  215MOL0     H28373   9.443   3.065   6.898 -3.2536 -0.2389  0.6177
  215MOL0     H28374   9.523   3.307   6.721 -2.2847  0.9097  2.7957
  215MOL0     H28375   9.416   3.177   6.660  1.4328 -3.3215 -0.9610
  215MOL0     H28376   9.716   3.143   6.722 -0.2603 -0.8143  2.3415
  215MOL0     H28377   9.613   3.005   6.699  1.5551 -0.7524  1.4249
  215MOL0     H28378   9.648   3.166   6.301  0.1825  1.3707  0.4321
  215MOL0     H28379   9.287   3.619   6.803 -1.5063  1.0495  1.0362
  215MOL0     H28380   9.074   3.742   6.827  1.9195 -1.3066  0.6227
  216MOL0     O28381   1.494  10.887   3.245 -0.1092 -0.1709  0.7659
  216MOL0     C28382   1.528  10.824   3.138  0.9928  0.2449  0.3400
  216MOL0     O28383   1.442  10.786   3.039  0.1325 -0.1068  0.6748
  216MOL0     C28384   1.303  10.810   3.057 -1.5463  0.6534  0.1256
  216MOL0     C28385   1.238  10.904   2.977 -0.8137  0.2315  0.1085
  216MOL0     C28386   1.102  10.917   2.976 -0.4913  0.2327 -0.3490
  216MOL0     C28387   1.030  10.841   3.068 -0.2178  0.2517 -0.5534
  216MOL0     O28388   0.892  10.844   3.074 -0.2210 -0.3085 -0.6122
  216MOL0     C28389   0.811  10.954   3.023  0.3371 -0.0488  0.0785
  216MOL0     C28390   0.677  10.944   3.096  0.1635 -0.2939  0.2690
  216MOL0     C28391   0.622  10.803   3.129 -0.2727 -0.2701  0.7168
  216MOL0     C28392   0.490  10.809   3.189  0.9320 -0.1851 -0.3918
  216MOL0     C28393   0.418  10.671   3.197 -0.1725 -0.4633  0.5770
  216MOL0     C28394   0.266  10.688   3.220 -0.5443 -0.5358  0.2156
  216MOL0     C28395   0.205  10.573   3.293  0.1579  0.3368  0.1879
  216MOL0     C28396   0.054  10.560   3.246  0.0671  0.1956  0.0124
  216MOL0     N28397  -0.033  10.674   3.282  0.1313 -0.3719 -0.2761
  216MOL0     C28398  -0.170  10.659   3.285 -0.5680 -0.9942 -0.6719
  216MOL0     C28399  -0.217  10.764   3.367  0.5325 -0.2040 -0.4872
  216MOL0     C28400  -0.361  10.772   3.419  0.9178  0.3444  0.3365
  216MOL0     C28401  -0.384  10.692   3.543 -0.8753  0.1897 -0.0259
  216MOL0     C28402  -0.537  10.695   3.571 -0.0432  0.2583 -0.5930
  216MOL0     C28403  -0.584  10.584   3.672  0.0970  0.3564 -1.0804
  216MOL0     O28404  -0.553  10.632   3.799  0.3026  0.5709 -0.3753
  216MOL0     C28405  -0.621  10.563   3.891  0.4409  0.5020 -0.2455
  216MOL0     C28406  -0.722  10.621   3.966 -0.9970  0.4176  0.9915
  216MOL0     C28407  -0.797  10.539   4.050 -0.3428 -1.3036  0.7909
  216MOL0     C28408  -0.769  10.408   4.067 -0.2384  0.0178 -0.1843
  216MOL0     C28409  -0.853  10.335   4.166 -0.7331  0.0576 -0.3359
  216MOL0     O28410  -0.920  10.404   4.262 -0.0001  0.7707 -0.2899
  216MOL0     C28411  -1.001  10.328   4.351  0.3728  0.4954 -1.0795
  216MOL0     C28412  -1.093  10.229   4.313  0.5628  0.2395  0.7899
  216MOL0     C28413  -1.156  10.150   4.407 -0.3360 -0.2604  0.7957
  216MOL0     C28414  -1.129  10.172   4.543  0.0762 -0.8170  0.8767
  216MOL0     O28415  -1.193  10.106   4.640 -0.1586  0.3447  0.1905
  216MOL0     C28416  -1.327  10.173   4.657 -0.5687  0.2492  0.4975
  216MOL0     C28417  -1.357  10.157   4.799  0.0231  0.6220 -0.7489
  216MOL0     C28418  -1.491  10.219   4.845  0.8158 -0.2929 -0.4916
  216MOL0     C28419  -1.517  10.195   4.997  0.9453 -0.2995 -0.4958
  216MOL0     C28420  -1.652  10.249   5.052  0.3661  0.2742 -0.7116
  216MOL0     C28421  -1.667  10.243   5.207 -0.8926  0.1496 -0.5690
  216MOL0     C28422  -1.801  10.292   5.268 -0.3292  0.0029 -0.0887
  216MOL0     C28423  -1.818  10.440   5.294 -0.4876  1.1970  0.2342
  216MOL0    Cl28424  -1.700  10.469   5.423  0.2294  0.1453  0.1418
  216MOL0     C28425  -1.049  10.277   4.587 -0.5520  0.1507 -0.2406
  216MOL0     C28426  -0.973  10.348   4.493  0.2303 -0.1768 -0.0608
  216MOL0     O28427  -0.847  10.213   4.164  0.2147 -0.0905 -0.6469
  216MOL0     C28428  -0.667  10.352   4.001 -0.1802  0.8509  1.6545
  216MOL0     C28429  -0.590  10.423   3.908  0.5187 -0.6467  0.0596
  216MOL0     N28430  -0.108  10.843   3.404 -0.3848  0.1007  0.0101
  216MOL0     N28431  -0.002  10.787   3.350 -0.4862  0.6309 -0.2474
  216MOL0     C28432   1.100  10.764   3.163 -0.7203 -0.4692  0.4828
  216MOL0     C28433   1.236  10.748   3.157  0.5778  0.5479 -0.1252
  216MOL0     C28434   1.675  10.801   3.116  0.6424  0.5393 -0.1676
  216MOL0     C28435   1.720  10.749   2.998  0.3197 -0.5324 -0.0148
  216MOL0     C28436   1.851  10.757   2.952 -0.1768 -0.5700  0.5312
  216MOL0     C28437   1.938  10.829   3.031 -0.5573 -0.6498 -0.0640
  216MOL0     O28438   2.074  10.851   2.988  0.1771  0.1537 -0.0935
  216MOL0     C28439   2.138  10.730   2.957 -0.7109 -0.2121 -0.2666
  216MOL0     C28440   2.289  10.752   2.952 -0.0271 -0.3275 -0.3244
  216MOL0     C28441   2.360  10.612   2.930  0.1190 -0.4044 -0.0546
  216MOL0     C28442   2.498  10.614   2.994  0.6252 -0.2039 -0.4651
  216MOL0     C28443   2.584  10.726   2.952 -0.1713  0.4485 -0.3108
  216MOL0     C28444   2.644  10.826   2.921 -0.0622 -0.2999  0.5093
  216MOL0     C28445   1.893  10.887   3.156  0.5478  0.3144  0.0758
  216MOL0     C28446   1.761  10.874   3.196 -0.4988 -0.0784 -0.9396
  216MOL0     H28447   1.307  10.962   2.916  0.5120 -1.9417 -0.6135
  216MOL0     H28448   1.060  10.978   2.896  0.3371 -0.1119 -1.0673
  216MOL0     H28449   0.791  10.926   2.919  0.0212  0.5104 -0.0172
  216MOL0     H28450   0.871  11.045   3.030  1.1858  0.0322 -4.8841
  216MOL0     H28451   0.603  10.988   3.030  1.2224  1.8161  0.4121
  216MOL0     H28452   0.680  10.999   3.190 -2.0128 -0.5209  0.5107
  216MOL0     H28453   0.690  10.754   3.200 -0.4210 -1.0618  0.3225
  216MOL0     H28454   0.623  10.739   3.041 -0.9999 -0.5499  0.9062
  216MOL0     H28455   0.503  10.856   3.287 -0.5964 -0.4919 -0.0229
  216MOL0     H28456   0.436  10.881   3.127 -0.2017  1.2002  2.0453
  216MOL0     H28457   0.461  10.611   3.278  1.7407  1.1064  0.8184
  216MOL0     H28458   0.433  10.617   3.103  1.7817  1.0432 -0.0500
  216MOL0     H28459   0.224  10.715   3.122  0.7971  1.9226  0.2588
  216MOL0     H28460   0.246  10.777   3.279 -1.1156  0.1168 -0.9172
  216MOL0     H28461   0.259  10.486   3.256 -1.3551 -0.3541 -0.4871
  216MOL0     H28462   0.202  10.585   3.402 -1.0662  1.7363  0.0378
  216MOL0     H28463   0.008  10.468   3.284 -1.4366  1.2387  0.8480
  216MOL0     H28464   0.050  10.564   3.137 -0.9653 -0.7918 -0.0052
  216MOL0     H28465  -0.225  10.569   3.259 -2.8973  0.5906 -1.4721
  216MOL0     H28466  -0.411  10.735   3.328  2.3877 -0.0896 -0.3288
  216MOL0     H28467  -0.402  10.872   3.436 -0.8812 -0.3487  0.3491
  216MOL0     H28468  -0.330  10.748   3.620  0.6038  0.4439 -1.2047
  216MOL0     H28469  -0.338  10.593   3.537 -1.4096 -0.0009 -1.2913
  216MOL0     H28470  -0.562  10.793   3.615  1.6814 -0.2122  1.6685
  216MOL0     H28471  -0.590  10.683   3.476  0.6939  0.8633 -1.0941
  216MOL0     H28472  -0.538  10.486   3.662  1.8588  1.0994 -0.7013
  216MOL0     H28473  -0.692  10.571   3.659  0.4069 -3.0385 -1.0825
  216MOL0     H28474  -0.739  10.727   3.947  0.5487  0.5835  0.3503
  216MOL0     H28475  -0.883  10.581   4.103 -0.1683 -1.6476  1.3537
  216MOL0     H28476  -1.137  10.202   4.218 -3.6498 -0.7882  2.7648
  216MOL0     H28477  -1.228  10.078   4.371 -0.8308  0.7519 -0.3155
  216MOL0     H28478  -1.405  10.116   4.605 -0.4020  0.3417  0.1376
  216MOL0     H28479  -1.337  10.277   4.625  0.3134  0.7300  1.7238
  216MOL0     H28480  -1.277  10.208   4.854  1.1754 -3.7915  2.2011
  216MOL0     H28481  -1.358  10.054   4.836  0.8495  0.9338  0.1682
  216MOL0     H28482  -1.574  10.187   4.781 -1.1531  1.1071  1.2045
  216MOL0     H28483  -1.490  10.329   4.841 -1.2224  0.1774  4.7741
  216MOL0     H28484  -1.509  10.088   5.021  3.3190 -0.0952 -0.1429
  216MOL0     H28485  -1.437  10.238   5.057  1.0959 -1.7082  0.3628
  216MOL0     H28486  -1.735  10.191   5.010 -0.2691  1.0294 -0.5203
  216MOL0     H28487  -1.673  10.349   5.013  3.1248 -0.0595 -3.4440
  216MOL0     H28488  -1.589  10.303   5.254 -2.2016  2.8472 -1.6465
  216MOL0     H28489  -1.651  10.138   5.233 -0.3053  0.6547  1.2001
  216MOL0     H28490  -1.879  10.244   5.208  1.3854 -2.2658 -0.6369
  216MOL0     H28491  -1.805  10.247   5.368 -2.2141  1.1473  0.3975
  216MOL0     H28492  -1.916  10.466   5.335  0.2340  3.0529  0.8367
  216MOL0     H28493  -1.798  10.499   5.204 -1.6017 -0.3327 -1.0961
  216MOL0     H28494  -1.045  10.295   4.694  0.4952 -0.3879 -0.1783
  216MOL0     H28495  -0.913  10.436   4.515 -0.2179 -0.2607  1.6832
  216MOL0     H28496  -0.654  10.244   4.008 -3.1877  0.2406 -0.1873
  216MOL0     H28497  -0.526  10.361   3.846  0.4545 -0.2532 -0.4111
  216MOL0     H28498   1.040  10.713   3.238  0.6150 -0.3572  1.6694
  216MOL0     H28499   1.278  10.687   3.236  1.6171  0.1669 -0.9561
  216MOL0     H28500   1.651  10.700   2.929  1.5584  0.1466 -1.8142
  216MOL0     H28501   1.867  10.722   2.850 -0.5624 -1.3134  0.7160
  216MOL0     H28502   2.105  10.691   2.860  0.4157 -3.6526  0.5596
  216MOL0     H28503   2.108  10.657   3.033  1.4482  0.8347  1.7219
  216MOL0     H28504   2.327  10.820   2.875  1.6806 -0.1232  0.6565
  216MOL0     H28505   2.309  10.789   3.053  1.2960  1.6002 -1.2344
  216MOL0     H28506   2.362  10.593   2.823 -0.9155  2.2534 -0.6152
  216MOL0     H28507   2.308  10.535   2.989 -0.9073  0.0640 -0.3241
  216MOL0     H28508   2.483  10.621   3.102  3.6291 -0.8555  0.0746
  216MOL0     H28509   2.559  10.526   2.969  0.7890 -0.5638  1.1117
  216MOL0     H28510   2.682  10.921   2.892  0.3144 -1.0293 -1.5918
  216MOL0     H28511   1.958  10.941   3.225 -1.9847  0.6599  2.4015
  216MOL0     H28512   1.735  10.910   3.295  0.6400  1.1227 -1.0565
  217MOL0     O28513   8.386   1.647   3.863 -0.6231 -0.0478  0.1837
  217MOL0     C28514   8.309   1.610   3.776 -0.4524 -0.1956  0.5683
  217MOL0     O28515   8.349   1.539   3.667  0.6199 -0.7701  0.4772
  217MOL0     C28516   8.468   1.490   3.649 -0.0827  0.1508 -0.4294
  217MOL0     C28517   8.472   1.363   3.590  0.3524 -0.8812 -0.3896
  217MOL0     C28518   8.581   1.289   3.583 -0.3600  0.0858  0.1341
  217MOL0     C28519   8.701   1.332   3.638  0.5534 -0.0332 -0.2744
  217MOL0     O28520   8.806   1.245   3.614  0.3258 -0.3732  0.6159
  217MOL0     C28521   8.917   1.251   3.709 -0.1811 -0.5785  0.0313
  217MOL0     C28522   9.032   1.157   3.666 -0.0831 -0.5887  0.3282
  217MOL0     C28523   9.174   1.184   3.719  1.0058 -0.9326 -0.2226
  217MOL0     C28524   9.282   1.115   3.637  0.0126  0.2843 -0.8573
  217MOL0     C28525   9.418   1.144   3.691  0.5877 -0.6483  0.6735
  217MOL0     C28526   9.541   1.063   3.632 -0.8374  0.0735 -0.4331
  217MOL0     C28527   9.559   1.055   3.481  0.0208  0.0267 -0.1887
  217MOL0     C28528   9.646   0.933   3.446 -0.5691  0.0058  0.2427
  217MOL0     N28529   9.782   0.937   3.495  0.6080 -0.1217 -0.5296
  217MOL0     C28530   9.857   1.044   3.466  0.1980 -0.9449  0.3816
  217MOL0     C28531   9.979   1.024   3.518  0.5725  0.7738 -0.2186
  217MOL0     C28532  10.109   1.092   3.509 -0.1110  0.2005 -1.2860
  217MOL0     C28533  10.108   1.211   3.605  1.0469 -0.0846  0.6234
  217MOL0     C28534  10.054   1.174   3.742  0.1782  0.0462 -0.6504
  217MOL0     C28535  10.085   1.293   3.834  0.6362  0.2936  0.6231
  217MOL0     O28536  10.016   1.407   3.787  0.6623  0.2142  0.4489
  217MOL0     C28537   9.879   1.421   3.784 -0.5984 -0.4185  0.5046
  217MOL0     C28538   9.828   1.507   3.694  0.7273 -0.3201  0.2099
  217MOL0     C28539   9.690   1.540   3.694 -0.0323 -0.3136  0.3756
  217MOL0     C28540   9.603   1.470   3.780 -0.6216  0.3674 -0.0798
  217MOL0     C28541   9.464   1.501   3.789  0.1018 -0.6511 -0.1525
  217MOL0     O28542   9.385   1.447   3.893  0.0914  0.3018 -0.2758
  217MOL0     C28543   9.259   1.478   3.916  0.1687  0.4700 -0.3826
  217MOL0     C28544   9.194   1.401   4.019  0.3183 -0.1626 -0.1086
  217MOL0     C28545   9.055   1.409   4.040 -0.7744 -0.1241 -0.4491
  217MOL0     C28546   8.977   1.490   3.973 -0.0125 -0.8819  0.5934
  217MOL0     O28547   8.842   1.493   4.005 -0.1003 -0.7186  0.3542
  217MOL0     C28548   8.795   1.624   4.017  0.1895 -0.5628  0.3448
  217MOL0     C28549   8.683   1.620   4.108  0.0602 -0.8322  0.5568
  217MOL0     C28550   8.645   1.766   4.145 -0.4350  0.0089 -0.2918
  217MOL0     C28551   8.509   1.756   4.232 -0.4086  0.2444  0.5982
  217MOL0     C28552   8.497   1.886   4.312  0.7487 -0.0938  0.1053
  217MOL0     C28553   8.390   1.891   4.425 -0.1109 -0.1256  0.5951
  217MOL0     C28554   8.382   2.038   4.488 -0.0659  0.0068 -0.6830
  217MOL0     C28555   8.322   2.033   4.622 -0.0291 -0.7886 -0.1820
  217MOL0    Cl28556   8.312   2.200   4.688  0.4337 -0.3139 -0.9152
  217MOL0     C28557   9.037   1.575   3.876  0.2513  0.6492  0.4358
  217MOL0     C28558   9.176   1.566   3.844  0.2451 -0.6678  0.1250
  217MOL0     O28559   9.428   1.584   3.701  0.3725 -0.3392 -0.2071
  217MOL0     C28560   9.658   1.373   3.867 -0.4643  0.4537  0.0041
  217MOL0     C28561   9.793   1.349   3.866 -0.0877 -0.7257  0.3421
  217MOL0     N28562   9.976   0.896   3.567  0.3267 -0.3446 -0.0202
  217MOL0     N28563   9.858   0.843   3.558  0.1650 -0.6059 -0.0561
  217MOL0     C28564   8.704   1.459   3.693 -0.2339  0.1469  0.3414
  217MOL0     C28565   8.590   1.543   3.692  0.1593  0.0844  0.2822
  217MOL0     C28566   8.168   1.655   3.777 -0.4153 -0.8188 -0.2486
  217MOL0     C28567   8.101   1.715   3.890 -0.0697 -0.6760  0.3248
  217MOL0     C28568   7.975   1.758   3.895 -0.1051 -0.3734  0.7218
  217MOL0     C28569   7.898   1.753   3.772 -0.8863 -0.9578 -0.5527
  217MOL0     O28570   7.764   1.796   3.763 -0.5173 -0.2622 -0.0451
  217MOL0     C28571   7.695   1.847   3.882 -0.2017  0.3385  0.0174
  217MOL0     C28572   7.559   1.910   3.840 -0.4184 -0.0410  0.4783
  217MOL0     C28573   7.444   1.799   3.818 -0.0668 -0.6774  0.6967
  217MOL0     C28574   7.305   1.845   3.765  0.6621 -0.3136  0.2235
  217MOL0     C28575   7.238   1.916   3.871  0.0519 -0.2122  0.1457
  217MOL0     C28576   7.170   1.974   3.957  0.2241  0.0488  1.3273
  217MOL0     C28577   7.965   1.702   3.662  0.1832 -0.0297 -0.1807
  217MOL0     C28578   8.092   1.655   3.654 -0.2845  0.3551 -0.8626
  217MOL0     H28579   8.379   1.326   3.548  1.4550 -1.6741 -2.2965
  217MOL0     H28580   8.562   1.192   3.538 -1.8531 -0.2619  1.4322
  217MOL0     H28581   8.892   1.215   3.809  2.3809  1.2445  1.4424
  217MOL0     H28582   8.957   1.353   3.709  1.5395 -1.1464 -2.7662
  217MOL0     H28583   9.030   1.146   3.557  1.1840 -0.5379  0.2824
  217MOL0     H28584   9.003   1.060   3.709  1.3027 -1.1247  0.1032
  217MOL0     H28585   9.179   1.157   3.825  0.2193 -0.1245  0.0346
  217MOL0     H28586   9.182   1.293   3.714 -2.3968 -0.6088 -3.4324
  217MOL0     H28587   9.267   1.007   3.634  1.0817  0.1650 -2.2813
  217MOL0     H28588   9.271   1.163   3.539 -2.0900  0.2125 -0.7161
  217MOL0     H28589   9.418   1.129   3.800 -2.3650 -3.6791  0.4124
  217MOL0     H28590   9.434   1.253   3.689  0.0875 -0.5689  0.8715
  217MOL0     H28591   9.532   0.960   3.669 -0.4254  0.6430  1.3535
  217MOL0     H28592   9.636   1.102   3.670 -1.9680  0.7898  1.8948
  217MOL0     H28593   9.463   1.053   3.428  0.2507 -1.3492 -0.5838
  217MOL0     H28594   9.617   1.143   3.451  1.0490 -0.7903 -0.6383
  217MOL0     H28595   9.649   0.931   3.336 -0.2597 -2.0143  0.2540
  217MOL0     H28596   9.600   0.843   3.487  0.2735 -0.6826 -0.2988
  217MOL0     H28597   9.829   1.119   3.392 -2.1882 -3.1103 -1.0729
  217MOL0     H28598  10.135   1.129   3.409 -0.0630 -1.2957 -1.8553
  217MOL0     H28599  10.189   1.018   3.525  0.4571  0.2282 -3.5718
  217MOL0     H28600  10.048   1.285   3.551 -1.5509 -2.6512 -0.3178
  217MOL0     H28601  10.206   1.257   3.609 -0.2656  3.1457 -0.9956
  217MOL0     H28602   9.946   1.160   3.735 -0.2437  1.6372  1.5388
  217MOL0     H28603  10.107   1.086   3.779  0.7983  0.6065 -0.1602
  217MOL0     H28604  10.192   1.309   3.849  0.5003  2.3641 -0.2460
  217MOL0     H28605  10.041   1.269   3.931 -0.5296 -0.0027  0.0401
  217MOL0     H28606   9.902   1.550   3.627  1.1740 -0.5497  0.5496
  217MOL0     H28607   9.653   1.617   3.627  2.0747  0.7569  0.3588
  217MOL0     H28608   9.252   1.346   4.092 -0.6380 -1.3370 -0.2072
  217MOL0     H28609   9.007   1.341   4.110 -3.8785  1.9209 -0.4111
  217MOL0     H28610   8.769   1.665   3.919  1.6967  1.5173  0.7507
  217MOL0     H28611   8.877   1.681   4.064  0.9442  1.3002 -2.9085
  217MOL0     H28612   8.709   1.576   4.204  2.2826  4.3282  2.7218
  217MOL0     H28613   8.599   1.559   4.073 -1.2605  0.7094  0.9125
  217MOL0     H28614   8.619   1.825   4.057 -3.5437  3.3981  2.5889
  217MOL0     H28615   8.740   1.804   4.183  0.7525 -0.4621 -2.6541
  217MOL0     H28616   8.428   1.719   4.168 -0.9699  2.2366  0.1109
  217MOL0     H28617   8.523   1.682   4.312 -3.3603 -2.9717 -1.5563
  217MOL0     H28618   8.475   1.967   4.243 -1.8270 -0.5085  0.3340
  217MOL0     H28619   8.591   1.914   4.361 -0.3399 -0.0412  2.2871
  217MOL0     H28620   8.407   1.823   4.508 -2.4016 -0.8879  0.5102
  217MOL0     H28621   8.291   1.871   4.383 -0.2924  0.9907  0.4327
  217MOL0     H28622   8.478   2.090   4.495 -1.4139  2.3967  1.8527
  217MOL0     H28623   8.323   2.105   4.425 -0.9149 -2.8367 -3.1907
  217MOL0     H28624   8.372   1.966   4.693 -4.4717 -0.9937  3.1405
  217MOL0     H28625   8.218   2.006   4.606 -0.5419  1.8065 -1.8326
  217MOL0     H28626   8.989   1.648   3.811 -1.9142  0.0547  1.2883
  217MOL0     H28627   9.218   1.640   3.776 -2.8779  1.2729  0.1181
  217MOL0     H28628   9.593   1.307   3.924 -0.6928  0.0416 -0.7203
  217MOL0     H28629   9.828   1.256   3.909  1.6686 -0.1218  0.2788
  217MOL0     H28630   8.797   1.500   3.730 -0.0920 -1.0311  1.3743
  217MOL0     H28631   8.600   1.639   3.741  2.4456 -0.3753  0.8094
  217MOL0     H28632   8.169   1.731   3.973 -1.2137 -0.4573  1.2319
  217MOL0     H28633   7.940   1.792   3.993 -0.0346 -1.5643  1.1787
  217MOL0     H28634   7.755   1.927   3.926 -0.6743 -0.6138  2.5512
  217MOL0     H28635   7.668   1.764   3.948 -1.1020 -0.4305 -1.2699
  217MOL0     H28636   7.524   1.968   3.925  2.6796 -1.5567  3.0068
  217MOL0     H28637   7.585   1.974   3.755 -0.0703 -1.9737 -0.9286
  217MOL0     H28638   7.432   1.762   3.921  1.5226 -0.9566  0.8034
  217MOL0     H28639   7.477   1.722   3.748  0.5378  0.2463 -0.0434
  217MOL0     H28640   7.312   1.910   3.678  0.4289  0.5066  0.8119
  217MOL0     H28641   7.244   1.760   3.732  1.7779 -1.9378  2.0869
  217MOL0     H28642   7.112   2.033   4.025  0.0969  0.2477  1.0459
  217MOL0     H28643   7.901   1.700   3.575 -0.8557  0.8761  0.5192
  217MOL0     H28644   8.129   1.622   3.558 -1.1835 -2.3198 -0.3753
  218MOL0     O28645   1.987   2.298   1.848  0.3731 -0.2108  0.5781
  218MOL0     C28646   1.988   2.414   1.814 -0.3479 -0.5449  0.1251
  218MOL0     O28647   1.875   2.491   1.795  0.8276 -0.7201  0.2834
  218MOL0     C28648   1.753   2.434   1.825 -0.1592 -0.6802  0.3757
  218MOL0     C28649   1.658   2.454   1.729 -0.1596 -0.1549  0.0964
  218MOL0     C28650   1.520   2.417   1.757  0.4913 -0.6332 -0.3629
  218MOL0     C28651   1.487   2.352   1.879  0.0233 -0.9784 -0.8061
  218MOL0     O28652   1.361   2.319   1.919  0.6582  0.1314  0.4510
  218MOL0     C28653   1.249   2.366   1.845  1.0403  0.8197  0.2243
  218MOL0     C28654   1.122   2.312   1.908  0.0139  0.3442  0.4697
  218MOL0     C28655   0.990   2.362   1.836  0.2588 -0.2480  0.1332
  218MOL0     C28656   0.876   2.336   1.930 -0.1273 -1.0937  0.2010
  218MOL0     C28657   0.741   2.381   1.873  0.1162 -0.1377  0.9791
  218MOL0     C28658   0.727   2.533   1.836 -0.2192 -0.8593  0.4824
  218MOL0     C28659   0.585   2.583   1.802 -0.3492 -0.2012 -0.7534
  218MOL0     C28660   0.539   2.540   1.662  0.1454  0.4046 -0.1984
  218MOL0     N28661   0.406   2.595   1.638 -0.3371  0.0345  0.0405
  218MOL0     C28662   0.370   2.693   1.543  0.1014  0.1949  0.5665
  218MOL0     C28663   0.234   2.712   1.559 -0.6478 -0.4988  0.2044
  218MOL0     C28664   0.138   2.800   1.474 -0.1257 -0.0568  0.1336
  218MOL0     C28665  -0.008   2.740   1.463 -0.6176  0.3441  0.4917
  218MOL0     C28666  -0.100   2.818   1.371  0.2672  0.5640 -0.4746
  218MOL0     C28667  -0.249   2.796   1.387 -0.1812 -0.1516  0.5591
  218MOL0     O28668  -0.293   2.799   1.529 -0.5075 -0.0312  0.4678
  218MOL0     C28669  -0.409   2.734   1.547  0.3891  0.0792  1.2874
  218MOL0     C28670  -0.535   2.774   1.481 -1.1452  0.4357  0.1206
  218MOL0     C28671  -0.662   2.710   1.499  1.0741 -0.5106  0.6293
  218MOL0     C28672  -0.663   2.608   1.592  0.4025  0.1244 -0.3034
  218MOL0     C28673  -0.796   2.558   1.634  0.1518  0.2368 -0.2240
  218MOL0     O28674  -0.805   2.472   1.738  0.0282  0.3455  0.0635
  218MOL0     C28675  -0.935   2.461   1.800 -0.6060  0.2071  1.2907
  218MOL0     C28676  -0.985   2.574   1.859  1.1582  0.3485  0.2478
  218MOL0     C28677  -1.114   2.570   1.908 -0.0327 -1.0579  0.4392
  218MOL0     C28678  -1.189   2.454   1.894 -0.4270 -0.3271  0.2097
  218MOL0     O28679  -1.317   2.468   1.943  0.2350 -0.2610  0.0418
  218MOL0     C28680  -1.404   2.349   1.934 -0.0792 -0.5943  0.4333
  218MOL0     C28681  -1.540   2.395   1.992 -0.1171  0.1284 -0.2255
  218MOL0     C28682  -1.646   2.285   1.976 -0.1593 -0.0206 -0.1689
  218MOL0     C28683  -1.767   2.340   2.053 -0.2234 -0.8405  0.1017
  218MOL0     C28684  -1.887   2.240   2.050 -0.2128 -0.0588  0.0209
  218MOL0     C28685  -2.012   2.278   2.134 -0.3337 -0.2545  0.1171
  218MOL0     C28686  -2.098   2.383   2.062 -0.5438 -0.4076 -0.2002
  218MOL0     C28687  -2.253   2.345   2.088 -0.5258  0.1395  1.4758
  218MOL0    Cl28688  -2.290   2.334   2.261  0.3150 -0.2145 -0.7936
  218MOL0     C28689  -1.135   2.339   1.829  0.0334 -0.1859 -0.0112
  218MOL0     C28690  -1.010   2.350   1.775  1.0614  0.0665  0.1161
  218MOL0     O28691  -0.896   2.607   1.575 -0.2056  0.0484  0.3242
  218MOL0     C28692  -0.543   2.572   1.654  0.0101  0.7214 -0.7431
  218MOL0     C28693  -0.423   2.637   1.638 -1.1080 -0.2990 -0.2995
  218MOL0     N28694   0.197   2.649   1.675 -0.4631  0.3078 -0.7343
  218MOL0     N28695   0.301   2.584   1.724 -0.2813  0.0278  0.4244
  218MOL0     C28696   1.589   2.326   1.969 -0.3275  0.5937  0.1829
  218MOL0     C28697   1.719   2.373   1.944 -0.3470  0.4195 -0.1609
  218MOL0     C28698   2.123   2.463   1.767 -0.2547 -0.3870  0.1164
  218MOL0     C28699   2.251   2.395   1.774 -0.5114 -0.2441 -0.5017
  218MOL0     C28700   2.362   2.430   1.702 -0.4267 -0.6034 -0.4636
  218MOL0     C28701   2.353   2.559   1.641  0.8078  0.1842  0.0080
  218MOL0     O28702   2.467   2.590   1.567  0.2866 -0.2131 -0.3770
  218MOL0     C28703   2.496   2.718   1.499  0.3579 -0.1439 -0.3007
  218MOL0     C28704   2.512   2.822   1.607  0.4208 -0.7822  0.2902
  218MOL0     C28705   2.455   2.951   1.571 -0.4397  0.0847  0.2660
  218MOL0     C28706   2.523   3.062   1.651  0.4162 -0.4750 -1.2249
  218MOL0     C28707   2.490   3.052   1.790  1.2167 -0.4818  0.1877
  218MOL0     C28708   2.456   3.048   1.907 -0.1055  0.5673  0.6780
  218MOL0     C28709   2.230   2.622   1.626  0.6496  0.2011 -0.1145
  218MOL0     C28710   2.115   2.585   1.692  0.2414  0.8232  0.0272
  218MOL0     H28711   1.683   2.494   1.631  2.2821 -1.9549 -0.1246
  218MOL0     H28712   1.449   2.445   1.679 -0.1961  3.0233  1.3298
  218MOL0     H28713   1.255   2.327   1.743  1.0413 -1.5269  1.0656
  218MOL0     H28714   1.256   2.475   1.852 -1.6051  0.9622  3.3429
  218MOL0     H28715   1.119   2.343   2.013 -0.0877  0.3264  0.4730
  218MOL0     H28716   1.135   2.204   1.906  3.3730  0.6383  1.3478
  218MOL0     H28717   0.971   2.306   1.744  1.4196  2.1134 -1.6272
  218MOL0     H28718   0.991   2.467   1.806 -0.5045 -0.1633  0.3890
  218MOL0     H28719   0.866   2.229   1.951 -1.8101 -1.6975 -3.1335
  218MOL0     H28720   0.893   2.391   2.024 -0.9882 -3.3161  1.7588
  218MOL0     H28721   0.668   2.358   1.951  0.3996  0.3714  1.4037
  218MOL0     H28722   0.723   2.325   1.781  0.1219  1.5812 -0.1292
  218MOL0     H28723   0.791   2.552   1.749 -1.0291 -0.8598 -0.1341
  218MOL0     H28724   0.765   2.588   1.922 -0.7610 -0.6008  0.5614
  218MOL0     H28725   0.519   2.541   1.879 -0.6136 -1.0179 -1.4074
  218MOL0     H28726   0.567   2.690   1.791 -0.1342 -0.2936 -2.2888
  218MOL0     H28727   0.532   2.432   1.645  3.2852  0.2388 -0.9865
  218MOL0     H28728   0.615   2.578   1.593  1.8902 -0.7588  1.0037
  218MOL0     H28729   0.432   2.730   1.462 -2.0243 -0.4128 -1.4402
  218MOL0     H28730   0.186   2.797   1.376  0.2766  0.8152  0.2988
  218MOL0     H28731   0.132   2.901   1.514 -1.6633  0.4054 -1.1655
  218MOL0     H28732  -0.048   2.730   1.564 -0.1320 -0.2391  0.6269
  218MOL0     H28733  -0.017   2.641   1.418 -0.7810  0.7353 -0.3737
  218MOL0     H28734  -0.080   2.926   1.374 -2.8569  1.2464  0.0304
  218MOL0     H28735  -0.066   2.791   1.271  5.2924  1.9399  0.5720
  218MOL0     H28736  -0.280   2.708   1.330  0.4267  0.1325 -0.2220
  218MOL0     H28737  -0.285   2.870   1.316  0.1963 -2.0399 -1.7162
  218MOL0     H28738  -0.521   2.861   1.417  1.4871  0.0508  0.0616
  218MOL0     H28739  -0.751   2.754   1.455  2.6182  1.0242 -1.1430
  218MOL0     H28740  -0.930   2.667   1.855 -0.5444  1.3704 -0.4640
  218MOL0     H28741  -1.166   2.661   1.935 -1.0573 -1.7457  0.8185
  218MOL0     H28742  -1.359   2.270   1.994  1.8585  1.9065  2.4959
  218MOL0     H28743  -1.411   2.314   1.830 -2.6666 -3.2464  1.3717
  218MOL0     H28744  -1.581   2.479   1.936  2.0905  1.0203 -0.6178
  218MOL0     H28745  -1.534   2.415   2.100  2.3999  0.8868 -0.4254
  218MOL0     H28746  -1.600   2.195   2.020 -1.4392  0.4817  2.4118
  218MOL0     H28747  -1.675   2.271   1.872 -1.6586 -0.6405  0.3122
  218MOL0     H28748  -1.744   2.373   2.155 -0.1957 -3.8616  1.1783
  218MOL0     H28749  -1.811   2.423   1.998 -0.5452 -0.0262  1.5459
  218MOL0     H28750  -1.853   2.143   2.090 -0.1149  1.2358  3.4208
  218MOL0     H28751  -1.918   2.232   1.946 -1.0230 -0.9653  0.3202
  218MOL0     H28752  -1.972   2.315   2.230 -0.2498  1.0640 -0.4037
  218MOL0     H28753  -2.080   2.194   2.151 -0.0892 -0.3871  0.4525
  218MOL0     H28754  -2.090   2.484   2.102 -1.6762 -1.4410  3.0740
  218MOL0     H28755  -2.075   2.371   1.956 -3.6185 -1.8877 -0.8190
  218MOL0     H28756  -2.297   2.258   2.039 -4.5628  0.7164  3.6664
  218MOL0     H28757  -2.303   2.432   2.043  1.3525 -0.8430 -3.0613
  218MOL0     H28758  -1.189   2.245   1.835 -1.1944  0.5790  1.3560
  218MOL0     H28759  -0.968   2.266   1.720  0.8782  0.5114 -0.7373
  218MOL0     H28760  -0.562   2.507   1.739 -2.9049  0.3540 -1.5356
  218MOL0     H28761  -0.329   2.605   1.682 -1.0836  1.4323  0.9675
  218MOL0     H28762   1.561   2.269   2.057 -0.1468  0.7629  0.3480
  218MOL0     H28763   1.795   2.358   2.021 -0.2776 -1.6487 -0.5838
  218MOL0     H28764   2.249   2.298   1.824  0.7836 -2.7427 -4.7417
  218MOL0     H28765   2.446   2.363   1.693 -0.0165  0.0071 -1.2270
  218MOL0     H28766   2.417   2.747   1.428 -0.9692 -1.6791  0.4738
  218MOL0     H28767   2.588   2.711   1.441  0.6786  0.1184  0.1669
  218MOL0     H28768   2.451   2.790   1.692 -2.9316  1.8109 -0.9036
  218MOL0     H28769   2.619   2.822   1.631  0.6747  3.4989 -0.1297
  218MOL0     H28770   2.347   2.963   1.578 -0.3377  2.5606 -1.1222
  218MOL0     H28771   2.475   2.964   1.464 -1.3767 -0.6936 -0.0170
  218MOL0     H28772   2.630   3.058   1.632  0.5462  2.4586 -1.5432
  218MOL0     H28773   2.499   3.161   1.610  0.6023  0.2202  0.2719
  218MOL0     H28774   2.429   3.044   2.011 -1.2025 -0.5439  0.3689
  218MOL0     H28775   2.224   2.712   1.566  1.3130  1.5964  1.8190
  218MOL0     H28776   2.022   2.639   1.680 -1.5296 -2.2640 -1.2282
  219MOL0     O28777   8.069   8.547   8.058  0.6024 -0.9233 -0.1169
  219MOL0     C28778   8.133   8.571   7.952 -0.4632 -0.4876 -0.4290
  219MOL0     O28779   8.090   8.539   7.829 -0.6179 -0.2820 -0.1442
  219MOL0     C28780   7.986   8.461   7.803  0.0936  0.3173  0.3117
  219MOL0     C28781   7.864   8.465   7.871  1.0483  0.0657 -0.8731
  219MOL0     C28782   7.755   8.381   7.832  0.9528  0.6411  0.2586
  219MOL0     C28783   7.773   8.291   7.726  0.3255  0.2239  0.0401
  219MOL0     O28784   7.674   8.202   7.682 -0.1423  0.3216 -0.6512
  219MOL0     C28785   7.672   8.074   7.749  0.1028 -0.5894  0.5009
  219MOL0     C28786   7.532   8.022   7.779 -0.1025 -0.6414 -0.0826
  219MOL0     C28787   7.421   8.042   7.668 -0.7768  0.4386  0.8291
  219MOL0     C28788   7.400   7.896   7.602 -0.3533 -0.5825  0.1344
  219MOL0     C28789   7.297   7.901   7.491 -0.2304  0.1101 -1.2351
  219MOL0     C28790   7.297   7.773   7.421  0.2606 -0.3714  0.0498
  219MOL0     C28791   7.239   7.791   7.272 -0.3199 -0.6642  1.1839
  219MOL0     C28792   7.098   7.858   7.275  0.2098 -0.2793 -0.7402
  219MOL0     N28793   6.988   7.781   7.329 -0.1045  0.1770  0.0459
  219MOL0     C28794   6.900   7.856   7.402 -0.2483  1.1333 -0.8053
  219MOL0     C28795   6.848   7.769   7.491  0.3115  0.1264  0.2708
  219MOL0     C28796   6.742   7.811   7.592  0.5333 -0.1136 -0.0540
  219MOL0     C28797   6.609   7.756   7.553  0.7330 -0.0183 -0.6186
  219MOL0     C28798   6.501   7.781   7.663 -0.1135  0.5469  0.8346
  219MOL0     C28799   6.368   7.727   7.617 -0.4166  0.3181  0.9491
  219MOL0     O28800   6.326   7.793   7.500 -0.1315  0.8828  0.5430
  219MOL0     C28801   6.187   7.780   7.482 -0.4827 -0.1415  0.6236
  219MOL0     C28802   6.130   7.889   7.406  0.1051 -0.1152  0.5867
  219MOL0     C28803   5.995   7.894   7.385  0.1754 -0.3673  0.2640
  219MOL0     C28804   5.912   7.790   7.432  0.5585  0.2706 -0.9417
  219MOL0     C28805   5.770   7.795   7.399  0.0005  0.6770 -0.3971
  219MOL0     O28806   5.693   7.696   7.443  0.2246 -0.3190 -0.3658
  219MOL0     C28807   5.552   7.726   7.451 -0.6064  1.0562 -0.4243
  219MOL0     C28808   5.472   7.690   7.346  0.1059  0.1285  0.1294
  219MOL0     C28809   5.336   7.708   7.358  0.3934 -0.3224 -0.4926
  219MOL0     C28810   5.271   7.747   7.472  0.7010  0.8837 -0.8560
  219MOL0     O28811   5.133   7.751   7.482  0.4212 -0.4549  0.1884
  219MOL0     C28812   5.052   7.657   7.401  0.0088  0.9187  0.0067
  219MOL0     C28813   4.990   7.724   7.276 -0.3066 -0.5348 -0.1501
  219MOL0     C28814   4.884   7.638   7.209  0.2043 -0.5371  0.2928
  219MOL0     C28815   4.779   7.591   7.295  0.3346  0.2165  0.2765
  219MOL0     C28816   4.660   7.533   7.218  0.8532  0.2709  0.2252
  219MOL0     C28817   4.576   7.437   7.317 -0.5606 -0.5425  0.0626
  219MOL0     C28818   4.477   7.341   7.252  0.6184  0.3930  0.5558
  219MOL0     C28819   4.413   7.239   7.339 -0.2351 -0.1865  0.2610
  219MOL0    Cl28820   4.266   7.165   7.256 -0.1208  0.1535 -0.6460
  219MOL0     C28821   5.356   7.774   7.580 -0.2352  0.1096  0.3132
  219MOL0     C28822   5.492   7.765   7.570 -0.8371 -0.0155 -0.7018
  219MOL0     O28823   5.726   7.887   7.331 -0.2763 -0.8219 -0.4749
  219MOL0     C28824   5.965   7.673   7.498  0.5572  0.1553  0.6341
  219MOL0     C28825   6.100   7.676   7.525 -0.7560 -0.2160 -0.3116
  219MOL0     N28826   6.899   7.645   7.463  0.1179 -0.0707 -0.3517
  219MOL0     N28827   6.992   7.653   7.375 -0.5858 -0.1016  0.3874
  219MOL0     C28828   7.897   8.282   7.659 -0.0712  0.1526 -1.0069
  219MOL0     C28829   7.998   8.366   7.702  0.3636  0.7063 -0.0790
  219MOL0     C28830   8.256   8.649   7.958  0.6223  0.0030 -0.0387
  219MOL0     C28831   8.300   8.711   8.084 -0.5769  0.5209  0.2643
  219MOL0     C28832   8.411   8.792   8.097 -0.4454  0.8562 -0.3099
  219MOL0     C28833   8.487   8.820   7.984  0.4779 -0.0213  0.1245
  219MOL0     O28834   8.595   8.892   8.016 -0.0106 -0.2871  0.8596
  219MOL0     C28835   8.716   8.862   7.943  0.0006 -0.1978  0.3627
  219MOL0     C28836   8.749   8.987   7.868 -0.1963 -0.3880 -0.3601
  219MOL0     C28837   8.662   9.014   7.749  0.0676  0.1609 -0.5406
  219MOL0     C28838   8.710   9.138   7.662  0.0773 -0.1210 -0.9318
  219MOL0     C28839   8.626   9.146   7.542 -0.1666 -0.0426  0.0716
  219MOL0     C28840   8.562   9.149   7.439  0.1114  0.6532  0.2594
  219MOL0     C28841   8.443   8.758   7.863 -1.2408  0.3465  0.0416
  219MOL0     C28842   8.337   8.670   7.852  0.0327 -0.0998  0.2589
  219MOL0     H28843   7.842   8.533   7.953 -0.1937 -1.2911 -0.0296
  219MOL0     H28844   7.660   8.383   7.883  0.0416 -1.0480 -1.2649
  219MOL0     H28845   7.731   8.068   7.841 -0.1767  0.1663  0.7339
  219MOL0     H28846   7.718   8.007   7.676 -0.5646 -0.7662  0.2369
  219MOL0     H28847   7.496   8.083   7.862  1.0417  0.0361 -0.0585
  219MOL0     H28848   7.532   7.919   7.816 -0.8298  0.3504  2.9367
  219MOL0     H28849   7.448   8.109   7.586 -2.2761 -0.3101 -0.3228
  219MOL0     H28850   7.334   8.088   7.716 -1.9196  0.9509 -1.5689
  219MOL0     H28851   7.497   7.866   7.562  0.5933  2.1397  0.1511
  219MOL0     H28852   7.372   7.827   7.681 -0.2326 -3.8303 -2.4670
  219MOL0     H28853   7.323   7.984   7.424 -0.2696  0.1916 -1.1492
  219MOL0     H28854   7.204   7.928   7.542  1.5559  2.2790  1.1466
  219MOL0     H28855   7.243   7.701   7.482  0.3830  0.6194  1.3590
  219MOL0     H28856   7.402   7.744   7.409  0.2843 -0.6864  0.9464
  219MOL0     H28857   7.303   7.846   7.202 -2.4433  1.5862  0.8745
  219MOL0     H28858   7.228   7.687   7.241 -3.0364 -0.2712  0.6075
  219MOL0     H28859   7.071   7.887   7.173 -0.5191 -3.9902 -1.7635
  219MOL0     H28860   7.103   7.949   7.336 -3.1871 -1.2599  1.3201
  219MOL0     H28861   6.868   7.960   7.401  1.3976  1.6708 -2.4708
  219MOL0     H28862   6.737   7.920   7.602 -2.4805 -0.2481  1.3357
  219MOL0     H28863   6.772   7.763   7.686 -1.8954 -3.0225 -0.5957
  219MOL0     H28864   6.627   7.648   7.544  3.1497  0.0984  1.4588
  219MOL0     H28865   6.576   7.799   7.459 -1.1078  0.6845  0.3036
  219MOL0     H28866   6.526   7.730   7.756 -2.0903 -1.0403  0.5432
  219MOL0     H28867   6.504   7.890   7.678  0.9802  0.5670  0.5947
  219MOL0     H28868   6.299   7.737   7.701  1.4963  0.0604  2.6359
  219MOL0     H28869   6.381   7.626   7.578 -2.2258  1.3500 -2.9472
  219MOL0     H28870   6.196   7.966   7.368 -1.9917  1.1966 -0.6148
  219MOL0     H28871   5.956   7.983   7.337 -2.1562 -1.6193 -0.3026
  219MOL0     H28872   5.516   7.662   7.250 -0.9388 -0.0664 -0.3105
  219MOL0     H28873   5.273   7.680   7.274  1.6239 -0.6033 -1.3608
  219MOL0     H28874   4.968   7.635   7.468  0.7986 -3.0674 -0.0409
  219MOL0     H28875   5.095   7.558   7.381  2.2695  1.4283  1.9708
  219MOL0     H28876   5.070   7.747   7.206  0.6310  0.5752  1.2304
  219MOL0     H28877   4.937   7.815   7.306  0.8013 -0.7804  3.0483
  219MOL0     H28878   4.936   7.547   7.178  3.0391  0.9337  0.3759
  219MOL0     H28879   4.840   7.689   7.123  1.6003 -1.5606 -1.0797
  219MOL0     H28880   4.809   7.514   7.367 -3.4907  0.8357  2.8772
  219MOL0     H28881   4.742   7.679   7.349  0.4217 -0.5490  1.6214
  219MOL0     H28882   4.701   7.474   7.135 -0.3171  1.4880 -1.2906
  219MOL0     H28883   4.597   7.613   7.179  1.2678  0.3816 -0.2427
  219MOL0     H28884   4.518   7.505   7.380  1.1563  1.3002 -0.2594
  219MOL0     H28885   4.644   7.380   7.381  1.5103  0.2002 -1.3860
  219MOL0     H28886   4.390   7.388   7.206 -0.8670 -0.6535  2.1884
  219MOL0     H28887   4.536   7.284   7.179 -1.6404  0.1949 -1.2547
  219MOL0     H28888   4.388   7.288   7.434  0.6516 -2.7169  1.9226
  219MOL0     H28889   4.477   7.154   7.366 -0.6737 -0.1964  1.3417
  219MOL0     H28890   5.312   7.799   7.676 -1.2833  0.4049 -0.2301
  219MOL0     H28891   5.560   7.801   7.646 -1.4222  0.6569 -0.4846
  219MOL0     H28892   5.904   7.592   7.537 -2.0903  2.4037  1.5326
  219MOL0     H28893   6.144   7.591   7.577 -0.8711 -0.7712 -1.0990
  219MOL0     H28894   7.923   8.211   7.581  0.5937  0.3649 -0.9888
  219MOL0     H28895   8.099   8.356   7.662  0.0823  0.4449 -0.7469
  219MOL0     H28896   8.254   8.692   8.181  0.9685 -2.4976  0.5353
  219MOL0     H28897   8.434   8.830   8.196 -2.0091  1.4181 -0.1341
  219MOL0     H28898   8.707   8.777   7.875 -1.6203 -0.7985  1.2772
  219MOL0     H28899   8.798   8.839   8.012  0.1793 -2.2386 -0.4671
  219MOL0     H28900   8.720   9.075   7.927 -3.7175 -1.1204 -0.7465
  219MOL0     H28901   8.857   8.994   7.852 -0.1466 -0.6619 -0.1496
  219MOL0     H28902   8.561   9.040   7.781  0.5133  1.4681 -0.1237
  219MOL0     H28903   8.652   8.918   7.696 -3.3620 -1.7280  3.0099
  219MOL0     H28904   8.690   9.229   7.720 -0.6423  1.8527 -4.0446
  219MOL0     H28905   8.813   9.128   7.626  0.9593 -0.7157  1.5630
  219MOL0     H28906   8.509   9.137   7.347  1.9392 -0.9766 -0.6625
  219MOL0     H28907   8.494   8.789   7.771  1.7330 -1.1345  1.0451
  219MOL0     H28908   8.314   8.636   7.751  0.3913  1.2792 -0.3246
  220MOL0     O28909   9.835  10.158   2.804 -0.9803  0.2075 -0.0573
  220MOL0     C28910   9.826  10.075   2.901 -0.0045 -0.6197  1.0215
  220MOL0     O28911   9.729  10.069   2.990  0.2502  0.1054 -0.3937
  220MOL0     C28912   9.639  10.172   2.999  0.3054  0.3394 -0.2659
  220MOL0     C28913   9.511  10.161   2.961 -0.1814  0.0712 -0.0436
  220MOL0     C28914   9.420  10.268   2.992  0.3215  1.1172  0.3625
  220MOL0     C28915   9.473  10.393   3.035 -0.2381  0.8577 -0.2911
  220MOL0     O28916   9.398  10.510   3.047 -0.3708  0.0253 -0.1235
  220MOL0     C28917   9.260  10.510   3.008 -0.5540 -0.4071  0.0198
  220MOL0     C28918   9.238  10.496   2.853  0.9960  0.0992 -0.1219
  220MOL0     C28919   9.087  10.462   2.829  0.3036 -0.8320 -1.1649
  220MOL0     C28920   9.063  10.455   2.682  0.7960 -0.8341  1.3005
  220MOL0     C28921   8.936  10.393   2.649 -0.6688 -0.2509  0.1056
  220MOL0     C28922   8.811  10.456   2.692  0.5026 -0.1896 -0.1236
  220MOL0     C28923   8.679  10.407   2.626  0.0644 -0.0485 -0.7523
  220MOL0     C28924   8.639  10.259   2.665  0.4006  0.4481  0.1892
  220MOL0     N28925   8.613  10.248   2.811 -0.6592  0.6559 -0.8515
  220MOL0     C28926   8.519  10.301   2.900  0.4301  0.5702  0.3724
  220MOL0     C28927   8.542  10.256   3.023  0.6195 -0.1937 -0.4770
  220MOL0     C28928   8.486  10.296   3.158  0.2263 -0.0453 -0.9934
  220MOL0     C28929   8.345  10.263   3.161 -0.3739  0.0136 -0.2554
  220MOL0     C28930   8.273  10.311   3.286 -0.8614 -0.5544 -0.0014
  220MOL0     C28931   8.123  10.292   3.277 -0.2404 -0.1520 -0.2490
  220MOL0     O28932   8.087  10.152   3.269  0.0023  0.6295  0.0603
  220MOL0     C28933   7.955  10.104   3.247 -1.1800 -0.5588 -0.5703
  220MOL0     C28934   7.850  10.201   3.210  0.2366  0.3141  0.0468
  220MOL0     C28935   7.717  10.159   3.196  0.1273 -0.3486 -0.7764
  220MOL0     C28936   7.675  10.034   3.238  1.1190 -0.0614  0.5387
  220MOL0     C28937   7.527   9.996   3.250  0.1458  0.5466  0.4557
  220MOL0     O28938   7.438  10.087   3.211  0.4578 -0.4347  0.0847
  220MOL0     C28939   7.300  10.067   3.193  0.5878 -0.2916 -0.2635
  220MOL0     C28940   7.224  10.183   3.170 -0.9324  0.5860  0.2812
  220MOL0     C28941   7.081  10.181   3.164 -0.1402 -0.0307  0.4008
  220MOL0     C28942   7.004  10.065   3.168 -0.4889 -0.1288 -0.4801
  220MOL0     O28943   6.867  10.082   3.155  0.2206  0.2294  0.6615
  220MOL0     C28944   6.793   9.959   3.161  1.1532  0.1660 -0.5076
  220MOL0     C28945   6.639   9.999   3.170 -0.1707  0.2649  0.5405
  220MOL0     C28946   6.547   9.885   3.195 -0.8148 -0.4662  0.5176
  220MOL0     C28947   6.397   9.918   3.192 -0.4674 -0.5973  0.3051
  220MOL0     C28948   6.313   9.792   3.172 -1.2261  0.4262 -0.3984
  220MOL0     C28949   6.163   9.828   3.161  0.0465 -0.0969  0.3048
  220MOL0     C28950   6.066   9.713   3.212  0.3359 -0.2780  0.5127
  220MOL0     C28951   6.030   9.712   3.363  0.2059 -0.2056  0.2250
  220MOL0    Cl28952   5.935   9.865   3.399  0.0617 -0.1749  0.2591
  220MOL0     C28953   7.079   9.948   3.188  0.0344  0.2331 -0.5423
  220MOL0     C28954   7.229   9.946   3.199  0.2237 -0.3911 -0.0864
  220MOL0     O28955   7.499   9.881   3.292 -0.1161 -0.6434 -0.2704
  220MOL0     C28956   7.774   9.941   3.273  0.2275  0.0914 -0.3972
  220MOL0     C28957   7.913   9.969   3.271  0.3354 -0.9137 -0.1175
  220MOL0     N28958   8.645  10.162   3.009  0.8138 -0.2768  0.6692
  220MOL0     N28959   8.689  10.162   2.885  1.1039  0.2561 -0.2309
  220MOL0     C28960   9.606  10.397   3.069  0.3367  0.2584 -0.1009
  220MOL0     C28961   9.684  10.281   3.062  0.3859 -1.0034  0.3886
  220MOL0     C28962   9.941   9.980   2.909  0.1211 -0.2317  0.4919
  220MOL0     C28963  10.041   9.963   2.814  0.7168  0.3349 -0.2860
  220MOL0     C28964  10.163   9.905   2.843  0.8385 -0.0641 -0.0029
  220MOL0     C28965  10.171   9.831   2.963 -0.3372 -0.2992 -0.4263
  220MOL0     O28966  10.286   9.765   3.002  0.7210  0.0002 -0.4493
  220MOL0     C28967  10.387   9.737   2.908 -0.6481  0.4997 -0.4795
  220MOL0     C28968  10.503   9.671   2.981 -0.1730 -0.5146  0.9625
  220MOL0     C28969  10.620   9.638   2.876  0.2722  0.8234 -0.3244
  220MOL0     C28970  10.747   9.599   2.958 -0.3525  0.6290  0.2736
  220MOL0     C28971  10.856   9.591   2.871  0.5028 -0.4668  0.0896
  220MOL0     C28972  10.954   9.583   2.808  0.1307  0.4318  0.1368
  220MOL0     C28973  10.065   9.832   3.046  0.4091  0.4099 -1.2029
  220MOL0     C28974   9.950   9.903   3.022  0.5579 -0.0320  0.1105
  220MOL0     H28975   9.469  10.072   2.916 -2.3556  1.2897 -0.5681
  220MOL0     H28976   9.315  10.253   2.972  0.2107 -1.3494  2.4007
  220MOL0     H28977   9.216  10.605   3.040  0.4568 -0.2593  1.0496
  220MOL0     H28978   9.208  10.436   3.070 -2.4113  0.7696 -0.0489
  220MOL0     H28979   9.299  10.414   2.814 -2.8610 -1.5166 -3.5113
  220MOL0     H28980   9.267  10.590   2.805  1.7234 -1.2661 -2.5198
  220MOL0     H28981   9.023  10.536   2.878  1.6350  0.1527 -0.8604
  220MOL0     H28982   9.067  10.366   2.876  0.8892  1.0297  3.3781
  220MOL0     H28983   9.070  10.550   2.629 -0.3298 -1.6459 -0.4063
  220MOL0     H28984   9.135  10.391   2.630  0.6954  0.2558 -0.2596
  220MOL0     H28985   8.943  10.299   2.706  0.0013  1.0943  2.3760
  220MOL0     H28986   8.929  10.375   2.542  0.9467 -0.0882 -0.0424
  220MOL0     H28987   8.821  10.560   2.661 -2.0929  0.1053 -0.2040
  220MOL0     H28988   8.802  10.458   2.801  0.5069 -3.3509  0.0227
  220MOL0     H28989   8.598  10.475   2.653  0.4516  1.0080 -2.1479
  220MOL0     H28990   8.684  10.418   2.517 -0.2943  3.0073 -0.5414
  220MOL0     H28991   8.728  10.205   2.631  1.1845  2.0282 -0.3451
  220MOL0     H28992   8.546  10.233   2.613  0.2481 -0.8828  1.0686
  220MOL0     H28993   8.442  10.375   2.880  0.0851  0.7255  2.0842
  220MOL0     H28994   8.513  10.400   3.182  3.0769 -1.2141  1.5488
  220MOL0     H28995   8.537  10.232   3.230 -0.4678 -0.3997 -0.8140
  220MOL0     H28996   8.332  10.155   3.153 -0.7862 -0.0743  1.2249
  220MOL0     H28997   8.293  10.310   3.077  0.5862  0.1458 -0.7842
  220MOL0     H28998   8.309  10.257   3.374 -1.0752 -0.3795  0.1978
  220MOL0     H28999   8.296  10.418   3.281 -2.8012 -0.1404 -1.0224
  220MOL0     H29000   8.074  10.345   3.194 -2.4762  1.7735  2.1456
  220MOL0     H29001   8.077  10.332   3.368  2.9319  2.3712  0.3788
  220MOL0     H29002   7.860  10.306   3.182  1.7112 -0.3066 -2.0699
  220MOL0     H29003   7.644  10.235   3.170 -1.1341 -2.2383 -3.1654
  220MOL0     H29004   7.279  10.277   3.167  1.3530 -0.5303  2.7042
  220MOL0     H29005   7.025  10.274   3.159 -0.6075 -0.3689 -1.5531
  220MOL0     H29006   6.819   9.907   3.254 -0.7599 -0.3392 -0.2161
  220MOL0     H29007   6.810   9.891   3.077  2.0155 -0.5130  0.2037
  220MOL0     H29008   6.618  10.053   3.078  0.1806  0.5862  0.6465
  220MOL0     H29009   6.621  10.072   3.249 -1.1204  1.5952 -0.8524
  220MOL0     H29010   6.565   9.850   3.298 -1.7905  1.4557  1.3853
  220MOL0     H29011   6.584   9.802   3.134  0.4690  1.1710 -1.0202
  220MOL0     H29012   6.373   9.984   3.276 -0.4196  2.2159 -1.7292
  220MOL0     H29013   6.385   9.979   3.101 -0.1221 -0.8775  0.0698
  220MOL0     H29014   6.330   9.732   3.262 -0.8344  0.2833 -0.5642
  220MOL0     H29015   6.350   9.730   3.090 -3.2185  0.0341 -1.0573
  220MOL0     H29016   6.135   9.859   3.060 -2.3494 -3.8592 -0.3902
  220MOL0     H29017   6.155   9.922   3.217  3.2782  0.7153 -0.4018
  220MOL0     H29018   5.975   9.718   3.152  0.8087  0.8540 -0.1573
  220MOL0     H29019   6.112   9.617   3.187 -1.5371 -0.8124 -1.2285
  220MOL0     H29020   6.123   9.709   3.419 -1.2631 -1.9815  2.7437
  220MOL0     H29021   5.981   9.619   3.392  0.0623 -0.0196  0.5823
  220MOL0     H29022   7.036   9.851   3.210  2.0359 -0.6313 -0.2002
  220MOL0     H29023   7.280   9.855   3.231 -0.5151 -1.3610 -1.5360
  220MOL0     H29024   7.741   9.845   3.312  0.0502 -0.8560 -2.7276
  220MOL0     H29025   7.986   9.889   3.284  2.1506  1.0646  2.8484
  220MOL0     H29026   9.648  10.490   3.107  1.7432 -0.3640 -0.0698
  220MOL0     H29027   9.788  10.282   3.090 -0.4030 -3.1419  4.0957
  220MOL0     H29028  10.034  10.017   2.721 -1.5562 -1.1656 -1.0767
  220MOL0     H29029  10.240   9.902   2.766  2.0428 -0.9340  1.2015
  220MOL0     H29030  10.421   9.832   2.865  1.1421  0.0353 -0.1985
  220MOL0     H29031  10.365   9.677   2.819  1.2644 -2.0976  0.6768
  220MOL0     H29032  10.551   9.744   3.047  0.8946 -1.8818  1.7526
  220MOL0     H29033  10.478   9.575   3.025  0.8603 -0.5929  1.4063
  220MOL0     H29034  10.643   9.728   2.817  0.4718  0.7604 -0.3459
  220MOL0     H29035  10.589   9.559   2.808 -2.1731  0.3273  1.2371
  220MOL0     H29036  10.754   9.681   3.030 -2.2041  0.5877  0.5504
  220MOL0     H29037  10.720   9.508   3.013 -3.4956  2.6047  2.3231
  220MOL0     H29038  11.047   9.572   2.757 -1.8924 -2.1195 -3.3994
  220MOL0     H29039  10.071   9.770   3.135 -1.3624 -0.0184 -1.3537
  220MOL0     H29040   9.870   9.910   3.095  1.3321  0.0678  0.9737
  221MOL0     O29041   2.232   6.657   5.689 -0.2667  0.2159  0.2344
  221MOL0     C29042   2.145   6.678   5.777 -0.4414 -0.5683 -0.1805
  221MOL0     O29043   2.019   6.630   5.779  0.0783 -0.5387 -0.0510
  221MOL0     C29044   1.960   6.578   5.668 -0.2704  0.7686  0.0920
  221MOL0     C29045   1.909   6.448   5.662 -0.0663 -0.1742  0.1486
  221MOL0     C29046   1.847   6.391   5.546  0.5801  0.6687 -0.0407
  221MOL0     C29047   1.833   6.476   5.431  0.4027 -0.0334 -0.3318
  221MOL0     O29048   1.763   6.431   5.319  0.1785  0.7267  0.1034
  221MOL0     C29049   1.796   6.301   5.274 -0.3970  1.2912 -0.1694
  221MOL0     C29050   1.932   6.323   5.205  0.0720 -0.2243  0.2136
  221MOL0     C29051   1.956   6.201   5.113 -0.8946  0.7089  0.0375
  221MOL0     C29052   2.093   6.224   5.042 -0.1557  0.0515 -0.2628
  221MOL0     C29053   2.126   6.098   4.965 -0.7779 -0.4802  0.3946
  221MOL0     C29054   2.246   6.122   4.875 -1.1761 -0.8514  0.0967
  221MOL0     C29055   2.293   5.979   4.828 -0.2775 -0.4837  0.4687
  221MOL0     C29056   2.380   5.985   4.701  0.2087 -0.8859 -0.0398
  221MOL0     N29057   2.315   6.037   4.577 -0.0488  0.0368  0.1928
  221MOL0     C29058   2.262   5.959   4.477  0.6176 -0.3299  0.5035
  221MOL0     C29059   2.249   6.043   4.372 -0.3237 -0.0928  0.0157
  221MOL0     C29060   2.203   6.016   4.237 -0.1137  0.0973  0.3388
  221MOL0     C29061   2.087   6.106   4.174 -1.2882  0.1676 -1.6753
  221MOL0     C29062   2.002   6.022   4.080 -0.1689 -0.2417  0.1564
  221MOL0     C29063   1.881   6.097   4.029  0.6713  0.5936  0.2316
  221MOL0     O29064   1.778   6.071   4.126  0.2673  0.0901  0.2976
  221MOL0     C29065   1.648   6.098   4.090  0.2339  0.8558  0.6337
  221MOL0     C29066   1.604   6.181   3.982 -0.2456  0.2460 -0.3692
  221MOL0     C29067   1.467   6.200   3.960 -0.3836 -0.0257  0.2613
  221MOL0     C29068   1.372   6.145   4.045 -1.2055  0.2464 -0.3042
  221MOL0     C29069   1.230   6.155   4.014  0.2479 -0.0525 -0.0837
  221MOL0     O29070   1.192   6.212   3.896  0.6633 -1.1006 -0.5719
  221MOL0     C29071   1.061   6.188   3.852  0.9031 -0.5463  0.1356
  221MOL0     C29072   0.945   6.222   3.929  0.1006  0.3610  0.0042
  221MOL0     C29073   0.820   6.189   3.875  0.2570 -0.5163 -0.1449
  221MOL0     C29074   0.802   6.147   3.744  1.1252 -0.4563 -0.3985
  221MOL0     O29075   0.669   6.129   3.704  0.8807  0.1671  0.2040
  221MOL0     C29076   0.658   6.050   3.581  0.0650  0.0666  0.5149
  221MOL0     C29077   0.520   6.018   3.537 -0.3192  0.5372  0.4552
  221MOL0     C29078   0.441   6.129   3.479 -0.2414 -0.2213 -0.4709
  221MOL0     C29079   0.310   6.156   3.551  0.6000 -0.6934 -0.6740
  221MOL0     C29080   0.252   6.285   3.511 -0.1068  0.1055 -0.4030
  221MOL0     C29081   0.214   6.284   3.364  0.1542 -1.0699 -0.6941
  221MOL0     C29082   0.137   6.415   3.329 -1.0957 -0.3323 -1.0145
  221MOL0     C29083   0.119   6.423   3.173 -0.3089 -0.8717 -0.1582
  221MOL0    Cl29084  -0.026   6.341   3.127 -0.4048  0.3650 -0.3875
  221MOL0     C29085   0.913   6.136   3.657 -0.8120 -0.8274 -0.1484
  221MOL0     C29086   1.041   6.152   3.717 -1.2392  0.4578 -1.6846
  221MOL0     O29087   1.156   6.090   4.083  0.0395  0.7750  0.6300
  221MOL0     C29088   1.417   6.070   4.151 -0.8822 -0.3960  0.4555
  221MOL0     C29089   1.546   6.054   4.180 -1.1474 -0.6602  0.3669
  221MOL0     N29090   2.276   6.170   4.416  0.8900 -0.1922  0.6913
  221MOL0     N29091   2.326   6.165   4.529 -0.4978 -0.5118 -0.8952
  221MOL0     C29092   1.886   6.609   5.438 -0.1645  0.2631  0.1842
  221MOL0     C29093   1.946   6.654   5.553  0.1370  0.2193 -0.2752
  221MOL0     C29094   2.176   6.757   5.901 -0.4098  0.2874 -0.6418
  221MOL0     C29095   2.086   6.784   6.000  0.3666  0.1670 -0.1314
  221MOL0     C29096   2.113   6.852   6.114 -0.2954 -0.1251  0.0998
  221MOL0     C29097   2.241   6.912   6.140  0.3119  1.0899  0.4541
  221MOL0     O29098   2.266   6.972   6.258 -0.3300  0.0926  0.4127
  221MOL0     C29099   2.389   7.046   6.282  0.8934 -0.6267  0.3405
  221MOL0     C29100   2.497   6.947   6.335  0.5001 -0.0937  0.4028
  221MOL0     C29101   2.625   7.028   6.364  1.1118 -0.1347  1.1648
  221MOL0     C29102   2.743   6.950   6.314 -0.0688 -0.6325  0.2826
  221MOL0     C29103   2.872   7.007   6.341 -0.0027 -0.0135  0.0070
  221MOL0     C29104   2.982   7.049   6.361 -0.2254 -0.2985 -0.0393
  221MOL0     C29105   2.339   6.882   6.042 -0.1220 -0.4109  0.0222
  221MOL0     C29106   2.302   6.809   5.923  0.3723 -0.1098  0.9377
  221MOL0     H29107   1.916   6.395   5.756 -1.6153  0.1477  0.4814
  221MOL0     H29108   1.812   6.290   5.563  1.8982  0.6553  3.2398
  221MOL0     H29109   1.719   6.266   5.204  1.6384 -0.7347 -1.5677
  221MOL0     H29110   1.802   6.220   5.347 -3.0720  1.9352  0.8668
  221MOL0     H29111   2.014   6.336   5.277  0.9362 -0.2538 -0.7439
  221MOL0     H29112   1.912   6.410   5.143 -2.9661 -1.8019 -1.2080
  221MOL0     H29113   1.870   6.183   5.047 -0.8504  0.2937  0.0894
  221MOL0     H29114   1.974   6.110   5.171 -2.2822  1.4674  1.7251
  221MOL0     H29115   2.072   6.302   4.968 -1.8503 -1.7205 -1.7570
  221MOL0     H29116   2.175   6.248   5.111 -0.0620  0.5211 -0.5318
  221MOL0     H29117   2.041   6.068   4.903 -0.8038 -2.0627  1.1455
  221MOL0     H29118   2.147   6.020   5.038  1.0589 -2.5017 -2.1130
  221MOL0     H29119   2.324   6.185   4.919  0.5354 -0.6047 -3.0091
  221MOL0     H29120   2.213   6.181   4.789  2.5388  0.2898 -0.7569
  221MOL0     H29121   2.351   5.938   4.911  0.5260  1.6750  1.0593
  221MOL0     H29122   2.212   5.911   4.802 -0.4821  1.5583 -6.0139
  221MOL0     H29123   2.405   5.880   4.682  0.9182 -0.4579 -1.6978
  221MOL0     H29124   2.472   6.041   4.719 -1.9214  2.6808  0.7797
  221MOL0     H29125   2.249   5.852   4.461 -1.4778  0.1400 -1.2789
  221MOL0     H29126   2.171   5.911   4.229  0.5037 -0.0611 -0.0815
  221MOL0     H29127   2.284   6.036   4.167 -1.6815  2.2754 -1.0051
  221MOL0     H29128   2.127   6.194   4.123  0.8474  0.3536  0.2010
  221MOL0     H29129   2.021   6.142   4.253  1.4635 -0.5440  1.1251
  221MOL0     H29130   2.067   6.006   3.994  2.2300 -1.3295  2.0475
  221MOL0     H29131   1.987   5.919   4.116 -1.2536 -0.3066 -0.4363
  221MOL0     H29132   1.856   6.035   3.942  0.2825 -0.8313  1.3301
  221MOL0     H29133   1.900   6.203   4.007  0.9258  0.8098  1.4307
  221MOL0     H29134   1.675   6.235   3.920 -2.4231  0.8987 -2.4155
  221MOL0     H29135   1.446   6.271   3.881  1.5147 -0.0495 -0.3216
  221MOL0     H29136   0.945   6.260   4.031 -1.4992  1.9649 -0.5599
  221MOL0     H29137   0.730   6.202   3.933  0.4445 -0.7039  0.1947
  221MOL0     H29138   0.707   5.952   3.586 -0.8213 -0.3833  0.6634
  221MOL0     H29139   0.701   6.110   3.500  0.9542 -0.8074  0.3203
  221MOL0     H29140   0.473   5.980   3.629 -2.9086 -0.7854 -1.2912
  221MOL0     H29141   0.535   5.934   3.469  0.4071 -0.1535  1.4381
  221MOL0     H29142   0.413   6.107   3.376 -2.3965 -0.5720  0.1295
  221MOL0     H29143   0.500   6.220   3.478 -1.2384  0.4387 -1.2419
  221MOL0     H29144   0.238   6.074   3.539 -0.1308 -0.1826  0.0993
  221MOL0     H29145   0.326   6.164   3.659 -1.3594 -0.1661 -0.3863
  221MOL0     H29146   0.307   6.377   3.531  2.1655 -1.5260  1.4937
  221MOL0     H29147   0.156   6.290   3.564 -2.7735 -1.0126 -4.6272
  221MOL0     H29148   0.146   6.199   3.359 -2.9805  1.2007  0.3552
  221MOL0     H29149   0.290   6.268   3.287 -2.6669 -1.3781 -3.6067
  221MOL0     H29150   0.048   6.425   3.392  2.2269  2.4479  3.8948
  221MOL0     H29151   0.199   6.501   3.359 -3.1722  0.8856  0.0358
  221MOL0     H29152   0.202   6.387   3.113 -0.4371 -1.0039 -0.2559
  221MOL0     H29153   0.115   6.531   3.151 -0.9633 -0.9251 -0.3316
  221MOL0     H29154   0.906   6.101   3.555 -1.9882  1.3337 -0.8698
  221MOL0     H29155   1.128   6.128   3.656 -1.0582  1.2170 -1.7404
  221MOL0     H29156   1.359   6.024   4.230  0.0673 -1.8540  0.3400
  221MOL0     H29157   1.580   6.002   4.269  2.0579 -0.2226 -0.4505
  221MOL0     H29158   1.863   6.678   5.357 -3.0365 -0.4332  0.3037
  221MOL0     H29159   1.979   6.757   5.539  0.9382 -0.2456 -2.1673
  221MOL0     H29160   1.985   6.743   5.988  0.6795 -0.2346 -1.6706
  221MOL0     H29161   2.033   6.880   6.182 -2.1272  0.7395 -2.2564
  221MOL0     H29162   2.362   7.129   6.348 -2.5928  0.0056 -1.6430
  221MOL0     H29163   2.432   7.093   6.193  0.6085 -1.3041 -0.1620
  221MOL0     H29164   2.452   6.896   6.421 -1.2247 -2.4308 -1.7033
  221MOL0     H29165   2.519   6.881   6.251  2.3842  1.1956 -0.1681
  221MOL0     H29166   2.627   7.027   6.473 -1.5228  0.3754  1.2936
  221MOL0     H29167   2.629   7.127   6.318  0.9973 -0.9244 -0.6464
  221MOL0     H29168   2.745   6.853   6.366  3.1626 -1.8188 -1.7319
  221MOL0     H29169   2.729   6.922   6.209 -1.1491 -2.0390  0.7665
  221MOL0     H29170   3.081   7.085   6.383  0.8714 -0.8960 -3.3524
  221MOL0     H29171   2.437   6.926   6.049 -0.0176 -0.6256 -0.0756
  221MOL0     H29172   2.372   6.803   5.839 -0.3423  1.3107  0.2091
  222MOL0     O29173   1.200   3.821   3.665 -0.4058 -0.5100 -0.1341
  222MOL0     C29174   1.293   3.863   3.588  0.2369  0.4599 -0.2422
  222MOL0     O29175   1.273   3.928   3.471  0.3875 -0.8334 -0.4651
  222MOL0     C29176   1.151   3.960   3.425 -0.4798  0.3778 -0.3300
  222MOL0     C29177   1.057   4.015   3.509  0.5777  0.1882 -0.6369
  222MOL0     C29178   0.928   4.053   3.463  0.2336 -0.0784 -0.1763
  222MOL0     C29179   0.894   4.035   3.334 -0.2060  0.0146  0.1749
  222MOL0     O29180   0.771   4.052   3.282  0.3115 -0.5566  0.3159
  222MOL0     C29181   0.660   4.085   3.361  0.1936 -0.9592 -0.2662
  222MOL0     C29182   0.658   4.236   3.405  0.4007  0.1152 -0.6716
  222MOL0     C29183   0.514   4.284   3.426 -0.5377 -0.8261 -0.1997
  222MOL0     C29184   0.438   4.305   3.295 -0.5691  0.1006 -0.0064
  222MOL0     C29185   0.292   4.325   3.315 -0.4911 -0.0390  0.1286
  222MOL0     C29186   0.209   4.348   3.193  1.2387 -0.2289  0.6030
  222MOL0     C29187   0.062   4.335   3.234  1.4134  0.0490 -0.3711
  222MOL0     C29188  -0.036   4.376   3.118  0.3637 -0.2959  0.0160
  222MOL0     N29189  -0.173   4.416   3.164  0.8023  0.0251  0.1955
  222MOL0     C29190  -0.273   4.317   3.143  0.2719 -0.9893  0.4592
  222MOL0     C29191  -0.379   4.371   3.200  0.2613 -1.2771 -0.2099
  222MOL0     C29192  -0.517   4.319   3.193 -0.3835  0.5061  0.6269
  222MOL0     C29193  -0.633   4.409   3.159 -0.5037 -0.9391 -0.7156
  222MOL0     C29194  -0.759   4.325   3.154 -0.1405  0.2655  0.6016
  222MOL0     C29195  -0.877   4.409   3.122  0.1320  0.5237 -0.3472
  222MOL0     O29196  -0.907   4.495   3.229 -0.6578  0.5753  0.1280
  222MOL0     C29197  -1.020   4.563   3.215  0.9424 -0.1129  0.0499
  222MOL0     C29198  -1.031   4.655   3.319 -0.2164  0.1467  0.8806
  222MOL0     C29199  -1.133   4.745   3.322 -0.1897  0.3221  0.6545
  222MOL0     C29200  -1.243   4.751   3.231 -0.6501  0.1877  0.0412
  222MOL0     C29201  -1.349   4.831   3.247  0.2598 -0.0635  0.0813
  222MOL0     O29202  -1.421   4.873   3.139  0.2715 -0.3527 -0.3517
  222MOL0     C29203  -1.547   4.914   3.149  0.5593 -0.7144 -0.0045
  222MOL0     C29204  -1.582   5.030   3.226 -0.8218  0.0264  0.9374
  222MOL0     C29205  -1.713   5.077   3.226  0.9577 -1.3505 -0.4477
  222MOL0     C29206  -1.819   5.009   3.154 -0.0882 -0.6983 -0.8515
  222MOL0     O29207  -1.945   5.072   3.148 -0.3846  0.0414 -0.4279
  222MOL0     C29208  -2.047   4.990   3.106 -0.0186  1.0378  0.0189
  222MOL0     C29209  -2.164   5.072   3.136 -0.5467  0.0709 -0.0741
  222MOL0     C29210  -2.288   4.987   3.119  0.4761  1.0179  0.0220
  222MOL0     C29211  -2.407   5.068   3.157 -0.2013  0.7105  0.0069
  222MOL0     C29212  -2.520   4.976   3.146  0.0947  0.5269  0.1774
  222MOL0     C29213  -2.621   5.007   3.262  0.3911 -0.6505  0.3074
  222MOL0     C29214  -2.747   4.922   3.247  0.3130 -0.5323 -1.0228
  222MOL0     C29215  -2.870   4.971   3.319 -0.7817 -0.7110 -0.0728
  222MOL0    Cl29216  -2.938   5.123   3.236  0.1650 -0.1905 -0.1456
  222MOL0     C29217  -1.785   4.891   3.089  1.0485 -0.0791 -0.2849
  222MOL0     C29218  -1.652   4.845   3.082 -0.1920  0.3507  0.1028
  222MOL0     O29219  -1.375   4.844   3.366 -0.3743 -0.3911 -0.2314
  222MOL0     C29220  -1.226   4.667   3.120 -0.0591  0.7236 -0.4584
  222MOL0     C29221  -1.112   4.578   3.115 -0.1386 -0.3254  0.1882
  222MOL0     N29222  -0.349   4.497   3.256  0.8497  0.5017  0.0402
  222MOL0     N29223  -0.223   4.507   3.242  0.2049 -0.3837 -0.2258
  222MOL0     C29224   0.990   3.992   3.246  0.0749 -0.6198 -0.2779
  222MOL0     C29225   1.120   3.959   3.291  0.5697  0.1518  0.3962
  222MOL0     C29226   1.433   3.838   3.637  0.1869 -1.0906 -0.2166
  222MOL0     C29227   1.539   3.862   3.556 -0.8382  0.8482 -0.4136
  222MOL0     C29228   1.671   3.832   3.596 -0.2190  0.2651 -1.2183
  222MOL0     C29229   1.701   3.792   3.728  0.9768  0.2031 -1.3299
  222MOL0     O29230   1.833   3.768   3.762 -0.2934 -0.7065 -0.4584
  222MOL0     C29231   1.889   3.755   3.895 -0.0800  0.1927  0.0285
  222MOL0     C29232   2.041   3.796   3.885  0.0737  0.3686  0.0215
  222MOL0     C29233   2.148   3.702   3.817 -0.5255 -0.1639 -0.5812
  222MOL0     C29234   2.174   3.758   3.677  0.2586 -0.7862 -0.8244
  222MOL0     C29235   2.290   3.691   3.621 -0.5630  1.1061 -0.2790
  222MOL0     C29236   2.371   3.632   3.546  0.7017  0.0474 -0.2245
  222MOL0     C29237   1.589   3.785   3.819  0.1202  0.1669  0.7553
  222MOL0     C29238   1.459   3.809   3.771  0.1472 -0.9697  0.6000
  222MOL0     H29239   1.075   4.039   3.613 -1.9779 -0.0973 -0.0621
  222MOL0     H29240   0.855   4.089   3.535  0.4516  0.9017 -0.4218
  222MOL0     H29241   0.645   4.010   3.441 -1.9202  0.3041  0.6176
  222MOL0     H29242   0.570   4.066   3.302 -0.1896  1.4620 -0.5449
  222MOL0     H29243   0.713   4.300   3.336  0.9341  0.2651 -0.1179
  222MOL0     H29244   0.721   4.256   3.492  0.7981  0.6356 -1.0693
  222MOL0     H29245   0.512   4.372   3.491 -0.9531 -0.4957 -0.6533
  222MOL0     H29246   0.456   4.208   3.479 -3.4261 -0.1857 -2.1890
  222MOL0     H29247   0.485   4.382   3.233  1.3817 -3.1604 -2.9360
  222MOL0     H29248   0.454   4.212   3.240  2.1957  0.0385  0.7385
  222MOL0     H29249   0.274   4.410   3.381  0.4605  0.7067 -0.5372
  222MOL0     H29250   0.263   4.237   3.372 -0.4546 -0.6473 -0.7759
  222MOL0     H29251   0.228   4.264   3.126  0.6765 -0.8628  1.2159
  222MOL0     H29252   0.235   4.444   3.147 -0.9147 -1.0441 -2.6004
  222MOL0     H29253   0.048   4.230   3.263  1.0310 -0.1591 -1.2479
  222MOL0     H29254   0.046   4.405   3.316 -0.1411  1.5575 -1.8862
  222MOL0     H29255  -0.036   4.294   3.047  3.5556 -0.9237  0.6028
  222MOL0     H29256  -0.006   4.465   3.062 -0.9011 -0.2642 -0.6634
  222MOL0     H29257  -0.269   4.232   3.076 -0.4249  0.5486 -1.6470
  222MOL0     H29258  -0.536   4.269   3.288 -2.4392  2.6857  1.4870
  222MOL0     H29259  -0.513   4.231   3.128  0.9847  0.0451  1.3172
  222MOL0     H29260  -0.614   4.461   3.065 -2.4593  1.4789  0.1069
  222MOL0     H29261  -0.646   4.490   3.232  3.4260 -0.4764 -0.3000
  222MOL0     H29262  -0.754   4.252   3.073 -2.6369 -0.3650  0.9183
  222MOL0     H29263  -0.771   4.267   3.246  1.8048 -0.8539  0.1984
  222MOL0     H29264  -0.961   4.340   3.107  2.3048 -2.4313  0.1718
  222MOL0     H29265  -0.846   4.466   3.034  1.5974 -0.7530 -0.7107
  222MOL0     H29266  -0.966   4.650   3.405  0.7680 -0.2963  0.1277
  222MOL0     H29267  -1.126   4.814   3.405  1.6952  2.2595 -0.9858
  222MOL0     H29268  -1.489   5.065   3.271  0.5277 -2.0737 -0.0753
  222MOL0     H29269  -1.732   5.167   3.283  1.3116 -0.4959 -1.6443
  222MOL0     H29270  -2.040   4.893   3.155 -0.9764  1.4807  1.0746
  222MOL0     H29271  -2.045   4.964   3.000  3.4639 -1.8076  0.5901
  222MOL0     H29272  -2.165   5.168   3.083  0.7491  0.3444  0.3590
  222MOL0     H29273  -2.145   5.096   3.241  1.7327  0.0052 -0.4144
  222MOL0     H29274  -2.274   4.904   3.189 -0.9855  1.7080  1.1939
  222MOL0     H29275  -2.295   4.958   3.013  1.1523  4.0997 -0.9771
  222MOL0     H29276  -2.384   5.106   3.257  2.8574  1.7792 -1.0040
  222MOL0     H29277  -2.426   5.156   3.095 -1.6659  0.5801  0.2374
  222MOL0     H29278  -2.493   4.870   3.151 -2.1046 -0.0557  0.6576
  222MOL0     H29279  -2.573   4.988   3.051  2.7799  0.1703 -1.4891
  222MOL0     H29280  -2.658   5.109   3.250 -4.3560 -2.2913 -1.2519
  222MOL0     H29281  -2.569   4.989   3.357 -1.8474 -1.1081  1.5165
  222MOL0     H29282  -2.774   4.923   3.141 -2.0445  1.3157 -0.4855
  222MOL0     H29283  -2.725   4.825   3.292 -1.0905  0.3425  1.8084
  222MOL0     H29284  -2.838   5.003   3.418  1.2265 -0.0893 -0.8704
  222MOL0     H29285  -2.938   4.885   3.318  0.4587 -1.8318 -3.6452
  222MOL0     H29286  -1.861   4.849   3.023  0.2560  1.3966 -0.3505
  222MOL0     H29287  -1.632   4.761   3.015  1.4929  0.4728  0.4142
  222MOL0     H29288  -1.294   4.670   3.036 -0.3371 -1.5590 -0.3839
  222MOL0     H29289  -1.092   4.519   3.025  0.5035  5.4216 -3.9882
  222MOL0     H29290   0.970   3.975   3.140 -0.8043 -3.3774  0.2243
  222MOL0     H29291   1.192   3.921   3.220 -0.7519 -1.2171 -0.2709
  222MOL0     H29292   1.520   3.901   3.457 -1.6058 -0.4583 -0.8025
  222MOL0     H29293   1.762   3.849   3.540 -1.0914  2.0143 -2.1756
  222MOL0     H29294   1.884   3.655   3.939  0.0235  1.5375  3.3937
  222MOL0     H29295   1.844   3.829   3.961  1.1233  0.8019  0.1881
  222MOL0     H29296   2.044   3.895   3.839 -2.4157  0.9956  1.0157
  222MOL0     H29297   2.081   3.812   3.986  0.6335  0.4202 -0.2110
  222MOL0     H29298   2.104   3.603   3.800  0.3939 -1.2132  2.5862
  222MOL0     H29299   2.230   3.697   3.889 -0.4781 -5.1802 -0.5894
  222MOL0     H29300   2.083   3.752   3.616 -0.8434  3.4442  0.0692
  222MOL0     H29301   2.195   3.864   3.690 -0.3930 -0.6735 -0.6666
  222MOL0     H29302   2.415   3.573   3.467 -0.0201 -0.5381 -0.2008
  222MOL0     H29303   1.592   3.764   3.925  0.4950  0.2779  0.7669
  222MOL0     H29304   1.377   3.808   3.842 -0.1185 -0.3080  0.3066
  223MOL0     O29305   5.038   5.841   9.902 -0.7150 -0.2153 -0.2073
  223MOL0     C29306   5.129   5.840   9.827 -0.1424 -1.0993 -0.1177
  223MOL0     O29307   5.119   5.813   9.695 -0.6136  0.6534  0.4690
  223MOL0     C29308   5.001   5.780   9.635  0.0792  0.4722  0.1701
  223MOL0     C29309   4.983   5.820   9.514 -0.4329  0.8751  0.5829
  223MOL0     C29310   4.879   5.760   9.439  0.8869 -0.3215  0.1092
  223MOL0     C29311   4.789   5.672   9.491 -0.7664  0.2212  0.0752
  223MOL0     O29312   4.693   5.617   9.412  1.1864 -0.8007  0.6279
  223MOL0     C29313   4.666   5.474   9.427 -1.0181  0.6685  0.1526
  223MOL0     C29314   4.524   5.457   9.489 -0.0448 -0.5846  0.0181
  223MOL0     C29315   4.421   5.443   9.371 -0.5792 -1.0888  0.3326
  223MOL0     C29316   4.279   5.415   9.426 -0.0368 -0.0483  0.6384
  223MOL0     C29317   4.185   5.368   9.307  0.4011  0.1273 -0.5576
  223MOL0     C29318   4.164   5.483   9.210 -0.6537  0.4083  0.8045
  223MOL0     C29319   4.050   5.445   9.118 -0.0653 -0.2755  0.5014
  223MOL0     C29320   4.043   5.536   9.002 -0.1023  0.4139  0.6121
  223MOL0     N29321   3.936   5.503   8.898  0.4033  0.1946 -0.1084
  223MOL0     C29322   3.936   5.546   8.768  0.7180  0.1426  0.4936
  223MOL0     C29323   3.802   5.531   8.726 -0.2260  0.0659  0.2747
  223MOL0     C29324   3.742   5.552   8.592 -0.3482 -0.0667 -0.2505
  223MOL0     C29325   3.589   5.581   8.576 -0.1250 -1.0056 -0.2338
  223MOL0     C29326   3.546   5.714   8.644  0.4257 -0.5228  0.5982
  223MOL0     C29327   3.429   5.797   8.586  0.0933  0.3103 -0.4092
  223MOL0     O29328   3.313   5.719   8.570 -0.5201  0.4294  0.1527
  223MOL0     C29329   3.193   5.786   8.582 -0.4039 -0.3610  0.2212
  223MOL0     C29330   3.093   5.744   8.670  0.4581 -0.2902 -0.0945
  223MOL0     C29331   2.973   5.810   8.660 -0.1105  0.6997 -0.5797
  223MOL0     C29332   2.946   5.923   8.594  0.3317  0.5733 -0.5822
  223MOL0     C29333   2.814   5.993   8.591 -0.0937  0.2419  1.1784
  223MOL0     O29334   2.793   6.115   8.522  0.7191  0.2564 -0.5070
  223MOL0     C29335   2.663   6.148   8.491  0.3034 -0.1408  1.3070
  223MOL0     C29336   2.578   6.190   8.587 -0.7009 -1.0673 -0.0487
  223MOL0     C29337   2.453   6.238   8.549  0.8943  0.5685  0.4647
  223MOL0     C29338   2.400   6.231   8.419  0.0505 -0.9213  0.6238
  223MOL0     O29339   2.278   6.277   8.368 -0.0548  0.4223 -0.4068
  223MOL0     C29340   2.190   6.340   8.462  0.3444 -0.0558  0.1793
  223MOL0     C29341   2.082   6.411   8.389 -0.5196  0.1377  0.2648
  223MOL0     C29342   2.111   6.531   8.300 -0.7236 -0.2005 -0.1908
  223MOL0     C29343   1.986   6.589   8.246  0.3509 -1.1200  1.2798
  223MOL0     C29344   1.932   6.709   8.329  0.2775  0.2980  0.5570
  223MOL0     C29345   1.806   6.767   8.263 -0.2424 -0.1712 -0.9876
  223MOL0     C29346   1.722   6.867   8.345 -0.1649 -1.4678 -0.9551
  223MOL0     C29347   1.632   6.966   8.264 -0.0960  0.8157 -0.2445
  223MOL0    Cl29348   1.490   6.870   8.184 -0.1107 -0.1737 -0.4158
  223MOL0     C29349   2.484   6.172   8.320 -0.0539  0.0590 -0.2132
  223MOL0     C29350   2.621   6.129   8.358  0.5770 -0.2040  0.1390
  223MOL0     O29351   2.726   5.935   8.643  0.2573 -0.1164 -0.0408
  223MOL0     C29352   3.057   5.981   8.531 -0.3030  0.5026 -0.1288
  223MOL0     C29353   3.176   5.910   8.516  0.6038 -0.4002  0.5118
  223MOL0     N29354   3.734   5.478   8.834 -0.7818  0.6339 -0.0700
  223MOL0     N29355   3.810   5.470   8.937  0.1373 -0.1088  0.2365
  223MOL0     C29356   4.810   5.631   9.620  0.1354 -0.9393 -0.6823
  223MOL0     C29357   4.910   5.689   9.697 -0.2908 -0.3221  0.5919
  223MOL0     C29358   5.260   5.882   9.862 -0.2266 -0.5984  0.1068
  223MOL0     C29359   5.284   5.951   9.978  0.6504  0.9176  0.4341
  223MOL0     C29360   5.410   5.998  10.015  0.0505  0.7933  0.2437
  223MOL0     C29361   5.522   5.992   9.930  0.1449 -0.2815  0.0257
  223MOL0     O29362   5.635   6.070   9.948 -0.3935  0.0948  0.5061
  223MOL0     C29363   5.737   6.069   9.857  0.1832  0.0885 -0.2825
  223MOL0     C29364   5.835   5.945   9.862 -1.5476  0.0024  0.0424
  223MOL0     C29365   5.955   5.970   9.759 -0.5321 -0.4240 -0.0241
  223MOL0     C29366   6.073   5.874   9.785 -1.0412  0.7359  0.1840
  223MOL0     C29367   6.198   5.919   9.715 -0.0234  0.2387 -0.5291
  223MOL0     C29368   6.300   5.945   9.654  0.5062 -0.6292  0.0745
  223MOL0     C29369   5.497   5.931   9.799  0.3347 -0.4908  0.0883
  223MOL0     C29370   5.368   5.868   9.773 -0.0408 -0.7026  0.4488
  223MOL0     H29371   5.047   5.897   9.473 -0.5403  0.2967 -0.7223
  223MOL0     H29372   4.850   5.793   9.339  2.0283 -0.9572 -0.4488
  223MOL0     H29373   4.737   5.420   9.490 -2.9230 -0.0163  1.8085
  223MOL0     H29374   4.670   5.424   9.330  0.7512  1.5470 -0.2727
  223MOL0     H29375   4.505   5.535   9.564  2.6735 -1.2359  1.5181
  223MOL0     H29376   4.519   5.362   9.543  1.6669 -0.7088  0.0162
  223MOL0     H29377   4.455   5.359   9.310 -0.2314  0.9030 -2.4267
  223MOL0     H29378   4.422   5.529   9.302 -1.1923 -1.9025 -0.7325
  223MOL0     H29379   4.282   5.344   9.509  1.5094 -1.3271 -0.4652
  223MOL0     H29380   4.229   5.505   9.464  0.8087  1.4816 -1.6726
  223MOL0     H29381   4.088   5.346   9.353  0.5368  1.6620  0.5629
  223MOL0     H29382   4.223   5.279   9.256  2.6473  0.5569  0.2832
  223MOL0     H29383   4.257   5.502   9.156 -0.8138  0.2330  0.4582
  223MOL0     H29384   4.139   5.570   9.272  2.3111  0.2113  2.4085
  223MOL0     H29385   4.062   5.343   9.081 -0.6949  0.6209 -2.4605
  223MOL0     H29386   3.954   5.462   9.168 -0.1076  2.5252 -0.3691
  223MOL0     H29387   4.136   5.531   8.945  0.3310 -0.0646  1.3561
  223MOL0     H29388   4.029   5.640   9.032 -3.4701  0.9331 -2.0671
  223MOL0     H29389   4.017   5.585   8.707  1.4727  1.5606  2.3198
  223MOL0     H29390   3.764   5.454   8.548 -2.0190 -1.1529  1.1909
  223MOL0     H29391   3.802   5.627   8.540  0.8393 -1.2287 -0.6302
  223MOL0     H29392   3.530   5.498   8.615 -3.6787  0.7331 -1.4728
  223MOL0     H29393   3.563   5.585   8.470  0.5420  2.5509 -0.3705
  223MOL0     H29394   3.514   5.699   8.747  0.7941 -1.9383  0.5388
  223MOL0     H29395   3.627   5.787   8.642  0.1396 -0.2174 -0.9819
  223MOL0     H29396   3.454   5.836   8.487  0.9246 -1.3707 -0.8948
  223MOL0     H29397   3.414   5.876   8.660 -0.4676  0.1557 -0.3482
  223MOL0     H29398   3.107   5.653   8.729  1.0465 -0.0876  0.0883
  223MOL0     H29399   2.887   5.766   8.710 -0.3944 -0.7015 -2.2200
  223MOL0     H29400   2.615   6.198   8.688  3.0213 -0.8419 -1.2644
  223MOL0     H29401   2.391   6.281   8.626  2.5891  0.9177  1.6911
  223MOL0     H29402   2.249   6.412   8.519  0.1577 -1.6305  2.4962
  223MOL0     H29403   2.146   6.277   8.540  1.0158  0.0195  0.6358
  223MOL0     H29404   2.012   6.446   8.465 -0.1328 -1.2131  1.2970
  223MOL0     H29405   2.027   6.330   8.340 -1.7942  0.9278  0.3367
  223MOL0     H29406   2.174   6.502   8.215  0.0179 -0.5635  0.4700
  223MOL0     H29407   2.162   6.614   8.349 -3.5791  1.5297  0.0896
  223MOL0     H29408   2.002   6.613   8.141 -0.4947 -1.4012  1.0731
  223MOL0     H29409   1.902   6.519   8.232  0.9746 -1.4671 -1.3090
  223MOL0     H29410   2.011   6.784   8.340  2.6920 -1.3025 -3.3992
  223MOL0     H29411   1.892   6.676   8.425 -1.4777  3.9204  1.2144
  223MOL0     H29412   1.737   6.691   8.227 -1.1958  0.1831  0.0199
  223MOL0     H29413   1.850   6.821   8.179  1.3724  0.9757  0.5030
  223MOL0     H29414   1.660   6.814   8.418  0.3120 -1.6741 -0.6917
  223MOL0     H29415   1.785   6.934   8.404 -1.7256  1.3492 -2.3128
  223MOL0     H29416   1.687   7.034   8.199 -0.7524  0.7899 -0.8434
  223MOL0     H29417   1.584   7.024   8.343  2.5049  0.8002  1.4400
  223MOL0     H29418   2.454   6.170   8.216  0.1011  2.7030 -0.3711
  223MOL0     H29419   2.681   6.100   8.273 -0.5021 -2.2135  0.0012
  223MOL0     H29420   3.034   6.068   8.471 -3.2844 -0.9098 -1.2513
  223MOL0     H29421   3.246   5.966   8.456  0.6733 -0.6640  0.3473
  223MOL0     H29422   4.746   5.553   9.661  0.8698 -2.3139 -2.0782
  223MOL0     H29423   4.934   5.643   9.792  2.2044 -0.7905 -0.1798
  223MOL0     H29424   5.217   5.953  10.063  1.0258 -1.6767  0.8615
  223MOL0     H29425   5.435   6.052  10.105 -3.3536 -0.1780  1.9384
  223MOL0     H29426   5.797   6.159   9.869  0.9829 -0.4690 -0.0021
  223MOL0     H29427   5.697   6.093   9.758  2.8129  1.4833 -1.0988
  223MOL0     H29428   5.864   5.931   9.966  2.7203  0.2952 -0.9124
  223MOL0     H29429   5.791   5.848   9.836  4.1004 -2.6277 -1.3834
  223MOL0     H29430   5.981   6.075   9.774 -2.8581  0.3899 -1.1927
  223MOL0     H29431   5.917   5.954   9.658  1.8436  0.8555 -1.1900
  223MOL0     H29432   6.080   5.849   9.891 -2.2861  0.6153  0.2521
  223MOL0     H29433   6.045   5.782   9.733 -0.6596  1.8430 -2.1165
  223MOL0     H29434   6.390   5.966   9.599 -0.3986  0.8032 -0.9184
  223MOL0     H29435   5.576   5.923   9.726  1.5233 -1.2803  1.4034
  223MOL0     H29436   5.365   5.822   9.675  2.6773  0.1136 -0.1012
  224MOL0     O29437   3.413   3.977   0.220 -0.6617 -1.0449 -0.5309
  224MOL0     C29438   3.468   3.884   0.281  0.3037 -0.0494  1.0492
  224MOL0     O29439   3.416   3.820   0.382 -0.4238  0.4639  0.6884
  224MOL0     C29440   3.284   3.816   0.385 -0.0808  0.8091  0.3810
  224MOL0     C29441   3.211   3.907   0.450 -0.6235 -0.6808  0.1959
  224MOL0     C29442   3.079   3.902   0.451  0.5126 -0.5302 -1.0224
  224MOL0     C29443   3.007   3.812   0.375 -1.0592  0.6496  0.7059
  224MOL0     O29444   2.871   3.814   0.370 -0.1264 -0.0672 -0.5726
  224MOL0     C29445   2.814   3.844   0.239 -0.6355  0.3783  0.6570
  224MOL0     C29446   2.667   3.813   0.248  0.3918  0.6756 -0.6062
  224MOL0     C29447   2.577   3.850   0.129 -0.0642  0.1051 -0.1126
  224MOL0     C29448   2.447   3.769   0.148  0.9118  0.4250  0.4037
  224MOL0     C29449   2.362   3.777   0.024  0.3050 -0.5891 -0.0296
  224MOL0     C29450   2.237   3.685   0.022  0.4601  0.2033 -0.0878
  224MOL0     C29451   2.138   3.740  -0.080  0.1600 -0.0275 -0.5027
  224MOL0     C29452   2.035   3.629  -0.107 -0.3852 -0.7530  0.5236
  224MOL0     N29453   1.936   3.675  -0.214 -0.3698  0.7360 -0.4247
  224MOL0     C29454   1.805   3.682  -0.200 -0.0638  0.6976  0.7967
  224MOL0     C29455   1.759   3.706  -0.326 -0.0614  0.4393  0.1617
  224MOL0     C29456   1.614   3.723  -0.357 -1.0169 -0.9981 -0.0776
  224MOL0     C29457   1.524   3.609  -0.323 -0.4174  0.2954  0.6565
  224MOL0     C29458   1.382   3.642  -0.379 -0.0087  0.2053  0.4036
  224MOL0     C29459   1.294   3.537  -0.303 -0.5841 -0.3034  1.1922
  224MOL0     O29460   1.174   3.542  -0.376  0.3982  0.5867 -0.1905
  224MOL0     C29461   1.058   3.598  -0.335  0.6940 -0.3860 -0.3362
  224MOL0     C29462   0.948   3.572  -0.421 -0.0435 -0.1904  0.3007
  224MOL0     C29463   0.817   3.610  -0.379  0.6275 -0.6508 -0.7311
  224MOL0     C29464   0.796   3.666  -0.256  0.6767 -0.0985 -0.5656
  224MOL0     C29465   0.658   3.692  -0.217 -0.2660  0.5172 -0.2148
  224MOL0     O29466   0.628   3.666  -0.087  0.3347 -0.8327  0.3809
  224MOL0     C29467   0.496   3.685  -0.042 -0.8448  0.7269 -0.8902
  224MOL0     C29468   0.392   3.614  -0.099 -1.2465 -0.4393 -0.0726
  224MOL0     C29469   0.257   3.655  -0.078 -0.1730 -0.8105 -0.5403
  224MOL0     C29470   0.223   3.756   0.012 -0.3870 -0.1045 -0.8513
  224MOL0     O29471   0.092   3.786   0.021  0.7777  0.7203 -0.1504
  224MOL0     C29472   0.059   3.902   0.091  0.4480 -0.4304  0.4529
  224MOL0     C29473  -0.089   3.939   0.058 -0.4230 -0.4949  0.1649
  224MOL0     C29474  -0.183   3.868   0.158 -0.8200  0.5426  0.5170
  224MOL0     C29475  -0.319   3.915   0.129  1.0976 -0.4160  0.3433
  224MOL0     C29476  -0.404   3.811   0.063 -0.4317 -0.0038 -0.4105
  224MOL0     C29477  -0.549   3.858   0.046 -0.7896 -0.3173  0.5026
  224MOL0     C29478  -0.622   3.849   0.179  0.4950  1.3304 -0.3493
  224MOL0     C29479  -0.772   3.868   0.151 -0.3357  0.3207 -0.1088
  224MOL0    Cl29480  -0.794   4.021   0.073 -0.0205 -0.1137 -0.1582
  224MOL0     C29481   0.331   3.820   0.077  0.9366 -1.2986 -0.2963
  224MOL0     C29482   0.462   3.792   0.048  0.4058  0.2612 -0.5807
  224MOL0     O29483   0.573   3.727  -0.295  0.3652 -0.0982 -0.8030
  224MOL0     C29484   0.906   3.695  -0.171 -0.5618 -0.3720 -0.2925
  224MOL0     C29485   1.032   3.662  -0.212 -0.1669 -0.3450  0.6052
  224MOL0     N29486   1.867   3.721  -0.416 -0.3047  0.4348  0.8531
  224MOL0     N29487   1.974   3.702  -0.339 -0.1097  0.4654 -0.6174
  224MOL0     C29488   3.080   3.716   0.299 -0.2092  0.1807  0.5841
  224MOL0     C29489   3.217   3.712   0.310  0.0320  1.0141 -0.0894
  224MOL0     C29490   3.608   3.855   0.234  0.5459 -0.2441  0.2553
  224MOL0     C29491   3.685   3.761   0.307  0.5552  0.1119 -0.3619
  224MOL0     C29492   3.810   3.723   0.264 -0.4813 -0.3187 -0.6045
  224MOL0     C29493   3.876   3.780   0.157  0.9681  0.2184 -0.4316
  224MOL0     O29494   4.006   3.734   0.138 -0.3823  0.4773  0.3669
  224MOL0     C29495   4.085   3.765   0.017  0.1268 -0.1769  0.2638
  224MOL0     C29496   4.204   3.675   0.016 -0.2226  0.0734  0.5598
  224MOL0     C29497   4.303   3.711  -0.100  0.1556 -0.3037 -0.6984
  224MOL0     C29498   4.394   3.594  -0.127  0.1064 -0.8569  0.5007
  224MOL0     C29499   4.490   3.625  -0.242  0.2363  0.0091 -0.6704
  224MOL0     C29500   4.563   3.674  -0.329  0.5920  0.6235 -0.1437
  224MOL0     C29501   3.804   3.873   0.078 -0.0125 -0.0102  0.2132
  224MOL0     C29502   3.676   3.916   0.119 -0.2828  0.5763  0.9721
  224MOL0     H29503   3.265   3.995   0.483  2.1290 -1.1728 -2.5428
  224MOL0     H29504   3.019   3.975   0.505 -0.7480 -0.7250 -2.1035
  224MOL0     H29505   2.859   3.788   0.156 -2.1759  2.2690 -1.5884
  224MOL0     H29506   2.833   3.948   0.212  1.1167 -0.4755 -1.7087
  224MOL0     H29507   2.629   3.864   0.337 -0.0830 -1.3340  0.3772
  224MOL0     H29508   2.656   3.709   0.280 -2.2740  0.9451 -0.3983
  224MOL0     H29509   2.622   3.824   0.033 -1.3364 -2.0040 -0.1928
  224MOL0     H29510   2.577   3.959   0.120  3.2767  0.0813 -1.9448
  224MOL0     H29511   2.468   3.663   0.166 -5.4007 -1.3002  0.0204
  224MOL0     H29512   2.381   3.801   0.230 -1.5454 -0.6715 -1.0092
  224MOL0     H29513   2.424   3.765  -0.065 -0.4915 -1.3603 -0.5076
  224MOL0     H29514   2.325   3.879   0.019 -0.4039 -0.6777  2.1369
  224MOL0     H29515   2.187   3.688   0.119 -0.3676  1.3692 -0.5331
  224MOL0     H29516   2.268   3.585  -0.011  0.0452  0.1479 -0.3103
  224MOL0     H29517   2.097   3.835  -0.044  2.7901  0.3055  1.9203
  224MOL0     H29518   2.188   3.765  -0.174 -2.7945 -1.7384 -2.7098
  224MOL0     H29519   1.978   3.599  -0.019 -1.8324 -0.2396 -0.2121
  224MOL0     H29520   2.081   3.537  -0.145  4.2424  1.1444  0.8881
  224MOL0     H29521   1.739   3.676  -0.114 -2.5770  3.5066 -0.7279
  224MOL0     H29522   1.608   3.751  -0.463  0.1766  3.2729  0.7785
  224MOL0     H29523   1.579   3.812  -0.303  0.2446 -0.2749 -0.4070
  224MOL0     H29524   1.510   3.611  -0.214 -0.6009  0.3356  0.6325
  224MOL0     H29525   1.570   3.517  -0.359  0.2245 -0.0709  2.2862
  224MOL0     H29526   1.345   3.740  -0.350 -2.3396  0.3917 -2.7272
  224MOL0     H29527   1.368   3.619  -0.485 -2.8585 -0.0622  0.7494
  224MOL0     H29528   1.280   3.554  -0.196  1.5657 -0.2039  1.5057
  224MOL0     H29529   1.347   3.443  -0.317  0.1559  0.3693 -1.0693
  224MOL0     H29530   0.970   3.520  -0.514 -0.6827 -2.1480  1.1791
  224MOL0     H29531   0.743   3.599  -0.457  2.6372  0.5768 -2.9405
  224MOL0     H29532   0.415   3.535  -0.170  1.2512  1.0803 -1.0999
  224MOL0     H29533   0.176   3.598  -0.122  1.1841 -0.8107 -3.2707
  224MOL0     H29534   0.112   3.985   0.043 -1.7045  0.1174 -1.1148
  224MOL0     H29535   0.080   3.886   0.198 -2.4679  1.9758  1.5244
  224MOL0     H29536  -0.105   3.900  -0.043 -0.2142 -0.9662  0.3115
  224MOL0     H29537  -0.101   4.047   0.056 -0.5660 -0.5189 -0.4945
  224MOL0     H29538  -0.158   3.896   0.261 -0.3546 -1.7437  1.0895
  224MOL0     H29539  -0.159   3.763   0.136 -2.0726  0.1074  1.1064
  224MOL0     H29540  -0.360   3.947   0.226  2.4126  0.4988  0.6241
  224MOL0     H29541  -0.316   4.003   0.064  0.0479 -0.2395  0.5161
  224MOL0     H29542  -0.396   3.716   0.117 -1.9028  0.1635  0.1275
  224MOL0     H29543  -0.357   3.791  -0.034 -0.3507 -1.3348 -0.1168
  224MOL0     H29544  -0.600   3.799  -0.031 -2.7900  0.6296  1.0469
  224MOL0     H29545  -0.554   3.958   0.001  3.0263  2.3028  4.9887
  224MOL0     H29546  -0.603   3.755   0.231 -0.0452  1.3173 -0.1765
  224MOL0     H29547  -0.584   3.929   0.243 -0.6280  0.7794  1.0355
  224MOL0     H29548  -0.829   3.858   0.243 -1.4691  0.5719 -0.7630
  224MOL0     H29549  -0.794   3.779   0.091 -2.4390  0.9935 -0.3891
  224MOL0     H29550   0.324   3.900   0.150  0.6150 -1.4113 -0.2032
  224MOL0     H29551   0.544   3.852   0.087  1.7873 -1.0407 -1.3610
  224MOL0     H29552   0.894   3.734  -0.070  3.6910 -1.6536  0.9024
  224MOL0     H29553   1.119   3.676  -0.150 -0.0723  2.2168 -0.0011
  224MOL0     H29554   3.026   3.649   0.233  0.6152 -0.4904  0.5830
  224MOL0     H29555   3.257   3.622   0.264  0.3830  0.1041  1.8995
  224MOL0     H29556   3.640   3.721   0.398  0.3791 -0.1762 -0.5727
  224MOL0     H29557   3.880   3.657   0.316  0.5376  0.7069 -0.6439
  224MOL0     H29558   4.114   3.871   0.017  0.3107 -0.1778 -1.7123
  224MOL0     H29559   4.020   3.748  -0.070 -1.8326  0.4947  1.5283
  224MOL0     H29560   4.265   3.681   0.107  0.1339 -1.0317  0.4009
  224MOL0     H29561   4.165   3.573   0.012 -1.1570  0.1895  3.8951
  224MOL0     H29562   4.362   3.802  -0.087  1.7374 -1.4625  0.8207
  224MOL0     H29563   4.244   3.723  -0.191 -1.2250  3.8041  0.5258
  224MOL0     H29564   4.463   3.569  -0.045  2.3676 -0.6082 -1.2143
  224MOL0     H29565   4.327   3.511  -0.151 -0.9463 -0.3289  1.4898
  224MOL0     H29566   4.622   3.721  -0.404 -0.5534 -0.0163 -1.4927
  224MOL0     H29567   3.845   3.918  -0.011 -1.5461 -1.4052 -1.2597
  224MOL0     H29568   3.632   4.000   0.065  2.0514  1.6890  0.7074
  225MOL0     O29569   1.308   6.998   2.852  0.2204  0.4904  0.9365
  225MOL0     C29570   1.270   7.040   2.959  0.2872 -0.1537  0.0135
  225MOL0     O29571   1.190   7.149   2.981 -0.1042 -0.4473  0.4862
  225MOL0     C29572   1.146   7.221   2.866  0.1336 -0.0341 -0.4097
  225MOL0     C29573   1.148   7.357   2.879  0.4808 -0.1459  0.2580
  225MOL0     C29574   1.080   7.426   2.776  0.0564  0.0024  0.0811
  225MOL0     C29575   1.032   7.362   2.658  0.1576 -0.5445  0.6989
  225MOL0     O29576   0.972   7.443   2.560  0.4324  0.7305 -0.2579
  225MOL0     C29577   0.952   7.402   2.418 -0.7743 -0.0363 -0.5811
  225MOL0     C29578   0.808   7.369   2.378 -0.6999  0.2952  0.4136
  225MOL0     C29579   0.718   7.489   2.355 -0.5287  0.3969  0.0066
  225MOL0     C29580   0.569   7.451   2.346 -0.7665 -0.1654  0.4820
  225MOL0     C29581   0.479   7.568   2.300  0.5734  0.5482  0.0992
  225MOL0     C29582   0.352   7.518   2.224  0.1907 -0.2767 -0.4822
  225MOL0     C29583   0.256   7.629   2.177 -0.1255  0.3165  0.8740
  225MOL0     C29584   0.212   7.716   2.297 -0.3994  0.3952 -0.0653
  225MOL0     N29585   0.086   7.789   2.278  0.1174 -0.5853 -0.3595
  225MOL0     C29586   0.077   7.923   2.277 -0.1405 -0.8487  0.2456
  225MOL0     C29587  -0.048   7.949   2.238 -0.1818 -0.0217  0.6632
  225MOL0     C29588  -0.100   8.089   2.206 -0.7043 -1.1177 -0.6904
  225MOL0     C29589  -0.223   8.129   2.287  0.2915  0.7019 -0.2942
  225MOL0     C29590  -0.285   8.250   2.228  0.2192 -0.2863  0.0973
  225MOL0     C29591  -0.363   8.223   2.097 -0.8913  0.3061  0.0596
  225MOL0     O29592  -0.449   8.332   2.070 -0.8711 -0.6794  1.0748
  225MOL0     C29593  -0.554   8.355   2.147 -0.8940 -0.4629  0.1751
  225MOL0     C29594  -0.601   8.483   2.132  0.2791 -0.1003  0.6606
  225MOL0     C29595  -0.713   8.530   2.204  0.0032 -0.5094  0.7707
  225MOL0     C29596  -0.789   8.444   2.290  0.3344 -0.2873  0.5523
  225MOL0     C29597  -0.915   8.486   2.356 -0.3970  0.0539 -0.1795
  225MOL0     O29598  -0.957   8.600   2.320 -0.0044 -0.7026  1.0919
  225MOL0     C29599  -1.061   8.660   2.380  1.0485  0.3011 -0.2887
  225MOL0     C29600  -1.187   8.619   2.350 -0.4108  0.1314 -0.1166
  225MOL0     C29601  -1.304   8.689   2.387 -0.5941 -1.0943  0.5239
  225MOL0     C29602  -1.291   8.810   2.464  0.9733  0.0532  0.2179
  225MOL0     O29603  -1.395   8.890   2.497  0.1920  0.4787 -0.0721
  225MOL0     C29604  -1.505   8.812   2.563 -0.1061  0.7305 -1.0325
  225MOL0     C29605  -1.594   8.915   2.647 -0.2805  0.8577  1.1511
  225MOL0     C29606  -1.710   8.839   2.722 -0.0280 -0.1773 -0.4571
  225MOL0     C29607  -1.782   8.936   2.808  0.4727  0.1131 -0.4520
  225MOL0     C29608  -1.898   8.879   2.880 -0.9999 -0.1618 -0.4873
  225MOL0     C29609  -1.936   8.966   2.996 -0.2914 -0.0944 -0.4035
  225MOL0     C29610  -2.046   8.886   3.071 -0.5407 -0.2003 -1.0281
  225MOL0     C29611  -2.100   8.951   3.200 -0.0495 -0.3414  0.1918
  225MOL0    Cl29612  -1.981   8.990   3.324 -0.0162 -0.2053  0.5953
  225MOL0     C29613  -1.161   8.853   2.495 -0.1664  0.1565 -0.6433
  225MOL0     C29614  -1.042   8.781   2.456 -0.7506 -0.1281  0.3245
  225MOL0     O29615  -0.970   8.406   2.431  0.2887 -0.2080 -0.7594
  225MOL0     C29616  -0.743   8.310   2.293  0.2498  0.1953 -0.3139
  225MOL0     C29617  -0.631   8.266   2.221  0.2728 -0.1733  0.2793
  225MOL0     N29618  -0.114   7.823   2.222  0.1028 -0.5182 -0.5592
  225MOL0     N29619  -0.034   7.727   2.255  0.2044 -0.3190  0.8311
  225MOL0     C29620   1.043   7.225   2.648  1.8419  0.0818  0.0185
  225MOL0     C29621   1.100   7.158   2.753 -0.1324 -0.1077  0.1519
  225MOL0     C29622   1.324   6.981   3.082 -0.5951  0.9419  0.1082
  225MOL0     C29623   1.270   7.004   3.206 -1.3267  0.0872 -0.5951
  225MOL0     C29624   1.330   6.959   3.325  0.4115 -0.1508 -0.0306
  225MOL0     C29625   1.448   6.888   3.317 -0.3579 -0.0196  0.3094
  225MOL0     O29626   1.505   6.827   3.424 -0.1531 -0.3611  0.3253
  225MOL0     C29627   1.480   6.875   3.559  0.6449  0.2549  0.7188
  225MOL0     C29628   1.529   7.017   3.584 -0.4837  0.3393  0.4945
  225MOL0     C29629   1.688   7.016   3.603  0.9972  0.3852  0.3635
  225MOL0     C29630   1.729   7.050   3.750 -0.5993 -0.6416 -0.2851
  225MOL0     C29631   1.874   7.071   3.764  0.2465 -0.6788  1.0571
  225MOL0     C29632   1.993   7.069   3.745 -0.0588  0.3559  0.4360
  225MOL0     C29633   1.502   6.859   3.193 -0.0208  0.0007 -0.5558
  225MOL0     C29634   1.438   6.900   3.078 -1.0024 -0.1394 -0.3849
  225MOL0     H29635   1.176   7.408   2.970  2.2486  1.3307 -1.0404
  225MOL0     H29636   1.071   7.534   2.777 -0.6764 -0.0186 -1.6326
  225MOL0     H29637   1.014   7.318   2.384 -0.7988  0.2909 -1.4415
  225MOL0     H29638   0.994   7.481   2.355 -0.3526 -1.1918 -1.7863
  225MOL0     H29639   0.767   7.308   2.459 -2.8032  0.0647 -0.7433
  225MOL0     H29640   0.803   7.312   2.284 -1.5751  1.0653 -0.0348
  225MOL0     H29641   0.745   7.540   2.262  1.7228 -2.7076 -1.2204
  225MOL0     H29642   0.734   7.570   2.427 -1.7961  0.5223  0.1774
  225MOL0     H29643   0.563   7.371   2.272  0.9331 -0.1224  0.2565
  225MOL0     H29644   0.548   7.406   2.443 -0.9695 -1.6995 -0.2543
  225MOL0     H29645   0.522   7.636   2.226 -0.4904 -0.5667 -1.6358
  225MOL0     H29646   0.445   7.632   2.382 -0.3324 -0.8666  0.8802
  225MOL0     H29647   0.291   7.449   2.283  0.1367 -1.1503 -1.5373
  225MOL0     H29648   0.389   7.464   2.137 -3.0311 -1.0400 -1.5378
  225MOL0     H29649   0.315   7.688   2.107  0.1812 -0.9949 -0.0199
  225MOL0     H29650   0.174   7.586   2.119  3.0669 -1.5453 -2.6667
  225MOL0     H29651   0.290   7.786   2.325  1.7143 -2.1040  0.6610
  225MOL0     H29652   0.191   7.652   2.383 -1.5689  1.3589  0.3934
  225MOL0     H29653   0.155   7.995   2.296 -0.0538 -0.5944 -0.9981
  225MOL0     H29654  -0.116   8.095   2.098  3.0291 -1.8473 -1.4492
  225MOL0     H29655  -0.027   8.166   2.235 -1.3141 -0.3680 -1.1248
  225MOL0     H29656  -0.197   8.149   2.391  1.5480  0.2910 -0.5001
  225MOL0     H29657  -0.291   8.043   2.283  2.9197 -1.5309 -0.2741
  225MOL0     H29658  -0.354   8.289   2.303  1.7636  0.2682  1.3011
  225MOL0     H29659  -0.208   8.327   2.213 -0.7701  1.3678  2.8010
  225MOL0     H29660  -0.431   8.139   2.112  1.2638 -1.4333  0.6969
  225MOL0     H29661  -0.297   8.200   2.012 -0.7951 -2.5329  0.7830
  225MOL0     H29662  -0.544   8.548   2.066  0.1097 -1.2092 -0.6348
  225MOL0     H29663  -0.741   8.631   2.174  0.6844 -1.0840 -2.1238
  225MOL0     H29664  -1.197   8.523   2.301  1.1292 -0.3201  0.3887
  225MOL0     H29665  -1.402   8.657   2.353 -0.7099  1.9656 -2.4971
  225MOL0     H29666  -1.461   8.748   2.640  1.8581  1.9235 -1.0960
  225MOL0     H29667  -1.561   8.755   2.489  0.7445 -0.2809 -0.9154
  225MOL0     H29668  -1.628   9.000   2.587  1.1597  0.8409  0.2892
  225MOL0     H29669  -1.525   8.954   2.723  0.9513  1.1694 -0.0898
  225MOL0     H29670  -1.676   8.756   2.784 -2.3940 -1.0222 -0.1865
  225MOL0     H29671  -1.780   8.789   2.654  0.2451 -1.0855 -0.0745
  225MOL0     H29672  -1.717   8.988   2.878  1.2590  0.2917 -1.2976
  225MOL0     H29673  -1.829   9.016   2.749 -0.6437  1.0263  1.5915
  225MOL0     H29674  -1.876   8.783   2.927  1.9659  0.5310 -0.2508
  225MOL0     H29675  -1.980   8.878   2.807 -0.5555 -1.0254 -0.9846
  225MOL0     H29676  -1.976   9.061   2.960 -1.6943 -1.1018 -1.6673
  225MOL0     H29677  -1.842   8.980   3.050 -1.9058  0.5347  2.4689
  225MOL0     H29678  -2.129   8.864   3.003 -1.4740 -1.5339  0.4830
  225MOL0     H29679  -2.001   8.790   3.096  3.2932  2.2452  2.9399
  225MOL0     H29680  -2.169   8.874   3.234 -2.7529  2.0363  0.4852
  225MOL0     H29681  -2.162   9.036   3.171  4.4791  2.7723 -1.5705
  225MOL0     H29682  -1.142   8.947   2.546 -1.7196 -1.1899  2.7289
  225MOL0     H29683  -0.943   8.819   2.480 -0.4535 -0.6105 -0.1197
  225MOL0     H29684  -0.807   8.239   2.344  0.1599 -2.9335 -4.2399
  225MOL0     H29685  -0.601   8.162   2.233 -1.2978 -1.1807 -3.3090
  225MOL0     H29686   0.984   7.171   2.573 -1.3467  0.8217  1.8076
  225MOL0     H29687   1.114   7.052   2.738 -0.2050  0.0338 -1.0950
  225MOL0     H29688   1.181   7.066   3.206 -2.3084 -1.1592 -3.0193
  225MOL0     H29689   1.293   6.985   3.424  0.0251 -0.1873 -0.1666
  225MOL0     H29690   1.529   6.797   3.618 -0.6217 -0.7842  0.4363
  225MOL0     H29691   1.374   6.874   3.586 -0.2131  2.5235 -2.1301
  225MOL0     H29692   1.516   7.081   3.497 -3.4004 -1.8924 -0.8951
  225MOL0     H29693   1.479   7.063   3.670 -0.1796  0.7093  0.4737
  225MOL0     H29694   1.737   7.080   3.529 -1.3973  2.8591  0.7199
  225MOL0     H29695   1.722   6.913   3.589  2.8428  0.7098  2.0387
  225MOL0     H29696   1.676   7.136   3.792 -2.1309 -2.7186  2.3615
  225MOL0     H29697   1.690   6.964   3.805 -3.2437  0.4255 -0.3378
  225MOL0     H29698   2.097   7.078   3.722 -0.1131  0.1145  0.0968
  225MOL0     H29699   1.600   6.811   3.189  0.4929  1.1002 -2.0933
  225MOL0     H29700   1.474   6.883   2.977 -1.3835 -0.8078 -0.4098
  226MOL0     O29701   2.923   0.455   6.572 -0.3949  0.0196 -0.0581
  226MOL0     C29702   2.974   0.524   6.658  0.1041 -0.6467  0.0594
  226MOL0     O29703   2.938   0.648   6.693  0.0982  0.1696 -0.1188
  226MOL0     C29704   2.837   0.703   6.624  0.8183 -0.2938 -0.1689
  226MOL0     C29705   2.702   0.675   6.660  0.5517  0.8192  0.4884
  226MOL0     C29706   2.599   0.712   6.579  0.5560 -1.1999  0.4656
  226MOL0     C29707   2.626   0.784   6.464 -0.8784 -0.6461  0.4979
  226MOL0     O29708   2.522   0.827   6.383  1.0710 -0.3031  0.0506
  226MOL0     C29709   2.452   0.729   6.308  0.0267  0.2070 -1.1492
  226MOL0     C29710   2.324   0.805   6.269  0.1513  0.3084  0.4683
  226MOL0     C29711   2.238   0.724   6.160  0.0350  0.0678 -0.2865
  226MOL0     C29712   2.149   0.620   6.225 -0.2056 -0.0946  0.7153
  226MOL0     C29713   2.055   0.559   6.121 -1.0143  0.3234 -0.2515
  226MOL0     C29714   1.969   0.663   6.055 -0.5087 -0.0622  0.3751
  226MOL0     C29715   1.883   0.590   5.953  0.3861  0.2519 -0.5816
  226MOL0     C29716   1.792   0.680   5.866  0.0817  0.6704 -1.0216
  226MOL0     N29717   1.690   0.613   5.783  0.3546  0.2969  0.1572
  226MOL0     C29718   1.599   0.680   5.702  0.0609  0.6770  0.5063
  226MOL0     C29719   1.517   0.586   5.658 -0.2039 -0.0586  0.3139
  226MOL0     C29720   1.391   0.611   5.580  0.4738  0.1107 -0.3540
  226MOL0     C29721   1.267   0.646   5.660 -0.0408 -0.0803  0.4012
  226MOL0     C29722   1.145   0.679   5.574  0.6787  0.7602  0.3721
  226MOL0     C29723   1.087   0.543   5.518  0.4547  0.7989 -1.1337
  226MOL0     O29724   1.008   0.579   5.412 -0.3193  0.2260 -0.3118
  226MOL0     C29725   0.875   0.597   5.435  0.0362 -0.4520  0.4254
  226MOL0     C29726   0.800   0.609   5.317 -0.6335 -0.7128 -0.5313
  226MOL0     C29727   0.670   0.654   5.315 -0.7350 -0.1591  0.4205
  226MOL0     C29728   0.595   0.672   5.435 -0.3231 -0.6629 -0.5133
  226MOL0     C29729   0.455   0.718   5.436 -0.1865  0.0879 -1.3346
  226MOL0     O29730   0.404   0.773   5.553  0.3329  0.1701 -0.1047
  226MOL0     C29731   0.283   0.823   5.550 -0.0316  0.2510  0.1703
  226MOL0     C29732   0.259   0.952   5.503  0.0636  0.0031 -0.5703
  226MOL0     C29733   0.123   1.011   5.503 -0.0048 -0.0174 -0.3715
  226MOL0     C29734   0.020   0.942   5.571 -0.1668  0.1903 -0.0993
  226MOL0     O29735  -0.106   0.987   5.600 -0.1915  0.2136 -0.3739
  226MOL0     C29736  -0.145   1.110   5.540  0.9908 -0.0087  0.6250
  226MOL0     C29737  -0.286   1.141   5.582 -0.3313 -0.1112 -0.5817
  226MOL0     C29738  -0.341   1.269   5.508  0.0572 -0.5381  0.0017
  226MOL0     C29739  -0.483   1.280   5.559 -0.7857 -0.1962  0.7225
  226MOL0     C29740  -0.559   1.393   5.482 -0.2363  0.6159 -1.0151
  226MOL0     C29741  -0.704   1.394   5.527  0.0811 -0.0592 -0.2336
  226MOL0     C29742  -0.773   1.504   5.457  0.1434  0.5557 -0.1859
  226MOL0     C29743  -0.927   1.504   5.488  0.4240 -0.0280 -0.4037
  226MOL0    Cl29744  -1.024   1.354   5.438 -0.5147  0.0973  0.1325
  226MOL0     C29745   0.052   0.821   5.628 -0.7375  0.2417 -0.1166
  226MOL0     C29746   0.177   0.763   5.621  0.0706  0.1644  1.0678
  226MOL0     O29747   0.404   0.731   5.324  0.2826  0.0082 -0.3768
  226MOL0     C29748   0.668   0.661   5.559 -0.0436 -1.1143  0.1990
  226MOL0     C29749   0.811   0.624   5.556  0.6486  0.1288 -0.0417
  226MOL0     N29750   1.561   0.460   5.692  0.0966  0.0177  0.6529
  226MOL0     N29751   1.655   0.479   5.786 -0.0439 -0.2637 -0.6815
  226MOL0     C29752   2.762   0.816   6.425  0.0510 -0.1539  0.5856
  226MOL0     C29753   2.867   0.779   6.507  0.0897  1.0530  0.2156
  226MOL0     C29754   3.076   0.471   6.757  0.1704  0.1381  0.2881
  226MOL0     C29755   3.111   0.334   6.759 -0.4287 -0.6363 -0.3085
  226MOL0     C29756   3.202   0.284   6.855 -0.6209 -0.1990  0.0805
  226MOL0     C29757   3.268   0.366   6.938  0.2032 -0.1023 -0.6430
  226MOL0     O29758   3.342   0.320   7.046  0.3314 -0.8370  0.1167
  226MOL0     C29759   3.312   0.187   7.100 -1.1761 -0.3426  0.5554
  226MOL0     C29760   3.384   0.176   7.236 -0.9626 -0.0476  0.0167
  226MOL0     C29761   3.328   0.270   7.349  0.1773 -0.1270  0.6521
  226MOL0     C29762   3.387   0.239   7.491  0.2020 -0.7793  0.1469
  226MOL0     C29763   3.526   0.295   7.508 -0.0227  0.3647 -0.1427
  226MOL0     C29764   3.637   0.332   7.520 -0.4745 -0.4754  0.3100
  226MOL0     C29765   3.243   0.502   6.932 -0.6976  0.4461 -0.1377
  226MOL0     C29766   3.135   0.548   6.858 -0.3547 -0.4262 -0.8243
  226MOL0     H29767   2.682   0.618   6.750 -1.5372  1.9924  0.8363
  226MOL0     H29768   2.503   0.678   6.616 -0.7968 -0.4609 -2.1389
  226MOL0     H29769   2.438   0.650   6.381 -0.4617  1.3474  0.0263
  226MOL0     H29770   2.501   0.681   6.222 -2.8790 -3.0222 -1.1835
  226MOL0     H29771   2.343   0.906   6.230 -0.6318  1.1343  2.1200
  226MOL0     H29772   2.258   0.825   6.354 -0.2479  0.7782  0.0537
  226MOL0     H29773   2.305   0.693   6.080  2.7545  2.4264  0.8913
  226MOL0     H29774   2.174   0.801   6.115  1.9864  2.6954  1.1737
  226MOL0     H29775   2.214   0.544   6.268 -1.0757  0.1889  2.6416
  226MOL0     H29776   2.097   0.662   6.312  0.4902 -0.2355  1.2109
  226MOL0     H29777   1.981   0.490   6.161 -1.4340 -0.4813 -2.2916
  226MOL0     H29778   2.116   0.512   6.044 -1.0703  0.6197 -0.4777
  226MOL0     H29779   2.043   0.721   6.000  1.2890 -0.8636  1.8641
  226MOL0     H29780   1.904   0.713   6.127 -0.4433 -1.7177  1.6287
  226MOL0     H29781   1.936   0.546   5.869 -1.7169 -2.8450 -0.4621
  226MOL0     H29782   1.828   0.514   6.010  1.7395  1.3165  2.3937
  226MOL0     H29783   1.856   0.734   5.795  0.8553 -1.8398 -2.3468
  226MOL0     H29784   1.750   0.753   5.936  0.1825  2.3897 -2.6729
  226MOL0     H29785   1.578   0.781   5.666  0.5083  0.2439 -1.0337
  226MOL0     H29786   1.371   0.517   5.528  0.3676 -0.5056  0.7574
  226MOL0     H29787   1.424   0.684   5.506  2.4931 -1.6184 -1.2607
  226MOL0     H29788   1.294   0.724   5.732  0.8871 -0.3190  0.3286
  226MOL0     H29789   1.234   0.565   5.725 -1.2766 -1.1137 -1.4217
  226MOL0     H29790   1.068   0.733   5.630  0.2213  0.5276 -0.0220
  226MOL0     H29791   1.166   0.742   5.487 -1.8520  1.1032 -0.0638
  226MOL0     H29792   1.037   0.494   5.602  1.4673 -0.6081 -1.3040
  226MOL0     H29793   1.164   0.471   5.486  0.6005  0.0737  0.7002
  226MOL0     H29794   0.849   0.609   5.220  0.6281 -0.8122  0.0749
  226MOL0     H29795   0.623   0.680   5.220 -0.6263 -0.5974  0.2463
  226MOL0     H29796   0.340   1.014   5.467  0.3763  1.4180  2.3059
  226MOL0     H29797   0.096   1.112   5.473  0.1101  0.7795  2.0256
  226MOL0     H29798  -0.139   1.093   5.432 -0.5645 -1.6408  0.7619
  226MOL0     H29799  -0.081   1.192   5.575  0.0284  1.4279 -0.8393
  226MOL0     H29800  -0.289   1.167   5.688 -1.2184 -0.0622 -0.6147
  226MOL0     H29801  -0.339   1.047   5.563  3.0161 -2.1003 -0.8531
  226MOL0     H29802  -0.357   1.265   5.400 -1.9004 -0.1105  0.2392
  226MOL0     H29803  -0.277   1.356   5.524 -0.0801 -0.1102 -1.5884
  226MOL0     H29804  -0.532   1.182   5.547 -1.4314  0.0173  1.5073
  226MOL0     H29805  -0.490   1.310   5.664 -2.3834 -1.9721  1.1942
  226MOL0     H29806  -0.551   1.376   5.374 -0.3977  0.2906 -0.9761
  226MOL0     H29807  -0.516   1.489   5.511  2.1656 -1.3098  2.5351
  226MOL0     H29808  -0.708   1.418   5.634 -1.2065  0.2053 -0.3195
  226MOL0     H29809  -0.755   1.298   5.510 -1.1818  0.9013 -2.3035
  226MOL0     H29810  -0.726   1.600   5.481  3.4059 -1.5311  2.8349
  226MOL0     H29811  -0.759   1.493   5.349 -2.1571 -0.1723 -0.4482
  226MOL0     H29812  -0.976   1.591   5.444 -1.5693 -1.1664 -0.5313
  226MOL0     H29813  -0.927   1.512   5.597 -2.9798  0.5232 -0.3307
  226MOL0     H29814  -0.028   0.763   5.674 -0.5413  0.6872  0.8288
  226MOL0     H29815   0.198   0.667   5.667  0.0383  0.2950  1.3522
  226MOL0     H29816   0.630   0.684   5.658  0.8477 -1.2904  0.5945
  226MOL0     H29817   0.858   0.607   5.652 -0.8196  0.0939  0.7100
  226MOL0     H29818   2.765   0.855   6.324 -3.1315 -0.5977  0.2160
  226MOL0     H29819   2.966   0.815   6.478 -1.6393  4.3564 -2.3436
  226MOL0     H29820   3.057   0.266   6.694 -0.9637 -1.3073  0.8009
  226MOL0     H29821   3.231   0.179   6.865 -0.4171 -0.0705  0.9289
  226MOL0     H29822   3.356   0.121   7.026  0.1597 -1.4658  2.2619
  226MOL0     H29823   3.204   0.167   7.109 -1.4984 -0.6232 -2.7357
  226MOL0     H29824   3.384   0.072   7.271  0.2088 -0.4294 -1.0588
  226MOL0     H29825   3.490   0.198   7.219 -1.1619  2.6663  1.6388
  226MOL0     H29826   3.222   0.249   7.365  0.1499 -0.5569 -0.0279
  226MOL0     H29827   3.339   0.376   7.325  1.2570 -0.2310  0.6323
  226MOL0     H29828   3.330   0.277   7.576  1.3896 -1.0911  1.1049
  226MOL0     H29829   3.391   0.132   7.512  0.3357 -0.6029  1.0704
  226MOL0     H29830   3.738   0.363   7.539 -1.5016  2.1583  2.2511
  226MOL0     H29831   3.303   0.561   7.000 -0.7369 -0.2292  0.5021
  226MOL0     H29832   3.113   0.654   6.869  0.1493 -0.3732 -0.2977
  227MOL0     O29833   5.594   1.230   6.206  0.6868 -0.0383  0.9318
  227MOL0     C29834   5.593   1.124   6.269  0.0097 -0.0492 -0.6215
  227MOL0     O29835   5.492   1.069   6.331  0.3604 -0.3596  0.3160
  227MOL0     C29836   5.380   1.143   6.348  0.4134  0.2604 -0.6122
  227MOL0     C29837   5.255   1.083   6.321 -0.5355  0.1799  0.1452
  227MOL0     C29838   5.137   1.165   6.333 -0.0228  0.2892  0.5166
  227MOL0     C29839   5.146   1.299   6.369 -0.9400  0.9040 -0.7584
  227MOL0     O29840   5.037   1.383   6.381  0.7755  0.3499 -0.4910
  227MOL0     C29841   4.908   1.322   6.405 -0.1958 -0.2738 -0.1662
  227MOL0     C29842   4.805   1.430   6.403 -0.3707  0.0289 -0.6190
  227MOL0     C29843   4.664   1.380   6.431  0.5047 -0.3140 -0.9451
  227MOL0     C29844   4.544   1.487   6.404 -0.6068 -0.1827  0.0647
  227MOL0     C29845   4.396   1.446   6.419 -0.3703 -0.1882 -1.8177
  227MOL0     C29846   4.317   1.575   6.390 -0.3981 -1.1428  0.3680
  227MOL0     C29847   4.163   1.575   6.379  0.7450  0.1602  0.3014
  227MOL0     C29848   4.113   1.488   6.493 -0.1074  0.9923 -0.7673
  227MOL0     N29849   3.965   1.491   6.495  0.4298 -0.1450  0.1157
  227MOL0     C29850   3.889   1.575   6.575  0.7029  0.5423  0.2708
  227MOL0     C29851   3.764   1.561   6.540 -0.3553  0.1439  0.1613
  227MOL0     C29852   3.646   1.623   6.620 -0.1323  0.2154  0.1082
  227MOL0     C29853   3.529   1.534   6.651  0.2058  0.4219 -0.0380
  227MOL0     C29854   3.425   1.546   6.537  0.0423 -0.0584 -0.3574
  227MOL0     C29855   3.339   1.679   6.524  0.0524  0.6135 -0.7136
  227MOL0     O29856   3.240   1.651   6.428 -0.0614 -0.3341 -0.4044
  227MOL0     C29857   3.107   1.687   6.455 -0.4786  0.9596  0.1318
  227MOL0     C29858   3.067   1.783   6.549  0.5718 -0.0566  0.8282
  227MOL0     C29859   2.929   1.796   6.574 -0.8570 -0.6762 -0.4684
  227MOL0     C29860   2.834   1.728   6.500  0.0423 -0.5358  1.0582
  227MOL0     C29861   2.692   1.768   6.510 -0.6475  0.2229  0.3302
  227MOL0     O29862   2.599   1.705   6.435  0.0785 -0.2006  0.3497
  227MOL0     C29863   2.459   1.734   6.445 -0.0668 -0.3370 -0.1481
  227MOL0     C29864   2.378   1.705   6.330 -0.1770 -0.0735  0.5069
  227MOL0     C29865   2.248   1.742   6.326  0.5706  0.3673  0.5440
  227MOL0     C29866   2.186   1.813   6.426  0.0913  0.0364  0.3481
  227MOL0     O29867   2.051   1.845   6.420  0.7586  0.4812  0.3246
  227MOL0     C29868   1.959   1.780   6.327  0.0855 -0.3084 -0.4490
  227MOL0     C29869   1.817   1.819   6.376  0.2002  0.5546  0.0956
  227MOL0     C29870   1.709   1.729   6.312 -0.6825 -1.0130 -0.1599
  227MOL0     C29871   1.568   1.764   6.369 -0.4613  0.1473 -0.0313
  227MOL0     C29872   1.452   1.697   6.297 -0.2778 -0.1970  0.8789
  227MOL0     C29873   1.461   1.549   6.310 -0.1032 -0.3478 -0.2414
  227MOL0     C29874   1.320   1.488   6.291  0.2304  0.0840  0.1016
  227MOL0     C29875   1.320   1.333   6.274 -0.3965 -0.1535 -0.0752
  227MOL0    Cl29876   1.164   1.263   6.207 -0.0368 -0.0768 -0.0825
  227MOL0     C29877   2.260   1.834   6.547  0.4971 -0.0205  0.3297
  227MOL0     C29878   2.396   1.801   6.544  0.1090  0.4671  0.1430
  227MOL0     O29879   2.671   1.832   6.610 -0.6075 -0.7330  0.1553
  227MOL0     C29880   2.872   1.631   6.406 -0.6657 -0.3537 -0.5205
  227MOL0     C29881   3.010   1.604   6.389  0.0016 -0.0834  1.1059
  227MOL0     N29882   3.758   1.474   6.430 -0.2611 -1.4019 -0.1902
  227MOL0     N29883   3.878   1.435   6.404 -0.0496  0.0342 -0.4020
  227MOL0     C29884   5.267   1.348   6.422  0.2648 -0.2355 -0.1303
  227MOL0     C29885   5.383   1.270   6.408 -0.7563 -0.0661 -0.6238
  227MOL0     C29886   5.721   1.064   6.290  0.1388  0.4835 -0.6820
  227MOL0     C29887   5.732   0.937   6.352 -0.0727  0.7190 -0.9831
  227MOL0     C29888   5.863   0.882   6.373 -0.3103  0.0838 -0.3853
  227MOL0     C29889   5.980   0.949   6.344  0.2390 -0.2911 -0.1484
  227MOL0     O29890   6.099   0.894   6.352 -0.0063  0.5920 -0.0766
  227MOL0     C29891   6.135   0.811   6.242  0.1895  0.3532  0.1618
  227MOL0     C29892   6.279   0.827   6.192  0.1616 -0.8937  0.3537
  227MOL0     C29893   6.391   0.800   6.287  1.3420 -0.4353 -0.1677
  227MOL0     C29894   6.535   0.813   6.233 -0.5990 -0.2864 -0.2006
  227MOL0     C29895   6.548   0.741   6.116  0.2199  0.1384  0.2163
  227MOL0     C29896   6.558   0.682   6.010 -0.1468  0.1245 -0.7179
  227MOL0     C29897   5.973   1.075   6.283 -1.0070 -0.3661 -0.3238
  227MOL0     C29898   5.844   1.133   6.263  0.9285  0.0344 -0.3652
  227MOL0     H29899   5.246   0.984   6.278 -1.6378  0.5627 -0.5462
  227MOL0     H29900   5.045   1.114   6.306 -0.7039  0.4514  2.3297
  227MOL0     H29901   4.922   1.266   6.498  2.5553  2.2747  1.1518
  227MOL0     H29902   4.883   1.262   6.317  2.1426 -0.6832 -0.6240
  227MOL0     H29903   4.786   1.475   6.305  0.5423 -3.0483 -2.3201
  227MOL0     H29904   4.844   1.497   6.480  1.0362  0.1060 -1.3805
  227MOL0     H29905   4.659   1.357   6.538  1.3547  2.1192 -0.3069
  227MOL0     H29906   4.646   1.289   6.373  0.2464 -0.6770 -0.3032
  227MOL0     H29907   4.553   1.569   6.477 -3.6171  1.8165 -1.6127
  227MOL0     H29908   4.562   1.547   6.314 -1.5873  0.6292  0.3845
  227MOL0     H29909   4.376   1.414   6.522 -1.1173  0.2372 -1.8249
  227MOL0     H29910   4.381   1.363   6.349  3.7490 -0.1328 -3.0227
  227MOL0     H29911   4.358   1.631   6.306 -0.2835 -0.4172  0.8931
  227MOL0     H29912   4.344   1.634   6.479 -0.5063 -1.4192  0.5876
  227MOL0     H29913   4.125   1.678   6.384 -0.9462 -0.3486 -0.9245
  227MOL0     H29914   4.131   1.536   6.282 -0.6902  4.3594 -1.1598
  227MOL0     H29915   4.154   1.524   6.588 -1.0859  3.1914 -1.1007
  227MOL0     H29916   4.137   1.382   6.487 -2.2878  0.3149  1.0010
  227MOL0     H29917   3.934   1.618   6.664 -3.5663 -0.7726  3.3717
  227MOL0     H29918   3.625   1.720   6.574  2.3095 -0.7241 -3.3668
  227MOL0     H29919   3.670   1.653   6.723  1.5761 -2.8646  0.7160
  227MOL0     H29920   3.476   1.550   6.745 -1.5243  0.3960 -0.9639
  227MOL0     H29921   3.572   1.433   6.657 -2.3789 -0.9042 -2.0291
  227MOL0     H29922   3.459   1.529   6.435 -1.1557  0.4001 -0.8548
  227MOL0     H29923   3.350   1.471   6.564 -0.4800  0.8330  0.7346
  227MOL0     H29924   3.400   1.766   6.500 -1.5458  2.0407  0.1824
  227MOL0     H29925   3.292   1.706   6.619 -2.0989 -0.5850 -1.3594
  227MOL0     H29926   3.140   1.837   6.608  2.0808 -2.2862  1.0917
  227MOL0     H29927   2.905   1.865   6.655 -1.5424 -0.5536 -0.7708
  227MOL0     H29928   2.428   1.654   6.249 -0.1191  0.4594  0.2087
  227MOL0     H29929   2.198   1.728   6.231  0.9256 -4.0015  0.7965
  227MOL0     H29930   1.979   1.673   6.325 -3.5956 -1.1055 -0.6451
  227MOL0     H29931   1.980   1.824   6.229 -0.5080  3.0753  0.8084
  227MOL0     H29932   1.802   1.924   6.351  0.7705  0.2432 -1.7104
  227MOL0     H29933   1.810   1.814   6.485  2.9208 -1.0199  0.2733
  227MOL0     H29934   1.730   1.625   6.338 -0.5890 -1.2065 -0.9714
  227MOL0     H29935   1.702   1.755   6.206  0.4998  0.2238  0.0370
  227MOL0     H29936   1.579   1.725   6.470  6.3102 -1.8091 -1.0393
  227MOL0     H29937   1.560   1.873   6.379  1.0590  0.2184  0.6644
  227MOL0     H29938   1.463   1.728   6.193  3.0884 -0.4514  1.0746
  227MOL0     H29939   1.362   1.739   6.343 -0.3760 -1.0881  1.5277
  227MOL0     H29940   1.505   1.519   6.405  1.3742  2.7376  0.2041
  227MOL0     H29941   1.527   1.516   6.230  1.5133 -0.6481  1.1723
  227MOL0     H29942   1.253   1.506   6.375 -1.6981 -0.0105 -1.3462
  227MOL0     H29943   1.267   1.531   6.205 -0.6721 -1.5593 -0.2155
  227MOL0     H29944   1.350   1.275   6.362 -1.7847 -0.5055  0.2025
  227MOL0     H29945   1.409   1.331   6.211  1.3571  2.4513  2.0783
  227MOL0     H29946   2.210   1.887   6.627  1.3997  1.4600 -0.0393
  227MOL0     H29947   2.454   1.818   6.634 -1.0375  0.3109  0.9407
  227MOL0     H29948   2.793   1.572   6.361 -0.3931 -2.7466  1.8869
  227MOL0     H29949   3.055   1.534   6.319 -1.1132  0.0037  0.2803
  227MOL0     H29950   5.286   1.449   6.458  0.9204  0.3968 -2.1408
  227MOL0     H29951   5.478   1.317   6.435 -0.3864 -0.8362 -0.5725
  227MOL0     H29952   5.640   0.881   6.367 -0.7899  2.4982  2.0980
  227MOL0     H29953   5.870   0.793   6.434 -0.0160  1.8815  2.3900
  227MOL0     H29954   6.064   0.819   6.159  0.4937 -0.6885 -0.2183
  227MOL0     H29955   6.117   0.711   6.283 -4.6438  2.2977  3.8160
  227MOL0     H29956   6.289   0.773   6.097 -2.7661 -1.8867  0.5383
  227MOL0     H29957   6.292   0.930   6.158 -2.6765 -0.7887 -0.6351
  227MOL0     H29958   6.368   0.697   6.316 -1.9625 -0.1862 -1.5064
  227MOL0     H29959   6.377   0.860   6.377  1.1318 -1.2227  0.3311
  227MOL0     H29960   6.557   0.916   6.202 -3.6658  1.4165  2.5985
  227MOL0     H29961   6.619   0.791   6.299 -0.0276  0.0042 -0.8139
  227MOL0     H29962   6.577   0.637   5.915 -0.1436  2.9724 -2.1577
  227MOL0     H29963   6.068   1.116   6.250  0.5483 -2.9514  0.6431
  227MOL0     H29964   5.826   1.234   6.228 -1.5571 -0.2049  0.0447
  228MOL0     O29965   8.705   9.685   7.396 -0.4431  0.5340 -0.0969
  228MOL0     C29966   8.651   9.762   7.331 -0.0431 -0.7829  0.3119
  228MOL0     O29967   8.712   9.850   7.245 -0.1556  0.2033  0.3202
  228MOL0     C29968   8.842   9.901   7.255 -0.0336 -1.0110  0.2136
  228MOL0     C29969   8.879  10.008   7.164 -0.9897 -0.0396  0.0404
  228MOL0     C29970   9.002  10.076   7.170  0.3085  0.1222 -0.3325
  228MOL0     C29971   9.100  10.035   7.266 -1.0212 -0.1539 -0.1143
  228MOL0     O29972   9.226  10.096   7.260  0.0360  0.5351  0.8147
  228MOL0     C29973   9.339  10.022   7.312 -0.6480 -0.4786 -0.1915
  228MOL0     C29974   9.379   9.900   7.238  0.3383 -0.1247  0.5817
  228MOL0     C29975   9.421   9.915   7.093  0.0108 -0.0958 -0.4419
  228MOL0     C29976   9.565   9.975   7.077 -0.1709 -1.3579  0.5753
  228MOL0     C29977   9.685   9.869   7.078 -0.4931  0.0849  0.4014
  228MOL0     C29978   9.822   9.936   7.046  0.0252 -1.1034 -0.7842
  228MOL0     C29979   9.833  10.011   6.908 -0.1612  0.0945  0.4388
  228MOL0     C29980   9.863  10.159   6.907  0.1602 -0.0044 -0.2537
  228MOL0     N29981   9.973  10.199   6.999  0.1011 -0.1665  0.4484
  228MOL0     C29982   9.978  10.321   7.069 -0.0713  0.0095 -0.4438
  228MOL0     C29983  10.071  10.300   7.164 -0.0448  0.3381 -0.6847
  228MOL0     C29984  10.136  10.414   7.229  0.4535  0.2122  0.2911
  228MOL0     C29985  10.223  10.362   7.345 -0.5064 -0.2979  0.7197
  228MOL0     C29986  10.302  10.489   7.399  0.0185 -0.5665 -0.5526
  228MOL0     C29987  10.402  10.460   7.500 -0.6795  0.7222 -0.9994
  228MOL0     O29988  10.449  10.572   7.585  0.7519  0.5836  0.0455
  228MOL0     C29989  10.549  10.653   7.535 -0.1459 -0.2842 -0.7698
  228MOL0     C29990  10.659  10.609   7.458  0.3242  0.3666  0.4436
  228MOL0     C29991  10.756  10.711   7.425 -0.3065 -0.2072  0.4194
  228MOL0     C29992  10.753  10.847   7.470  0.8489  0.4088  0.4186
  228MOL0     C29993  10.855  10.941   7.446 -0.4010 -0.7106  0.1972
  228MOL0     O29994  10.969  10.889   7.395  0.4234  0.0295  0.1211
  228MOL0     C29995  11.078  10.949   7.367 -0.2572  0.7843  0.8141
  228MOL0     C29996  11.140  10.921   7.242  0.2648  0.2260 -0.2808
  228MOL0     C29997  11.266  10.977   7.207  0.2257 -0.5029 -0.3031
  228MOL0     C29998  11.320  11.079   7.289  0.5047 -0.6859 -0.0953
  228MOL0     O29999  11.421  11.159   7.234 -0.3725  0.1939  0.6049
  228MOL0     C30000  11.548  11.149   7.284 -0.0071  0.4426 -0.1919
  228MOL0     C30001  11.618  11.283   7.280 -0.4324  0.6916  0.0039
  228MOL0     C30002  11.654  11.318   7.136  0.4259  0.1474  0.1971
  228MOL0     C30003  11.727  11.455   7.121  0.2815  0.5777 -0.0172
  228MOL0     C30004  11.732  11.499   6.976 -0.7137 -0.8026  0.4664
  228MOL0     C30005  11.832  11.615   6.950 -0.0483 -0.3313  0.3505
  228MOL0     C30006  11.838  11.647   6.804  0.6065 -0.2656  0.2388
  228MOL0     C30007  11.924  11.772   6.767  0.7013 -0.1757 -0.1011
  228MOL0    Cl30008  12.092  11.728   6.767 -0.0477  0.0524 -0.0451
  228MOL0     C30009  11.264  11.107   7.415 -0.5444  0.4858  0.7785
  228MOL0     C30010  11.148  11.039   7.455  0.1902  0.2269  0.0603
  228MOL0     O30011  10.828  11.059   7.455  0.6612 -0.4020  0.8833
  228MOL0     C30012  10.635  10.884   7.540  0.1523  0.3579 -0.2334
  228MOL0     C30013  10.542  10.786   7.578  0.1470 -0.1986  1.1430
  228MOL0     N30014  10.127  10.176   7.142 -0.1202  0.7051  0.5549
  228MOL0     N30015  10.077  10.121   7.035  0.0769  0.7481 -1.1547
  228MOL0     C30016   9.063   9.936   7.361 -0.0249 -0.4819 -0.2245
  228MOL0     C30017   8.932   9.879   7.362 -0.2534 -0.4333 -0.7817
  228MOL0     C30018   8.509   9.740   7.320  0.3540  1.1384 -0.8892
  228MOL0     C30019   8.441   9.647   7.407 -0.4020 -0.1641  0.7476
  228MOL0     C30020   8.304   9.631   7.391 -0.1122 -0.6044 -0.5222
  228MOL0     C30021   8.229   9.698   7.288 -0.2679  0.4776  0.5767
  228MOL0     O30022   8.098   9.675   7.259 -0.8410  0.3268  0.3024
  228MOL0     C30023   8.076   9.535   7.214 -0.3377  0.6421  0.0317
  228MOL0     C30024   7.932   9.515   7.178  0.1363 -0.0154  0.5871
  228MOL0     C30025   7.845   9.554   7.302 -0.7312  0.5829 -0.7990
  228MOL0     C30026   7.702   9.524   7.278 -0.1814  0.0937 -0.5169
  228MOL0     C30027   7.626   9.588   7.387 -0.5778  0.0150 -0.4803
  228MOL0     C30028   7.557   9.639   7.480  0.4533  0.1105  0.5039
  228MOL0     C30029   8.295   9.785   7.202  0.3245  0.1143  0.2245
  228MOL0     C30030   8.432   9.796   7.222  0.1916  0.8884  0.3588
  228MOL0     H30031   8.807  10.027   7.085  2.7338  1.4977 -3.3046
  228MOL0     H30032   9.038  10.152   7.102 -1.7976  0.5392 -1.0544
  228MOL0     H30033   9.330  10.003   7.420 -0.0773  0.9865  0.1360
  228MOL0     H30034   9.431  10.081   7.313 -0.6119 -0.4280  2.5649
  228MOL0     H30035   9.291   9.835   7.233  0.7562 -0.5868 -1.5567
  228MOL0     H30036   9.463   9.863   7.298  1.6723 -0.0655 -1.1867
  228MOL0     H30037   9.349   9.976   7.039 -2.7997 -1.3971  1.5744
  228MOL0     H30038   9.410   9.811   7.062 -2.4635  0.0923 -0.3225
  228MOL0     H30039   9.565  10.030   6.983 -1.6563 -0.5685  1.0045
  228MOL0     H30040   9.590  10.043   7.159  2.9861  0.3095 -1.5560
  228MOL0     H30041   9.661   9.787   7.010  1.6619  0.2220 -0.6090
  228MOL0     H30042   9.669   9.834   7.180 -0.4238  0.7242  0.6354
  228MOL0     H30043   9.901   9.861   7.056  1.4556  0.5641  1.4427
  228MOL0     H30044   9.837  10.002   7.132 -2.9614 -1.9972  0.5485
  228MOL0     H30045   9.914   9.960   6.855 -1.0761  1.1538 -2.1106
  228MOL0     H30046   9.750  10.002   6.838  1.7515 -1.4561 -1.7841
  228MOL0     H30047   9.770  10.210   6.933  1.3337  0.9615  2.5042
  228MOL0     H30048   9.893  10.188   6.806 -2.5396 -0.1416 -1.1877
  228MOL0     H30049   9.927  10.414   7.047  0.8353  0.3579 -1.1089
  228MOL0     H30050  10.054  10.480   7.258 -2.0061 -3.1305  1.5579
  228MOL0     H30051  10.210  10.456   7.160  0.5748  0.1131  0.3597
  228MOL0     H30052  10.295  10.287   7.309 -2.8266 -2.2704 -0.0684
  228MOL0     H30053  10.157  10.321   7.422 -3.1068  1.5849 -0.3362
  228MOL0     H30054  10.354  10.544   7.321 -0.8677  1.4734  0.2258
  228MOL0     H30055  10.239  10.558   7.456  1.7558 -0.2163  1.0263
  228MOL0     H30056  10.486  10.405   7.455 -0.4248 -0.8211  1.2173
  228MOL0     H30057  10.362  10.378   7.560  2.0298 -0.1655 -0.2453
  228MOL0     H30058  10.666  10.504   7.435  2.2527  1.4013 -5.2048
  228MOL0     H30059  10.830  10.678   7.353 -2.8985  1.3938 -3.3012
  228MOL0     H30060  11.093  10.860   7.166 -1.0259  0.7365  0.0829
  228MOL0     H30061  11.295  10.952   7.105 -3.8323 -0.8705 -1.5497
  228MOL0     H30062  11.612  11.078   7.229 -0.8872 -0.0803 -0.5686
  228MOL0     H30063  11.534  11.113   7.386 -1.8216  0.3178 -0.4521
  228MOL0     H30064  11.705  11.282   7.346  1.6250 -1.7943 -2.4994
  228MOL0     H30065  11.556  11.365   7.319 -1.9924  0.6575 -2.2143
  228MOL0     H30066  11.563  11.326   7.076 -0.0832 -1.6617  0.6616
  228MOL0     H30067  11.706  11.237   7.085  0.6929 -1.4238  2.7756
  228MOL0     H30068  11.693  11.538   7.184  0.3004  2.0369 -1.8363
  228MOL0     H30069  11.829  11.435   7.155  0.3033 -3.0377 -1.7281
  228MOL0     H30070  11.632  11.524   6.940  0.0619  0.1770 -1.1526
  228MOL0     H30071  11.759  11.418   6.908 -1.2315  1.0675 -2.1274
  228MOL0     H30072  11.930  11.590   6.993  0.5518  0.5027 -0.4929
  228MOL0     H30073  11.804  11.707   7.003  1.3255 -0.4505  1.3493
  228MOL0     H30074  11.869  11.559   6.747  2.2483  1.4489 -1.6967
  228MOL0     H30075  11.731  11.665   6.787  0.0973 -3.1078 -0.0287
  228MOL0     H30076  11.903  11.844   6.847  1.4723  0.4221 -0.4232
  228MOL0     H30077  11.877  11.813   6.677  0.3919 -2.3645 -0.9946
  228MOL0     H30078  11.313  11.178   7.480  0.2019  0.1949  0.5412
  228MOL0     H30079  11.107  11.061   7.553  0.5912 -0.7114  0.4470
  228MOL0     H30080  10.613  10.984   7.575 -0.7689 -0.8848  3.1386
  228MOL0     H30081  10.454  10.811   7.637 -1.5238  1.6728 -1.8899
  228MOL0     H30082   9.129   9.910   7.442  2.1483  1.6883 -1.1641
  228MOL0     H30083   8.901   9.820   7.448 -0.3396  1.8381  0.8332
  228MOL0     H30084   8.496   9.602   7.489  0.4183 -1.7910 -0.6422
  228MOL0     H30085   8.248   9.574   7.464 -0.3156  0.3434  0.0768
  228MOL0     H30086   8.110   9.459   7.285  0.0577  1.0612  0.2963
  228MOL0     H30087   8.123   9.514   7.118  0.7491  0.8669  0.4969
  228MOL0     H30088   7.899   9.574   7.092 -1.1219 -1.5256 -0.0089
  228MOL0     H30089   7.919   9.411   7.146 -1.3705  0.6154 -1.0601
  228MOL0     H30090   7.860   9.661   7.320 -1.8645  1.1113 -2.6845
  228MOL0     H30091   7.880   9.498   7.389  0.7552  2.7291  0.0756
  228MOL0     H30092   7.660   9.569   7.187  1.1272 -0.0779 -1.2329
  228MOL0     H30093   7.680   9.417   7.280 -0.9665  0.2534  1.6092
  228MOL0     H30094   7.511   9.678   7.567 -3.0342 -1.4922 -0.4363
  228MOL0     H30095   8.242   9.838   7.123 -0.4797  1.9510  1.9169
  228MOL0     H30096   8.477   9.874   7.162  2.2420  0.8153  1.7068
  229MOL0     O30097   5.082   6.994  10.195  0.4392 -0.5111  0.0226
  229MOL0     C30098   5.117   6.896  10.124 -1.2470  0.2326  0.2831
  229MOL0     O30099   5.238   6.850  10.112 -0.0075 -0.0969  0.4676
  229MOL0     C30100   5.354   6.900  10.171 -1.0719  0.2769  0.2661
  229MOL0     C30101   5.480   6.883  10.112 -0.0607  0.1278 -0.2848
  229MOL0     C30102   5.603   6.924  10.169  0.4770 -0.8422 -0.1643
  229MOL0     C30103   5.602   6.980  10.300 -0.2319  0.1386  0.1363
  229MOL0     O30104   5.714   7.010  10.363  0.1340  0.1278  0.0108
  229MOL0     C30105   5.836   7.021  10.291 -0.1663 -0.9366  1.0623
  229MOL0     C30106   5.934   7.077  10.404  0.2673  1.0036  0.3964
  229MOL0     C30107   6.082   7.049  10.386 -0.3752  0.8994 -0.1224
  229MOL0     C30108   6.155   7.071  10.521 -0.8799 -0.1229 -0.7156
  229MOL0     C30109   6.307   7.027  10.519  0.6376 -0.2875  0.2833
  229MOL0     C30110   6.393   7.112  10.427  0.5574 -0.7185 -0.1090
  229MOL0     C30111   6.410   7.264  10.469 -0.6825  0.0730 -0.4920
  229MOL0     C30112   6.532   7.333  10.410  0.4971  0.7516 -0.2750
  229MOL0     N30113   6.650   7.274  10.481  0.9132 -0.1094 -0.5961
  229MOL0     C30114   6.681   7.299  10.613 -0.9929 -0.6138  0.3186
  229MOL0     C30115   6.790   7.220  10.646  0.5888 -0.3449 -0.3703
  229MOL0     C30116   6.854   7.206  10.782  0.3982  0.0163 -0.2579
  229MOL0     C30117   6.851   7.064  10.834 -0.6454  0.0716 -0.3299
  229MOL0     C30118   6.712   7.020  10.872 -0.1416 -0.7136 -0.0053
  229MOL0     C30119   6.729   6.879  10.917  0.2002 -0.6479 -0.1410
  229MOL0     O30120   6.719   6.789  10.806  0.2065  0.3475  0.3656
  229MOL0     C30121   6.593   6.769  10.746 -0.2225 -0.0953 -0.8868
  229MOL0     C30122   6.600   6.680  10.639 -0.4429  0.0534  0.9192
  229MOL0     C30123   6.481   6.652  10.569  0.1157 -0.4942 -0.1706
  229MOL0     C30124   6.351   6.703  10.615 -0.3439  0.4478 -0.2340
  229MOL0     C30125   6.228   6.667  10.537  0.4118  0.5812 -0.7503
  229MOL0     O30126   6.113   6.701  10.604  0.3384 -0.1520 -0.2083
  229MOL0     C30127   5.990   6.654  10.561 -0.7266  1.1478  1.1482
  229MOL0     C30128   5.971   6.520  10.520 -0.4321  0.1130 -0.5181
  229MOL0     C30129   5.846   6.485  10.468  0.0349  0.3511  0.3351
  229MOL0     C30130   5.745   6.577  10.470  0.8267 -0.0521  0.0576
  229MOL0     O30131   5.633   6.528  10.410  0.0031  0.3843 -0.0952
  229MOL0     C30132   5.524   6.612  10.377  0.0282 -0.1188  0.5579
  229MOL0     C30133   5.403   6.522  10.348  0.9667  0.5927  0.1626
  229MOL0     C30134   5.268   6.600  10.368 -0.3509 -0.3924 -0.3003
  229MOL0     C30135   5.151   6.523  10.314  0.7670 -0.5591 -0.3347
  229MOL0     C30136   5.013   6.545  10.384  0.1549  1.3617 -0.2780
  229MOL0     C30137   4.893   6.483  10.313  0.8398 -0.0221  0.7485
  229MOL0     C30138   4.774   6.460  10.403 -0.4046 -0.8973  0.4142
  229MOL0     C30139   4.651   6.407  10.334  0.1406  0.5271  1.6152
  229MOL0    Cl30140   4.581   6.531  10.221 -0.1466  0.2122 -0.5349
  229MOL0     C30141   5.760   6.709  10.509  0.2090 -0.7229  0.0671
  229MOL0     C30142   5.883   6.743  10.558 -0.4913 -0.7509 -0.1793
  229MOL0     O30143   6.240   6.585  10.437  0.8257 -0.1880 -0.3176
  229MOL0     C30144   6.356   6.785  10.727 -0.1388 -0.4132 -0.9510
  229MOL0     C30145   6.470   6.821  10.788  0.2739  0.4397 -0.2632
  229MOL0     N30146   6.824   7.155  10.534  0.0805 -0.6104  0.1321
  229MOL0     N30147   6.749   7.188  10.437 -0.3533  0.2928 -0.3093
  229MOL0     C30148   5.475   6.989  10.361 -0.0814 -0.0590  0.4231
  229MOL0     C30149   5.354   6.954  10.302  0.1985  0.8717  0.6866
  229MOL0     C30150   5.013   6.828  10.041  0.1792  1.0749  0.2390
  229MOL0     C30151   5.031   6.782   9.918  0.4692 -0.3023  0.5044
  229MOL0     C30152   4.924   6.727   9.841  0.6418  0.4961 -0.0479
  229MOL0     C30153   4.797   6.713   9.890  0.0637  0.2840 -0.7951
  229MOL0     O30154   4.682   6.660   9.833 -0.0068  0.0629 -0.6325
  229MOL0     C30155   4.687   6.642   9.691  0.1750  0.8829 -0.4511
  229MOL0     C30156   4.557   6.576   9.640 -0.1902 -0.3416 -0.2271
  229MOL0     C30157   4.426   6.655   9.668  0.6112  0.7298  0.8556
  229MOL0     C30158   4.313   6.583   9.601 -0.6424  1.0484  1.0416
  229MOL0     C30159   4.180   6.651   9.624  0.5384 -0.5171 -0.2243
  229MOL0     C30160   4.083   6.714   9.664  0.5155 -0.4325  0.0014
  229MOL0     C30161   4.772   6.768  10.019 -0.1324  0.1830  0.0283
  229MOL0     C30162   4.876   6.835  10.087 -0.0814  0.7908 -0.0324
  229MOL0     H30163   5.478   6.829  10.018  0.8392 -1.4462  0.5697
  229MOL0     H30164   5.697   6.913  10.117  1.5535  3.2542  0.5678
  229MOL0     H30165   5.819   7.093  10.210  4.0144  0.0576  0.8770
  229MOL0     H30166   5.880   6.927  10.255  0.2037  0.4839 -2.5776
  229MOL0     H30167   5.903   7.040  10.503 -1.4884 -0.5947 -0.6757
  229MOL0     H30168   5.922   7.186  10.403 -0.0356  0.9681  0.0305
  229MOL0     H30169   6.129   7.105  10.305  1.1624  1.2589  0.9872
  229MOL0     H30170   6.088   6.946  10.352  2.3147  0.6977  0.7844
  229MOL0     H30171   6.157   7.176  10.553  0.6254 -0.9931  2.4210
  229MOL0     H30172   6.104   7.013  10.597  1.4753 -0.6632  0.5452
  229MOL0     H30173   6.315   6.926  10.477 -2.3981  0.0360 -1.4416
  229MOL0     H30174   6.354   7.034  10.617  1.9434  3.2736 -0.4464
  229MOL0     H30175   6.350   7.103  10.327 -1.1396 -0.1962  0.5364
  229MOL0     H30176   6.494   7.069  10.430  1.8797  2.2094  1.0105
  229MOL0     H30177   6.328   7.324  10.427  0.1337  1.4727 -0.1278
  229MOL0     H30178   6.421   7.273  10.577  2.5420  1.7490 -0.8564
  229MOL0     H30179   6.519   7.441  10.420  2.4033  1.0180 -0.2854
  229MOL0     H30180   6.535   7.322  10.301 -1.6952  2.0459 -0.5125
  229MOL0     H30181   6.616   7.356  10.678 -2.6984 -1.3576 -0.6558
  229MOL0     H30182   6.810   7.282  10.846  1.2058  3.2647 -3.2541
  229MOL0     H30183   6.960   7.231  10.769  0.3875 -1.1768 -3.4304
  229MOL0     H30184   6.916   7.065  10.923 -0.2245  2.6367 -0.5928
  229MOL0     H30185   6.888   6.989  10.763 -1.6774 -1.3993  0.6352
  229MOL0     H30186   6.696   7.092  10.952  2.9624  0.0311  0.0682
  229MOL0     H30187   6.629   7.034  10.802  1.0169  2.4683 -0.8975
  229MOL0     H30188   6.652   6.853  10.991  1.3052 -0.0514  1.2606
  229MOL0     H30189   6.818   6.860  10.977 -1.6703  0.6632  3.3263
  229MOL0     H30190   6.692   6.630  10.609 -0.5268 -0.1897  1.0635
  229MOL0     H30191   6.480   6.590  10.481 -2.5188  0.5559 -1.0039
  229MOL0     H30192   6.045   6.442  10.511 -0.2449  0.4974 -3.5199
  229MOL0     H30193   5.828   6.384  10.430 -0.0809 -0.7041  2.9791
  229MOL0     H30194   5.554   6.672  10.291  2.8010  1.8172  2.6824
  229MOL0     H30195   5.490   6.679  10.457 -2.3905  0.3316 -0.7344
  229MOL0     H30196   5.395   6.436  10.415 -3.7691  0.2285 -0.5078
  229MOL0     H30197   5.415   6.474  10.251 -0.1387 -4.1668  2.0926
  229MOL0     H30198   5.271   6.708  10.346 -2.0366  0.0829  1.5505
  229MOL0     H30199   5.251   6.609  10.475 -1.0419 -0.2503 -0.4168
  229MOL0     H30200   5.135   6.563  10.213 -1.6271  2.6193  1.1586
  229MOL0     H30201   5.176   6.416  10.306  1.7811 -0.4013  0.5060
  229MOL0     H30202   5.002   6.649  10.416 -0.9078  0.7894  1.4096
  229MOL0     H30203   5.025   6.479  10.471  1.4159 -2.2943 -2.9811
  229MOL0     H30204   4.911   6.399  10.245 -1.2000  0.3503 -0.3342
  229MOL0     H30205   4.861   6.565  10.247  2.1886  0.8732  1.1658
  229MOL0     H30206   4.816   6.388  10.474  1.7387 -1.2862 -1.1375
  229MOL0     H30207   4.744   6.550  10.458  0.8152 -1.0208  1.3085
  229MOL0     H30208   4.579   6.385  10.413 -1.8754  5.3985  1.4562
  229MOL0     H30209   4.672   6.322  10.268  1.3446  1.0355  1.3151
  229MOL0     H30210   5.683   6.786  10.505  1.8518  1.1913  2.2744
  229MOL0     H30211   5.888   6.847  10.588  1.7874 -0.1335 -2.4094
  229MOL0     H30212   6.264   6.826  10.766  1.0011  1.8556 -0.5047
  229MOL0     H30213   6.455   6.891  10.870 -1.5824 -1.1279  0.8187
  229MOL0     H30214   5.482   7.022  10.464 -2.3012  0.8646  0.3203
  229MOL0     H30215   5.266   6.955  10.366 -0.6594 -2.2728 -0.2466
  229MOL0     H30216   5.128   6.805   9.877  0.1270  0.0712 -0.1215
  229MOL0     H30217   4.955   6.689   9.744  0.4189  0.2999 -0.0432
  229MOL0     H30218   4.767   6.575   9.657 -2.4343 -2.3058 -0.8365
  229MOL0     H30219   4.709   6.738   9.643 -3.4326  2.5205  0.8437
  229MOL0     H30220   4.574   6.561   9.533  0.8301  2.8965 -0.6312
  229MOL0     H30221   4.545   6.476   9.684 -1.3761 -0.4868 -0.8260
  229MOL0     H30222   4.436   6.753   9.622  1.1898 -0.6855 -2.2525
  229MOL0     H30223   4.404   6.646   9.775 -0.0384 -1.5588  0.5901
  229MOL0     H30224   4.333   6.577   9.494  0.9585 -0.7836  1.3855
  229MOL0     H30225   4.322   6.482   9.641  1.6350 -0.5518 -2.9173
  229MOL0     H30226   3.990   6.753   9.700 -0.6002  0.0428 -3.1019
  229MOL0     H30227   4.674   6.771  10.064  0.5123  3.0860  1.4346
  229MOL0     H30228   4.856   6.881  10.183 -1.3966  1.2014 -0.4737
  230MOL0     O30229   0.214   6.960   8.545  0.5911 -0.3735  0.2057
  230MOL0     C30230   0.156   6.855   8.575 -0.2482 -0.5431  0.0151
  230MOL0     O30231   0.210   6.764   8.656  0.1610  0.0589  0.0617
  230MOL0     C30232   0.344   6.783   8.684 -0.1661 -0.2036  0.6634
  230MOL0     C30233   0.448   6.727   8.609 -0.2102  0.1684  0.4980
  230MOL0     C30234   0.577   6.725   8.658 -0.0898  0.0790 -0.5693
  230MOL0     C30235   0.612   6.792   8.775  0.2068 -0.3986  0.0095
  230MOL0     O30236   0.746   6.812   8.812 -0.4531  0.6269 -0.4420
  230MOL0     C30237   0.846   6.715   8.757 -0.5221  0.0197 -0.1234
  230MOL0     C30238   0.965   6.727   8.843 -0.5922 -0.6632 -0.2794
  230MOL0     C30239   1.084   6.637   8.814 -0.1981 -0.3098  0.3823
  230MOL0     C30240   1.059   6.492   8.855  0.4692 -1.3098  0.4841
  230MOL0     C30241   1.179   6.402   8.838 -0.1701  0.2763  1.6678
  230MOL0     C30242   1.279   6.442   8.937  1.2643 -0.4887  0.0529
  230MOL0     C30243   1.399   6.350   8.921 -0.0878  0.6939 -0.2556
  230MOL0     C30244   1.529   6.390   8.998  0.2006 -0.5233  0.4643
  230MOL0     N30245   1.638   6.295   8.998 -0.0038  0.0862  0.3067
  230MOL0     C30246   1.745   6.301   8.909 -0.3547 -0.1301 -0.6039
  230MOL0     C30247   1.823   6.205   8.945 -0.4316 -0.2427 -0.0888
  230MOL0     C30248   1.960   6.179   8.889 -0.1291 -0.3450 -0.0873
  230MOL0     C30249   1.962   6.203   8.736 -0.0301  0.7521  0.1124
  230MOL0     C30250   1.863   6.114   8.661 -0.4021 -0.5536  0.0652
  230MOL0     C30251   1.881   6.111   8.513  0.5214  0.4365 -0.7099
  230MOL0     O30252   1.837   6.228   8.453 -0.2984 -0.1186  0.3093
  230MOL0     C30253   1.698   6.259   8.452 -0.5454  0.7424 -0.7997
  230MOL0     C30254   1.595   6.166   8.498 -0.5262  0.7402  0.1208
  230MOL0     C30255   1.468   6.208   8.469 -0.5241  1.1992  0.4770
  230MOL0     C30256   1.434   6.332   8.409 -0.8033  0.6240 -0.5184
  230MOL0     C30257   1.292   6.378   8.407  1.2545  0.0684  0.5343
  230MOL0     O30258   1.195   6.296   8.461 -0.1915  0.1111 -0.4010
  230MOL0     C30259   1.069   6.315   8.425  0.2960  0.4984 -0.6593
  230MOL0     C30260   0.995   6.220   8.349  0.0672  0.3454 -1.1214
  230MOL0     C30261   0.862   6.248   8.315 -0.3159  0.1308 -0.2138
  230MOL0     C30262   0.803   6.369   8.359  0.2820  0.0192 -0.1567
  230MOL0     O30263   0.676   6.401   8.318  0.1015 -0.3559 -0.6117
  230MOL0     C30264   0.682   6.498   8.210 -0.4846 -0.4331  0.8016
  230MOL0     C30265   0.559   6.485   8.109  0.6365  0.4975 -0.4439
  230MOL0     C30266   0.431   6.550   8.172 -0.4391 -0.2980 -0.3292
  230MOL0     C30267   0.314   6.555   8.067 -0.1375  0.6789 -0.7838
  230MOL0     C30268   0.202   6.643   8.126 -0.6022  0.4460  0.3211
  230MOL0     C30269   0.082   6.640   8.046 -0.5890  0.2151  0.1570
  230MOL0     C30270  -0.028   6.716   8.113 -0.0409 -0.0797  0.5687
  230MOL0     C30271  -0.104   6.791   8.002 -0.2476  0.5277 -0.0611
  230MOL0    Cl30272  -0.155   6.678   7.877 -0.1779  0.0700  0.0442
  230MOL0     C30273   0.863   6.456   8.436  1.2537 -0.1390 -0.3734
  230MOL0     C30274   0.997   6.434   8.470 -0.5231  0.5081  0.3296
  230MOL0     O30275   1.274   6.491   8.369  0.2173 -0.4904 -0.3981
  230MOL0     C30276   1.535   6.423   8.378  0.2078 -0.4270  0.5119
  230MOL0     C30277   1.666   6.382   8.402  0.1485  1.2565  0.4123
  230MOL0     N30278   1.772   6.144   9.066  0.4437  0.0910 -0.4106
  230MOL0     N30279   1.657   6.194   9.090 -0.2048  0.4462  0.3346
  230MOL0     C30280   0.508   6.851   8.851 -0.2578 -0.5065  0.1616
  230MOL0     C30281   0.377   6.837   8.813  0.9742 -0.0692  0.4087
  230MOL0     C30282   0.019   6.831   8.532  0.4292 -0.0013  1.1560
  230MOL0     C30283  -0.061   6.723   8.581  0.6386  0.0821  0.2254
  230MOL0     C30284  -0.185   6.692   8.522 -0.3136 -0.1482 -0.9618
  230MOL0     C30285  -0.243   6.778   8.429  0.2867  0.6167  0.0523
  230MOL0     O30286  -0.377   6.766   8.403  0.1344 -0.2255  0.4011
  230MOL0     C30287  -0.424   6.742   8.269 -0.7114 -0.1538  0.1948
  230MOL0     C30288  -0.479   6.867   8.202  0.8466 -0.0929  0.2608
  230MOL0     C30289  -0.555   6.826   8.072 -0.3673  0.4565 -0.8220
  230MOL0     C30290  -0.685   6.755   8.088 -0.3207  0.1955  0.3016
  230MOL0     C30291  -0.802   6.835   8.129 -0.2011 -0.3788  0.3688
  230MOL0     C30292  -0.894   6.910   8.165  0.8479  0.0336  0.3997
  230MOL0     C30293  -0.167   6.889   8.378 -0.2791  0.5689  0.5875
  230MOL0     C30294  -0.037   6.911   8.428  0.4903 -0.5096  0.2392
  230MOL0     H30295   0.440   6.689   8.508  0.0931  1.2044  0.0811
  230MOL0     H30296   0.644   6.667   8.595  1.4469 -1.1041  2.0015
  230MOL0     H30297   0.868   6.755   8.658 -1.8183 -0.7555 -0.7432
  230MOL0     H30298   0.799   6.617   8.756  0.2161 -0.3400 -1.2727
  230MOL0     H30299   0.934   6.717   8.948 -2.3562 -1.0971 -0.8078
  230MOL0     H30300   0.994   6.832   8.834  0.7257 -0.8255  1.4726
  230MOL0     H30301   1.161   6.684   8.877  0.2001 -1.4432  0.7648
  230MOL0     H30302   1.117   6.646   8.710 -1.2275  1.5888  0.1663
  230MOL0     H30303   1.018   6.478   8.955 -0.6338  1.6182  0.5193
  230MOL0     H30304   0.978   6.461   8.788 -0.3130  0.1174  0.7357
  230MOL0     H30305   1.222   6.407   8.737 -2.2749  2.9591  0.7948
  230MOL0     H30306   1.159   6.295   8.850 -0.2633  0.1277  0.3691
  230MOL0     H30307   1.240   6.434   9.039 -0.5483  0.4030 -0.5333
  230MOL0     H30308   1.305   6.547   8.919  0.7811  0.5086  4.2359
  230MOL0     H30309   1.362   6.249   8.941  0.4911  0.3882 -0.6766
  230MOL0     H30310   1.435   6.354   8.817 -0.0438  0.4497 -0.2513
  230MOL0     H30311   1.494   6.397   9.102  1.6726  0.6847  0.9093
  230MOL0     H30312   1.570   6.486   8.967  1.2216 -0.6312  1.4052
  230MOL0     H30313   1.751   6.371   8.826 -4.0644  0.3733 -0.6272
  230MOL0     H30314   1.989   6.076   8.914  0.1189 -0.4763 -0.8763
  230MOL0     H30315   2.032   6.249   8.934  0.4235 -0.0055 -1.4415
  230MOL0     H30316   2.064   6.191   8.698 -0.1539  0.2170 -0.0751
  230MOL0     H30317   1.941   6.309   8.718  0.5450  1.1607  1.7116
  230MOL0     H30318   1.868   6.015   8.706  0.0309 -0.2675  0.6777
  230MOL0     H30319   1.765   6.158   8.680  0.8476  2.1264  0.8491
  230MOL0     H30320   1.837   6.022   8.468  0.1366  0.6940 -0.8498
  230MOL0     H30321   1.990   6.115   8.500  0.2535  2.1474 -2.9987
  230MOL0     H30322   1.618   6.069   8.540 -2.3949  0.5846  0.8683
  230MOL0     H30323   1.388   6.139   8.494 -1.9302  3.0775  1.4152
  230MOL0     H30324   1.046   6.130   8.316 -1.5066 -1.2789  0.6247
  230MOL0     H30325   0.803   6.184   8.250 -1.1240  4.2625 -4.0675
  230MOL0     H30326   0.764   6.472   8.143  0.3855  0.3201  1.5568
  230MOL0     H30327   0.688   6.599   8.249 -1.1639 -0.3650  0.7398
  230MOL0     H30328   0.532   6.379   8.098 -4.3871  1.4431  0.3255
  230MOL0     H30329   0.596   6.527   8.015  3.5757 -0.9777 -0.0481
  230MOL0     H30330   0.455   6.651   8.208 -0.6127 -0.1993 -0.4941
  230MOL0     H30331   0.394   6.492   8.257 -0.4818  0.6679  0.3239
  230MOL0     H30332   0.357   6.597   7.975  2.7880 -2.9470 -1.3050
  230MOL0     H30333   0.279   6.453   8.052 -0.0713  0.2503  1.5451
  230MOL0     H30334   0.235   6.747   8.138  1.0905 -0.1720  1.3876
  230MOL0     H30335   0.187   6.602   8.226  2.0749  0.8803  0.9728
  230MOL0     H30336   0.051   6.536   8.031  1.6395 -0.6700  1.2293
  230MOL0     H30337   0.100   6.678   7.945 -1.2169 -1.7210 -0.7317
  230MOL0     H30338  -0.097   6.636   8.142 -1.5116  0.0264 -2.2517
  230MOL0     H30339   0.003   6.777   8.199  1.5897 -0.7057  0.4582
  230MOL0     H30340  -0.046   6.863   7.944 -1.9936  1.0677 -1.2282
  230MOL0     H30341  -0.182   6.852   8.050  0.1923  0.5497  0.6413
  230MOL0     H30342   0.804   6.542   8.465 -4.4912 -4.1802  1.9627
  230MOL0     H30343   1.057   6.503   8.527 -0.5231  0.9475 -0.1871
  230MOL0     H30344   1.516   6.520   8.333  2.3498 -1.1871 -2.3123
  230MOL0     H30345   1.748   6.452   8.388  0.1046  1.4626  1.1300
  230MOL0     H30346   0.524   6.906   8.943 -0.8531 -1.8242  1.0837
  230MOL0     H30347   0.303   6.888   8.873  1.8914  2.2501 -0.3051
  230MOL0     H30348  -0.018   6.654   8.653  1.5958 -1.3253 -1.6223
  230MOL0     H30349  -0.244   6.604   8.546  0.3913 -0.3057  0.2849
  230MOL0     H30350  -0.506   6.670   8.276  0.6090 -1.7556 -0.1957
  230MOL0     H30351  -0.342   6.704   8.207  0.9425  0.8227  1.6860
  230MOL0     H30352  -0.552   6.917   8.266 -2.3340 -0.5551 -2.6567
  230MOL0     H30353  -0.394   6.931   8.179  1.1455 -0.0766  1.3715
  230MOL0     H30354  -0.488   6.757   8.020 -2.8327 -0.8578 -2.3930
  230MOL0     H30355  -0.567   6.912   8.006 -0.8279  0.8868 -0.1869
  230MOL0     H30356  -0.715   6.712   7.992  1.7879 -0.8405  0.0566
  230MOL0     H30357  -0.676   6.675   8.162 -3.0514 -2.7966 -2.2890
  230MOL0     H30358  -0.956   6.990   8.199  1.5728  0.5076  0.6416
  230MOL0     H30359  -0.216   6.966   8.320  0.3204  1.6463  1.4686
  230MOL0     H30360   0.013   7.000   8.391  2.1010  0.1950  3.7078
  231MOL0     O30361   3.712   3.404   3.678 -0.3220 -0.5759 -0.0002
  231MOL0     C30362   3.750   3.381   3.796 -0.8190 -0.2386 -0.5100
  231MOL0     O30363   3.673   3.385   3.901  0.6504 -0.0460  0.5268
  231MOL0     C30364   3.537   3.392   3.875 -0.1162 -0.7883 -0.6396
  231MOL0     C30365   3.487   3.531   3.881 -0.4279  0.4422  0.1564
  231MOL0     C30366   3.349   3.556   3.855 -0.7157  0.6891 -1.1902
  231MOL0     C30367   3.264   3.449   3.834  0.6501 -0.0842 -0.2499
  231MOL0     O30368   3.130   3.460   3.808  0.4773 -0.9338 -0.0549
  231MOL0     C30369   3.105   3.541   3.690  0.0390 -0.6654 -0.2066
  231MOL0     C30370   2.966   3.515   3.632  0.1699 -0.1877  0.2644
  231MOL0     C30371   2.870   3.521   3.742 -0.1178 -0.0559  0.3209
  231MOL0     C30372   2.726   3.536   3.684  0.2611 -0.0137 -0.8418
  231MOL0     C30373   2.613   3.499   3.781 -0.2624 -0.5575 -0.1675
  231MOL0     C30374   2.607   3.579   3.912 -0.6513 -0.7126  0.8713
  231MOL0     C30375   2.484   3.539   3.988  0.1574  0.4883  0.1617
  231MOL0     C30376   2.497   3.590   4.128  0.2666  0.2877  0.7956
  231MOL0     N30377   2.366   3.631   4.184 -0.5582 -0.1457  0.5375
  231MOL0     C30378   2.271   3.543   4.241 -0.1080 -0.6314  0.5850
  231MOL0     C30379   2.174   3.629   4.287  0.1303  0.1559 -0.0017
  231MOL0     C30380   2.048   3.602   4.356 -0.3531  0.5155 -0.4204
  231MOL0     C30381   1.917   3.615   4.275 -0.4225 -0.1923 -0.5794
  231MOL0     C30382   1.801   3.558   4.365  0.0384 -0.0018 -0.2237
  231MOL0     C30383   1.677   3.524   4.281  0.4176 -0.6016  0.1997
  231MOL0     O30384   1.641   3.645   4.214  0.4742  0.2300 -0.1507
  231MOL0     C30385   1.510   3.662   4.173 -0.4947 -0.5722  0.2473
  231MOL0     C30386   1.430   3.548   4.157  0.2130  0.4014 -0.5801
  231MOL0     C30387   1.298   3.567   4.124 -0.5922  0.7936  0.0605
  231MOL0     C30388   1.239   3.693   4.108 -0.6058 -0.0913  0.1153
  231MOL0     C30389   1.100   3.689   4.070 -0.9170  0.3239 -0.2639
  231MOL0     O30390   1.060   3.593   3.987 -0.3490  0.4292 -0.3055
  231MOL0     C30391   0.930   3.614   3.950  0.2855  0.7619 -0.0272
  231MOL0     C30392   0.821   3.617   4.038  0.1810 -0.4124 -0.5280
  231MOL0     C30393   0.690   3.633   3.989  0.3017 -0.1958 -0.0129
  231MOL0     C30394   0.667   3.658   3.857  0.3800  0.0456 -0.3629
  231MOL0     O30395   0.535   3.694   3.826  0.1581 -0.6931  0.4634
  231MOL0     C30396   0.515   3.745   3.691 -0.4178  0.4116 -0.3024
  231MOL0     C30397   0.388   3.809   3.683  0.0982 -0.6888  0.8759
  231MOL0     C30398   0.365   3.877   3.545  0.8234 -0.1137 -0.1411
  231MOL0     C30399   0.312   3.774   3.451 -0.3443 -0.5999  0.2222
  231MOL0     C30400   0.282   3.850   3.317 -0.2620  0.3349  0.0684
  231MOL0     C30401   0.152   3.941   3.322 -0.1300  0.4024  0.6760
  231MOL0     C30402   0.016   3.864   3.312 -0.4972 -0.2139 -0.9101
  231MOL0     C30403  -0.092   3.958   3.316  0.4231 -1.4070  0.8519
  231MOL0    Cl30404  -0.124   4.020   3.148  0.1472  0.6492  0.2500
  231MOL0     C30405   0.774   3.641   3.768 -1.1188 -0.5543 -0.6805
  231MOL0     C30406   0.907   3.617   3.816  0.4513  0.4753  0.1617
  231MOL0     O30407   1.032   3.780   4.122  0.3152 -0.4180  0.0398
  231MOL0     C30408   1.325   3.803   4.123  0.1224  0.9625 -0.5913
  231MOL0     C30409   1.460   3.789   4.154 -0.2071  1.1811 -0.1031
  231MOL0     N30410   2.201   3.759   4.244  1.4174 -0.2724 -0.6117
  231MOL0     N30411   2.318   3.756   4.184 -0.4280 -0.4848 -0.1255
  231MOL0     C30412   3.312   3.314   3.826 -0.3770  0.2741  0.6564
  231MOL0     C30413   3.450   3.286   3.846 -0.3853 -0.5630  0.1329
  231MOL0     C30414   3.897   3.388   3.823  0.6719 -0.0283 -0.2082
  231MOL0     C30415   3.991   3.379   3.710  0.1168  0.9335 -0.3326
  231MOL0     C30416   4.125   3.390   3.736 -0.3552 -0.7010  0.4028
  231MOL0     C30417   4.172   3.428   3.864  0.0371 -0.1117 -0.5556
  231MOL0     O30418   4.304   3.448   3.898  0.3822  0.7160  0.5908
  231MOL0     C30419   4.410   3.431   3.802 -0.2492 -0.3122 -0.7114
  231MOL0     C30420   4.528   3.484   3.876  0.2933  0.3854  0.0350
  231MOL0     C30421   4.559   3.408   4.007 -0.5996  0.3135 -0.4020
  231MOL0     C30422   4.651   3.492   4.095 -0.3597  0.4011 -0.5036
  231MOL0     C30423   4.578   3.599   4.170 -0.8199 -0.3798  0.2606
  231MOL0     C30424   4.506   3.694   4.207 -0.7952 -0.0363 -0.0337
  231MOL0     C30425   4.088   3.427   3.971 -0.7199  0.2380 -0.0753
  231MOL0     C30426   3.946   3.414   3.952 -0.9633 -0.3423  0.3036
  231MOL0     H30427   3.564   3.606   3.895 -0.3628  0.7448 -1.5966
  231MOL0     H30428   3.316   3.658   3.870  1.6587  1.0543  3.6880
  231MOL0     H30429   3.179   3.527   3.610 -1.8793 -2.0295 -1.8288
  231MOL0     H30430   3.109   3.646   3.721  1.8104 -1.4969  2.8680
  231MOL0     H30431   2.960   3.415   3.587  0.3426 -1.2193  2.4258
  231MOL0     H30432   2.942   3.593   3.559 -2.5583 -0.7483  0.4834
  231MOL0     H30433   2.893   3.607   3.806  0.8398  1.2911 -1.7333
  231MOL0     H30434   2.882   3.429   3.800 -0.6030 -0.5612 -0.3729
  231MOL0     H30435   2.708   3.640   3.656  0.4638  1.3332  3.2430
  231MOL0     H30436   2.708   3.472   3.598 -1.4378 -1.0961  0.2543
  231MOL0     H30437   2.633   3.394   3.805  2.1431 -0.5385 -1.7456
  231MOL0     H30438   2.520   3.510   3.723  1.6332 -1.8537 -3.7964
  231MOL0     H30439   2.605   3.689   3.904  0.6536 -0.5416  2.3122
  231MOL0     H30440   2.700   3.558   3.966  1.1558  1.6546 -1.0735
  231MOL0     H30441   2.389   3.575   3.945  0.0844 -0.5395 -0.5588
  231MOL0     H30442   2.490   3.430   3.982 -0.6360  0.4705 -0.4578
  231MOL0     H30443   2.554   3.684   4.130 -1.3438  1.3979 -1.2158
  231MOL0     H30444   2.549   3.517   4.190  0.3162 -0.6110 -0.2703
  231MOL0     H30445   2.270   3.434   4.237  1.4847 -0.7224  1.7167
  231MOL0     H30446   2.051   3.680   4.433  3.5851 -1.0274  1.1977
  231MOL0     H30447   2.048   3.509   4.413 -1.7479  1.4229  1.1754
  231MOL0     H30448   1.918   3.548   4.189 -2.9374 -2.1575  0.7934
  231MOL0     H30449   1.906   3.715   4.233 -2.1882 -0.7824 -1.6040
  231MOL0     H30450   1.828   3.470   4.424 -2.4377 -1.2258 -0.7962
  231MOL0     H30451   1.767   3.629   4.440 -0.5960 -3.5260  3.1392
  231MOL0     H30452   1.600   3.496   4.353 -0.7468 -0.4136 -0.9368
  231MOL0     H30453   1.692   3.442   4.209 -1.0612  0.0315 -0.8831
  231MOL0     H30454   1.470   3.449   4.178 -0.7793  0.1247  0.0457
  231MOL0     H30455   1.234   3.483   4.100 -0.2133  0.0184  1.5862
  231MOL0     H30456   0.840   3.638   4.143 -1.1986  3.9067 -0.9716
  231MOL0     H30457   0.612   3.636   4.065  1.3522  0.6235  1.0838
  231MOL0     H30458   0.523   3.674   3.608 -0.3886 -0.0383  0.0799
  231MOL0     H30459   0.588   3.826   3.680  0.2111  0.0356  0.8888
  231MOL0     H30460   0.393   3.876   3.769  1.9253 -1.0608  1.1108
  231MOL0     H30461   0.308   3.736   3.695 -0.0646 -0.6229  0.2591
  231MOL0     H30462   0.456   3.923   3.505  1.3868  0.1163  1.3382
  231MOL0     H30463   0.294   3.957   3.565 -0.4042 -1.2817  0.2848
  231MOL0     H30464   0.390   3.699   3.436  1.5337  0.3917  3.8229
  231MOL0     H30465   0.219   3.724   3.479 -0.3044 -0.9402 -0.2344
  231MOL0     H30466   0.266   3.765   3.250  0.7177  0.0560  0.1767
  231MOL0     H30467   0.373   3.905   3.293  2.8712 -3.0564  2.8829
  231MOL0     H30468   0.152   4.003   3.232 -0.3556  0.4957  0.7394
  231MOL0     H30469   0.148   4.008   3.408  1.8436 -1.1103  2.0436
  231MOL0     H30470   0.014   3.800   3.224 -1.0450 -0.5382 -0.6646
  231MOL0     H30471   0.014   3.808   3.406  3.6494  4.3223  2.4526
  231MOL0     H30472  -0.063   4.042   3.379 -0.3285  0.1279 -0.7695
  231MOL0     H30473  -0.184   3.908   3.349 -0.8517 -0.6608 -1.3750
  231MOL0     H30474   0.759   3.657   3.662  2.0510  2.2287 -0.8585
  231MOL0     H30475   0.998   3.609   3.757  1.6879 -3.1269  2.2536
  231MOL0     H30476   1.280   3.901   4.112  2.5349  2.7217  3.1291
  231MOL0     H30477   1.526   3.874   4.160  1.1367  0.1647 -0.0586
  231MOL0     H30478   3.250   3.233   3.788  1.9034 -2.2247  1.9553
  231MOL0     H30479   3.501   3.192   3.829  0.8317 -0.0104  0.5388
  231MOL0     H30480   3.966   3.362   3.606  1.9653  1.4314 -0.8992
  231MOL0     H30481   4.195   3.396   3.653  1.3670  1.2546  1.9004
  231MOL0     H30482   4.396   3.498   3.717  0.0555  0.3421 -0.2536
  231MOL0     H30483   4.416   3.323   3.783  1.1341 -0.5290  0.7156
  231MOL0     H30484   4.610   3.478   3.804  1.9026 -1.2315  1.8578
  231MOL0     H30485   4.510   3.588   3.903  2.1393  0.7765 -0.1293
  231MOL0     H30486   4.606   3.313   3.977  2.0827  1.2572  0.5524
  231MOL0     H30487   4.475   3.387   4.074  1.9097  0.8728  3.1608
  231MOL0     H30488   4.699   3.422   4.165  3.8586  4.4154  1.0843
  231MOL0     H30489   4.728   3.535   4.031  0.0201  2.2578  1.1141
  231MOL0     H30490   4.460   3.777   4.256 -0.7117 -1.9550  3.6044
  231MOL0     H30491   4.126   3.425   4.073 -3.4538 -1.1416  1.0297
  231MOL0     H30492   3.888   3.414   4.044  0.6608  0.9083  1.3733
  232MOL0     O30493   6.970   3.322  11.175 -0.0076  0.0062  0.1333
  232MOL0     C30494   6.912   3.328  11.067  0.0879 -0.4988  0.0550
  232MOL0     O30495   6.777   3.316  11.043 -0.3481  0.0153  0.2288
  232MOL0     C30496   6.678   3.285  11.133  0.1357  0.1624 -0.3421
  232MOL0     C30497   6.694   3.243  11.274  0.3235 -0.7477 -0.1664
  232MOL0     C30498   6.586   3.202  11.342  0.0044  0.3638 -0.3181
  232MOL0     C30499   6.456   3.215  11.289 -0.3104  0.7642 -1.1228
  232MOL0     O30500   6.356   3.174  11.371  0.4954 -0.0537 -0.2759
  232MOL0     C30501   6.239   3.132  11.309  0.4569 -0.2819 -0.2800
  232MOL0     C30502   6.132   3.088  11.406  0.0977  0.6476 -0.2261
  232MOL0     C30503   6.161   2.953  11.471 -0.1426 -0.3492  0.0053
  232MOL0     C30504   6.071   2.954  11.594 -0.8489 -0.0366 -0.7057
  232MOL0     C30505   5.921   2.924  11.580  0.8084  0.7932  1.2287
  232MOL0     C30506   5.888   2.784  11.647  0.0944 -0.6323  0.2498
  232MOL0     C30507   5.742   2.767  11.696  0.1862  0.9093 -0.4269
  232MOL0     C30508   5.714   2.823  11.842  0.0934  0.0230  0.1867
  232MOL0     N30509   5.618   2.744  11.908  0.8595  0.0473  0.0816
  232MOL0     C30510   5.603   2.608  11.918 -0.5682 -0.3048 -0.1936
  232MOL0     C30511   5.484   2.602  11.979  0.5601  0.4696  0.3849
  232MOL0     C30512   5.438   2.467  12.028 -0.0445  0.4134 -0.1765
  232MOL0     C30513   5.304   2.426  11.964 -0.1131  0.1433  0.7606
  232MOL0     C30514   5.269   2.276  11.955 -0.2808  0.2195 -0.6191
  232MOL0     C30515   5.117   2.240  11.969 -0.0461 -0.3151 -0.3189
  232MOL0     O30516   5.060   2.316  11.867  0.3933  0.7906 -0.7313
  232MOL0     C30517   4.937   2.281  11.832  0.4767 -1.1920  0.1536
  232MOL0     C30518   4.829   2.265  11.920  0.7188 -0.5752  0.0095
  232MOL0     C30519   4.709   2.240  11.862 -0.0523  0.2866 -0.2150
  232MOL0     C30520   4.692   2.223  11.722  0.1971  0.2747 -0.5624
  232MOL0     C30521   4.558   2.198  11.667 -1.0041 -0.0532  0.1979
  232MOL0     O30522   4.449   2.232  11.740 -0.1709 -0.3489  0.7642
  232MOL0     C30523   4.317   2.209  11.699 -1.0342 -0.4360  0.4877
  232MOL0     C30524   4.275   2.168  11.572 -1.0362 -0.4585 -0.6120
  232MOL0     C30525   4.132   2.161  11.545 -0.0208  0.3221 -0.3135
  232MOL0     C30526   4.039   2.189  11.640 -0.5290  0.1697 -0.1499
  232MOL0     O30527   3.902   2.194  11.626 -0.1529  0.5353  0.0420
  232MOL0     C30528   3.838   2.210  11.491 -0.2327  0.8005 -0.4545
  232MOL0     C30529   3.692   2.195  11.494  0.5283  0.5008  0.9921
  232MOL0     C30530   3.630   2.287  11.597  1.0007 -0.3992  0.9826
  232MOL0     C30531   3.477   2.279  11.590  0.3410 -0.8176 -0.0556
  232MOL0     C30532   3.410   2.300  11.452  0.8068 -0.1210 -0.2606
  232MOL0     C30533   3.261   2.340  11.472  0.2160  0.2220 -0.4485
  232MOL0     C30534   3.169   2.224  11.438 -0.2880 -0.2225 -0.1815
  232MOL0     C30535   3.046   2.292  11.377  0.0540  0.7404  0.2502
  232MOL0    Cl30536   2.931   2.164  11.351  0.1481 -0.2393 -0.5216
  232MOL0     C30537   4.081   2.235  11.758  0.5830 -0.0024 -0.1918
  232MOL0     C30538   4.225   2.241  11.792  0.2798  0.6757  0.2138
  232MOL0     O30539   4.556   2.148  11.551  0.4138 -0.0721  0.3340
  232MOL0     C30540   4.800   2.228  11.635  0.2159  0.3931  0.1635
  232MOL0     C30541   4.924   2.257  11.695 -0.0642  1.2673  0.1996
  232MOL0     N30542   5.440   2.729  12.022 -0.5549 -0.1398  0.2115
  232MOL0     N30543   5.524   2.803  11.974  0.4088 -0.7435 -0.4256
  232MOL0     C30544   6.444   3.261  11.161 -0.2243 -0.7884 -1.1761
  232MOL0     C30545   6.553   3.299  11.081 -0.4213 -0.1991 -0.1894
  232MOL0     C30546   7.004   3.347  10.949  0.3289  0.4353 -0.5553
  232MOL0     C30547   7.136   3.383  10.953  0.3036 -0.7005 -0.4274
  232MOL0     C30548   7.216   3.376  10.838  0.0070 -0.2690 -0.5461
  232MOL0     C30549   7.173   3.314  10.719  0.8183 -0.2831 -0.0603
  232MOL0     O30550   7.261   3.292  10.621  0.0016 -0.0087  0.2749
  232MOL0     C30551   7.215   3.277  10.489 -1.2586  0.2461 -0.2833
  232MOL0     C30552   7.182   3.136  10.432 -0.1734  0.3070  0.2715
  232MOL0     C30553   7.086   3.142  10.323  0.1372  0.5275 -0.0613
  232MOL0     C30554   7.048   2.997  10.278  0.1666 -0.3175  0.6192
  232MOL0     C30555   6.986   2.928  10.387 -0.5023  0.4794  0.5858
  232MOL0     C30556   6.941   2.880  10.484  0.1994 -0.3902 -1.0080
  232MOL0     C30557   7.038   3.268  10.710 -0.7657 -0.4073  0.3500
  232MOL0     C30558   6.957   3.290  10.824 -0.2864  0.1090  0.3627
  232MOL0     H30559   6.796   3.254  11.309  0.0363 -0.8836  0.7635
  232MOL0     H30560   6.593   3.169  11.445 -3.4009  0.0294 -0.0699
  232MOL0     H30561   6.249   3.049  11.238 -0.3891 -1.0517  0.4639
  232MOL0     H30562   6.212   3.218  11.247  1.9415  0.1297 -0.4079
  232MOL0     H30563   6.038   3.082  11.351  0.8150  2.0017 -1.6822
  232MOL0     H30564   6.112   3.168  11.477 -2.8771  0.0098 -0.2251
  232MOL0     H30565   6.265   2.948  11.505 -0.5420 -0.1633  1.3111
  232MOL0     H30566   6.141   2.874  11.399 -0.2735  0.3797 -0.7761
  232MOL0     H30567   6.105   2.877  11.664 -2.0175 -0.5828 -0.7076
  232MOL0     H30568   6.070   3.053  11.640  3.0045 -0.2121  0.0806
  232MOL0     H30569   5.881   2.920  11.478 -0.0984  2.0496  1.5045
  232MOL0     H30570   5.854   3.003  11.615 -3.7752 -2.3945  0.6971
  232MOL0     H30571   5.943   2.768  11.740  0.2071  2.0574  0.7353
  232MOL0     H30572   5.915   2.701  11.581 -0.0315 -1.3984  1.1494
  232MOL0     H30573   5.667   2.793  11.621  0.2924 -0.3546 -1.0000
  232MOL0     H30574   5.740   2.658  11.703  3.9278  0.8340  1.5980
  232MOL0     H30575   5.679   2.926  11.830 -2.0425 -0.7791 -1.0638
  232MOL0     H30576   5.805   2.829  11.902  2.5173  0.9034 -3.2994
  232MOL0     H30577   5.670   2.534  11.876  0.3937  1.1018 -1.2350
  232MOL0     H30578   5.436   2.472  12.138 -4.0850  1.7032 -0.1639
  232MOL0     H30579   5.511   2.390  12.000 -2.4033 -2.5492  1.2634
  232MOL0     H30580   5.309   2.463  11.861 -0.3037  1.5256  1.2297
  232MOL0     H30581   5.222   2.486  12.003  0.1190  2.6399 -2.1958
  232MOL0     H30582   5.291   2.227  11.860 -0.1701 -1.5509  0.2874
  232MOL0     H30583   5.312   2.226  12.042 -0.9270  0.5341 -0.1038
  232MOL0     H30584   5.075   2.254  12.069  0.3527  1.6967 -0.3897
  232MOL0     H30585   5.087   2.139  11.941  0.4090 -0.4071 -0.4903
  232MOL0     H30586   4.841   2.262  12.028  0.6252  0.0429  0.0439
  232MOL0     H30587   4.626   2.234  11.932 -0.2726  1.7382 -0.3266
  232MOL0     H30588   4.337   2.123  11.495 -0.8656 -2.2939  0.5293
  232MOL0     H30589   4.102   2.127  11.447  1.4326  0.0632 -0.6943
  232MOL0     H30590   3.880   2.147  11.413  1.3072  0.9331  0.2360
  232MOL0     H30591   3.862   2.309  11.452  1.9676  0.2625 -0.5743
  232MOL0     H30592   3.671   2.090  11.515  0.4135  0.2968 -0.0826
  232MOL0     H30593   3.658   2.212  11.392  0.0586  1.4718  1.2926
  232MOL0     H30594   3.653   2.393  11.579  0.3041 -0.2974  0.6608
  232MOL0     H30595   3.650   2.257  11.700  1.8810  0.7568  1.1685
  232MOL0     H30596   3.436   2.191  11.642 -0.5299  0.5978  1.7465
  232MOL0     H30597   3.446   2.363  11.653  1.8882  1.8687 -2.6580
  232MOL0     H30598   3.424   2.214  11.385 -3.6539  0.1635 -1.8898
  232MOL0     H30599   3.457   2.383  11.398  1.7907 -1.4310 -1.5148
  232MOL0     H30600   3.239   2.422  11.403 -2.3731  1.9325  2.2061
  232MOL0     H30601   3.244   2.384  11.570  1.1241 -0.1777 -0.1014
  232MOL0     H30602   3.213   2.152  11.369  0.9911 -0.3495  0.7487
  232MOL0     H30603   3.147   2.170  11.531  4.8244 -2.5749 -0.0447
  232MOL0     H30604   3.072   2.338  11.281 -0.2580  2.3156  0.8947
  232MOL0     H30605   3.010   2.372  11.443  1.3069 -0.9568  3.1910
  232MOL0     H30606   4.012   2.274  11.833  2.0591  2.5262 -0.0323
  232MOL0     H30607   4.250   2.281  11.889  1.1266  0.6209  0.0262
  232MOL0     H30608   4.794   2.208  11.528  1.4932 -2.4050  0.5101
  232MOL0     H30609   5.015   2.257  11.635 -0.4296  0.6830 -0.3648
  232MOL0     H30610   6.346   3.269  11.113 -1.8174  1.3026  2.0533
  232MOL0     H30611   6.539   3.312  10.974  2.1962 -0.1990 -0.5986
  232MOL0     H30612   7.171   3.425  11.047 -2.7735 -1.0235  0.9711
  232MOL0     H30613   7.319   3.406  10.854 -0.9645  3.0392  0.1501
  232MOL0     H30614   7.300   3.294  10.422 -0.3903 -2.7344 -0.0825
  232MOL0     H30615   7.133   3.342  10.457 -2.1103 -1.2488 -1.2804
  232MOL0     H30616   7.271   3.081  10.399 -1.8077 -1.8525 -0.7945
  232MOL0     H30617   7.145   3.075  10.515  0.6635  0.0631  0.4822
  232MOL0     H30618   7.137   3.194  10.241  1.1326  2.2343  1.5887
  232MOL0     H30619   6.993   3.193  10.349 -0.1068 -0.6325  1.5047
  232MOL0     H30620   6.968   3.005  10.204 -0.1396 -1.9123  0.7423
  232MOL0     H30621   7.128   2.941  10.228  2.3753  0.8642  2.5866
  232MOL0     H30622   6.898   2.842  10.575  5.1185 -0.3840  1.6605
  232MOL0     H30623   7.006   3.210  10.624 -1.9276 -1.3473  1.3833
  232MOL0     H30624   6.857   3.249  10.818  0.4241 -1.4769 -2.1923
  233MOL0     O30625  11.024  10.627   2.855 -1.1485 -0.4777  0.3448
  233MOL0     C30626  11.039  10.648   2.737 -0.1024  0.0830  0.3244
  233MOL0     O30627  10.938  10.643   2.652  0.3420 -0.4965  0.2386
  233MOL0     C30628  10.812  10.627   2.707 -0.1337  0.8945  0.1738
  233MOL0     C30629  10.722  10.532   2.653 -0.2906 -0.4653  0.4466
  233MOL0     C30630  10.582  10.523   2.683 -0.2192  1.2220 -0.3964
  233MOL0     C30631  10.528  10.608   2.774  0.7790  0.1893 -0.4912
  233MOL0     O30632  10.396  10.618   2.804  0.6750 -0.2524 -0.6537
  233MOL0     C30633  10.325  10.492   2.801 -0.1313  0.3389  0.0394
  233MOL0     C30634  10.180  10.497   2.860 -0.6094  0.3355 -0.1940
  233MOL0     C30635  10.064  10.534   2.763  0.4890  0.1723  0.7010
  233MOL0     C30636   9.938  10.536   2.845 -0.5516  0.2418  0.8191
  233MOL0     C30637   9.815  10.541   2.758 -0.3567 -0.4881  0.0274
  233MOL0     C30638   9.808  10.659   2.648 -0.3567 -1.0824  0.0386
  233MOL0     C30639   9.824  10.793   2.713 -0.5345 -0.1364 -0.3020
  233MOL0     C30640   9.861  10.916   2.615 -0.9427  0.5758  0.4797
  233MOL0     N30641   9.753  10.933   2.511 -0.0420  0.6165 -0.0390
  233MOL0     C30642   9.626  10.974   2.542  0.2112 -0.0122 -0.3628
  233MOL0     C30643   9.556  10.981   2.429 -0.3522  0.1889 -0.1544
  233MOL0     C30644   9.421  11.038   2.401  0.1010  0.7895  0.6330
  233MOL0     C30645   9.422  11.187   2.443 -0.4350 -0.0817  0.5709
  233MOL0     C30646   9.297  11.268   2.396 -0.4362  0.3637  0.8410
  233MOL0     C30647   9.170  11.179   2.397  0.0257  0.4028 -0.5454
  233MOL0     O30648   9.128  11.137   2.533 -0.6520 -0.0280 -0.2760
  233MOL0     C30649   8.988  11.139   2.550  0.2647  0.4100  0.7330
  233MOL0     C30650   8.936  11.163   2.678 -0.0458  1.2544 -0.0304
  233MOL0     C30651   8.794  11.174   2.698 -0.9875 -0.8778  0.6453
  233MOL0     C30652   8.704  11.150   2.589 -0.0126  0.0801  0.0134
  233MOL0     C30653   8.563  11.144   2.616  0.2374  0.1537 -0.6409
  233MOL0     O30654   8.525  11.152   2.748 -0.2668 -0.1949 -0.3004
  233MOL0     C30655   8.402  11.207   2.775 -0.6456 -0.6537 -0.0632
  233MOL0     C30656   8.410  11.333   2.847 -0.0948  0.1390 -0.3173
  233MOL0     C30657   8.296  11.402   2.883 -0.0612 -0.2854  0.1791
  233MOL0     C30658   8.168  11.355   2.847  0.3180 -0.0160  0.9820
  233MOL0     O30659   8.060  11.436   2.875 -0.6973  0.1489 -0.3633
  233MOL0     C30660   7.979  11.489   2.765 -0.2980  0.4318  0.9063
  233MOL0     C30661   7.892  11.610   2.805  0.6580 -0.1698  0.3522
  233MOL0     C30662   7.770  11.618   2.702 -0.4406  0.4263 -0.3694
  233MOL0     C30663   7.810  11.677   2.565  0.3471  0.0457 -0.0529
  233MOL0     C30664   7.691  11.778   2.522 -0.0143  1.0594 -0.1452
  233MOL0     C30665   7.560  11.696   2.502  0.2149  0.5369  0.3740
  233MOL0     C30666   7.433  11.779   2.473 -0.1355  0.1911 -0.0409
  233MOL0     C30667   7.424  11.891   2.573 -0.4115 -0.0785 -0.0886
  233MOL0    Cl30668   7.520  12.029   2.520  0.3068 -0.3537  0.2604
  233MOL0     C30669   8.163  11.231   2.779 -0.2851 -0.0242 -0.0263
  233MOL0     C30670   8.280  11.156   2.739 -0.3043 -0.1370 -1.2645
  233MOL0     O30671   8.480  11.158   2.520 -0.3114 -0.5180 -0.8354
  233MOL0     C30672   8.753  11.133   2.464  0.1598  0.2974 -0.6264
  233MOL0     C30673   8.891  11.122   2.439 -0.5500 -0.0251  0.0739
  233MOL0     N30674   9.640  10.942   2.324  0.7398  0.0886 -0.5218
  233MOL0     N30675   9.759  10.912   2.377  0.7067  0.6486  0.3248
  233MOL0     C30676  10.615  10.710   2.824 -0.3829  0.8577 -0.7491
  233MOL0     C30677  10.751  10.719   2.790  0.5338  0.4468 -0.3743
  233MOL0     C30678  11.173  10.677   2.682  0.7615 -0.5590 -0.2085
  233MOL0     C30679  11.292  10.630   2.749 -0.3799  0.6080  0.0161
  233MOL0     C30680  11.420  10.643   2.686  0.3738  0.6743  0.8470
  233MOL0     C30681  11.433  10.699   2.563  0.7595  0.2817 -0.4917
  233MOL0     O30682  11.548  10.688   2.504  0.1319  0.1641  0.0639
  233MOL0     C30683  11.547  10.725   2.363  0.1240 -0.0525 -0.6073
  233MOL0     C30684  11.678  10.685   2.301 -0.1068 -0.3879 -0.8801
  233MOL0     C30685  11.691  10.739   2.150  0.5089 -0.6122 -0.3903
  233MOL0     C30686  11.810  10.667   2.086  1.2368 -0.7947  0.1148
  233MOL0     C30687  11.935  10.692   2.149  0.0029 -0.7456  0.2859
  233MOL0     C30688  12.035  10.721   2.210  0.3276  0.0267 -0.6744
  233MOL0     C30689  11.320  10.751   2.510  0.5112 -0.4015 -0.5390
  233MOL0     C30690  11.189  10.741   2.560  0.3307 -0.4361 -0.4550
  233MOL0     H30691  10.754  10.477   2.565  0.0667  2.5991 -1.4557
  233MOL0     H30692  10.524  10.470   2.608  1.4629  1.4779 -1.9526
  233MOL0     H30693  10.374  10.422   2.870 -2.0064  0.9596  2.1264
  233MOL0     H30694  10.329  10.461   2.697 -0.5281  0.4878 -0.0207
  233MOL0     H30695  10.173  10.570   2.942  0.7224  0.7451 -0.4072
  233MOL0     H30696  10.158  10.398   2.901 -1.2178 -0.1174 -1.5863
  233MOL0     H30697  10.057  10.456   2.686  0.9153  1.9450 -1.2192
  233MOL0     H30698  10.079  10.627   2.707 -0.7925 -1.0370 -1.8412
  233MOL0     H30699   9.921  10.434   2.881  0.5426  0.4965  2.0944
  233MOL0     H30700   9.934  10.613   2.922 -3.9189  1.4177 -0.3410
  233MOL0     H30701   9.730  10.536   2.827  0.7100  0.0799  1.4332
  233MOL0     H30702   9.813  10.446   2.704 -0.1723  0.2277 -1.2845
  233MOL0     H30703   9.705  10.662   2.613 -0.7797  2.3256  1.1742
  233MOL0     H30704   9.883  10.636   2.572  0.5785  1.2816  0.1539
  233MOL0     H30705   9.730  10.819   2.763 -1.1128 -1.5558 -0.5881
  233MOL0     H30706   9.899  10.785   2.792  0.4851 -0.0684 -1.2479
  233MOL0     H30707   9.956  10.898   2.564 -0.2182  1.0664  1.6204
  233MOL0     H30708   9.860  11.009   2.672 -2.7485  1.4790 -0.9233
  233MOL0     H30709   9.594  11.012   2.639  5.1522  1.2852  1.0514
  233MOL0     H30710   9.355  10.983   2.469  2.0524 -0.8197  1.3195
  233MOL0     H30711   9.395  11.026   2.296  0.2801 -0.2630  0.7054
  233MOL0     H30712   9.518  11.228   2.410  0.0806 -1.5794  0.1670
  233MOL0     H30713   9.422  11.187   2.553  0.2782 -1.7266  0.5885
  233MOL0     H30714   9.277  11.344   2.472  0.4230  0.6426  0.7976
  233MOL0     H30715   9.313  11.303   2.294 -2.0314  1.7261  1.0217
  233MOL0     H30716   9.179  11.086   2.339  0.4940 -0.0815  0.2882
  233MOL0     H30717   9.095  11.232   2.337  1.1382  0.8906 -1.5586
  233MOL0     H30718   9.011  11.176   2.756 -0.8094 -0.6902  1.1089
  233MOL0     H30719   8.752  11.210   2.792 -0.5317  3.5492 -0.5987
  233MOL0     H30720   8.507  11.379   2.855 -0.1927  1.3542 -4.0943
  233MOL0     H30721   8.317  11.493   2.937 -0.6895  0.5658 -0.9765
  233MOL0     H30722   7.920  11.398   2.749  1.1329 -0.7676  2.2030
  233MOL0     H30723   8.031  11.515   2.673 -1.5297  0.6230  0.2308
  233MOL0     H30724   7.947  11.704   2.796 -0.6037  0.4614 -1.1720
  233MOL0     H30725   7.842  11.600   2.902 -2.8033  0.3233 -1.2377
  233MOL0     H30726   7.693  11.686   2.741  0.9819  1.1067  1.4210
  233MOL0     H30727   7.717  11.524   2.686 -0.8270 -0.4086  4.3074
  233MOL0     H30728   7.895  11.745   2.570  0.5155 -0.2746  3.3929
  233MOL0     H30729   7.812  11.603   2.484  1.7112  0.0851 -0.0794
  233MOL0     H30730   7.728  11.832   2.435  1.2151  0.1654 -0.2027
  233MOL0     H30731   7.683  11.855   2.599 -0.2324  1.2911 -0.3987
  233MOL0     H30732   7.546  11.656   2.603  0.6145  0.2779  0.3283
  233MOL0     H30733   7.569  11.605   2.442  1.6149  1.4839 -0.9423
  233MOL0     H30734   7.435  11.815   2.370 -0.2858 -1.5259 -0.6660
  233MOL0     H30735   7.352  11.707   2.486  0.6554 -0.5599  0.8442
  233MOL0     H30736   7.457  11.861   2.673  1.4983 -0.8765 -0.9169
  233MOL0     H30737   7.318  11.916   2.579 -1.0450 -2.7133  1.1933
  233MOL0     H30738   8.066  11.184   2.765  0.8262 -1.8949 -2.1028
  233MOL0     H30739   8.275  11.064   2.680 -0.8849 -0.3904 -0.8410
  233MOL0     H30740   8.693  11.097   2.381  1.0926  1.3089 -1.7725
  233MOL0     H30741   8.928  11.118   2.336  0.6549  2.0391  0.3567
  233MOL0     H30742  10.576  10.789   2.889 -2.6064 -0.6620 -0.0991
  233MOL0     H30743  10.801  10.807   2.830 -0.8920  0.0410  2.6085
  233MOL0     H30744  11.270  10.577   2.841 -1.0872 -1.6574 -1.3886
  233MOL0     H30745  11.516  10.617   2.729 -0.0152  2.2841  2.8939
  233MOL0     H30746  11.535  10.833   2.361 -3.4918 -0.3218 -1.0838
  233MOL0     H30747  11.467  10.672   2.309  0.9362 -1.1000 -0.8132
  233MOL0     H30748  11.753  10.734   2.364 -3.3938  3.1848  0.6735
  233MOL0     H30749  11.684  10.576   2.310  0.5232 -0.2843  0.2206
  233MOL0     H30750  11.701  10.847   2.141 -4.1679  0.0842  0.2869
  233MOL0     H30751  11.594  10.719   2.104 -1.2321  1.0759  2.2352
  233MOL0     H30752  11.782  10.561   2.089 -2.1042 -0.0864 -1.2974
  233MOL0     H30753  11.812  10.690   1.979  0.3423 -2.4459 -0.2939
  233MOL0     H30754  12.111  10.755   2.278  1.1133 -0.8037 -1.1149
  233MOL0     H30755  11.307  10.813   2.421 -1.1665  1.7399  1.0729
  233MOL0     H30756  11.111  10.795   2.508  0.5024 -0.1146 -0.3815
  234MOL0     O30757  10.224   8.193   0.908 -0.6437  0.3632  0.6751
  234MOL0     C30758  10.254   8.073   0.890 -0.6637  0.2302 -0.6465
  234MOL0     O30759  10.160   7.975   0.872  0.4237 -0.9590  0.6958
  234MOL0     C30760  10.029   8.001   0.894 -0.3871  0.7772  0.2603
  234MOL0     C30761   9.941   7.941   0.803 -0.6880  0.7532 -0.6541
  234MOL0     C30762   9.805   7.970   0.806  0.4851  0.5682  0.4713
  234MOL0     C30763   9.754   8.043   0.914 -0.3162  0.3270 -0.0821
  234MOL0     O30764   9.627   8.083   0.934  0.5189 -0.3050  0.5155
  234MOL0     C30765   9.526   8.019   0.859 -0.0539 -0.8135 -0.3750
  234MOL0     C30766   9.403   8.102   0.898  0.8037 -0.1029 -0.0787
  234MOL0     C30767   9.267   8.031   0.847  0.3595 -1.0586  0.5017
  234MOL0     C30768   9.150   8.106   0.920 -0.3858 -0.3809  0.7498
  234MOL0     C30769   9.028   8.070   0.830  0.3951 -0.1365 -0.5208
  234MOL0     C30770   8.900   8.130   0.889  0.3577 -0.3069  0.4519
  234MOL0     C30771   8.846   8.041   1.006  0.1802 -0.2944 -0.8348
  234MOL0     C30772   8.712   8.096   1.053 -0.7492 -0.6897 -0.9812
  234MOL0     N30773   8.665   8.042   1.183  0.5624  0.0579 -0.2440
  234MOL0     C30774   8.549   7.967   1.203  0.3779 -0.6189 -0.3501
  234MOL0     C30775   8.547   7.938   1.333 -1.0316 -0.0763  0.7089
  234MOL0     C30776   8.441   7.860   1.398 -0.1737 -0.0616  0.4968
  234MOL0     C30777   8.306   7.939   1.405  0.3267 -0.1961  0.0667
  234MOL0     C30778   8.228   7.899   1.530 -0.3134  0.8872  0.4166
  234MOL0     C30779   8.087   7.971   1.539  0.4356  0.0573  0.7039
  234MOL0     O30780   7.975   7.895   1.465  0.1305  0.9020 -0.3161
  234MOL0     C30781   7.839   7.917   1.491  0.4924  0.1885  0.0458
  234MOL0     C30782   7.778   7.953   1.610  0.6372 -0.8460  0.0621
  234MOL0     C30783   7.643   7.976   1.607  0.8859  0.2307 -0.3341
  234MOL0     C30784   7.564   7.950   1.493  0.1657 -0.2523  0.8404
  234MOL0     C30785   7.419   7.988   1.498  0.0133  0.2625  0.5102
  234MOL0     O30786   7.350   7.950   1.389  0.2311  0.1692  0.2454
  234MOL0     C30787   7.211   7.946   1.405 -0.6187  0.4146 -0.8709
  234MOL0     C30788   7.147   7.823   1.430  0.7159 -0.3241  0.0830
  234MOL0     C30789   7.008   7.823   1.428 -0.0103 -0.6325 -0.4362
  234MOL0     C30790   6.928   7.931   1.394  0.2793 -0.5537 -0.6729
  234MOL0     O30791   6.797   7.929   1.358 -0.2178 -0.3308  0.4757
  234MOL0     C30792   6.731   7.808   1.386 -1.0275  0.5105  0.6258
  234MOL0     C30793   6.590   7.792   1.342  0.7529 -0.4207  0.9019
  234MOL0     C30794   6.535   7.651   1.351 -0.2362 -0.1097 -0.5515
  234MOL0     C30795   6.401   7.632   1.281  0.4945 -1.1458 -0.3307
  234MOL0     C30796   6.281   7.696   1.358 -0.0004 -0.3982 -0.1937
  234MOL0     C30797   6.145   7.668   1.293  0.5933 -0.2342  0.2476
  234MOL0     C30798   6.036   7.733   1.381  0.7462 -0.0421 -0.4131
  234MOL0     C30799   5.891   7.720   1.330 -0.2473  0.3091  0.1946
  234MOL0    Cl30800   5.848   7.560   1.282  0.2599  0.2175  0.0639
  234MOL0     C30801   7.000   8.045   1.362  0.0587  0.7384  0.2691
  234MOL0     C30802   7.139   8.057   1.366  0.2290  0.6819  0.3978
  234MOL0     O30803   7.369   8.043   1.597 -0.8201 -0.1606 -0.3767
  234MOL0     C30804   7.626   7.901   1.381  0.1729 -1.3376  0.5686
  234MOL0     C30805   7.766   7.882   1.376 -0.2171  0.8581 -0.2522
  234MOL0     N30806   8.655   7.993   1.392 -0.1508 -0.3159 -0.3307
  234MOL0     N30807   8.723   8.064   1.307 -0.1632 -0.2729  0.3584
  234MOL0     C30808   9.845   8.088   1.014  0.6452 -0.3370 -0.0435
  234MOL0     C30809   9.980   8.070   1.006 -0.2360  0.7619  0.7515
  234MOL0     C30810  10.394   8.028   0.869  0.5582 -0.3452  0.6540
  234MOL0     C30811  10.428   7.907   0.808  0.3893 -0.4968 -0.5219
  234MOL0     C30812  10.560   7.872   0.780  0.0611  0.2220  0.5585
  234MOL0     C30813  10.665   7.958   0.801  0.1271 -0.5136 -0.4820
  234MOL0     O30814  10.792   7.897   0.779  0.0523  0.4160  0.3955
  234MOL0     C30815  10.910   7.967   0.808  0.7140  0.6175  0.3624
  234MOL0     C30816  11.031   7.904   0.730  0.0878  0.1351 -0.2356
  234MOL0     C30817  11.165   7.963   0.780  0.6057 -0.1450  0.4875
  234MOL0     C30818  11.266   7.919   0.685 -0.4012 -0.9285  0.0518
  234MOL0     C30819  11.385   7.986   0.731  0.5781 -0.1150 -0.3211
  234MOL0     C30820  11.476   8.052   0.773  0.1023 -0.0866  0.5279
  234MOL0     C30821  10.637   8.080   0.878 -0.3930 -0.4764 -0.5257
  234MOL0     C30822  10.501   8.114   0.907  0.1861 -0.9147  0.7988
  234MOL0     H30823   9.994   7.889   0.724  0.1231 -0.8699  0.8594
  234MOL0     H30824   9.745   7.920   0.730 -0.0837  0.8898  0.6997
  234MOL0     H30825   9.521   7.918   0.901  1.4451  0.0272  1.9890
  234MOL0     H30826   9.543   8.034   0.752  1.9771  1.8027  0.2217
  234MOL0     H30827   9.419   8.207   0.872  2.0941  0.0445  1.1934
  234MOL0     H30828   9.394   8.115   1.006 -1.1996  3.5671 -0.5130
  234MOL0     H30829   9.254   7.923   0.861 -0.9757 -1.1819 -1.2846
  234MOL0     H30830   9.259   8.053   0.740 -0.4249 -0.1179  0.7422
  234MOL0     H30831   9.141   8.075   1.024  0.1838  1.0086  1.2372
  234MOL0     H30832   9.157   8.215   0.910 -0.2115 -0.2820  1.8695
  234MOL0     H30833   9.033   7.960   0.835  3.0513 -0.0613  2.7648
  234MOL0     H30834   9.031   8.111   0.729 -1.5972  0.9386 -0.1832
  234MOL0     H30835   8.824   8.147   0.812 -0.8046 -0.0781  1.6041
  234MOL0     H30836   8.927   8.230   0.922 -0.6841  1.2176 -2.9152
  234MOL0     H30837   8.823   7.937   0.981 -2.1276 -0.2236  0.6842
  234MOL0     H30838   8.912   8.044   1.093 -0.9227  2.1792  0.0083
  234MOL0     H30839   8.624   8.084   0.988 -3.2270 -1.0894  2.1993
  234MOL0     H30840   8.725   8.204   1.060 -2.4885 -0.2790 -2.9380
  234MOL0     H30841   8.484   7.936   1.123  0.2385 -0.2117 -0.3998
  234MOL0     H30842   8.479   7.852   1.500  1.0574 -1.5562 -0.0337
  234MOL0     H30843   8.424   7.765   1.347  0.1886  0.3987 -0.5072
  234MOL0     H30844   8.247   7.910   1.318  1.7178  1.6595 -1.5847
  234MOL0     H30845   8.323   8.047   1.403  1.2380 -0.3138  0.8345
  234MOL0     H30846   8.206   7.793   1.516 -0.7588  0.7200  2.1089
  234MOL0     H30847   8.294   7.918   1.615  0.3604 -2.9551  0.9114
  234MOL0     H30848   8.091   8.077   1.515  1.4439  0.1048  1.0386
  234MOL0     H30849   8.070   7.983   1.646  2.7684 -0.0198  1.1256
  234MOL0     H30850   7.842   7.983   1.692  1.5129 -3.7493  0.5596
  234MOL0     H30851   7.603   8.037   1.687  0.6285 -0.1842 -0.1443
  234MOL0     H30852   7.198   7.728   1.441  0.3252 -0.8025 -1.9072
  234MOL0     H30853   6.971   7.723   1.444  1.0372 -1.1597 -1.1607
  234MOL0     H30854   6.735   7.802   1.495 -0.7799  0.6491  0.6259
  234MOL0     H30855   6.792   7.733   1.336 -0.6612  0.2388  1.4755
  234MOL0     H30856   6.577   7.817   1.236 -3.6290  2.7317  1.8814
  234MOL0     H30857   6.527   7.863   1.397  0.6051  1.1369 -1.1652
  234MOL0     H30858   6.529   7.626   1.458  0.5431  1.6455 -0.0475
  234MOL0     H30859   6.609   7.585   1.305  2.8676  1.5053  1.7306
  234MOL0     H30860   6.427   7.678   1.186  2.2554  0.0059  0.6506
  234MOL0     H30861   6.381   7.527   1.257 -2.1952 -0.6770 -0.3863
  234MOL0     H30862   6.293   7.805   1.356 -2.1830  0.0021  2.2294
  234MOL0     H30863   6.276   7.661   1.461  0.6913  0.3206  0.0992
  234MOL0     H30864   6.131   7.559   1.292  1.9183 -0.4212 -0.6206
  234MOL0     H30865   6.125   7.696   1.189 -1.5735 -0.8080  0.4530
  234MOL0     H30866   6.038   7.690   1.482  0.5871 -1.0081 -0.8076
  234MOL0     H30867   6.057   7.840   1.382  0.9995 -0.0909 -0.2348
  234MOL0     H30868   5.884   7.779   1.239 -1.5876 -2.0929 -1.3794
  234MOL0     H30869   5.826   7.765   1.406 -2.3611  1.6965 -2.2840
  234MOL0     H30870   6.940   8.133   1.340  0.9720  1.0144 -1.2538
  234MOL0     H30871   7.200   8.139   1.331 -0.2908 -0.0049 -2.3452
  234MOL0     H30872   7.560   7.881   1.297 -0.8508 -2.9628  1.6962
  234MOL0     H30873   7.813   7.845   1.285  1.8949  1.1528  0.6779
  234MOL0     H30874   9.813   8.140   1.103  0.6789 -1.2860  0.5352
  234MOL0     H30875  10.051   8.113   1.076 -0.4640  5.1745 -1.3695
  234MOL0     H30876  10.351   7.835   0.781  0.9145 -1.5007  0.5524
  234MOL0     H30877  10.572   7.778   0.727  2.8682 -0.2118  1.8023
  234MOL0     H30878  10.925   7.959   0.916 -1.4646  1.2713  0.7558
  234MOL0     H30879  10.896   8.071   0.777  0.0137  0.4374  0.0647
  234MOL0     H30880  11.025   7.797   0.754 -0.6504  0.1745 -0.2321
  234MOL0     H30881  11.016   7.896   0.622 -0.2220 -2.5419 -0.0598
  234MOL0     H30882  11.200   7.915   0.871  5.7567  0.1649 -1.0394
  234MOL0     H30883  11.151   8.072   0.782  0.6846 -0.1416  0.8221
  234MOL0     H30884  11.271   7.809   0.688  1.3788 -0.8524  0.8147
  234MOL0     H30885  11.250   7.951   0.582 -0.0392  2.1602  0.8695
  234MOL0     H30886  11.558   8.114   0.806  2.6409 -3.2623  0.7063
  234MOL0     H30887  10.723   8.135   0.915 -0.3532 -1.4546  0.8848
  234MOL0     H30888  10.480   8.202   0.966  0.1711 -1.1048  1.0797
  235MOL0     O30889   4.843   4.682   9.588  0.1376  0.1876  0.1125
  235MOL0     C30890   4.835   4.751   9.487 -1.0687  0.6667  0.4446
  235MOL0     O30891   4.731   4.758   9.393 -0.0209  0.0154 -0.2486
  235MOL0     C30892   4.611   4.691   9.393  0.0726 -0.4091  0.1914
  235MOL0     C30893   4.526   4.730   9.289 -0.1552  0.0226 -0.8996
  235MOL0     C30894   4.396   4.688   9.284  0.4880  0.0689  0.4455
  235MOL0     C30895   4.336   4.596   9.376 -0.6200 -0.5597 -0.2585
  235MOL0     O30896   4.208   4.554   9.357 -0.3735  0.1260 -0.0864
  235MOL0     C30897   4.151   4.472   9.467  0.5777 -0.3220  0.9962
  235MOL0     C30898   4.008   4.477   9.446  0.5883 -0.2510  0.1309
  235MOL0     C30899   3.918   4.462   9.562 -0.5675 -0.1601 -0.3275
  235MOL0     C30900   3.939   4.325   9.622  0.1581 -0.6272 -0.3299
  235MOL0     C30901   3.821   4.288   9.723  0.1930  0.1069  0.2556
  235MOL0     C30902   3.684   4.252   9.654 -0.4843 -0.0767  1.5103
  235MOL0     C30903   3.583   4.213   9.763  0.1117 -0.3932 -0.8249
  235MOL0     C30904   3.546   4.337   9.852 -0.2474  0.4871 -0.3471
  235MOL0     N30905   3.501   4.448   9.771 -0.3099 -0.5023 -0.0617
  235MOL0     C30906   3.366   4.470   9.718  0.0515 -0.6985 -0.7598
  235MOL0     C30907   3.370   4.594   9.663  1.2185 -0.3102  0.2763
  235MOL0     C30908   3.262   4.658   9.588  0.5799  0.3272  0.2294
  235MOL0     C30909   3.129   4.688   9.665 -0.7085  0.7980 -0.9451
  235MOL0     C30910   3.158   4.785   9.772 -0.0352  0.3441  0.4982
  235MOL0     C30911   3.015   4.824   9.825 -0.2202 -0.5715  0.7640
  235MOL0     O30912   2.964   4.924   9.741 -0.1553 -0.8935 -1.0721
  235MOL0     C30913   2.828   4.950   9.725 -0.8671  0.6063  0.3592
  235MOL0     C30914   2.780   4.964   9.600  0.1419  0.9637 -0.5675
  235MOL0     C30915   2.643   4.968   9.569 -0.0681 -1.1317  0.8598
  235MOL0     C30916   2.552   4.963   9.679 -0.1907 -0.4182  0.2299
  235MOL0     C30917   2.405   4.978   9.655  0.6013 -0.3260  0.1614
  235MOL0     O30918   2.370   4.966   9.521  0.4845  1.1092 -0.4917
  235MOL0     C30919   2.242   4.994   9.480  0.0503  0.4681  0.7076
  235MOL0     C30920   2.168   4.891   9.428 -0.5940  0.2785 -0.9670
  235MOL0     C30921   2.045   4.904   9.369 -0.2536 -0.1443  0.2026
  235MOL0     C30922   1.994   5.032   9.354  0.5482  0.3474  0.8738
  235MOL0     O30923   1.875   5.040   9.283  0.3040  0.1173 -0.2548
  235MOL0     C30924   1.900   5.062   9.144 -0.0564 -0.3712  0.7033
  235MOL0     C30925   1.778   5.012   9.068  0.3909 -0.8101  0.0727
  235MOL0     C30926   1.672   5.127   9.058 -0.2920  0.5818  0.4203
  235MOL0     C30927   1.565   5.068   8.967  0.0953  1.3899 -0.3739
  235MOL0     C30928   1.453   5.160   8.938  0.1574  0.1358 -0.6256
  235MOL0     C30929   1.337   5.101   8.855 -0.7280 -0.7165 -1.5417
  235MOL0     C30930   1.252   5.015   8.937 -0.3744  0.5279 -0.4361
  235MOL0     C30931   1.150   4.947   8.849  0.5921  0.5606 -0.0062
  235MOL0    Cl30932   1.038   4.860   8.973 -0.2092  0.5118  0.1843
  235MOL0     C30933   2.081   5.136   9.389  0.0183 -0.2479  0.7813
  235MOL0     C30934   2.201   5.119   9.455 -0.1588 -0.3210 -0.0809
  235MOL0     O30935   2.339   5.028   9.745 -0.3685  0.2873  0.0752
  235MOL0     C30936   2.601   4.954   9.809  0.1932  0.0524 -0.9011
  235MOL0     C30937   2.735   4.933   9.829  0.5266 -0.2325  0.2183
  235MOL0     N30938   3.489   4.652   9.704 -0.8425 -0.1854  0.3594
  235MOL0     N30939   3.568   4.568   9.758  0.0622  0.2429  0.2748
  235MOL0     C30940   4.428   4.562   9.483  0.2874  0.9941 -0.5907
  235MOL0     C30941   4.562   4.608   9.496 -0.6206  0.4025  0.2520
  235MOL0     C30942   4.962   4.820   9.465 -0.5037 -0.7850 -1.4547
  235MOL0     C30943   5.064   4.836   9.554 -0.6123  1.1048 -0.7789
  235MOL0     C30944   5.172   4.922   9.540  0.3383 -0.0007 -0.2407
  235MOL0     C30945   5.190   4.999   9.422  0.0535  0.7982 -0.0809
  235MOL0     O30946   5.296   5.080   9.397 -0.0642 -0.9139  0.7531
  235MOL0     C30947   5.421   5.034   9.429 -0.3745  0.4293 -0.6764
  235MOL0     C30948   5.532   5.103   9.350  0.6134 -0.3418  1.3727
  235MOL0     C30949   5.670   5.042   9.375 -0.0271  0.1008 -0.2723
  235MOL0     C30950   5.687   4.908   9.302 -0.7103 -0.3570 -0.3538
  235MOL0     C30951   5.823   4.853   9.308  0.0559  0.6269 -0.0009
  235MOL0     C30952   5.937   4.796   9.307  0.0766 -0.6520 -0.0346
  235MOL0     C30953   5.090   4.997   9.329  0.6648 -0.0119 -1.0251
  235MOL0     C30954   4.973   4.912   9.351  0.3101  0.4353 -0.0181
  235MOL0     H30955   4.570   4.792   9.212  1.5410  1.7018  1.2587
  235MOL0     H30956   4.338   4.717   9.197  1.6594 -3.1646 -1.6288
  235MOL0     H30957   4.176   4.519   9.563  1.6659  0.6353  0.2693
  235MOL0     H30958   4.191   4.372   9.451  1.4253  0.0231  0.8843
  235MOL0     H30959   3.992   4.401   9.369 -0.1355  0.6191 -0.5971
  235MOL0     H30960   3.983   4.575   9.404  1.2297 -0.7296 -1.4594
  235MOL0     H30961   3.815   4.478   9.528 -0.0991  0.6281 -1.4324
  235MOL0     H30962   3.933   4.537   9.640 -1.1604 -0.3833  0.0123
  235MOL0     H30963   3.965   4.254   9.543  1.4884  0.1848 -0.6481
  235MOL0     H30964   4.026   4.326   9.688 -1.1497 -2.2312  1.5479
  235MOL0     H30965   3.810   4.370   9.795  1.9342  1.7781 -1.2600
  235MOL0     H30966   3.844   4.197   9.778 -1.5203 -0.2248  0.4635
  235MOL0     H30967   3.694   4.170   9.582  2.2263  0.1061  1.5800
  235MOL0     H30968   3.648   4.336   9.594 -0.7612 -1.6245 -0.6249
  235MOL0     H30969   3.498   4.172   9.708  0.5471 -1.3837 -0.7734
  235MOL0     H30970   3.621   4.132   9.825 -0.8201 -1.1081 -1.1746
  235MOL0     H30971   3.632   4.370   9.911  1.0144 -0.9540 -1.3135
  235MOL0     H30972   3.455   4.311   9.907 -2.1217  1.1556 -2.9406
  235MOL0     H30973   3.280   4.405   9.728  2.1099 -3.6098 -0.8297
  235MOL0     H30974   3.242   4.594   9.502  2.9840 -2.1486  1.4005
  235MOL0     H30975   3.290   4.758   9.553 -2.2730  1.6097  1.2490
  235MOL0     H30976   3.090   4.594   9.706  0.9729  0.6431  0.3870
  235MOL0     H30977   3.054   4.730   9.596 -1.2161 -0.1057 -0.9586
  235MOL0     H30978   3.220   4.737   9.849  0.7046 -1.9870 -1.4456
  235MOL0     H30979   3.197   4.878   9.729 -0.4489 -0.9780 -2.9950
  235MOL0     H30980   3.040   4.864   9.924 -1.5179  0.6892  0.6102
  235MOL0     H30981   2.950   4.737   9.834  2.5130 -3.0997 -1.4671
  235MOL0     H30982   2.842   4.969   9.511 -0.6462  0.4002 -1.1539
  235MOL0     H30983   2.609   4.976   9.466 -0.3670 -0.4180  1.0108
  235MOL0     H30984   2.221   4.797   9.422  0.4383  0.7631  0.0977
  235MOL0     H30985   1.991   4.823   9.322  3.4352 -1.6843 -1.7972
  235MOL0     H30986   1.983   5.003   9.104  1.1153  1.2120  0.6676
  235MOL0     H30987   1.909   5.170   9.125  0.8309 -0.1248  2.3145
  235MOL0     H30988   1.739   4.928   9.125 -1.2746  0.8007  1.4644
  235MOL0     H30989   1.816   4.987   8.969 -0.6508  0.7891 -0.7827
  235MOL0     H30990   1.716   5.210   9.002 -0.1026 -2.6483 -4.8667
  235MOL0     H30991   1.640   5.151   9.160 -0.2468  0.9976  0.3387
  235MOL0     H30992   1.609   5.037   8.872 -0.2254  0.6812 -0.3014
  235MOL0     H30993   1.533   4.976   9.016  2.8490 -0.5183 -1.9141
  235MOL0     H30994   1.500   5.247   8.892  0.2248  0.2990 -0.2591
  235MOL0     H30995   1.425   5.192   9.039  0.8076 -4.2158  1.1489
  235MOL0     H30996   1.390   5.044   8.778 -0.9751 -0.9118 -1.5676
  235MOL0     H30997   1.285   5.189   8.815 -2.0912 -0.0187  1.4736
  235MOL0     H30998   1.314   4.942   8.990 -0.4343  0.7165 -0.0999
  235MOL0     H30999   1.210   5.085   9.010 -2.0110  0.6373 -1.4304
  235MOL0     H31000   1.202   4.878   8.781 -0.2306  1.2034 -1.3148
  235MOL0     H31001   1.097   5.020   8.789 -0.6711 -0.8476 -0.6687
  235MOL0     H31002   2.046   5.230   9.350  0.9225 -0.5265 -0.8039
  235MOL0     H31003   2.270   5.198   9.480 -0.0364 -1.0989  2.3261
  235MOL0     H31004   2.540   4.964   9.898 -2.8172  2.3483 -3.0116
  235MOL0     H31005   2.776   4.913   9.927  1.3812 -2.8635 -0.5907
  235MOL0     H31006   4.376   4.498   9.553 -2.4317  3.3054 -0.3498
  235MOL0     H31007   4.621   4.582   9.584 -0.9307 -1.5810 -0.0649
  235MOL0     H31008   5.066   4.773   9.642 -1.9541  0.3047 -1.2999
  235MOL0     H31009   5.246   4.926   9.619  0.2005  3.1676 -0.1273
  235MOL0     H31010   5.434   4.931   9.393 -0.5634  0.6286 -1.3353
  235MOL0     H31011   5.438   5.033   9.537  0.2709  0.9291 -0.7687
  235MOL0     H31012   5.505   5.105   9.244 -1.6608 -2.6374  1.8298
  235MOL0     H31013   5.544   5.210   9.371  1.8881 -0.3606  0.8697
  235MOL0     H31014   5.683   5.031   9.483  1.4848  3.2052 -0.0584
  235MOL0     H31015   5.741   5.114   9.336 -0.1197 -0.0559 -0.7301
  235MOL0     H31016   5.626   4.827   9.342 -1.1546 -1.3852 -2.9197
  235MOL0     H31017   5.666   4.927   9.197 -1.6617 -0.5547 -0.2035
  235MOL0     H31018   6.025   4.735   9.305 -0.9066 -2.4680  3.6910
  235MOL0     H31019   5.098   5.046   9.233  3.2702  2.3194  0.2584
  235MOL0     H31020   4.890   4.913   9.282  0.6591 -2.1862 -0.5806
  236MOL0     O31021   3.684   6.691   1.426 -0.0293  0.0363 -0.1351
  236MOL0     C31022   3.710   6.593   1.360  0.9434  0.5175  0.1341
  236MOL0     O31023   3.676   6.560   1.229  0.2241  0.1172  0.0028
  236MOL0     C31024   3.654   6.664   1.142 -1.5680 -0.2735  0.3861
  236MOL0     C31025   3.531   6.670   1.074  0.9345 -0.1950 -0.3080
  236MOL0     C31026   3.494   6.778   0.987  1.0071  1.2897  0.4219
  236MOL0     C31027   3.586   6.875   0.960 -1.0148 -0.7199  0.2439
  236MOL0     O31028   3.557   6.994   0.883  1.3737 -0.3321  0.3419
  236MOL0     C31029   3.419   7.041   0.886  0.2524  0.1274  0.1216
  236MOL0     C31030   3.390   7.111   1.022 -0.3030 -0.5077 -0.1875
  236MOL0     C31031   3.241   7.160   1.017  0.2326  0.4119 -0.3893
  236MOL0     C31032   3.197   7.221   1.153 -0.8182  0.1884 -0.0943
  236MOL0     C31033   3.043   7.245   1.159  0.0583 -0.1048  0.1933
  236MOL0     C31034   2.969   7.112   1.196 -0.5961  0.4373  0.5543
  236MOL0     C31035   2.815   7.145   1.212  0.2817  0.2654 -0.1130
  236MOL0     C31036   2.739   7.067   1.323 -0.2250  0.1709 -0.7255
  236MOL0     N31037   2.698   6.930   1.283 -0.1576  0.0090  0.1711
  236MOL0     C31038   2.766   6.813   1.264 -0.7659  0.0934 -0.5848
  236MOL0     C31039   2.681   6.725   1.214  0.0691 -0.5480  1.0812
  236MOL0     C31040   2.712   6.583   1.207 -0.0312 -0.3035  0.0153
  236MOL0     C31041   2.582   6.497   1.229 -0.5522  0.2915 -0.0423
  236MOL0     C31042   2.605   6.346   1.207  0.0861  1.1894 -0.0074
  236MOL0     C31043   2.605   6.324   1.054  0.0096 -0.0196 -0.3213
  236MOL0     O31044   2.579   6.188   1.012 -0.0591 -0.2987  0.0745
  236MOL0     C31045   2.451   6.144   1.013 -0.6590  0.5380  0.4991
  236MOL0     C31046   2.429   6.009   0.999  0.4449  0.3946  0.3462
  236MOL0     C31047   2.294   5.955   0.994 -0.4889  0.3263  0.0981
  236MOL0     C31048   2.186   6.037   0.990  0.2542 -0.5447  0.6364
  236MOL0     C31049   2.046   5.989   0.982  0.5245  0.1354  0.1433
  236MOL0     O31050   2.023   5.876   0.908  0.4635  1.2092  0.4262
  236MOL0     C31051   1.892   5.858   0.880 -0.2375  0.5349  1.0909
  236MOL0     C31052   1.843   5.893   0.749  0.4621 -0.9042 -0.3872
  236MOL0     C31053   1.706   5.868   0.719 -0.3799 -0.2254 -0.1908
  236MOL0     C31054   1.619   5.811   0.816  0.1430 -0.2852  0.5486
  236MOL0     O31055   1.486   5.773   0.789 -0.2282  0.4776  0.1662
  236MOL0     C31056   1.458   5.755   0.648  0.4251  0.4246  0.0623
  236MOL0     C31057   1.320   5.693   0.643  0.9570 -0.5244 -0.3630
  236MOL0     C31058   1.291   5.663   0.496 -0.5585  0.4969 -0.0636
  236MOL0     C31059   1.153   5.604   0.498  0.5069  0.7311  0.9892
  236MOL0     C31060   1.116   5.553   0.353  0.4689 -0.5503  0.5003
  236MOL0     C31061   0.955   5.563   0.355 -0.1489 -0.1172  0.5883
  236MOL0     C31062   0.895   5.451   0.448  0.4039 -0.3235  0.1644
  236MOL0     C31063   0.749   5.424   0.434  0.7820 -0.1462  0.6131
  236MOL0    Cl31064   0.648   5.556   0.514  0.2629 -0.4671 -0.2246
  236MOL0     C31065   1.669   5.780   0.936  0.8196 -0.8317 -0.4164
  236MOL0     C31066   1.799   5.808   0.975 -0.7910 -0.4244  0.4386
  236MOL0     O31067   1.964   6.057   1.042  0.4855  0.0879  0.0897
  236MOL0     C31068   2.209   6.175   1.029  0.6042  0.4981  0.3207
  236MOL0     C31069   2.338   6.230   1.032  0.2593  0.3073  0.3230
  236MOL0     N31070   2.555   6.790   1.198  0.3857 -0.2161 -0.4665
  236MOL0     N31071   2.573   6.907   1.239  0.3177 -0.4358 -0.2920
  236MOL0     C31072   3.714   6.883   1.026  0.2835 -0.9209  0.6898
  236MOL0     C31073   3.747   6.778   1.122 -0.4952  0.0659  0.8665
  236MOL0     C31074   3.780   6.484   1.428 -0.0516 -0.0540  0.7700
  236MOL0     C31075   3.808   6.361   1.359  0.0747  0.3750  0.1914
  236MOL0     C31076   3.872   6.263   1.422 -0.0237 -1.0100 -1.1126
  236MOL0     C31077   3.922   6.273   1.557 -0.5623 -0.2366 -0.9005
  236MOL0     O31078   3.984   6.165   1.618  0.4082  0.0788  0.6462
  236MOL0     C31079   4.123   6.153   1.580  0.4249  0.8125  0.1541
  236MOL0     C31080   4.209   6.155   1.701 -0.0978 -0.3174  1.0767
  236MOL0     C31081   4.229   6.030   1.788  0.4445  0.0045  0.9807
  236MOL0     C31082   4.271   6.047   1.934 -0.6114 -0.8210  0.0623
  236MOL0     C31083   4.410   6.093   1.946 -0.3147  0.6198  0.0539
  236MOL0     C31084   4.524   6.115   1.953 -0.3662 -0.2012  0.0377
  236MOL0     C31085   3.893   6.395   1.624 -0.1365  0.3168 -0.3309
  236MOL0     C31086   3.833   6.504   1.559  0.1706 -0.1405 -1.2173
  236MOL0     H31087   3.467   6.582   1.081 -0.1248  0.0826 -4.1329
  236MOL0     H31088   3.404   6.781   0.926  0.1426 -3.0864  1.1610
  236MOL0     H31089   3.344   6.965   0.862 -0.8221  1.0444  0.4825
  236MOL0     H31090   3.408   7.120   0.811  0.7705 -0.4276 -0.5564
  236MOL0     H31091   3.453   7.200   1.023  1.1930 -1.5343  0.1728
  236MOL0     H31092   3.411   7.046   1.107 -0.0906  0.0046  0.1577
  236MOL0     H31093   3.189   7.065   0.999  0.1433  0.4872 -0.5324
  236MOL0     H31094   3.207   7.226   0.936  1.6008  1.7476  0.0906
  236MOL0     H31095   3.221   7.159   1.239  1.0105 -0.1316 -0.8024
  236MOL0     H31096   3.244   7.319   1.164  3.2400 -1.7699  2.0583
  236MOL0     H31097   3.009   7.293   1.067 -1.2311  0.6826  1.0680
  236MOL0     H31098   3.019   7.323   1.232  1.7099  1.9449 -1.3174
  236MOL0     H31099   3.004   7.087   1.296  0.1722  2.7965  0.9526
  236MOL0     H31100   2.989   7.032   1.124 -1.9080 -0.3239  1.0098
  236MOL0     H31101   2.794   7.250   1.235 -1.5481  0.4909 -2.4051
  236MOL0     H31102   2.759   7.129   1.119 -0.4100  0.4572  0.2606
  236MOL0     H31103   2.647   7.114   1.358 -1.7344 -2.9475 -0.0833
  236MOL0     H31104   2.801   7.056   1.412 -3.3197 -2.0177  1.3822
  236MOL0     H31105   2.864   6.788   1.303 -0.8541 -0.3792 -0.6684
  236MOL0     H31106   2.784   6.563   1.288 -0.4528  1.4103  0.8690
  236MOL0     H31107   2.770   6.560   1.117  0.5877 -2.0443  0.8228
  236MOL0     H31108   2.499   6.526   1.164 -0.6918  0.0476  0.0276
  236MOL0     H31109   2.541   6.523   1.327 -0.6399 -0.9137  0.2539
  236MOL0     H31110   2.705   6.312   1.237  0.1145  0.9751 -0.3443
  236MOL0     H31111   2.527   6.300   1.267  0.2530  0.6089 -0.2315
  236MOL0     H31112   2.695   6.357   1.001  0.3943  0.2311  0.4753
  236MOL0     H31113   2.529   6.387   1.006  1.4633  2.7534  0.7736
  236MOL0     H31114   2.512   5.940   0.984  0.9663  1.4874 -2.5424
  236MOL0     H31115   2.284   5.848   1.006 -0.5781  0.5447  2.5440
  236MOL0     H31116   1.911   5.940   0.680  1.5151 -1.9123 -0.0842
  236MOL0     H31117   1.662   5.901   0.626 -2.6088  2.7956  1.7513
  236MOL0     H31118   1.530   5.686   0.602 -0.9813 -1.4647  0.5761
  236MOL0     H31119   1.460   5.852   0.599 -0.5413  1.8415  2.6440
  236MOL0     H31120   1.253   5.771   0.682  1.7740 -0.0474  0.1298
  236MOL0     H31121   1.323   5.602   0.704  1.0964 -0.0233  0.3931
  236MOL0     H31122   1.369   5.590   0.471  0.0026  1.1264 -0.1932
  236MOL0     H31123   1.296   5.740   0.418 -0.1918 -0.1349 -0.6783
  236MOL0     H31124   1.157   5.515   0.562  1.5140 -1.3481 -1.7337
  236MOL0     H31125   1.085   5.675   0.545  0.9872 -1.0410  4.7176
  236MOL0     H31126   1.142   5.448   0.339 -1.1316 -0.9844  0.4960
  236MOL0     H31127   1.161   5.618   0.278  0.3507 -0.2226  0.7112
  236MOL0     H31128   0.918   5.542   0.254 -2.1805 -0.1148  1.2844
  236MOL0     H31129   0.923   5.666   0.374 -0.7942 -0.5842  2.1785
  236MOL0     H31130   0.942   5.359   0.412  0.3185 -1.1493  2.0436
  236MOL0     H31131   0.926   5.472   0.551  1.1064 -0.9663  0.0860
  236MOL0     H31132   0.711   5.331   0.475  3.5967 -2.7720 -2.1806
  236MOL0     H31133   0.717   5.415   0.330  1.3924  1.2992  0.2698
  236MOL0     H31134   1.609   5.725   1.008  0.8935  0.5379  0.7250
  236MOL0     H31135   1.830   5.790   1.078  2.8521  0.0798 -0.4295
  236MOL0     H31136   2.127   6.243   1.052  1.6128  0.1952  6.5728
  236MOL0     H31137   2.333   6.336   1.054 -0.2996  0.1888  0.7994
  236MOL0     H31138   3.780   6.967   1.007 -2.6130  1.0964 -1.1966
  236MOL0     H31139   3.840   6.778   1.177 -1.0898  0.4392  1.9047
  236MOL0     H31140   3.784   6.343   1.255  1.5636 -0.6893 -0.0012
  236MOL0     H31141   3.896   6.170   1.372 -2.5819 -1.7784 -1.0206
  236MOL0     H31142   4.146   6.220   1.496 -1.0242  1.1390 -0.0087
  236MOL0     H31143   4.132   6.051   1.541  0.8214  1.1884 -0.7721
  236MOL0     H31144   4.303   6.177   1.649 -1.7378  0.3668 -1.7985
  236MOL0     H31145   4.169   6.240   1.757 -1.3720  1.4767 -2.2365
  236MOL0     H31146   4.305   5.968   1.740  0.6362  0.4417  0.7107
  236MOL0     H31147   4.142   5.963   1.790 -0.2035  0.8378  1.7601
  236MOL0     H31148   4.209   6.127   1.977  2.2436  0.4082  2.2498
  236MOL0     H31149   4.271   5.947   1.976 -2.5794 -1.6393 -1.6702
  236MOL0     H31150   4.630   6.113   1.938 -0.3122 -0.3971  0.4489
  236MOL0     H31151   3.913   6.406   1.730 -0.8983  0.6015 -0.2055
  236MOL0     H31152   3.805   6.592   1.616 -1.7027 -1.5524  0.1743
  237MOL0     O31153   8.906   6.932   3.301  0.8802 -0.7042 -0.1178
  237MOL0     C31154   9.004   6.930   3.373 -0.4440  0.5042  0.1935
  237MOL0     O31155   9.019   6.990   3.491 -0.2977 -0.4003 -0.0713
  237MOL0     C31156   8.923   7.077   3.541 -0.0961  0.6443 -1.0685
  237MOL0     C31157   8.848   7.039   3.652 -0.2126 -0.5681  0.6471
  237MOL0     C31158   8.734   7.113   3.695  1.2461 -0.3852  0.4598
  237MOL0     C31159   8.688   7.225   3.636  0.8099 -0.9397  0.5153
  237MOL0     O31160   8.587   7.309   3.684  1.3959  0.2836  0.9364
  237MOL0     C31161   8.499   7.248   3.769  0.1838 -0.1258 -0.4503
  237MOL0     C31162   8.389   7.339   3.828  0.8701 -0.5068 -0.3946
  237MOL0     C31163   8.301   7.408   3.713 -0.1154 -0.5579 -0.1445
  237MOL0     C31164   8.169   7.456   3.772 -0.0645  0.0678 -1.0074
  237MOL0     C31165   8.087   7.514   3.659  0.9362  0.6800  0.9821
  237MOL0     C31166   8.017   7.399   3.572  0.8976 -0.4034 -0.1773
  237MOL0     C31167   7.897   7.459   3.491  0.2044 -0.3983  0.8861
  237MOL0     C31168   7.757   7.472   3.562  0.5404  0.5532 -0.0227
  237MOL0     N31169   7.692   7.340   3.587 -0.3788 -0.2527  1.0104
  237MOL0     C31170   7.647   7.254   3.488 -0.0825 -0.0433  0.4941
  237MOL0     C31171   7.590   7.148   3.548  1.1038 -0.1840 -0.3333
  237MOL0     C31172   7.517   7.021   3.494 -0.9433  0.5113  1.1688
  237MOL0     C31173   7.620   6.935   3.413  0.4849  0.2423 -0.2761
  237MOL0     C31174   7.558   6.846   3.298 -0.3855 -0.6882 -0.1867
  237MOL0     C31175   7.448   6.755   3.351  0.6536 -0.2797 -0.6813
  237MOL0     O31176   7.408   6.647   3.266 -0.5048 -0.3203 -0.1753
  237MOL0     C31177   7.299   6.565   3.297  0.0523  1.1682  0.8188
  237MOL0     C31178   7.267   6.460   3.207 -0.7268 -0.4348 -0.7043
  237MOL0     C31179   7.159   6.375   3.229 -0.6871  0.1604 -0.0986
  237MOL0     C31180   7.071   6.391   3.339  0.4132  0.4455  0.5400
  237MOL0     C31181   6.939   6.318   3.351  1.2633 -0.1070  0.6200
  237MOL0     O31182   6.926   6.201   3.277  0.3422 -0.8145 -0.0758
  237MOL0     C31183   6.817   6.127   3.307  0.2568  0.4748  0.1635
  237MOL0     C31184   6.784   6.089   3.434  0.2468  0.6437  0.0438
  237MOL0     C31185   6.682   5.999   3.457  0.0647  0.2638 -0.8161
  237MOL0     C31186   6.595   5.949   3.359 -0.1473 -0.2745  0.8535
  237MOL0     O31187   6.490   5.872   3.386  0.4388  0.7070 -0.5508
  237MOL0     C31188   6.459   5.767   3.292  0.3393  0.5651  0.3714
  237MOL0     C31189   6.339   5.695   3.348 -1.0850  0.3856 -0.7652
  237MOL0     C31190   6.215   5.787   3.349  0.3043 -0.2870  0.3182
  237MOL0     C31191   6.098   5.718   3.429  0.9048 -0.3487  0.0567
  237MOL0     C31192   6.017   5.613   3.350 -0.0001 -0.1025 -0.2582
  237MOL0     C31193   5.886   5.594   3.419 -0.7145  0.4789  0.5004
  237MOL0     C31194   5.791   5.486   3.364 -0.5681  0.7615  0.1663
  237MOL0     C31195   5.667   5.459   3.450  0.0618 -0.0937  0.5036
  237MOL0    Cl31196   5.728   5.405   3.605  0.1281 -0.2964 -0.2022
  237MOL0     C31197   6.630   5.989   3.228 -0.1214  0.1933  0.2901
  237MOL0     C31198   6.738   6.072   3.201 -0.5548 -1.0470 -0.8871
  237MOL0     O31199   6.863   6.362   3.435 -0.3073  0.0578 -1.1738
  237MOL0     C31200   7.117   6.481   3.438  0.3975  0.1335 -0.7054
  237MOL0     C31201   7.231   6.561   3.420  0.5616  0.2068 -0.2959
  237MOL0     N31202   7.577   7.186   3.684 -0.2359  0.0150  0.6243
  237MOL0     N31203   7.649   7.294   3.705  0.2890  0.3411 -0.1919
  237MOL0     C31204   8.777   7.266   3.534  0.8129 -0.0983 -0.7353
  237MOL0     C31205   8.889   7.200   3.480 -0.5653  0.6854  0.1115
  237MOL0     C31206   9.120   6.856   3.319  0.0885  0.4120  0.6161
  237MOL0     C31207   9.229   6.820   3.396 -0.4837  0.1517 -0.6006
  237MOL0     C31208   9.342   6.766   3.337  0.1428  0.0388  0.4371
  237MOL0     C31209   9.347   6.743   3.202  0.2905 -0.4473 -0.4944
  237MOL0     O31210   9.453   6.683   3.147  0.4866 -0.0650  0.2151
  237MOL0     C31211   9.587   6.715   3.196  0.1942 -0.3262  0.7430
  237MOL0     C31212   9.631   6.580   3.258  0.3981  0.4055 -0.8585
  237MOL0     C31213   9.679   6.495   3.140  0.6903 -0.1364 -0.2206
  237MOL0     C31214   9.689   6.346   3.174 -0.3221 -0.1565  0.2104
  237MOL0     C31215   9.774   6.291   3.064  0.0321 -0.0136  0.7745
  237MOL0     C31216   9.840   6.270   2.973  0.1492 -0.8549 -0.3209
  237MOL0     C31217   9.238   6.772   3.123  0.4902  0.7686  0.3841
  237MOL0     C31218   9.121   6.818   3.180  0.1497 -0.6483 -0.0479
  237MOL0     H31219   8.866   6.942   3.698 -3.4286 -2.1692 -1.0880
  237MOL0     H31220   8.674   7.068   3.774  1.2991 -3.1138 -0.9046
  237MOL0     H31221   8.562   7.215   3.852 -2.4275  0.2429  1.8340
  237MOL0     H31222   8.441   7.176   3.710  0.7757  1.1961 -2.7703
  237MOL0     H31223   8.437   7.419   3.884  1.0494 -1.4345  0.8141
  237MOL0     H31224   8.327   7.282   3.898  2.2724  1.5377  2.6859
  237MOL0     H31225   8.271   7.333   3.640 -0.4240  0.6300 -1.2898
  237MOL0     H31226   8.358   7.490   3.668 -0.5382 -0.4249 -0.4390
  237MOL0     H31227   8.104   7.378   3.812 -0.3923  0.2947 -1.1003
  237MOL0     H31228   8.194   7.533   3.846  1.8597 -1.6950  0.3385
  237MOL0     H31229   8.147   7.573   3.589  0.0983 -0.7820 -1.0486
  237MOL0     H31230   8.001   7.566   3.701 -1.3992 -1.6511 -0.6287
  237MOL0     H31231   7.981   7.331   3.649  0.3305  0.5008  0.3633
  237MOL0     H31232   8.096   7.350   3.514  2.8902 -0.6802  2.5681
  237MOL0     H31233   7.937   7.559   3.470 -2.6117  0.7151  0.4317
  237MOL0     H31234   7.880   7.409   3.396  2.4840  0.7512 -0.2038
  237MOL0     H31235   7.689   7.534   3.503  0.0268 -0.3480 -0.3939
  237MOL0     H31236   7.767   7.527   3.657  1.1909 -0.3671  0.4571
  237MOL0     H31237   7.660   7.252   3.380  4.5009  1.5006  0.7750
  237MOL0     H31238   7.437   7.055   3.427 -0.4202 -1.5336 -0.5836
  237MOL0     H31239   7.470   6.969   3.577 -0.0581  0.6346  1.7652
  237MOL0     H31240   7.674   6.866   3.478  2.3713 -0.2205 -2.2350
  237MOL0     H31241   7.693   7.007   3.376  1.0791  0.3362  1.0121
  237MOL0     H31242   7.524   6.914   3.219  0.0644 -0.5910 -0.3029
  237MOL0     H31243   7.641   6.784   3.263 -0.2710 -0.1600 -0.8839
  237MOL0     H31244   7.355   6.808   3.372 -0.3221 -2.5777  1.2339
  237MOL0     H31245   7.482   6.720   3.449 -1.0414  2.4314  1.0265
  237MOL0     H31246   7.337   6.462   3.124  2.1499  0.1461  1.5729
  237MOL0     H31247   7.149   6.285   3.169 -2.2080 -1.4472  2.3583
  237MOL0     H31248   6.825   6.146   3.517 -1.4888  1.9696  0.0606
  237MOL0     H31249   6.660   5.972   3.559  1.5707  1.5814 -0.0983
  237MOL0     H31250   6.544   5.698   3.286  0.4757  0.6245  1.4021
  237MOL0     H31251   6.440   5.799   3.189  1.0517 -2.2599 -0.7050
  237MOL0     H31252   6.364   5.654   3.446 -1.8094  2.5056  0.3587
  237MOL0     H31253   6.319   5.608   3.285 -1.1496  0.8711 -1.4356
  237MOL0     H31254   6.185   5.813   3.247 -1.4692 -2.4694  0.1958
  237MOL0     H31255   6.236   5.880   3.403  0.8611 -1.1662  1.6814
  237MOL0     H31256   6.142   5.666   3.514  2.2936 -2.0109 -1.6024
  237MOL0     H31257   6.033   5.795   3.472 -1.8399 -3.1871  1.4419
  237MOL0     H31258   6.074   5.520   3.358  0.3951 -0.2016 -3.0751
  237MOL0     H31259   6.004   5.638   3.244 -2.6374  0.7232  0.1903
  237MOL0     H31260   5.836   5.691   3.430 -2.3485 -0.1880 -0.8168
  237MOL0     H31261   5.900   5.560   3.522 -3.4848 -1.2048  0.3956
  237MOL0     H31262   5.758   5.515   3.264 -0.2432  1.4710  0.2521
  237MOL0     H31263   5.844   5.391   3.360  0.5719  1.3855 -0.0602
  237MOL0     H31264   5.606   5.385   3.398  0.4197 -1.0464  1.4071
  237MOL0     H31265   5.611   5.553   3.458 -1.0651 -0.4270 -2.2245
  237MOL0     H31266   6.571   5.953   3.145 -0.0275  0.7143 -0.0111
  237MOL0     H31267   6.785   6.092   3.106  0.2005  0.8329 -0.1643
  237MOL0     H31268   7.055   6.499   3.525  0.9810  1.5377 -0.5549
  237MOL0     H31269   7.260   6.627   3.502 -0.4675  5.0451 -3.3778
  237MOL0     H31270   8.743   7.361   3.493 -0.3451 -0.9820 -1.8890
  237MOL0     H31271   8.932   7.238   3.388 -2.7140 -1.1856 -1.7697
  237MOL0     H31272   9.230   6.854   3.500 -0.8203 -1.3389 -0.0915
  237MOL0     H31273   9.425   6.743   3.403  0.5645  1.0862  0.2851
  237MOL0     H31274   9.587   6.795   3.270  1.7192 -1.2886  1.8389
  237MOL0     H31275   9.664   6.746   3.125  0.2591  0.3388  1.0962
  237MOL0     H31276   9.707   6.600   3.333 -0.9127  0.7578  0.4312
  237MOL0     H31277   9.557   6.524   3.317  2.0436 -2.8370 -1.6437
  237MOL0     H31278   9.777   6.532   3.109  1.1277  1.2834  2.5173
  237MOL0     H31279   9.605   6.504   3.059 -0.9342  0.7127  1.2697
  237MOL0     H31280   9.736   6.329   3.271 -1.1715 -1.6326  0.4046
  237MOL0     H31281   9.594   6.292   3.179  0.2277 -1.2035 -0.2344
  237MOL0     H31282   9.895   6.257   2.882 -0.2664 -0.2852 -0.6565
  237MOL0     H31283   9.228   6.759   3.016 -1.0452  1.1430  0.4640
  237MOL0     H31284   9.036   6.849   3.118 -1.4899  0.0143  2.3805
  238MOL0     O31285   1.985   4.299   0.469 -0.3844  0.8153 -0.0033
  238MOL0     C31286   2.006   4.422   0.449 -0.1530  1.0295  0.2521
  238MOL0     O31287   1.927   4.507   0.377  0.6517  0.2490 -0.1373
  238MOL0     C31288   1.797   4.464   0.347  0.0388 -0.0895 -0.7540
  238MOL0     C31289   1.760   4.395   0.238  0.2222  0.4970  0.1198
  238MOL0     C31290   1.625   4.350   0.213 -0.3281  0.3281 -0.4213
  238MOL0     C31291   1.529   4.372   0.313  0.8739  0.1030  0.4882
  238MOL0     O31292   1.399   4.331   0.283 -0.4396 -0.1707  0.2292
  238MOL0     C31293   1.290   4.346   0.375 -0.3936  0.5579 -0.3065
  238MOL0     C31294   1.160   4.292   0.317 -0.0773 -0.0928 -1.3436
  238MOL0     C31295   1.036   4.355   0.395 -0.5372  0.8053  0.2916
  238MOL0     C31296   0.906   4.328   0.323  0.2929 -0.1752  0.1584
  238MOL0     C31297   0.777   4.382   0.388  0.5336 -0.7228  0.1409
  238MOL0     C31298   0.665   4.413   0.277  0.1064 -0.6291 -0.7734
  238MOL0     C31299   0.580   4.286   0.238 -0.2221 -0.2256 -0.5407
  238MOL0     C31300   0.490   4.236   0.354  0.2595  0.0184  0.0900
  238MOL0     N31301   0.351   4.241   0.304  0.2506  0.1112  0.1806
  238MOL0     C31302   0.273   4.353   0.282  0.1385  0.5374  0.0434
  238MOL0     C31303   0.161   4.309   0.226  0.9075  0.2819  0.4717
  238MOL0     C31304   0.050   4.405   0.178 -0.1446  0.4987 -0.0470
  238MOL0     C31305   0.101   4.502   0.064 -0.2663 -0.9323  0.5041
  238MOL0     C31306   0.114   4.444  -0.077 -0.8516 -0.1842  0.1820
  238MOL0     C31307   0.224   4.344  -0.098 -0.4799  0.5211 -0.7168
  238MOL0     O31308   0.355   4.403  -0.083 -0.2683 -1.1310 -1.0162
  238MOL0     C31309   0.458   4.314  -0.089  0.2130 -1.0623  0.6407
  238MOL0     C31310   0.585   4.381  -0.100  0.8384  0.1259 -0.4061
  238MOL0     C31311   0.707   4.312  -0.078  0.2246  0.0871  0.5982
  238MOL0     C31312   0.705   4.167  -0.079  0.4572 -0.6459  0.1677
  238MOL0     C31313   0.834   4.092  -0.067  0.3573  0.0978 -0.2574
  238MOL0     O31314   0.935   4.140  -0.142 -0.0058  0.1601 -0.9658
  238MOL0     C31315   1.057   4.081  -0.136  0.0559 -0.7850  0.1570
  238MOL0     C31316   1.118   4.025  -0.241  0.0962 -0.1050  0.3911
  238MOL0     C31317   1.254   3.981  -0.228 -0.3233  0.5063  0.4135
  238MOL0     C31318   1.320   3.981  -0.105 -0.2292 -0.5270  0.5569
  238MOL0     O31319   1.447   3.935  -0.099 -0.2563 -0.5904  0.0711
  238MOL0     C31320   1.532   3.983   0.008  0.0310 -0.5312  0.1679
  238MOL0     C31321   1.687   3.987  -0.004  0.2803 -0.5951  0.1415
  238MOL0     C31322   1.766   3.972   0.124  0.9295  0.1281 -0.1042
  238MOL0     C31323   1.910   4.023   0.104 -0.3920  0.1257  0.0795
  238MOL0     C31324   1.992   4.010   0.228  0.1054 -0.4454 -0.4093
  238MOL0     C31325   2.125   4.085   0.214 -0.5722 -0.3039 -0.2505
  238MOL0     C31326   2.218   4.055   0.337  0.2066  0.5314  0.3684
  238MOL0     C31327   2.340   4.135   0.319 -0.0363 -0.1649 -0.3724
  238MOL0    Cl31328   2.467   4.095   0.429 -0.5220  0.4417  0.0835
  238MOL0     C31329   1.243   4.022   0.001  0.0008  0.1121 -0.3778
  238MOL0     C31330   1.118   4.079  -0.006  0.8784 -0.0708  0.1918
  238MOL0     O31331   0.831   3.987  -0.003 -0.0141  0.8376  0.2576
  238MOL0     C31332   0.578   4.107  -0.096  0.1870  0.0813  0.8466
  238MOL0     C31333   0.456   4.174  -0.098 -0.2921  0.4106  0.3907
  238MOL0     N31334   0.166   4.177   0.213 -0.0126  0.2835 -0.4656
  238MOL0     N31335   0.286   4.135   0.243  0.0987  0.3638  0.4769
  238MOL0     C31336   1.573   4.450   0.425 -0.2051 -1.5840 -0.0072
  238MOL0     C31337   1.700   4.501   0.445 -0.8979  0.4434  0.2427
  238MOL0     C31338   2.139   4.480   0.486  0.5519 -0.0707 -0.7575
  238MOL0     C31339   2.164   4.618   0.478  0.1874  1.3178  0.0599
  238MOL0     C31340   2.288   4.671   0.490 -1.1142  0.2822 -0.3400
  238MOL0     C31341   2.400   4.589   0.522 -0.2675 -0.1762 -0.2594
  238MOL0     O31342   2.527   4.635   0.538  0.1920 -0.4228 -0.2151
  238MOL0     C31343   2.554   4.773   0.506 -0.1377 -0.1688  0.7060
  238MOL0     C31344   2.701   4.807   0.513  1.0441 -0.5825 -0.2582
  238MOL0     C31345   2.762   4.775   0.650 -0.4012  0.4556  0.0242
  238MOL0     C31346   2.906   4.830   0.658 -0.6803 -0.1009 -1.0138
  238MOL0     C31347   3.001   4.767   0.569  0.2074  0.3540 -1.1366
  238MOL0     C31348   3.101   4.725   0.507 -0.2555  0.3612  0.2452
  238MOL0     C31349   2.371   4.452   0.541  0.2077 -0.8235 -0.5601
  238MOL0     C31350   2.247   4.389   0.520  0.5200 -0.0435  0.3636
  238MOL0     H31351   1.840   4.385   0.166 -0.6728  1.5727 -1.0790
  238MOL0     H31352   1.588   4.292   0.129 -0.8513 -1.5913  1.0361
  238MOL0     H31353   1.277   4.453   0.393 -3.3569  0.1092  0.6910
  238MOL0     H31354   1.316   4.298   0.469 -0.2174 -0.9579 -1.0972
  238MOL0     H31355   1.162   4.182   0.324  1.3214 -0.4849 -5.2434
  238MOL0     H31356   1.164   4.320   0.211 -0.3563  2.7353 -0.6837
  238MOL0     H31357   1.048   4.463   0.401 -0.5790  0.8896 -0.9262
  238MOL0     H31358   1.040   4.333   0.502  0.7880  1.6343  0.4361
  238MOL0     H31359   0.912   4.373   0.224 -2.8842  1.7543  0.7268
  238MOL0     H31360   0.888   4.222   0.299  0.6559  0.3381 -2.6749
  238MOL0     H31361   0.806   4.479   0.431 -1.8766 -1.5716  4.1543
  238MOL0     H31362   0.733   4.318   0.464  1.6684  0.3050  1.7236
  238MOL0     H31363   0.718   4.445   0.187 -0.5669  0.3838 -0.8150
  238MOL0     H31364   0.601   4.495   0.311  1.7774 -0.4175  2.2109
  238MOL0     H31365   0.515   4.305   0.153  1.2938 -5.1413 -3.1632
  238MOL0     H31366   0.642   4.200   0.210 -0.4067 -0.4031 -0.3991
  238MOL0     H31367   0.515   4.292   0.444  1.7160 -1.2337  0.5026
  238MOL0     H31368   0.509   4.131   0.378  1.6853  0.5119  1.2603
  238MOL0     H31369   0.298   4.458   0.296  1.8774 -0.0643  1.9172
  238MOL0     H31370   0.002   4.468   0.253 -1.7434  1.6095 -1.9359
  238MOL0     H31371  -0.033   4.342   0.145  2.4641 -1.3142 -3.8609
  238MOL0     H31372   0.193   4.545   0.106  1.1878 -2.0800 -1.3037
  238MOL0     H31373   0.033   4.587   0.057  0.7179 -0.1369  0.3109
  238MOL0     H31374   0.018   4.402  -0.107 -0.6795  0.6491 -1.6652
  238MOL0     H31375   0.133   4.528  -0.146 -5.1855 -0.1131 -1.2232
  238MOL0     H31376   0.211   4.296  -0.196 -0.2685  0.5689 -0.7690
  238MOL0     H31377   0.191   4.275  -0.020 -1.4411 -0.5903 -2.0542
  238MOL0     H31378   0.582   4.490  -0.105  0.2336  0.4131  3.2778
  238MOL0     H31379   0.800   4.366  -0.065 -0.6831  1.9651 -0.2488
  238MOL0     H31380   1.060   4.000  -0.330  0.9782 -0.8288  0.0061
  238MOL0     H31381   1.305   3.939  -0.314  0.9517  3.3814 -0.3558
  238MOL0     H31382   1.506   3.922   0.095 -1.9058  1.2729  0.9312
  238MOL0     H31383   1.503   4.085   0.035 -0.8132 -0.1185 -2.0950
  238MOL0     H31384   1.716   4.089  -0.034  1.7348 -0.6402  1.2788
  238MOL0     H31385   1.721   3.921  -0.084 -0.0150 -2.7517  1.7344
  238MOL0     H31386   1.770   3.866   0.150 -1.8496  0.0466  0.2981
  238MOL0     H31387   1.719   4.019   0.211  1.1717  0.2157 -0.0175
  238MOL0     H31388   1.952   3.969   0.018 -1.3481  1.1558 -1.0823
  238MOL0     H31389   1.909   4.123   0.060 -0.6727  0.4983  0.9221
  238MOL0     H31390   2.026   3.908   0.245  0.8695  0.2995  3.2208
  238MOL0     H31391   1.937   4.057   0.310  1.1883  0.1220  0.0095
  238MOL0     H31392   2.097   4.191   0.209 -2.2151 -0.5015  2.5274
  238MOL0     H31393   2.178   4.065   0.121 -0.3048 -2.1835  0.2635
  238MOL0     H31394   2.168   4.087   0.430 -0.5684  2.4519 -0.6469
  238MOL0     H31395   2.241   3.948   0.338 -0.4321  0.3430 -1.6696
  238MOL0     H31396   2.316   4.240   0.337 -1.4644 -0.3705 -0.8848
  238MOL0     H31397   2.371   4.121   0.215 -1.9853  0.2040 -1.0566
  238MOL0     H31398   1.297   4.013   0.094 -0.3926  2.3835  0.1303
  238MOL0     H31399   1.059   4.116   0.077 -1.8246 -0.2913 -1.4954
  238MOL0     H31400   0.587   3.999  -0.101  0.6704 -0.0767  3.4226
  238MOL0     H31401   0.366   4.114  -0.106 -0.0196 -0.0002  0.3776
  238MOL0     H31402   1.510   4.485   0.506  2.2807  2.6847  0.4139
  238MOL0     H31403   1.727   4.569   0.525  3.7180  0.2656 -0.8908
  238MOL0     H31404   2.087   4.691   0.456 -0.7467  0.5104  0.5431
  238MOL0     H31405   2.289   4.776   0.463 -1.6813 -0.7010 -4.8786
  238MOL0     H31406   2.491   4.831   0.574 -0.7376 -0.6687  0.5892
  238MOL0     H31407   2.518   4.802   0.407 -0.9690  1.5828  1.4882
  238MOL0     H31408   2.742   4.740   0.438 -0.1133 -1.7525  0.1281
  238MOL0     H31409   2.726   4.911   0.487  1.6715 -0.3122  1.2762
  238MOL0     H31410   2.760   4.668   0.673 -1.4937  0.1837 -1.2285
  238MOL0     H31411   2.706   4.833   0.724  0.5738 -0.9026  1.8982
  238MOL0     H31412   2.896   4.938   0.638 -1.0068  0.3556  1.3061
  238MOL0     H31413   2.933   4.831   0.764 -2.6477  1.2847 -0.4540
  238MOL0     H31414   3.192   4.689   0.462 -1.0381 -1.8468  0.3136
  238MOL0     H31415   2.454   4.389   0.575  1.8336  0.3051 -2.2448
  238MOL0     H31416   2.247   4.283   0.544 -0.4235 -0.8125 -2.5980
  239MOL0     O31417   6.755   4.848   4.796 -0.4039  0.8463  0.5543
  239MOL0     C31418   6.826   4.878   4.889  0.1100 -0.3532 -0.5636
  239MOL0     O31419   6.795   4.850   5.024 -0.3498  0.0364 -0.2505
  239MOL0     C31420   6.702   4.747   5.032 -1.0233 -0.6395 -0.2987
  239MOL0     C31421   6.568   4.782   5.015  1.0106 -0.0433 -0.9693
  239MOL0     C31422   6.464   4.688   5.017 -0.0846  0.2427  0.3032
  239MOL0     C31423   6.483   4.557   5.052  0.1802  0.1165  0.7257
  239MOL0     O31424   6.396   4.456   5.051  0.6952  0.4406  0.0023
  239MOL0     C31425   6.371   4.397   4.913 -0.5069 -0.1053 -0.4429
  239MOL0     C31426   6.254   4.307   4.903  0.4453 -0.4006 -0.1816
  239MOL0     C31427   6.120   4.384   4.905  0.3835  0.1917 -0.2957
  239MOL0     C31428   6.007   4.294   4.956  0.0358 -0.7308 -0.3903
  239MOL0     C31429   5.873   4.368   4.928 -0.9531 -0.4136 -0.2072
  239MOL0     C31430   5.745   4.300   4.976 -0.4464  0.0876  0.4104
  239MOL0     C31431   5.623   4.356   4.904 -0.3255 -0.3699  0.2342
  239MOL0     C31432   5.503   4.299   4.964  0.1357 -0.6511 -0.0883
  239MOL0     N31433   5.388   4.350   4.899  0.4746 -0.1769  0.1624
  239MOL0     C31434   5.259   4.313   4.929  0.0509  0.6077  0.3419
  239MOL0     C31435   5.180   4.388   4.846  0.5320  0.0896  0.3474
  239MOL0     C31436   5.029   4.411   4.859 -0.4034 -0.6295 -0.7459
  239MOL0     C31437   5.006   4.561   4.914  0.3766 -0.6358  0.2991
  239MOL0     C31438   4.888   4.628   4.846  0.2633  0.4861 -0.4999
  239MOL0     C31439   4.926   4.673   4.707  0.3899  0.0228  0.5674
  239MOL0     O31440   4.829   4.760   4.653 -0.1611  0.1379 -0.5814
  239MOL0     C31441   4.717   4.714   4.589 -0.7046  0.2375  0.0350
  239MOL0     C31442   4.673   4.576   4.581  0.0029 -0.1219  0.0626
  239MOL0     C31443   4.557   4.540   4.511  1.2014 -0.7874  0.8838
  239MOL0     C31444   4.479   4.639   4.440 -0.1224  0.2346 -0.2116
  239MOL0     C31445   4.346   4.616   4.395  0.1965  1.0118  0.1177
  239MOL0     O31446   4.279   4.724   4.356 -0.3958  0.5589  0.1514
  239MOL0     C31447   4.171   4.683   4.288  0.7152 -0.2538 -1.2816
  239MOL0     C31448   4.051   4.663   4.357  0.4432  0.0164  0.5114
  239MOL0     C31449   3.940   4.610   4.280  0.6245  0.4783 -0.4845
  239MOL0     C31450   3.943   4.599   4.142 -0.8131  0.0872 -0.5535
  239MOL0     O31451   3.836   4.540   4.087 -0.0113  0.1954  0.4982
  239MOL0     C31452   3.867   4.460   3.972 -0.5260 -0.2676 -0.0645
  239MOL0     C31453   3.741   4.373   3.945 -0.4110  0.2312 -0.1723
  239MOL0     C31454   3.617   4.454   3.913  0.0013 -0.1023 -0.3309
  239MOL0     C31455   3.499   4.378   3.861  0.1408 -0.4480 -0.3750
  239MOL0     C31456   3.375   4.457   3.880  0.3447  1.0888  0.2229
  239MOL0     C31457   3.375   4.582   3.804  0.8317 -0.3965  1.1154
  239MOL0     C31458   3.250   4.666   3.821 -0.3987  0.7645  0.0120
  239MOL0     C31459   3.143   4.633   3.713 -0.5574  0.5522  1.0008
  239MOL0    Cl31460   3.011   4.758   3.729 -0.2583 -0.1609  0.2704
  239MOL0     C31461   4.074   4.625   4.082  0.8322 -0.7756  0.1597
  239MOL0     C31462   4.180   4.676   4.148 -0.4339  0.1779 -0.2659
  239MOL0     O31463   4.309   4.496   4.396 -0.8670  0.6304  0.3492
  239MOL0     C31464   4.526   4.772   4.439  0.1685 -0.1779  0.2167
  239MOL0     C31465   4.644   4.807   4.509 -0.6833  0.3815  0.1122
  239MOL0     N31466   5.257   4.458   4.756  0.7807  0.3247  0.9957
  239MOL0     N31467   5.384   4.426   4.790 -0.3034 -0.2168 -0.0653
  239MOL0     C31468   6.618   4.520   5.073  0.0627 -0.3122  0.1964
  239MOL0     C31469   6.728   4.612   5.058 -0.0910  0.3570 -0.0859
  239MOL0     C31470   6.951   4.955   4.867  0.5893 -0.6585 -0.3820
  239MOL0     C31471   7.025   5.004   4.980  0.0869  0.0190  0.2149
  239MOL0     C31472   7.149   5.068   4.965  0.0690 -0.4945 -0.5013
  239MOL0     C31473   7.204   5.087   4.841  0.3044 -0.2182  0.5774
  239MOL0     O31474   7.320   5.159   4.839  0.5119  0.3160  0.4130
  239MOL0     C31475   7.395   5.156   4.715 -0.5094  0.3789  0.5458
  239MOL0     C31476   7.542   5.172   4.743 -0.4631 -0.2544 -0.7922
  239MOL0     C31477   7.566   5.322   4.710 -0.5233 -0.4998 -0.3782
  239MOL0     C31478   7.713   5.358   4.731  0.6198 -0.2881  0.9963
  239MOL0     C31479   7.730   5.505   4.716  0.3293 -0.1915 -0.1410
  239MOL0     C31480   7.739   5.625   4.723 -0.0599 -0.2620 -0.3298
  239MOL0     C31481   7.131   5.046   4.729  1.2313 -0.1546 -0.4775
  239MOL0     C31482   7.007   4.983   4.737  0.5939  0.1725  0.0642
  239MOL0     H31483   6.537   4.881   4.983  0.7061  0.9945  2.1511
  239MOL0     H31484   6.365   4.731   4.999 -0.1129 -0.1416 -0.5093
  239MOL0     H31485   6.462   4.340   4.892  0.6166  2.5908 -3.7159
  239MOL0     H31486   6.366   4.478   4.840  0.2844  0.5090  0.1671
  239MOL0     H31487   6.245   4.249   4.995 -2.1808  2.0170  1.2499
  239MOL0     H31488   6.239   4.246   4.813 -1.9315  0.7760 -0.6753
  239MOL0     H31489   6.093   4.405   4.801 -1.1636 -2.9976 -0.6626
  239MOL0     H31490   6.122   4.482   4.955 -2.3563 -0.8263  2.1258
  239MOL0     H31491   6.017   4.203   4.895 -0.1083 -0.2557 -1.1408
  239MOL0     H31492   6.010   4.275   5.063  1.6305 -0.7803 -0.4060
  239MOL0     H31493   5.866   4.382   4.820  0.1125 -2.6539 -0.6313
  239MOL0     H31494   5.883   4.467   4.973 -2.6600 -0.0135 -0.6370
  239MOL0     H31495   5.725   4.301   5.083 -0.3446 -1.0003  0.4589
  239MOL0     H31496   5.755   4.194   4.949  0.2071  0.3650 -0.4789
  239MOL0     H31497   5.632   4.464   4.916  0.6628 -0.4972  0.7411
  239MOL0     H31498   5.634   4.328   4.799 -1.0206  0.1085  0.0291
  239MOL0     H31499   5.496   4.329   5.069  2.8142 -2.3765  0.7005
  239MOL0     H31500   5.512   4.190   4.953 -1.3998 -0.7603 -0.3815
  239MOL0     H31501   5.226   4.252   5.012  0.2180 -1.2542 -0.8979
  239MOL0     H31502   4.993   4.330   4.924 -0.5570 -0.8755 -1.1314
  239MOL0     H31503   4.986   4.390   4.760  0.7163  1.0372 -1.6306
  239MOL0     H31504   5.102   4.615   4.912  0.8056 -1.2837  1.9057
  239MOL0     H31505   4.982   4.545   5.019  1.5905  0.6642  0.8187
  239MOL0     H31506   4.800   4.563   4.844 -0.1402  1.0128 -0.2026
  239MOL0     H31507   4.862   4.713   4.909 -0.6479  1.4210 -2.0717
  239MOL0     H31508   4.939   4.594   4.633 -0.1308  0.1073  0.3831
  239MOL0     H31509   5.018   4.731   4.725 -1.1122  2.9475 -0.4141
  239MOL0     H31510   4.727   4.505   4.643 -0.4240 -1.2116 -0.7666
  239MOL0     H31511   4.516   4.439   4.512  0.7390 -0.7539 -2.4293
  239MOL0     H31512   4.050   4.669   4.465  1.5434 -2.4191  0.7148
  239MOL0     H31513   3.847   4.581   4.329 -0.9304  1.3107 -2.7598
  239MOL0     H31514   3.954   4.399   3.998 -0.4513  0.3969  1.3795
  239MOL0     H31515   3.887   4.526   3.887  0.6969  1.1561  1.2583
  239MOL0     H31516   3.722   4.307   4.031  0.4696 -0.9837 -0.8871
  239MOL0     H31517   3.762   4.309   3.859 -1.2247  1.6582 -1.4751
  239MOL0     H31518   3.648   4.532   3.841 -2.0522  0.0725 -1.0992
  239MOL0     H31519   3.592   4.505   4.006  1.6221 -1.3106  0.8077
  239MOL0     H31520   3.502   4.338   3.759 -1.9676  1.5573 -1.3364
  239MOL0     H31521   3.485   4.290   3.924 -2.9369  0.1875 -0.0168
  239MOL0     H31522   3.371   4.471   3.988  0.3442 -0.5133  0.4474
  239MOL0     H31523   3.290   4.395   3.850  2.6080 -1.7548 -0.7764
  239MOL0     H31524   3.394   4.557   3.699 -0.2775 -0.5212  0.9303
  239MOL0     H31525   3.463   4.640   3.833  2.4526 -1.2092 -1.8205
  239MOL0     H31526   3.208   4.659   3.922 -2.1459 -1.8414 -0.7994
  239MOL0     H31527   3.273   4.773   3.811  2.4518  0.2795  0.6848
  239MOL0     H31528   3.111   4.528   3.717 -1.4720  0.7583 -0.3145
  239MOL0     H31529   3.196   4.648   3.618 -1.9052  2.2358  0.4685
  239MOL0     H31530   4.083   4.609   3.975  1.9137  1.2645 -0.0896
  239MOL0     H31531   4.273   4.682   4.091 -0.7777 -1.2930 -1.0460
  239MOL0     H31532   4.470   4.855   4.398  1.6324  0.5541 -0.3815
  239MOL0     H31533   4.691   4.905   4.508  0.8176 -0.2880  1.0670
  239MOL0     H31534   6.645   4.417   5.094  1.0502  0.0137  0.5922
  239MOL0     H31535   6.827   4.574   5.081 -0.8463 -0.2009  2.6507
  239MOL0     H31536   6.977   5.007   5.077 -2.9673 -0.4951 -1.1434
  239MOL0     H31537   7.198   5.107   5.054 -1.5163 -0.1127  0.2425
  239MOL0     H31538   7.360   5.229   4.641 -0.8009  1.2945  1.5628
  239MOL0     H31539   7.390   5.050   4.688  0.5105  0.3596  0.3733
  239MOL0     H31540   7.556   5.142   4.847 -0.2445 -0.0392 -0.7596
  239MOL0     H31541   7.606   5.106   4.683  1.1424 -2.3214  2.9031
  239MOL0     H31542   7.506   5.382   4.779 -0.6971 -0.0670 -0.8964
  239MOL0     H31543   7.528   5.337   4.608  0.2498  1.2986 -0.4462
  239MOL0     H31544   7.734   5.333   4.835 -1.7750 -2.4299  1.0545
  239MOL0     H31545   7.778   5.298   4.667  1.8905  0.3975  1.6066
  239MOL0     H31546   7.763   5.729   4.721  0.4410 -0.3615  0.2225
  239MOL0     H31547   7.177   5.050   4.631  0.1800 -1.9318 -1.1080
  239MOL0     H31548   6.965   4.945   4.645 -2.7312  1.0616  1.0912
  240MOL0     O31549   3.865   6.330   4.237 -0.1685  0.3449  0.4286
  240MOL0     C31550   3.931   6.405   4.317  0.5108 -0.4970 -0.3144
  240MOL0     O31551   3.888   6.440   4.442 -0.0649 -0.4227  0.4492
  240MOL0     C31552   3.752   6.425   4.479 -1.2227 -0.2399 -0.0660
  240MOL0     C31553   3.644   6.413   4.392 -0.0896  0.5621 -0.0094
  240MOL0     C31554   3.523   6.367   4.440 -0.0145 -0.3795 -0.3092
  240MOL0     C31555   3.497   6.342   4.577 -0.5052  0.1690 -0.0342
  240MOL0     O31556   3.368   6.313   4.619 -0.8771  0.0216 -0.2922
  240MOL0     C31557   3.331   6.336   4.756 -0.7232  0.3824  0.4689
  240MOL0     C31558   3.310   6.214   4.834 -0.3204  0.3759 -0.2374
  240MOL0     C31559   3.207   6.127   4.769  0.4166 -0.9912  0.3460
  240MOL0     C31560   3.197   5.990   4.831  1.0025 -0.5619  0.2105
  240MOL0     C31561   3.174   5.991   4.984  0.2772 -0.1936 -0.6645
  240MOL0     C31562   3.169   5.844   5.031  0.6905 -0.2349 -0.5848
  240MOL0     C31563   3.108   5.808   5.169  0.8290  0.4823 -0.5774
  240MOL0     C31564   2.963   5.837   5.170 -0.3644 -0.4621 -0.0429
  240MOL0     N31565   2.893   5.766   5.279 -0.1645  0.2358  0.4654
  240MOL0     C31566   2.887   5.812   5.413  0.5374  0.1662  0.6243
  240MOL0     C31567   2.839   5.710   5.483  0.3713 -0.6770 -0.6077
  240MOL0     C31568   2.839   5.703   5.637  0.0385  0.0808  0.2480
  240MOL0     C31569   2.701   5.742   5.677  0.6401  0.4602  0.2170
  240MOL0     C31570   2.663   5.895   5.683  0.1592  0.4695  0.0171
  240MOL0     C31571   2.537   5.918   5.771  0.9885 -0.4779  0.1069
  240MOL0     O31572   2.580   5.942   5.906 -0.6628  0.1447  0.4798
  240MOL0     C31573   2.490   5.969   6.007 -0.1569  0.9203  0.2181
  240MOL0     C31574   2.519   5.942   6.135 -0.7640 -0.0722 -0.0729
  240MOL0     C31575   2.435   5.972   6.239 -0.1609 -0.2666  0.4216
  240MOL0     C31576   2.313   6.041   6.216  0.4693 -0.3366  0.1965
  240MOL0     C31577   2.224   6.074   6.318  0.2987 -0.2831 -0.4671
  240MOL0     O31578   2.092   6.091   6.287 -0.3608 -0.4121  0.0365
  240MOL0     C31579   1.994   6.102   6.377  0.6370  0.3029 -0.4279
  240MOL0     C31580   1.886   6.171   6.328  0.6131 -0.9972 -0.1513
  240MOL0     C31581   1.770   6.198   6.401  0.2226 -0.2146  0.1073
  240MOL0     C31582   1.767   6.146   6.527  0.1932 -0.3953 -0.2477
  240MOL0     O31583   1.647   6.154   6.600  0.1040 -0.1031  0.0096
  240MOL0     C31584   1.567   6.281   6.581  0.0943 -0.0245 -0.2518
  240MOL0     C31585   1.576   6.367   6.706 -0.1548 -1.3730  0.1249
  240MOL0     C31586   1.446   6.454   6.701  0.1732 -0.8395 -0.7457
  240MOL0     C31587   1.467   6.574   6.803  0.5322  1.4549  0.1770
  240MOL0     C31588   1.353   6.669   6.822  0.1804 -0.1008 -0.0387
  240MOL0     C31589   1.214   6.608   6.864 -0.5572 -0.6983 -0.8773
  240MOL0     C31590   1.112   6.712   6.895  0.1687 -0.1722 -0.2766
  240MOL0     C31591   1.120   6.773   7.032  1.0654 -0.2129 -0.7005
  240MOL0    Cl31592   0.993   6.885   7.058 -0.0304  0.1192  0.5219
  240MOL0     C31593   1.873   6.071   6.582  0.1903  0.2195 -0.7585
  240MOL0     C31594   1.983   6.048   6.505  0.0100  0.2350 -0.6137
  240MOL0     O31595   2.268   6.071   6.433 -0.7906  0.1269  0.1792
  240MOL0     C31596   2.274   6.057   6.080  0.5457 -0.3446  0.3868
  240MOL0     C31597   2.359   6.019   5.982  0.8165  0.1109  0.1839
  240MOL0     N31598   2.791   5.618   5.392 -0.6376 -0.3410 -0.4064
  240MOL0     N31599   2.827   5.649   5.271 -0.0797 -0.1975  0.0413
  240MOL0     C31600   3.615   6.347   4.659  0.3851 -0.7828 -0.1640
  240MOL0     C31601   3.736   6.386   4.612  0.1431 -0.5450  0.3094
  240MOL0     C31602   4.072   6.431   4.286  0.0981 -0.0798 -0.0565
  240MOL0     C31603   4.141   6.364   4.188  0.4717 -0.0736  0.9644
  240MOL0     C31604   4.275   6.392   4.154  0.1119 -0.6358 -0.3802
  240MOL0     C31605   4.345   6.488   4.234  0.2013  0.5916 -0.3374
  240MOL0     O31606   4.477   6.512   4.220 -0.6565  0.6125 -1.1906
  240MOL0     C31607   4.551   6.436   4.127  0.0032  0.0821 -0.2163
  240MOL0     C31608   4.585   6.292   4.175  0.3920 -0.0366 -1.3776
  240MOL0     C31609   4.611   6.196   4.058 -0.1894 -0.1050 -0.5477
  240MOL0     C31610   4.618   6.043   4.089  0.8622 -0.6431 -0.3244
  240MOL0     C31611   4.483   5.989   4.122  0.0330 -0.6076  0.7886
  240MOL0     C31612   4.379   5.943   4.158  0.5231 -0.3744 -0.2656
  240MOL0     C31613   4.279   6.563   4.333  0.5933  0.3636 -0.0969
  240MOL0     C31614   4.143   6.534   4.350  0.5752  0.7010  0.3875
  240MOL0     H31615   3.649   6.443   4.288  1.1868  0.5807  0.0428
  240MOL0     H31616   3.441   6.353   4.371 -2.7227  0.4917  2.5157
  240MOL0     H31617   3.235   6.389   4.750  0.9084  3.3931 -1.2510
  240MOL0     H31618   3.398   6.403   4.809  2.1841 -2.0272  0.1194
  240MOL0     H31619   3.282   6.239   4.937  0.2434  0.3861 -0.0834
  240MOL0     H31620   3.403   6.157   4.846 -0.1576  0.5182 -0.8131
  240MOL0     H31621   3.231   6.115   4.663  2.2593  0.7832  0.5183
  240MOL0     H31622   3.113   6.183   4.777  0.7629 -0.6180  2.2256
  240MOL0     H31623   3.114   5.934   4.787 -0.6719  0.1408  2.3080
  240MOL0     H31624   3.294   5.941   4.821  1.4049  0.2957 -0.2319
  240MOL0     H31625   3.075   6.031   5.010 -0.3809 -0.8793 -1.9881
  240MOL0     H31626   3.251   6.045   5.040 -1.1798 -0.0109  1.2734
  240MOL0     H31627   3.276   5.819   5.030  0.1151 -3.2141 -3.0432
  240MOL0     H31628   3.120   5.780   4.957 -0.8916 -0.5067  0.6427
  240MOL0     H31629   3.115   5.699   5.182 -2.8906 -0.1490 -2.4722
  240MOL0     H31630   3.154   5.862   5.252 -1.0508  1.8594 -0.3713
  240MOL0     H31631   2.922   5.797   5.076  0.2225  1.5808 -1.2327
  240MOL0     H31632   2.959   5.946   5.174 -0.3956 -0.4501 -0.3781
  240MOL0     H31633   2.922   5.901   5.463  0.4492  0.4896  0.1160
  240MOL0     H31634   2.909   5.773   5.682  1.3510 -0.9984 -0.0330
  240MOL0     H31635   2.857   5.603   5.678 -0.0782 -0.2906 -0.5815
  240MOL0     H31636   2.691   5.709   5.781  0.0498 -2.0501 -0.5651
  240MOL0     H31637   2.633   5.675   5.622  1.1596 -1.1813  1.4733
  240MOL0     H31638   2.749   5.953   5.718  0.1932  0.9528 -0.8402
  240MOL0     H31639   2.649   5.932   5.581 -2.4006  1.3303  0.5894
  240MOL0     H31640   2.465   5.836   5.769  0.5532 -0.1236  0.8336
  240MOL0     H31641   2.493   6.013   5.739 -1.1811 -0.5468  2.5603
  240MOL0     H31642   2.613   5.895   6.164 -1.4849 -0.7376  1.2422
  240MOL0     H31643   2.467   5.946   6.339  2.0061  1.2572  0.2237
  240MOL0     H31644   1.890   6.207   6.226  1.0370 -2.9563 -0.8762
  240MOL0     H31645   1.701   6.261   6.346  2.4321  1.1311 -1.2258
  240MOL0     H31646   1.463   6.257   6.553 -1.2065  0.5093  3.5741
  240MOL0     H31647   1.594   6.345   6.496 -0.3554  2.7193  1.5334
  240MOL0     H31648   1.671   6.421   6.698 -1.2130  0.3813 -1.5095
  240MOL0     H31649   1.568   6.303   6.795 -1.9871  0.2632  1.2229
  240MOL0     H31650   1.354   6.404   6.731 -1.1637  0.3617 -2.6451
  240MOL0     H31651   1.425   6.491   6.600  1.7035  1.9492 -0.1460
  240MOL0     H31652   1.487   6.522   6.897 -0.4650 -1.0821 -0.9432
  240MOL0     H31653   1.555   6.632   6.772 -1.0529  3.3861 -1.0033
  240MOL0     H31654   1.329   6.721   6.728 -0.2564 -1.6452 -0.8122
  240MOL0     H31655   1.384   6.738   6.901 -1.5310  0.8032 -0.0967
  240MOL0     H31656   1.234   6.549   6.954  2.6194 -0.6683 -1.4556
  240MOL0     H31657   1.185   6.536   6.787  0.9869  0.2670 -2.4341
  240MOL0     H31658   1.112   6.792   6.821  0.7060  2.0300  1.9678
  240MOL0     H31659   1.021   6.653   6.878 -1.1934  2.3391 -2.7385
  240MOL0     H31660   1.218   6.820   7.031  0.7600  0.4684 -0.2547
  240MOL0     H31661   1.110   6.695   7.108 -0.0800  2.5576  2.2742
  240MOL0     H31662   1.854   6.030   6.681  0.3292 -0.4941 -1.0272
  240MOL0     H31663   2.067   5.994   6.548 -0.7960  0.8064  1.8581
  240MOL0     H31664   2.179   6.107   6.066  1.1781  1.2640  1.4426
  240MOL0     H31665   2.329   6.035   5.879 -2.5251  1.7138  1.2534
  240MOL0     H31666   3.594   6.326   4.763  1.5030 -0.1803  0.2027
  240MOL0     H31667   3.820   6.384   4.682 -0.6477  0.7274  1.3257
  240MOL0     H31668   4.092   6.285   4.132  0.3558  0.1718  0.7181
  240MOL0     H31669   4.322   6.322   4.086  0.9480 -1.3141  0.8469
  240MOL0     H31670   4.648   6.487   4.120 -0.9751  2.0843  0.0429
  240MOL0     H31671   4.504   6.431   4.028 -1.4841 -4.6677  0.4855
  240MOL0     H31672   4.677   6.295   4.235  1.9008  0.2581 -3.5740
  240MOL0     H31673   4.500   6.259   4.236  1.2695  0.9378  0.4572
  240MOL0     H31674   4.700   6.229   4.004 -1.1787 -0.1241 -2.2568
  240MOL0     H31675   4.529   6.212   3.988 -0.1393  3.4328  0.0426
  240MOL0     H31676   4.647   5.992   3.996  0.2352 -0.2019 -0.7746
  240MOL0     H31677   4.685   6.018   4.171  0.5774  3.2448  1.2893
  240MOL0     H31678   4.283   5.904   4.186  1.0464 -0.9625  0.7502
  240MOL0     H31679   4.323   6.645   4.389  0.3481  1.1896 -1.0827
  240MOL0     H31680   4.091   6.608   4.409 -0.6222  0.0361  0.1880
  241MOL0     O31681   3.834   8.771   4.752  0.3292  0.2781  0.6480
  241MOL0     C31682   3.882   8.773   4.645 -0.9387  0.1116  0.9572
  241MOL0     O31683   3.816   8.763   4.526  0.3989  0.2542 -0.3240
  241MOL0     C31684   3.693   8.716   4.508 -0.3194 -0.2597 -0.2148
  241MOL0     C31685   3.620   8.646   4.603 -0.1060  0.1096 -0.0521
  241MOL0     C31686   3.501   8.583   4.574  0.5828 -1.2229  0.1448
  241MOL0     C31687   3.433   8.623   4.464 -0.0113 -0.0971  0.2009
  241MOL0     O31688   3.305   8.578   4.458  0.5652  0.7989  0.0140
  241MOL0     C31689   3.242   8.595   4.325 -0.4430 -0.2825 -0.0878
  241MOL0     C31690   3.100   8.572   4.322  0.3231  0.6696  0.5261
  241MOL0     C31691   3.018   8.685   4.391 -0.7153 -0.0772 -0.4745
  241MOL0     C31692   2.883   8.671   4.329 -0.4992  0.6790  0.2734
  241MOL0     C31693   2.792   8.777   4.381  0.2627  0.4471  0.0922
  241MOL0     C31694   2.656   8.766   4.305  0.2156  0.4863 -0.1201
  241MOL0     C31695   2.636   8.745   4.159  0.3388 -0.2088 -0.6595
  241MOL0     C31696   2.482   8.755   4.113 -0.2866 -0.1660  1.0494
  241MOL0     N31697   2.475   8.767   3.961 -0.4383  0.3229 -0.8182
  241MOL0     C31698   2.506   8.875   3.882  0.1184  0.9003  0.1586
  241MOL0     C31699   2.504   8.822   3.756  0.0382  0.7472 -0.0357
  241MOL0     C31700   2.557   8.902   3.635  0.1834 -0.0048 -0.2009
  241MOL0     C31701   2.471   8.873   3.513 -0.0439 -0.1380  0.2919
  241MOL0     C31702   2.542   8.916   3.379  0.1019 -0.3139  0.6337
  241MOL0     C31703   2.451   8.933   3.266  0.1209 -0.1366  0.3884
  241MOL0     O31704   2.336   9.012   3.304 -0.3228 -0.2942  0.6102
  241MOL0     C31705   2.212   9.002   3.238  0.0066  0.9115 -0.4468
  241MOL0     C31706   2.096   9.047   3.300  0.0249 -0.1373 -0.0298
  241MOL0     C31707   1.972   9.036   3.239 -0.1220 -0.3841  0.0875
  241MOL0     C31708   1.967   8.990   3.103 -0.1645 -1.0873  0.0080
  241MOL0     C31709   1.830   8.982   3.036  0.4211  0.0181 -0.7614
  241MOL0     O31710   1.831   8.927   2.908 -0.9581  0.2423 -0.0044
  241MOL0     C31711   1.729   8.929   2.816  0.0114 -0.0408 -0.6929
  241MOL0     C31712   1.731   8.827   2.721  1.4138  0.3132  0.0542
  241MOL0     C31713   1.640   8.832   2.609  0.5553  0.7658  0.1413
  241MOL0     C31714   1.546   8.935   2.592  0.7777 -0.7139  0.9847
  241MOL0     O31715   1.445   8.942   2.490 -0.2210  0.1458 -0.1911
  241MOL0     C31716   1.464   8.847   2.385  0.1357  0.3565 -0.2994
  241MOL0     C31717   1.349   8.861   2.293 -0.7226 -0.7927  0.2398
  241MOL0     C31718   1.207   8.870   2.359  0.0553  0.3769 -0.3316
  241MOL0     C31719   1.098   8.824   2.261  0.4240  0.0849  0.8821
  241MOL0     C31720   1.067   8.670   2.269 -0.2268 -0.6063  0.3736
  241MOL0     C31721   1.141   8.584   2.166 -0.2588  0.1410  0.5176
  241MOL0     C31722   1.098   8.439   2.170  0.4183  0.0664  0.6028
  241MOL0     C31723   1.166   8.355   2.056 -0.6098  0.8735 -1.1183
  241MOL0    Cl31724   1.165   8.431   1.897  0.3816  0.2439  0.2674
  241MOL0     C31725   1.543   9.031   2.689 -0.1933 -0.0908  0.4819
  241MOL0     C31726   1.635   9.031   2.792  0.0347 -0.2959  0.1385
  241MOL0     O31727   1.724   9.006   3.094  0.3282 -0.2716 -0.3326
  241MOL0     C31728   2.077   8.930   3.044 -0.1671 -0.0222  0.3622
  241MOL0     C31729   2.199   8.940   3.114  0.6140  0.2258 -0.8766
  241MOL0     N31730   2.466   8.689   3.758  0.0805  0.0339 -0.4739
  241MOL0     N31731   2.442   8.661   3.887 -1.1919 -0.0900  0.7328
  241MOL0     C31732   3.499   8.702   4.367 -0.3459 -0.7755 -0.3930
  241MOL0     C31733   3.633   8.741   4.385  0.2897  0.8191  0.6809
  241MOL0     C31734   4.032   8.773   4.643  0.0000  0.7409 -0.5120
  241MOL0     C31735   4.099   8.797   4.520 -0.8104 -0.1306  0.8695
  241MOL0     C31736   4.233   8.771   4.519  0.6434  0.0800 -0.0536
  241MOL0     C31737   4.300   8.725   4.637 -0.1540 -0.7885 -0.1505
  241MOL0     O31738   4.428   8.697   4.606  0.0610  0.3978  0.2245
  241MOL0     C31739   4.515   8.653   4.719 -0.8054  0.4527  0.2260
  241MOL0     C31740   4.617   8.548   4.657 -0.3314 -0.5792  0.5743
  241MOL0     C31741   4.742   8.536   4.751 -0.4748  0.0123  0.5446
  241MOL0     C31742   4.729   8.424   4.853 -0.0824 -0.1312 -0.2803
  241MOL0     C31743   4.852   8.419   4.926 -0.8193 -0.5734 -0.2434
  241MOL0     C31744   4.956   8.415   4.975  0.0443 -0.6781 -0.4936
  241MOL0     C31745   4.232   8.713   4.752 -0.6463 -0.4183  0.0500
  241MOL0     C31746   4.101   8.738   4.761 -0.2968 -0.7925 -0.3282
  241MOL0     H31747   3.662   8.638   4.702 -0.0460  1.5688  0.0580
  241MOL0     H31748   3.438   8.526   4.641 -0.5985  0.3560  0.4470
  241MOL0     H31749   3.293   8.522   4.261  0.0075 -2.5640  2.6684
  241MOL0     H31750   3.259   8.693   4.279  0.8007 -0.2961  0.3089
  241MOL0     H31751   3.085   8.478   4.375 -0.4196  2.2837  3.4202
  241MOL0     H31752   3.068   8.559   4.218  1.7058  0.0403  0.1570
  241MOL0     H31753   3.064   8.784   4.383 -3.6406  1.3246 -1.4905
  241MOL0     H31754   3.008   8.654   4.495  0.6260  0.1275 -0.2608
  241MOL0     H31755   2.881   8.675   4.219 -0.2292 -0.6441  0.2019
  241MOL0     H31756   2.835   8.579   4.363 -1.1046  1.7881  2.5894
  241MOL0     H31757   2.828   8.878   4.356 -0.8748  0.4739 -1.5928
  241MOL0     H31758   2.777   8.763   4.489  0.7824  2.0556  0.3988
  241MOL0     H31759   2.599   8.851   4.344  0.0115  0.8564 -1.1922
  241MOL0     H31760   2.607   8.679   4.351  0.9775  1.1890  2.1658
  241MOL0     H31761   2.696   8.824   4.111  1.4468  0.5793  1.8399
  241MOL0     H31762   2.675   8.650   4.122 -1.5298 -0.4901 -2.0700
  241MOL0     H31763   2.441   8.849   4.152  0.4943  2.2655 -3.3173
  241MOL0     H31764   2.427   8.665   4.140 -0.6898 -0.8526 -1.6970
  241MOL0     H31765   2.536   8.977   3.900  0.5356  1.0431 -1.2297
  241MOL0     H31766   2.660   8.870   3.614  0.6166  1.5569 -0.5439
  241MOL0     H31767   2.568   9.010   3.649  0.1539  0.2973 -2.2823
  241MOL0     H31768   2.377   8.928   3.527 -0.4098 -0.5193 -0.5934
  241MOL0     H31769   2.449   8.766   3.505 -2.8348  0.3594  0.4661
  241MOL0     H31770   2.580   9.018   3.394 -3.2878  0.8028  2.8163
  241MOL0     H31771   2.613   8.840   3.345  0.2780 -0.7555  1.9539
  241MOL0     H31772   2.423   8.838   3.218  1.1766 -0.0107 -0.5071
  241MOL0     H31773   2.502   8.994   3.191 -0.4691  1.2934  1.1088
  241MOL0     H31774   2.092   9.096   3.396  1.2840 -0.8877  0.4181
  241MOL0     H31775   1.889   9.086   3.289  2.5190  1.5011  2.9310
  241MOL0     H31776   1.805   8.748   2.725  0.0016 -1.0768  0.2616
  241MOL0     H31777   1.643   8.746   2.544  1.0215 -1.5913  3.0622
  241MOL0     H31778   1.470   8.746   2.427  1.2146  0.2468 -0.6772
  241MOL0     H31779   1.559   8.863   2.334  0.4273 -0.3309  0.0216
  241MOL0     H31780   1.357   8.774   2.228  0.8936 -0.6894  0.2486
  241MOL0     H31781   1.373   8.956   2.243  1.1604  0.1049  2.6111
  241MOL0     H31782   1.182   8.973   2.389  1.1056 -0.3464  3.5989
  241MOL0     H31783   1.199   8.807   2.448 -2.0926 -0.4948 -1.0870
  241MOL0     H31784   1.004   8.869   2.293  0.1517 -0.3991  0.7831
  241MOL0     H31785   1.111   8.862   2.159  1.8686 -0.6413  0.7753
  241MOL0     H31786   0.959   8.658   2.252 -0.1993  1.7699 -2.2903
  241MOL0     H31787   1.095   8.634   2.368 -0.0658 -0.8978  0.2247
  241MOL0     H31788   1.247   8.581   2.191  0.0981 -1.8567 -0.9500
  241MOL0     H31789   1.134   8.630   2.067  2.2640 -0.0844  0.1730
  241MOL0     H31790   1.129   8.399   2.267 -1.6168  0.9376  1.6936
  241MOL0     H31791   0.988   8.441   2.173  0.2898 -2.2512 -0.4279
  241MOL0     H31792   1.111   8.262   2.045  1.8562 -0.3771 -4.1840
  241MOL0     H31793   1.265   8.331   2.095 -2.7507  0.5105  5.1705
  241MOL0     H31794   1.463   9.104   2.681  0.8739  1.0517 -0.1246
  241MOL0     H31795   1.642   9.118   2.857  1.0668  0.4446 -0.9191
  241MOL0     H31796   2.079   8.880   2.948 -1.1213 -0.0101  0.3281
  241MOL0     H31797   2.286   8.894   3.069  1.7328 -1.0638  2.3229
  241MOL0     H31798   3.452   8.734   4.275 -2.2164  2.7243  1.5820
  241MOL0     H31799   3.676   8.800   4.305  1.2886  0.7853  1.1788
  241MOL0     H31800   4.051   8.836   4.431  0.2729  0.5034  0.5444
  241MOL0     H31801   4.290   8.790   4.428  1.6829  1.6445  0.8643
  241MOL0     H31802   4.455   8.598   4.792 -0.1971  1.8036  1.7945
  241MOL0     H31803   4.551   8.742   4.771 -1.9740  1.5688 -0.7948
  241MOL0     H31804   4.572   8.449   4.643  2.2928 -1.8840  0.8561
  241MOL0     H31805   4.641   8.575   4.554  0.2092 -2.8143  0.0789
  241MOL0     H31806   4.780   8.636   4.774 -0.8100  0.1514  0.5030
  241MOL0     H31807   4.822   8.500   4.687  0.3461 -1.4870  2.3481
  241MOL0     H31808   4.653   8.446   4.928 -2.0155 -2.4491 -1.4226
  241MOL0     H31809   4.708   8.329   4.802  2.3021  0.2563 -2.1829
  241MOL0     H31810   5.060   8.411   5.001  0.3903 -1.6255 -1.8964
  241MOL0     H31811   4.284   8.679   4.841 -2.0119 -1.8130  0.3506
  241MOL0     H31812   4.047   8.743   4.855 -0.8314  1.6084 -0.7083
  242MOL0     O31813  10.524   3.745   8.562 -0.0298  0.8519  0.1123
  242MOL0     C31814  10.533   3.864   8.587 -0.4607 -0.1789  0.0499
  242MOL0     O31815  10.425   3.946   8.603 -0.4501 -0.1948  0.1862
  242MOL0     C31816  10.306   3.888   8.564  0.6616 -1.0127 -0.2214
  242MOL0     C31817  10.243   3.936   8.449  0.6516  0.4439  0.1635
  242MOL0     C31818  10.135   3.865   8.402  0.7621  0.0618  0.1051
  242MOL0     C31819  10.089   3.745   8.458 -0.2164  0.4503 -0.1277
  242MOL0     O31820   9.984   3.673   8.407 -0.5933 -0.1442 -0.3293
  242MOL0     C31821   9.871   3.747   8.394  1.5582 -0.0151 -0.2373
  242MOL0     C31822   9.746   3.666   8.433 -0.1136  0.3379 -0.2831
  242MOL0     C31823   9.750   3.526   8.359  0.4114 -0.6372 -0.2296
  242MOL0     C31824   9.622   3.454   8.389  0.7141  0.5864  0.3569
  242MOL0     C31825   9.620   3.312   8.343 -0.2846 -0.0642  0.1357
  242MOL0     C31826   9.491   3.228   8.361  0.7783 -0.7208  0.5443
  242MOL0     C31827   9.374   3.276   8.271  0.0979 -0.4011  0.3296
  242MOL0     C31828   9.270   3.157   8.254  0.6551  0.3076 -0.8067
  242MOL0     N31829   9.209   3.117   8.380  0.6962  0.4798  0.1766
  242MOL0     C31830   9.147   3.196   8.479  0.1603  0.3136 -0.3558
  242MOL0     C31831   9.106   3.112   8.581  1.4454  0.1630 -0.8458
  242MOL0     C31832   9.028   3.150   8.709  0.8125  0.2462  0.6069
  242MOL0     C31833   8.879   3.199   8.674  0.2233 -0.9118 -0.1363
  242MOL0     C31834   8.796   3.226   8.808  0.4810  0.5292 -0.6739
  242MOL0     C31835   8.646   3.212   8.784  0.4792 -0.8135  0.1346
  242MOL0     O31836   8.573   3.285   8.890 -0.8120  0.5346 -0.0955
  242MOL0     C31837   8.435   3.254   8.883  0.0397 -0.4691 -0.5568
  242MOL0     C31838   8.369   3.159   8.809  0.4828 -0.2092  0.1646
  242MOL0     C31839   8.225   3.150   8.815 -1.0913  0.9789  1.4024
  242MOL0     C31840   8.141   3.248   8.882  0.2327  0.2534  0.1936
  242MOL0     C31841   7.990   3.237   8.871  0.6036 -0.3864 -0.2499
  242MOL0     O31842   7.947   3.123   8.808  0.1180  0.5137  0.5935
  242MOL0     C31843   7.822   3.139   8.750  0.2123 -0.2939  0.1927
  242MOL0     C31844   7.726   3.040   8.788  0.0497 -1.1976  0.4536
  242MOL0     C31845   7.593   3.062   8.742  1.0239 -0.3399  1.0048
  242MOL0     C31846   7.568   3.161   8.643 -0.1822 -0.4862  0.3126
  242MOL0     O31847   7.452   3.179   8.574  0.1560  0.8989 -0.1058
  242MOL0     C31848   7.326   3.143   8.633 -0.1392  0.6802 -0.2749
  242MOL0     C31849   7.253   3.051   8.530 -0.0434 -0.2042 -0.0393
  242MOL0     C31850   7.104   3.023   8.581 -0.5296  0.3743 -0.0549
  242MOL0     C31851   7.005   3.003   8.472  0.5227 -0.5129  1.0628
  242MOL0     C31852   6.869   2.964   8.521 -0.1082 -0.2575  0.2335
  242MOL0     C31853   6.770   2.903   8.415 -1.0920 -0.5519  0.7779
  242MOL0     C31854   6.790   2.756   8.412 -0.0033 -0.3853  0.0358
  242MOL0     C31855   6.739   2.695   8.277  0.2221 -0.0173 -0.3581
  242MOL0    Cl31856   6.819   2.761   8.135 -0.4076  0.2500  0.1050
  242MOL0     C31857   7.664   3.251   8.606 -0.7887  0.7441 -0.3083
  242MOL0     C31858   7.793   3.243   8.664  0.1792 -0.1232 -0.6086
  242MOL0     O31859   7.916   3.323   8.925 -0.9654  0.1578  0.1971
  242MOL0     C31860   8.210   3.348   8.949  0.3958  0.4226 -0.9788
  242MOL0     C31861   8.353   3.341   8.959  0.1733 -0.5482 -0.7589
  242MOL0     N31862   9.126   2.988   8.528 -0.1885 -0.6169  0.1604
  242MOL0     N31863   9.200   2.987   8.422 -0.0868  0.2193  1.0703
  242MOL0     C31864  10.147   3.702   8.578 -0.4955 -0.2516  0.8572
  242MOL0     C31865  10.249   3.778   8.634 -1.1418  0.3248 -0.1086
  242MOL0     C31866  10.673   3.922   8.600 -0.6730  0.0899 -0.0727
  242MOL0     C31867  10.794   3.846   8.587 -0.2047 -0.7681 -0.6730
  242MOL0     C31868  10.921   3.896   8.612  0.2702  0.3106  0.3079
  242MOL0     C31869  10.938   4.034   8.635 -0.4172 -0.0191  0.8794
  242MOL0     O31870  11.058   4.101   8.663 -1.4406 -0.0536  0.0895
  242MOL0     C31871  11.181   4.053   8.602 -0.0578 -0.0369  0.1672
  242MOL0     C31872  11.283   4.168   8.573 -0.0528  0.2013  0.2455
  242MOL0     C31873  11.305   4.261   8.696  0.2070  0.2416  0.4255
  242MOL0     C31874  11.435   4.339   8.675 -0.0524 -0.4347 -0.9271
  242MOL0     C31875  11.421   4.422   8.560 -0.0909 -0.9661  0.1717
  242MOL0     C31876  11.420   4.498   8.465 -0.6331 -0.1233  0.2737
  242MOL0     C31877  10.818   4.122   8.625 -0.4431  0.2147 -0.2404
  242MOL0     C31878  10.692   4.063   8.606 -0.2913 -0.6643  0.1481
  242MOL0     H31879  10.277   4.026   8.398  0.2412  0.4828 -0.0427
  242MOL0     H31880  10.075   3.907   8.322  0.3797 -0.5672  0.0563
  242MOL0     H31881   9.862   3.782   8.291  2.8136 -0.3169 -0.4597
  242MOL0     H31882   9.869   3.833   8.461  1.0464 -0.9990  1.0592
  242MOL0     H31883   9.650   3.705   8.395 -2.0419 -3.8624 -0.2285
  242MOL0     H31884   9.747   3.658   8.542  1.6493  1.2257 -0.2039
  242MOL0     H31885   9.838   3.465   8.383  1.6910  0.2461 -2.4185
  242MOL0     H31886   9.764   3.554   8.254 -1.3765  1.9423  0.1434
  242MOL0     H31887   9.607   3.461   8.497  2.6229 -1.1982  0.7910
  242MOL0     H31888   9.543   3.496   8.325  0.4986 -2.6758 -1.7698
  242MOL0     H31889   9.699   3.271   8.406 -1.5589  2.0722  3.3818
  242MOL0     H31890   9.638   3.296   8.236 -3.1718 -0.5405 -0.3748
  242MOL0     H31891   9.452   3.230   8.463 -0.4317 -1.7766  0.1339
  242MOL0     H31892   9.512   3.126   8.327 -1.9532 -0.0557 -4.1572
  242MOL0     H31893   9.322   3.365   8.307 -1.4198 -0.8196 -0.7179
  242MOL0     H31894   9.416   3.302   8.173  2.2281  1.3752  1.6277
  242MOL0     H31895   9.327   3.072   8.216 -0.6013 -1.3854  0.8798
  242MOL0     H31896   9.190   3.175   8.182 -0.1249 -0.8929 -0.2611
  242MOL0     H31897   9.125   3.302   8.489  1.6528  0.5529  0.6594
  242MOL0     H31898   9.082   3.237   8.749 -0.0546 -0.1700  2.7666
  242MOL0     H31899   9.012   3.068   8.779  2.7945 -4.3431 -3.6648
  242MOL0     H31900   8.836   3.120   8.612 -0.0293 -1.6077  0.9245
  242MOL0     H31901   8.893   3.299   8.630  0.1016 -1.4792 -1.5312
  242MOL0     H31902   8.841   3.161   8.883  0.2712  0.9110 -0.2165
  242MOL0     H31903   8.822   3.329   8.833  1.8637  0.2336 -0.8473
  242MOL0     H31904   8.612   3.109   8.782  0.2801 -0.7719  0.9997
  242MOL0     H31905   8.631   3.269   8.692 -1.1012 -0.0193  0.8443
  242MOL0     H31906   8.421   3.081   8.753  2.0687 -0.3465  1.7500
  242MOL0     H31907   8.171   3.078   8.755  1.5257  0.6925 -0.8095
  242MOL0     H31908   7.758   2.953   8.845  2.2900 -2.9182 -3.0299
  242MOL0     H31909   7.513   2.994   8.767  0.0168  0.4322 -0.0223
  242MOL0     H31910   7.257   3.226   8.655  0.4059  1.1684 -0.3746
  242MOL0     H31911   7.335   3.096   8.732  1.0447  2.4346  0.5099
  242MOL0     H31912   7.306   2.964   8.491 -0.8737 -0.7281 -0.0230
  242MOL0     H31913   7.237   3.115   8.443 -0.4327  1.7843  1.4198
  242MOL0     H31914   7.067   3.113   8.629  0.0116  2.6122 -3.4961
  242MOL0     H31915   7.117   2.944   8.656  1.1669  1.7641  1.1805
  242MOL0     H31916   6.999   3.091   8.406 -2.8023 -0.8045  0.8028
  242MOL0     H31917   7.043   2.923   8.408 -0.5993  1.2715 -2.0519
  242MOL0     H31918   6.825   3.058   8.557 -0.2308 -0.1306 -0.2418
  242MOL0     H31919   6.873   2.898   8.608  1.8983 -0.9879 -0.3439
  242MOL0     H31920   6.793   2.951   8.320  1.1032 -1.1113  0.9651
  242MOL0     H31921   6.664   2.920   8.435 -1.9073 -2.8022 -1.1311
  242MOL0     H31922   6.895   2.729   8.421  0.5544  0.6656 -2.4895
  242MOL0     H31923   6.735   2.717   8.498  2.3576  1.0292  2.3446
  242MOL0     H31924   6.631   2.712   8.271  0.1475  1.4598  3.1409
  242MOL0     H31925   6.753   2.587   8.288  2.1994  0.3054  0.7681
  242MOL0     H31926   7.635   3.331   8.539 -0.8437  1.3419  0.4069
  242MOL0     H31927   7.863   3.314   8.622 -1.2694  2.2700  0.7252
  242MOL0     H31928   8.162   3.427   9.006  0.4295  1.2207 -2.0323
  242MOL0     H31929   8.407   3.418   9.013 -1.9595  0.8235 -0.4795
  242MOL0     H31930  10.115   3.614   8.632  1.0172 -0.3991  1.5657
  242MOL0     H31931  10.298   3.748   8.726 -0.1495 -0.6038 -0.9146
  242MOL0     H31932  10.790   3.741   8.563 -0.5919 -0.7752 -0.5750
  242MOL0     H31933  11.003   3.826   8.623 -1.0518 -1.2456  0.6410
  242MOL0     H31934  11.164   3.991   8.514  2.8188  0.8070 -1.1154
  242MOL0     H31935  11.215   3.978   8.674  0.4688  0.0609  0.0268
  242MOL0     H31936  11.370   4.121   8.526  0.0385  0.0672  0.5464
  242MOL0     H31937  11.239   4.232   8.496  2.2661  1.2325 -0.3047
  242MOL0     H31938  11.309   4.193   8.782 -1.9154 -3.8848 -2.4217
  242MOL0     H31939  11.221   4.322   8.730  0.2469 -0.6020  2.1766
  242MOL0     H31940  11.463   4.405   8.758  0.8560 -0.8982 -0.8466
  242MOL0     H31941  11.522   4.272   8.673 -0.5646 -1.4408  2.8201
  242MOL0     H31942  11.404   4.564   8.382  1.1046  1.2425  0.9598
  242MOL0     H31943  10.828   4.230   8.634  1.0134  0.3790 -2.7772
  242MOL0     H31944  10.605   4.128   8.604  0.5308  0.4503 -0.2101
  243MOL0     O31945   3.190   2.541   3.657 -0.1564  0.1079  0.1737
  243MOL0     C31946   3.150   2.449   3.575 -0.7848 -0.9900 -0.2560
  243MOL0     O31947   3.226   2.382   3.492  0.2846  0.4696  0.2193
  243MOL0     C31948   3.366   2.377   3.500  0.7380  0.2235 -0.0211
  243MOL0     C31949   3.438   2.338   3.380  0.5235  0.9222 -0.3753
  243MOL0     C31950   3.575   2.301   3.394  0.1613 -0.6012  0.6090
  243MOL0     C31951   3.650   2.307   3.512 -0.5787 -0.2687 -0.6654
  243MOL0     O31952   3.786   2.287   3.530 -0.6665 -0.2461 -0.3265
  243MOL0     C31953   3.872   2.285   3.415  0.0925 -0.9804  0.9744
  243MOL0     C31954   4.006   2.326   3.450 -0.8294  0.3916  0.0260
  243MOL0     C31955   4.103   2.319   3.328 -0.5015  0.2310  0.1272
  243MOL0     C31956   4.241   2.360   3.372  0.2593  0.0584  0.7449
  243MOL0     C31957   4.335   2.335   3.255  0.0619 -0.0667 -0.0386
  243MOL0     C31958   4.482   2.370   3.284  0.3605 -0.9827  1.6052
  243MOL0     C31959   4.543   2.285   3.387 -0.2167  0.8620 -0.1248
  243MOL0     C31960   4.695   2.277   3.385 -0.0567  0.0937  0.6602
  243MOL0     N31961   4.751   2.162   3.308  0.4541 -0.1381 -0.0315
  243MOL0     C31962   4.760   2.145   3.176 -0.7860  0.6572 -0.3646
  243MOL0     C31963   4.842   2.033   3.158  0.8781  0.1109  0.0629
  243MOL0     C31964   4.881   1.980   3.025  0.3521  0.0269 -0.9411
  243MOL0     C31965   4.757   1.910   2.967  0.5644 -0.6756  0.0061
  243MOL0     C31966   4.794   1.882   2.821  0.1197 -0.1189  0.3442
  243MOL0     C31967   4.667   1.850   2.737 -0.1740  0.3045  0.8102
  243MOL0     O31968   4.698   1.752   2.632  0.3964 -0.0561 -0.0371
  243MOL0     C31969   4.594   1.716   2.546 -0.4873  0.2025 -0.0174
  243MOL0     C31970   4.464   1.724   2.578 -0.1966  0.0181  0.2987
  243MOL0     C31971   4.368   1.681   2.483 -0.1931 -0.1581 -0.0694
  243MOL0     C31972   4.403   1.639   2.357  0.7178  0.5516  0.6884
  243MOL0     C31973   4.302   1.572   2.267  0.2714 -0.3015  0.3720
  243MOL0     O31974   4.179   1.558   2.327  0.2026  0.3807 -0.2558
  243MOL0     C31975   4.068   1.522   2.257  1.3038  0.6702  0.2245
  243MOL0     C31976   3.979   1.435   2.318  0.9360 -0.2655  0.0320
  243MOL0     C31977   3.862   1.387   2.254 -0.2494 -0.1638  0.1619
  243MOL0     C31978   3.840   1.409   2.120 -0.9216  0.4023 -1.3113
  243MOL0     O31979   3.733   1.370   2.055  0.2774  0.4481  0.9691
  243MOL0     C31980   3.710   1.230   2.065 -0.5560  0.1349 -0.2219
  243MOL0     C31981   3.596   1.196   1.963 -0.1089 -0.3909  0.1070
  243MOL0     C31982   3.464   1.259   1.996 -0.3839  0.0763  0.6045
  243MOL0     C31983   3.402   1.208   2.123  0.1430 -0.2771 -0.5569
  243MOL0     C31984   3.284   1.297   2.155  0.5697 -0.3562 -0.5323
  243MOL0     C31985   3.206   1.220   2.260 -0.5213  0.0688  0.2366
  243MOL0     C31986   3.079   1.293   2.311 -0.2729  0.4238  0.9452
  243MOL0     C31987   2.997   1.195   2.401  0.1162  0.7601  0.3730
  243MOL0    Cl31988   2.841   1.266   2.441  0.5461  0.0177 -0.0517
  243MOL0     C31989   3.921   1.501   2.059  0.1375  0.6849 -0.1494
  243MOL0     C31990   4.036   1.562   2.122  0.3741 -0.2830  0.5742
  243MOL0     O31991   4.339   1.518   2.159  0.0709 -0.5598 -0.3498
  243MOL0     C31992   4.537   1.617   2.335 -0.6524  0.4700 -0.3458
  243MOL0     C31993   4.636   1.665   2.426 -0.5023  0.4333  0.8404
  243MOL0     N31994   4.859   1.976   3.279 -0.2590  0.3852 -0.0046
  243MOL0     N31995   4.805   2.054   3.367 -0.2314 -0.6406  0.0994
  243MOL0     C31996   3.581   2.347   3.628  0.5309 -0.8312  0.9741
  243MOL0     C31997   3.437   2.372   3.623 -0.8581  0.4728 -0.1076
  243MOL0     C31998   3.006   2.418   3.573  0.1048 -0.5756  0.8442
  243MOL0     C31999   2.957   2.320   3.482  1.2782 -0.1088  0.1313
  243MOL0     C32000   2.817   2.293   3.479 -0.1267 -0.4200 -0.0962
  243MOL0     C32001   2.728   2.358   3.564  0.3972  0.3619  0.0732
  243MOL0     O32002   2.594   2.330   3.563  0.6264  0.0465  0.3986
  243MOL0     C32003   2.566   2.188   3.534 -0.1974  0.8360  0.5458
  243MOL0     C32004   2.421   2.160   3.574  0.2853  0.5581  1.5421
  243MOL0     C32005   2.398   2.180   3.726  0.4699 -0.1386  0.2054
  243MOL0     C32006   2.456   2.067   3.797 -0.5951  0.0744  0.1747
  243MOL0     C32007   2.433   2.065   3.945  0.0831 -0.1017  0.9037
  243MOL0     C32008   2.418   2.059   4.063  0.4893 -0.4856 -0.1115
  243MOL0     C32009   2.773   2.460   3.650  0.7526 -0.4605  0.4368
  243MOL0     C32010   2.914   2.492   3.649 -0.5013 -0.6196  0.0356
  243MOL0     H32011   3.379   2.332   3.289  2.0412  0.5685 -1.3670
  243MOL0     H32012   3.631   2.258   3.311 -0.7602  1.3863 -1.1481
  243MOL0     H32013   3.831   2.349   3.337  1.9633  1.0255  1.5511
  243MOL0     H32014   3.883   2.185   3.373 -0.5064 -0.7161  0.1484
  243MOL0     H32015   4.055   2.263   3.525 -0.4478 -0.9001 -1.2781
  243MOL0     H32016   3.997   2.427   3.492 -1.0209  0.8104 -0.9878
  243MOL0     H32017   4.066   2.391   3.254 -0.9743  1.1495  1.2117
  243MOL0     H32018   4.119   2.220   3.286  3.5948  0.6274  0.3240
  243MOL0     H32019   4.241   2.462   3.409 -1.2276 -0.1288  1.2975
  243MOL0     H32020   4.280   2.301   3.455  3.8710  0.7850 -0.2501
  243MOL0     H32021   4.300   2.387   3.165  0.2742 -0.1192 -0.1509
  243MOL0     H32022   4.321   2.228   3.236  0.2613 -0.7564  3.2145
  243MOL0     H32023   4.488   2.476   3.313  0.0096 -0.9298  1.4887
  243MOL0     H32024   4.535   2.355   3.190  0.8032  0.7949  1.5260
  243MOL0     H32025   4.518   2.330   3.484  1.3508  1.3042  0.0947
  243MOL0     H32026   4.496   2.186   3.389  1.2741  0.0543 -1.8169
  243MOL0     H32027   4.729   2.266   3.488  0.9363 -4.9354  0.0259
  243MOL0     H32028   4.725   2.376   3.348  0.3307 -0.5392 -0.8281
  243MOL0     H32029   4.728   2.200   3.088  0.1302 -0.1656 -1.2328
  243MOL0     H32030   4.961   1.905   3.028  0.8807  0.4746 -2.6398
  243MOL0     H32031   4.914   2.064   2.963  0.4481 -0.1480 -1.1284
  243MOL0     H32032   4.668   1.972   2.980 -0.4409 -2.1327  0.2722
  243MOL0     H32033   4.737   1.819   3.025  0.4385  1.3603  3.4696
  243MOL0     H32034   4.834   1.970   2.770  0.8206 -0.7941 -0.2758
  243MOL0     H32035   4.869   1.803   2.823 -1.8243 -2.2144 -2.3863
  243MOL0     H32036   4.620   1.942   2.701  1.7871  2.5912  3.5405
  243MOL0     H32037   4.591   1.810   2.805 -1.4834  3.4254  1.3696
  243MOL0     H32038   4.436   1.751   2.679  1.4822  0.7898  0.5905
  243MOL0     H32039   4.265   1.693   2.515  1.1538  2.7015  3.9820
  243MOL0     H32040   3.984   1.405   2.422 -1.8916 -1.7780 -0.1428
  243MOL0     H32041   3.784   1.332   2.306 -1.1000  1.9889  1.3166
  243MOL0     H32042   3.677   1.208   2.167 -3.3044  1.2958 -0.7877
  243MOL0     H32043   3.798   1.170   2.040  0.1417  0.9025  0.3253
  243MOL0     H32044   3.592   1.089   1.940  2.4649 -0.8200  1.2258
  243MOL0     H32045   3.617   1.235   1.863  0.4990 -3.1946 -0.9727
  243MOL0     H32046   3.406   1.258   1.903 -0.0239  0.5470  0.3675
  243MOL0     H32047   3.477   1.366   2.016  0.9235  0.0124  0.2059
  243MOL0     H32048   3.372   1.105   2.103 -2.5463  0.0626  1.1954
  243MOL0     H32049   3.468   1.210   2.211  0.2232  0.9446 -0.6307
  243MOL0     H32050   3.219   1.309   2.068 -1.8472 -1.3660  1.0287
  243MOL0     H32051   3.307   1.401   2.182 -4.6777  1.1295 -0.5957
  243MOL0     H32052   3.262   1.196   2.350  0.6764 -2.7635 -1.1332
  243MOL0     H32053   3.180   1.131   2.200  0.4653 -0.1187  0.0742
  243MOL0     H32054   3.099   1.388   2.361 -0.1854  0.3194  1.1099
  243MOL0     H32055   3.013   1.314   2.226 -0.6931 -0.6364  0.9816
  243MOL0     H32056   3.055   1.158   2.486 -1.5460 -1.9741  0.4072
  243MOL0     H32057   2.986   1.111   2.332  6.0994 -0.5686  0.5004
  243MOL0     H32058   3.884   1.526   1.961 -0.6432  0.7586  0.1583
  243MOL0     H32059   4.099   1.632   2.068 -1.7258  0.3259 -1.2112
  243MOL0     H32060   4.579   1.565   2.249  2.9061 -0.8478  1.9436
  243MOL0     H32061   4.739   1.635   2.412 -0.1533  1.6714  0.6218
  243MOL0     H32062   3.642   2.368   3.715  0.3734  2.3655  0.4088
  243MOL0     H32063   3.381   2.395   3.713 -2.5470 -0.7853 -0.7837
  243MOL0     H32064   3.016   2.266   3.410 -1.6259 -1.9926 -0.9937
  243MOL0     H32065   2.786   2.216   3.408  0.1494 -1.7189  1.1518
  243MOL0     H32066   2.637   2.118   3.578 -2.5190 -1.0647  1.4818
  243MOL0     H32067   2.563   2.177   3.425  2.4831 -2.1778  0.6500
  243MOL0     H32068   2.350   2.219   3.514 -0.1996 -1.1081  0.4258
  243MOL0     H32069   2.398   2.056   3.550 -1.4357  0.8576  1.7372
  243MOL0     H32070   2.297   2.199   3.764  1.0211  2.4603  0.5634
  243MOL0     H32071   2.442   2.276   3.757  0.9112 -0.5356  0.8384
  243MOL0     H32072   2.415   1.973   3.758 -3.2833  0.4368  1.7948
  243MOL0     H32073   2.561   2.069   3.768 -0.9099 -0.9800 -1.1306
  243MOL0     H32074   2.387   2.043   4.164 -1.5324  0.7227 -0.4776
  243MOL0     H32075   2.706   2.507   3.721 -2.1220  0.2148 -2.4668
  243MOL0     H32076   2.951   2.573   3.711  2.3599 -1.5917 -0.2778
  244MOL0     O32077   0.073  11.076   1.259 -0.3861 -0.8101  0.0561
  244MOL0     C32078   0.095  10.969   1.324 -0.0827 -0.0768  1.1666
  244MOL0     O32079   0.002  10.899   1.405 -0.7613  0.3938 -0.6105
  244MOL0     C32080  -0.107  10.973   1.435 -0.1235 -1.1425 -0.4201
  244MOL0     C32081  -0.231  10.936   1.391  0.6780 -0.1615 -0.0535
  244MOL0     C32082  -0.349  11.006   1.431 -0.3781 -0.0057  0.4629
  244MOL0     C32083  -0.337  11.123   1.509  0.3652 -0.0508  0.2453
  244MOL0     O32084  -0.442  11.203   1.526  0.0603 -0.4492 -0.1659
  244MOL0     C32085  -0.479  11.243   1.663  0.1315 -0.0603  0.9427
  244MOL0     C32086  -0.631  11.235   1.668  0.1250 -0.5642 -1.1394
  244MOL0     C32087  -0.696  11.328   1.773 -0.0436 -0.7426  0.6391
  244MOL0     C32088  -0.853  11.307   1.743 -1.3764  0.3619  0.2764
  244MOL0     C32089  -0.931  11.438   1.749  0.5069  0.3461  1.0320
  244MOL0     C32090  -1.084  11.425   1.770 -0.0610  0.4494 -0.5908
  244MOL0     C32091  -1.152  11.563   1.790  0.6222  0.5212 -0.0226
  244MOL0     C32092  -1.282  11.547   1.866 -0.7305 -1.2884 -0.0660
  244MOL0     N32093  -1.367  11.671   1.873  0.0264 -0.4048 -0.4591
  244MOL0     C32094  -1.327  11.803   1.875  0.6233 -0.2292 -0.2422
  244MOL0     C32095  -1.441  11.874   1.865 -0.6151  0.7377  0.5386
  244MOL0     C32096  -1.448  12.026   1.852  0.3414 -0.2752  0.4384
  244MOL0     C32097  -1.518  12.072   1.712 -1.1522 -0.6582  0.0399
  244MOL0     C32098  -1.665  12.029   1.699  0.2918  0.2493 -0.7045
  244MOL0     C32099  -1.754  12.054   1.826  0.1169 -0.2348 -1.3047
  244MOL0     O32100  -1.887  12.085   1.781  0.3434 -0.4103 -0.0958
  244MOL0     C32101  -1.981  11.988   1.738 -0.5205 -1.4327  0.0941
  244MOL0     C32102  -2.115  12.034   1.722 -0.9563 -0.2043  0.6841
  244MOL0     C32103  -2.215  11.949   1.688  0.9970 -0.4275  0.6329
  244MOL0     C32104  -2.194  11.813   1.655 -0.3261  0.5546 -0.2634
  244MOL0     C32105  -2.297  11.715   1.619 -1.1757 -0.1161 -0.3316
  244MOL0     O32106  -2.388  11.770   1.538 -0.1223 -0.0674 -0.6476
  244MOL0     C32107  -2.515  11.724   1.551  0.1391 -0.4937 -0.1223
  244MOL0     C32108  -2.597  11.786   1.641 -0.4436 -0.5987 -0.5769
  244MOL0     C32109  -2.737  11.768   1.638  0.6418 -0.4375  0.0697
  244MOL0     C32110  -2.795  11.673   1.553  0.6532  0.7328  0.5967
  244MOL0     O32111  -2.937  11.655   1.558 -0.0262 -0.2314 -0.8426
  244MOL0     C32112  -3.011  11.550   1.498 -0.5821  1.0371 -1.2473
  244MOL0     C32113  -3.052  11.593   1.353  0.3545  0.0768  0.7463
  244MOL0     C32114  -3.113  11.468   1.287 -0.1609 -0.1333 -0.2088
  244MOL0     C32115  -3.123  11.476   1.142 -0.0623  0.4101  0.0617
  244MOL0     C32116  -3.203  11.360   1.088  0.0394 -0.1111 -0.3067
  244MOL0     C32117  -3.354  11.375   1.106 -0.5088 -0.4719  0.1655
  244MOL0     C32118  -3.414  11.229   1.130  0.0434  0.1109  0.6891
  244MOL0     C32119  -3.568  11.233   1.157  0.4666  0.3181 -0.5763
  244MOL0    Cl32120  -3.672  11.332   1.044 -0.1452 -0.2699 -0.1454
  244MOL0     C32121  -2.710  11.610   1.467  0.5320 -0.3359  0.2869
  244MOL0     C32122  -2.570  11.629   1.469 -0.1908 -0.1527  0.3159
  244MOL0     O32123  -2.288  11.595   1.649 -0.0572  0.4068 -0.1531
  244MOL0     C32124  -2.062  11.765   1.687  0.0948  1.1124 -0.0051
  244MOL0     C32125  -1.957  11.853   1.722 -0.1844  0.7085  0.4329
  244MOL0     N32126  -1.545  11.793   1.883 -0.0581  0.2633 -0.1714
  244MOL0     N32127  -1.507  11.669   1.874 -1.0607 -0.2135 -0.0440
  244MOL0     C32128  -0.209  11.154   1.560  0.3280 -0.0719 -0.0783
  244MOL0     C32129  -0.093  11.079   1.519  0.7710 -0.5129 -0.5335
  244MOL0     C32130   0.223  10.897   1.279 -0.4351 -0.2154 -0.4363
  244MOL0     C32131   0.336  10.955   1.226 -0.0299 -0.0912 -0.8281
  244MOL0     C32132   0.442  10.881   1.179 -0.9459  0.1411 -1.0463
  244MOL0     C32133   0.443  10.738   1.197 -0.7133  0.2225  1.1961
  244MOL0     O32134   0.551  10.666   1.156  0.1403  0.2950 -0.3537
  244MOL0     C32135   0.558  10.528   1.177  0.2849 -0.0138  0.1391
  244MOL0     C32136   0.691  10.489   1.117 -0.3744  0.3053 -0.4106
  244MOL0     C32137   0.731  10.340   1.124  0.2358 -0.5192 -0.1874
  244MOL0     C32138   0.859  10.336   1.046  0.3976  1.1809  1.6967
  244MOL0     C32139   0.913  10.206   1.046 -0.1643 -0.1412 -1.0974
  244MOL0     C32140   0.944  10.087   1.066  0.5495  0.2596 -0.6430
  244MOL0     C32141   0.331  10.679   1.251  0.5990 -0.3717 -0.0988
  244MOL0     C32142   0.223  10.761   1.286  0.3235  1.4168  1.1765
  244MOL0     H32143  -0.245  10.844   1.335 -0.3573 -0.1033  0.0831
  244MOL0     H32144  -0.450  10.976   1.406 -0.3709 -0.0446  0.4808
  244MOL0     H32145  -0.459  11.350   1.670 -2.2288  0.4616  0.5926
  244MOL0     H32146  -0.423  11.189   1.740  1.3779 -2.7311 -1.6128
  244MOL0     H32147  -0.658  11.129   1.663 -2.3518  0.0487 -1.8793
  244MOL0     H32148  -0.662  11.277   1.573  1.5004 -1.7667 -2.1774
  244MOL0     H32149  -0.660  11.431   1.767 -1.2471 -0.3176  0.3973
  244MOL0     H32150  -0.682  11.296   1.877 -2.5233 -0.1087  1.2384
  244MOL0     H32151  -0.857  11.268   1.641  0.4857  1.4003 -0.2482
  244MOL0     H32152  -0.899  11.237   1.813 -2.3015 -0.2391 -0.9020
  244MOL0     H32153  -0.908  11.479   1.651  2.6056 -0.2076  1.2458
  244MOL0     H32154  -0.886  11.506   1.823 -0.9834  0.4538  1.8927
  244MOL0     H32155  -1.103  11.351   1.849  1.1752 -1.1225 -1.6873
  244MOL0     H32156  -1.123  11.370   1.683  3.6071  0.9271 -2.7356
  244MOL0     H32157  -1.077  11.626   1.839  1.0190 -0.4732  0.6699
  244MOL0     H32158  -1.178  11.612   1.696  0.2097  1.5587  0.6107
  244MOL0     H32159  -1.275  11.505   1.967 -1.7604 -1.1054  0.0927
  244MOL0     H32160  -1.342  11.476   1.808 -1.5779 -1.0178  0.4623
  244MOL0     H32161  -1.232  11.856   1.870  0.0616  0.7639 -0.7087
  244MOL0     H32162  -1.346  12.064   1.848  1.1296 -2.3341 -0.2871
  244MOL0     H32163  -1.502  12.069   1.937  0.1632 -0.4111  0.3953
  244MOL0     H32164  -1.466  12.033   1.624 -3.9601  2.6703 -3.4332
  244MOL0     H32165  -1.504  12.178   1.690 -2.5248 -1.2702 -4.9475
  244MOL0     H32166  -1.716  12.080   1.616 -0.7710 -2.9918 -2.1750
  244MOL0     H32167  -1.661  11.924   1.670 -0.5993 -1.6361  4.9192
  244MOL0     H32168  -1.727  12.145   1.881  1.2528 -2.0161  1.2952
  244MOL0     H32169  -1.756  11.967   1.892  0.8520  0.2281 -0.6492
  244MOL0     H32170  -2.128  12.136   1.757 -0.3732  0.2772 -0.4544
  244MOL0     H32171  -2.314  11.989   1.703  0.2134 -2.7398  2.1634
  244MOL0     H32172  -2.558  11.868   1.700 -0.2421 -0.1914 -1.2594
  244MOL0     H32173  -2.804  11.823   1.704 -0.5498 -2.6193  0.7532
  244MOL0     H32174  -3.098  11.551   1.564  0.9576  4.5799  1.0448
  244MOL0     H32175  -2.960  11.454   1.504 -0.0401  1.2507 -2.1401
  244MOL0     H32176  -2.970  11.633   1.293 -1.0748  3.3420  0.7684
  244MOL0     H32177  -3.120  11.679   1.350  0.6658  0.3020 -0.2873
  244MOL0     H32178  -3.205  11.436   1.337 -0.5759  0.3343 -0.6592
  244MOL0     H32179  -3.048  11.383   1.311 -1.5807 -1.0889  0.3827
  244MOL0     H32180  -3.164  11.571   1.106 -0.8767  0.0084 -0.0800
  244MOL0     H32181  -3.026  11.460   1.093  0.0697  1.7913 -0.1738
  244MOL0     H32182  -3.163  11.273   1.141  0.9710  1.1844  1.1901
  244MOL0     H32183  -3.167  11.344   0.985  2.6503 -0.3487  0.5581
  244MOL0     H32184  -3.407  11.407   1.016 -0.9653  0.0852  0.6313
  244MOL0     H32185  -3.372  11.448   1.184  0.0433 -0.0042 -0.1362
  244MOL0     H32186  -3.386  11.173   1.040  1.3481  1.0400  0.4812
  244MOL0     H32187  -3.371  11.185   1.220  1.0621  0.7723  0.5418
  244MOL0     H32188  -3.583  11.275   1.257  1.8014  2.9050 -1.3587
  244MOL0     H32189  -3.611  11.133   1.151  1.2671 -0.2488  1.9988
  244MOL0     H32190  -2.748  11.530   1.404 -0.7464  0.1741  0.3815
  244MOL0     H32191  -2.512  11.585   1.389  0.6399  1.5373 -0.0729
  244MOL0     H32192  -2.041  11.660   1.673  0.2138  0.9716  1.1836
  244MOL0     H32193  -1.854  11.819   1.720 -1.3871 -3.4222 -1.6989
  244MOL0     H32194  -0.212  11.230   1.638 -1.1050  2.7702 -2.7100
  244MOL0     H32195   0.003  11.085   1.570 -0.1977  0.0246  1.2824
  244MOL0     H32196   0.340  11.063   1.217  0.7708 -0.0534 -0.1626
  244MOL0     H32197   0.525  10.935   1.135 -0.8398 -1.0037 -2.3062
  244MOL0     H32198   0.486  10.484   1.107  1.1752  1.7426 -2.0230
  244MOL0     H32199   0.537  10.492   1.278  0.5364  1.3644  0.7035
  244MOL0     H32200   0.683  10.528   1.015 -0.7334 -0.2588 -0.6021
  244MOL0     H32201   0.767  10.538   1.178 -0.8466  1.1834 -0.5133
  244MOL0     H32202   0.651  10.275   1.086 -0.5274 -1.6111  2.9952
  244MOL0     H32203   0.761  10.305   1.223 -0.9001 -2.4002 -0.4506
  244MOL0     H32204   0.834  10.361   0.942 -3.0547  1.1079  2.3852
  244MOL0     H32205   0.933  10.410   1.079  3.3222  0.3899 -2.3067
  244MOL0     H32206   0.974   9.989   1.094  1.9119  1.4219  2.3512
  244MOL0     H32207   0.319  10.571   1.257 -1.1741 -0.1242  2.6023
  244MOL0     H32208   0.137  10.705   1.320  1.6725 -2.0151 -0.6166
  245MOL0     O32209   4.825  10.330   2.831  0.7097 -0.8114 -0.1280
  245MOL0     C32210   4.804  10.239   2.909 -0.3589 -0.1330  0.4441
  245MOL0     O32211   4.726  10.133   2.878 -0.3312 -0.3046  0.7186
  245MOL0     C32212   4.621  10.156   2.789 -0.4749  1.0234  0.0513
  245MOL0     C32213   4.497  10.143   2.846  0.3000  0.7615 -0.7288
  245MOL0     C32214   4.380  10.173   2.784 -0.4141  1.2270  0.5648
  245MOL0     C32215   4.379  10.192   2.644 -0.2765 -0.3311  1.0713
  245MOL0     O32216   4.265  10.213   2.593 -0.1921  0.5601 -0.4675
  245MOL0     C32217   4.272  10.280   2.466  0.7742  1.0667 -0.3034
  245MOL0     C32218   4.130  10.333   2.437  0.0892  0.3732 -0.3946
  245MOL0     C32219   4.017  10.225   2.409 -0.3441 -0.3556  0.6823
  245MOL0     C32220   4.062  10.144   2.280  0.3029  0.4530 -0.4828
  245MOL0     C32221   3.939  10.099   2.197  0.8641  0.8129  0.4061
  245MOL0     C32222   3.833  10.017   2.273 -0.2362  0.5600  1.2618
  245MOL0     C32223   3.718   9.981   2.184  0.4355 -0.4233  0.0683
  245MOL0     C32224   3.600  10.075   2.214  0.0275 -0.8318 -0.1521
  245MOL0     N32225   3.471  10.027   2.159  0.0879  0.3235  0.4710
  245MOL0     C32226   3.446   9.998   2.020  0.5992  0.2466  0.0153
  245MOL0     C32227   3.326   9.936   2.023 -0.5679  0.2961  0.7697
  245MOL0     C32228   3.253   9.877   1.899  0.2491  0.0202 -0.2308
  245MOL0     C32229   3.099   9.875   1.908 -0.6220  0.3110  0.1102
  245MOL0     C32230   3.030   9.792   1.799 -0.8495  0.4566 -0.5319
  245MOL0     C32231   2.882   9.801   1.814 -0.0105  0.3035  0.4670
  245MOL0     O32232   2.830   9.739   1.932 -0.2443 -0.2710  0.0161
  245MOL0     C32233   2.691   9.727   1.953  0.3484 -0.0167  0.5128
  245MOL0     C32234   2.590   9.782   1.873  0.2478 -0.8993 -0.2073
  245MOL0     C32235   2.457   9.761   1.909 -0.7019  0.2856  0.0232
  245MOL0     C32236   2.419   9.702   2.027  0.2559 -0.3877  0.3823
  245MOL0     C32237   2.274   9.680   2.053 -0.1592 -0.5140  0.1749
  245MOL0     O32238   2.243   9.578   2.147  0.9085 -0.1733 -0.1543
  245MOL0     C32239   2.112   9.533   2.157  0.7182 -0.1191 -0.9532
  245MOL0     C32240   1.997   9.614   2.180 -0.2401  0.7938  0.5027
  245MOL0     C32241   1.866   9.567   2.204 -2.0514  0.2341 -0.8957
  245MOL0     C32242   1.853   9.429   2.211  0.4595  0.8236  0.4586
  245MOL0     O32243   1.734   9.385   2.260  0.6187 -0.5005  0.8231
  245MOL0     C32244   1.689   9.254   2.241  0.3054 -0.0079 -0.4358
  245MOL0     C32245   1.571   9.206   2.338 -0.1853  0.1249 -0.0820
  245MOL0     C32246   1.465   9.319   2.354  0.5371 -0.7365 -0.4287
  245MOL0     C32247   1.334   9.265   2.420  0.1761  0.0935  0.1123
  245MOL0     C32248   1.228   9.363   2.418 -0.2819  0.0114  0.4535
  245MOL0     C32249   1.093   9.307   2.462  0.0828  0.4303 -0.7936
  245MOL0     C32250   0.991   9.423   2.472 -0.1715  0.3021  0.1988
  245MOL0     C32251   0.849   9.376   2.450  0.0635 -0.3211  0.8564
  245MOL0    Cl32252   0.745   9.524   2.452  0.0294 -0.0424 -0.2529
  245MOL0     C32253   1.959   9.342   2.186 -0.6929  0.2291  0.3366
  245MOL0     C32254   2.084   9.396   2.155 -0.3378 -0.2311  0.5653
  245MOL0     O32255   2.193   9.745   1.990  0.5272 -0.2565  0.8779
  245MOL0     C32256   2.521   9.664   2.113  0.1380  1.2680  0.7778
  245MOL0     C32257   2.654   9.679   2.078  0.1483  0.4899 -0.0255
  245MOL0     N32258   3.285   9.920   2.157 -0.1495 -0.0027  0.6743
  245MOL0     N32259   3.369   9.980   2.239 -0.3725 -0.6180  0.4638
  245MOL0     C32260   4.513  10.178   2.580  0.2047 -0.1255 -0.5155
  245MOL0     C32261   4.632  10.162   2.651  0.0789  0.3266  0.4807
  245MOL0     C32262   4.871  10.243   3.038  0.4449  0.1377 -0.5648
  245MOL0     C32263   4.958  10.344   3.072 -0.8423  0.7917 -0.2038
  245MOL0     C32264   5.029  10.340   3.189  0.4009  0.9218  0.0978
  245MOL0     C32265   5.012  10.241   3.288  0.3010  0.9528  0.1197
  245MOL0     O32266   5.087  10.257   3.398  0.2433  0.5656  0.1507
  245MOL0     C32267   5.079  10.157   3.503  0.8606 -0.0250 -0.1105
  245MOL0     C32268   5.182  10.180   3.617 -0.2002 -0.5324 -0.6082
  245MOL0     C32269   5.324  10.154   3.567  0.6083 -0.2006 -0.1031
  245MOL0     C32270   5.376  10.245   3.455  0.5278  0.4760 -0.1827
  245MOL0     C32271   5.522  10.222   3.448  0.1968  0.0439  0.4420
  245MOL0     C32272   5.642  10.218   3.460 -0.5021  0.0707  0.1768
  245MOL0     C32273   4.932  10.131   3.249  0.8709 -0.2433  0.5375
  245MOL0     C32274   4.858  10.130   3.126 -0.3540 -0.7711  1.1216
  245MOL0     H32275   4.495  10.150   2.954 -0.9213 -0.8580 -0.6113
  245MOL0     H32276   4.292  10.181   2.846 -0.3665 -0.8651  0.9809
  245MOL0     H32277   4.307  10.210   2.389 -3.5917  0.9563 -2.5215
  245MOL0     H32278   4.347  10.359   2.474  1.4934  0.8477 -3.5582
  245MOL0     H32279   4.134  10.398   2.350 -0.9814  0.5527 -0.3276
  245MOL0     H32280   4.101  10.379   2.532  0.4529 -0.1879 -0.0060
  245MOL0     H32281   3.916  10.267   2.397 -0.3468  0.5578  3.2424
  245MOL0     H32282   4.008  10.161   2.497  0.4058 -0.3707  0.7586
  245MOL0     H32283   4.122  10.209   2.216 -0.2780  0.6367 -0.8559
  245MOL0     H32284   4.122  10.059   2.312 -0.1434  0.8718  1.6640
  245MOL0     H32285   3.963  10.038   2.110 -2.0070 -1.8797  1.3119
  245MOL0     H32286   3.888  10.189   2.163  0.0284  0.6282  1.1273
  245MOL0     H32287   3.793  10.070   2.360  0.5402  1.6073  0.9965
  245MOL0     H32288   3.891   9.930   2.305 -1.3104 -0.9008 -0.5623
  245MOL0     H32289   3.756   9.989   2.082 -0.2348  1.5889 -0.0762
  245MOL0     H32290   3.688   9.881   2.216  0.5855 -0.2015  0.9378
  245MOL0     H32291   3.623  10.176   2.177  2.3665 -1.1702  0.2412
  245MOL0     H32292   3.588  10.098   2.320 -1.5784 -1.2220 -0.2242
  245MOL0     H32293   3.507  10.019   1.933 -4.6182 -1.2224 -4.6111
  245MOL0     H32294   3.302   9.780   1.891  1.8404  0.6697  1.0696
  245MOL0     H32295   3.280   9.934   1.810  0.5304  0.2980  0.0306
  245MOL0     H32296   3.063   9.978   1.903  1.1089  0.9307 -4.8525
  245MOL0     H32297   3.072   9.834   2.006  0.9636  0.9593  0.8467
  245MOL0     H32298   3.047   9.829   1.697  1.2799  0.4466 -0.2256
  245MOL0     H32299   3.064   9.687   1.804  1.6587  1.1909 -0.5559
  245MOL0     H32300   2.832   9.758   1.727  1.5969  0.4375 -0.5547
  245MOL0     H32301   2.862   9.908   1.803  2.3194  0.6865 -0.5446
  245MOL0     H32302   2.615   9.840   1.784  0.4639 -0.1608  0.3266
  245MOL0     H32303   2.378   9.801   1.846  0.5109  2.2620 -0.3313
  245MOL0     H32304   2.008   9.721   2.190 -0.1115  0.9384 -0.9375
  245MOL0     H32305   1.786   9.635   2.231  1.1720  4.6611 -1.3550
  245MOL0     H32306   1.765   9.186   2.281  0.2615  0.4873  0.4995
  245MOL0     H32307   1.670   9.228   2.137  0.7582 -2.0344 -0.0560
  245MOL0     H32308   1.622   9.187   2.433 -0.0520 -2.7285 -0.6573
  245MOL0     H32309   1.517   9.118   2.304 -1.9805  0.7130  1.0811
  245MOL0     H32310   1.440   9.363   2.257  3.1841 -1.0230 -1.3216
  245MOL0     H32311   1.503   9.405   2.411 -1.9602  0.0740  0.1122
  245MOL0     H32312   1.302   9.185   2.353 -0.8246 -0.3093  1.0425
  245MOL0     H32313   1.355   9.235   2.523  2.0067 -0.9048 -0.5099
  245MOL0     H32314   1.210   9.409   2.320 -4.3387  2.2940  2.0020
  245MOL0     H32315   1.261   9.450   2.475  1.3861  0.7365 -1.4896
  245MOL0     H32316   1.100   9.261   2.561  0.5574  1.6201 -0.2600
  245MOL0     H32317   1.065   9.223   2.397  1.8566 -0.1429 -0.8792
  245MOL0     H32318   1.012   9.472   2.568  0.1541 -3.2910  2.1090
  245MOL0     H32319   1.015   9.498   2.395  0.3157 -0.9729 -0.9384
  245MOL0     H32320   0.813   9.303   2.523 -2.5311 -0.6433 -0.6286
  245MOL0     H32321   0.833   9.330   2.353 -1.5128 -1.0552  1.4331
  245MOL0     H32322   1.949   9.236   2.207 -5.6476  0.4904  0.6103
  245MOL0     H32323   2.172   9.337   2.135 -1.3054 -1.5329  0.0282
  245MOL0     H32324   2.495   9.620   2.209  1.7837  2.9713  2.0756
  245MOL0     H32325   2.728   9.667   2.156 -0.2746  3.0191  0.8557
  245MOL0     H32326   4.516  10.176   2.472 -2.1677 -1.6999 -0.6433
  245MOL0     H32327   4.725  10.154   2.595 -1.1834 -0.7376 -1.5926
  245MOL0     H32328   4.991  10.432   3.016  2.1051  0.2293  0.4653
  245MOL0     H32329   5.104  10.411   3.222  0.5286  0.6631  0.3715
  245MOL0     H32330   5.104  10.060   3.458  0.6447  0.8489 -2.1984
  245MOL0     H32331   4.983  10.160   3.555  0.8004 -1.2840 -0.1098
  245MOL0     H32332   5.180  10.280   3.660  0.9064 -0.6995 -0.1378
  245MOL0     H32333   5.163  10.109   3.699 -0.5851 -1.0104 -1.1017
  245MOL0     H32334   5.345  10.052   3.536 -1.4941 -0.9458  0.7212
  245MOL0     H32335   5.370  10.183   3.662 -0.9152  1.2774  0.2444
  245MOL0     H32336   5.333  10.206   3.362 -1.0670  0.9011  0.3390
  245MOL0     H32337   5.358  10.347   3.490 -0.6397  0.1403  0.2477
  245MOL0     H32338   5.749  10.212   3.466 -0.1980 -0.4403 -3.3126
  245MOL0     H32339   4.910  10.051   3.319  0.2507  0.2550  0.9210
  245MOL0     H32340   4.791  10.045   3.115 -2.3011  0.9224 -1.3555
  246MOL0     O32341   5.038   7.139   0.728  0.0160 -0.5389  0.3409
  246MOL0     C32342   5.021   7.240   0.798  0.2465  0.7085  0.5272
  246MOL0     O32343   4.900   7.299   0.817  0.1357  0.1437  0.2933
  246MOL0     C32344   4.788   7.242   0.764  0.4329  0.2709  0.2538
  246MOL0     C32345   4.708   7.173   0.847 -0.2856  0.0063 -0.3077
  246MOL0     C32346   4.587   7.126   0.807 -0.1187  0.4896 -0.6755
  246MOL0     C32347   4.542   7.137   0.676 -0.3734 -0.4585  0.1882
  246MOL0     O32348   4.425   7.095   0.628  0.6298  0.4674  0.2456
  246MOL0     C32349   4.322   7.034   0.709  0.2244  0.9940 -0.8921
  246MOL0     C32350   4.216   7.001   0.611  0.3431  0.2348 -0.3548
  246MOL0     C32351   4.095   6.911   0.664 -0.1650 -0.4070 -0.4578
  246MOL0     C32352   3.993   6.872   0.560  0.2698  0.0436  0.5137
  246MOL0     C32353   3.857   6.848   0.627  0.1423  0.3271  0.7823
  246MOL0     C32354   3.748   6.816   0.513 -0.0465 -0.6570  0.5525
  246MOL0     C32355   3.612   6.809   0.570 -0.1742  0.1636 -0.5121
  246MOL0     C32356   3.505   6.774   0.465  0.2991  0.2341 -0.0032
  246MOL0     N32357   3.374   6.824   0.490 -0.3026  0.7060  0.1065
  246MOL0     C32358   3.319   6.930   0.420 -0.1528  0.4073 -0.1759
  246MOL0     C32359   3.201   6.953   0.486  0.5230 -0.1793  0.5015
  246MOL0     C32360   3.097   7.054   0.455 -1.0825  0.1041 -0.9561
  246MOL0     C32361   2.971   6.990   0.392  0.0122 -0.5742  0.8647
  246MOL0     C32362   2.866   7.108   0.394  0.2953  0.0546  0.0663
  246MOL0     C32363   2.741   7.076   0.319  0.7592  0.2975  0.2827
  246MOL0     O32364   2.648   7.189   0.335  0.0371  0.3012  0.7773
  246MOL0     C32365   2.515   7.149   0.351  0.2690 -1.1470  0.8921
  246MOL0     C32366   2.470   7.084   0.466 -0.2348 -0.2276 -0.7491
  246MOL0     C32367   2.329   7.066   0.493 -0.1796  0.1061 -0.2106
  246MOL0     C32368   2.232   7.108   0.397  0.2657 -0.0056 -0.1791
  246MOL0     C32369   2.087   7.097   0.427 -1.2841 -0.5648 -0.3339
  246MOL0     O32370   2.059   7.064   0.558 -0.1287  0.8412  0.6806
  246MOL0     C32371   1.928   7.037   0.596 -0.3812 -0.8922  0.0284
  246MOL0     C32372   1.925   6.956   0.710  0.4165  0.1831 -0.0513
  246MOL0     C32373   1.803   6.911   0.761  0.2031  0.1474 -0.6636
  246MOL0     C32374   1.688   6.969   0.711 -0.0026 -0.0988  0.5501
  246MOL0     O32375   1.578   6.940   0.784  0.2443  1.0412 -0.0092
  246MOL0     C32376   1.454   6.934   0.710 -0.5809  0.2601 -0.1305
  246MOL0     C32377   1.360   6.839   0.776  0.2601  0.4611 -0.3377
  246MOL0     C32378   1.220   6.849   0.709  0.8245 -0.0325 -0.4212
  246MOL0     C32379   1.120   6.747   0.772  0.2930  0.8861 -0.5562
  246MOL0     C32380   0.973   6.773   0.737 -0.2368  0.5939  0.2833
  246MOL0     C32381   0.879   6.660   0.781  0.3228  0.4671  0.7201
  246MOL0     C32382   0.759   6.670   0.687 -0.4499 -0.3324 -0.2207
  246MOL0     C32383   0.667   6.565   0.736  0.0272 -0.0508  0.8780
  246MOL0    Cl32384   0.528   6.554   0.616 -0.3087 -0.0442  0.8732
  246MOL0     C32385   1.688   7.064   0.605  0.5488  0.3860 -0.4859
  246MOL0     C32386   1.812   7.095   0.539  0.1603 -0.4841 -0.6814
  246MOL0     O32387   2.010   7.113   0.336  0.1081  0.4798 -0.0410
  246MOL0     C32388   2.282   7.156   0.278  0.1170 -0.5251 -1.4627
  246MOL0     C32389   2.418   7.185   0.252  0.0261 -0.2549  0.1496
  246MOL0     N32390   3.179   6.856   0.585 -0.3236  0.9756  0.2818
  246MOL0     N32391   3.290   6.787   0.591 -0.0119 -0.5336  0.2210
  246MOL0     C32392   4.635   7.200   0.587  0.3698 -0.2983  0.6809
  246MOL0     C32393   4.766   7.242   0.619  0.7338 -0.8111 -0.0029
  246MOL0     C32394   5.134   7.306   0.869  0.3052  0.2349  0.1253
  246MOL0     C32395   5.269   7.281   0.838 -0.3118 -0.5285 -0.0101
  246MOL0     C32396   5.369   7.337   0.913 -0.1239 -0.5014  0.0875
  246MOL0     C32397   5.344   7.414   1.032  0.6527 -0.8538  0.0949
  246MOL0     O32398   5.430   7.476   1.118 -0.0098  0.0671  0.5387
  246MOL0     C32399   5.569   7.484   1.072  0.4480 -0.1992 -0.1047
  246MOL0     C32400   5.592   7.598   0.971  0.2130  0.3455  0.1323
  246MOL0     C32401   5.544   7.736   1.020 -0.1782  0.0271  0.2092
  246MOL0     C32402   5.648   7.850   0.974  0.6693 -0.0630 -0.8093
  246MOL0     C32403   5.668   7.847   0.828  0.0616  0.5866 -0.2061
  246MOL0     C32404   5.678   7.818   0.710  0.1760 -0.1919  0.0527
  246MOL0     C32405   5.214   7.444   1.064  0.1313 -0.0950 -0.3001
  246MOL0     C32406   5.106   7.384   0.986 -0.2080  0.1422 -1.1864
  246MOL0     H32407   4.730   7.176   0.954  0.8178  2.5307 -0.5355
  246MOL0     H32408   4.526   7.074   0.880  0.8512 -0.9042 -0.8172
  246MOL0     H32409   4.295   7.106   0.787  0.5410  0.9092 -0.7026
  246MOL0     H32410   4.341   6.939   0.761 -2.6246 -0.6070 -2.4920
  246MOL0     H32411   4.270   6.940   0.539  2.3204  0.4197  0.9099
  246MOL0     H32412   4.184   7.093   0.561  0.4376  1.5595  1.8464
  246MOL0     H32413   4.045   6.955   0.750 -0.9506 -0.6248 -0.8013
  246MOL0     H32414   4.145   6.824   0.708  2.2997  0.8114 -0.6450
  246MOL0     H32415   3.973   6.945   0.482  0.3750  0.9767  1.3430
  246MOL0     H32416   4.025   6.777   0.517 -1.1543 -0.9775  1.5929
  246MOL0     H32417   3.814   6.939   0.670  2.0702  0.6670  2.1273
  246MOL0     H32418   3.868   6.765   0.697  1.3017  1.1213  1.5850
  246MOL0     H32419   3.784   6.733   0.453 -0.2898 -0.6736  0.4289
  246MOL0     H32420   3.761   6.901   0.445 -0.1084 -1.0125  0.0974
  246MOL0     H32421   3.604   6.728   0.642  1.6802  1.8018  1.6678
  246MOL0     H32422   3.595   6.899   0.628  0.1362  0.0561 -0.2498
  246MOL0     H32423   3.502   6.667   0.443  0.4639  0.3467 -0.6081
  246MOL0     H32424   3.544   6.814   0.371  1.2575 -0.9677 -0.1448
  246MOL0     H32425   3.355   6.979   0.331 -1.3138  0.2403 -0.7590
  246MOL0     H32426   3.140   7.137   0.397  0.4720  0.4548  0.6300
  246MOL0     H32427   3.070   7.098   0.551  2.5041 -0.3501  0.3907
  246MOL0     H32428   2.930   6.909   0.453 -2.8699  0.8521  1.0218
  246MOL0     H32429   2.994   6.950   0.293 -1.2095 -1.7206  1.0068
  246MOL0     H32430   2.837   7.127   0.498 -3.1802 -2.1969 -0.3337
  246MOL0     H32431   2.908   7.204   0.362 -1.3572  0.5977 -0.5267
  246MOL0     H32432   2.702   6.986   0.368  1.7491  0.2912  1.1055
  246MOL0     H32433   2.759   7.063   0.212  0.8742  0.6103  0.2610
  246MOL0     H32434   2.535   7.049   0.545  1.0930 -0.8171 -2.0369
  246MOL0     H32435   2.316   7.011   0.585  0.4934  1.4790  0.7305
  246MOL0     H32436   2.010   6.903   0.752 -0.7152 -1.6261  0.0752
  246MOL0     H32437   1.792   6.845   0.846  0.7875 -0.3137 -0.9469
  246MOL0     H32438   1.481   6.926   0.604 -0.9687  3.7764 -0.5964
  246MOL0     H32439   1.399   7.028   0.701  0.9962  1.0711 -2.4755
  246MOL0     H32440   1.365   6.851   0.885 -2.4523  2.1775 -0.2997
  246MOL0     H32441   1.410   6.743   0.767  1.0452  0.9032 -0.8078
  246MOL0     H32442   1.231   6.847   0.600  1.9818  2.6579 -0.4534
  246MOL0     H32443   1.186   6.950   0.733  0.2512 -0.3107 -0.0508
  246MOL0     H32444   1.152   6.650   0.734 -1.1096 -0.1944  0.9126
  246MOL0     H32445   1.140   6.732   0.878  4.5032 -4.1019 -1.6573
  246MOL0     H32446   0.967   6.774   0.628 -0.3965 -1.5231  0.2357
  246MOL0     H32447   0.933   6.869   0.772 -3.7837 -1.2504  1.8426
  246MOL0     H32448   0.845   6.682   0.882  0.3094  3.0314  0.2184
  246MOL0     H32449   0.925   6.561   0.772 -0.2039  0.3762 -2.2762
  246MOL0     H32450   0.714   6.770   0.690  0.5946  0.1423 -0.0674
  246MOL0     H32451   0.781   6.648   0.582 -1.2914 -0.6371 -0.3366
  246MOL0     H32452   0.627   6.602   0.831  1.3727  2.0354  0.6977
  246MOL0     H32453   0.719   6.469   0.746  0.5309  0.0405 -0.6503
  246MOL0     H32454   1.603   7.118   0.566  2.5365  2.4766 -2.2034
  246MOL0     H32455   1.808   7.162   0.454 -0.9800  2.1496  1.3101
  246MOL0     H32456   2.215   7.186   0.198 -0.3607 -1.0339 -1.2606
  246MOL0     H32457   2.437   7.220   0.150 -2.4249  4.0847  0.9400
  246MOL0     H32458   4.618   7.229   0.484  0.0613 -0.7092  0.6146
  246MOL0     H32459   4.834   7.281   0.545  0.9137  0.4792  0.8166
  246MOL0     H32460   5.297   7.216   0.755 -2.9743  2.0212 -3.2042
  246MOL0     H32461   5.474   7.332   0.885  0.5213 -0.4140  2.2398
  246MOL0     H32462   5.612   7.398   1.018 -0.0110 -0.3841 -0.1813
  246MOL0     H32463   5.632   7.490   1.161  2.0745  0.6803 -1.2728
  246MOL0     H32464   5.699   7.594   0.947 -0.1466 -0.4829 -1.4631
  246MOL0     H32465   5.523   7.582   0.887 -1.7271  2.9564  1.1073
  246MOL0     H32466   5.534   7.732   1.129 -0.7987  0.0370  0.1556
  246MOL0     H32467   5.441   7.754   0.986  0.6653  1.3493 -1.8303
  246MOL0     H32468   5.603   7.948   0.989  0.9605  0.0365 -0.6007
  246MOL0     H32469   5.733   7.855   1.042 -0.6650  0.3359  0.8939
  246MOL0     H32470   5.692   7.791   0.607 -0.8860 -0.9569  0.0894
  246MOL0     H32471   5.196   7.507   1.150 -0.1018  1.7458 -1.6475
  246MOL0     H32472   5.008   7.401   1.030  1.1318  2.4584  1.1890
  247MOL0     O32473   7.032   2.979   5.685  0.0169 -0.6499 -0.5545
  247MOL0     C32474   7.025   3.054   5.788  0.5637 -0.3398 -0.0392
  247MOL0     O32475   7.132   3.096   5.860  0.6670  0.3985 -0.6938
  247MOL0     C32476   7.263   3.057   5.821  0.1487  0.2950  0.3892
  247MOL0     C32477   7.289   2.918   5.808 -0.1273  0.2192 -0.0433
  247MOL0     C32478   7.421   2.890   5.787 -0.1926  0.5617 -0.7324
  247MOL0     C32479   7.531   2.977   5.778  0.6459 -0.6245 -0.6577
  247MOL0     O32480   7.651   2.905   5.767 -0.0123  0.5718 -0.5028
  247MOL0     C32481   7.776   2.978   5.739  0.4858  0.2715 -0.6942
  247MOL0     C32482   7.782   3.053   5.614  0.0815 -0.7085  0.0534
  247MOL0     C32483   7.930   3.092   5.599 -0.2385 -1.0621  0.0820
  247MOL0     C32484   7.964   3.102   5.446  1.1561  0.3638 -0.0808
  247MOL0     C32485   8.104   3.157   5.426  0.6383  0.1425  1.8299
  247MOL0     C32486   8.215   3.070   5.475 -0.7538  0.7346 -0.5494
  247MOL0     C32487   8.354   3.100   5.415  0.4473 -1.1913 -0.6668
  247MOL0     C32488   8.397   3.021   5.282 -0.1264 -0.9055  0.5839
  247MOL0     N32489   8.383   2.878   5.300 -0.5113 -0.2562 -0.0467
  247MOL0     C32490   8.319   2.812   5.207  0.2142  0.8232  0.4222
  247MOL0     C32491   8.361   2.687   5.228  0.7451  1.0352 -0.4643
  247MOL0     C32492   8.300   2.559   5.170  0.8775  0.7910  0.0115
  247MOL0     C32493   8.214   2.581   5.041  0.4348 -0.6892 -0.9549
  247MOL0     C32494   8.132   2.464   4.996 -0.0259  1.4159  0.1590
  247MOL0     C32495   8.029   2.516   4.895  0.0346  0.3698 -0.2026
  247MOL0     O32496   7.914   2.566   4.977  0.8516  0.6392  0.0191
  247MOL0     C32497   7.790   2.514   4.941 -0.2790 -0.7967 -0.6484
  247MOL0     C32498   7.766   2.431   4.833 -0.2044 -0.2147 -0.1665
  247MOL0     C32499   7.641   2.377   4.826 -0.1226  0.4741 -0.4199
  247MOL0     C32500   7.533   2.411   4.903  0.2566  0.6318 -1.3413
  247MOL0     C32501   7.399   2.342   4.896 -0.3213  0.4378  0.2078
  247MOL0     O32502   7.307   2.374   4.990 -0.4944 -0.0580 -0.1383
  247MOL0     C32503   7.184   2.317   4.991  0.2474  0.5737 -0.5438
  247MOL0     C32504   7.072   2.391   5.025 -0.3059 -1.3140 -0.0780
  247MOL0     C32505   6.940   2.332   5.037 -0.5593  0.6158 -0.3105
  247MOL0     C32506   6.927   2.188   5.044 -0.2674 -0.5346  0.1624
  247MOL0     O32507   6.805   2.131   5.063 -0.0171  0.6892 -0.5246
  247MOL0     C32508   6.791   1.998   5.100  0.0541  0.1606  0.5629
  247MOL0     C32509   6.647   1.953   5.141 -0.0477 -0.1487  0.1852
  247MOL0     C32510   6.580   2.043   5.233 -0.0104 -0.4242  1.1047
  247MOL0     C32511   6.482   1.975   5.323 -0.7945 -0.3924 -0.2737
  247MOL0     C32512   6.376   2.068   5.373 -0.1480 -0.1118 -0.1890
  247MOL0     C32513   6.274   1.992   5.453  0.6137 -0.3298  0.8423
  247MOL0     C32514   6.158   2.096   5.490 -0.7582  0.0064  0.7213
  247MOL0     C32515   6.052   2.032   5.587  0.1239 -0.1124 -0.7016
  247MOL0    Cl32516   5.972   1.893   5.508  0.4487 -0.8203 -0.3325
  247MOL0     C32517   7.046   2.118   5.035  0.2410  0.7736  0.9135
  247MOL0     C32518   7.170   2.177   5.006  0.1866  0.5382 -0.7273
  247MOL0     O32519   7.388   2.262   4.811 -0.0480 -0.0836 -0.1152
  247MOL0     C32520   7.560   2.504   5.005 -0.2262  0.3607  0.2720
  247MOL0     C32521   7.690   2.554   5.023 -0.3444 -0.3131  0.0374
  247MOL0     N32522   8.447   2.683   5.343 -0.0249  0.0058 -0.3720
  247MOL0     N32523   8.449   2.803   5.386 -0.2995 -0.1691 -0.0860
  247MOL0     C32524   7.498   3.117   5.796 -0.1300  0.2577 -0.1662
  247MOL0     C32525   7.360   3.157   5.824 -1.2703  0.3623  0.2074
  247MOL0     C32526   6.895   3.116   5.837 -0.2568  0.8510 -0.3602
  247MOL0     C32527   6.766   3.060   5.795  0.8270 -0.5264  0.1256
  247MOL0     C32528   6.652   3.102   5.850  0.4468  1.0430 -0.1895
  247MOL0     C32529   6.664   3.206   5.950 -0.1836 -0.3451  0.4542
  247MOL0     O32530   6.544   3.253   5.999 -0.2853 -0.6455  0.3979
  247MOL0     C32531   6.440   3.166   6.024  0.4184  0.3810 -0.6262
  247MOL0     C32532   6.310   3.230   6.066  0.5765 -0.8394 -1.3155
  247MOL0     C32533   6.335   3.337   6.172  0.2796 -0.2534  0.4133
  247MOL0     C32534   6.353   3.470   6.098  0.6493  0.0742 -0.2078
  247MOL0     C32535   6.228   3.527   6.036 -0.4633  0.4771  0.0494
  247MOL0     C32536   6.137   3.580   5.976 -0.1129 -0.5045 -0.1249
  247MOL0     C32537   6.785   3.266   5.987  0.4123  0.3357 -0.0604
  247MOL0     C32538   6.897   3.223   5.923  0.0335  0.1887  0.4422
  247MOL0     H32539   7.213   2.842   5.819 -0.7841  0.7098 -1.0584
  247MOL0     H32540   7.439   2.784   5.775  1.2994  0.7422 -0.3246
  247MOL0     H32541   7.863   2.911   5.737  0.6700  0.4017  1.4010
  247MOL0     H32542   7.791   3.050   5.819 -0.1125  0.9817 -1.2136
  247MOL0     H32543   7.719   3.142   5.625 -0.2465 -1.2028  2.6079
  247MOL0     H32544   7.749   3.001   5.523  0.3007 -1.7866  0.5760
  247MOL0     H32545   8.002   3.033   5.656 -0.2264  1.1308  2.5297
  247MOL0     H32546   7.946   3.194   5.634  0.4188 -1.0170 -0.3358
  247MOL0     H32547   7.957   3.000   5.406  2.7836 -0.2641  1.1171
  247MOL0     H32548   7.888   3.168   5.404  3.3140  2.2792 -1.1899
  247MOL0     H32549   8.115   3.260   5.460  1.9320  0.5222  0.3967
  247MOL0     H32550   8.118   3.190   5.322  2.6413  1.5528  2.4895
  247MOL0     H32551   8.196   2.964   5.457 -0.9137  0.5658  0.5377
  247MOL0     H32552   8.223   3.080   5.584  3.1320  0.8167 -0.7058
  247MOL0     H32553   8.359   3.206   5.391  0.1906 -1.3937 -1.6672
  247MOL0     H32554   8.429   3.088   5.494  0.9405 -0.3983 -1.0064
  247MOL0     H32555   8.498   3.046   5.250 -0.0936  0.3090  1.5609
  247MOL0     H32556   8.337   3.048   5.195  1.4069 -1.5030 -0.7000
  247MOL0     H32557   8.244   2.844   5.134  1.0383  0.6653 -0.5119
  247MOL0     H32558   8.242   2.507   5.247  1.4942  0.4660  0.2559
  247MOL0     H32559   8.384   2.490   5.161  2.8013  3.1644 -1.8004
  247MOL0     H32560   8.280   2.623   4.965  1.9472  1.6674  1.4505
  247MOL0     H32561   8.143   2.659   5.069  1.1100  0.2981 -1.9164
  247MOL0     H32562   8.194   2.387   4.950 -2.4217  1.4123 -3.4997
  247MOL0     H32563   8.074   2.422   5.079 -1.1018  0.2898 -1.1165
  247MOL0     H32564   8.008   2.444   4.815  0.6665  0.6210 -0.6056
  247MOL0     H32565   8.074   2.597   4.836  2.6025 -1.4980 -1.0298
  247MOL0     H32566   7.843   2.390   4.768  1.3486  0.7657  0.9762
  247MOL0     H32567   7.628   2.296   4.756 -2.5837 -1.1313  1.7375
  247MOL0     H32568   7.096   2.496   5.036 -0.5486 -1.1909 -0.7122
  247MOL0     H32569   6.848   2.389   5.044 -0.7761  0.4638 -1.6533
  247MOL0     H32570   6.859   1.973   5.182  0.7550 -3.3321 -0.9111
  247MOL0     H32571   6.820   1.937   5.014 -0.0693 -1.5863  1.7129
  247MOL0     H32572   6.667   1.863   5.200 -0.3048 -0.2366  0.1396
  247MOL0     H32573   6.586   1.905   5.064  0.0302 -1.7109  1.0556
  247MOL0     H32574   6.522   2.120   5.180  0.8583  1.2679  2.4976
  247MOL0     H32575   6.653   2.099   5.293  1.2590 -1.5653  0.6794
  247MOL0     H32576   6.433   1.894   5.267 -0.8936  0.7256 -1.8912
  247MOL0     H32577   6.543   1.932   5.402 -0.1289  1.5725  0.3313
  247MOL0     H32578   6.333   2.113   5.283 -0.7943 -2.0814 -0.9292
  247MOL0     H32579   6.420   2.149   5.432 -2.2417  0.7984  0.2183
  247MOL0     H32580   6.324   1.961   5.545  2.1645  2.2430  0.9561
  247MOL0     H32581   6.237   1.904   5.400 -0.6831  0.8930 -0.3655
  247MOL0     H32582   6.205   2.182   5.539  0.9785  1.1548 -2.6154
  247MOL0     H32583   6.100   2.119   5.400  0.2213 -2.5346 -0.6548
  247MOL0     H32584   5.975   2.101   5.622  0.1865 -0.2086 -0.3678
  247MOL0     H32585   6.101   2.017   5.684  1.3798  5.2474 -0.1662
  247MOL0     H32586   7.046   2.010   5.046  1.4217  0.0915 -3.5768
  247MOL0     H32587   7.254   2.110   4.988  0.9225  1.6932 -1.7312
  247MOL0     H32588   7.483   2.536   5.076 -1.9022  1.2953 -1.8449
  247MOL0     H32589   7.709   2.634   5.094  2.1369 -0.7689 -0.0012
  247MOL0     H32590   7.576   3.184   5.831 -1.1052  1.8164 -0.8597
  247MOL0     H32591   7.331   3.258   5.850 -3.3700  0.7769 -3.1330
  247MOL0     H32592   6.777   2.968   5.739  1.8792  0.0518 -0.6568
  247MOL0     H32593   6.568   3.036   5.827  0.5657  1.0292 -0.5843
  247MOL0     H32594   6.477   3.102   6.105 -0.9066  3.8195  3.0540
  247MOL0     H32595   6.412   3.109   5.935  0.7847  0.6402 -0.9094
  247MOL0     H32596   6.245   3.262   5.984 -0.8783  0.4634  0.2527
  247MOL0     H32597   6.260   3.145   6.113  1.4261 -0.7167 -0.1405
  247MOL0     H32598   6.421   3.307   6.232 -1.2526 -1.2339  2.1935
  247MOL0     H32599   6.250   3.334   6.241  0.0799 -3.2096  0.1465
  247MOL0     H32600   6.392   3.539   6.173  2.0689 -1.4608  0.5396
  247MOL0     H32601   6.424   3.466   6.016  0.5272 -0.5843 -0.2889
  247MOL0     H32602   6.054   3.633   5.934 -0.6960 -0.8357  0.5910
  247MOL0     H32603   6.777   3.334   6.071 -1.6115 -0.7050  0.6344
  247MOL0     H32604   6.993   3.265   5.950  0.1900  0.2533 -0.2182
  248MOL0     O32605   8.775   6.395   3.373  0.2275  0.4679 -0.1335
  248MOL0     C32606   8.878   6.372   3.311  0.6195 -0.0756 -0.0240
  248MOL0     O32607   8.900   6.411   3.179 -0.2223  1.0726 -0.7145
  248MOL0     C32608   8.804   6.490   3.131  0.1024  0.1724  0.2667
  248MOL0     C32609   8.719   6.435   3.029  1.0780 -0.5781  0.3740
  248MOL0     C32610   8.649   6.522   2.950 -0.1648  0.1218  0.5886
  248MOL0     C32611   8.639   6.658   2.982  0.5039  0.3102 -0.0803
  248MOL0     O32612   8.540   6.730   2.917 -0.4949 -0.5734 -0.7795
  248MOL0     C32613   8.525   6.871   2.936  0.0991  0.3125 -0.1414
  248MOL0     C32614   8.434   6.891   3.062  0.1723  0.6910 -0.4370
  248MOL0     C32615   8.283   6.893   3.036 -0.4086 -1.2231 -0.3532
  248MOL0     C32616   8.190   6.940   3.160  0.0086  0.3126  0.2351
  248MOL0     C32617   8.044   6.933   3.124  0.1926  0.0993 -0.0472
  248MOL0     C32618   7.996   7.062   3.051  0.2722  0.4307 -0.8720
  248MOL0     C32619   7.845   7.065   3.065 -0.3766 -0.4891 -0.1212
  248MOL0     C32620   7.783   7.177   2.987 -0.1884  0.4917 -0.8578
  248MOL0     N32621   7.642   7.189   3.015  0.2712  0.0433 -0.4197
  248MOL0     C32622   7.546   7.150   2.940 -0.0770  0.1618  0.6177
  248MOL0     C32623   7.433   7.180   3.010  0.2512  0.7519  0.4675
  248MOL0     C32624   7.295   7.151   2.970 -0.5798  0.5208  0.2443
  248MOL0     C32625   7.242   7.018   3.010  0.1804  0.1330  0.5911
  248MOL0     C32626   7.220   7.022   3.165 -1.2057  0.4291  0.7104
  248MOL0     C32627   7.122   6.910   3.223 -0.5666  0.1893  0.1841
  248MOL0     O32628   6.999   6.925   3.158  0.7426 -0.1118 -0.5356
  248MOL0     C32629   6.882   6.864   3.199  0.5655 -0.1954 -0.7101
  248MOL0     C32630   6.759   6.898   3.145  0.9340 -0.6254  0.0343
  248MOL0     C32631   6.636   6.838   3.181 -0.6104  0.5777  0.3821
  248MOL0     C32632   6.636   6.735   3.276  0.0039  0.4135 -0.7607
  248MOL0     C32633   6.511   6.678   3.324  0.7115 -0.0540  0.3329
  248MOL0     O32634   6.392   6.750   3.301 -0.4894  0.0642  0.1462
  248MOL0     C32635   6.288   6.675   3.339  0.1666  0.2790  0.0329
  248MOL0     C32636   6.238   6.567   3.264 -0.2042 -0.4763  0.8300
  248MOL0     C32637   6.141   6.475   3.301 -0.2836  0.3805 -0.4692
  248MOL0     C32638   6.077   6.497   3.429  0.6162  0.0879  0.2408
  248MOL0     O32639   5.982   6.416   3.479  0.8029  0.1027 -0.1622
  248MOL0     C32640   5.947   6.285   3.440 -0.0158  0.0625 -0.1674
  248MOL0     C32641   5.858   6.225   3.551  1.1468 -0.8737  0.2334
  248MOL0     C32642   5.817   6.086   3.518  0.2218  0.7750  0.0856
  248MOL0     C32643   5.722   6.042   3.635 -0.1337  1.2825 -0.5457
  248MOL0     C32644   5.661   5.904   3.605  0.3035 -0.1309 -0.3791
  248MOL0     C32645   5.548   5.879   3.706  0.3719  0.0674  0.2496
  248MOL0     C32646   5.470   5.754   3.651  0.5807  0.1080 -0.7132
  248MOL0     C32647   5.357   5.720   3.751  0.6242 -0.0353  0.0535
  248MOL0    Cl32648   5.257   5.862   3.790  0.0978  0.2781 -0.2479
  248MOL0     C32649   6.124   6.606   3.505 -0.1696  0.4387  0.4067
  248MOL0     C32650   6.233   6.686   3.466 -0.1861 -0.2497 -0.2201
  248MOL0     O32651   6.510   6.568   3.380 -0.0375 -0.1594 -0.2421
  248MOL0     C32652   6.758   6.681   3.316 -0.3222 -0.3572 -0.8949
  248MOL0     C32653   6.877   6.748   3.287 -0.1105  0.2803  0.1546
  248MOL0     N32654   7.470   7.243   3.128  0.3857 -1.0590  0.3553
  248MOL0     N32655   7.595   7.251   3.125  0.2416  0.6578  0.1094
  248MOL0     C32656   8.708   6.707   3.095  0.2870 -0.4244  0.6399
  248MOL0     C32657   8.794   6.629   3.169 -0.2846  0.3459 -0.0923
  248MOL0     C32658   8.991   6.323   3.404  0.4257  0.8103  0.6811
  248MOL0     C32659   8.968   6.274   3.529 -0.7249 -0.2433 -0.0642
  248MOL0     C32660   9.080   6.252   3.610 -0.1320  0.4429  0.0273
  248MOL0     C32661   9.213   6.269   3.567 -0.0907  0.3919  0.0041
  248MOL0     O32662   9.328   6.231   3.625 -0.1775 -0.3666 -0.2984
  248MOL0     C32663   9.352   6.234   3.768 -0.3495  0.0471 -0.2123
  248MOL0     C32664   9.391   6.376   3.820  1.0934  0.3463  0.3863
  248MOL0     C32665   9.372   6.385   3.973  0.7776 -0.4909  0.6536
  248MOL0     C32666   9.459   6.302   4.056 -0.3219 -1.0444 -0.4052
  248MOL0     C32667   9.423   6.315   4.196  0.3525  0.8751 -0.3609
  248MOL0     C32668   9.376   6.352   4.307  0.1174  0.6940 -0.0592
  248MOL0     C32669   9.228   6.295   3.430 -0.6506  0.2535 -0.0348
  248MOL0     C32670   9.123   6.328   3.353 -0.8532  0.5068 -0.0804
  248MOL0     H32671   8.731   6.334   2.992 -0.0625 -0.9411  0.9295
  248MOL0     H32672   8.586   6.505   2.863 -2.9814 -1.6545  2.8132
  248MOL0     H32673   8.479   6.915   2.847 -1.2263 -1.6810 -0.5288
  248MOL0     H32674   8.617   6.927   2.955  0.0993  0.4853 -0.6390
  248MOL0     H32675   8.466   6.988   3.100  0.0635  1.3578 -1.9984
  248MOL0     H32676   8.452   6.820   3.144 -2.1472  0.1599 -0.3343
  248MOL0     H32677   8.269   6.788   3.009  2.1402 -1.5545 -0.5898
  248MOL0     H32678   8.258   6.968   2.960 -3.5200  0.0376  1.6779
  248MOL0     H32679   8.199   6.879   3.251  1.4136  0.8863  0.5083
  248MOL0     H32680   8.222   7.040   3.191  2.5774 -0.3443 -0.1020
  248MOL0     H32681   7.994   6.916   3.220  2.6179  0.6126  1.4138
  248MOL0     H32682   8.024   6.855   3.051  2.4433 -1.4794  0.8880
  248MOL0     H32683   8.015   7.066   2.943  1.6399 -0.4773 -0.7055
  248MOL0     H32684   8.042   7.153   3.090 -0.5616  1.0275 -1.2544
  248MOL0     H32685   7.811   6.965   3.038  1.0968 -0.5151 -2.2083
  248MOL0     H32686   7.819   7.095   3.167 -1.1588 -0.9192 -0.1969
  248MOL0     H32687   7.807   7.163   2.882  1.0568 -0.8392 -0.4363
  248MOL0     H32688   7.847   7.261   3.014  0.3682  0.1661 -1.1477
  248MOL0     H32689   7.556   7.101   2.843  1.2332  0.8095  0.4106
  248MOL0     H32690   7.281   7.145   2.861 -4.1161  0.0439  0.6109
  248MOL0     H32691   7.223   7.229   2.996 -1.6033 -0.2399 -0.2024
  248MOL0     H32692   7.306   6.942   2.964  3.3272  2.3547  0.9690
  248MOL0     H32693   7.139   7.009   2.973 -0.6945 -0.3364  2.9473
  248MOL0     H32694   7.313   7.013   3.221  0.1531 -0.3483 -1.5537
  248MOL0     H32695   7.173   7.117   3.193 -0.2757  0.1919  3.3338
  248MOL0     H32696   7.106   6.919   3.331  1.6203  2.4770  0.3989
  248MOL0     H32697   7.170   6.815   3.197 -1.2887  0.1614 -1.1424
  248MOL0     H32698   6.758   6.978   3.072 -0.8592 -0.9860 -0.3713
  248MOL0     H32699   6.542   6.870   3.138 -0.9722  0.0093  0.7459
  248MOL0     H32700   6.288   6.548   3.169 -0.5151 -1.2903  0.8241
  248MOL0     H32701   6.114   6.407   3.222  1.6834  1.8801 -2.5852
  248MOL0     H32702   6.033   6.219   3.422 -0.8599 -1.5337  1.3610
  248MOL0     H32703   5.888   6.283   3.348 -0.8242  2.2391  0.2489
  248MOL0     H32704   5.766   6.285   3.551  1.1937 -0.6997 -1.8954
  248MOL0     H32705   5.914   6.238   3.644  1.7227  2.2740 -0.4166
  248MOL0     H32706   5.897   6.015   3.495  0.3102  0.9254 -0.0708
  248MOL0     H32707   5.753   6.090   3.430  0.4601 -2.7650 -0.3859
  248MOL0     H32708   5.777   6.048   3.730 -0.6788 -1.3337  0.0016
  248MOL0     H32709   5.636   6.110   3.640  0.7520  2.3636  0.5683
  248MOL0     H32710   5.744   5.834   3.619  1.0063  0.7520 -0.0124
  248MOL0     H32711   5.610   5.908   3.508  0.5599  0.0876 -0.5038
  248MOL0     H32712   5.488   5.970   3.713  0.5985  0.2175  0.2432
  248MOL0     H32713   5.593   5.857   3.803 -0.6941  1.0954  1.0077
  248MOL0     H32714   5.422   5.785   3.558  1.4432  0.3265 -1.0980
  248MOL0     H32715   5.530   5.664   3.638 -1.9140 -2.1071  1.9193
  248MOL0     H32716   5.390   5.683   3.848  0.0501  2.9510  1.5339
  248MOL0     H32717   5.282   5.658   3.702 -1.0374  2.5705 -0.9177
  248MOL0     H32718   6.083   6.634   3.602  0.4156  3.3676 -0.0895
  248MOL0     H32719   6.271   6.763   3.532  0.5261 -2.1835  1.7509
  248MOL0     H32720   6.771   6.597   3.384  2.5864  0.9260  0.2996
  248MOL0     H32721   6.977   6.709   3.301  0.4746  0.0091 -3.5994
  248MOL0     H32722   8.697   6.810   3.126  2.1316  0.2031 -0.6541
  248MOL0     H32723   8.843   6.677   3.253  2.1836 -0.3284 -1.0525
  248MOL0     H32724   8.872   6.269   3.579  0.4764 -0.2722  2.4414
  248MOL0     H32725   9.049   6.226   3.710  0.4782  1.6020  0.5372
  248MOL0     H32726   9.435   6.165   3.785 -0.7234 -1.4374 -3.7075
  248MOL0     H32727   9.267   6.197   3.827 -0.9274  0.3618 -0.8402
  248MOL0     H32728   9.498   6.389   3.797  1.1072  0.0689  0.2906
  248MOL0     H32729   9.330   6.453   3.773 -0.0979 -0.3746  0.7178
  248MOL0     H32730   9.270   6.346   3.986  0.6915 -0.4339  0.1776
  248MOL0     H32731   9.392   6.489   4.000 -0.1777 -0.8043  2.7310
  248MOL0     H32732   9.461   6.197   4.026  2.9577 -1.5959  1.1928
  248MOL0     H32733   9.562   6.336   4.043  0.2822 -3.0582 -1.3905
  248MOL0     H32734   9.323   6.367   4.398  0.9557 -1.4979  0.8682
  248MOL0     H32735   9.323   6.292   3.377  0.4662 -0.7737  1.9207
  248MOL0     H32736   9.143   6.353   3.250 -1.8304  0.4151 -0.2971
  249MOL0     O32737   0.557  10.397   7.707 -0.3060 -0.5673 -0.7640
  249MOL0     C32738   0.446  10.440   7.676 -0.3187 -0.7747  0.4543
  249MOL0     O32739   0.422  10.561   7.610  0.2999  0.3773 -0.2736
  249MOL0     C32740   0.518  10.619   7.534 -0.7384 -0.7085 -1.0741
  249MOL0     C32741   0.606  10.705   7.604  0.4263 -0.0512  0.0790
  249MOL0     C32742   0.728  10.754   7.548  0.4027  0.2430  0.0504
  249MOL0     C32743   0.756  10.726   7.413 -1.1791  0.6111 -0.7453
  249MOL0     O32744   0.868  10.788   7.363 -0.4360  0.6728  0.0520
  249MOL0     C32745   0.937  10.739   7.244 -0.2231 -0.2391 -0.3556
  249MOL0     C32746   1.049  10.836   7.193  0.6900  0.1600  0.5883
  249MOL0     C32747   1.148  10.876   7.289 -0.9254 -0.3355  0.2368
  249MOL0     C32748   1.259  10.981   7.247 -0.0664  0.5937 -0.2455
  249MOL0     C32749   1.338  11.046   7.368  0.0838  0.9222  0.2378
  249MOL0     C32750   1.244  11.141   7.447 -0.1661 -1.0441 -0.0358
  249MOL0     C32751   1.327  11.182   7.574  0.3539 -0.6549 -0.1330
  249MOL0     C32752   1.239  11.234   7.684 -0.8408 -0.2902  0.2268
  249MOL0     N32753   1.234  11.381   7.691 -0.2505 -0.1808  0.1309
  249MOL0     C32754   1.351  11.461   7.706 -0.4687  0.5137  0.2736
  249MOL0     C32755   1.303  11.590   7.669 -0.5062 -0.3005  0.4937
  249MOL0     C32756   1.386  11.719   7.663 -0.0704  0.6085 -0.7316
  249MOL0     C32757   1.454  11.772   7.792 -0.6901  0.3039 -0.3936
  249MOL0     C32758   1.364  11.836   7.890 -0.9201  0.8811 -0.2438
  249MOL0     C32759   1.236  11.758   7.922  0.4029 -0.1395 -0.0009
  249MOL0     O32760   1.186  11.806   8.049  0.0203 -0.4563  0.2447
  249MOL0     C32761   1.052  11.826   8.059  0.3482  0.3321 -0.1378
  249MOL0     C32762   0.996  11.937   8.131 -0.4336 -0.1190 -0.0616
  249MOL0     C32763   0.862  11.947   8.147  0.1530 -0.1777  0.0734
  249MOL0     C32764   0.781  11.828   8.125  0.3917 -0.4496  0.1201
  249MOL0     C32765   0.631  11.824   8.164 -0.1317 -0.2680  0.3309
  249MOL0     O32766   0.564  11.714   8.130 -0.0019 -0.2447  0.6436
  249MOL0     C32767   0.431  11.696   8.165 -0.7136  0.3952 -0.0653
  249MOL0     C32768   0.346  11.647   8.060  0.5010  0.2086 -0.5115
  249MOL0     C32769   0.198  11.641   8.085  0.6584  0.4947  0.2231
  249MOL0     C32770   0.153  11.667   8.216 -0.4200 -0.0977 -1.3522
  249MOL0     O32771   0.023  11.677   8.263 -0.5537  0.2150  0.9059
  249MOL0     C32772  -0.028  11.809   8.280  0.1036 -0.8536  0.4411
  249MOL0     C32773  -0.159  11.801   8.356 -0.6299  0.0509 -0.7375
  249MOL0     C32774  -0.264  11.909   8.320 -0.8586  0.2532 -0.0137
  249MOL0     C32775  -0.399  11.879   8.387  0.4225  0.4719  0.3834
  249MOL0     C32776  -0.477  11.808   8.274  0.3819  0.4904 -0.0653
  249MOL0     C32777  -0.617  11.780   8.327 -0.6685  0.5472  0.7467
  249MOL0     C32778  -0.715  11.697   8.244 -0.0474 -0.3160 -0.6188
  249MOL0     C32779  -0.852  11.693   8.299 -0.2741 -0.3266  0.0590
  249MOL0    Cl32780  -0.851  11.653   8.472  0.1213 -0.1815  0.1599
  249MOL0     C32781   0.252  11.685   8.324 -0.6439 -0.5527  0.4699
  249MOL0     C32782   0.387  11.703   8.303  0.4149  0.3261  0.1717
  249MOL0     O32783   0.578  11.929   8.205  0.1147  0.5085 -0.1257
  249MOL0     C32784   0.839  11.718   8.060  1.0551 -0.3051  0.0906
  249MOL0     C32785   0.972  11.715   8.024  0.4659 -0.5250 -0.2329
  249MOL0     N32786   1.168  11.581   7.641  0.4619  0.5605  0.0681
  249MOL0     N32787   1.122  11.462   7.671  0.3555  0.3074  0.8826
  249MOL0     C32788   0.672  10.640   7.338  0.3817 -1.0197 -0.3928
  249MOL0     C32789   0.553  10.593   7.402  0.0651 -0.0919  0.3740
  249MOL0     C32790   0.329  10.367   7.726  1.0032  0.9511  1.3194
  249MOL0     C32791   0.339  10.274   7.836  0.2191  0.2231  0.7285
  249MOL0     C32792   0.225  10.205   7.885 -0.0594  0.1055  0.0977
  249MOL0     C32793   0.098  10.238   7.832 -0.6416  0.7673  0.4274
  249MOL0     O32794   0.001  10.162   7.891  0.2862 -0.2577  0.0565
  249MOL0     C32795  -0.130  10.160   7.838 -0.1772  0.1852  0.2271
  249MOL0     C32796  -0.232  10.058   7.896  1.3787 -0.4894 -0.3890
  249MOL0     C32797  -0.368  10.099   7.841  0.1719  0.0820  0.4563
  249MOL0     C32798  -0.482  10.034   7.915  0.5314 -0.1811  0.4409
  249MOL0     C32799  -0.608  10.044   7.844 -0.1776  0.3763 -0.6742
  249MOL0     C32800  -0.710  10.038   7.775 -0.1632  0.1853  0.4570
  249MOL0     C32801   0.088  10.325   7.724  0.7907  0.4802 -0.3610
  249MOL0     C32802   0.200  10.394   7.672  0.6597 -0.2557  0.0199
  249MOL0     H32803   0.590  10.731   7.709  1.0675 -0.0330  0.1751
  249MOL0     H32804   0.806  10.808   7.601  0.4714  0.4363 -0.2448
  249MOL0     H32805   0.862  10.721   7.168  1.7297 -0.5624 -2.3037
  249MOL0     H32806   0.986  10.644   7.270  1.8259  1.6792  3.8456
  249MOL0     H32807   0.998  10.921   7.145  0.4880  0.6890  1.7120
  249MOL0     H32808   1.092  10.782   7.108 -0.1639 -0.7258  0.7037
  249MOL0     H32809   1.198  10.788   7.332 -1.6772 -1.8544 -1.8384
  249MOL0     H32810   1.089  10.924   7.368 -0.2112 -2.8987  2.5182
  249MOL0     H32811   1.327  10.925   7.183  1.8833  0.9680  1.3801
  249MOL0     H32812   1.197  11.042   7.181 -1.8674 -2.3202 -1.4608
  249MOL0     H32813   1.428  11.101   7.340  0.7077 -0.6768 -1.1164
  249MOL0     H32814   1.376  10.965   7.431  0.9492  1.3717  0.3118
  249MOL0     H32815   1.152  11.093   7.481 -0.4543  0.3015  1.1859
  249MOL0     H32816   1.220  11.228   7.386 -0.0221 -1.3976 -0.6068
  249MOL0     H32817   1.376  11.097   7.623  0.1978 -0.6202  0.0809
  249MOL0     H32818   1.398  11.261   7.548  0.2983 -0.2154  0.9825
  249MOL0     H32819   1.275  11.194   7.779 -0.3237 -1.6075 -0.4974
  249MOL0     H32820   1.138  11.192   7.686 -1.5987  1.3748  3.0437
  249MOL0     H32821   1.455  11.442   7.732 -0.1346  3.6761  1.8257
  249MOL0     H32822   1.318  11.796   7.625  2.1517  2.1520 -1.8024
  249MOL0     H32823   1.465  11.703   7.589  0.4445  0.2530 -0.1176
  249MOL0     H32824   1.517  11.853   7.755 -0.4976  0.6100  0.5764
  249MOL0     H32825   1.527  11.698   7.824  0.2250  0.3038 -2.3839
  249MOL0     H32826   1.431  11.845   7.976  0.4702  1.3428 -1.3335
  249MOL0     H32827   1.343  11.939   7.860 -1.8455  0.5490 -0.7613
  249MOL0     H32828   1.258  11.652   7.940 -0.3975  0.2442  4.0865
  249MOL0     H32829   1.171  11.764   7.834  1.9362 -1.1164 -1.2674
  249MOL0     H32830   1.058  12.009   8.183 -2.6855 -0.4722  3.4035
  249MOL0     H32831   0.815  12.036   8.188 -2.2850 -0.7950 -1.1533
  249MOL0     H32832   0.371  11.628   7.957 -1.2181 -0.0723 -0.9147
  249MOL0     H32833   0.150  11.627   7.989  3.1901 -3.6365 -0.7117
  249MOL0     H32834  -0.046  11.860   8.185 -2.0661 -3.2901 -0.5819
  249MOL0     H32835   0.038  11.879   8.332  0.4203  0.0154 -1.0657
  249MOL0     H32836  -0.144  11.805   8.465 -1.8701 -2.3368 -0.4155
  249MOL0     H32837  -0.210  11.706   8.338  0.2425 -0.0812 -2.7286
  249MOL0     H32838  -0.274  11.918   8.211 -1.5698  0.7873  0.0862
  249MOL0     H32839  -0.219  12.007   8.337 -1.2041  0.7940 -1.9655
  249MOL0     H32840  -0.382  11.811   8.471 -1.5960 -2.4620 -1.4060
  249MOL0     H32841  -0.440  11.973   8.425  1.8088  2.1891 -2.0461
  249MOL0     H32842  -0.421  11.716   8.254 -0.9581 -0.3495 -0.0450
  249MOL0     H32843  -0.480  11.860   8.178 -3.4658 -1.5177 -1.2247
  249MOL0     H32844  -0.671  11.875   8.332 -2.2828 -0.3354  0.8549
  249MOL0     H32845  -0.604  11.736   8.426 -1.5803 -3.7196 -0.8266
  249MOL0     H32846  -0.725  11.747   8.147 -0.6993  2.0752  0.5950
  249MOL0     H32847  -0.672  11.598   8.225  0.1463 -0.7762  1.9291
  249MOL0     H32848  -0.915  11.631   8.234 -2.7091  4.6657 -2.9164
  249MOL0     H32849  -0.892  11.794   8.295  0.9413  0.2544  1.5493
  249MOL0     H32850   0.223  11.695   8.429 -4.5195 -1.1172 -0.3781
  249MOL0     H32851   0.458  11.722   8.382  3.1659 -3.7376 -1.0029
  249MOL0     H32852   0.783  11.627   8.039  0.3815 -0.0331  0.6735
  249MOL0     H32853   1.008  11.630   7.968 -0.1280  0.1210 -1.6659
  249MOL0     H32854   0.699  10.602   7.241 -3.2779 -0.4017 -1.8119
  249MOL0     H32855   0.485  10.519   7.360 -0.3373  0.6770 -0.3745
  249MOL0     H32856   0.425  10.248   7.898  0.9543  2.1910  0.6055
  249MOL0     H32857   0.243  10.136   7.966  0.5379  0.7836  0.5648
  249MOL0     H32858  -0.131  10.138   7.731 -1.4736 -0.2041  0.2963
  249MOL0     H32859  -0.167  10.262   7.856  2.4646  1.4334 -0.8794
  249MOL0     H32860  -0.196   9.960   7.862  1.0806 -1.3319  1.5719
  249MOL0     H32861  -0.228  10.064   8.005  1.4017 -0.6810 -0.3786
  249MOL0     H32862  -0.363  10.054   7.742 -1.1042 -5.7777  2.6686
  249MOL0     H32863  -0.374  10.208   7.838 -4.4105  0.0696  1.4510
  249MOL0     H32864  -0.463   9.926   7.915 -1.7644 -0.6333 -0.2446
  249MOL0     H32865  -0.482  10.074   8.017  0.1412  0.3301  0.2454
  249MOL0     H32866  -0.796  10.044   7.712 -0.0813  2.5514  0.5087
  249MOL0     H32867  -0.010  10.350   7.685  0.3356 -1.2592 -0.3875
  249MOL0     H32868   0.204  10.465   7.590  3.2228 -1.5219 -1.0740
  250MOL0     O32869   2.668   9.920  10.131  0.5522 -0.3146 -0.6028
  250MOL0     C32870   2.726  10.009  10.199 -0.6640  0.5994  0.0526
  250MOL0     O32871   2.683  10.074  10.311 -0.7024  0.5048  0.0704
  250MOL0     C32872   2.550  10.062  10.341 -0.2094  0.3177  0.7814
  250MOL0     C32873   2.511  10.074  10.477 -0.0039  0.6068  0.8370
  250MOL0     C32874   2.371  10.074  10.514 -0.8262  0.1120  0.2679
  250MOL0     C32875   2.267  10.061  10.414 -0.5679 -0.4975  0.3853
  250MOL0     O32876   2.137  10.058  10.450  0.5532  0.8710  0.0211
  250MOL0     C32877   2.033  10.062  10.349  0.0298 -0.0954  0.5442
  250MOL0     C32878   1.898  10.055  10.401  0.6955  1.1744  0.1253
  250MOL0     C32879   1.804  10.034  10.277  0.1981  0.9169 -0.7751
  250MOL0     C32880   1.663   9.980  10.324 -0.1097  0.7007  0.4977
  250MOL0     C32881   1.575   9.976  10.196 -0.3370  0.3230 -0.4601
  250MOL0     C32882   1.516  10.117  10.165 -0.0296 -0.4142  0.2930
  250MOL0     C32883   1.460  10.120  10.023 -0.8305 -0.7230 -0.4783
  250MOL0     C32884   1.333  10.044  10.019  0.3534  0.3464  0.0862
  250MOL0     N32885   1.221  10.079  10.119 -0.4025 -0.2052 -0.3994
  250MOL0     C32886   1.127  10.174  10.085 -0.3987  0.3440 -0.4409
  250MOL0     C32887   1.037  10.165  10.184 -1.0173  0.0917 -0.0300
  250MOL0     C32888   0.916  10.250  10.202 -0.7234 -0.7642  0.7471
  250MOL0     C32889   0.784  10.162  10.184 -0.3143  0.4426 -0.0614
  250MOL0     C32890   0.774  10.035  10.277  0.5340  0.0839  0.4395
  250MOL0     C32891   0.642   9.977  10.321  0.0397 -0.5147  0.4839
  250MOL0     O32892   0.567  10.060  10.412  0.0986  0.3340 -0.2417
  250MOL0     C32893   0.439  10.022  10.438  0.2323 -0.0555  0.0886
  250MOL0     C32894   0.377   9.905  10.404 -0.0097  1.8152 -0.0084
  250MOL0     C32895   0.240   9.873  10.418 -1.8109 -0.0271  0.0906
  250MOL0     C32896   0.165   9.961  10.501  0.8271 -0.2485 -0.2285
  250MOL0     C32897   0.019   9.929  10.509  0.0113  0.1676  0.1041
  250MOL0     O32898  -0.037   9.896  10.397 -0.6636  0.5334  0.5664
  250MOL0     C32899  -0.171   9.879  10.396 -0.9466 -0.6674  0.3416
  250MOL0     C32900  -0.256   9.991  10.381 -1.1384 -0.1240 -0.1430
  250MOL0     C32901  -0.392   9.979  10.370  0.1014  0.0361 -0.1003
  250MOL0     C32902  -0.453   9.858  10.398 -0.0612  0.3679 -0.4375
  250MOL0     O32903  -0.590   9.846  10.395 -0.5375 -0.0637 -0.0628
  250MOL0     C32904  -0.633   9.777  10.273  0.6445  0.2086 -0.7529
  250MOL0     C32905  -0.789   9.816  10.247 -0.2426 -0.0327  0.2139
  250MOL0     C32906  -0.818   9.810  10.099 -0.4642  0.7507  0.0794
  250MOL0     C32907  -0.970   9.804  10.068 -0.6440 -0.5518  0.3631
  250MOL0     C32908  -0.993   9.794   9.916  0.3419  0.2993  0.3001
  250MOL0     C32909  -1.134   9.777   9.870  0.5290 -0.1886  0.7613
  250MOL0     C32910  -1.194   9.914   9.847  0.1816  0.7573  0.0327
  250MOL0     C32911  -1.339   9.933   9.907 -0.0604  0.4136  1.1929
  250MOL0    Cl32912  -1.467   9.855   9.820  0.0395 -0.1863  0.1336
  250MOL0     C32913  -0.375   9.748  10.420 -0.3433 -1.1770 -0.2260
  250MOL0     C32914  -0.234   9.752  10.406 -0.0335 -0.6572  0.0745
  250MOL0     O32915  -0.042   9.938  10.613  0.1218 -0.4791  0.2310
  250MOL0     C32916   0.231  10.071  10.568 -0.3422 -0.8218 -0.1214
  250MOL0     C32917   0.364  10.103  10.531  1.0433  0.8838 -0.0553
  250MOL0     N32918   1.067  10.059  10.266 -0.2821  0.6692  0.2112
  250MOL0     N32919   1.184  10.014  10.234  0.3218  0.7300  0.5511
  250MOL0     C32920   2.311  10.053  10.281 -0.8850 -0.3987  1.0446
  250MOL0     C32921   2.452  10.051  10.245  0.8517 -1.2693  0.4080
  250MOL0     C32922   2.860  10.053  10.160 -0.0755  0.1983 -0.8283
  250MOL0     C32923   2.918  10.004  10.043 -0.0239  0.4907 -0.1133
  250MOL0     C32924   3.047  10.043  10.009 -0.3689 -0.1362 -1.0785
  250MOL0     C32925   3.126  10.109  10.100  0.4743 -0.3198  0.2627
  250MOL0     O32926   3.266  10.088  10.083 -0.7287  0.4762 -0.0422
  250MOL0     C32927   3.336  10.046  10.195 -0.1012  0.6966 -0.1758
  250MOL0     C32928   3.470   9.980  10.148  0.5253 -0.8507  0.2467
  250MOL0     C32929   3.552   9.917  10.259 -0.2541  0.4614  0.6218
  250MOL0     C32930   3.699   9.872  10.222 -0.5794 -0.0930  0.8535
  250MOL0     C32931   3.691   9.760  10.127  0.1241 -0.1536  0.1931
  250MOL0     C32932   3.699   9.663  10.051  1.1068 -1.1622 -0.4713
  250MOL0     C32933   3.068  10.150  10.223 -0.5008  0.1892  0.4302
  250MOL0     C32934   2.937  10.127  10.248  0.8277 -0.4716  0.4121
  250MOL0     H32935   2.593  10.096  10.545  2.3298 -0.6641 -1.3804
  250MOL0     H32936   2.345  10.081  10.619 -0.9757 -0.4117  0.2673
  250MOL0     H32937   2.049   9.976  10.284  1.7106 -0.4041  1.3272
  250MOL0     H32938   2.043  10.151  10.285  3.1776 -2.0095 -1.9440
  250MOL0     H32939   1.862  10.136  10.464  0.9439  2.2529 -1.0702
  250MOL0     H32940   1.893   9.960  10.455 -0.9051  0.0694 -1.8009
  250MOL0     H32941   1.853   9.961  10.211 -0.4685 -1.8135  1.5805
  250MOL0     H32942   1.790  10.131  10.228 -2.5827  1.8285  1.5365
  250MOL0     H32943   1.671   9.880  10.365 -1.0172  0.0477 -0.8283
  250MOL0     H32944   1.620  10.056  10.390 -0.5274  1.2907 -0.4239
  250MOL0     H32945   1.497   9.901  10.212  1.6734 -1.9848 -0.9295
  250MOL0     H32946   1.635   9.946  10.110 -0.1876  0.2007 -0.3135
  250MOL0     H32947   1.588  10.198  10.174  1.8324 -2.1100  1.4723
  250MOL0     H32948   1.445  10.149  10.242  3.0701  0.2225  3.1413
  250MOL0     H32949   1.452  10.222   9.985 -0.2989 -0.5192 -0.0601
  250MOL0     H32950   1.532  10.079   9.951 -1.2322  0.8079 -1.8135
  250MOL0     H32951   1.355   9.937  10.028  0.2577  0.1077 -2.0588
  250MOL0     H32952   1.293  10.057   9.918 -0.8051 -1.9448  0.1892
  250MOL0     H32953   1.133  10.245  10.003 -0.4942  2.4041  1.2527
  250MOL0     H32954   0.906  10.328  10.127 -0.7713 -0.2207  1.3124
  250MOL0     H32955   0.915  10.297  10.301  1.3474  0.5219  0.2134
  250MOL0     H32956   0.777  10.126  10.080 -0.5450  0.2186  0.0312
  250MOL0     H32957   0.695  10.224  10.194 -1.3964 -0.4358 -3.1154
  250MOL0     H32958   0.831   9.949  10.243  1.3082  0.7741 -0.0452
  250MOL0     H32959   0.829  10.056  10.369 -1.7896  2.1680  1.4800
  250MOL0     H32960   0.670   9.883  10.368 -0.8773  0.0466  2.2723
  250MOL0     H32961   0.583   9.963  10.230  2.2963  1.4989 -1.4271
  250MOL0     H32962   0.431   9.823  10.356 -2.4997 -1.4428  2.2775
  250MOL0     H32963   0.206   9.787  10.361 -0.3906  0.3953 -1.4792
  250MOL0     H32964  -0.195  10.080  10.373  1.1725 -1.2339  2.9846
  250MOL0     H32965  -0.445  10.073  10.364  0.1023  0.1702  1.5757
  250MOL0     H32966  -0.627   9.669  10.284 -1.0898 -0.0674 -2.1386
  250MOL0     H32967  -0.568   9.798  10.187  2.3762 -1.5820  0.0519
  250MOL0     H32968  -0.821   9.916  10.276 -1.2619 -0.2847 -0.0184
  250MOL0     H32969  -0.848   9.744  10.303  1.4590 -1.5396  0.1763
  250MOL0     H32970  -0.766   9.723  10.058 -3.1243 -0.6703 -0.4721
  250MOL0     H32971  -0.779   9.898  10.048 -1.5129  1.2116  0.0504
  250MOL0     H32972  -1.019   9.720  10.118 -1.8095  0.7202  1.4545
  250MOL0     H32973  -1.013   9.899  10.100  1.0647  1.5699 -3.0942
  250MOL0     H32974  -0.940   9.704   9.882  2.1946  1.1375  0.8223
  250MOL0     H32975  -0.937   9.875   9.868  2.9999 -0.9485  1.0915
  250MOL0     H32976  -1.184   9.713   9.943 -1.8536  2.3015  1.5009
  250MOL0     H32977  -1.136   9.729   9.772 -1.8106  0.5372  0.3783
  250MOL0     H32978  -1.136   9.993   9.896 -0.2669 -0.5044  2.7846
  250MOL0     H32979  -1.200   9.934   9.740 -1.5773 -1.9339 -0.4530
  250MOL0     H32980  -1.361  10.040   9.905 -1.6651  0.1705  2.8313
  250MOL0     H32981  -1.335   9.911  10.014 -3.0054  1.4762  1.6189
  250MOL0     H32982  -0.424   9.652  10.435  0.7579 -1.6952  0.2015
  250MOL0     H32983  -0.168   9.666  10.414  0.4690 -0.4431 -1.3472
  250MOL0     H32984   0.170  10.131  10.635 -1.5449 -0.7460 -1.2480
  250MOL0     H32985   0.407  10.194  10.569  2.0167  0.9402 -1.2454
  250MOL0     H32986   2.244  10.039  10.197  0.5314  1.6280 -0.5149
  250MOL0     H32987   2.462  10.067  10.138 -1.5055  2.1475  0.5241
  250MOL0     H32988   2.860   9.948   9.971  3.2681 -1.9307 -1.0967
  250MOL0     H32989   3.078   9.994   9.918 -0.0328  0.8511 -1.5118
  250MOL0     H32990   3.278   9.975  10.255 -0.4700  1.1674  0.0389
  250MOL0     H32991   3.370  10.124  10.264  4.0502  0.4490 -1.6371
  250MOL0     H32992   3.439   9.904  10.076 -0.1401 -1.8546  1.5494
  250MOL0     H32993   3.527  10.051  10.087 -2.1780 -1.3325 -3.1559
  250MOL0     H32994   3.505   9.821  10.278  1.5050 -0.5200  0.2307
  250MOL0     H32995   3.560   9.989  10.342  1.6319  1.4442 -0.3511
  250MOL0     H32996   3.740   9.964  10.180 -4.0089  1.9055  1.4730
  250MOL0     H32997   3.748   9.839  10.313 -0.2015 -1.7479  0.0919
  250MOL0     H32998   3.711   9.576   9.991  0.7160 -0.9510 -0.8712
  250MOL0     H32999   3.141  10.195  10.290 -0.1864 -0.1568  0.3220
  250MOL0     H33000   2.896  10.157  10.344  3.6829 -1.9635  2.2482
  251MOL0     O33001   6.711   3.168  10.639  0.1720 -0.6703  0.5010
  251MOL0     C33002   6.606   3.136  10.581  0.4470 -0.0812  0.6188
  251MOL0     O33003   6.570   3.148  10.455 -0.2027  0.1812 -0.1887
  251MOL0     C33004   6.654   3.209  10.362  0.0146  0.0254  0.3518
  251MOL0     C33005   6.721   3.328  10.390  0.0380  0.2808 -0.1796
  251MOL0     C33006   6.819   3.381  10.298 -0.4518  0.4659  0.0661
  251MOL0     C33007   6.837   3.319  10.172  0.0675  0.5002  0.9041
  251MOL0     O33008   6.916   3.358  10.072  0.0841  0.5340  0.6412
  251MOL0     C33009   7.006   3.466  10.106  0.0541 -0.3816 -1.0482
  251MOL0     C33010   7.123   3.477  10.002 -0.4425 -0.1686 -0.3872
  251MOL0     C33011   7.239   3.371  10.032 -0.5549  1.0572  0.0785
  251MOL0     C33012   7.358   3.386   9.935 -0.4919  0.9240  0.3756
  251MOL0     C33013   7.456   3.268   9.941  0.4344 -0.1281 -0.2389
  251MOL0     C33014   7.557   3.292   9.832  0.4246 -0.6493  0.3650
  251MOL0     C33015   7.660   3.177   9.805  0.9273  1.0919  0.4370
  251MOL0     C33016   7.792   3.228   9.750 -0.1136  0.6108 -0.4993
  251MOL0     N33017   7.774   3.328   9.654 -0.0099  0.0176  0.0847
  251MOL0     C33018   7.710   3.320   9.531  0.2033  0.1452  0.1864
  251MOL0     C33019   7.705   3.449   9.489  0.4473  0.2335 -1.1578
  251MOL0     C33020   7.652   3.494   9.361 -0.8492 -0.7440 -0.7550
  251MOL0     C33021   7.503   3.467   9.337  0.6211 -0.6619  0.4259
  251MOL0     C33022   7.458   3.558   9.222 -0.3543  0.1141 -0.7744
  251MOL0     C33023   7.310   3.558   9.188 -1.3401  0.2486  0.4793
  251MOL0     O33024   7.281   3.435   9.131  0.2686  0.8590  0.5139
  251MOL0     C33025   7.161   3.412   9.070 -0.4872 -0.3563 -0.2848
  251MOL0     C33026   7.133   3.295   8.992  0.2717 -0.4104  0.1494
  251MOL0     C33027   7.005   3.259   8.953 -0.2701 -0.8870  0.3096
  251MOL0     C33028   6.896   3.343   8.992  0.1641  0.0176 -0.5109
  251MOL0     C33029   6.758   3.319   8.936  0.3234  0.2621  0.0968
  251MOL0     O33030   6.744   3.206   8.867 -0.0971  0.9492 -0.2105
  251MOL0     C33031   6.622   3.150   8.856 -0.2070  0.1439  0.3553
  251MOL0     C33032   6.579   3.123   8.719 -0.0873 -0.2997  0.4408
  251MOL0     C33033   6.454   3.055   8.704 -0.0628  0.3381  0.2094
  251MOL0     C33034   6.371   3.026   8.808 -0.4536  0.0598  0.6494
  251MOL0     O33035   6.244   2.969   8.782  0.0975 -1.0379 -0.0639
  251MOL0     C33036   6.139   2.995   8.875  0.0244 -0.9043 -0.9535
  251MOL0     C33037   6.001   2.946   8.839  0.3584  1.8956 -1.1249
  251MOL0     C33038   5.884   2.977   8.944 -0.0938 -0.8756 -0.2488
  251MOL0     C33039   5.757   2.885   8.918  0.2121  0.1470 -0.0012
  251MOL0     C33040   5.674   2.950   8.806  0.0734  0.7092  0.6331
  251MOL0     C33041   5.565   2.851   8.757 -0.1517 -0.4974  0.3287
  251MOL0     C33042   5.487   2.776   8.869 -0.2170 -0.1610  0.8968
  251MOL0     C33043   5.372   2.696   8.812  0.2014  0.5761 -0.4988
  251MOL0    Cl33044   5.233   2.800   8.766  0.2179  0.0114  0.1515
  251MOL0     C33045   6.411   3.063   8.936  0.0685 -0.1898  0.0981
  251MOL0     C33046   6.542   3.106   8.963 -0.4251 -0.7771 -0.1702
  251MOL0     O33047   6.661   3.399   8.949 -0.0065  0.7448 -0.0173
  251MOL0     C33048   6.923   3.464   9.062 -0.5733 -0.2342 -0.5768
  251MOL0     C33049   7.054   3.501   9.092 -0.1517  0.0509  0.5829
  251MOL0     N33050   7.771   3.534   9.582 -0.0258  0.3553  0.4751
  251MOL0     N33051   7.815   3.455   9.679 -0.8684  0.1198 -0.5149
  251MOL0     C33052   6.753   3.211  10.141  1.1157  0.0513 -0.2559
  251MOL0     C33053   6.667   3.159  10.234 -0.0570  0.7596  0.6486
  251MOL0     C33054   6.500   3.069  10.666  0.0766  0.0873  0.4728
  251MOL0     C33055   6.376   3.028  10.607 -0.2424 -1.4467  0.9008
  251MOL0     C33056   6.272   2.993  10.691 -0.1674 -0.1093 -0.1766
  251MOL0     C33057   6.287   2.999  10.840  0.1878  0.0820 -0.0407
  251MOL0     O33058   6.181   2.977  10.932  0.1631  0.3921 -0.5948
  251MOL0     C33059   6.058   2.941  10.865  0.2682  0.1464  0.1871
  251MOL0     C33060   5.952   2.908  10.971  0.1628 -0.4632  0.3562
  251MOL0     C33061   5.924   3.018  11.079  0.3238 -0.1860  0.7019
  251MOL0     C33062   5.841   2.955  11.196  0.3322  0.6393  0.1900
  251MOL0     C33063   5.702   2.924  11.155 -0.1121  1.0362 -0.1852
  251MOL0     C33064   5.591   2.913  11.108 -0.0086 -0.0316  1.0622
  251MOL0     C33065   6.411   3.029  10.892  0.7039 -0.0986 -0.4577
  251MOL0     C33066   6.519   3.066  10.804 -0.6983  0.4760 -0.8821
  251MOL0     H33067   6.702   3.380  10.483 -2.7650  0.5059 -0.8133
  251MOL0     H33068   6.883   3.457  10.341 -0.2827  0.9845 -1.0841
  251MOL0     H33069   7.041   3.469  10.209  0.7581  1.5512 -1.3148
  251MOL0     H33070   6.939   3.552  10.105 -3.1008 -2.6686 -1.1869
  251MOL0     H33071   7.171   3.575  10.006  0.2339 -0.5095  0.0487
  251MOL0     H33072   7.082   3.465   9.901  0.1961 -4.4703 -0.3216
  251MOL0     H33073   7.205   3.269  10.012  1.2106  1.0895 -4.1532
  251MOL0     H33074   7.271   3.379  10.136 -0.9505  1.8916  0.1451
  251MOL0     H33075   7.317   3.393   9.834  1.1190 -1.8713 -0.5775
  251MOL0     H33076   7.415   3.476   9.961 -0.7035  0.9928  0.6039
  251MOL0     H33077   7.391   3.181   9.928 -1.2677  1.1729 -0.7311
  251MOL0     H33078   7.505   3.272  10.038 -1.5615  0.5754  0.8012
  251MOL0     H33079   7.610   3.384   9.860  1.1585 -1.0522  0.3282
  251MOL0     H33080   7.506   3.323   9.740 -0.0413  1.7758  1.3559
  251MOL0     H33081   7.676   3.121   9.897  0.8829 -0.0998 -0.2666
  251MOL0     H33082   7.608   3.105   9.742 -0.7827  2.1977  0.4998
  251MOL0     H33083   7.856   3.145   9.718 -1.1645 -0.7491  0.8059
  251MOL0     H33084   7.850   3.265   9.834 -0.3599 -3.7900  1.9334
  251MOL0     H33085   7.668   3.227   9.494  0.7887  0.0556 -0.2645
  251MOL0     H33086   7.717   3.445   9.287  3.7107  2.4112  0.6861
  251MOL0     H33087   7.674   3.601   9.351 -0.6437 -0.6250  0.7029
  251MOL0     H33088   7.428   3.498   9.411  2.4307  1.8099  1.3930
  251MOL0     H33089   7.481   3.361   9.322  0.0831 -0.6679  1.1721
  251MOL0     H33090   7.474   3.663   9.252 -3.0746  0.1034  1.1308
  251MOL0     H33091   7.511   3.535   9.130  0.1751  1.1898 -0.7624
  251MOL0     H33092   7.300   3.637   9.113  1.8867  1.2091  0.8892
  251MOL0     H33093   7.249   3.567   9.278  0.5424  0.7921  1.7679
  251MOL0     H33094   7.222   3.232   8.988  0.5727 -0.0581  0.9961
  251MOL0     H33095   6.996   3.178   8.881  0.0894 -2.0525  1.5167
  251MOL0     H33096   6.638   3.156   8.635  1.1165 -2.5798  0.3190
  251MOL0     H33097   6.422   3.028   8.604 -3.9457 -1.0090  1.5996
  251MOL0     H33098   6.137   3.103   8.895 -0.0076 -1.1144  0.2326
  251MOL0     H33099   6.166   2.950   8.971 -0.2284  1.4571  0.3093
  251MOL0     H33100   6.003   2.838   8.822 -0.6503  1.9718 -1.7743
  251MOL0     H33101   5.975   2.990   8.742 -1.2019  2.6743 -0.3939
  251MOL0     H33102   5.850   3.079   8.923 -2.2616 -1.7006 -1.0923
  251MOL0     H33103   5.918   2.958   9.046 -0.1641  0.0155 -0.0549
  251MOL0     H33104   5.786   2.784   8.889 -0.7703 -0.2559  0.3689
  251MOL0     H33105   5.691   2.880   9.005 -0.9706 -0.7563 -0.9133
  251MOL0     H33106   5.726   2.973   8.712 -1.1282  0.6810 -0.0522
  251MOL0     H33107   5.635   3.044   8.845  1.1982  1.8572 -0.8729
  251MOL0     H33108   5.604   2.780   8.683 -1.1192  1.4655 -2.2006
  251MOL0     H33109   5.488   2.896   8.693 -0.4098 -3.5316 -1.7456
  251MOL0     H33110   5.564   2.704   8.898 -0.8448 -2.3324 -2.3035
  251MOL0     H33111   5.458   2.850   8.944  0.1457  0.9993 -0.0755
  251MOL0     H33112   5.332   2.623   8.884  1.4856 -1.6438 -1.8984
  251MOL0     H33113   5.407   2.629   8.733 -1.9108 -1.0887 -0.1021
  251MOL0     H33114   6.347   3.030   9.016 -2.0793  0.8914 -1.0788
  251MOL0     H33115   6.585   3.123   9.062  0.6568 -1.9232 -0.4135
  251MOL0     H33116   6.842   3.531   9.090 -0.0153 -0.7240  2.5625
  251MOL0     H33117   7.057   3.599   9.137 -0.4724  0.9930 -1.3570
  251MOL0     H33118   6.758   3.160  10.045  1.2444  1.5193 -1.0682
  251MOL0     H33119   6.609   3.068  10.220 -1.2169  1.1844  2.2973
  251MOL0     H33120   6.371   3.019  10.499  1.6814 -1.1156  0.7592
  251MOL0     H33121   6.177   2.976  10.641 -0.8129  1.5827  0.3896
  251MOL0     H33122   6.076   2.857  10.796  0.8491  0.6785 -0.3210
  251MOL0     H33123   6.027   3.033  10.814  1.8926  1.2798  1.1703
  251MOL0     H33124   5.859   2.882  10.920 -0.7147  2.9902 -0.0909
  251MOL0     H33125   5.978   2.815  11.021  0.1607 -1.4284 -1.3570
  251MOL0     H33126   5.859   3.095  11.035  0.8659  0.2409  0.6417
  251MOL0     H33127   6.022   3.058  11.107  1.4061 -2.7373  0.8465
  251MOL0     H33128   5.882   2.864  11.241  1.4956  1.1641  0.2287
  251MOL0     H33129   5.838   3.035  11.271 -2.6468  1.9690 -1.1616
  251MOL0     H33130   5.502   2.902  11.049 -0.0531  0.1319  1.0968
  251MOL0     H33131   6.436   3.046  10.996 -0.7947 -1.6199  0.1845
  251MOL0     H33132   6.612   3.098  10.849 -1.6891  0.1021  1.5865
  252MOL0     O33133   0.425   6.402   9.577 -0.9486  1.1421 -0.3571
  252MOL0     C33134   0.531   6.334   9.571  0.4808  0.2982  0.3139
  252MOL0     O33135   0.556   6.233   9.487 -0.0102  0.0235  0.1429
  252MOL0     C33136   0.467   6.195   9.389 -0.1286  1.2069 -0.9920
  252MOL0     C33137   0.515   6.168   9.261  0.0668 -0.1054 -0.2606
  252MOL0     C33138   0.425   6.143   9.152 -0.7616 -0.8511  0.2964
  252MOL0     C33139   0.284   6.132   9.173  0.4372  0.3180  0.4590
  252MOL0     O33140   0.191   6.102   9.075 -0.7386 -0.4482  0.8200
  252MOL0     C33141   0.222   6.020   8.966 -0.4355  0.1572 -0.7446
  252MOL0     C33142   0.118   6.024   8.854  0.1231  0.6025  0.0436
  252MOL0     C33143   0.028   6.154   8.825  0.5972  0.1907 -0.8045
  252MOL0     C33144  -0.095   6.120   8.743  0.7108 -0.7773 -0.7990
  252MOL0     C33145  -0.189   6.241   8.729 -0.4783 -0.5119 -0.9424
  252MOL0     C33146  -0.307   6.202   8.650 -0.7093  0.9664  1.1380
  252MOL0     C33147  -0.407   6.320   8.653  0.3253 -1.0477  0.2035
  252MOL0     C33148  -0.523   6.292   8.551  0.3212 -0.0270  0.5799
  252MOL0     N33149  -0.614   6.412   8.529  0.0761 -0.0405  0.1804
  252MOL0     C33150  -0.597   6.537   8.569  0.5183 -0.7644  0.7098
  252MOL0     C33151  -0.708   6.598   8.535  0.1673 -0.1442  0.6480
  252MOL0     C33152  -0.753   6.736   8.573  0.7334  0.3285 -0.3152
  252MOL0     C33153  -0.903   6.766   8.558  0.4185  0.2886  0.6338
  252MOL0     C33154  -0.945   6.893   8.635 -0.6041  1.0884  0.1320
  252MOL0     C33155  -1.096   6.927   8.641  0.7748  0.1312 -0.3439
  252MOL0     O33156  -1.120   7.066   8.681 -0.1640  0.2928 -0.5541
  252MOL0     C33157  -1.254   7.106   8.689  0.2386 -0.2035 -0.0074
  252MOL0     C33158  -1.359   7.025   8.736  0.7540 -0.2645 -0.3599
  252MOL0     C33159  -1.484   7.064   8.758  0.2199  0.0942 -0.4008
  252MOL0     C33160  -1.515   7.198   8.742 -0.4386 -0.0546 -0.1284
  252MOL0     C33161  -1.645   7.256   8.773 -0.1748  0.4052 -0.8161
  252MOL0     O33162  -1.678   7.388   8.759 -0.3347 -0.1527 -0.3500
  252MOL0     C33163  -1.774   7.444   8.830  0.2838  0.1179  0.1331
  252MOL0     C33164  -1.770   7.457   8.965 -0.1305 -0.6792 -0.7204
  252MOL0     C33165  -1.870   7.521   9.034  0.2680 -0.1774 -0.4017
  252MOL0     C33166  -1.991   7.559   8.972  0.8803  0.1506  0.3691
  252MOL0     O33167  -2.093   7.606   9.055  0.0642  0.2329 -0.2531
  252MOL0     C33168  -2.182   7.692   8.996  1.0914  0.4610 -0.1461
  252MOL0     C33169  -2.248   7.785   9.101 -0.3300  0.7461 -0.6292
  252MOL0     C33170  -2.354   7.705   9.170  0.2803 -0.7460 -0.7765
  252MOL0     C33171  -2.436   7.794   9.273  0.3684 -0.1951 -0.0066
  252MOL0     C33172  -2.540   7.726   9.354  0.0194 -0.1896 -0.2782
  252MOL0     C33173  -2.667   7.714   9.270  0.0384 -0.5262  1.0709
  252MOL0     C33174  -2.769   7.622   9.333 -0.0119 -0.8831  0.4186
  252MOL0     C33175  -2.903   7.612   9.258 -0.8459  0.1595 -0.6060
  252MOL0    Cl33176  -3.016   7.520   9.350  0.2436  0.1963  0.6148
  252MOL0     C33177  -2.010   7.528   8.835  0.5506 -1.0781 -0.2888
  252MOL0     C33178  -1.896   7.483   8.765  0.6133  0.2016 -0.5178
  252MOL0     O33179  -1.705   7.175   8.842  0.3673 -0.5716  0.2763
  252MOL0     C33180  -1.411   7.291   8.706  0.0770  1.1242  0.7075
  252MOL0     C33181  -1.280   7.243   8.682  0.4957  0.3980 -0.4135
  252MOL0     N33182  -0.787   6.518   8.454  0.5160  0.4173  1.6514
  252MOL0     N33183  -0.730   6.402   8.452 -0.3713 -0.0000  0.2787
  252MOL0     C33184   0.237   6.153   9.303 -1.0767  0.1450 -0.6541
  252MOL0     C33185   0.320   6.183   9.409 -0.3579 -0.2070 -0.5571
  252MOL0     C33186   0.627   6.357   9.673 -0.0123  1.0786 -0.1281
  252MOL0     C33187   0.764   6.345   9.642  0.4584 -0.1320  0.6815
  252MOL0     C33188   0.866   6.358   9.746  1.4043 -0.4567  0.8037
  252MOL0     C33189   0.828   6.378   9.876  0.6563  0.9045 -0.1498
  252MOL0     O33190   0.910   6.352   9.977 -1.3281  0.2363  1.0211
  252MOL0     C33191   1.056   6.332   9.938  0.0526 -0.0956 -0.1981
  252MOL0     C33192   1.154   6.306  10.053 -0.2777  0.2654 -0.0108
  252MOL0     C33193   1.180   6.425  10.150  0.6350  1.0129 -0.4372
  252MOL0     C33194   1.170   6.565  10.088  0.3938  0.5746 -0.2964
  252MOL0     C33195   1.266   6.585   9.973 -0.2255  0.4126 -0.1098
  252MOL0     C33196   1.342   6.614   9.877  0.6743  1.5441 -0.5424
  252MOL0     C33197   0.687   6.408   9.907 -0.9173  0.1620 -0.9028
  252MOL0     C33198   0.591   6.396   9.801 -0.3857 -0.0763  0.3771
  252MOL0     H33199   0.620   6.181   9.235  0.2312 -0.8247  0.0055
  252MOL0     H33200   0.463   6.127   9.052 -0.0027  0.9027  0.2678
  252MOL0     H33201   0.231   5.915   8.994 -0.7063  0.6984  1.5155
  252MOL0     H33202   0.321   6.045   8.926 -0.9443  3.2866 -0.2958
  252MOL0     H33203   0.045   5.945   8.871 -0.9637  1.4407 -0.6467
  252MOL0     H33204   0.169   5.988   8.764  0.3509  2.4453 -0.5968
  252MOL0     H33205   0.087   6.222   8.763 -0.8776 -0.6999 -3.2861
  252MOL0     H33206  -0.007   6.202   8.917  1.0995 -0.7112 -0.1254
  252MOL0     H33207  -0.062   6.096   8.642 -1.5662  1.0916 -2.1049
  252MOL0     H33208  -0.150   6.032   8.776  1.3213 -1.8495 -2.4940
  252MOL0     H33209  -0.141   6.326   8.678 -2.0423 -0.7322 -2.9034
  252MOL0     H33210  -0.226   6.285   8.822  0.6457  0.5975 -0.9789
  252MOL0     H33211  -0.351   6.109   8.687  0.5311  0.4908  1.4715
  252MOL0     H33212  -0.277   6.192   8.545 -1.6158 -1.1712  1.0198
  252MOL0     H33213  -0.444   6.323   8.756 -1.0387  0.9586 -0.2811
  252MOL0     H33214  -0.357   6.416   8.635  0.1729 -1.1839 -1.0293
  252MOL0     H33215  -0.576   6.205   8.593  0.0676 -1.4060 -2.2860
  252MOL0     H33216  -0.479   6.267   8.454 -1.2865  2.4565 -0.8912
  252MOL0     H33217  -0.518   6.578   8.631  0.5767  1.3539 -0.6671
  252MOL0     H33218  -0.696   6.798   8.503 -1.5319  1.4485 -1.2668
  252MOL0     H33219  -0.715   6.769   8.671  0.5519 -0.9035  0.1888
  252MOL0     H33220  -0.967   6.680   8.580  0.0812  0.2228 -0.5381
  252MOL0     H33221  -0.910   6.773   8.449  0.7539 -0.1289  0.5832
  252MOL0     H33222  -0.913   6.874   8.737 -2.8400 -2.7386  0.3025
  252MOL0     H33223  -0.895   6.976   8.584  0.6819  1.2048  1.5148
  252MOL0     H33224  -1.150   6.849   8.696 -0.3832 -1.6471 -3.7133
  252MOL0     H33225  -1.136   6.937   8.540 -3.2288  1.6634  1.2155
  252MOL0     H33226  -1.338   6.921   8.757 -2.0790 -0.6457  0.9969
  252MOL0     H33227  -1.555   6.984   8.777 -0.9710  0.9814 -0.9838
  252MOL0     H33228  -1.684   7.415   9.017  0.4989  1.3196 -0.0542
  252MOL0     H33229  -1.883   7.537   9.141 -0.9059 -0.4509 -0.4880
  252MOL0     H33230  -2.257   7.629   8.950  1.0842 -0.2635  0.8257
  252MOL0     H33231  -2.123   7.754   8.927  0.6640 -1.7263 -2.6067
  252MOL0     H33232  -2.298   7.862   9.042 -0.9756  1.3674  0.6830
  252MOL0     H33233  -2.184   7.833   9.175 -1.1063  0.0173  0.5610
  252MOL0     H33234  -2.317   7.610   9.210  3.5993  0.4100 -0.8154
  252MOL0     H33235  -2.426   7.675   9.093 -0.7368  1.5669 -0.8120
  252MOL0     H33236  -2.369   7.846   9.344  2.7633  0.4646 -2.5671
  252MOL0     H33237  -2.487   7.871   9.215  1.3738  0.4262 -0.1012
  252MOL0     H33238  -2.568   7.781   9.444 -0.3154  0.5353 -0.8133
  252MOL0     H33239  -2.510   7.621   9.369 -0.0685 -0.6066 -2.6382
  252MOL0     H33240  -2.647   7.694   9.164  0.7986 -0.8132  1.2631
  252MOL0     H33241  -2.707   7.815   9.267  0.8343 -0.1739 -2.1791
  252MOL0     H33242  -2.718   7.525   9.335  4.2457  1.0094 -2.0224
  252MOL0     H33243  -2.775   7.648   9.439  1.2514 -2.8306  1.0302
  252MOL0     H33244  -2.878   7.576   9.158 -1.6656  1.9518 -1.4918
  252MOL0     H33245  -2.941   7.713   9.240  1.6035  0.9940 -1.6855
  252MOL0     H33246  -2.107   7.544   8.789  0.4681  0.3373  0.3404
  252MOL0     H33247  -1.914   7.477   8.658  1.8568  2.3683 -0.9031
  252MOL0     H33248  -1.432   7.397   8.691  1.0515  1.1404 -0.6657
  252MOL0     H33249  -1.199   7.313   8.664  0.1604  2.1935  3.9239
  252MOL0     H33250   0.130   6.157   9.321 -0.9505  1.6964 -0.0542
  252MOL0     H33251   0.284   6.213   9.506  2.4748 -1.4706  1.0217
  252MOL0     H33252   0.804   6.329   9.543 -1.7775 -3.9634  0.1759
  252MOL0     H33253   0.967   6.338   9.712  2.0328  0.3949  2.0887
  252MOL0     H33254   1.101   6.412   9.878 -1.9014 -0.2204 -1.9511
  252MOL0     H33255   1.053   6.244   9.873  1.8758 -1.0101  0.8890
  252MOL0     H33256   1.108   6.230  10.117 -0.0280  0.0735 -0.0538
  252MOL0     H33257   1.248   6.265  10.015  0.2995  1.7978 -0.2750
  252MOL0     H33258   1.280   6.411  10.194  2.0133 -0.2746 -3.6400
  252MOL0     H33259   1.105   6.418  10.229 -0.4421  0.9102 -1.4509
  252MOL0     H33260   1.066   6.580  10.057 -0.2073  1.3078  1.8777
  252MOL0     H33261   1.185   6.638  10.168  2.0777 -0.5713  0.4776
  252MOL0     H33262   1.391   6.640   9.785 -3.0119  4.0963 -1.9746
  252MOL0     H33263   0.665   6.425  10.012 -1.7887 -1.9377 -0.7035
  252MOL0     H33264   0.483   6.403   9.812 -0.5557 -0.6671 -0.7362
  253MOL0     O33265   7.858   9.592   8.229 -0.1114 -0.2902 -0.2587
  253MOL0     C33266   7.883   9.487   8.288 -0.1896  0.1511  0.3286
  253MOL0     O33267   7.790   9.394   8.321 -0.5311  0.3368  0.2513
  253MOL0     C33268   7.670   9.390   8.262  0.4895  0.0031  0.2252
  253MOL0     C33269   7.634   9.445   8.130  0.4557  0.3533  0.4547
  253MOL0     C33270   7.505   9.432   8.082 -0.6144  1.0017  1.4878
  253MOL0     C33271   7.412   9.360   8.157  0.6937 -0.5132 -0.2322
  253MOL0     O33272   7.288   9.353   8.096 -0.1835  0.0319 -0.0423
  253MOL0     C33273   7.180   9.362   8.184  0.5577 -0.1779  0.5773
  253MOL0     C33274   7.048   9.357   8.110  0.3263 -0.8758 -0.0300
  253MOL0     C33275   6.935   9.441   8.183 -0.4119 -0.0116 -0.5274
  253MOL0     C33276   6.799   9.409   8.105 -0.2242 -0.1121  0.1966
  253MOL0     C33277   6.667   9.446   8.167 -0.0347  0.2184 -0.5169
  253MOL0     C33278   6.628   9.395   8.307  0.4282 -0.7078  0.2812
  253MOL0     C33279   6.476   9.397   8.333 -0.0458  0.9763 -0.2472
  253MOL0     C33280   6.406   9.268   8.273  0.1063  0.2620 -1.0108
  253MOL0     N33281   6.260   9.265   8.275  0.4065 -0.6433 -0.1349
  253MOL0     C33282   6.186   9.303   8.387 -0.2311  0.4875 -0.3033
  253MOL0     C33283   6.060   9.314   8.336  0.4317 -0.7929  0.2145
  253MOL0     C33284   5.941   9.379   8.402  0.1412  0.2083 -0.0264
  253MOL0     C33285   5.959   9.531   8.410 -0.2908 -0.2988 -0.5908
  253MOL0     C33286   6.045   9.565   8.533  0.4844 -0.5621 -0.1573
  253MOL0     C33287   6.069   9.718   8.544 -0.2494  0.0826 -0.8507
  253MOL0     O33288   6.129   9.777   8.424 -0.1178  0.1380  0.3315
  253MOL0     C33289   6.270   9.771   8.422 -0.6366  0.9065  1.0584
  253MOL0     C33290   6.341   9.845   8.321 -0.2297  0.2347  0.5228
  253MOL0     C33291   6.477   9.841   8.314  0.2397 -0.0713 -0.2594
  253MOL0     C33292   6.551   9.766   8.399 -0.4990  0.2025 -0.0571
  253MOL0     C33293   6.702   9.763   8.383  0.8684  0.1401  0.1808
  253MOL0     O33294   6.760   9.660   8.447 -0.1735 -0.4834  0.4169
  253MOL0     C33295   6.893   9.648   8.449 -1.1683 -0.2018  0.4330
  253MOL0     C33296   6.938   9.541   8.529 -0.1893  0.1586  0.8302
  253MOL0     C33297   7.068   9.496   8.542 -0.0032 -0.2751 -0.1289
  253MOL0     C33298   7.171   9.567   8.471 -0.1884 -0.1461 -0.3058
  253MOL0     O33299   7.304   9.517   8.478 -0.0342 -0.2870 -0.6017
  253MOL0     C33300   7.406   9.610   8.420  0.1933  0.3499 -0.2279
  253MOL0     C33301   7.430   9.726   8.526  0.2113 -0.7462 -0.4592
  253MOL0     C33302   7.553   9.807   8.509  0.1029 -0.6248  0.7764
  253MOL0     C33303   7.672   9.711   8.548 -0.5287 -0.7104  1.0903
  253MOL0     C33304   7.795   9.787   8.583  0.7715  0.7549  0.1851
  253MOL0     C33305   7.932   9.710   8.605 -0.5485  0.3803  0.2889
  253MOL0     C33306   8.035   9.787   8.689 -0.1762 -0.5139  0.8437
  253MOL0     C33307   8.174   9.755   8.639 -0.4850  0.0425 -0.4044
  253MOL0    Cl33308   8.260   9.633   8.756  0.4575 -0.2096  0.1271
  253MOL0     C33309   7.132   9.683   8.392  0.3035  0.3871 -0.4815
  253MOL0     C33310   6.996   9.720   8.385  0.9138  0.1469 -0.2213
  253MOL0     O33311   6.747   9.864   8.334 -0.4955  0.3305 -0.0224
  253MOL0     C33312   6.492   9.686   8.487  0.6668 -0.0575  0.9826
  253MOL0     C33313   6.355   9.682   8.503  0.0667 -0.5585  0.0652
  253MOL0     N33314   6.070   9.296   8.196  0.3359  0.2930  0.2668
  253MOL0     N33315   6.185   9.248   8.172 -0.1912 -0.3451  0.6648
  253MOL0     C33316   7.448   9.294   8.276 -0.6763 -0.6037  0.4110
  253MOL0     C33317   7.576   9.312   8.327 -1.1518  0.8374 -0.4208
  253MOL0     C33318   8.023   9.450   8.305  0.1295 -0.4381 -0.1525
  253MOL0     C33319   8.046   9.353   8.408  0.0455 -0.4248  0.5213
  253MOL0     C33320   8.184   9.327   8.428  0.3271 -1.0204 -0.3002
  253MOL0     C33321   8.289   9.395   8.364  0.0918  0.0053 -0.0859
  253MOL0     O33322   8.424   9.360   8.375 -0.2662  0.0589  0.3561
  253MOL0     C33323   8.487   9.437   8.475 -0.8943 -0.0914 -0.5470
  253MOL0     C33324   8.498   9.338   8.598  0.2698 -0.3945  0.6316
  253MOL0     C33325   8.600   9.379   8.691  0.0376 -0.2154 -0.0407
  253MOL0     C33326   8.626   9.272   8.792  0.2498 -0.1433 -0.1585
  253MOL0     C33327   8.688   9.326   8.917 -0.5144 -0.2825 -0.0264
  253MOL0     C33328   8.756   9.351   9.017  0.0347 -0.2118  0.7577
  253MOL0     C33329   8.257   9.497   8.278  0.5645 -0.3886 -0.1535
  253MOL0     C33330   8.128   9.529   8.247  0.2964  0.4433 -0.8907
  253MOL0     H33331   7.697   9.512   8.072 -1.0601  3.3860  2.0546
  253MOL0     H33332   7.468   9.463   7.985 -3.3319 -1.3008  1.6528
  253MOL0     H33333   7.189   9.462   8.228  0.8944  1.0663 -2.1212
  253MOL0     H33334   7.191   9.282   8.258  0.2472  1.3863  2.3784
  253MOL0     H33335   7.024   9.251   8.121  0.3877 -0.6589  3.0056
  253MOL0     H33336   7.053   9.386   8.004 -0.7996 -0.6793 -0.0469
  253MOL0     H33337   6.960   9.548   8.183 -1.2323  0.1859 -0.7230
  253MOL0     H33338   6.932   9.401   8.285 -1.8888  0.8243 -0.2075
  253MOL0     H33339   6.798   9.448   8.003  0.4012  0.1726  0.2947
  253MOL0     H33340   6.802   9.300   8.091  4.1890  0.0921 -2.6197
  253MOL0     H33341   6.587   9.411   8.102  0.0596  0.0198 -0.5283
  253MOL0     H33342   6.674   9.555   8.174 -1.7734  0.2485  2.4601
  253MOL0     H33343   6.676   9.448   8.390 -1.9523  1.8893  0.1752
  253MOL0     H33344   6.662   9.291   8.309  0.9113 -0.5487  0.6277
  253MOL0     H33345   6.460   9.395   8.441  1.5312  0.1030  0.0066
  253MOL0     H33346   6.427   9.490   8.302  0.5548  2.2479  2.2875
  253MOL0     H33347   6.432   9.186   8.340  3.2778  0.9494 -1.2545
  253MOL0     H33348   6.447   9.235   8.177  2.2392 -0.4485  0.0703
  253MOL0     H33349   6.206   9.315   8.494  3.5715  3.3381 -1.0898
  253MOL0     H33350   5.924   9.334   8.500 -1.6422  0.3369 -0.2426
  253MOL0     H33351   5.854   9.356   8.339 -1.0155  2.5945  0.6134
  253MOL0     H33352   5.860   9.571   8.432  0.3820  1.3906 -0.4386
  253MOL0     H33353   6.021   9.559   8.324 -1.0863 -1.1742 -1.4730
  253MOL0     H33354   6.009   9.524   8.629 -0.3242 -0.3165 -0.3458
  253MOL0     H33355   6.139   9.515   8.510  0.4262 -1.9236  2.2096
  253MOL0     H33356   6.143   9.733   8.623 -0.4898  0.6093 -0.7239
  253MOL0     H33357   5.971   9.764   8.558  0.5399  0.9743  2.8850
  253MOL0     H33358   6.277   9.907   8.258  0.0020  0.5083  0.5562
  253MOL0     H33359   6.536   9.902   8.246  0.1856  0.5856  0.2642
  253MOL0     H33360   6.865   9.470   8.568  0.8547 -2.2415 -1.2572
  253MOL0     H33361   7.094   9.406   8.596 -1.1971 -1.1406 -0.9204
  253MOL0     H33362   7.373   9.636   8.319 -1.0624 -0.8834 -0.1680
  253MOL0     H33363   7.495   9.547   8.409  0.9012  1.1243  0.8651
  253MOL0     H33364   7.434   9.683   8.626  2.7341  0.6763  0.1467
  253MOL0     H33365   7.343   9.792   8.522 -0.5080 -1.7208 -1.6571
  253MOL0     H33366   7.544   9.889   8.582 -0.6395 -3.0194  3.5688
  253MOL0     H33367   7.553   9.853   8.410 -0.3594  0.8028  1.4109
  253MOL0     H33368   7.639   9.650   8.633 -1.3682 -1.5087  0.2130
  253MOL0     H33369   7.697   9.644   8.466 -0.1272  0.1149  0.5297
  253MOL0     H33370   7.777   9.844   8.674 -0.2677 -2.1029  1.9232
  253MOL0     H33371   7.822   9.851   8.498 -3.1642 -0.9383 -2.6447
  253MOL0     H33372   7.970   9.678   8.508 -2.5539 -1.2601 -0.0109
  253MOL0     H33373   7.915   9.615   8.657 -1.2286  1.2065  1.6488
  253MOL0     H33374   8.012   9.894   8.687 -3.1184 -1.0500  0.8006
  253MOL0     H33375   8.017   9.756   8.793  0.5691  2.8485  2.0801
  253MOL0     H33376   8.232   9.848   8.642  2.9906 -2.0029  1.3444
  253MOL0     H33377   8.184   9.723   8.535  0.7329 -2.1499  0.3281
  253MOL0     H33378   7.204   9.737   8.332 -0.5284  0.5853 -1.3303
  253MOL0     H33379   6.975   9.805   8.322 -0.4410  2.4997  3.1034
  253MOL0     H33380   6.547   9.615   8.548  3.6489  0.2847 -1.0534
  253MOL0     H33381   6.309   9.619   8.578  0.6526 -1.0799  0.0004
  253MOL0     H33382   7.371   9.238   8.330 -2.8057  0.9601 -0.8649
  253MOL0     H33383   7.592   9.272   8.427  2.2243 -0.8889 -1.5132
  253MOL0     H33384   7.965   9.293   8.447 -1.8773  1.9442  0.4152
  253MOL0     H33385   8.213   9.255   8.504 -1.2688 -1.5939 -0.2137
  253MOL0     H33386   8.434   9.530   8.498  1.0187  1.2286 -1.2158
  253MOL0     H33387   8.585   9.467   8.435 -1.5226  2.3545 -0.4487
  253MOL0     H33388   8.396   9.333   8.639 -0.3357  0.9198 -0.5962
  253MOL0     H33389   8.527   9.237   8.568  0.8735 -0.0886  0.1791
  253MOL0     H33390   8.566   9.475   8.732  1.2630  0.1958  0.0549
  253MOL0     H33391   8.695   9.397   8.639 -0.1128 -0.0174 -0.2444
  253MOL0     H33392   8.535   9.219   8.820 -0.2732 -0.5028 -2.3541
  253MOL0     H33393   8.687   9.187   8.759 -0.4531 -0.9351  0.5401
  253MOL0     H33394   8.821   9.397   9.089 -1.3262  1.9046  0.7464
  253MOL0     H33395   8.333   9.555   8.226  2.0241  0.0290  2.2933
  253MOL0     H33396   8.107   9.607   8.175  0.0249  1.2114  0.0116
  254MOL0     O33397   3.166   4.235   2.094  0.0363  0.5270 -0.1301
  254MOL0     C33398   3.242   4.290   2.171  0.0967  0.5941  0.2947
  254MOL0     O33399   3.216   4.315   2.299 -0.6324  0.0134  0.5631
  254MOL0     C33400   3.095   4.300   2.351  0.6540 -0.5267 -0.5230
  254MOL0     C33401   3.020   4.183   2.356  0.3046 -0.0075  0.0244
  254MOL0     C33402   2.909   4.166   2.439 -0.1332  0.4761  0.0101
  254MOL0     C33403   2.861   4.268   2.516 -0.5162 -0.0066 -0.6254
  254MOL0     O33404   2.748   4.247   2.597 -0.1591 -0.1032 -0.4193
  254MOL0     C33405   2.652   4.347   2.609  0.7630 -1.2533 -0.5447
  254MOL0     C33406   2.522   4.280   2.636 -0.8055 -0.1964  0.2682
  254MOL0     C33407   2.517   4.200   2.773 -0.8455  0.5214 -0.0058
  254MOL0     C33408   2.472   4.288   2.896 -0.6574  0.3225 -0.0396
  254MOL0     C33409   2.321   4.299   2.933 -0.8196  0.0827  0.4298
  254MOL0     C33410   2.308   4.411   3.038 -0.3054 -0.1806  0.0762
  254MOL0     C33411   2.158   4.426   3.082 -0.7441 -0.1515  0.2750
  254MOL0     C33412   2.067   4.461   2.967  0.5794  0.3557  0.2658
  254MOL0     N33413   2.086   4.596   2.908 -0.5142 -0.1437 -0.4317
  254MOL0     C33414   2.036   4.708   2.965  0.2219  0.0456 -0.5508
  254MOL0     C33415   2.069   4.806   2.878  0.0882  0.8066 -0.3861
  254MOL0     C33416   2.041   4.948   2.906 -0.2382  0.0230 -0.7175
  254MOL0     C33417   1.900   4.982   2.867 -0.6699  0.6472  0.1793
  254MOL0     C33418   1.882   5.134   2.892  0.0238  0.7686  0.0320
  254MOL0     C33419   1.745   5.176   2.837  0.7109  0.3391 -0.2752
  254MOL0     O33420   1.631   5.135   2.927 -0.0270 -0.3808  0.0213
  254MOL0     C33421   1.503   5.146   2.887 -0.4419 -0.2784 -0.0462
  254MOL0     C33422   1.465   5.203   2.764 -0.0335  0.1503 -0.0985
  254MOL0     C33423   1.334   5.208   2.719 -0.1157  0.2144  0.4076
  254MOL0     C33424   1.234   5.180   2.817 -0.6098 -0.4229  0.1272
  254MOL0     C33425   1.092   5.202   2.780  0.4589  0.5222 -0.5576
  254MOL0     O33426   1.060   5.244   2.656  0.0830  0.5997 -0.8936
  254MOL0     C33427   0.929   5.272   2.608 -0.0353 -0.0375  0.3870
  254MOL0     C33428   0.816   5.292   2.687  0.2395  0.4934  0.0816
  254MOL0     C33429   0.695   5.332   2.636 -0.3920 -0.0280  0.8366
  254MOL0     C33430   0.678   5.347   2.499 -0.1576  0.9689  0.2383
  254MOL0     O33431   0.563   5.391   2.436  0.1668  0.3737 -0.5116
  254MOL0     C33432   0.442   5.396   2.508  0.5253  0.6043 -0.5999
  254MOL0     C33433   0.307   5.417   2.433  0.5275 -0.3912  0.1849
  254MOL0     C33434   0.179   5.444   2.509 -0.4831  0.3633  0.0380
  254MOL0     C33435   0.053   5.403   2.426  0.9970  0.5176  0.4723
  254MOL0     C33436  -0.074   5.436   2.510 -0.3029  0.4364  0.2908
  254MOL0     C33437  -0.117   5.312   2.588  0.3213 -0.1350  0.0013
  254MOL0     C33438  -0.210   5.341   2.717 -0.5724  0.6607  0.8597
  254MOL0     C33439  -0.330   5.417   2.686  0.3559 -0.1196 -0.5065
  254MOL0    Cl33440  -0.409   5.378   2.532 -0.8135  0.1500  0.3492
  254MOL0     C33441   0.793   5.316   2.416  0.5184 -1.0604 -1.0734
  254MOL0     C33442   0.917   5.282   2.475  0.0600  0.1729  1.1534
  254MOL0     O33443   1.012   5.171   2.866  0.1576  0.0480  0.0741
  254MOL0     C33444   1.277   5.147   2.939 -0.7874 -0.1520 -0.3155
  254MOL0     C33445   1.406   5.113   2.977  0.3939 -0.6572  0.6111
  254MOL0     N33446   2.144   4.752   2.769  0.3298 -0.2173 -0.1246
  254MOL0     N33447   2.159   4.630   2.795 -0.3913  0.2977  0.8857
  254MOL0     C33448   2.924   4.393   2.505  0.0473 -0.0321  0.3218
  254MOL0     C33449   3.039   4.403   2.430 -0.1894 -0.6404  0.7827
  254MOL0     C33450   3.380   4.325   2.125  0.6458 -0.1466  0.3940
  254MOL0     C33451   3.466   4.388   2.214  0.0137  0.2124  0.2720
  254MOL0     C33452   3.597   4.422   2.177 -0.3758  0.0979  0.2222
  254MOL0     C33453   3.642   4.395   2.044 -0.1743 -0.8933  0.0978
  254MOL0     O33454   3.767   4.444   1.998  0.1692  0.6265  0.1443
  254MOL0     C33455   3.844   4.344   1.934  0.1281 -0.1785 -0.0383
  254MOL0     C33456   3.979   4.326   2.008  0.1977 -0.2324 -0.3840
  254MOL0     C33457   3.962   4.259   2.140  0.8844 -0.1204 -1.0663
  254MOL0     C33458   4.016   4.345   2.257  0.0100 -0.5934  0.9799
  254MOL0     C33459   4.056   4.272   2.377  0.1187  0.9798  0.6701
  254MOL0     C33460   4.081   4.206   2.479 -0.6045  0.6352  0.1022
  254MOL0     C33461   3.542   4.352   1.952  0.7213  0.5877  0.6081
  254MOL0     C33462   3.418   4.310   1.990  0.6703 -0.6351 -0.4396
  254MOL0     H33463   3.070   4.103   2.302  1.4041  1.1616 -0.7307
  254MOL0     H33464   2.865   4.067   2.444  1.8079 -0.4383 -0.3807
  254MOL0     H33465   2.640   4.392   2.510 -0.5958  0.6753  0.4375
  254MOL0     H33466   2.681   4.416   2.688  0.9286 -3.3044  1.2808
  254MOL0     H33467   2.503   4.217   2.549 -0.3515  2.0057 -1.4977
  254MOL0     H33468   2.447   4.360   2.635 -0.5594  0.1210 -3.1555
  254MOL0     H33469   2.616   4.161   2.801  0.3396  2.3912 -1.3615
  254MOL0     H33470   2.460   4.108   2.761 -1.3256  0.9586 -1.1206
  254MOL0     H33471   2.515   4.245   2.987 -0.9343 -1.9486 -0.9182
  254MOL0     H33472   2.518   4.386   2.885 -0.0500  0.3086  2.0143
  254MOL0     H33473   2.285   4.197   2.949  0.1349 -1.3464 -4.7514
  254MOL0     H33474   2.271   4.323   2.838  1.0640 -1.2606 -0.9768
  254MOL0     H33475   2.350   4.503   2.997 -3.2852  0.6388 -1.4304
  254MOL0     H33476   2.376   4.394   3.122 -2.9831 -3.3883  1.8206
  254MOL0     H33477   2.131   4.337   3.140  1.8762  0.1714  2.1911
  254MOL0     H33478   2.156   4.505   3.157 -2.6557  0.3394 -0.2511
  254MOL0     H33479   1.967   4.473   3.009  0.1446  0.7949 -0.8510
  254MOL0     H33480   2.067   4.387   2.886  1.8326 -1.8827  2.1839
  254MOL0     H33481   1.977   4.723   3.054  1.2994  2.5084 -0.1876
  254MOL0     H33482   2.120   5.008   2.859 -0.4807  0.3533 -0.7032
  254MOL0     H33483   2.045   4.968   3.013 -0.8440 -2.0987 -0.2479
  254MOL0     H33484   1.823   4.927   2.922 -0.3000 -0.6528 -0.5650
  254MOL0     H33485   1.885   4.952   2.763 -2.6478  0.2498  0.5507
  254MOL0     H33486   1.876   5.169   2.996  0.5331 -0.2411  0.4105
  254MOL0     H33487   1.961   5.184   2.835 -0.8743  0.8648 -1.1743
  254MOL0     H33488   1.729   5.121   2.744 -1.4818 -0.7836  0.6871
  254MOL0     H33489   1.745   5.285   2.823 -2.1237  0.3164 -1.0726
  254MOL0     H33490   1.543   5.254   2.709  1.6327 -2.1485 -0.0094
  254MOL0     H33491   1.316   5.244   2.618 -0.3829 -0.8441  0.0639
  254MOL0     H33492   0.821   5.278   2.795  3.3197  3.7061  0.5031
  254MOL0     H33493   0.614   5.346   2.708 -2.3156 -1.5336 -0.9095
  254MOL0     H33494   0.447   5.488   2.566 -2.9368 -0.0442  0.9975
  254MOL0     H33495   0.430   5.308   2.573 -0.4299  0.0796 -1.4508
  254MOL0     H33496   0.286   5.328   2.374  0.3232 -0.2111 -0.0160
  254MOL0     H33497   0.299   5.500   2.362  0.3264 -1.6819 -1.3522
  254MOL0     H33498   0.183   5.549   2.537  1.4543 -0.2057  2.2449
  254MOL0     H33499   0.166   5.386   2.601 -3.2634 -0.0319 -0.5330
  254MOL0     H33500   0.059   5.462   2.334 -0.9656 -1.9741 -1.4065
  254MOL0     H33501   0.041   5.303   2.383 -1.2428  1.0692 -0.3241
  254MOL0     H33502  -0.158   5.460   2.445 -2.1754 -4.1179  0.7039
  254MOL0     H33503  -0.048   5.520   2.576  0.6109  0.3625  0.0353
  254MOL0     H33504  -0.029   5.256   2.620 -1.1487 -2.7637 -0.3016
  254MOL0     H33505  -0.169   5.240   2.524 -0.7578  0.4439  0.2005
  254MOL0     H33506  -0.243   5.240   2.744  1.8085 -0.2858  0.4494
  254MOL0     H33507  -0.143   5.378   2.795 -0.5816  0.4209  0.9836
  254MOL0     H33508  -0.300   5.522   2.679  0.3693 -0.2124 -2.1787
  254MOL0     H33509  -0.403   5.420   2.768 -1.2850  2.8841 -1.9110
  254MOL0     H33510   0.776   5.317   2.308  1.8013 -1.7044 -1.2989
  254MOL0     H33511   0.992   5.271   2.398  0.1997  4.3283  0.4242
  254MOL0     H33512   1.199   5.118   3.009 -1.4092  0.1526 -0.8691
  254MOL0     H33513   1.423   5.059   3.070 -1.3688 -0.7478  0.9133
  254MOL0     H33514   2.879   4.470   2.567  1.9570  0.1736  1.5124
  254MOL0     H33515   3.100   4.493   2.435 -0.7623 -0.1701 -0.3052
  254MOL0     H33516   3.432   4.410   2.314 -0.7150  2.9669 -0.4725
  254MOL0     H33517   3.674   4.461   2.243  1.3084 -3.9162  0.9410
  254MOL0     H33518   3.862   4.367   1.829  1.9691  0.2345  0.3394
  254MOL0     H33519   3.791   4.248   1.926 -2.4256  0.9457  2.0001
  254MOL0     H33520   4.053   4.262   1.960 -2.8518 -2.1372 -2.9999
  254MOL0     H33521   4.021   4.427   2.014 -2.0235  0.8861 -2.0339
  254MOL0     H33522   4.010   4.161   2.145 -1.1456 -1.1268 -0.2862
  254MOL0     H33523   3.854   4.245   2.152  0.4901  1.7632 -1.9110
  254MOL0     H33524   4.101   4.409   2.230  2.1040 -2.7760  2.0395
  254MOL0     H33525   3.936   4.413   2.291  1.1020  0.4173  1.6293
  254MOL0     H33526   4.107   4.159   2.572 -1.2543  1.3373  0.6526
  254MOL0     H33527   3.557   4.345   1.845 -0.6198 -0.1003  0.4418
  254MOL0     H33528   3.362   4.253   1.916  1.5668 -0.2559 -1.4419
  255MOL0     O33529   6.801   3.220   9.287 -0.2821 -0.2760 -0.7078
  255MOL0     C33530   6.815   3.320   9.360 -0.7363 -0.2728 -0.4127
  255MOL0     O33531   6.936   3.370   9.417  0.3716 -0.7743  0.1460
  255MOL0     C33532   7.057   3.303   9.411  1.0333 -0.4206  0.0619
  255MOL0     C33533   7.163   3.352   9.486  0.0240  0.2885  0.2361
  255MOL0     C33534   7.279   3.278   9.498 -0.5882 -0.6859  0.5287
  255MOL0     C33535   7.294   3.153   9.444 -0.3049  0.3196  0.2645
  255MOL0     O33536   7.411   3.088   9.480 -0.3176  0.4551 -0.9974
  255MOL0     C33537   7.441   2.959   9.417  0.2198 -0.2010  0.3481
  255MOL0     C33538   7.408   2.844   9.504  0.2822 -0.1115 -0.3757
  255MOL0     C33539   7.497   2.830   9.625 -0.1277 -0.0325  0.4924
  255MOL0     C33540   7.646   2.820   9.583 -0.0764  0.6626  0.3094
  255MOL0     C33541   7.679   2.711   9.474  0.0018 -0.7804  0.6517
  255MOL0     C33542   7.832   2.697   9.447  0.4663 -0.1855  0.3822
  255MOL0     C33543   7.868   2.545   9.417 -0.2660  0.8758 -0.1093
  255MOL0     C33544   7.860   2.498   9.272 -0.6280  0.4680  0.7419
  255MOL0     N33545   7.723   2.487   9.222 -0.3145  0.6959  0.9936
  255MOL0     C33546   7.617   2.418   9.276 -0.1128  0.1900  0.6096
  255MOL0     C33547   7.510   2.448   9.194 -0.2300  0.1060  0.3937
  255MOL0     C33548   7.368   2.399   9.216 -0.3548 -0.5158  0.5657
  255MOL0     C33549   7.262   2.502   9.166 -0.1420  0.1925  0.1024
  255MOL0     C33550   7.235   2.622   9.257 -0.4927  0.1956  0.4917
  255MOL0     C33551   7.202   2.585   9.402  0.5313 -0.2893 -0.4812
  255MOL0     O33552   7.138   2.694   9.473  0.1954  0.0156 -0.2946
  255MOL0     C33553   6.999   2.710   9.457 -0.4730  1.6539 -0.4779
  255MOL0     C33554   6.953   2.832   9.500  0.0656 -0.1708 -0.6074
  255MOL0     C33555   6.819   2.864   9.495  0.5235  0.1086 -0.7092
  255MOL0     C33556   6.727   2.782   9.432  0.2649 -0.2591  0.1699
  255MOL0     C33557   6.580   2.819   9.420 -0.4842  0.3322 -0.1524
  255MOL0     O33558   6.548   2.949   9.456 -0.0172 -0.0574  0.6195
  255MOL0     C33559   6.420   2.995   9.452  0.7459  0.1960 -0.3366
  255MOL0     C33560   6.314   2.939   9.527 -0.6495  0.2843  0.2075
  255MOL0     C33561   6.184   2.989   9.509 -0.3875 -0.5115 -0.1071
  255MOL0     C33562   6.164   3.105   9.426 -0.0473  0.8676  0.3197
  255MOL0     O33563   6.031   3.150   9.421 -0.6305 -0.7178 -0.2655
  255MOL0     C33564   6.014   3.286   9.373  0.1299  0.0602 -0.0050
  255MOL0     C33565   5.861   3.314   9.367 -0.5143 -0.3728 -0.0726
  255MOL0     C33566   5.776   3.203   9.290  0.9155 -0.5342  0.3291
  255MOL0     C33567   5.624   3.211   9.326  0.4326 -0.4986  0.2593
  255MOL0     C33568   5.554   3.120   9.227  0.2654  0.2166  0.2581
  255MOL0     C33569   5.557   2.965   9.263 -0.1044 -0.1036 -0.0198
  255MOL0     C33570   5.446   2.937   9.363  0.9470 -0.0858  0.4321
  255MOL0     C33571   5.440   2.791   9.412 -0.4029  0.4614 -0.6937
  255MOL0    Cl33572   5.421   2.670   9.279 -0.5755 -0.1991 -0.2707
  255MOL0     C33573   6.271   3.155   9.360  0.1914  0.3114 -0.0420
  255MOL0     C33574   6.400   3.098   9.364 -0.1314  0.7095  0.0880
  255MOL0     O33575   6.502   2.732   9.379  0.8935 -0.9346  0.5020
  255MOL0     C33576   6.778   2.669   9.380 -0.0673  0.0205 -0.5312
  255MOL0     C33577   6.911   2.625   9.398  0.3119 -0.4449  0.2079
  255MOL0     N33578   7.555   2.535   9.091 -0.2540 -0.7254 -0.1463
  255MOL0     N33579   7.685   2.552   9.106  0.4114 -0.1520  0.3345
  255MOL0     C33580   7.198   3.113   9.353 -0.1573  0.3794  0.7542
  255MOL0     C33581   7.078   3.185   9.340  0.0734  1.0915  0.9121
  255MOL0     C33582   6.694   3.412   9.383 -0.3347 -0.2893  0.3904
  255MOL0     C33583   6.691   3.514   9.485  0.0208 -0.4069  0.0877
  255MOL0     C33584   6.587   3.603   9.502 -0.0367  0.4214  0.8954
  255MOL0     C33585   6.470   3.589   9.427 -0.5506 -0.4348  0.0712
  255MOL0     O33586   6.363   3.673   9.449  0.1336 -0.0026  0.1711
  255MOL0     C33587   6.228   3.648   9.398 -0.4936  0.5768  0.3627
  255MOL0     C33588   6.141   3.746   9.457 -0.8072  0.3797  0.0302
  255MOL0     C33589   5.997   3.747   9.394  0.0774 -0.3737  0.2497
  255MOL0     C33590   5.917   3.859   9.462  0.3095  0.6934 -0.3205
  255MOL0     C33591   5.790   3.879   9.393 -0.0256  0.6531 -0.3465
  255MOL0     C33592   5.680   3.897   9.349  0.3601  0.1215 -0.8641
  255MOL0     C33593   6.462   3.497   9.320 -0.0301  0.3113 -0.6289
  255MOL0     C33594   6.571   3.403   9.313  0.1069 -0.5009  0.3010
  255MOL0     H33595   7.137   3.442   9.541 -0.3129  0.5938 -0.4115
  255MOL0     H33596   7.357   3.314   9.565 -2.6279  1.0804  2.0808
  255MOL0     H33597   7.545   2.963   9.383 -0.2825 -0.8034 -1.4153
  255MOL0     H33598   7.384   2.957   9.323  0.2034  1.1594  0.3157
  255MOL0     H33599   7.415   2.754   9.442  1.0367 -1.4598  1.5663
  255MOL0     H33600   7.302   2.859   9.529  0.4293  1.2729 -0.4904
  255MOL0     H33601   7.472   2.741   9.684 -0.0107 -1.1630 -1.1029
  255MOL0     H33602   7.490   2.920   9.688  1.8845  3.0075 -3.2344
  255MOL0     H33603   7.679   2.921   9.556 -0.0956  0.8662  1.0228
  255MOL0     H33604   7.708   2.791   9.669  1.6953  0.6669 -0.9149
  255MOL0     H33605   7.637   2.740   9.377 -2.1159  0.5082  1.8577
  255MOL0     H33606   7.636   2.615   9.504  0.5673 -0.3649  3.0106
  255MOL0     H33607   7.891   2.733   9.533  0.2289 -0.7062  0.7720
  255MOL0     H33608   7.864   2.755   9.361  1.6993  0.4561  1.2312
  255MOL0     H33609   7.967   2.524   9.457 -1.3652  2.1524  3.7226
  255MOL0     H33610   7.792   2.493   9.476 -0.3588 -0.0810 -1.0553
  255MOL0     H33611   7.911   2.403   9.260 -0.5031  0.6735 -0.4874
  255MOL0     H33612   7.922   2.567   9.214 -0.3302  0.5576  1.1673
  255MOL0     H33613   7.606   2.353   9.363 -0.0850  0.4270  0.7916
  255MOL0     H33614   7.351   2.378   9.322 -2.5533  1.2302  0.6447
  255MOL0     H33615   7.360   2.307   9.158  0.3514  0.2560 -0.8285
  255MOL0     H33616   7.163   2.456   9.153 -0.6146  1.2111  0.0131
  255MOL0     H33617   7.269   2.551   9.068 -2.3493  2.3951  0.9354
  255MOL0     H33618   7.322   2.688   9.255  0.6822 -1.3104  0.5174
  255MOL0     H33619   7.160   2.692   9.218 -0.6700 -0.6115 -0.6616
  255MOL0     H33620   7.300   2.579   9.450  1.1810  4.9727 -0.5886
  255MOL0     H33621   7.152   2.491   9.426 -0.5004  0.8955  2.3885
  255MOL0     H33622   7.012   2.914   9.541 -0.5040  0.0255 -0.1629
  255MOL0     H33623   6.788   2.967   9.513 -0.0391  0.4360 -3.1633
  255MOL0     H33624   6.334   2.848   9.581 -2.8536 -0.0688  0.5055
  255MOL0     H33625   6.097   2.948   9.560  0.8506 -2.0698  0.8343
  255MOL0     H33626   6.053   3.290   9.271 -1.4455 -0.5228 -0.6660
  255MOL0     H33627   6.060   3.358   9.441 -1.0160  0.4411  0.4058
  255MOL0     H33628   5.843   3.415   9.329  0.5967  0.4428  1.4255
  255MOL0     H33629   5.832   3.311   9.473  2.7458 -2.8240  0.9390
  255MOL0     H33630   5.811   3.102   9.310 -0.8477 -2.2159 -3.9986
  255MOL0     H33631   5.783   3.215   9.181 -1.1490 -0.9250  0.1040
  255MOL0     H33632   5.611   3.181   9.430 -1.2418  1.6748  0.7591
  255MOL0     H33633   5.591   3.315   9.329 -3.7209 -1.6260  1.3022
  255MOL0     H33634   5.592   3.141   9.126 -0.1040  2.7382  0.5629
  255MOL0     H33635   5.449   3.150   9.222  0.3370  0.3665 -0.6750
  255MOL0     H33636   5.653   2.945   9.310 -1.3273  1.1121  3.2671
  255MOL0     H33637   5.540   2.915   9.167  0.9117 -0.4091 -0.0435
  255MOL0     H33638   5.472   3.009   9.440  1.2744  3.1987 -2.4856
  255MOL0     H33639   5.347   2.960   9.323  1.5779 -0.8448 -1.7305
  255MOL0     H33640   5.356   2.779   9.481 -1.7020 -0.7949 -2.4073
  255MOL0     H33641   5.533   2.774   9.467 -0.2552  2.3257 -0.3067
  255MOL0     H33642   6.268   3.241   9.295  0.6538  0.6967  0.4335
  255MOL0     H33643   6.477   3.139   9.300 -2.5670  1.1509 -2.7863
  255MOL0     H33644   6.709   2.612   9.318 -0.0523  0.4086 -0.9021
  255MOL0     H33645   6.944   2.529   9.362 -1.8932 -1.4164  0.6170
  255MOL0     H33646   7.210   3.024   9.293  1.1875  1.4941 -0.6774
  255MOL0     H33647   7.014   3.143   9.263  1.7520 -0.7223  0.4212
  255MOL0     H33648   6.777   3.519   9.552 -2.2302  1.2962  3.1257
  255MOL0     H33649   6.605   3.689   9.566  1.9121  1.8244 -1.3560
  255MOL0     H33650   6.205   3.544   9.424  2.0602  0.3024  1.8461
  255MOL0     H33651   6.233   3.655   9.289 -0.5547  3.1291  0.4811
  255MOL0     H33652   6.123   3.714   9.560  0.0160  0.7320  0.2966
  255MOL0     H33653   6.184   3.845   9.474  0.5158 -0.1399 -0.1508
  255MOL0     H33654   5.942   3.654   9.410  0.7695 -0.4403  2.7428
  255MOL0     H33655   6.005   3.759   9.286  2.2862 -1.1255  0.2754
  255MOL0     H33656   5.899   3.833   9.567  0.2070  2.4579  0.1329
  255MOL0     H33657   5.975   3.952   9.450 -0.5959  0.9907 -3.2434
  255MOL0     H33658   5.584   3.894   9.301 -0.6423 -2.7375  1.0603
  255MOL0     H33659   6.378   3.479   9.254  0.4105  2.9058 -2.0217
  255MOL0     H33660   6.570   3.323   9.240 -2.0221  0.2044 -0.5242
  256MOL0     O33661   1.644   2.895   4.101 -0.0283  0.2742  0.1048
  256MOL0     C33662   1.684   2.804   4.180 -0.2443 -0.4203 -0.3910
  256MOL0     O33663   1.604   2.726   4.255 -0.5757  0.2998  0.0279
  256MOL0     C33664   1.474   2.731   4.237 -0.2190 -0.5754 -0.1123
  256MOL0     C33665   1.400   2.824   4.314  0.8300 -0.3973 -0.0955
  256MOL0     C33666   1.263   2.840   4.302  0.0502  0.3881  0.1672
  256MOL0     C33667   1.198   2.762   4.206 -0.1663  0.3465 -0.0130
  256MOL0     O33668   1.060   2.776   4.173  0.3673 -0.1160 -0.7751
  256MOL0     C33669   0.981   2.837   4.279 -0.7791 -0.2241 -1.3931
  256MOL0     C33670   0.841   2.791   4.249 -0.1389 -0.0714 -0.2802
  256MOL0     C33671   0.792   2.891   4.154 -0.3390 -0.9900  0.0678
  256MOL0     C33672   0.653   2.872   4.094 -0.0172 -0.5272 -0.2888
  256MOL0     C33673   0.549   2.874   4.206  0.5282 -0.4382 -1.1971
  256MOL0     C33674   0.409   2.877   4.139 -0.0534 -0.1051  0.5763
  256MOL0     C33675   0.312   2.892   4.256 -0.1835  0.1012  0.1677
  256MOL0     C33676   0.166   2.887   4.201  1.2047 -0.7930  0.4174
  256MOL0     N33677   0.064   2.931   4.308 -0.0239  0.1049  0.4726
  256MOL0     C33678   0.055   3.057   4.362 -0.0176  0.0543 -0.0731
  256MOL0     C33679  -0.045   3.053   4.449 -0.7473  0.3197 -0.7114
  256MOL0     C33680  -0.088   3.163   4.537  0.5557 -0.1175 -0.0807
  256MOL0     C33681  -0.189   3.120   4.639 -0.6377  0.3089 -0.4287
  256MOL0     C33682  -0.288   3.232   4.663 -1.0572 -0.1871 -0.2556
  256MOL0     C33683  -0.401   3.188   4.767 -0.2510 -0.2309  0.5154
  256MOL0     O33684  -0.454   3.068   4.711 -0.1804 -0.7442  0.1030
  256MOL0     C33685  -0.548   2.997   4.782  1.1086  0.1026 -0.7747
  256MOL0     C33686  -0.609   3.038   4.900 -0.6227 -0.2810  0.5268
  256MOL0     C33687  -0.713   2.962   4.958  0.0549  0.3315  0.1662
  256MOL0     C33688  -0.763   2.843   4.898  0.3758  0.7732 -0.1316
  256MOL0     C33689  -0.866   2.764   4.960 -0.1319  0.4477 -0.2545
  256MOL0     O33690  -0.935   2.822   5.067 -0.3316 -0.2988  0.2937
  256MOL0     C33691  -1.050   2.760   5.105 -0.6922  0.2713  0.0143
  256MOL0     C33692  -1.157   2.808   5.039 -0.4609 -0.0807 -1.0426
  256MOL0     C33693  -1.285   2.778   5.091 -0.3725 -0.3491  0.1466
  256MOL0     C33694  -1.306   2.708   5.211 -0.2063  0.0074 -0.6158
  256MOL0     O33695  -1.427   2.667   5.265  0.8581  1.1477 -0.1037
  256MOL0     C33696  -1.544   2.731   5.221 -0.4410 -0.4799  0.2992
  256MOL0     C33697  -1.664   2.704   5.304 -0.3849 -0.2211  0.9058
  256MOL0     C33698  -1.680   2.792   5.424 -0.1653  0.0961 -0.0131
  256MOL0     C33699  -1.811   2.755   5.489  0.0001  0.3494 -0.9521
  256MOL0     C33700  -1.869   2.870   5.571 -0.5153  0.3434  0.3680
  256MOL0     C33701  -2.004   2.822   5.637 -0.9660 -0.8225  0.0616
  256MOL0     C33702  -2.084   2.929   5.708 -0.1677  0.6726  0.2285
  256MOL0     C33703  -2.165   2.857   5.823 -0.2432  0.2623  0.1033
  256MOL0    Cl33704  -2.285   2.757   5.732 -0.0696  0.8431  0.0017
  256MOL0     C33705  -1.191   2.656   5.278 -0.3015 -0.2599  0.5947
  256MOL0     C33706  -1.057   2.683   5.225 -0.9542 -0.8472 -0.6189
  256MOL0     O33707  -0.892   2.658   4.909  0.6839 -0.1246 -0.2980
  256MOL0     C33708  -0.695   2.790   4.782 -0.8227 -0.5711  0.8544
  256MOL0     C33709  -0.588   2.867   4.727  0.2470  0.3555  0.0257
  256MOL0     N33710  -0.091   2.921   4.446 -0.1579  0.1595 -0.7128
  256MOL0     N33711  -0.018   2.846   4.370 -0.3618  0.3640 -0.5718
  256MOL0     C33712   1.273   2.681   4.122 -0.0768 -0.2585  0.3589
  256MOL0     C33713   1.407   2.668   4.136 -0.2248 -0.5049  0.7272
  256MOL0     C33714   1.833   2.796   4.218 -0.2237  0.1195  0.3354
  256MOL0     C33715   1.871   2.733   4.339  0.5976 -0.0237  1.0827
  256MOL0     C33716   2.007   2.726   4.373  0.2257  0.0365 -0.3451
  256MOL0     C33717   2.113   2.782   4.300  0.3869 -0.5491  0.1967
  256MOL0     O33718   2.243   2.783   4.322 -0.5328  0.2541  0.0487
  256MOL0     C33719   2.304   2.731   4.445  0.5108 -0.0999 -0.2844
  256MOL0     C33720   2.460   2.760   4.434 -0.5912 -0.5735 -0.0942
  256MOL0     C33721   2.524   2.785   4.577  0.0706  0.5658 -0.3424
  256MOL0     C33722   2.665   2.834   4.566 -0.6778  1.1236  0.8161
  256MOL0     C33723   2.736   2.822   4.691 -0.3581 -0.1055  0.2263
  256MOL0     C33724   2.782   2.816   4.804 -0.7712 -0.1278  0.0332
  256MOL0     C33725   2.071   2.847   4.184 -0.5817 -0.3625 -0.9220
  256MOL0     C33726   1.942   2.858   4.143  1.9582 -0.0674  0.6880
  256MOL0     H33727   1.453   2.868   4.398  0.4675 -0.9425  0.4239
  256MOL0     H33728   1.218   2.920   4.360  1.8827 -0.9356  3.7086
  256MOL0     H33729   0.990   2.946   4.283  0.0642 -0.3307  0.7778
  256MOL0     H33730   1.017   2.804   4.376 -0.0645  0.0014 -1.5795
  256MOL0     H33731   0.789   2.810   4.343 -2.5004  2.4501 -1.9603
  256MOL0     H33732   0.827   2.692   4.206 -2.0860 -0.3872  0.9923
  256MOL0     H33733   0.858   2.891   4.066 -0.5089  0.6930 -0.0925
  256MOL0     H33734   0.790   2.994   4.190  0.2945 -0.9292 -0.0549
  256MOL0     H33735   0.626   2.955   4.029 -0.6773 -1.0813 -0.7308
  256MOL0     H33736   0.639   2.786   4.028 -0.6039 -1.4517  0.9905
  256MOL0     H33737   0.551   2.969   4.261  0.6705 -1.7341  1.1518
  256MOL0     H33738   0.557   2.793   4.279  1.0508 -0.6172 -1.4483
  256MOL0     H33739   0.380   2.786   4.087 -3.2813  1.2414 -0.2211
  256MOL0     H33740   0.393   2.959   4.069  1.4775  0.7290  1.1490
  256MOL0     H33741   0.337   2.815   4.330  1.6457  1.3018  0.8663
  256MOL0     H33742   0.344   2.985   4.305  1.7911 -0.4865  0.0518
  256MOL0     H33743   0.136   2.790   4.160 -1.6148  1.5114 -3.7633
  256MOL0     H33744   0.165   2.957   4.117 -0.7601  1.0101  1.8442
  256MOL0     H33745   0.130   3.135   4.352  1.5230 -1.5473 -2.1309
  256MOL0     H33746  -0.139   3.238   4.476  1.2025 -0.6394 -1.2985
  256MOL0     H33747  -0.005   3.218   4.581  1.0786 -1.8539  1.2039
  256MOL0     H33748  -0.137   3.101   4.733 -0.9024  0.5244 -0.2340
  256MOL0     H33749  -0.246   3.031   4.610 -2.0846 -0.0831  3.1518
  256MOL0     H33750  -0.248   3.331   4.686  0.0937 -0.4240 -1.1313
  256MOL0     H33751  -0.330   3.255   4.564 -5.5064  0.4329  1.5088
  256MOL0     H33752  -0.473   3.270   4.779  0.9091  1.0194 -0.7702
  256MOL0     H33753  -0.359   3.160   4.863  1.7081  2.8844  0.7008
  256MOL0     H33754  -0.580   3.134   4.941 -0.4899  0.3360 -0.9595
  256MOL0     H33755  -0.750   3.005   5.051 -2.9910  1.9376 -1.6294
  256MOL0     H33756  -1.132   2.878   4.960  1.5294  0.5612  0.0977
  256MOL0     H33757  -1.373   2.820   5.044 -0.7802  2.7739  3.2459
  256MOL0     H33758  -1.562   2.715   5.114 -1.2080  1.1859  0.1585
  256MOL0     H33759  -1.531   2.838   5.201  1.2767 -0.5837  0.7007
  256MOL0     H33760  -1.649   2.603   5.342  2.5568  0.4961  1.8915
  256MOL0     H33761  -1.740   2.714   5.226  1.3154  3.9778 -0.5396
  256MOL0     H33762  -1.669   2.896   5.393  0.7207 -0.3857 -1.4694
  256MOL0     H33763  -1.599   2.770   5.494 -2.6277 -0.6461  2.8157
  256MOL0     H33764  -1.890   2.732   5.416 -0.7278  1.0978 -0.4182
  256MOL0     H33765  -1.788   2.674   5.559  0.3494  2.2219  1.2149
  256MOL0     H33766  -1.886   2.949   5.499 -0.0651 -0.6822 -0.8999
  256MOL0     H33767  -1.792   2.903   5.641  0.8886 -1.8035 -0.0542
  256MOL0     H33768  -1.974   2.747   5.711 -0.5859  0.6728  1.4700
  256MOL0     H33769  -2.061   2.782   5.552 -1.7115  2.6688 -1.2473
  256MOL0     H33770  -2.023   3.005   5.758 -1.5342  1.1322  1.2520
  256MOL0     H33771  -2.147   2.989   5.641  0.4850  0.1862 -0.8478
  256MOL0     H33772  -2.219   2.928   5.887 -2.7300 -0.3860 -1.1259
  256MOL0     H33773  -2.104   2.788   5.882 -1.5743  0.7823  2.2116
  256MOL0     H33774  -1.206   2.603   5.372 -1.8210 -0.8424  0.0636
  256MOL0     H33775  -0.967   2.648   5.274 -0.6924  1.7640  0.9676
  256MOL0     H33776  -0.733   2.705   4.728 -1.5423  1.3033 -1.7826
  256MOL0     H33777  -0.536   2.825   4.642 -1.2442  1.4149 -1.4774
  256MOL0     H33778   1.216   2.616   4.055 -1.6831 -0.3295  1.7277
  256MOL0     H33779   1.458   2.603   4.064  1.8062  3.2684 -1.5500
  256MOL0     H33780   1.793   2.695   4.405 -2.1799  3.5794  0.2094
  256MOL0     H33781   2.020   2.671   4.465  0.2709  2.5879  1.2836
  256MOL0     H33782   2.300   2.622   4.432  1.7486 -0.0075 -1.7250
  256MOL0     H33783   2.259   2.767   4.538 -0.4024  1.9081 -1.4609
  256MOL0     H33784   2.516   2.686   4.377  2.3815  0.7845  0.8727
  256MOL0     H33785   2.479   2.854   4.381  0.1627  0.3777  1.7705
  256MOL0     H33786   2.520   2.688   4.628 -2.2534  1.8465  2.0884
  256MOL0     H33787   2.474   2.862   4.636 -0.8458  0.9922 -1.6344
  256MOL0     H33788   2.725   2.785   4.489 -2.6083  0.5701 -0.4228
  256MOL0     H33789   2.657   2.940   4.542  0.3570  1.0209 -0.0469
  256MOL0     H33790   2.831   2.819   4.899  2.9619  0.4492 -1.7359
  256MOL0     H33791   2.152   2.889   4.125  1.6920 -0.1428  2.1345
  256MOL0     H33792   1.920   2.906   4.048 -2.6607 -2.0086  0.5158
  257MOL0     O33793   5.916   3.596   8.102  0.5639  0.5852  0.6918
  257MOL0     C33794   6.013   3.656   8.142 -0.1875  0.2237  0.6248
  257MOL0     O33795   6.030   3.692   8.279 -0.0487 -0.1513  0.1704
  257MOL0     C33796   5.952   3.650   8.376 -0.1445 -1.0591  0.2439
  257MOL0     C33797   6.012   3.573   8.482 -0.4662  1.3730 -0.0777
  257MOL0     C33798   5.928   3.531   8.585  0.3340  0.4837 -0.4781
  257MOL0     C33799   5.793   3.550   8.578  0.0254  0.9998  0.1708
  257MOL0     O33800   5.701   3.506   8.661  0.0255 -0.1456  0.2886
  257MOL0     C33801   5.729   3.366   8.701 -0.7176 -1.0957  0.0744
  257MOL0     C33802   5.628   3.334   8.810 -1.0697 -0.6259  0.4714
  257MOL0     C33803   5.495   3.286   8.757  0.5925 -1.3301 -0.1917
  257MOL0     C33804   5.410   3.220   8.861  0.2387  0.8708  0.0480
  257MOL0     C33805   5.295   3.151   8.803  0.4865  0.3892 -0.1351
  257MOL0     C33806   5.195   3.243   8.729 -0.1673 -0.9824 -0.5315
  257MOL0     C33807   5.081   3.154   8.666 -0.1664 -0.8631  0.7316
  257MOL0     C33808   4.981   3.109   8.773 -0.3781  0.1036 -0.4134
  257MOL0     N33809   4.873   3.044   8.707 -0.4233  0.7879  0.0379
  257MOL0     C33810   4.871   2.913   8.663  1.5357  0.3079  0.7979
  257MOL0     C33811   4.748   2.901   8.614 -0.0564  0.7421 -0.6442
  257MOL0     C33812   4.712   2.771   8.539 -0.5078  0.0407 -0.2301
  257MOL0     C33813   4.601   2.796   8.442 -0.3711 -1.3797  0.2647
  257MOL0     C33814   4.469   2.787   8.509  0.4858 -0.0537  0.2340
  257MOL0     C33815   4.355   2.843   8.418  0.0135 -0.0369 -0.0501
  257MOL0     O33816   4.234   2.865   8.488 -0.0473 -0.0021 -0.7037
  257MOL0     C33817   4.129   2.780   8.464 -0.3687 -0.0430  0.4645
  257MOL0     C33818   4.124   2.658   8.532  0.2519 -0.5422  0.6087
  257MOL0     C33819   4.021   2.571   8.496 -0.3562 -1.1093  0.6797
  257MOL0     C33820   3.934   2.590   8.390 -0.6927  0.0559  0.6620
  257MOL0     C33821   3.818   2.519   8.377  0.6749  0.4300 -0.9177
  257MOL0     O33822   3.696   2.594   8.367  0.3669  0.1719  0.2981
  257MOL0     C33823   3.571   2.536   8.359 -0.0621 -0.2678 -0.1253
  257MOL0     C33824   3.541   2.427   8.271  1.3811 -0.9162 -0.0378
  257MOL0     C33825   3.402   2.383   8.277  1.0208 -0.1926  0.1779
  257MOL0     C33826   3.303   2.433   8.360 -0.0269  0.3609  0.5590
  257MOL0     O33827   3.173   2.374   8.356 -0.2765  0.7161 -0.0836
  257MOL0     C33828   3.064   2.423   8.430 -0.2715 -0.4028  0.1847
  257MOL0     C33829   2.949   2.329   8.395 -0.7652  0.0733  0.3183
  257MOL0     C33830   2.810   2.375   8.448 -0.2549  1.0080 -0.2432
  257MOL0     C33831   2.794   2.360   8.598 -0.0982  0.2471  0.3651
  257MOL0     C33832   2.818   2.229   8.666 -1.0416 -0.7068 -0.4653
  257MOL0     C33833   2.726   2.130   8.626 -0.6043  0.2550  0.4118
  257MOL0     C33834   2.741   1.997   8.713  0.3156 -0.5991 -0.3352
  257MOL0     C33835   2.607   1.920   8.694 -0.1750  0.2930 -0.4143
  257MOL0    Cl33836   2.584   1.860   8.533 -0.0561 -0.3043 -0.0938
  257MOL0     C33837   3.342   2.537   8.439  0.1202 -0.2096 -0.7886
  257MOL0     C33838   3.474   2.599   8.439 -0.0610 -0.3099  0.3649
  257MOL0     O33839   3.819   2.397   8.392  0.0252 -0.0690  0.1639
  257MOL0     C33840   3.942   2.717   8.325  0.2598 -0.2529 -0.3574
  257MOL0     C33841   4.044   2.811   8.354 -0.3380  0.3271 -0.4411
  257MOL0     N33842   4.678   3.014   8.627  0.2020  0.6141  0.6203
  257MOL0     N33843   4.750   3.097   8.691 -0.2034 -0.2246  0.2233
  257MOL0     C33844   5.731   3.623   8.481 -0.2194  0.6145  0.6475
  257MOL0     C33845   5.814   3.676   8.384  0.3538 -0.5625 -0.2343
  257MOL0     C33846   6.129   3.700   8.054  0.5914  0.2868  0.5532
  257MOL0     C33847   6.134   3.684   7.914  0.2143  0.9411  0.3137
  257MOL0     C33848   6.249   3.694   7.838 -0.3284 -0.3774 -0.3030
  257MOL0     C33849   6.363   3.721   7.897 -0.7791 -0.2624  0.0474
  257MOL0     O33850   6.471   3.703   7.810 -0.3153 -0.2665  0.3986
  257MOL0     C33851   6.606   3.749   7.850 -0.3308  0.2002  0.0581
  257MOL0     C33852   6.613   3.903   7.851  0.0455  0.2306  0.0570
  257MOL0     C33853   6.602   3.951   7.703  0.1851 -0.4984 -0.2011
  257MOL0     C33854   6.666   4.088   7.684  0.2846  0.1446 -0.4060
  257MOL0     C33855   6.808   4.093   7.707 -0.3881  0.6168  0.8574
  257MOL0     C33856   6.926   4.081   7.729 -0.3065  0.8115  0.6800
  257MOL0     C33857   6.363   3.766   8.028 -0.6631 -0.9945  0.3974
  257MOL0     C33858   6.248   3.749   8.107 -1.3384  0.0872  0.1617
  257MOL0     H33859   6.119   3.557   8.478 -0.8420 -1.3162 -2.8608
  257MOL0     H33860   5.963   3.472   8.669 -1.6410 -0.3625 -0.1710
  257MOL0     H33861   5.831   3.348   8.737 -0.7405 -0.9731  0.1969
  257MOL0     H33862   5.704   3.292   8.624 -3.3387 -2.3230  1.9633
  257MOL0     H33863   5.607   3.426   8.867 -2.0567 -0.3199 -0.3546
  257MOL0     H33864   5.677   3.256   8.869 -1.0551  0.0218  1.3303
  257MOL0     H33865   5.515   3.218   8.674 -2.1095 -0.3263 -1.7922
  257MOL0     H33866   5.445   3.373   8.714 -0.2836 -1.6960  0.0697
  257MOL0     H33867   5.469   3.152   8.923 -2.4430 -1.6656  0.0391
  257MOL0     H33868   5.365   3.292   8.929  3.2831 -0.4354  3.8154
  257MOL0     H33869   5.240   3.094   8.879  1.3069 -1.9562 -1.1778
  257MOL0     H33870   5.328   3.062   8.747  0.7570 -1.4842  2.7922
  257MOL0     H33871   5.254   3.279   8.644  1.9605 -3.1470 -0.0525
  257MOL0     H33872   5.168   3.330   8.789  6.1199  1.0433 -0.0032
  257MOL0     H33873   5.026   3.205   8.587 -1.0069 -0.9091  1.2734
  257MOL0     H33874   5.135   3.074   8.617  0.9754 -1.5533  2.9706
  257MOL0     H33875   4.945   3.193   8.833  0.8482 -1.1042  2.1548
  257MOL0     H33876   5.027   3.042   8.847 -0.4610  0.5996  0.0950
  257MOL0     H33877   4.941   2.830   8.657  0.6311 -0.7111  3.0620
  257MOL0     H33878   4.674   2.699   8.613 -0.8217 -0.5881 -0.9814
  257MOL0     H33879   4.797   2.726   8.487 -1.4745  1.3660 -3.1293
  257MOL0     H33880   4.612   2.725   8.360 -2.1712  0.6043 -1.8474
  257MOL0     H33881   4.615   2.886   8.380  1.0218 -0.6237  1.5847
  257MOL0     H33882   4.442   2.681   8.519  0.5624 -0.3605 -2.1589
  257MOL0     H33883   4.466   2.844   8.602 -2.8662  0.7372 -0.2234
  257MOL0     H33884   4.332   2.765   8.345 -2.8589 -1.1058  1.8084
  257MOL0     H33885   4.393   2.934   8.371  0.3992  0.4934  1.2274
  257MOL0     H33886   4.201   2.632   8.604  0.3076 -0.9040  0.4180
  257MOL0     H33887   4.036   2.472   8.539  1.4478 -0.8326  0.7596
  257MOL0     H33888   3.624   2.386   8.214  2.1084  0.6694 -0.1876
  257MOL0     H33889   3.370   2.296   8.220 -2.5625  1.4380 -0.5870
  257MOL0     H33890   3.058   2.524   8.390  1.9480 -0.3813 -0.2257
  257MOL0     H33891   3.084   2.424   8.538 -1.3038 -1.4135  0.4029
  257MOL0     H33892   2.968   2.227   8.430 -1.6443 -0.5664 -0.9924
  257MOL0     H33893   2.947   2.331   8.286 -1.4753 -0.5347  0.3100
  257MOL0     H33894   2.738   2.310   8.397  1.0736 -0.7559  0.0280
  257MOL0     H33895   2.795   2.481   8.426 -3.2243  0.6119 -0.5692
  257MOL0     H33896   2.849   2.440   8.649  0.5390  0.4058 -0.5372
  257MOL0     H33897   2.690   2.390   8.616  0.5708  1.9804  1.6447
  257MOL0     H33898   2.804   2.245   8.774  3.1042 -5.0222  1.0925
  257MOL0     H33899   2.921   2.196   8.650 -1.8909 -3.1274 -1.3162
  257MOL0     H33900   2.747   2.113   8.520  0.9144  1.1987  0.5335
  257MOL0     H33901   2.627   2.175   8.632  0.1332  1.9007  0.8459
  257MOL0     H33902   2.831   1.942   8.684 -0.4180 -1.4606 -1.0683
  257MOL0     H33903   2.742   2.015   8.821 -3.0934 -0.4391 -0.2052
  257MOL0     H33904   2.520   1.975   8.731 -0.7046 -1.4063  1.0279
  257MOL0     H33905   2.609   1.825   8.748  1.8653 -0.1927 -1.2416
  257MOL0     H33906   3.277   2.581   8.514  2.7799  0.9476  0.9782
  257MOL0     H33907   3.518   2.679   8.497 -1.8211 -0.7838  2.5195
  257MOL0     H33908   3.877   2.728   8.239  0.8932  0.0762 -0.8050
  257MOL0     H33909   4.066   2.906   8.307  2.2402 -0.1299 -0.3440
  257MOL0     H33910   5.624   3.636   8.471 -0.1374  0.7488 -0.0964
  257MOL0     H33911   5.782   3.749   8.311  2.7046 -1.3075 -2.1401
  257MOL0     H33912   6.044   3.659   7.858  1.5542  1.1113 -2.0486
  257MOL0     H33913   6.250   3.663   7.734  1.1833 -0.0160 -0.4116
  257MOL0     H33914   6.677   3.704   7.779 -0.9626 -0.1615 -0.3544
  257MOL0     H33915   6.626   3.720   7.953  0.0770  1.7773  0.4531
  257MOL0     H33916   6.544   3.957   7.915  0.2207  1.6461 -0.9030
  257MOL0     H33917   6.708   3.936   7.894  1.2042 -0.5402 -1.7911
  257MOL0     H33918   6.495   3.957   7.681  0.1596  0.0520  0.0559
  257MOL0     H33919   6.648   3.878   7.635 -0.8452 -3.1427  1.7745
  257MOL0     H33920   6.659   4.113   7.578  1.3343 -2.1426 -1.0730
  257MOL0     H33921   6.624   4.162   7.753 -0.7417 -1.4490  0.7645
  257MOL0     H33922   7.031   4.063   7.740  0.1754  3.3045  0.8689
  257MOL0     H33923   6.443   3.827   8.070  0.3045 -2.6798  1.1340
  257MOL0     H33924   6.260   3.783   8.209 -0.9693  2.9972 -0.7380
  258MOL0     O33925  10.790   1.639   0.008  0.7241  0.0122  0.5565
  258MOL0     C33926  10.732   1.549   0.062  0.3589  0.0914 -0.7551
  258MOL0     O33927  10.603   1.495   0.026  0.2482  0.1378  0.2122
  258MOL0     C33928  10.514   1.560  -0.056  0.3405  0.6492  0.3121
  258MOL0     C33929  10.563   1.603  -0.178  0.5060  0.2621 -0.2398
  258MOL0     C33930  10.491   1.688  -0.256 -0.4545  0.1583  0.4399
  258MOL0     C33931  10.360   1.714  -0.221  0.1399 -0.3364  0.5310
  258MOL0     O33932  10.298   1.787  -0.317 -0.2356  0.1674 -0.5405
  258MOL0     C33933  10.154   1.796  -0.293  0.1746 -0.2061 -0.2922
  258MOL0     C33934  10.106   1.826  -0.431  0.3072  0.3185  0.6078
  258MOL0     C33935   9.946   1.848  -0.441  0.2844 -0.2658 -0.6462
  258MOL0     C33936   9.883   1.916  -0.564 -0.4743  0.4773  0.3009
  258MOL0     C33937   9.731   1.885  -0.566 -0.1275 -0.2152 -0.4234
  258MOL0     C33938   9.674   1.932  -0.697  0.0553 -0.6484 -0.7906
  258MOL0     C33939   9.517   1.934  -0.679  0.2013 -0.0480  0.8279
  258MOL0     C33940   9.450   1.979  -0.813 -0.5701  0.1875  0.3626
  258MOL0     N33941   9.452   1.868  -0.905  0.1502  0.4842 -0.3754
  258MOL0     C33942   9.491   1.875  -1.029  0.0435  0.3646  1.6152
  258MOL0     C33943   9.468   1.752  -1.085  0.1168 -1.2222  0.4224
  258MOL0     C33944   9.509   1.719  -1.227  0.1919 -0.5053 -0.4170
  258MOL0     C33945   9.615   1.608  -1.220 -0.2402  0.4500  0.7093
  258MOL0     C33946   9.556   1.467  -1.204 -0.2056 -0.0115  0.8639
  258MOL0     C33947   9.657   1.366  -1.146 -0.0662  0.1491  0.4352
  258MOL0     O33948   9.771   1.365  -1.232 -0.8785  0.2004  0.2716
  258MOL0     C33949   9.863   1.267  -1.207 -0.2849 -0.4360 -0.5511
  258MOL0     C33950   9.978   1.288  -1.126  0.5676 -0.0473  0.7159
  258MOL0     C33951  10.053   1.182  -1.098 -0.1333 -0.4112  0.0973
  258MOL0     C33952  10.025   1.053  -1.147 -0.3545  0.2321  0.6290
  258MOL0     C33953  10.108   0.938  -1.100 -0.9517 -0.8800 -0.1595
  258MOL0     O33954  10.203   0.961  -1.000  0.8295  0.6036  0.5294
  258MOL0     C33955  10.277   0.869  -0.933 -0.2851 -1.1404 -0.0696
  258MOL0     C33956  10.222   0.751  -0.887 -0.5197 -0.4139  0.3672
  258MOL0     C33957  10.305   0.667  -0.807  0.6743  0.2888 -0.6577
  258MOL0     C33958  10.423   0.701  -0.753  0.1856  0.7530  0.3875
  258MOL0     O33959  10.485   0.609  -0.672  0.0101  0.1058 -0.0382
  258MOL0     C33960  10.617   0.642  -0.639 -0.4580  0.4804  0.2800
  258MOL0     C33961  10.690   0.518  -0.585  1.1291 -0.4795 -0.4295
  258MOL0     C33962  10.689   0.399  -0.683 -0.0687  0.4664  0.3045
  258MOL0     C33963  10.783   0.290  -0.629  0.4840 -0.8604  0.2642
  258MOL0     C33964  10.823   0.198  -0.736  0.1770  1.2548 -0.2077
  258MOL0     C33965  10.695   0.130  -0.812  0.3063  0.0754 -0.0034
  258MOL0     C33966  10.750   0.039  -0.922 -0.3477 -0.7719 -0.9395
  258MOL0     C33967  10.652  -0.007  -1.024 -0.0740  0.6238 -0.1264
  258MOL0    Cl33968  10.507  -0.070  -0.948 -0.2933  0.3456 -0.2055
  258MOL0     C33969  10.469   0.831  -0.790 -0.2419  0.1328 -0.1887
  258MOL0     C33970  10.403   0.907  -0.887  0.7573 -0.7137 -0.1076
  258MOL0     O33971  10.067   0.826  -1.135  0.0211  0.9532  0.0849
  258MOL0     C33972   9.916   1.033  -1.229  0.2100 -0.2972  0.1912
  258MOL0     C33973   9.837   1.145  -1.259  0.4790 -0.0098 -0.1891
  258MOL0     N33974   9.433   1.672  -0.977 -0.6834 -0.5937  0.8374
  258MOL0     N33975   9.421   1.739  -0.874  0.9090  0.6472 -0.6572
  258MOL0     C33976  10.308   1.667  -0.100 -0.1169 -0.3678 -0.1234
  258MOL0     C33977  10.391   1.594  -0.018  0.1636 -0.1645 -0.2296
  258MOL0     C33978  10.811   1.474   0.165  0.3229 -0.7146 -0.6380
  258MOL0     C33979  10.748   1.386   0.260 -0.1209 -0.5990  0.8232
  258MOL0     C33980  10.828   1.314   0.355  0.6695  1.1432 -0.0040
  258MOL0     C33981  10.972   1.322   0.361  0.2091 -0.0738 -0.4857
  258MOL0     O33982  11.033   1.254   0.460  0.1671  0.2274 -0.0932
  258MOL0     C33983  11.159   1.303   0.506 -0.5182  0.6398 -0.0507
  258MOL0     C33984  11.275   1.228   0.463  0.6525  0.4727  0.4168
  258MOL0     C33985  11.386   1.315   0.408 -0.2102 -0.1049  0.5538
  258MOL0     C33986  11.475   1.243   0.310 -0.6333  0.6269 -0.4246
  258MOL0     C33987  11.573   1.169   0.384 -0.6628 -0.3448 -0.0546
  258MOL0     C33988  11.668   1.108   0.435 -0.2896  0.6148 -0.5750
  258MOL0     C33989  11.028   1.389   0.257  1.2307 -0.1607  0.3496
  258MOL0     C33990  10.956   1.468   0.166  0.5357 -0.3173 -0.3227
  258MOL0     H33991  10.666   1.578  -0.204 -0.2203 -2.1178 -1.1681
  258MOL0     H33992  10.525   1.719  -0.354 -0.8993 -2.1277 -0.5158
  258MOL0     H33993  10.126   1.883  -0.233  0.0485 -0.8201  0.5590
  258MOL0     H33994  10.106   1.705  -0.253  0.9191 -0.1823  0.7116
  258MOL0     H33995  10.133   1.741  -0.494  1.4713  1.1111  0.0129
  258MOL0     H33996  10.155   1.912  -0.477  0.4888 -0.3500 -0.4679
  258MOL0     H33997   9.912   1.913  -0.360 -1.4585 -1.0021 -0.7467
  258MOL0     H33998   9.897   1.753  -0.418 -2.8991  1.1580 -0.9968
  258MOL0     H33999   9.897   2.025  -0.564  1.1903  0.3104 -1.0697
  258MOL0     H34000   9.936   1.880  -0.652 -2.2837 -0.9823 -0.2601
  258MOL0     H34001   9.683   1.952  -0.495  1.0424  0.1362  0.0548
  258MOL0     H34002   9.710   1.778  -0.556  2.1735 -0.7429 -0.7145
  258MOL0     H34003   9.707   1.864  -0.777  0.8829 -0.9119 -0.2396
  258MOL0     H34004   9.711   2.031  -0.726 -0.5175 -0.9492 -2.7334
  258MOL0     H34005   9.477   1.836  -0.651 -0.3586 -0.4166 -1.1313
  258MOL0     H34006   9.493   1.998  -0.593  1.7088  2.1562 -0.2733
  258MOL0     H34007   9.505   2.064  -0.854  1.2795 -0.0298  2.2290
  258MOL0     H34008   9.349   2.017  -0.795 -0.0401  2.3213 -0.7509
  258MOL0     H34009   9.537   1.954  -1.087  0.3793 -1.4056 -0.6869
  258MOL0     H34010   9.557   1.808  -1.268 -2.6208  0.9320 -0.8772
  258MOL0     H34011   9.435   1.694  -1.303  0.3854 -3.2000  0.1655
  258MOL0     H34012   9.673   1.626  -1.129  2.5226  1.0312 -1.0383
  258MOL0     H34013   9.688   1.618  -1.301 -0.3707 -2.2053  0.1695
  258MOL0     H34014   9.469   1.467  -1.138 -0.9768  2.5124 -0.0173
  258MOL0     H34015   9.515   1.443  -1.303  0.3035 -1.6228  1.0270
  258MOL0     H34016   9.623   1.263  -1.138 -0.7099  0.0704 -2.4135
  258MOL0     H34017   9.686   1.393  -1.043  0.6329 -1.5618  0.7089
  258MOL0     H34018   9.997   1.383  -1.075 -1.7679  0.6322  0.4443
  258MOL0     H34019  10.138   1.200  -1.032  0.5292  1.3815 -1.1688
  258MOL0     H34020  10.129   0.706  -0.923 -0.5366  0.6309 -0.9794
  258MOL0     H34021  10.272   0.568  -0.776  1.9199 -1.0229 -3.2029
  258MOL0     H34022  10.625   0.728  -0.573  0.0330  0.8551 -0.2559
  258MOL0     H34023  10.666   0.672  -0.732 -0.1560 -1.3388 -0.1874
  258MOL0     H34024  10.639   0.502  -0.490  3.7269  2.7890  1.7399
  258MOL0     H34025  10.792   0.552  -0.563 -0.0487  3.2081  0.0644
  258MOL0     H34026  10.712   0.431  -0.784 -0.5157  1.1423  0.4124
  258MOL0     H34027  10.587   0.358  -0.683  0.4406 -1.0901 -2.8118
  258MOL0     H34028  10.878   0.328  -0.590 -0.4051  1.8452  0.0241
  258MOL0     H34029  10.725   0.248  -0.546  0.0381 -0.3577  0.2159
  258MOL0     H34030  10.890   0.116  -0.709 -0.3464  1.0378  0.4483
  258MOL0     H34031  10.876   0.247  -0.818 -2.0937 -2.6195 -4.3857
  258MOL0     H34032  10.630   0.205  -0.857 -1.4092 -1.5312 -0.3298
  258MOL0     H34033  10.625   0.083  -0.742  0.7855 -1.8589 -0.7372
  258MOL0     H34034  10.828   0.091  -0.977  2.4964 -1.9534  1.6706
  258MOL0     H34035  10.794  -0.052  -0.879  0.0302 -0.0598  0.2239
  258MOL0     H34036  10.679  -0.100  -1.075 -2.8361 -0.9906  1.1331
  258MOL0     H34037  10.622   0.059  -1.107 -1.1610 -1.3388 -1.3707
  258MOL0     H34038  10.564   0.867  -0.752 -0.3715  0.2222  0.0532
  258MOL0     H34039  10.444   1.005  -0.910 -0.2355 -0.5201 -1.1624
  258MOL0     H34040   9.892   0.939  -1.277 -1.3878 -0.2462  0.8314
  258MOL0     H34041   9.747   1.138  -1.320  0.8090 -0.4111 -0.6302
  258MOL0     H34042  10.210   1.698  -0.066 -0.8886  0.1234 -2.5388
  258MOL0     H34043  10.352   1.568   0.080  1.2196 -3.0684 -0.4784
  258MOL0     H34044  10.640   1.382   0.248 -0.0694  2.4411 -2.5694
  258MOL0     H34045  10.770   1.262   0.431 -0.9780  1.6205 -0.8816
  258MOL0     H34046  11.159   1.300   0.615  0.9798  1.0921 -0.0203
  258MOL0     H34047  11.163   1.409   0.479  1.6811  0.2783 -1.3883
  258MOL0     H34048  11.325   1.176   0.545 -2.3658 -2.7847  0.4178
  258MOL0     H34049  11.236   1.156   0.391 -1.7770 -1.0254  3.0373
  258MOL0     H34050  11.444   1.353   0.493 -0.6181  0.5556  0.5407
  258MOL0     H34051  11.342   1.400   0.355  1.4984 -1.1699 -2.8131
  258MOL0     H34052  11.418   1.173   0.247  0.8680 -2.0519  1.0177
  258MOL0     H34053  11.526   1.318   0.248 -0.5509  1.7609  0.9565
  258MOL0     H34054  11.766   1.078   0.468 -1.1441  1.0703  2.7491
  258MOL0     H34055  11.136   1.395   0.244  1.2832  2.1981  1.3441
  258MOL0     H34056  11.009   1.519   0.087  0.5304 -0.8488 -0.6801
  259MOL0     O34057   8.741   3.458   0.115  0.3782  0.5630 -0.0005
  259MOL0     C34058   8.801   3.352   0.097  0.6525 -0.0023  0.3075
  259MOL0     O34059   8.757   3.227   0.135  0.0253 -0.4208 -0.1340
  259MOL0     C34060   8.638   3.220   0.201 -1.0186  0.1880  1.2804
  259MOL0     C34061   8.526   3.251   0.125  0.1273 -0.2522 -0.5783
  259MOL0     C34062   8.397   3.225   0.172  0.3639 -0.1688  0.2956
  259MOL0     C34063   8.387   3.169   0.295 -0.0965  0.2468 -0.4942
  259MOL0     O34064   8.263   3.141   0.354 -0.4327 -0.1500  0.3940
  259MOL0     C34065   8.136   3.185   0.289  0.3211  0.4188 -0.0267
  259MOL0     C34066   8.027   3.123   0.381  0.5676  0.0316 -0.2185
  259MOL0     C34067   7.888   3.164   0.347  0.4810 -0.3067  0.7096
  259MOL0     C34068   7.855   3.115   0.202 -0.3069 -0.0059 -0.0942
  259MOL0     C34069   7.716   3.159   0.144 -0.6566  0.4964 -0.3184
  259MOL0     C34070   7.722   3.306   0.115  0.0358 -1.1019  0.1298
  259MOL0     C34071   7.594   3.341   0.037 -0.3466  0.4683  0.1269
  259MOL0     C34072   7.559   3.486   0.026 -0.2273 -0.8080 -0.2700
  259MOL0     N34073   7.676   3.557  -0.018  0.0368 -0.1896  0.2511
  259MOL0     C34074   7.710   3.578  -0.147  0.2667 -1.1893  0.0870
  259MOL0     C34075   7.814   3.658  -0.149 -0.0615  0.5448 -0.7567
  259MOL0     C34076   7.874   3.719  -0.272 -0.4717 -0.1559 -0.2462
  259MOL0     C34077   7.913   3.604  -0.359 -0.7106 -0.2276  0.2170
  259MOL0     C34078   7.983   3.664  -0.476 -0.7231 -0.7692 -0.2429
  259MOL0     C34079   7.986   3.559  -0.589  0.4013 -0.3273 -0.4385
  259MOL0     O34080   7.904   3.600  -0.697 -0.8526  0.0784 -0.6687
  259MOL0     C34081   7.960   3.707  -0.771 -0.7110 -0.0276  0.1649
  259MOL0     C34082   7.883   3.749  -0.879  0.8210 -0.2964 -0.9373
  259MOL0     C34083   7.934   3.840  -0.974 -0.2472  0.6450 -0.1468
  259MOL0     C34084   8.067   3.897  -0.960  0.0857  0.4148 -0.1069
  259MOL0     C34085   8.129   3.959  -1.082  0.3328  0.1282  0.2903
  259MOL0     O34086   8.253   3.994  -1.061  0.1368  1.2067 -0.2724
  259MOL0     C34087   8.332   4.069  -1.139 -1.3360  0.8035 -0.2007
  259MOL0     C34088   8.472   4.034  -1.134  0.1774  0.4793 -0.4961
  259MOL0     C34089   8.561   4.110  -1.199 -0.7274  0.1605 -0.1867
  259MOL0     C34090   8.527   4.214  -1.285 -0.7306 -0.6577  0.4110
  259MOL0     O34091   8.612   4.291  -1.367  0.3741  0.5462 -0.9303
  259MOL0     C34092   8.754   4.283  -1.341  0.4197 -0.4928 -0.0790
  259MOL0     C34093   8.828   4.395  -1.426 -0.4183  0.3704 -0.2046
  259MOL0     C34094   8.980   4.396  -1.389 -0.6963  0.1619  1.0646
  259MOL0     C34095   9.063   4.496  -1.478  0.0635  0.2245 -0.3005
  259MOL0     C34096   9.216   4.502  -1.426 -0.0829 -0.6560  0.1381
  259MOL0     C34097   9.305   4.517  -1.552 -0.4611 -0.1900 -0.5993
  259MOL0     C34098   9.458   4.542  -1.521 -0.6358 -0.1259 -0.8229
  259MOL0     C34099   9.503   4.654  -1.428 -0.0748 -0.1419  0.7938
  259MOL0    Cl34100   9.465   4.807  -1.514 -0.4074 -0.3856  0.5745
  259MOL0     C34101   8.391   4.242  -1.303  0.0400  0.4972 -0.0660
  259MOL0     C34102   8.291   4.170  -1.229 -0.7081 -0.6515  0.5733
  259MOL0     O34103   8.074   3.957  -1.192 -0.4251  0.8508  0.0366
  259MOL0     C34104   8.135   3.864  -0.841 -0.3278 -1.1770 -0.1893
  259MOL0     C34105   8.088   3.763  -0.763  0.5443 -0.5257 -0.2663
  259MOL0     N34106   7.853   3.675  -0.020 -0.8632  0.5365 -0.1205
  259MOL0     N34107   7.770   3.622   0.061  0.1456  0.5032  0.3922
  259MOL0     C34108   8.498   3.131   0.371  0.3644  0.1618  0.0412
  259MOL0     C34109   8.625   3.161   0.322 -0.9741 -0.1577 -0.3208
  259MOL0     C34110   8.943   3.371   0.061  0.4186 -0.1259  0.9653
  259MOL0     C34111   9.039   3.271   0.068 -0.3164 -0.2816 -0.2122
  259MOL0     C34112   9.174   3.298   0.044 -0.6144  0.4369 -0.5279
  259MOL0     C34113   9.214   3.429  -0.006  0.4260 -0.1997  0.9778
  259MOL0     O34114   9.349   3.467  -0.026  0.3524  0.2825 -0.0216
  259MOL0     C34115   9.459   3.377  -0.035  0.2177 -0.5023  0.3408
  259MOL0     C34116   9.550   3.431  -0.153  0.3396  0.6243 -0.4248
  259MOL0     C34117   9.681   3.340  -0.175  0.0764 -0.4876 -0.3021
  259MOL0     C34118   9.663   3.196  -0.216 -0.2001  0.2149  1.0944
  259MOL0     C34119   9.666   3.188  -0.364  0.0515 -0.1722  0.6172
  259MOL0     C34120   9.659   3.189  -0.483  0.5692  0.0749 -0.2993
  259MOL0     C34121   9.111   3.515  -0.045  0.7243 -0.5782  0.1666
  259MOL0     C34122   8.982   3.494  -0.004 -0.7220  0.1210  0.8131
  259MOL0     H34123   8.524   3.301   0.029 -1.8655  1.5615  0.3392
  259MOL0     H34124   8.311   3.246   0.108  0.7865  1.4758  0.2210
  259MOL0     H34125   8.132   3.155   0.184  0.1871 -4.9363  1.2008
  259MOL0     H34126   8.128   3.294   0.298 -1.4666  0.8263 -4.3658
  259MOL0     H34127   8.049   3.157   0.483  2.2789  0.2124 -0.6198
  259MOL0     H34128   8.023   3.014   0.383  0.4297 -0.1713 -3.9644
  259MOL0     H34129   7.875   3.272   0.355 -4.9890 -0.5561 -0.7590
  259MOL0     H34130   7.814   3.119   0.414 -0.9332 -1.4907 -1.5423
  259MOL0     H34131   7.925   3.161   0.131 -0.2181  1.9301  1.1954
  259MOL0     H34132   7.867   3.006   0.201 -1.9992 -0.2528 -2.4982
  259MOL0     H34133   7.639   3.138   0.219  1.4186 -0.7611  1.5920
  259MOL0     H34134   7.706   3.109   0.047  1.0447 -0.0109 -0.2689
  259MOL0     H34135   7.812   3.333   0.058  0.9649 -1.3306  1.4266
  259MOL0     H34136   7.734   3.365   0.206  0.8820 -1.5979  0.3570
  259MOL0     H34137   7.606   3.303  -0.064 -1.4714 -0.1148  0.1935
  259MOL0     H34138   7.514   3.286   0.087  0.4756 -0.6033  0.2932
  259MOL0     H34139   7.509   3.528   0.115 -4.2112  1.3453 -3.1792
  259MOL0     H34140   7.475   3.497  -0.044 -1.8739  0.6766  1.7722
  259MOL0     H34141   7.661   3.547  -0.239 -1.0003  3.0889 -0.9291
  259MOL0     H34142   7.965   3.773  -0.242 -2.9416  3.1125  2.0240
  259MOL0     H34143   7.810   3.797  -0.312  0.6412  0.3074 -1.1809
  259MOL0     H34144   7.817   3.570  -0.398 -0.2583 -0.6574 -0.5436
  259MOL0     H34145   7.972   3.535  -0.298 -2.8254  0.4135  3.1759
  259MOL0     H34146   7.936   3.757  -0.510  1.8359  1.2095  1.2826
  259MOL0     H34147   8.083   3.689  -0.441 -0.5713 -0.4241 -0.9051
  259MOL0     H34148   7.954   3.460  -0.557  0.1127 -1.0238 -2.7241
  259MOL0     H34149   8.091   3.552  -0.619  0.7412  1.2041  0.2792
  259MOL0     H34150   7.782   3.713  -0.895  1.3720 -2.1345 -0.5212
  259MOL0     H34151   7.879   3.839  -1.068 -1.5582  0.8131  0.6004
  259MOL0     H34152   8.506   3.965  -1.058 -0.4536  1.2933  0.5558
  259MOL0     H34153   8.666   4.087  -1.187 -0.4183  2.4385  2.4241
  259MOL0     H34154   8.780   4.181  -1.372 -0.9021  0.4615 -5.0413
  259MOL0     H34155   8.774   4.307  -1.236  1.7509 -0.1301 -0.3980
  259MOL0     H34156   8.787   4.495  -1.417 -0.0573  0.7578 -2.2887
  259MOL0     H34157   8.829   4.378  -1.535  1.2805 -1.1478 -0.0058
  259MOL0     H34158   9.019   4.294  -1.399 -1.3671 -0.0036 -0.1415
  259MOL0     H34159   8.988   4.428  -1.285  1.8925 -0.6166  1.1590
  259MOL0     H34160   9.060   4.469  -1.584 -0.4488 -0.2777 -0.1696
  259MOL0     H34161   9.005   4.588  -1.470 -2.4548 -1.4050  2.5889
  259MOL0     H34162   9.243   4.410  -1.373  0.8968  0.7335  2.1207
  259MOL0     H34163   9.218   4.589  -1.360  0.4498 -0.4115 -0.1977
  259MOL0     H34164   9.269   4.600  -1.614 -3.1857 -0.2967  0.6962
  259MOL0     H34165   9.294   4.422  -1.605  0.7877 -1.5063  1.3742
  259MOL0     H34166   9.489   4.449  -1.472 -2.0470  0.4211  1.2252
  259MOL0     H34167   9.508   4.559  -1.617 -0.7784  0.6116 -0.7717
  259MOL0     H34168   9.609   4.642  -1.404 -0.3365 -0.3505  1.9070
  259MOL0     H34169   9.438   4.658  -1.340 -0.2269 -0.3853  0.6941
  259MOL0     H34170   8.367   4.323  -1.371  0.1064 -1.6376 -2.8406
  259MOL0     H34171   8.185   4.188  -1.245 -0.4986  0.4437  0.3701
  259MOL0     H34172   8.236   3.900  -0.827 -1.4344  1.2948  2.2487
  259MOL0     H34173   8.163   3.737  -0.689 -0.3772 -0.5304  0.6885
  259MOL0     H34174   8.494   3.089   0.471  0.1006  0.3573  0.1120
  259MOL0     H34175   8.707   3.128   0.384  0.8142 -0.8899 -2.9114
  259MOL0     H34176   9.016   3.173   0.110  1.4523  0.5107  2.9630
  259MOL0     H34177   9.252   3.229   0.075  0.0329  2.1242  1.9502
  259MOL0     H34178   9.426   3.273  -0.041 -3.0046  0.4781 -1.3964
  259MOL0     H34179   9.511   3.389   0.060 -3.1212  2.8837  2.0320
  259MOL0     H34180   9.485   3.428  -0.240 -1.1247 -1.9105  0.6218
  259MOL0     H34181   9.578   3.534  -0.131 -2.3195  1.5540 -0.9612
  259MOL0     H34182   9.721   3.333  -0.073  3.8766  1.8395 -1.4223
  259MOL0     H34183   9.753   3.391  -0.239  0.0684 -0.3309 -0.1854
  259MOL0     H34184   9.747   3.138  -0.178  0.4236 -0.1285 -0.7532
  259MOL0     H34185   9.568   3.150  -0.184  0.2943 -2.8437 -1.3380
  259MOL0     H34186   9.665   3.167  -0.587 -1.3384 -2.8244  0.0666
  259MOL0     H34187   9.127   3.605  -0.103  0.9743 -0.9232 -0.3155
  259MOL0     H34188   8.900   3.561  -0.030 -0.8649  0.8945  3.0498
  260MOL0     O34189   0.743   4.249   2.330  0.1977  0.4467 -0.1272
  260MOL0     C34190   0.731   4.254   2.452  1.3337 -0.0690 -0.3001
  260MOL0     O34191   0.827   4.225   2.546  0.5098  0.3624 -0.4332
  260MOL0     C34192   0.961   4.219   2.507 -0.5351 -0.6980  0.1856
  260MOL0     C34193   1.055   4.167   2.602 -0.1535 -0.4708 -0.7387
  260MOL0     C34194   1.184   4.149   2.563 -0.2352 -0.1095 -0.1069
  260MOL0     C34195   1.232   4.198   2.436 -0.1835  0.2189 -0.3291
  260MOL0     O34196   1.363   4.190   2.408 -0.3468  0.2451 -0.8281
  260MOL0     C34197   1.403   4.243   2.285  0.1878 -0.4252 -0.7223
  260MOL0     C34198   1.552   4.217   2.265  0.2442 -0.3010  0.5185
  260MOL0     C34199   1.587   4.070   2.293 -1.3577  0.4974  0.3815
  260MOL0     C34200   1.739   4.030   2.270 -0.5219  0.2547  0.3451
  260MOL0     C34201   1.772   3.887   2.318  0.8934  0.4700 -0.2710
  260MOL0     C34202   1.779   3.873   2.476 -0.3237  0.7099  0.6616
  260MOL0     C34203   1.841   3.736   2.499 -0.1754  0.5424 -0.6039
  260MOL0     C34204   1.880   3.732   2.649 -0.5174  0.4406  0.3988
  260MOL0     N34205   1.922   3.595   2.698 -0.0626  0.5108 -0.2969
  260MOL0     C34206   1.830   3.511   2.757  0.5048  0.3873  0.0389
  260MOL0     C34207   1.895   3.408   2.820 -0.1320  0.7240  0.6389
  260MOL0     C34208   1.833   3.289   2.881 -0.0833  0.4652  0.8013
  260MOL0     C34209   1.718   3.317   2.974  0.0722  0.3857 -0.1696
  260MOL0     C34210   1.660   3.183   3.026  0.2697 -0.0300 -0.4730
  260MOL0     C34211   1.512   3.219   3.071  0.6001 -0.6553  0.7354
  260MOL0     O34212   1.440   3.283   2.961 -0.1614  0.1679 -0.8821
  260MOL0     C34213   1.300   3.292   2.956  0.1159  0.0550  0.4544
  260MOL0     C34214   1.241   3.348   2.840 -0.4032 -1.1395 -0.6464
  260MOL0     C34215   1.102   3.372   2.829 -0.8120 -0.6822  0.1297
  260MOL0     C34216   1.019   3.336   2.946 -0.1493 -0.6943  0.5900
  260MOL0     C34217   0.877   3.363   2.944  0.1796 -0.3489  0.1832
  260MOL0     O34218   0.823   3.429   2.836  0.1032  0.1194  0.6156
  260MOL0     C34219   0.688   3.460   2.838 -0.6786  0.2808  0.2688
  260MOL0     C34220   0.593   3.426   2.736 -0.3919 -0.2444  0.2414
  260MOL0     C34221   0.455   3.467   2.751 -0.0261  1.0594 -0.5250
  260MOL0     C34222   0.409   3.544   2.868 -0.2278  0.1286 -0.4525
  260MOL0     O34223   0.287   3.584   2.891  0.5006 -0.4318  0.4560
  260MOL0     C34224   0.181   3.562   2.794 -0.6791  0.3389 -0.5887
  260MOL0     C34225   0.046   3.626   2.835 -1.3132  0.3765  0.2842
  260MOL0     C34226  -0.061   3.590   2.736  0.3671  0.1819  0.3199
  260MOL0     C34227  -0.188   3.683   2.753 -0.1340  0.0539 -0.0908
  260MOL0     C34228  -0.280   3.650   2.876 -0.7472 -0.0858 -0.1680
  260MOL0     C34229  -0.399   3.740   2.898 -0.1178  0.2692  0.0640
  260MOL0     C34230  -0.350   3.880   2.919  0.0042  0.0464  0.4365
  260MOL0     C34231  -0.452   3.965   2.979  0.6146  0.4256  0.0638
  260MOL0    Cl34232  -0.454   3.973   3.163  0.3691 -0.1460  0.5618
  260MOL0     C34233   0.506   3.568   2.962  0.2847 -0.7460 -1.5334
  260MOL0     C34234   0.634   3.531   2.951 -0.5364  0.0544 -0.3416
  260MOL0     O34235   0.811   3.330   3.044 -0.1428  0.4690 -0.7963
  260MOL0     C34236   1.085   3.287   3.059  0.4124  0.0923  0.1980
  260MOL0     C34237   1.221   3.263   3.066  1.3494 -0.3003  0.6915
  260MOL0     N34238   2.028   3.439   2.793 -0.3790  0.7419 -0.6123
  260MOL0     N34239   2.046   3.548   2.729 -0.4033 -0.4297 -0.3467
  260MOL0     C34240   1.137   4.259   2.358  0.0421 -0.3137 -0.2257
  260MOL0     C34241   1.006   4.265   2.382 -0.3881  0.4080 -1.0901
  260MOL0     C34242   0.594   4.270   2.508  0.7417 -0.3553  0.1209
  260MOL0     C34243   0.473   4.258   2.432 -0.1962 -0.4757 -0.2831
  260MOL0     C34244   0.343   4.286   2.484 -0.2603 -0.1801 -0.4751
  260MOL0     C34245   0.333   4.320   2.621  0.6851 -0.0539 -0.0516
  260MOL0     O34246   0.220   4.357   2.688  0.0214 -0.5710  0.6750
  260MOL0     C34247   0.095   4.347   2.626  0.5156  0.3109 -0.1519
  260MOL0     C34248  -0.020   4.326   2.728 -0.4803  0.0699 -0.5448
  260MOL0     C34249  -0.136   4.265   2.653  0.5971  0.0290 -0.2874
  260MOL0     C34250  -0.246   4.212   2.751 -0.1192 -0.1318 -0.8752
  260MOL0     C34251  -0.334   4.323   2.795  0.4535  0.1920 -0.7880
  260MOL0     C34252  -0.385   4.418   2.839 -0.1835 -0.3403  0.4539
  260MOL0     C34253   0.453   4.319   2.700  0.9208 -0.3028 -0.5980
  260MOL0     C34254   0.579   4.300   2.645 -0.5447  0.5365 -0.4055
  260MOL0     H34255   1.013   4.127   2.693 -0.4642  2.5617  0.5561
  260MOL0     H34256   1.241   4.087   2.632 -0.2738 -1.1112 -0.9486
  260MOL0     H34257   1.384   4.350   2.283 -3.4239 -0.8451  1.6276
  260MOL0     H34258   1.354   4.197   2.199  1.8209  1.6242 -2.8526
  260MOL0     H34259   1.606   4.268   2.345 -1.4010  0.1441  1.4009
  260MOL0     H34260   1.590   4.247   2.167 -1.6483  1.6922  0.3232
  260MOL0     H34261   1.525   3.999   2.238 -2.5599  2.0561 -0.3606
  260MOL0     H34262   1.563   4.060   2.399 -1.7102  1.8586  0.4486
  260MOL0     H34263   1.767   4.037   2.165  1.8089  0.2187  0.8970
  260MOL0     H34264   1.803   4.108   2.314 -0.5713  1.2239 -1.2351
  260MOL0     H34265   1.865   3.855   2.271  0.7225  2.0491 -1.7946
  260MOL0     H34266   1.699   3.817   2.274  0.5880  0.8767 -0.4243
  260MOL0     H34267   1.677   3.883   2.514  0.0910  0.7135  1.7852
  260MOL0     H34268   1.852   3.941   2.520 -0.5446  1.2407  0.2226
  260MOL0     H34269   1.772   3.652   2.482  0.5199 -0.3832  0.9447
  260MOL0     H34270   1.935   3.727   2.445  0.5172  0.5920  0.5596
  260MOL0     H34271   1.805   3.769   2.719 -0.6465  0.3361  0.3173
  260MOL0     H34272   1.967   3.798   2.653  3.0467 -3.8275  2.4384
  260MOL0     H34273   1.725   3.537   2.755 -0.4588 -2.9184  1.2322
  260MOL0     H34274   1.907   3.219   2.922  0.1957  0.2759 -0.0053
  260MOL0     H34275   1.782   3.225   2.808  2.5576 -0.9846  0.1078
  260MOL0     H34276   1.647   3.378   2.918 -2.6792 -0.4103  2.2045
  260MOL0     H34277   1.756   3.385   3.050  3.2001  1.6898 -2.6659
  260MOL0     H34278   1.668   3.112   2.943  1.4751  0.3375 -0.6956
  260MOL0     H34279   1.721   3.131   3.101  2.9570  2.4605 -0.7558
  260MOL0     H34280   1.522   3.283   3.159  0.2067  1.2629 -0.5352
  260MOL0     H34281   1.466   3.126   3.105 -0.4531 -0.0389  1.0754
  260MOL0     H34282   1.314   3.376   2.764 -1.3480 -0.5524 -1.3676
  260MOL0     H34283   1.066   3.423   2.741 -1.4068  0.3046  0.9239
  260MOL0     H34284   0.630   3.373   2.649 -2.6985  0.8128 -1.4949
  260MOL0     H34285   0.380   3.437   2.678 -1.8253  2.5826  0.5902
  260MOL0     H34286   0.166   3.454   2.786 -0.2218  0.1163  1.1249
  260MOL0     H34287   0.210   3.598   2.695 -0.5066  2.1283  0.0752
  260MOL0     H34288   0.053   3.734   2.848 -0.1934  0.6283 -1.8478
  260MOL0     H34289   0.018   3.585   2.932  1.5766 -0.4424  0.8709
  260MOL0     H34290  -0.097   3.487   2.735 -0.9261  0.1827  6.8505
  260MOL0     H34291  -0.031   3.605   2.632  0.0894  0.5415  0.2882
  260MOL0     H34292  -0.150   3.785   2.738  1.0063 -0.4250 -0.6461
  260MOL0     H34293  -0.249   3.665   2.664 -1.3553  0.5677  0.6227
  260MOL0     H34294  -0.228   3.655   2.973 -0.9874  0.9856 -0.0814
  260MOL0     H34295  -0.314   3.548   2.857  0.6067 -0.3652 -1.2422
  260MOL0     H34296  -0.448   3.698   2.986 -3.3046  1.0576 -1.1811
  260MOL0     H34297  -0.468   3.740   2.813  0.9748  0.3480 -0.8546
  260MOL0     H34298  -0.268   3.880   2.991  0.2074  0.8253  0.2085
  260MOL0     H34299  -0.324   3.910   2.817  1.4366 -2.0313  0.1272
  260MOL0     H34300  -0.549   3.928   2.944  1.9020 -1.7142 -1.3918
  260MOL0     H34301  -0.434   4.066   2.940  0.3583  1.0918  1.5709
  260MOL0     H34302   0.476   3.627   3.048 -0.5529  1.1833 -3.0445
  260MOL0     H34303   0.702   3.535   3.036 -2.1277 -2.6323  1.1985
  260MOL0     H34304   1.029   3.257   3.147 -0.2079  1.5975  0.3627
  260MOL0     H34305   1.256   3.220   3.160 -2.1444 -3.4067  0.8138
  260MOL0     H34306   1.167   4.319   2.272  0.1233  3.2356  2.0838
  260MOL0     H34307   0.947   4.307   2.301 -2.0885 -0.9271 -0.6071
  260MOL0     H34308   0.469   4.242   2.324  0.9585 -1.9952 -0.1425
  260MOL0     H34309   0.259   4.293   2.415 -1.2396  0.9654  0.7773
  260MOL0     H34310   0.092   4.266   2.551  1.2226  2.4721 -2.6593
  260MOL0     H34311   0.072   4.436   2.567  1.9592  0.5924 -0.3257
  260MOL0     H34312   0.019   4.254   2.801 -0.8533 -0.3943 -0.7984
  260MOL0     H34313  -0.046   4.422   2.774  0.4289 -0.5705  1.4633
  260MOL0     H34314  -0.100   4.178   2.597 -1.8118 -0.4575 -1.1949
  260MOL0     H34315  -0.183   4.332   2.580 -1.5747 -1.5240 -0.3875
  260MOL0     H34316  -0.297   4.125   2.708 -0.4072  0.7547 -2.4089
  260MOL0     H34317  -0.201   4.187   2.848 -2.2820  3.8643  1.4329
  260MOL0     H34318  -0.426   4.503   2.891 -2.2404 -0.3382 -1.0359
  260MOL0     H34319   0.437   4.315   2.807  2.1979 -0.9208 -0.4088
  260MOL0     H34320   0.670   4.296   2.704  0.9470  0.2733 -2.5724
  261MOL0     O34321   0.154   8.473   0.020 -1.0027 -0.1143  0.3962
  261MOL0     C34322   0.137   8.409   0.123 -0.2552  0.2549  0.7951
  261MOL0     O34323   0.019   8.369   0.171  0.5486  0.9611  0.5864
  261MOL0     C34324  -0.093   8.394   0.091  0.1754  0.2729 -0.1946
  261MOL0     C34325  -0.146   8.517   0.078 -0.3787  0.2317  0.7307
  261MOL0     C34326  -0.265   8.540   0.007  0.1994  0.2023  0.1534
  261MOL0     C34327  -0.331   8.433  -0.056 -0.4828  1.0230  0.2453
  261MOL0     O34328  -0.457   8.466  -0.096 -0.8388 -0.2743  0.4642
  261MOL0     C34329  -0.557   8.358  -0.106  0.4020 -0.0156  0.3250
  261MOL0     C34330  -0.695   8.426  -0.071 -0.0751  0.2659  1.4584
  261MOL0     C34331  -0.731   8.543  -0.157  0.8164 -0.1694 -0.3848
  261MOL0     C34332  -0.867   8.619  -0.116  0.5395  0.5571  0.2245
  261MOL0     C34333  -0.913   8.721  -0.216 -0.3620  0.3833 -0.5535
  261MOL0     C34334  -1.069   8.729  -0.211  0.3537 -0.5027 -0.4421
  261MOL0     C34335  -1.129   8.760  -0.075 -0.0331 -1.1470  0.4411
  261MOL0     C34336  -1.135   8.909  -0.048  0.2866 -0.4759 -0.6080
  261MOL0     N34337  -1.234   8.977  -0.131  0.2976  0.4018 -0.2006
  261MOL0     C34338  -1.368   9.003  -0.092 -0.6214 -0.2395  0.3717
  261MOL0     C34339  -1.417   9.066  -0.202  0.0222 -0.4269 -1.2095
  261MOL0     C34340  -1.553   9.133  -0.210 -0.3359  0.3998 -0.2966
  261MOL0     C34341  -1.591   9.190  -0.071  0.7972 -0.5784 -0.5284
  261MOL0     C34342  -1.712   9.297  -0.087  0.2514  0.3034  0.2253
  261MOL0     C34343  -1.729   9.391   0.033 -1.7782 -0.1965  0.0330
  261MOL0     O34344  -1.767   9.326   0.153 -0.1561 -0.1324  0.0993
  261MOL0     C34345  -1.886   9.346   0.217  0.9955 -0.7869 -0.2796
  261MOL0     C34346  -2.008   9.356   0.146 -0.1572  0.0054 -0.4405
  261MOL0     C34347  -2.136   9.377   0.213  0.4269 -0.1504  0.4381
  261MOL0     C34348  -2.135   9.379   0.352 -0.2761 -0.5374 -0.0621
  261MOL0     C34349  -2.267   9.403   0.410 -0.0374  0.9545 -0.4959
  261MOL0     O34350  -2.358   9.474   0.338 -0.0146  0.0324 -0.0129
  261MOL0     C34351  -2.477   9.495   0.384 -0.8797  0.2751 -0.0546
  261MOL0     C34352  -2.567   9.389   0.413  1.1638 -0.1988 -0.6698
  261MOL0     C34353  -2.690   9.422   0.478 -0.0135  0.4853  0.1641
  261MOL0     C34354  -2.719   9.549   0.517  0.6373 -0.2743 -0.5572
  261MOL0     O34355  -2.847   9.576   0.576  0.4750 -0.2064 -0.2127
  261MOL0     C34356  -2.950   9.562   0.477 -0.4792 -0.6665  0.1716
  261MOL0     C34357  -3.076   9.530   0.565 -1.0861  0.5348 -0.4511
  261MOL0     C34358  -3.209   9.538   0.487 -0.0403 -0.3368 -0.2165
  261MOL0     C34359  -3.262   9.675   0.449  0.5634 -0.3736 -0.0316
  261MOL0     C34360  -3.289   9.761   0.573  0.4391 -0.3954  0.2385
  261MOL0     C34361  -3.325   9.896   0.515 -0.1754  0.0147  0.0856
  261MOL0     C34362  -3.323   9.999   0.632 -0.2042  0.4425  0.3016
  261MOL0     C34363  -3.426  10.105   0.615 -0.6071 -0.4043 -0.3874
  261MOL0    Cl34364  -3.370  10.215   0.480  0.1419 -0.0837 -0.0309
  261MOL0     C34365  -2.630   9.657   0.483  0.0032 -0.3651  0.2933
  261MOL0     C34366  -2.510   9.628   0.414 -0.1299 -0.7539  0.0774
  261MOL0     O34367  -2.276   9.374   0.531 -0.1196 -0.3722  0.3730
  261MOL0     C34368  -2.013   9.357   0.424 -0.5779 -0.3819  0.2718
  261MOL0     C34369  -1.892   9.357   0.359 -0.0551 -0.6808  0.2771
  261MOL0     N34370  -1.323   9.085  -0.299 -0.1727  0.2574  0.6994
  261MOL0     N34371  -1.214   9.018  -0.262  0.3056 -0.2371  0.1844
  261MOL0     C34372  -0.268   8.309  -0.056 -0.1229  0.0251 -1.1276
  261MOL0     C34373  -0.148   8.291   0.009  0.0072 -0.1569  0.4217
  261MOL0     C34374   0.257   8.376   0.199 -0.2400 -0.3317  0.3811
  261MOL0     C34375   0.263   8.304   0.318 -0.6399  1.0325 -0.6456
  261MOL0     C34376   0.381   8.277   0.381  0.4927 -0.0320  0.2214
  261MOL0     C34377   0.503   8.332   0.338 -0.6429 -0.1294 -1.0122
  261MOL0     O34378   0.612   8.296   0.409 -0.1616  0.6538 -0.3239
  261MOL0     C34379   0.717   8.387   0.437  0.1113 -1.0751  0.2143
  261MOL0     C34380   0.835   8.321   0.501 -1.2529  0.0019 -0.0147
  261MOL0     C34381   0.926   8.228   0.407  0.8002 -0.0216 -0.8558
  261MOL0     C34382   0.968   8.296   0.282  0.7992 -0.4087  0.5353
  261MOL0     C34383   1.040   8.423   0.294 -0.0038  0.1356  0.6981
  261MOL0     C34384   1.121   8.510   0.300 -0.2985 -0.8538 -0.1689
  261MOL0     C34385   0.503   8.414   0.226 -0.2592  0.0787  0.3529
  261MOL0     C34386   0.381   8.438   0.159  0.4188 -0.3714  0.2293
  261MOL0     H34387  -0.109   8.602   0.135 -0.0154  0.4508  0.1720
  261MOL0     H34388  -0.323   8.630   0.019  2.0844  1.3744  0.8341
  261MOL0     H34389  -0.531   8.273  -0.043  1.1223 -0.2150 -0.2250
  261MOL0     H34390  -0.574   8.320  -0.207 -0.8676 -3.2316  1.6212
  261MOL0     H34391  -0.677   8.459   0.032  1.4315  1.1791  0.9276
  261MOL0     H34392  -0.774   8.350  -0.077 -1.0019  1.1906  1.6431
  261MOL0     H34393  -0.740   8.521  -0.264  2.2701  2.2725 -1.1045
  261MOL0     H34394  -0.664   8.630  -0.151 -0.6535  0.9986 -0.3226
  261MOL0     H34395  -0.942   8.541  -0.099  0.5111  0.3033 -0.9685
  261MOL0     H34396  -0.838   8.662  -0.019  4.9977 -0.2011 -0.5420
  261MOL0     H34397  -0.867   8.691  -0.310  0.5691  1.6439 -0.5217
  261MOL0     H34398  -0.873   8.820  -0.196  0.0763  0.5332 -2.0811
  261MOL0     H34399  -1.110   8.631  -0.239  0.3606 -0.2849 -1.2488
  261MOL0     H34400  -1.100   8.801  -0.288 -0.6773 -0.4167  0.0427
  261MOL0     H34401  -1.231   8.721  -0.071 -0.6291  0.4123  1.9909
  261MOL0     H34402  -1.077   8.713   0.008  1.6275  1.2279  0.8451
  261MOL0     H34403  -1.036   8.951  -0.068  0.1493  1.0564  1.5858
  261MOL0     H34404  -1.157   8.932   0.057 -2.1667 -1.1193 -0.9298
  261MOL0     H34405  -1.413   8.976   0.003 -0.2227 -0.2015  0.5690
  261MOL0     H34406  -1.630   9.061  -0.236  2.5315 -3.0097 -0.0059
  261MOL0     H34407  -1.555   9.206  -0.292  1.7192  2.3775  1.2849
  261MOL0     H34408  -1.504   9.233  -0.022  0.2728 -2.4107  2.2856
  261MOL0     H34409  -1.623   9.109  -0.004 -0.2795 -2.0677 -2.7070
  261MOL0     H34410  -1.694   9.359  -0.175 -1.0094  2.4014  1.3742
  261MOL0     H34411  -1.805   9.240  -0.088  1.4276 -1.6995 -0.6903
  261MOL0     H34412  -1.792   9.479   0.019 -3.5936 -0.6213  4.1912
  261MOL0     H34413  -1.626   9.419   0.057 -1.1496 -3.8632  2.5072
  261MOL0     H34414  -2.000   9.352   0.038 -1.7616  2.8780 -0.7743
  261MOL0     H34415  -2.226   9.381   0.152  0.6437  1.8483  0.1757
  261MOL0     H34416  -2.537   9.286   0.401  0.2508 -0.5338 -0.1024
  261MOL0     H34417  -2.758   9.343   0.508  0.9487 -1.2431 -1.9625
  261MOL0     H34418  -2.921   9.479   0.412  1.6092 -0.7432  1.1302
  261MOL0     H34419  -2.960   9.657   0.424 -0.5186 -0.3575  0.7221
  261MOL0     H34420  -3.069   9.610   0.640  2.5024  1.6589 -1.7961
  261MOL0     H34421  -3.061   9.435   0.616  1.0266  1.7190  1.3339
  261MOL0     H34422  -3.284   9.497   0.555 -0.2284 -0.1612 -0.3193
  261MOL0     H34423  -3.217   9.470   0.402 -2.4511  2.7097 -2.6974
  261MOL0     H34424  -3.182   9.718   0.388  0.0282  2.7407  1.2798
  261MOL0     H34425  -3.357   9.668   0.397  0.2455  0.4972  0.4140
  261MOL0     H34426  -3.196   9.771   0.630 -1.4043 -0.9609  3.5917
  261MOL0     H34427  -3.369   9.725   0.639 -0.0906 -1.3714 -0.9129
  261MOL0     H34428  -3.419   9.891   0.459 -0.5996 -3.2165  0.8917
  261MOL0     H34429  -3.251   9.927   0.441 -0.2164  1.7798  0.7472
  261MOL0     H34430  -3.339   9.935   0.719  0.2500  2.3916  1.9066
  261MOL0     H34431  -3.220  10.035   0.644  0.3045 -1.3901  1.8998
  261MOL0     H34432  -3.430  10.161   0.708 -0.0558  1.0277 -1.1965
  261MOL0     H34433  -3.522  10.060   0.587 -0.3249 -0.2104 -1.7505
  261MOL0     H34434  -2.641   9.762   0.506  3.8457  0.1466  0.4750
  261MOL0     H34435  -2.446   9.705   0.371  1.4283 -2.3022 -0.4772
  261MOL0     H34436  -2.006   9.358   0.532  0.4352 -0.7248  0.2243
  261MOL0     H34437  -1.796   9.362   0.410 -0.4848 -0.4454  1.0896
  261MOL0     H34438  -0.304   8.220  -0.105  1.3212 -1.2325  0.0100
  261MOL0     H34439  -0.102   8.193  -0.002  1.7625  0.6625  0.0510
  261MOL0     H34440   0.174   8.260   0.363 -0.8299 -0.3060 -2.2450
  261MOL0     H34441   0.390   8.200   0.457  0.1714  0.5673  0.8798
  261MOL0     H34442   0.668   8.445   0.515 -0.2260 -3.9002  2.2639
  261MOL0     H34443   0.744   8.453   0.354  1.2962  2.1037  2.8987
  261MOL0     H34444   0.902   8.399   0.540  1.0856 -1.3956 -1.0457
  261MOL0     H34445   0.799   8.261   0.585 -3.4130  0.0124 -0.8635
  261MOL0     H34446   0.875   8.136   0.378  1.0865  0.2758 -2.4028
  261MOL0     H34447   1.013   8.203   0.468 -0.5806 -0.1614  1.1617
  261MOL0     H34448   1.026   8.230   0.217 -0.5581  1.0344 -2.2731
  261MOL0     H34449   0.883   8.302   0.215  2.2640  3.3978 -1.2640
  261MOL0     H34450   1.186   8.595   0.312 -0.2567 -0.9168  0.0541
  261MOL0     H34451   0.591   8.453   0.177  0.9703 -3.1311 -0.2224
  261MOL0     H34452   0.402   8.496   0.069 -1.6879  2.2363  1.2755
  262MOL0     O34453   4.490  10.481   5.956  0.6797  0.4967  0.3426
  262MOL0     C34454   4.561  10.381   5.968 -0.1468  0.2667 -0.2943
  262MOL0     O34455   4.521  10.251   5.963 -0.1853 -0.5094  0.1769
  262MOL0     C34456   4.381  10.231   5.947 -0.4109  0.6106  0.1282
  262MOL0     C34457   4.288  10.280   6.036 -0.2389  0.2621 -0.0754
  262MOL0     C34458   4.153  10.251   6.022  1.0739 -0.0243  0.6203
  262MOL0     C34459   4.110  10.154   5.935 -0.2003 -0.1765  0.1130
  262MOL0     O34460   3.981  10.102   5.924  0.6051 -0.5897 -0.0859
  262MOL0     C34461   3.907  10.118   6.049 -0.1615  0.6809 -0.0704
  262MOL0     C34462   3.785  10.029   6.012  1.6643  0.6312  0.7503
  262MOL0     C34463   3.675  10.034   6.119  0.5284  0.7146  0.5910
  262MOL0     C34464   3.545   9.999   6.057 -0.2991 -0.3980 -0.3934
  262MOL0     C34465   3.449   9.944   6.165 -0.2918 -0.7330 -0.3057
  262MOL0     C34466   3.325   9.866   6.114  1.2434 -0.8983 -0.1069
  262MOL0     C34467   3.193   9.963   6.119  0.2606 -0.1854  0.1042
  262MOL0     C34468   3.120   9.969   6.255 -0.5973  0.4198  1.1776
  262MOL0     N34469   3.021   9.861   6.264  0.3584  0.7313 -0.0395
  262MOL0     C34470   3.034   9.725   6.246  0.8580 -0.3447  0.0402
  262MOL0     C34471   2.913   9.678   6.233 -0.3526 -0.4493 -0.0648
  262MOL0     C34472   2.871   9.543   6.188  0.5808  0.2117 -0.4288
  262MOL0     C34473   2.728   9.502   6.229  0.4768  0.1904  0.3747
  262MOL0     C34474   2.690   9.358   6.194 -0.1716 -0.5281 -0.7865
  262MOL0     C34475   2.551   9.351   6.263 -0.9747 -0.0249  0.0772
  262MOL0     O34476   2.483   9.233   6.222 -0.2393 -0.5559  0.4281
  262MOL0     C34477   2.350   9.222   6.194 -0.1216  0.6315 -0.2738
  262MOL0     C34478   2.276   9.333   6.141 -0.1645  0.5509  0.6847
  262MOL0     C34479   2.139   9.313   6.106  0.6293 -0.2636  0.6912
  262MOL0     C34480   2.069   9.194   6.118  0.0393  0.9685 -0.3648
  262MOL0     C34481   1.927   9.196   6.081  0.5427 -0.5657  0.4359
  262MOL0     O34482   1.857   9.093   6.132  0.4393  0.1684  0.0794
  262MOL0     C34483   1.735   9.049   6.086 -0.1390 -1.0863  0.2967
  262MOL0     C34484   1.690   9.066   5.957  0.4575  0.4640 -0.0089
  262MOL0     C34485   1.562   9.017   5.920 -0.4387  0.8363  0.6310
  262MOL0     C34486   1.478   8.958   6.019  0.9029 -0.7280  0.3665
  262MOL0     O34487   1.346   8.936   5.986  1.0206 -0.2244 -0.3251
  262MOL0     C34488   1.303   8.892   5.852 -0.2852  0.2197 -0.9295
  262MOL0     C34489   1.156   8.861   5.855 -0.7440 -0.0109 -0.4762
  262MOL0     C34490   1.078   8.992   5.855  0.5685 -0.1950 -0.3422
  262MOL0     C34491   0.933   8.964   5.859 -0.5737 -0.3161  0.7079
  262MOL0     C34492   0.848   9.085   5.885 -0.1857 -0.7741  0.4112
  262MOL0     C34493   0.699   9.072   5.936  0.8646  0.4270  0.8541
  262MOL0     C34494   0.603   9.028   5.829  0.1421 -0.7632  0.5147
  262MOL0     C34495   0.457   8.996   5.880  0.0718 -0.4651 -0.1431
  262MOL0    Cl34496   0.385   9.145   5.938 -0.2637  0.1659  0.3306
  262MOL0     C34497   1.522   8.949   6.150 -0.3420  0.8485  0.0729
  262MOL0     C34498   1.652   8.997   6.184 -0.1901  0.8244 -1.8523
  262MOL0     O34499   1.883   9.283   6.007 -0.1736 -0.1306 -0.6613
  262MOL0     C34500   2.142   9.088   6.179  0.6400  0.5669 -0.5028
  262MOL0     C34501   2.282   9.102   6.209  0.0461  0.3677  0.1961
  262MOL0     N34502   2.821   9.782   6.245  0.4269 -0.3433 -0.0793
  262MOL0     N34503   2.888   9.888   6.264 -0.7351 -0.5523 -0.4267
  262MOL0     C34504   4.208  10.106   5.851 -0.8178  0.2464 -1.0694
  262MOL0     C34505   4.338  10.146   5.846 -0.3755 -0.0568 -0.8278
  262MOL0     C34506   4.708  10.404   5.976 -0.3384 -0.4655  0.7023
  262MOL0     C34507   4.793  10.300   5.978  0.0096  0.1363  0.0655
  262MOL0     C34508   4.930  10.312   5.986 -0.4071 -0.5124  0.2194
  262MOL0     C34509   4.987  10.444   6.002  0.2339 -0.1469 -0.1141
  262MOL0     O34510   5.123  10.466   5.986 -0.0589  0.1713  0.4850
  262MOL0     C34511   5.215  10.355   5.988  0.6417 -0.9068  0.7388
  262MOL0     C34512   5.363  10.396   5.989  0.0988 -0.0443 -0.2515
  262MOL0     C34513   5.395  10.487   6.111 -1.2172  0.0667 -0.1899
  262MOL0     C34514   5.545  10.519   6.135  0.1728  0.6983  0.8333
  262MOL0     C34515   5.621  10.384   6.131  0.9119 -0.1226 -0.1479
  262MOL0     C34516   5.683  10.285   6.127  0.1568  0.3905 -0.9267
  262MOL0     C34517   4.900  10.551   5.987  1.2375 -0.2451  0.3472
  262MOL0     C34518   4.762  10.542   5.980  0.9206 -0.1437  0.0724
  262MOL0     H34519   4.315  10.354   6.111 -2.6606 -0.3347  1.5421
  262MOL0     H34520   4.072  10.298   6.077  0.0915 -1.2667  0.2693
  262MOL0     H34521   3.876  10.219   6.078 -2.1522 -0.3873  1.8539
  262MOL0     H34522   3.958  10.070   6.134 -2.3020  0.5742  1.2314
  262MOL0     H34523   3.818   9.925   6.006 -0.1718  0.0444  0.2652
  262MOL0     H34524   3.744  10.076   5.923  1.1926 -2.0398 -0.5251
  262MOL0     H34525   3.663  10.140   6.144 -2.5398  1.6897 -3.6996
  262MOL0     H34526   3.698   9.963   6.198  1.0224 -0.3504 -0.4703
  262MOL0     H34527   3.501  10.093   6.022 -0.6939  0.0709  1.2305
  262MOL0     H34528   3.560   9.924   5.979 -1.4098 -0.7669 -0.2627
  262MOL0     H34529   3.431  10.024   6.236  2.9656  0.6858 -0.8834
  262MOL0     H34530   3.502   9.883   6.239 -1.5716 -0.8842  0.4944
  262MOL0     H34531   3.304   9.787   6.187 -1.5393 -0.4986 -0.3797
  262MOL0     H34532   3.348   9.827   6.014  1.2039 -0.9773 -0.0857
  262MOL0     H34533   3.215  10.063   6.082 -4.0208  0.7179 -0.4633
  262MOL0     H34534   3.121   9.930   6.044 -1.5523  3.0627  0.2581
  262MOL0     H34535   3.076  10.067   6.271 -2.1887 -0.0259 -0.1399
  262MOL0     H34536   3.193   9.941   6.332 -2.6585 -0.5869  2.8758
  262MOL0     H34537   3.119   9.663   6.221  2.6857  2.4890 -1.2252
  262MOL0     H34538   2.937   9.465   6.226 -0.4524 -0.5844 -0.2409
  262MOL0     H34539   2.882   9.541   6.079  2.3321 -3.7917 -0.3649
  262MOL0     H34540   2.653   9.567   6.183 -0.1896  0.2330  1.4883
  262MOL0     H34541   2.727   9.504   6.338  1.2902 -2.4336  0.4982
  262MOL0     H34542   2.683   9.347   6.086 -1.4636 -2.1761 -0.5738
  262MOL0     H34543   2.757   9.288   6.244 -1.1727  0.9381  2.9996
  262MOL0     H34544   2.504   9.449   6.250 -0.7801  0.1899  0.9293
  262MOL0     H34545   2.586   9.343   6.366  2.3277 -0.5150 -0.9614
  262MOL0     H34546   2.322   9.429   6.121  0.8672  0.0029  0.3703
  262MOL0     H34547   2.077   9.391   6.063 -1.3974 -1.2218  1.7223
  262MOL0     H34548   1.747   9.122   5.884  0.8127  1.3273  0.9172
  262MOL0     H34549   1.528   9.030   5.818 -0.5893 -0.6804  0.4625
  262MOL0     H34550   1.359   8.801   5.826 -2.0470 -2.2250  2.9146
  262MOL0     H34551   1.339   8.959   5.773 -1.5714  0.8306 -1.0115
  262MOL0     H34552   1.131   8.801   5.943  0.1214  3.2126  2.1401
  262MOL0     H34553   1.125   8.803   5.767  0.0289 -2.2020  0.6406
  262MOL0     H34554   1.100   9.043   5.761  1.3143  2.0595  0.9771
  262MOL0     H34555   1.108   9.059   5.936  0.1147  2.2065 -2.0590
  262MOL0     H34556   0.903   8.915   5.766 -1.8355  0.3815  0.7283
  262MOL0     H34557   0.923   8.905   5.951 -0.9292  1.4239  1.8264
  262MOL0     H34558   0.845   9.150   5.797 -1.6032  0.3391  1.2381
  262MOL0     H34559   0.900   9.140   5.964 -1.0376 -2.8328  2.5001
  262MOL0     H34560   0.666   9.173   5.960  3.6533  1.6949 -0.3213
  262MOL0     H34561   0.695   9.010   6.026 -3.6687 -1.4437 -0.3496
  262MOL0     H34562   0.596   9.107   5.753 -2.1959 -0.6960  0.7385
  262MOL0     H34563   0.645   8.942   5.775  2.9472  1.5117 -1.2454
  262MOL0     H34564   0.459   8.928   5.965  1.4151  1.4871  1.4779
  262MOL0     H34565   0.397   8.953   5.799  0.6877 -1.9906  0.1741
  262MOL0     H34566   1.456   8.914   6.229  1.2852  1.2284  1.6566
  262MOL0     H34567   1.689   8.999   6.286 -1.5714  4.3959 -1.2708
  262MOL0     H34568   2.097   8.990   6.187  1.3606  0.2714 -0.0340
  262MOL0     H34569   2.340   9.014   6.236  0.7926  0.8591  0.2290
  262MOL0     H34570   4.189  10.033   5.772  4.7181 -1.7202 -1.0488
  262MOL0     H34571   4.405  10.111   5.768  1.5422  3.9688 -1.2548
  262MOL0     H34572   4.764  10.197   5.957  2.8026 -0.0587 -3.8414
  262MOL0     H34573   4.989  10.221   5.996 -2.2467 -2.1063 -2.2260
  262MOL0     H34574   5.205  10.295   5.897  0.3716  1.5151 -0.9223
  262MOL0     H34575   5.195  10.290   6.074 -2.1672 -1.1156  0.0055
  262MOL0     H34576   5.423  10.305   5.994 -0.2844 -0.2355  1.5419
  262MOL0     H34577   5.392  10.450   5.898  2.1335 -0.4486  0.1014
  262MOL0     H34578   5.360  10.435   6.201 -0.8083  0.0401 -0.0475
  262MOL0     H34579   5.344  10.584   6.109 -1.8174 -0.1758  1.6238
  262MOL0     H34580   5.579  10.579   6.050 -2.1856  1.2001  0.1505
  262MOL0     H34581   5.567  10.577   6.225 -1.5629  0.6082  1.3568
  262MOL0     H34582   5.755  10.209   6.100  0.3255  0.6065 -1.0891
  262MOL0     H34583   4.945  10.649   5.995  0.9047 -0.2626  4.3418
  262MOL0     H34584   4.696  10.625   5.958  2.9441  1.1358 -1.5427
  263MOL0     O34585   8.976   6.613   0.968 -0.1627  0.7980  0.0584
  263MOL0     C34586   9.070   6.677   1.020 -0.3900  0.3306  1.0154
  263MOL0     O34587   9.063   6.782   1.105 -0.4092 -0.2537 -0.6283
  263MOL0     C34588   8.956   6.810   1.181  0.1541  0.2068 -0.3559
  263MOL0     C34589   8.864   6.711   1.233 -0.5583 -0.0692  0.1365
  263MOL0     C34590   8.739   6.763   1.288  0.1181  0.4474  0.1137
  263MOL0     C34591   8.723   6.897   1.328  0.6591 -0.4380 -0.2227
  263MOL0     O34592   8.619   6.957   1.395 -0.3730  0.3593  0.1546
  263MOL0     C34593   8.491   6.873   1.388 -0.6022 -0.8110  0.4007
  263MOL0     C34594   8.368   6.959   1.422 -0.2280 -0.0026  0.0753
  263MOL0     C34595   8.375   7.104   1.370  0.4606  0.0348  0.3938
  263MOL0     C34596   8.226   7.165   1.368  0.6162  0.7884 -0.1954
  263MOL0     C34597   8.238   7.313   1.303  0.6687  0.0373  0.1262
  263MOL0     C34598   8.109   7.386   1.287  0.3512  0.5220 -0.3760
  263MOL0     C34599   8.135   7.506   1.195 -0.0699  0.1800  0.0666
  263MOL0     C34600   8.033   7.621   1.224  0.2780  1.2390  0.2598
  263MOL0     N34601   7.885   7.589   1.205 -0.1615 -0.1319 -0.4275
  263MOL0     C34602   7.794   7.577   1.309  0.7272  0.0655  0.7899
  263MOL0     C34603   7.687   7.536   1.247  0.4048 -0.4891  0.5084
  263MOL0     C34604   7.561   7.495   1.318  0.1564  0.7579  0.0546
  263MOL0     C34605   7.428   7.498   1.248  0.2138  0.2826 -0.2432
  263MOL0     C34606   7.400   7.648   1.215 -0.0587  0.0647 -0.1096
  263MOL0     C34607   7.280   7.695   1.134  0.1299  0.7425 -0.0075
  263MOL0     O34608   7.165   7.643   1.198 -0.0442 -0.7133 -0.7896
  263MOL0     C34609   7.053   7.622   1.125  0.5086  0.2649 -0.0244
  263MOL0     C34610   6.946   7.543   1.188 -0.1523 -0.0597 -0.8928
  263MOL0     C34611   6.834   7.516   1.121 -0.0595  0.0358 -0.2494
  263MOL0     C34612   6.815   7.559   0.995  0.2849 -0.0857  0.4353
  263MOL0     C34613   6.696   7.514   0.910  0.2868 -0.4657 -0.2641
  263MOL0     O34614   6.680   7.575   0.787  0.4191 -0.6706  0.1168
  263MOL0     C34615   6.595   7.517   0.691  0.1847 -0.8261  0.5926
  263MOL0     C34616   6.657   7.471   0.574 -0.3634  0.7654  0.5366
  263MOL0     C34617   6.561   7.407   0.485 -0.7323  0.3109  0.2363
  263MOL0     C34618   6.427   7.432   0.495  0.9427  0.4055  0.4167
  263MOL0     O34619   6.343   7.401   0.388 -0.2890  0.3627 -0.9619
  263MOL0     C34620   6.295   7.263   0.397 -0.4500 -0.5212 -0.3436
  263MOL0     C34621   6.180   7.247   0.298  0.5423  0.0562  0.2975
  263MOL0     C34622   6.126   7.108   0.291  0.0650  0.6025  0.2674
  263MOL0     C34623   5.985   7.119   0.220  0.0958 -0.4848  0.1473
  263MOL0     C34624   5.938   6.978   0.189  0.1824 -0.2671  0.5714
  263MOL0     C34625   5.805   6.957   0.102 -1.2219 -0.9852 -0.3318
  263MOL0     C34626   5.677   6.973   0.180 -0.1472  0.6567 -0.6344
  263MOL0     C34627   5.563   7.017   0.089 -0.9639  0.8450  0.3713
  263MOL0    Cl34628   5.605   7.184   0.017 -0.1868 -0.2298  0.3521
  263MOL0     C34629   6.374   7.481   0.612 -0.1957 -0.1605 -0.5373
  263MOL0     C34630   6.457   7.526   0.709  0.7302  1.0158 -0.3573
  263MOL0     O34631   6.633   7.419   0.952  0.2944 -0.5601  0.1027
  263MOL0     C34632   6.914   7.645   0.934 -0.7092  0.5711  0.9294
  263MOL0     C34633   7.029   7.666   0.995 -0.0776 -0.9626 -0.0599
  263MOL0     N34634   7.717   7.508   1.106 -0.5965  0.2252 -0.9942
  263MOL0     N34635   7.838   7.543   1.090  0.1218  0.0201 -0.1751
  263MOL0     C34636   8.831   6.979   1.301  0.8871  0.2572 -0.7387
  263MOL0     C34637   8.933   6.942   1.220 -1.1054  0.2187  0.5830
  263MOL0     C34638   9.199   6.668   0.949 -0.2864 -0.2175  0.3843
  263MOL0     C34639   9.269   6.781   0.904  0.6549 -0.7008 -0.0263
  263MOL0     C34640   9.393   6.760   0.832 -0.3392  0.1783  0.0621
  263MOL0     C34641   9.450   6.628   0.830 -0.2495  0.0525  0.7690
  263MOL0     O34642   9.580   6.613   0.777 -0.3575  0.1846  0.1196
  263MOL0     C34643   9.644   6.481   0.769  0.9649 -0.1326 -0.7595
  263MOL0     C34644   9.789   6.498   0.740  0.3149  0.0150  0.0392
  263MOL0     C34645   9.852   6.362   0.696  0.2993  0.1196 -0.4143
  263MOL0     C34646   9.995   6.393   0.658  0.6710 -0.6682  0.5447
  263MOL0     C34647  10.068   6.270   0.626 -0.2878  0.1334 -0.2038
  263MOL0     C34648  10.147   6.180   0.592 -0.2873 -0.7534 -0.1567
  263MOL0     C34649   9.370   6.526   0.876  0.1183  0.8691  0.4808
  263MOL0     C34650   9.247   6.544   0.927  1.1329 -0.1831 -0.5939
  263MOL0     H34651   8.868   6.604   1.220 -2.3808 -0.3092  1.2655
  263MOL0     H34652   8.659   6.693   1.310  0.6518 -0.5714 -1.0877
  263MOL0     H34653   8.490   6.785   1.454 -0.5171 -2.5108 -1.7434
  263MOL0     H34654   8.477   6.838   1.285 -0.3525 -1.9009  0.7223
  263MOL0     H34655   8.351   6.961   1.530  0.3972 -2.7800  0.3163
  263MOL0     H34656   8.271   6.917   1.395 -0.0551 -1.3578  1.3497
  263MOL0     H34657   8.411   7.100   1.267 -1.5642 -0.5222 -0.3388
  263MOL0     H34658   8.434   7.169   1.435 -2.2503  3.4467 -0.2863
  263MOL0     H34659   8.146   7.106   1.320  0.2701  0.9557  0.1674
  263MOL0     H34660   8.197   7.173   1.473  2.2673 -1.5407  0.4984
  263MOL0     H34661   8.298   7.311   1.211 -1.5684  1.9503 -1.4770
  263MOL0     H34662   8.302   7.376   1.366 -0.4979  3.2423 -1.6530
  263MOL0     H34663   8.068   7.414   1.385  0.2967 -2.6625  0.6356
  263MOL0     H34664   8.035   7.325   1.235  0.6704  0.4055 -0.6953
  263MOL0     H34665   8.237   7.543   1.208 -0.3846  0.5336  1.7716
  263MOL0     H34666   8.121   7.489   1.088  0.7284 -3.0795  0.3826
  263MOL0     H34667   8.059   7.712   1.169 -2.2407  2.8518  1.5293
  263MOL0     H34668   8.053   7.653   1.327  2.5555 -2.0926  1.0133
  263MOL0     H34669   7.811   7.594   1.415  0.9075  0.9816  0.6229
  263MOL0     H34670   7.552   7.551   1.412  1.4922 -1.3117  1.5095
  263MOL0     H34671   7.578   7.392   1.350 -0.9379  0.2689 -0.8819
  263MOL0     H34672   7.351   7.461   1.316 -1.7762  1.2762 -1.8424
  263MOL0     H34673   7.419   7.436   1.159  1.5025  1.4610 -1.2392
  263MOL0     H34674   7.383   7.685   1.316 -1.1609 -0.5720 -0.0408
  263MOL0     H34675   7.487   7.705   1.180  2.6185 -3.7921 -0.4040
  263MOL0     H34676   7.281   7.651   1.034 -2.9792  1.0547 -0.2718
  263MOL0     H34677   7.267   7.804   1.135  1.2025  0.9024  2.4124
  263MOL0     H34678   6.958   7.502   1.288  0.8657  0.8155 -0.6326
  263MOL0     H34679   6.761   7.451   1.168  0.4507  0.5260  1.2865
  263MOL0     H34680   6.765   7.464   0.574 -0.2774  1.9239  0.8584
  263MOL0     H34681   6.593   7.359   0.393  3.2768 -2.1750  2.5994
  263MOL0     H34682   6.252   7.254   0.498 -2.0721  0.5288 -0.8901
  263MOL0     H34683   6.378   7.196   0.371  0.3353  0.3125 -0.0156
  263MOL0     H34684   6.203   7.274   0.194 -0.3929 -1.5567 -0.3699
  263MOL0     H34685   6.109   7.322   0.331  0.8920  0.9347 -0.8845
  263MOL0     H34686   6.120   7.057   0.388  0.3055  1.6082  0.8227
  263MOL0     H34687   6.196   7.049   0.231  1.6661  2.5290  0.1434
  263MOL0     H34688   5.924   7.185   0.283  0.9494  1.7187 -1.1882
  263MOL0     H34689   5.982   7.190   0.136 -2.5658 -0.3336  0.2740
  263MOL0     H34690   5.914   6.929   0.284 -1.9616  1.3071  0.9279
  263MOL0     H34691   6.019   6.927   0.136  3.2285  2.9731  1.6971
  263MOL0     H34692   5.814   6.856   0.062 -1.5956 -1.6965  1.2953
  263MOL0     H34693   5.801   7.032   0.022 -2.9977 -0.3446  0.3091
  263MOL0     H34694   5.646   6.885   0.237  1.0770  0.5521 -0.1055
  263MOL0     H34695   5.689   7.049   0.257  0.2594 -0.9933  1.0039
  263MOL0     H34696   5.478   7.023   0.157 -0.4140  0.1832  1.1400
  263MOL0     H34697   5.553   6.945   0.007  0.7021  1.0756 -0.0675
  263MOL0     H34698   6.266   7.485   0.620 -0.1229  1.2583  0.0345
  263MOL0     H34699   6.425   7.555   0.809  1.6963 -2.8577  1.2564
  263MOL0     H34700   6.902   7.694   0.838  2.8985  2.2200  1.1415
  263MOL0     H34701   7.105   7.722   0.942  1.0831 -3.0805 -0.7613
  263MOL0     H34702   8.815   7.083   1.327 -0.1108  0.9270 -3.6965
  263MOL0     H34703   9.001   7.019   1.186 -0.1071  0.4985  2.9889
  263MOL0     H34704   9.218   6.876   0.911  0.3311 -0.7334 -1.6265
  263MOL0     H34705   9.436   6.853   0.797 -0.6379 -0.2103 -1.4218
  263MOL0     H34706   9.596   6.420   0.692  2.0929  2.9885 -4.2595
  263MOL0     H34707   9.624   6.448   0.871  0.0854  0.3185 -0.7812
  263MOL0     H34708   9.791   6.566   0.654 -1.2226 -0.9165 -0.7771
  263MOL0     H34709   9.838   6.540   0.828 -1.4697  0.9420  0.6312
  263MOL0     H34710   9.799   6.320   0.610 -1.6164  3.1174 -0.8686
  263MOL0     H34711   9.846   6.291   0.779 -0.1637  2.6338  1.8351
  263MOL0     H34712   9.997   6.469   0.579  5.3564 -0.1712  0.8685
  263MOL0     H34713  10.040   6.440   0.745  0.0753 -2.6421  1.9879
  263MOL0     H34714  10.199   6.094   0.556 -0.1969 -0.2779 -1.2006
  263MOL0     H34715   9.401   6.424   0.855  0.4055  0.8728  0.8872
  263MOL0     H34716   9.201   6.455   0.968 -0.4848  1.0421  0.3488
  264MOL0     O34717  11.057   1.732   7.588  0.6184  0.9584 -0.7534
  264MOL0     C34718  11.120   1.774   7.681  0.1215  0.4971 -0.3607
  264MOL0     O34719  11.241   1.836   7.666  0.2257 -0.8018  0.3128
  264MOL0     C34720  11.302   1.835   7.548 -0.5197  0.2873  0.9748
  264MOL0     C34721  11.244   1.880   7.431 -0.0502  0.1554 -0.1840
  264MOL0     C34722  11.323   1.904   7.314  1.1830  0.0908 -0.3166
  264MOL0     C34723  11.461   1.866   7.313  0.2905  0.9444  0.9858
  264MOL0     O34724  11.542   1.896   7.205  0.3969 -0.5441  0.8462
  264MOL0     C34725  11.482   1.934   7.083 -0.2094 -0.2516  0.7387
  264MOL0     C34726  11.589   1.961   6.971 -0.1524 -0.3578 -0.1155
  264MOL0     C34727  11.530   2.046   6.858 -0.6932  0.1272  0.0206
  264MOL0     C34728  11.411   1.966   6.788 -0.1877 -0.5605  0.2332
  264MOL0     C34729  11.376   2.047   6.659 -0.5809 -0.5882 -0.3627
  264MOL0     C34730  11.253   1.987   6.596  0.3201 -0.4977  0.2557
  264MOL0     C34731  11.275   1.839   6.534 -0.0447  0.9717 -0.2263
  264MOL0     C34732  11.153   1.807   6.454 -0.6549  0.5756  0.5309
  264MOL0     N34733  11.021   1.820   6.513 -0.2527 -0.0859 -1.0127
  264MOL0     C34734  10.976   1.717   6.591  0.1729  0.7817  0.8783
  264MOL0     C34735  10.871   1.763   6.658 -0.4455  0.3444 -0.1708
  264MOL0     C34736  10.799   1.674   6.757  0.7014 -0.7048 -0.4591
  264MOL0     C34737  10.689   1.597   6.681 -0.3721  0.1957  0.1951
  264MOL0     C34738  10.629   1.496   6.772 -0.0062  0.0475 -0.1318
  264MOL0     C34739  10.510   1.422   6.707 -0.0650  0.4268 -0.4346
  264MOL0     O34740  10.435   1.349   6.799 -0.1408 -0.1226 -0.5235
  264MOL0     C34741  10.314   1.415   6.851 -0.1567 -0.4989  0.2994
  264MOL0     C34742  10.310   1.534   6.913 -0.0763 -0.0873 -1.4145
  264MOL0     C34743  10.192   1.597   6.955  0.7344  0.3173  0.3896
  264MOL0     C34744  10.069   1.529   6.928  0.0412 -0.1455 -1.3687
  264MOL0     C34745   9.935   1.590   6.968  1.2873  0.4618  1.0787
  264MOL0     O34746   9.937   1.717   7.015  0.3401  0.5163  0.0673
  264MOL0     C34747   9.823   1.771   7.070  0.2975  0.3243 -0.2598
  264MOL0     C34748   9.728   1.702   7.150  0.3913 -0.0224  0.6207
  264MOL0     C34749   9.619   1.764   7.202  0.4646 -0.2338  0.3839
  264MOL0     C34750   9.581   1.889   7.165 -0.1656  0.0759 -0.1754
  264MOL0     O34751   9.461   1.947   7.204  0.0940  0.4540 -0.4814
  264MOL0     C34752   9.340   1.884   7.158  0.3182  0.3882 -0.3551
  264MOL0     C34753   9.281   1.936   7.023  0.6601 -0.0313 -0.3402
  264MOL0     C34754   9.351   1.874   6.902  0.0030 -0.4407  0.0106
  264MOL0     C34755   9.331   1.729   6.882  0.1614 -0.5997 -0.1670
  264MOL0     C34756   9.369   1.688   6.743  0.1323  0.5497  0.2630
  264MOL0     C34757   9.310   1.549   6.715  0.8858  0.3559  0.3710
  264MOL0     C34758   9.354   1.506   6.578  0.3793 -0.1466  0.2736
  264MOL0     C34759   9.360   1.354   6.580  0.4174 -0.0350 -0.3827
  264MOL0    Cl34760   9.450   1.294   6.434  0.2084  0.4366 -0.3729
  264MOL0     C34761   9.676   1.971   7.100 -0.1728 -0.4106 -0.0821
  264MOL0     C34762   9.800   1.911   7.058 -0.0497 -0.1580 -0.6229
  264MOL0     O34763   9.833   1.527   6.932 -0.0580  0.3073 -0.1228
  264MOL0     C34764  10.076   1.399   6.872 -0.6360  0.3839  0.3069
  264MOL0     C34765  10.201   1.344   6.826 -1.0252  0.2886  0.5785
  264MOL0     N34766  10.847   1.896   6.625  0.0338  0.4018 -0.0425
  264MOL0     N34767  10.943   1.930   6.537  0.8486 -0.0140 -0.1227
  264MOL0     C34768  11.505   1.800   7.423 -0.4377  0.0708 -0.6416
  264MOL0     C34769  11.433   1.794   7.543  1.4505  0.3003 -0.0806
  264MOL0     C34770  11.047   1.776   7.816  0.5354 -0.0648  0.7673
  264MOL0     C34771  11.095   1.841   7.927 -0.7332  0.4774 -0.4930
  264MOL0     C34772  11.022   1.843   8.050 -0.3068  0.6266  0.0503
  264MOL0     C34773  10.908   1.767   8.063  0.3068 -0.3882  0.1105
  264MOL0     O34774  10.854   1.762   8.187  0.2596 -0.1999 -0.1339
  264MOL0     C34775  10.727   1.832   8.199 -1.0476 -1.0473 -0.6606
  264MOL0     C34776  10.593   1.756   8.192 -0.9565  0.2233 -0.4510
  264MOL0     C34777  10.475   1.849   8.145 -0.2303 -0.1642 -1.0819
  264MOL0     C34778  10.352   1.769   8.114 -0.1401  0.1608 -0.0488
  264MOL0     C34779  10.298   1.708   8.238 -0.3861  0.2435 -0.8519
  264MOL0     C34780  10.267   1.649   8.347 -0.1239  0.0556  0.1420
  264MOL0     C34781  10.863   1.694   7.959  0.4386  0.0177  0.0657
  264MOL0     C34782  10.923   1.708   7.834  0.0588 -0.2845  0.3643
  264MOL0     H34783  11.139   1.907   7.437 -0.0985 -0.3872  4.0026
  264MOL0     H34784  11.273   1.947   7.228  0.6934 -0.1880 -0.1769
  264MOL0     H34785  11.424   2.025   7.100 -2.4110 -0.4854 -3.9946
  264MOL0     H34786  11.409   1.857   7.055 -1.2329  0.5229  1.2325
  264MOL0     H34787  11.626   1.862   6.945 -0.5797 -0.7703  0.7986
  264MOL0     H34788  11.668   2.017   7.021  0.1896 -3.1478  2.7653
  264MOL0     H34789  11.610   2.052   6.784  0.7214 -3.0601  1.1036
  264MOL0     H34790  11.496   2.144   6.892 -0.7828  0.4701 -1.0483
  264MOL0     H34791  11.447   1.864   6.772  4.7017  1.3149 -3.4855
  264MOL0     H34792  11.317   1.969   6.844 -0.6052  0.4007 -0.4733
  264MOL0     H34793  11.470   2.042   6.604 -0.6537 -1.1985 -0.4424
  264MOL0     H34794  11.343   2.148   6.687 -1.7279 -0.6001 -1.5987
  264MOL0     H34795  11.220   2.053   6.515  2.2585 -0.2505 -0.3691
  264MOL0     H34796  11.178   1.985   6.676  0.1876  0.7427  0.1815
  264MOL0     H34797  11.359   1.829   6.464 -0.5104  1.9401 -0.9576
  264MOL0     H34798  11.283   1.768   6.616  0.7587 -1.3694 -2.2051
  264MOL0     H34799  11.147   1.699   6.435 -0.3288  0.1487  2.5339
  264MOL0     H34800  11.159   1.865   6.362  5.0778  1.7274  1.2367
  264MOL0     H34801  11.004   1.612   6.590 -1.4818  0.2558 -2.0965
  264MOL0     H34802  10.741   1.738   6.825  3.5476  1.0137  0.4850
  264MOL0     H34803  10.862   1.597   6.802  0.9330 -1.3027 -1.7489
  264MOL0     H34804  10.726   1.552   6.589 -2.0144  0.0064 -0.4128
  264MOL0     H34805  10.613   1.670   6.652 -1.1863  0.2680  2.2800
  264MOL0     H34806  10.703   1.421   6.803 -0.0041  0.1951  0.2159
  264MOL0     H34807  10.596   1.548   6.862  0.3270  1.7828 -0.9839
  264MOL0     H34808  10.545   1.345   6.637  2.8837  0.4643  0.8398
  264MOL0     H34809  10.444   1.487   6.650  0.6959  1.2433 -0.4004
  264MOL0     H34810  10.402   1.590   6.925 -0.4761  0.5396 -1.2433
  264MOL0     H34811  10.192   1.688   7.015 -4.4327 -0.0583  1.4421
  264MOL0     H34812   9.736   1.596   7.171 -1.5713  0.0351  1.9443
  264MOL0     H34813   9.549   1.703   7.259  1.3177 -1.5924  0.0145
  264MOL0     H34814   9.268   1.902   7.238  1.5894 -3.3621  1.9000
  264MOL0     H34815   9.347   1.775   7.153 -0.6949 -0.0300  3.6956
  264MOL0     H34816   9.300   2.043   7.016  1.8668 -0.2089  0.0433
  264MOL0     H34817   9.176   1.908   7.011  0.2525  1.5058 -0.5761
  264MOL0     H34818   9.455   1.906   6.904 -0.7114  2.3985  3.8658
  264MOL0     H34819   9.299   1.918   6.817  1.4009  1.6165  0.1601
  264MOL0     H34820   9.390   1.678   6.958  0.8341  1.6479  0.9106
  264MOL0     H34821   9.223   1.716   6.891 -0.2799  3.0013  1.4077
  264MOL0     H34822   9.476   1.684   6.718  0.1526 -2.6528  0.4724
  264MOL0     H34823   9.323   1.757   6.672  0.0839 -1.5859 -1.8961
  264MOL0     H34824   9.201   1.559   6.710  0.6998 -1.1406 -4.7107
  264MOL0     H34825   9.333   1.478   6.795  2.7287  0.3142 -0.1544
  264MOL0     H34826   9.279   1.532   6.503  2.4440  1.7506 -1.2474
  264MOL0     H34827   9.453   1.547   6.556 -0.1113  2.6021  2.6191
  264MOL0     H34828   9.264   1.304   6.573  2.7296 -4.8893 -1.2644
  264MOL0     H34829   9.418   1.327   6.669 -0.1478 -1.8075 -0.5255
  264MOL0     H34830   9.645   2.073   7.081  0.4490  0.1275  1.5894
  264MOL0     H34831   9.873   1.977   7.013  0.1987  0.5571  0.7936
  264MOL0     H34832   9.983   1.345   6.857 -1.3127  0.8144  2.6005
  264MOL0     H34833  10.206   1.246   6.780 -1.9100  0.8018 -0.6743
  264MOL0     H34834  11.607   1.762   7.424 -0.6178 -0.7645 -3.6601
  264MOL0     H34835  11.492   1.759   7.627 -0.9793  1.5298  2.2776
  264MOL0     H34836  11.189   1.896   7.925 -0.5809  0.5950  3.2078
  264MOL0     H34837  11.057   1.900   8.136  0.4227 -2.2982  1.8175
  264MOL0     H34838  10.725   1.908   8.121 -0.1056 -1.4676 -1.1102
  264MOL0     H34839  10.728   1.892   8.290  4.4100  2.9913 -2.7894
  264MOL0     H34840  10.595   1.672   8.122 -2.3888  0.7824 -1.1963
  264MOL0     H34841  10.575   1.702   8.286 -0.4143 -2.4941 -1.8000
  264MOL0     H34842  10.507   1.909   8.059  0.8495 -1.8581 -1.9138
  264MOL0     H34843  10.449   1.927   8.217 -0.9748  0.0617 -1.5871
  264MOL0     H34844  10.286   1.843   8.067 -0.5209 -0.4913 -0.5632
  264MOL0     H34845  10.379   1.689   8.044  2.4143  0.7545  0.1657
  264MOL0     H34846  10.223   1.607   8.435 -0.0398  0.2750  0.2915
  264MOL0     H34847  10.781   1.622   7.966  1.3382 -1.2069 -1.3867
  264MOL0     H34848  10.884   1.656   7.747  1.4970 -1.6712  0.4953
  265MOL0     O34849   5.161   3.662   1.367  0.4626  0.3208 -0.0761
  265MOL0     C34850   5.152   3.688   1.248 -0.0468  0.8550 -0.0237
  265MOL0     O34851   5.037   3.721   1.178  0.2833  0.0572 -0.4892
  265MOL0     C34852   4.907   3.743   1.227 -0.7927  0.5697  0.4990
  265MOL0     C34853   4.799   3.727   1.134 -0.8022  0.9794 -0.2364
  265MOL0     C34854   4.665   3.739   1.183  0.2358  0.4802 -0.4328
  265MOL0     C34855   4.639   3.772   1.317  0.8997  0.8773 -0.3127
  265MOL0     O34856   4.515   3.781   1.372  0.3339 -0.2669  0.0046
  265MOL0     C34857   4.398   3.769   1.289 -0.2888 -0.0152 -0.2020
  265MOL0     C34858   4.284   3.817   1.372  0.1492 -0.9658 -0.4589
  265MOL0     C34859   4.224   3.710   1.469 -0.0988  0.0625 -0.0089
  265MOL0     C34860   4.113   3.782   1.550  0.8016 -0.1761 -0.3277
  265MOL0     C34861   4.058   3.681   1.658  0.4685 -0.8657 -0.4923
  265MOL0     C34862   3.923   3.744   1.710  0.5628  0.0670 -0.3042
  265MOL0     C34863   3.816   3.647   1.763  0.6866  0.6882  0.4002
  265MOL0     C34864   3.684   3.711   1.797 -0.5055  0.0211  0.7789
  265MOL0     N34865   3.692   3.799   1.912 -0.1740  0.3528  0.7182
  265MOL0     C34866   3.716   3.765   2.037 -0.4309  0.1997  0.5479
  265MOL0     C34867   3.762   3.875   2.102  0.3429 -0.2592  0.4473
  265MOL0     C34868   3.791   3.903   2.245 -1.2438 -0.3598 -0.6212
  265MOL0     C34869   3.939   3.891   2.288  0.4227  0.1510 -0.2488
  265MOL0     C34870   3.999   3.751   2.290 -0.7127  1.2571  0.3515
  265MOL0     C34871   4.128   3.742   2.377  0.0829 -0.2492 -0.2030
  265MOL0     O34872   4.192   3.620   2.349  0.1648 -0.5493  0.3930
  265MOL0     C34873   4.319   3.592   2.404 -0.3666 -0.3418  0.6021
  265MOL0     C34874   4.388   3.481   2.360 -0.1550  0.3137  0.2449
  265MOL0     C34875   4.525   3.467   2.385  0.0155 -0.2683 -0.8462
  265MOL0     C34876   4.596   3.575   2.453  0.7274 -0.2213  0.3087
  265MOL0     C34877   4.742   3.558   2.487  0.4458 -0.6693 -1.2488
  265MOL0     O34878   4.789   3.435   2.476 -0.0546  0.6563 -0.5560
  265MOL0     C34879   4.921   3.395   2.509 -0.2576 -0.4130  0.1649
  265MOL0     C34880   4.972   3.299   2.426 -1.1517 -0.1447  0.7103
  265MOL0     C34881   5.105   3.250   2.455 -0.6672 -0.1471  0.3045
  265MOL0     C34882   5.174   3.280   2.568  0.0781  0.3220 -0.2277
  265MOL0     O34883   5.291   3.226   2.594 -0.6082  0.0110 -0.4233
  265MOL0     C34884   5.366   3.147   2.501  0.0739 -0.6723 -0.7843
  265MOL0     C34885   5.499   3.109   2.561  0.6525 -0.9955  0.7168
  265MOL0     C34886   5.577   3.221   2.628  0.4378  0.4152 -0.6773
  265MOL0     C34887   5.700   3.169   2.694 -0.0395  0.8059 -0.1181
  265MOL0     C34888   5.786   3.273   2.779  0.0810 -0.9413  0.3178
  265MOL0     C34889   5.891   3.327   2.686  0.3791  0.7555  0.5113
  265MOL0     C34890   5.950   3.469   2.719  0.5929 -0.2970  0.1079
  265MOL0     C34891   6.022   3.519   2.595 -0.1245  0.1178 -0.7440
  265MOL0    Cl34892   6.148   3.398   2.530 -0.0276 -0.5127  0.1529
  265MOL0     C34893   5.124   3.374   2.655  0.0448 -0.8497 -0.7923
  265MOL0     C34894   5.001   3.431   2.621 -0.9067  0.7091 -0.3547
  265MOL0     O34895   4.806   3.654   2.530  0.1574  0.8109 -0.5515
  265MOL0     C34896   4.520   3.681   2.500 -0.7321 -0.3647 -0.4569
  265MOL0     C34897   4.386   3.682   2.487 -0.3583 -0.2909  0.0124
  265MOL0     N34898   3.757   3.979   2.009  0.1812  0.0374 -0.4195
  265MOL0     N34899   3.726   3.935   1.898  0.3693  0.2234  0.4936
  265MOL0     C34900   4.749   3.802   1.400  0.4151 -0.0201  0.0612
  265MOL0     C34901   4.886   3.775   1.360  0.1826  0.0547  0.1550
  265MOL0     C34902   5.276   3.696   1.164  0.0980 -0.3329 -0.7841
  265MOL0     C34903   5.402   3.694   1.217  0.4574 -0.4549 -0.1352
  265MOL0     C34904   5.517   3.703   1.140  1.1502 -0.1139  0.5049
  265MOL0     C34905   5.510   3.725   1.004 -0.2836  0.0600 -0.7428
  265MOL0     O34906   5.609   3.733   0.917 -0.4057  0.4264 -0.6596
  265MOL0     C34907   5.732   3.772   0.965  0.1781 -0.4416 -0.4046
  265MOL0     C34908   5.846   3.760   0.859 -0.0302 -0.1754 -0.8934
  265MOL0     C34909   5.782   3.805   0.723 -0.1180 -0.3030  0.4220
  265MOL0     C34910   5.881   3.773   0.607 -0.0397 -0.2663 -0.6322
  265MOL0     C34911   5.883   3.635   0.557 -0.5840 -0.5805  0.6618
  265MOL0     C34912   5.904   3.519   0.519 -0.1711 -0.7911 -0.2238
  265MOL0     C34913   5.384   3.739   0.944  1.0350  0.4679  1.2114
  265MOL0     C34914   5.269   3.715   1.027  0.1169 -0.3840  0.1913
  265MOL0     H34915   4.818   3.683   1.037  1.5819  1.2949  0.0120
  265MOL0     H34916   4.582   3.709   1.121  0.1090  1.3314 -0.6858
  265MOL0     H34917   4.375   3.667   1.258 -2.2070 -0.6446  2.7566
  265MOL0     H34918   4.396   3.831   1.199 -3.2246 -0.1813 -0.3496
  265MOL0     H34919   4.205   3.851   1.305 -0.4503  0.8157  1.0554
  265MOL0     H34920   4.307   3.904   1.434 -2.8329 -1.7254  1.9585
  265MOL0     H34921   4.303   3.665   1.530  0.8070 -0.0472 -1.2318
  265MOL0     H34922   4.181   3.632   1.406 -0.8827  1.3856 -1.1819
  265MOL0     H34923   4.150   3.877   1.591  0.1787 -1.5658  3.9703
  265MOL0     H34924   4.036   3.810   1.477  0.3366 -2.1523 -0.6535
  265MOL0     H34925   4.123   3.663   1.744  0.6710 -1.4927 -0.7668
  265MOL0     H34926   4.037   3.583   1.614  0.2428 -0.0258 -2.3641
  265MOL0     H34927   3.878   3.784   1.619  2.0334 -1.3338 -1.7199
  265MOL0     H34928   3.937   3.818   1.789  0.6623  0.0403 -0.2966
  265MOL0     H34929   3.795   3.577   1.682  0.8366  0.9131  0.1668
  265MOL0     H34930   3.851   3.593   1.851 -0.7221 -0.8979  0.0286
  265MOL0     H34931   3.616   3.628   1.819 -2.1879  0.9989 -0.4674
  265MOL0     H34932   3.658   3.777   1.714  0.5364  0.1750  0.5545
  265MOL0     H34933   3.691   3.671   2.086 -0.7057 -0.5959 -1.0685
  265MOL0     H34934   3.737   3.827   2.302 -0.5065  0.6522  1.5164
  265MOL0     H34935   3.754   4.004   2.266 -1.9594 -0.4660 -1.3051
  265MOL0     H34936   3.932   3.935   2.388 -2.2984 -1.7550  0.5107
  265MOL0     H34937   3.988   3.967   2.226 -1.0775  0.4839 -1.0738
  265MOL0     H34938   3.931   3.668   2.313 -1.9879  2.0580 -0.3869
  265MOL0     H34939   4.034   3.733   2.188  2.2911 -1.6661  1.7208
  265MOL0     H34940   4.099   3.753   2.482  1.8718  0.8140  0.2195
  265MOL0     H34941   4.187   3.830   2.352 -0.9218  0.6842  0.6149
  265MOL0     H34942   4.340   3.415   2.288 -0.0423 -0.1070  0.5532
  265MOL0     H34943   4.569   3.371   2.362  2.5887  0.3277  1.1257
  265MOL0     H34944   4.929   3.259   2.334  0.8456  0.7278 -0.6813
  265MOL0     H34945   5.151   3.180   2.386 -2.3844  0.8706 -1.9948
  265MOL0     H34946   5.392   3.209   2.415 -0.7715 -0.8916 -1.2089
  265MOL0     H34947   5.319   3.051   2.476  0.0275 -0.5366 -1.2213
  265MOL0     H34948   5.556   3.071   2.475 -0.7421 -0.0541 -0.6821
  265MOL0     H34949   5.489   3.027   2.632  0.3105 -0.2398  1.5526
  265MOL0     H34950   5.513   3.266   2.705  1.0162  1.5634 -0.8402
  265MOL0     H34951   5.600   3.303   2.560 -0.8537 -0.5868 -2.4076
  265MOL0     H34952   5.665   3.096   2.768 -1.0054 -0.7856 -2.0350
  265MOL0     H34953   5.754   3.108   2.621 -0.9412 -0.8977  0.5541
  265MOL0     H34954   5.823   3.222   2.868 -2.9888 -0.3733  2.0772
  265MOL0     H34955   5.721   3.352   2.818 -1.4708 -2.1009  0.2033
  265MOL0     H34956   5.844   3.332   2.588 -0.2649 -1.5588  0.6527
  265MOL0     H34957   5.966   3.247   2.689 -0.5509 -0.1234  0.9094
  265MOL0     H34958   5.878   3.538   2.763  0.1385 -0.3257 -0.5784
  265MOL0     H34959   6.021   3.458   2.802 -0.4319 -0.2018  1.0291
  265MOL0     H34960   6.078   3.610   2.620  2.7461 -1.1990 -1.9449
  265MOL0     H34961   5.955   3.556   2.518 -1.6092 -2.2125 -0.6588
  265MOL0     H34962   5.171   3.392   2.751 -1.3266  1.0160 -0.4360
  265MOL0     H34963   4.965   3.506   2.690 -0.3710  2.0867 -1.5406
  265MOL0     H34964   4.573   3.759   2.554  0.1118 -0.2831 -1.3691
  265MOL0     H34965   4.332   3.771   2.517 -0.9951 -0.7851  0.3584
  265MOL0     H34966   4.723   3.831   1.501  1.6179 -2.7916  1.2611
  265MOL0     H34967   4.960   3.801   1.435  1.2103  0.3115 -0.9208
  265MOL0     H34968   5.404   3.665   1.322 -0.7791 -2.5260 -0.6288
  265MOL0     H34969   5.612   3.686   1.189  1.8059 -0.9722 -1.0139
  265MOL0     H34970   5.771   3.709   1.045 -1.4432  0.8782  1.5304
  265MOL0     H34971   5.714   3.873   1.003 -3.1082 -0.0369 -2.5450
  265MOL0     H34972   5.929   3.827   0.887  0.2835 -0.4702 -1.1071
  265MOL0     H34973   5.870   3.654   0.862 -1.0470 -0.4211 -1.0836
  265MOL0     H34974   5.760   3.910   0.747 -1.8465 -0.8646  1.4200
  265MOL0     H34975   5.688   3.755   0.698  0.4285 -1.4030  0.5420
  265MOL0     H34976   5.862   3.845   0.527  0.5974  1.6040  0.7961
  265MOL0     H34977   5.978   3.795   0.654 -1.3538  1.7486  1.3625
  265MOL0     H34978   5.918   3.416   0.495 -1.2315 -1.1616  0.6529
  265MOL0     H34979   5.376   3.748   0.837 -1.2608 -1.6314  1.1127
  265MOL0     H34980   5.166   3.704   0.995 -0.0107  0.7420  0.1719
  266MOL0     O34981   3.448   0.156   6.249  0.1005 -0.0684 -0.1677
  266MOL0     C34982   3.431   0.255   6.322 -0.1299  0.0958  0.8115
  266MOL0     O34983   3.347   0.266   6.423  0.2036 -0.1935  0.0402
  266MOL0     C34984   3.258   0.165   6.450  0.8527  0.0626 -0.1164
  266MOL0     C34985   3.289   0.028   6.481  0.2047  0.0365 -0.0848
  266MOL0     C34986   3.180  -0.061   6.507  0.6832 -0.2374 -0.4101
  266MOL0     C34987   3.051  -0.017   6.525 -0.3755  0.1912  0.3593
  266MOL0     O34988   2.953  -0.108   6.550  0.4188  0.6040  0.9396
  266MOL0     C34989   2.818  -0.071   6.504 -0.9189  0.8188 -0.2709
  266MOL0     C34990   2.812  -0.069   6.353 -0.4025  0.1594  0.1311
  266MOL0     C34991   2.659  -0.070   6.305  0.0064  0.3004 -0.4375
  266MOL0     C34992   2.582   0.065   6.308  0.8653 -0.6923  0.3023
  266MOL0     C34993   2.442   0.043   6.248  0.3396  0.7314 -0.3404
  266MOL0     C34994   2.355   0.161   6.253  0.4078  0.1601  0.4081
  266MOL0     C34995   2.234   0.144   6.165  0.1131  0.1741 -0.3230
  266MOL0     C34996   2.243   0.188   6.017 -0.3615 -0.3499  0.4048
  266MOL0     N34997   2.129   0.141   5.934 -0.0457 -0.1500  0.1311
  266MOL0     C34998   2.041   0.227   5.867 -0.2422 -0.1491  0.5173
  266MOL0     C34999   1.947   0.144   5.804 -0.4485 -0.2310 -0.9164
  266MOL0     C35000   1.823   0.191   5.723 -0.2303  0.3787  0.5097
  266MOL0     C35001   1.825   0.151   5.574  0.3692 -0.2871 -0.6610
  266MOL0     C35002   1.811  -0.007   5.551 -0.0629  0.0045 -0.7512
  266MOL0     C35003   1.672  -0.065   5.582 -0.6540 -0.8912 -0.3560
  266MOL0     O35004   1.571   0.011   5.507 -0.6603  0.2112 -0.0398
  266MOL0     C35005   1.451   0.033   5.574 -0.9587  0.1377  0.2429
  266MOL0     C35006   1.377  -0.066   5.631 -0.1107  0.1295 -0.3987
  266MOL0     C35007   1.256  -0.026   5.694 -0.5298 -0.0123 -0.8457
  266MOL0     C35008   1.202   0.102   5.708 -0.2162  0.2528  0.9817
  266MOL0     C35009   1.080   0.151   5.778  0.3706  0.1989  0.1335
  266MOL0     O35010   1.044   0.280   5.761  0.1634  1.1684  0.2732
  266MOL0     C35011   0.928   0.330   5.806 -0.6890 -0.2554  0.5178
  266MOL0     C35012   0.937   0.449   5.873  0.0281  0.0360  0.0737
  266MOL0     C35013   0.818   0.513   5.900  0.4137 -0.1267 -0.7689
  266MOL0     C35014   0.693   0.465   5.868  0.9127  0.5071 -0.1206
  266MOL0     O35015   0.586   0.546   5.920 -0.0383  1.1299  0.0631
  266MOL0     C35016   0.451   0.495   5.898  0.6318 -0.3150  0.5027
  266MOL0     C35017   0.414   0.417   6.026  0.3563 -0.6094  0.8682
  266MOL0     C35018   0.437   0.500   6.155  0.4027 -0.2593  0.6175
  266MOL0     C35019   0.335   0.618   6.176  0.3427 -0.5433  0.5031
  266MOL0     C35020   0.370   0.712   6.295 -0.3197  0.0627  0.2203
  266MOL0     C35021   0.257   0.815   6.327  0.1647 -0.7904  0.2471
  266MOL0     C35022   0.280   0.914   6.442 -0.3006  0.0207  0.4069
  266MOL0     C35023   0.372   1.029   6.401 -0.2652 -0.6434 -0.6068
  266MOL0    Cl35024   0.294   1.134   6.273 -0.3994 -0.0802  0.3569
  266MOL0     C35025   0.681   0.344   5.787 -0.2179 -0.7203 -0.1674
  266MOL0     C35026   0.802   0.275   5.768 -0.1265 -0.2456  0.0990
  266MOL0     O35027   1.019   0.069   5.843 -0.2102 -0.1567 -0.2118
  266MOL0     C35028   1.287   0.198   5.647  0.2564  0.0190 -0.2650
  266MOL0     C35029   1.402   0.162   5.581 -0.5444 -0.3596 -0.4427
  266MOL0     N35030   1.980   0.011   5.837  0.2240  0.5948 -0.8667
  266MOL0     N35031   2.086   0.016   5.916  0.3389 -0.1677  0.2842
  266MOL0     C35032   3.022   0.118   6.500  0.1747  0.2171  0.2903
  266MOL0     C35033   3.127   0.209   6.458 -0.0123  0.0259 -0.1829
  266MOL0     C35034   3.544   0.350   6.310 -0.0278  0.0806  0.3320
  266MOL0     C35035   3.555   0.466   6.393  0.3711 -0.2258  0.4063
  266MOL0     C35036   3.649   0.557   6.377 -0.1405  0.0432 -0.5030
  266MOL0     C35037   3.754   0.543   6.281 -0.4693 -0.8503 -0.1143
  266MOL0     O35038   3.854   0.635   6.277 -0.4774  0.6315  0.2342
  266MOL0     C35039   3.985   0.581   6.295  0.4078 -0.0964  0.0545
  266MOL0     C35040   4.010   0.519   6.433 -0.3629 -0.9017 -0.0815
  266MOL0     C35041   3.956   0.601   6.545  0.1042 -0.1011 -0.3210
  266MOL0     C35042   4.057   0.626   6.661  0.4471  0.0820  0.8519
  266MOL0     C35043   4.075   0.509   6.751 -0.8259  0.2832 -0.0278
  266MOL0     C35044   4.077   0.407   6.817  0.3281 -0.1417 -0.0855
  266MOL0     C35045   3.751   0.432   6.195  0.3684 -0.6324  0.6488
  266MOL0     C35046   3.645   0.337   6.206  0.2921  0.2102  0.5210
  266MOL0     H35047   3.386  -0.017   6.468  0.8499  1.4091 -0.2181
  266MOL0     H35048   3.205  -0.167   6.502 -0.9568 -0.7084  0.6005
  266MOL0     H35049   2.782   0.020   6.553  1.1747  2.3425 -1.4038
  266MOL0     H35050   2.768  -0.158   6.548 -0.5144 -0.1846 -1.7147
  266MOL0     H35051   2.857  -0.161   6.316 -1.6948  0.0570 -1.3234
  266MOL0     H35052   2.868   0.016   6.312 -1.3150  0.4054 -0.6493
  266MOL0     H35053   2.603  -0.144   6.364  3.9575 -1.6387  1.2556
  266MOL0     H35054   2.653  -0.093   6.198 -1.6428  1.2055 -0.5716
  266MOL0     H35055   2.579   0.107   6.409  3.5031 -1.0588  0.5891
  266MOL0     H35056   2.639   0.140   6.252 -1.4945  0.7937 -0.2542
  266MOL0     H35057   2.388  -0.026   6.313 -3.1852  2.2780 -1.3955
  266MOL0     H35058   2.440  -0.002   6.148  1.7170  1.1083 -0.5584
  266MOL0     H35059   2.405   0.254   6.225 -1.0005 -0.0481 -3.4292
  266MOL0     H35060   2.326   0.160   6.358  1.0328  0.9247  0.5976
  266MOL0     H35061   2.211   0.039   6.144 -0.1983  0.7175 -3.2515
  266MOL0     H35062   2.160   0.206   6.215  1.4718 -1.8302  4.7448
  266MOL0     H35063   2.337   0.149   5.975  0.7312 -0.7899  3.0334
  266MOL0     H35064   2.245   0.297   6.008 -1.0235 -0.4298 -0.8066
  266MOL0     H35065   2.037   0.334   5.881 -1.2190  0.0079 -0.7551
  266MOL0     H35066   1.805   0.299   5.726  2.7658  0.9572  4.3277
  266MOL0     H35067   1.740   0.144   5.776  0.9275  0.6026  2.6013
  266MOL0     H35068   1.922   0.181   5.532  0.1742 -0.1803 -1.0379
  266MOL0     H35069   1.741   0.206   5.530  0.1037  0.5219  0.7836
  266MOL0     H35070   1.820  -0.025   5.443 -0.5046 -1.0580 -0.6255
  266MOL0     H35071   1.884  -0.062   5.612  0.2747  2.2810  1.0143
  266MOL0     H35072   1.649  -0.062   5.689  1.2745  0.9374  0.0814
  266MOL0     H35073   1.659  -0.166   5.543 -0.3520 -0.9281 -0.3681
  266MOL0     H35074   1.402  -0.168   5.656 -1.0274 -0.7086 -2.5657
  266MOL0     H35075   1.207  -0.115   5.732  2.1749 -1.7407 -1.1376
  266MOL0     H35076   1.037   0.483   5.897  0.3087  0.1032 -1.1225
  266MOL0     H35077   0.826   0.609   5.949 -0.8088  0.6790 -2.1019
  266MOL0     H35078   0.432   0.441   5.804 -2.4164  0.3946  0.6003
  266MOL0     H35079   0.390   0.585   5.888  1.3391  0.0174 -1.2121
  266MOL0     H35080   0.476   0.327   6.027  0.0444 -0.8407  2.2362
  266MOL0     H35081   0.309   0.388   6.011 -0.0954  1.1640  0.3931
  266MOL0     H35082   0.542   0.530   6.149  0.1732  0.4456  0.0074
  266MOL0     H35083   0.424   0.443   6.248  1.0465  0.9097  1.4598
  266MOL0     H35084   0.314   0.688   6.094 -1.4675  1.1549  2.2769
  266MOL0     H35085   0.235   0.576   6.194  0.3111 -0.6229  0.1553
  266MOL0     H35086   0.467   0.757   6.273  0.9631 -3.2701 -1.6795
  266MOL0     H35087   0.395   0.652   6.383  1.3869  0.0474 -0.2455
  266MOL0     H35088   0.176   0.749   6.358 -1.0154  0.7187  0.5424
  266MOL0     H35089   0.225   0.876   6.241 -1.7781  1.7263  2.5757
  266MOL0     H35090   0.185   0.955   6.479 -1.6653 -3.0209  0.5607
  266MOL0     H35091   0.325   0.852   6.520  1.4357  0.5728 -0.1025
  266MOL0     H35092   0.469   0.988   6.371  0.7700  1.3793 -0.2263
  266MOL0     H35093   0.406   1.092   6.483  1.0021 -2.1626  0.0876
  266MOL0     H35094   0.583   0.310   5.755 -0.6731  1.6854 -1.5035
  266MOL0     H35095   0.788   0.180   5.716 -2.5476 -0.7496  1.5382
  266MOL0     H35096   1.258   0.302   5.635  1.4349  0.1236 -3.1332
  266MOL0     H35097   1.448   0.251   5.540 -1.7141  0.6199  0.2956
  266MOL0     H35098   2.916   0.140   6.491 -0.0495 -0.8715  0.0247
  266MOL0     H35099   3.104   0.311   6.428 -0.9561 -0.5665 -1.6389
  266MOL0     H35100   3.487   0.481   6.476 -0.4862  2.2055 -0.6477
  266MOL0     H35101   3.658   0.646   6.438 -0.9053 -0.9358  1.0842
  266MOL0     H35102   4.052   0.667   6.283 -0.1006  0.4094  0.7193
  266MOL0     H35103   4.018   0.507   6.222  0.0863 -2.1351  1.8726
  266MOL0     H35104   3.967   0.420   6.446 -1.1645 -0.1961  3.8030
  266MOL0     H35105   4.118   0.503   6.444 -0.3927 -0.2474  1.3731
  266MOL0     H35106   3.864   0.556   6.583 -0.2594 -0.2352 -1.3522
  266MOL0     H35107   3.920   0.695   6.505  1.3376  1.5078  2.0820
  266MOL0     H35108   4.150   0.661   6.614 -1.4667  1.1405 -2.5559
  266MOL0     H35109   4.021   0.706   6.725 -4.2562 -1.6339  0.7078
  266MOL0     H35110   4.059   0.313   6.866 -1.5355  0.3314  0.2112
  266MOL0     H35111   3.830   0.420   6.122 -1.0245  0.2609 -1.0731
  266MOL0     H35112   3.631   0.249   6.145 -5.0900 -1.0593  2.9603
  267MOL0     O35113   4.396   6.372   5.861 -0.0078  0.6536 -0.4258
  267MOL0     C35114   4.465   6.303   5.939 -0.4073  0.2120  0.2121
  267MOL0     O35115   4.419   6.212   6.028  1.1091 -0.0802  0.5951
  267MOL0     C35116   4.283   6.199   6.028  0.3394 -0.2309  0.5150
  267MOL0     C35117   4.202   6.242   6.135  0.1941  0.2430  0.3592
  267MOL0     C35118   4.063   6.216   6.149  0.0069  0.5199 -0.5926
  267MOL0     C35119   4.000   6.151   6.047 -0.4129 -0.0217 -0.5866
  267MOL0     O35120   3.871   6.126   6.055 -0.2167 -0.6465 -0.2118
  267MOL0     C35121   3.819   6.010   5.999 -0.4028 -0.6669  0.3042
  267MOL0     C35122   3.677   5.970   6.046  0.3693  0.9772 -0.3651
  267MOL0     C35123   3.682   5.903   6.187 -0.3991 -0.5925  0.9259
  267MOL0     C35124   3.542   5.839   6.218  0.4379  0.0872  0.4370
  267MOL0     C35125   3.542   5.778   6.356 -0.3323 -0.3060  0.1733
  267MOL0     C35126   3.417   5.688   6.378 -0.2181  0.2013  0.4931
  267MOL0     C35127   3.288   5.772   6.375  0.0742  0.4230 -1.1134
  267MOL0     C35128   3.161   5.689   6.352  0.1234 -0.1917  0.0387
  267MOL0     N35129   3.041   5.767   6.390 -0.3189  0.1909 -0.0517
  267MOL0     C35130   2.970   5.745   6.497  0.0899  0.2051  0.1078
  267MOL0     C35131   2.863   5.825   6.475 -0.6618 -0.5905  0.2383
  267MOL0     C35132   2.736   5.842   6.561  0.0738 -0.1269  0.7518
  267MOL0     C35133   2.680   5.707   6.611 -0.0464  0.5496  0.1935
  267MOL0     C35134   2.654   5.588   6.507  0.1061  0.4850 -0.0112
  267MOL0     C35135   2.549   5.623   6.398  0.4824 -0.7226 -0.2247
  267MOL0     O35136   2.449   5.706   6.461 -0.3715 -0.1495 -0.4319
  267MOL0     C35137   2.344   5.655   6.524 -0.0054  0.8376  0.5939
  267MOL0     C35138   2.257   5.742   6.585 -0.0909  0.0356  0.1394
  267MOL0     C35139   2.147   5.710   6.662  0.4516 -0.2907  0.1893
  267MOL0     C35140   2.112   5.573   6.680 -1.0694 -0.3060 -1.1577
  267MOL0     C35141   1.989   5.537   6.754  0.0522  0.4794 -0.0008
  267MOL0     O35142   1.930   5.634   6.829  0.4128 -0.1443 -0.2117
  267MOL0     C35143   1.804   5.617   6.890 -0.3661  0.9014  0.5369
  267MOL0     C35144   1.741   5.741   6.921 -1.1892  0.3115 -0.3713
  267MOL0     C35145   1.612   5.745   6.970 -0.2916 -0.0846 -0.4775
  267MOL0     C35146   1.540   5.631   6.995  0.2230 -0.3426 -1.1297
  267MOL0     O35147   1.416   5.631   7.053  0.5440 -0.3022 -0.0699
  267MOL0     C35148   1.321   5.725   6.995  0.1735  0.8658 -0.5002
  267MOL0     C35149   1.185   5.693   7.062 -0.0492  0.2946 -0.5330
  267MOL0     C35150   1.080   5.785   7.001 -0.2908 -0.7343  0.0390
  267MOL0     C35151   0.945   5.760   7.074  0.4085 -0.5535 -0.0700
  267MOL0     C35152   0.829   5.835   7.013 -0.5500 -0.5451  0.1747
  267MOL0     C35153   0.706   5.808   7.086  0.8464  1.0198  0.7391
  267MOL0     C35154   0.587   5.894   7.036 -0.5781  0.6018 -0.1104
  267MOL0     C35155   0.457   5.840   7.073  0.6145  0.0432 -0.0252
  267MOL0    Cl35156   0.327   5.928   6.982  0.1185 -0.0619  0.1971
  267MOL0     C35157   1.602   5.507   6.972  0.6492  0.4134 -0.0579
  267MOL0     C35158   1.725   5.497   6.912  0.5100  0.0312 -0.8222
  267MOL0     O35159   1.935   5.431   6.730  0.0219  0.0946  0.2443
  267MOL0     C35160   2.198   5.480   6.617  0.0886 -0.0550  0.1949
  267MOL0     C35161   2.304   5.517   6.532 -0.4032 -0.1157 -0.3964
  267MOL0     N35162   2.880   5.899   6.353  0.2920 -0.2072 -0.9755
  267MOL0     N35163   2.989   5.862   6.308  0.8157  0.5866  0.3465
  267MOL0     C35164   4.077   6.109   5.937 -0.1564 -0.1981  0.0158
  267MOL0     C35165   4.219   6.123   5.932 -0.3821  0.4488  0.1884
  267MOL0     C35166   4.611   6.300   5.917 -0.6242 -0.3502  0.9300
  267MOL0     C35167   4.661   6.380   5.818 -0.5872  0.1357 -0.0208
  267MOL0     C35168   4.792   6.378   5.771 -0.5556  0.6147 -0.1649
  267MOL0     C35169   4.885   6.301   5.843  0.6135  0.5280  0.1302
  267MOL0     O35170   5.015   6.300   5.799 -1.1097 -0.0548  0.4939
  267MOL0     C35171   5.133   6.256   5.875 -0.3908  0.4717 -0.5359
  267MOL0     C35172   5.260   6.258   5.798  0.2405  0.2358  0.8518
  267MOL0     C35173   5.393   6.254   5.868  0.3927  0.3304  0.5636
  267MOL0     C35174   5.500   6.284   5.775 -0.1004 -0.3606 -0.0461
  267MOL0     C35175   5.624   6.246   5.848 -1.0259 -0.4181 -0.0786
  267MOL0     C35176   5.713   6.205   5.923  0.6638  0.2828  0.2836
  267MOL0     C35177   4.836   6.211   5.937 -0.2754 -0.3078  0.3849
  267MOL0     C35178   4.703   6.217   5.981 -0.8218  0.5579 -0.1636
  267MOL0     H35179   4.264   6.283   6.215 -2.2817 -2.4104  3.9898
  267MOL0     H35180   4.025   6.239   6.248 -0.1073 -0.7337 -0.3271
  267MOL0     H35181   3.886   5.924   6.012 -0.8884 -0.8376  1.8644
  267MOL0     H35182   3.822   6.032   5.892  1.2008 -0.0015  0.4602
  267MOL0     H35183   3.628   5.893   5.986  2.1404 -0.7880  0.3232
  267MOL0     H35184   3.615   6.060   6.047 -1.3404 -0.1435 -1.3494
  267MOL0     H35185   3.714   5.964   6.272 -1.8136 -1.2217  1.9526
  267MOL0     H35186   3.748   5.817   6.178 -0.1241 -0.3728  0.8195
  267MOL0     H35187   3.463   5.913   6.203 -0.2425 -0.3155  1.8767
  267MOL0     H35188   3.545   5.754   6.151  0.6797  0.8305 -0.5227
  267MOL0     H35189   3.556   5.859   6.429  0.5906  0.7632 -1.1386
  267MOL0     H35190   3.631   5.717   6.377 -0.4824 -0.5243  0.1804
  267MOL0     H35191   3.422   5.637   6.474 -4.4010 -0.6918  0.3950
  267MOL0     H35192   3.404   5.603   6.311  0.1206  0.8813 -0.4657
  267MOL0     H35193   3.270   5.820   6.472  2.3005 -0.0910 -0.3685
  267MOL0     H35194   3.292   5.858   6.308  2.1665  3.2440  2.2740
  267MOL0     H35195   3.169   5.588   6.394  0.5026 -0.8024 -1.4351
  267MOL0     H35196   3.162   5.667   6.245  0.0414  0.7762 -0.1686
  267MOL0     H35197   3.003   5.673   6.571  1.6028  0.2506 -0.4790
  267MOL0     H35198   2.661   5.891   6.498 -0.2282 -2.1086 -0.5292
  267MOL0     H35199   2.762   5.909   6.643  0.2591  0.4286  0.2525
  267MOL0     H35200   2.586   5.735   6.660  1.5212  4.0062  1.5989
  267MOL0     H35201   2.749   5.683   6.693  0.5514  1.5706  0.0127
  267MOL0     H35202   2.752   5.564   6.465  0.5273  1.9571  0.0672
  267MOL0     H35203   2.612   5.500   6.557 -0.3120  0.5618 -0.2184
  267MOL0     H35204   2.506   5.534   6.350  2.8064 -1.8146 -0.4433
  267MOL0     H35205   2.607   5.676   6.321 -2.3643 -0.7372 -2.5781
  267MOL0     H35206   2.286   5.846   6.572 -1.6173  0.3356 -1.1946
  267MOL0     H35207   2.090   5.786   6.714 -0.4616 -1.6193  1.1881
  267MOL0     H35208   1.797   5.832   6.904  0.0979 -1.0852 -5.3787
  267MOL0     H35209   1.573   5.844   6.993  1.0932  0.8288 -1.8631
  267MOL0     H35210   1.307   5.707   6.889 -1.7588  1.0652 -0.3211
  267MOL0     H35211   1.348   5.828   7.022  0.1275  0.0474  3.3802
  267MOL0     H35212   1.189   5.698   7.172 -0.0216  1.4679 -0.5788
  267MOL0     H35213   1.160   5.587   7.048  2.9051 -0.8496  1.7333
  267MOL0     H35214   1.066   5.778   6.893  2.3164  3.6589 -0.8285
  267MOL0     H35215   1.108   5.888   7.024 -2.3838  0.2070 -1.3251
  267MOL0     H35216   0.916   5.656   7.059  1.0075 -1.2227  2.7846
  267MOL0     H35217   0.946   5.769   7.183  2.0969 -1.5762  0.0407
  267MOL0     H35218   0.810   5.803   6.910  1.5534 -0.4979 -0.2780
  267MOL0     H35219   0.851   5.942   7.005  3.7322 -1.3544 -2.3608
  267MOL0     H35220   0.719   5.818   7.194 -1.4533  0.6265  1.1066
  267MOL0     H35221   0.685   5.702   7.065  4.5866 -0.0342  1.6165
  267MOL0     H35222   0.588   5.995   7.077 -0.0817  0.5597 -0.0110
  267MOL0     H35223   0.591   5.912   6.928 -1.4295 -1.5914 -0.5598
  267MOL0     H35224   0.446   5.863   7.180 -3.3649  3.9389 -0.9476
  267MOL0     H35225   0.444   5.734   7.053 -1.0797  0.1156  0.5196
  267MOL0     H35226   1.542   5.418   6.985 -1.8394  1.7513 -1.5420
  267MOL0     H35227   1.755   5.395   6.888 -0.3473  0.1693 -2.7206
  267MOL0     H35228   2.167   5.378   6.631  0.7174  0.0682  3.3866
  267MOL0     H35229   2.354   5.438   6.478  2.5547  1.7214 -0.5854
  267MOL0     H35230   4.037   6.043   5.861 -0.7348  0.9215 -0.6870
  267MOL0     H35231   4.268   6.071   5.850 -2.2051  0.0024 -0.6720
  267MOL0     H35232   4.596   6.443   5.758  1.6959  2.6685 -0.0139
  267MOL0     H35233   4.825   6.430   5.682 -1.6410  1.7586  0.0635
  267MOL0     H35234   5.119   6.168   5.938 -0.3599  0.9128  0.0904
  267MOL0     H35235   5.143   6.339   5.945 -0.7391  0.2741 -0.2503
  267MOL0     H35236   5.260   6.173   5.729  0.2246  1.2793 -0.4821
  267MOL0     H35237   5.262   6.352   5.742  0.4886  0.1296  0.6768
  267MOL0     H35238   5.398   6.152   5.906  1.1771 -0.0086 -0.4047
  267MOL0     H35239   5.382   6.325   5.951 -1.7428 -2.2691  2.7076
  267MOL0     H35240   5.489   6.229   5.682 -1.4681  0.1675 -0.2290
  267MOL0     H35241   5.501   6.390   5.748 -0.8797 -1.0162 -2.9180
  267MOL0     H35242   5.799   6.170   5.976  0.9697 -2.2043 -1.6382
  267MOL0     H35243   4.903   6.142   5.988 -0.1402 -2.6636 -2.6968
  267MOL0     H35244   4.663   6.161   6.065  0.8661  0.6738  0.7484
  268MOL0     O35245   6.624  10.418  10.877  0.2821 -0.0163  0.5261
  268MOL0     C35246   6.689  10.321  10.921 -0.2106 -0.5863 -0.0854
  268MOL0     O35247   6.639  10.200  10.953 -0.1492 -0.5231  0.0862
  268MOL0     C35248   6.505  10.184  10.954 -0.3397 -0.3143 -0.4715
  268MOL0     C35249   6.422  10.275  11.013  0.2808 -0.4230 -0.5096
  268MOL0     C35250   6.280  10.257  10.995  0.2921  0.2163 -0.3389
  268MOL0     C35251   6.230  10.141  10.938 -0.0054 -0.2247 -0.4164
  268MOL0     O35252   6.094  10.118  10.925  0.2162 -0.5262 -0.5193
  268MOL0     C35253   6.006  10.195  11.010  0.3720 -0.2112  0.3561
  268MOL0     C35254   5.876  10.125  11.016 -0.3686  0.0189 -0.4684
  268MOL0     C35255   5.755  10.206  11.063 -0.1704 -0.8352 -0.0578
  268MOL0     C35256   5.654  10.102  11.108  0.3251  0.2978 -0.4474
  268MOL0     C35257   5.531  10.182  11.170 -0.2860  0.3359 -0.2810
  268MOL0     C35258   5.405  10.099  11.188 -0.1824  0.4395 -0.6995
  268MOL0     C35259   5.300  10.173  11.281 -0.1105  0.0359  0.0890
  268MOL0     C35260   5.219  10.269  11.197  0.1791  0.0627  0.0681
  268MOL0     N35261   5.101  10.322  11.262  0.2146  0.0886  0.2385
  268MOL0     C35262   4.976  10.269  11.260  0.4372 -0.1389  0.3574
  268MOL0     C35263   4.889  10.342  11.338 -1.1127  0.5369  0.5821
  268MOL0     C35264   4.744  10.323  11.353  0.6048  0.2817 -0.1936
  268MOL0     C35265   4.664  10.336  11.217 -0.1168 -0.0560  0.0903
  268MOL0     C35266   4.519  10.355  11.250 -0.4604 -0.3555 -0.4069
  268MOL0     C35267   4.434  10.371  11.121  0.9631 -0.5168  0.3220
  268MOL0     O35268   4.303  10.383  11.180  0.4421  0.8953 -0.2515
  268MOL0     C35269   4.189  10.363  11.107 -0.8224 -0.1936 -0.0351
  268MOL0     C35270   4.186  10.376  10.971 -0.3235  0.0499 -0.2165
  268MOL0     C35271   4.073  10.347  10.898  0.3981  0.0254  0.5471
  268MOL0     C35272   3.952  10.286  10.957  0.0887  0.3122  0.0087
  268MOL0     C35273   3.839  10.229  10.881 -0.4841  0.2286  0.2815
  268MOL0     O35274   3.829  10.259  10.749  0.1242 -0.0433  0.1804
  268MOL0     C35275   3.700  10.258  10.688  0.2259 -0.0267  0.3339
  268MOL0     C35276   3.578  10.285  10.747  0.3915 -0.8494  0.2459
  268MOL0     C35277   3.467  10.301  10.661  0.6714 -0.5630 -0.3396
  268MOL0     C35278   3.465  10.283  10.523 -0.7849  0.9942  0.0727
  268MOL0     O35279   3.355  10.296  10.450  0.7362 -0.3063  0.2297
  268MOL0     C35280   3.358  10.406  10.357 -0.2945 -0.0515  0.3330
  268MOL0     C35281   3.236  10.494  10.386  0.1158  0.5314  0.0951
  268MOL0     C35282   3.231  10.561  10.525  0.1916  0.1693 -0.6253
  268MOL0     C35283   3.108  10.640  10.551  0.6212 -0.0719 -1.1782
  268MOL0     C35284   3.096  10.682  10.694 -0.6853  0.4778  0.4431
  268MOL0     C35285   2.972  10.763  10.731  0.6045  0.5660 -0.4693
  268MOL0     C35286   2.961  10.895  10.652  0.4156 -0.0603 -0.2617
  268MOL0     C35287   2.832  10.967  10.683  0.5200  0.0058  0.4126
  268MOL0    Cl35288   2.849  11.134  10.600  0.2499  0.2196  0.1595
  268MOL0     C35289   3.590  10.250  10.465 -0.0647  0.1786  0.0956
  268MOL0     C35290   3.705  10.241  10.549  0.4954 -0.2803 -0.0957
  268MOL0     O35291   3.764  10.164  10.943  0.6129 -0.1726 -1.1227
  268MOL0     C35292   3.969  10.275  11.093  0.1233 -0.4306  0.3645
  268MOL0     C35293   4.083  10.308  11.168  0.0255  0.5573  0.0387
  268MOL0     N35294   4.974  10.447  11.373 -0.4481 -0.0956 -0.0562
  268MOL0     N35295   5.099  10.435  11.330  1.1128 -0.6630  0.3595
  268MOL0     C35296   6.317  10.054  10.880 -0.1186 -0.1729  0.3313
  268MOL0     C35297   6.455  10.074  10.897 -0.5176  0.2930 -0.3617
  268MOL0     C35298   6.839  10.333  10.942  0.6052  0.9721 -0.5393
  268MOL0     C35299   6.929  10.384  10.848  0.4461 -0.1895 -0.1507
  268MOL0     C35300   7.062  10.403  10.890  0.7294  0.7325 -0.3596
  268MOL0     C35301   7.111  10.365  11.013  0.7028  0.5227  0.4707
  268MOL0     O35302   7.240  10.397  11.044  0.0377 -0.1216  0.5246
  268MOL0     C35303   7.298  10.360  11.169 -0.3894 -1.7782  0.2528
  268MOL0     C35304   7.440  10.421  11.176  0.1051 -0.2471  0.3221
  268MOL0     C35305   7.532  10.327  11.098  0.0551  0.7280 -0.4326
  268MOL0     C35306   7.680  10.357  11.122  0.7649 -0.5416  0.6226
  268MOL0     C35307   7.720  10.354  11.259 -0.6393  0.1742 -0.7945
  268MOL0     C35308   7.764  10.365  11.377 -0.4785 -0.3203 -0.9379
  268MOL0     C35309   7.019  10.295  11.096  0.0561  0.1959 -0.0854
  268MOL0     C35310   6.889  10.282  11.064  0.0683 -0.6394 -0.5161
  268MOL0     H35311   6.473  10.356  11.063  2.9471 -2.4264  0.2964
  268MOL0     H35312   6.215  10.340  11.022  0.1327  0.2804 -0.9049
  268MOL0     H35313   5.978  10.281  10.949 -1.4671 -1.2976 -0.4089
  268MOL0     H35314   6.040  10.222  11.110 -2.6614  0.5459  1.2748
  268MOL0     H35315   5.904  10.042  11.082  3.2783  0.2078 -1.5745
  268MOL0     H35316   5.860  10.081  10.918  1.4078  1.4119 -1.4490
  268MOL0     H35317   5.725  10.265  10.976  1.9248 -0.1281 -0.3603
  268MOL0     H35318   5.782  10.281  11.137  1.4877 -0.8783 -0.5656
  268MOL0     H35319   5.622  10.043  11.022 -0.4826  2.9769 -2.1125
  268MOL0     H35320   5.699  10.033  11.180 -1.8625  1.0537  1.7871
  268MOL0     H35321   5.504  10.267  11.107 -1.1723 -1.9299 -3.1841
  268MOL0     H35322   5.565  10.231  11.261  1.5252 -0.1142 -0.6621
  268MOL0     H35323   5.440  10.015  11.247  1.2669  0.2604 -1.7521
  268MOL0     H35324   5.357  10.063  11.096 -1.0080  1.5420 -0.7253
  268MOL0     H35325   5.229  10.101  11.322  0.1443 -0.1606  0.1861
  268MOL0     H35326   5.345  10.225  11.366  1.0460 -0.5421 -0.1600
  268MOL0     H35327   5.176  10.212  11.114  0.2040 -0.5089  0.4372
  268MOL0     H35328   5.276  10.356  11.163 -1.3819  0.2889 -2.2122
  268MOL0     H35329   4.937  10.185  11.204 -0.9335 -0.4956  1.7869
  268MOL0     H35330   4.701  10.399  11.420 -1.4213 -2.9089  2.4799
  268MOL0     H35331   4.723  10.221  11.388 -3.2905  0.8214 -0.4521
  268MOL0     H35332   4.680  10.248  11.153 -1.7294  0.7180 -1.4672
  268MOL0     H35333   4.690  10.431  11.169 -3.0902  0.7795 -0.0649
  268MOL0     H35334   4.482  10.275  11.315  0.2608  1.2426  2.1301
  268MOL0     H35335   4.506  10.447  11.307 -2.2904 -1.6234  1.3666
  268MOL0     H35336   4.453  10.279  11.065  0.0040 -0.4758 -0.0939
  268MOL0     H35337   4.461  10.464  11.071  2.7917  0.3898  2.8034
  268MOL0     H35338   4.272  10.413  10.917 -0.4863 -1.2968 -1.4817
  268MOL0     H35339   4.077  10.364  10.791 -0.9659  0.1684  0.4982
  268MOL0     H35340   3.570  10.298  10.854 -0.1779 -1.7892  0.3375
  268MOL0     H35341   3.373  10.325  10.710 -0.1341 -0.6353 -1.7866
  268MOL0     H35342   3.349  10.369  10.255 -0.2037 -1.6126  0.8738
  268MOL0     H35343   3.450  10.463  10.376  0.3087 -0.9805  0.2276
  268MOL0     H35344   3.144  10.440  10.361 -1.3120  2.8197  0.1559
  268MOL0     H35345   3.237  10.580  10.320  1.8172 -0.3964 -1.1793
  268MOL0     H35346   3.328  10.605  10.552 -0.8666  2.5963 -0.5368
  268MOL0     H35347   3.228  10.471  10.588  2.4138  0.1582 -0.4651
  268MOL0     H35348   3.108  10.731  10.490  1.6681  1.7248  1.3287
  268MOL0     H35349   3.014  10.599  10.515 -0.7333  1.0771  0.8757
  268MOL0     H35350   3.185  10.743  10.712 -1.9554  3.5223 -2.6163
  268MOL0     H35351   3.090  10.590  10.753 -0.4185  0.3501  0.2732
  268MOL0     H35352   2.985  10.788  10.837  2.0815  3.2303 -1.2015
  268MOL0     H35353   2.876  10.711  10.733  0.4355  0.8383  2.3603
  268MOL0     H35354   3.040  10.968  10.674 -1.2799  1.5489  0.6908
  268MOL0     H35355   2.964  10.874  10.544 -2.8621 -1.3677 -0.2091
  268MOL0     H35356   2.819  10.972  10.791  2.0241  0.8113  0.5984
  268MOL0     H35357   2.755  10.908  10.632  3.2833 -1.8922 -1.9164
  268MOL0     H35358   3.592  10.229  10.359  3.0149  0.9764 -0.0989
  268MOL0     H35359   3.802  10.220  10.505  0.2585  3.2300 -2.6557
  268MOL0     H35360   3.896  10.218  11.151  0.5539 -3.3098 -1.6954
  268MOL0     H35361   4.093  10.297  11.276  1.8277  1.3927  0.0008
  268MOL0     H35362   6.282   9.967  10.826  2.3052 -0.8244 -0.3110
  268MOL0     H35363   6.515  10.001  10.844 -0.3823  1.1789 -1.4812
  268MOL0     H35364   6.891  10.423  10.754 -0.1051 -2.7639 -1.0654
  268MOL0     H35365   7.127  10.461  10.825  3.3501  1.6677  2.7957
  268MOL0     H35366   7.307  10.251  11.173 -0.3156 -1.7536  2.5108
  268MOL0     H35367   7.248  10.404  11.256 -0.5781 -0.4966 -0.4755
  268MOL0     H35368   7.447  10.519  11.128  1.8749  1.3195  3.5125
  268MOL0     H35369   7.471  10.436  11.280 -2.3870  0.5022  1.0142
  268MOL0     H35370   7.516  10.354  10.993  0.9675  2.1494 -0.2372
  268MOL0     H35371   7.517  10.221  11.117  2.7387  0.2774 -0.4659
  268MOL0     H35372   7.742  10.290  11.062  2.0320 -0.1083  1.3861
  268MOL0     H35373   7.711  10.449  11.071 -2.7982 -0.6981 -2.2253
  268MOL0     H35374   7.802  10.367  11.477  1.1883 -2.6104 -1.4399
  268MOL0     H35375   7.047  10.257  11.194 -1.3530  1.3294  0.8160
  268MOL0     H35376   6.819  10.245  11.138  0.9613 -1.3947 -0.0240
  269MOL0     O35377   6.651   4.484   1.127  0.4829  0.2502 -0.3279
  269MOL0     C35378   6.693   4.412   1.039  0.5617 -0.1588 -0.8649
  269MOL0     O35379   6.624   4.323   0.970  0.3260  0.6212  0.0860
  269MOL0     C35380   6.482   4.323   0.961  0.0508 -0.3680  1.0409
  269MOL0     C35381   6.425   4.241   0.863  0.0581 -0.3132 -0.1066
  269MOL0     C35382   6.288   4.225   0.834 -0.5483 -0.2244 -0.5076
  269MOL0     C35383   6.201   4.289   0.911  0.2045  0.0268 -0.2110
  269MOL0     O35384   6.067   4.279   0.882 -0.6347 -0.9086  0.1749
  269MOL0     C35385   5.965   4.361   0.944  0.5729  0.2978  0.5950
  269MOL0     C35386   5.839   4.290   0.910 -0.0612  0.3555 -0.0113
  269MOL0     C35387   5.718   4.356   0.986  0.7899  0.5388 -0.0223
  269MOL0     C35388   5.586   4.286   0.956 -1.0834 -0.0411 -0.6500
  269MOL0     C35389   5.465   4.334   1.031 -0.0560 -0.0995  0.2026
  269MOL0     C35390   5.352   4.240   0.993 -0.5861 -0.1980  0.3567
  269MOL0     C35391   5.216   4.304   1.027 -0.7714 -0.0794  0.5667
  269MOL0     C35392   5.103   4.208   0.998 -0.0507  0.5447  0.6822
  269MOL0     N35393   4.991   4.251   1.076  0.0203  0.7957  0.2196
  269MOL0     C35394   4.942   4.176   1.185 -0.1156 -0.3497  0.5069
  269MOL0     C35395   4.821   4.229   1.214 -0.3097  0.1966  0.0816
  269MOL0     C35396   4.733   4.194   1.324  0.4763  0.3793  0.3528
  269MOL0     C35397   4.585   4.226   1.298 -0.1042 -0.1401 -0.1849
  269MOL0     C35398   4.494   4.197   1.420  0.0870 -0.1090 -0.4238
  269MOL0     C35399   4.346   4.220   1.405  0.3785  0.6000  0.1066
  269MOL0     O35400   4.278   4.164   1.514 -0.4239 -0.6924 -0.5549
  269MOL0     C35401   4.143   4.174   1.517 -0.0266 -0.1098  0.1560
  269MOL0     C35402   4.075   4.216   1.399 -0.5721  0.5275  0.0193
  269MOL0     C35403   3.942   4.232   1.404  0.4366 -0.5394  0.0683
  269MOL0     C35404   3.859   4.204   1.524  0.1715  0.6608 -1.1032
  269MOL0     C35405   3.714   4.206   1.515 -0.5701 -0.1609  0.4465
  269MOL0     O35406   3.643   4.175   1.623 -0.6123  0.0733 -0.4917
  269MOL0     C35407   3.507   4.169   1.622  0.8586 -0.1184  0.6123
  269MOL0     C35408   3.432   4.273   1.566 -1.5136  0.5071  1.2974
  269MOL0     C35409   3.298   4.294   1.575 -0.4005 -0.0724  1.1243
  269MOL0     C35410   3.218   4.193   1.641  0.0677  0.2380  0.4087
  269MOL0     O35411   3.082   4.214   1.648  0.7455 -0.1784 -0.6171
  269MOL0     C35412   3.011   4.199   1.776 -0.3605  0.4292  0.1938
  269MOL0     C35413   2.861   4.204   1.769  0.3467  0.5559  0.3471
  269MOL0     C35414   2.797   4.106   1.667 -0.2008  0.1896 -0.1766
  269MOL0     C35415   2.650   4.097   1.703  0.9025  0.2808  0.5390
  269MOL0     C35416   2.575   4.004   1.602  0.1310 -0.8205  0.3052
  269MOL0     C35417   2.423   4.044   1.578 -0.5858  0.3423 -0.3631
  269MOL0     C35418   2.332   3.939   1.519  0.7841 -0.0644  0.0117
  269MOL0     C35419   2.186   3.977   1.531 -0.6832  0.1504  1.1348
  269MOL0    Cl35420   2.136   3.982   1.701  0.4177  0.0815  0.4644
  269MOL0     C35421   3.282   4.077   1.683  0.3305 -0.1819 -0.2198
  269MOL0     C35422   3.423   4.068   1.678  0.3113  0.5017 -0.5878
  269MOL0     O35423   3.670   4.248   1.410  0.3339  0.4263  0.3976
  269MOL0     C35424   3.926   4.171   1.643  0.0532 -0.3711 -0.0546
  269MOL0     C35425   4.067   4.163   1.635  0.3020  0.2366 -0.2394
  269MOL0     N35426   4.793   4.323   1.118  0.0485 -0.0034  0.1347
  269MOL0     N35427   4.894   4.342   1.038 -0.4074 -0.2173  0.7681
  269MOL0     C35428   6.250   4.380   1.013 -0.4116  0.5994 -0.2602
  269MOL0     C35429   6.387   4.394   1.031 -0.2161 -0.0270 -0.6704
  269MOL0     C35430   6.835   4.419   1.000  0.0049 -0.5357  0.0584
  269MOL0     C35431   6.916   4.523   1.058  0.3602 -0.0746  0.3555
  269MOL0     C35432   7.047   4.536   1.012 -0.8053  0.5854 -0.5648
  269MOL0     C35433   7.108   4.437   0.929  0.4151  0.0840  0.1207
  269MOL0     O35434   7.241   4.429   0.904 -0.2656 -0.0945  0.6224
  269MOL0     C35435   7.328   4.520   0.978  0.0825  0.4838  0.1651
  269MOL0     C35436   7.480   4.480   0.975  0.7516 -0.7998 -0.8669
  269MOL0     C35437   7.548   4.439   0.849 -0.1432 -0.2833  0.7145
  269MOL0     C35438   7.698   4.429   0.858 -0.4747  0.6478 -0.8675
  269MOL0     C35439   7.741   4.336   0.749 -0.9808 -0.5442 -1.6820
  269MOL0     C35440   7.776   4.272   0.651 -0.3771  0.1400  0.1898
  269MOL0     C35441   7.027   4.337   0.882 -0.9073  0.4971 -0.3939
  269MOL0     C35442   6.892   4.335   0.908  0.1132  0.8311  0.3942
  269MOL0     H35443   6.492   4.169   0.815  0.6092 -0.6235  1.0943
  269MOL0     H35444   6.266   4.144   0.764  1.1963 -0.8728 -0.3540
  269MOL0     H35445   5.948   4.463   0.907 -2.4539 -0.9330 -1.8316
  269MOL0     H35446   5.989   4.353   1.050  4.3335 -1.3002 -0.1908
  269MOL0     H35447   5.845   4.182   0.922 -1.1798  0.4282  1.4852
  269MOL0     H35448   5.802   4.301   0.808 -2.7133  1.0968  0.9560
  269MOL0     H35449   5.711   4.463   0.965 -1.1680  0.4817  0.1491
  269MOL0     H35450   5.729   4.348   1.095 -0.4298  0.2198  0.0925
  269MOL0     H35451   5.561   4.291   0.849 -2.3772  0.1258 -0.3507
  269MOL0     H35452   5.579   4.183   0.992 -5.5841  0.6470  1.0908
  269MOL0     H35453   5.448   4.440   1.007  1.8490  0.0733 -0.5331
  269MOL0     H35454   5.482   4.331   1.139  1.3726  0.4712  0.0171
  269MOL0     H35455   5.356   4.136   1.028  2.1124  0.2586  1.7736
  269MOL0     H35456   5.363   4.234   0.885  2.4519  1.7505  0.4196
  269MOL0     H35457   5.215   4.337   1.131  0.7774  0.4894  0.4315
  269MOL0     H35458   5.204   4.396   0.969  1.2063  0.5092  1.0129
  269MOL0     H35459   5.134   4.105   1.018  0.5305  0.1813 -1.7119
  269MOL0     H35460   5.075   4.210   0.892 -0.0901  0.9434  0.6979
  269MOL0     H35461   4.967   4.087   1.242  0.7106  0.5362  1.5783
  269MOL0     H35462   4.762   4.250   1.414  0.4119  0.7932  0.1173
  269MOL0     H35463   4.759   4.094   1.359  1.8264  0.0306 -1.5374
  269MOL0     H35464   4.557   4.170   1.208  0.6420  1.5375 -1.5138
  269MOL0     H35465   4.584   4.334   1.281  2.1922 -0.4747 -3.3477
  269MOL0     H35466   4.508   4.096   1.460  2.5516  0.0796 -0.6338
  269MOL0     H35467   4.512   4.262   1.506  2.0529 -2.8120  1.3831
  269MOL0     H35468   4.310   4.167   1.317 -1.8736 -0.0944  1.3727
  269MOL0     H35469   4.334   4.328   1.389  2.7498  1.0220  0.7104
  269MOL0     H35470   4.131   4.248   1.312 -2.8132 -0.5709 -1.9163
  269MOL0     H35471   3.893   4.261   1.312  2.7555  0.3722 -0.9535
  269MOL0     H35472   3.481   4.347   1.503  2.2661 -1.3065  1.8302
  269MOL0     H35473   3.248   4.382   1.536 -1.0145 -1.3701 -1.2312
  269MOL0     H35474   3.046   4.277   1.844  0.1371 -1.4236  2.2100
  269MOL0     H35475   3.041   4.104   1.822 -0.3119  0.2023 -0.3013
  269MOL0     H35476   2.831   4.303   1.732  0.3938 -1.3874 -6.0769
  269MOL0     H35477   2.819   4.196   1.870  0.8346 -2.3587  0.3897
  269MOL0     H35478   2.842   4.006   1.668 -0.8719 -0.1318  1.0053
  269MOL0     H35479   2.820   4.142   1.567 -1.1191  0.3461 -0.3411
  269MOL0     H35480   2.643   4.065   1.807 -1.8827  3.3438  1.4741
  269MOL0     H35481   2.599   4.194   1.697  1.1625  0.3574 -0.9492
  269MOL0     H35482   2.582   3.897   1.627  1.5270 -1.1165 -1.1689
  269MOL0     H35483   2.631   4.007   1.508  1.4206 -2.0384  0.9848
  269MOL0     H35484   2.421   4.121   1.501 -4.1929 -0.3481 -1.1578
  269MOL0     H35485   2.391   4.076   1.677 -2.2410 -0.2525 -0.6670
  269MOL0     H35486   2.360   3.932   1.413  1.1966 -0.5744  0.1494
  269MOL0     H35487   2.358   3.844   1.566  1.4491  1.2061  2.3111
  269MOL0     H35488   2.127   3.897   1.486  1.1011 -1.0491  0.8073
  269MOL0     H35489   2.167   4.073   1.481  2.3006  0.3766  0.2076
  269MOL0     H35490   3.225   3.995   1.727 -0.0603  0.1120 -0.1712
  269MOL0     H35491   3.476   3.986   1.725 -1.6575 -0.0583  0.7620
  269MOL0     H35492   3.871   4.155   1.735  0.7323  0.7021  0.5606
  269MOL0     H35493   4.119   4.139   1.728 -0.9957 -1.3244  0.1247
  269MOL0     H35494   6.198   4.418   1.101  0.0755  0.3229  0.1551
  269MOL0     H35495   6.409   4.464   1.111 -1.8737 -1.6434  1.3190
  269MOL0     H35496   6.888   4.600   1.129  2.2234 -1.1924  2.4373
  269MOL0     H35497   7.115   4.613   1.048  2.6088 -1.7365 -1.5681
  269MOL0     H35498   7.302   4.519   1.084  1.4686 -0.9683  0.5272
  269MOL0     H35499   7.322   4.618   0.929  0.4538  0.6231  0.3909
  269MOL0     H35500   7.527   4.569   1.018  0.1362 -1.0934  0.4473
  269MOL0     H35501   7.494   4.396   1.044 -2.3663  0.4826  1.5597
  269MOL0     H35502   7.527   4.512   0.770  0.6891 -0.5082  0.2750
  269MOL0     H35503   7.506   4.340   0.827  0.2818 -0.2244 -0.4101
  269MOL0     H35504   7.743   4.528   0.842  1.9684 -0.5225 -1.7448
  269MOL0     H35505   7.738   4.398   0.955  1.4526  1.9982 -1.1705
  269MOL0     H35506   7.814   4.219   0.566 -0.5550  0.3172 -0.0032
  269MOL0     H35507   7.047   4.257   0.813 -0.8627  0.0943  0.0790
  269MOL0     H35508   6.832   4.256   0.866  1.9227 -0.8458  0.8206
  270MOL0     O35509   3.447  10.237   1.732  0.1304  0.0705  0.1242
  270MOL0     C35510   3.399  10.295   1.827 -0.0595 -0.0922 -0.0886
  270MOL0     O35511   3.266  10.328   1.843  0.2196  0.2156 -0.0128
  270MOL0     C35512   3.162  10.270   1.775  0.2183  0.0306 -0.3711
  270MOL0     C35513   3.161  10.194   1.660  0.7428 -1.1240  0.1951
  270MOL0     C35514   3.043  10.138   1.613 -0.1221 -0.2520 -0.2316
  270MOL0     C35515   2.924  10.152   1.679  1.6373  0.6676  0.2073
  270MOL0     O35516   2.809  10.113   1.615 -0.2914  0.3034 -0.7750
  270MOL0     C35517   2.685  10.185   1.620 -0.2646 -0.5604 -0.7191
  270MOL0     C35518   2.577  10.114   1.545 -0.3128 -0.6383  0.2077
  270MOL0     C35519   2.458  10.214   1.542  0.5112  0.5437  0.9381
  270MOL0     C35520   2.338  10.149   1.461 -0.4542 -0.1465 -0.8700
  270MOL0     C35521   2.241  10.099   1.566 -0.2705 -0.2073 -0.2291
  270MOL0     C35522   2.116  10.043   1.491  0.3669  0.4430  0.1647
  270MOL0     C35523   2.012   9.979   1.590  0.0993 -0.1047 -0.1834
  270MOL0     C35524   1.953  10.082   1.687  1.1693  0.6375 -0.0953
  270MOL0     N35525   1.833  10.020   1.748  0.0679 -0.0000 -0.2895
  270MOL0     C35526   1.829   9.909   1.825  0.1025 -0.5913 -0.0208
  270MOL0     C35527   1.698   9.901   1.868  0.2203  0.2658 -0.0847
  270MOL0     C35528   1.660   9.798   1.963  0.7370 -0.0408  0.0913
  270MOL0     C35529   1.509   9.759   1.953  0.6785  0.1402  1.0529
  270MOL0     C35530   1.456   9.668   2.061 -0.5770  0.0639 -0.1560
  270MOL0     C35531   1.301   9.639   2.044 -0.5500  0.4501  0.2971
  270MOL0     O35532   1.222   9.751   2.076  0.3839  0.0892 -0.2582
  270MOL0     C35533   1.086   9.722   2.074  0.5793 -0.7293  0.0793
  270MOL0     C35534   1.019   9.675   1.963  0.5388 -0.8699  0.2870
  270MOL0     C35535   0.880   9.662   1.956  0.4932  0.0667 -1.1370
  270MOL0     C35536   0.804   9.699   2.075  0.4026 -0.0267 -1.0652
  270MOL0     C35537   0.663   9.700   2.070  0.5645 -0.5995 -0.2216
  270MOL0     O35538   0.603   9.754   2.190 -0.0198 -0.1518 -0.1940
  270MOL0     C35539   0.464   9.763   2.199  0.1778 -0.6669 -0.4994
  270MOL0     C35540   0.405   9.747   2.326 -0.5859 -0.2021  0.9039
  270MOL0     C35541   0.271   9.775   2.349  0.0238 -0.1329  0.0793
  270MOL0     C35542   0.198   9.832   2.244  0.4903  0.3732 -0.4721
  270MOL0     O35543   0.063   9.859   2.271  0.1986 -0.0167 -0.0106
  270MOL0     C35544   0.028   9.999   2.241  0.6274  0.8132  0.0291
  270MOL0     C35545  -0.114  10.017   2.306 -0.6776 -0.2922 -0.2735
  270MOL0     C35546  -0.208   9.903   2.353  0.0891  0.1552  0.0694
  270MOL0     C35547  -0.230   9.804   2.241 -0.6902  0.3277 -0.2144
  270MOL0     C35548  -0.292   9.666   2.297  0.7178 -0.7508  0.3478
  270MOL0     C35549  -0.437   9.679   2.333  0.2417  0.1016 -0.3113
  270MOL0     C35550  -0.488   9.547   2.401  0.7120  0.3614 -0.0106
  270MOL0     C35551  -0.647   9.534   2.387 -0.9607  1.1838 -0.5826
  270MOL0    Cl35552  -0.711   9.688   2.448 -0.1738 -0.8080 -0.7023
  270MOL0     C35553   0.262   9.858   2.122  0.2870 -0.2578 -0.7039
  270MOL0     C35554   0.391   9.828   2.099 -0.9592  0.9452 -0.4938
  270MOL0     O35555   0.606   9.655   1.969 -0.0662  0.1399  1.0701
  270MOL0     C35556   0.875   9.731   2.185 -0.8018  0.2770  0.6182
  270MOL0     C35557   1.008   9.734   2.184 -1.3305 -0.0778 -0.0265
  270MOL0     N35558   1.621  10.006   1.819  0.1608  0.1640  0.0753
  270MOL0     N35559   1.704  10.069   1.743 -0.5072 -0.1956 -0.1440
  270MOL0     C35560   2.927  10.215   1.801  0.0447  0.7539 -1.1073
  270MOL0     C35561   3.040  10.264   1.852 -0.3691  0.4448 -0.3396
  270MOL0     C35562   3.501  10.350   1.917  0.3456 -0.6316  0.1684
  270MOL0     C35563   3.632  10.379   1.883  0.3753  0.8150  0.7824
  270MOL0     C35564   3.722  10.439   1.970 -0.5996 -0.1258 -0.2530
  270MOL0     C35565   3.691  10.480   2.101  0.8488  0.0860 -0.8743
  270MOL0     O35566   3.773  10.536   2.194 -0.2294 -0.3009 -0.4527
  270MOL0     C35567   3.897  10.588   2.159 -0.2798  0.3031 -0.0194
  270MOL0     C35568   3.965  10.628   2.293  0.4725  0.2475  0.2523
  270MOL0     C35569   4.110  10.678   2.266  0.5024  0.1573 -1.2350
  270MOL0     C35570   4.194  10.698   2.394 -0.6435  1.2232  0.9418
  270MOL0     C35571   4.323  10.756   2.359 -0.0096  0.2627  0.9658
  270MOL0     C35572   4.428  10.812   2.331 -0.0443 -0.6258  0.2071
  270MOL0     C35573   3.558  10.455   2.138 -0.3138  0.6452 -0.3903
  270MOL0     C35574   3.467  10.398   2.043  0.1084  0.0882  0.7038
  270MOL0     H35575   3.242  10.187   1.589 -0.5941  1.7154 -1.8064
  270MOL0     H35576   3.042  10.082   1.520 -0.2991 -2.6812  1.1615
  270MOL0     H35577   2.690  10.281   1.568 -2.3486  0.2374  0.4214
  270MOL0     H35578   2.652  10.209   1.721 -0.5142  2.0749 -1.3412
  270MOL0     H35579   2.540  10.019   1.585  0.6509 -0.2685  2.0947
  270MOL0     H35580   2.614  10.093   1.444  0.3382  0.8857  0.1071
  270MOL0     H35581   2.486  10.311   1.499  0.6591 -0.0760 -0.4397
  270MOL0     H35582   2.418  10.246   1.639  2.3913  0.0302  1.9295
  270MOL0     H35583   2.283  10.227   1.407 -1.7112 -0.8330 -0.6014
  270MOL0     H35584   2.375  10.073   1.391  1.7955 -0.6189  0.7279
  270MOL0     H35585   2.214  10.179   1.634  4.2550  1.3457  0.0886
  270MOL0     H35586   2.285  10.029   1.638 -1.0893  3.0496  3.7538
  270MOL0     H35587   2.145   9.962   1.424  0.1569 -1.1483  1.9133
  270MOL0     H35588   2.071  10.128   1.438 -1.8548  0.3622  1.7701
  270MOL0     H35589   1.942   9.922   1.528 -1.3609  0.7354  0.6361
  270MOL0     H35590   2.063   9.906   1.653 -2.3102 -0.7371  1.1684
  270MOL0     H35591   1.911  10.172   1.640 -2.4415  0.2728  2.0597
  270MOL0     H35592   2.020  10.108   1.768  2.8951  2.9117 -2.1106
  270MOL0     H35593   1.902   9.834   1.856 -1.8827 -2.0755  1.3988
  270MOL0     H35594   1.678   9.846   2.059  0.2762  2.5139 -1.0182
  270MOL0     H35595   1.722   9.709   1.948 -1.0872 -1.0635 -2.0624
  270MOL0     H35596   1.520   9.699   1.862 -0.1697 -0.1140  1.1097
  270MOL0     H35597   1.447   9.846   1.931  1.8907  1.3923  2.4293
  270MOL0     H35598   1.533   9.590   2.065 -0.3971  0.3029  2.2268
  270MOL0     H35599   1.473   9.730   2.149  0.3258 -1.2920  0.6580
  270MOL0     H35600   1.280   9.552   2.107 -1.8232 -0.4062 -1.2369
  270MOL0     H35601   1.281   9.606   1.942  3.5168  2.0622 -1.2173
  270MOL0     H35602   1.074   9.655   1.871 -0.6221  0.5103 -0.7534
  270MOL0     H35603   0.834   9.635   1.862 -0.0688  5.0688 -2.5767
  270MOL0     H35604   0.457   9.696   2.406  1.9744  1.4790  0.4458
  270MOL0     H35605   0.225   9.734   2.438  0.5083 -2.4487 -0.6658
  270MOL0     H35606   0.015  10.013   2.134  1.9229 -1.7349 -0.5179
  270MOL0     H35607   0.104  10.065   2.284  1.3067  0.2843 -0.3639
  270MOL0     H35608  -0.173  10.075   2.234 -0.8169  1.3920  1.1197
  270MOL0     H35609  -0.111  10.081   2.395 -2.4135 -1.0222  0.3443
  270MOL0     H35610  -0.303   9.948   2.382  0.2962  2.6501 -2.6747
  270MOL0     H35611  -0.167   9.855   2.442  0.1948 -0.3387 -0.2461
  270MOL0     H35612  -0.298   9.847   2.167  1.5261  0.7447 -2.1331
  270MOL0     H35613  -0.136   9.779   2.190 -0.2907  0.9677  0.1946
  270MOL0     H35614  -0.234   9.624   2.379  0.9664 -0.1587  0.4797
  270MOL0     H35615  -0.292   9.590   2.218  3.4941  0.6758 -1.2141
  270MOL0     H35616  -0.485   9.695   2.236  2.3407  0.9991 -1.2680
  270MOL0     H35617  -0.454   9.760   2.403  0.6765 -0.3035  0.2763
  270MOL0     H35618  -0.448   9.460   2.349  1.2959  0.9593 -0.5866
  270MOL0     H35619  -0.463   9.547   2.508  0.2933 -0.1498  0.0898
  270MOL0     H35620  -0.679   9.459   2.459  0.5733  3.0344  2.2273
  270MOL0     H35621  -0.688   9.510   2.288  0.4372 -1.5122 -0.5886
  270MOL0     H35622   0.203   9.913   2.049  0.2305  3.6139  1.9843
  270MOL0     H35623   0.441   9.860   2.008 -0.8683  2.2062 -0.0160
  270MOL0     H35624   0.825   9.753   2.279 -1.5089  0.7733  0.1399
  270MOL0     H35625   1.059   9.739   2.280  0.1429 -5.6353 -0.2188
  270MOL0     H35626   2.836  10.222   1.858  2.0280 -0.7496  2.5873
  270MOL0     H35627   3.026  10.298   1.954 -0.2376  3.3409 -1.2095
  270MOL0     H35628   3.669  10.360   1.783 -3.6916  2.3831 -1.2710
  270MOL0     H35629   3.827  10.461   1.951 -0.4383 -1.8235 -1.5677
  270MOL0     H35630   3.880  10.676   2.097 -3.7806 -0.7199 -0.7239
  270MOL0     H35631   3.952  10.516   2.098 -1.1753  1.2956 -2.1007
  270MOL0     H35632   3.916  10.719   2.330 -0.0612  0.1274 -0.1446
  270MOL0     H35633   3.951  10.555   2.374 -1.1043  1.5819  1.2465
  270MOL0     H35634   4.114  10.778   2.221 -1.6881  2.3446  2.7758
  270MOL0     H35635   4.167  10.605   2.208  0.7717 -0.5791 -0.0642
  270MOL0     H35636   4.142  10.755   2.472  0.1512  1.2169  1.4888
  270MOL0     H35637   4.223  10.599   2.429  2.1738  0.8527 -2.0183
  270MOL0     H35638   4.520  10.846   2.288 -1.1325 -1.1626 -2.7793
  270MOL0     H35639   3.514  10.481   2.234  4.2303 -0.9651  2.4735
  270MOL0     H35640   3.365  10.376   2.073  1.3226 -2.7001  3.3732
  271MOL0     O35641   5.443  10.990  10.817  0.6580 -0.3731  0.3817
  271MOL0     C35642   5.492  11.017  10.924 -0.5503 -0.1985  0.5447
  271MOL0     O35643   5.444  10.977  11.047 -0.3428  0.0868 -0.7650
  271MOL0     C35644   5.317  10.934  11.060  0.3120 -0.3615 -0.1951
  271MOL0     C35645   5.290  10.819  11.138 -0.4261 -0.5024 -0.5112
  271MOL0     C35646   5.160  10.764  11.140 -0.8987 -1.1020 -0.0228
  271MOL0     C35647   5.052  10.826  11.082 -0.2849  0.3255 -0.1566
  271MOL0     O35648   4.922  10.784  11.091  0.1795 -0.1488  0.7025
  271MOL0     C35649   4.891  10.699  11.200  0.2089 -0.0247  0.3268
  271MOL0     C35650   4.740  10.694  11.208 -0.6592 -0.1505 -0.0083
  271MOL0     C35651   4.693  10.835  11.240  0.2275  1.0295  0.2086
  271MOL0     C35652   4.547  10.832  11.273 -0.0504 -0.1953 -0.2814
  271MOL0     C35653   4.442  10.821  11.150  0.1678 -0.0269  0.6322
  271MOL0     C35654   4.299  10.853  11.189 -0.3594  0.6049 -0.8247
  271MOL0     C35655   4.201  10.827  11.075 -0.4747  0.4359  0.3339
  271MOL0     C35656   4.107  10.716  11.105 -0.8246  0.1093 -0.2393
  271MOL0     N35657   4.006  10.746  11.203  0.9211 -0.1186 -0.4834
  271MOL0     C35658   3.997  10.691  11.330  0.2423  0.8034  0.8066
  271MOL0     C35659   3.885  10.739  11.387 -0.5760 -0.0560 -0.1710
  271MOL0     C35660   3.821  10.718  11.514 -0.7818 -1.2972  0.3918
  271MOL0     C35661   3.706  10.607  11.517 -0.5177 -0.2858  0.1497
  271MOL0     C35662   3.726  10.499  11.408 -0.6088  0.3366 -0.7048
  271MOL0     C35663   3.600  10.409  11.407  0.1061  0.4066  0.4099
  271MOL0     O35664   3.614  10.295  11.319  0.2011 -0.1940  0.7777
  271MOL0     C35665   3.503  10.214  11.287 -0.1326  0.2125  0.1095
  271MOL0     C35666   3.402  10.177  11.379 -0.0413 -0.0659  0.2296
  271MOL0     C35667   3.309  10.080  11.339  0.8245 -0.8230  0.3464
  271MOL0     C35668   3.306  10.020  11.209 -0.2761  0.5452  0.3776
  271MOL0     C35669   3.193   9.944  11.164  0.6839 -0.4893  0.4081
  271MOL0     O35670   3.194   9.895  11.035 -0.6610  0.2036 -0.3172
  271MOL0     C35671   3.101   9.792  11.011 -0.1038 -0.8213 -0.1318
  271MOL0     C35672   2.970   9.824  10.980  0.1298 -0.5016 -0.3935
  271MOL0     C35673   2.883   9.714  10.954  0.1601 -0.6078 -0.4649
  271MOL0     C35674   2.937   9.587  10.935 -0.1953 -0.9335 -0.1984
  271MOL0     O35675   2.845   9.494  10.908  0.9360 -0.0177 -0.7270
  271MOL0     C35676   2.872   9.370  10.958 -0.0994  0.1622 -0.3921
  271MOL0     C35677   2.761   9.275  10.925  0.3576 -0.4637  0.1043
  271MOL0     C35678   2.788   9.133  10.974 -0.2970  0.5659  0.4579
  271MOL0     C35679   2.668   9.038  10.963 -0.3431 -0.5285  0.2201
  271MOL0     C35680   2.700   8.893  10.969 -0.5349 -0.1251 -0.3997
  271MOL0     C35681   2.762   8.836  10.836 -0.6321  0.6271  0.2593
  271MOL0     C35682   2.791   8.690  10.840 -0.1744  0.3786 -0.4113
  271MOL0     C35683   2.837   8.639  10.706  0.2655  0.3235  0.3111
  271MOL0    Cl35684   2.866   8.460  10.708  0.4386 -0.1913  0.4593
  271MOL0     C35685   3.074   9.565  10.961  0.0309  0.6752 -0.1749
  271MOL0     C35686   3.156   9.665  11.000  0.1670  0.3405  1.5611
  271MOL0     O35687   3.106   9.917  11.241  0.8156  0.2984 -0.1970
  271MOL0     C35688   3.400  10.061  11.124 -0.2603 -0.1285  0.8497
  271MOL0     C35689   3.497  10.148  11.162 -0.3388 -0.1068 -1.2714
  271MOL0     N35690   3.832  10.830  11.298 -0.3231 -0.5685  0.0110
  271MOL0     N35691   3.911  10.839  11.195  0.7857 -1.2923 -0.4047
  271MOL0     C35692   5.085  10.944  11.009 -0.0057 -0.5443  1.2249
  271MOL0     C35693   5.215  10.996  10.994 -0.5479  0.3295  0.2744
  271MOL0     C35694   5.628  11.078  10.919 -0.1840 -0.7830  1.1005
  271MOL0     C35695   5.675  11.154  10.807 -0.9239 -0.4311  0.1012
  271MOL0     C35696   5.806  11.193  10.805 -0.2200 -0.0392 -0.4181
  271MOL0     C35697   5.894  11.167  10.911 -0.0794  0.0900  0.2014
  271MOL0     O35698   6.029  11.196  10.909  0.2471 -0.3376 -0.5626
  271MOL0     C35699   6.111  11.090  10.861  0.0422  0.9435  0.6542
  271MOL0     C35700   6.253  11.111  10.902  0.0178  0.3652 -0.3844
  271MOL0     C35701   6.263  11.119  11.061 -0.2293 -0.3858 -0.5732
  271MOL0     C35702   6.409  11.101  11.112 -0.5563  0.1861 -0.1560
  271MOL0     C35703   6.512  11.180  11.044  0.5288 -1.0803  0.4770
  271MOL0     C35704   6.601  11.249  10.995 -0.1696 -0.2432  0.4572
  271MOL0     C35705   5.846  11.115  11.028 -0.1361 -0.5077  0.0061
  271MOL0     C35706   5.714  11.066  11.028 -0.3782 -0.0165 -0.1625
  271MOL0     H35707   5.368  10.767  11.193 -0.1287  0.0549 -0.3991
  271MOL0     H35708   5.149  10.669  11.190  0.8732 -1.0682  0.5228
  271MOL0     H35709   4.940  10.731  11.292  3.8481 -0.6167 -1.2512
  271MOL0     H35710   4.918  10.595  11.179 -0.3975  0.0370 -0.8807
  271MOL0     H35711   4.705  10.624  11.285 -2.1671  1.6972  1.0907
  271MOL0     H35712   4.692  10.664  11.114 -1.5426  2.7819 -0.6007
  271MOL0     H35713   4.719  10.903  11.158  2.3895 -0.4149 -0.3611
  271MOL0     H35714   4.747  10.866  11.330  1.0689  2.1237 -0.6333
  271MOL0     H35715   4.526  10.752  11.344 -1.3579  1.5591  1.4318
  271MOL0     H35716   4.519  10.924  11.326 -0.5953 -1.3370  1.4681
  271MOL0     H35717   4.451  10.723  11.103 -2.3257 -0.5346  1.0893
  271MOL0     H35718   4.468  10.901  11.079 -2.5644 -0.2875 -0.7812
  271MOL0     H35719   4.312  10.958  11.216  4.2407 -0.1705  0.8052
  271MOL0     H35720   4.269  10.803  11.282 -0.8127  1.0908 -0.7020
  271MOL0     H35721   4.153  10.916  11.033 -1.5991 -0.0850  0.4862
  271MOL0     H35722   4.258  10.779  10.995  1.6919  1.5592  1.1234
  271MOL0     H35723   4.163  10.632  11.146 -0.8078 -0.0489 -0.5837
  271MOL0     H35724   4.068  10.671  11.013 -0.8644  0.2153 -0.2750
  271MOL0     H35725   4.067  10.621  11.375 -0.9672  0.3703  2.1025
  271MOL0     H35726   3.772  10.811  11.542 -0.8532 -1.8787  2.3158
  271MOL0     H35727   3.895  10.698  11.592 -2.9889  0.3334  3.0857
  271MOL0     H35728   3.612  10.663  11.519  0.4180  1.4131 -0.5621
  271MOL0     H35729   3.704  10.565  11.618  3.0720 -2.3957 -0.5016
  271MOL0     H35730   3.730  10.535  11.305 -1.6024  1.0232 -0.5192
  271MOL0     H35731   3.805  10.424  11.422  1.3115  2.4494  0.3056
  271MOL0     H35732   3.516  10.463  11.362 -0.8308  0.2367  1.8921
  271MOL0     H35733   3.575  10.365  11.504  0.3549 -0.7292 -0.0181
  271MOL0     H35734   3.407  10.227  11.475 -1.0365 -0.0316  0.2729
  271MOL0     H35735   3.247  10.049  11.423  1.7200 -1.5710  0.7433
  271MOL0     H35736   2.936   9.926  10.993  0.0326 -0.4484 -1.0485
  271MOL0     H35737   2.776   9.732  10.952  0.3157  0.7216  0.9897
  271MOL0     H35738   2.873   9.367  11.067 -3.0819 -1.5873 -0.3124
  271MOL0     H35739   2.960   9.325  10.910  0.4954 -1.8337  2.3685
  271MOL0     H35740   2.742   9.270  10.817 -0.6270 -2.0163  0.3249
  271MOL0     H35741   2.667   9.310  10.969 -0.3006 -2.5290  0.4226
  271MOL0     H35742   2.826   9.129  11.076  2.0125 -0.5935 -0.3766
  271MOL0     H35743   2.880   9.104  10.923  0.0883 -0.7935  1.8428
  271MOL0     H35744   2.601   9.049  11.049 -1.0965 -2.2571 -0.0905
  271MOL0     H35745   2.620   9.057  10.866  0.4460  1.0601  0.1221
  271MOL0     H35746   2.603   8.845  10.986 -1.0548  0.4558 -1.5970
  271MOL0     H35747   2.775   8.868  11.046 -0.3251  1.0996 -0.1946
  271MOL0     H35748   2.851   8.890  10.803 -0.4083 -0.2551 -0.6387
  271MOL0     H35749   2.698   8.857  10.750 -0.9667  0.5365  0.4825
  271MOL0     H35750   2.856   8.666  10.925 -1.3955  1.1092  0.7740
  271MOL0     H35751   2.693   8.649  10.864  0.2171  0.5427  1.7477
  271MOL0     H35752   2.937   8.682  10.692  0.9978 -0.9023  1.5236
  271MOL0     H35753   2.772   8.664  10.622  0.9828 -1.2849 -0.7694
  271MOL0     H35754   3.122   9.467  10.962  1.5496  1.2258 -4.0179
  271MOL0     H35755   3.264   9.662  11.013  0.8527  4.9533 -0.6891
  271MOL0     H35756   3.418  10.015  11.027  0.0713  3.0604 -0.7042
  271MOL0     H35757   3.568  10.183  11.087  0.3487 -1.3128 -1.2086
  271MOL0     H35758   5.005  10.997  10.960  0.8586  1.4440  1.8832
  271MOL0     H35759   5.232  11.087  10.937 -0.5255 -1.1041 -2.1048
  271MOL0     H35760   5.603  11.165  10.726  0.0602  0.4797 -0.6671
  271MOL0     H35761   5.867  11.247  10.733 -1.1103  3.6121  1.3126
  271MOL0     H35762   6.111  11.079  10.753  2.2481 -0.9497  0.7701
  271MOL0     H35763   6.071  10.994  10.896 -0.7186  0.6754 -0.8820
  271MOL0     H35764   6.311  11.025  10.866  0.2173 -0.4458  1.7022
  271MOL0     H35765   6.294  11.201  10.856 -0.6798  1.0223  0.2352
  271MOL0     H35766   6.195  11.045  11.106  0.1951 -0.3880  0.0735
  271MOL0     H35767   6.238  11.220  11.092 -0.1318 -0.7485  0.7628
  271MOL0     H35768   6.413  11.138  11.215  3.1431 -0.0006 -0.1002
  271MOL0     H35769   6.430  10.994  11.120 -1.3551  0.0365  0.0990
  271MOL0     H35770   6.680  11.311  10.955 -0.8322 -0.6270 -1.5499
  271MOL0     H35771   5.902  11.108  11.121 -1.9878  0.9503  1.3329
  271MOL0     H35772   5.691  11.027  11.127  1.6507  0.8119  0.7026
  272MOL0     O35773   0.279   0.386  11.007 -0.4342  0.1542  0.1102
  272MOL0     C35774   0.323   0.272  10.982  0.2724  0.3592  0.3760
  272MOL0     O35775   0.246   0.151  10.975  0.1331 -0.4437  0.0923
  272MOL0     C35776   0.111   0.144  10.984 -0.6322 -0.0293 -0.8405
  272MOL0     C35777   0.057   0.020  10.991  0.4191 -0.0372 -0.5896
  272MOL0     C35778  -0.084  -0.004  11.011  0.4235  1.1261  0.3460
  272MOL0     C35779  -0.166   0.110  11.028 -0.4515 -0.6134  0.8466
  272MOL0     O35780  -0.301   0.107  11.058 -0.2352  0.0893  0.0185
  272MOL0     C35781  -0.378   0.019  10.971 -0.0206  0.1339 -0.1148
  272MOL0     C35782  -0.530   0.057  10.973 -0.6201  0.6843  0.1809
  272MOL0     C35783  -0.615   0.009  10.859  0.1124 -0.3702  0.6898
  272MOL0     C35784  -0.661  -0.145  10.866  0.4140 -1.0135  0.3386
  272MOL0     C35785  -0.741  -0.165  10.737  0.4026 -0.8655 -0.3220
  272MOL0     C35786  -0.772  -0.312  10.714  0.1012  0.5085 -0.0865
  272MOL0     C35787  -0.837  -0.343  10.574 -0.3909 -0.7470  0.4529
  272MOL0     C35788  -0.979  -0.300  10.572  0.1524  0.7071 -1.0387
  272MOL0     N35789  -1.060  -0.370  10.677 -0.2125  0.2556 -0.0516
  272MOL0     C35790  -1.107  -0.504  10.669 -0.3464 -0.4916 -0.2955
  272MOL0     C35791  -1.207  -0.512  10.758 -0.3743  0.1853  0.4354
  272MOL0     C35792  -1.281  -0.637  10.783 -0.7384  0.3996  0.6749
  272MOL0     C35793  -1.395  -0.610  10.886 -0.1083 -0.4345  0.4180
  272MOL0     C35794  -1.530  -0.694  10.873  0.0724 -0.5379 -0.3041
  272MOL0     C35795  -1.593  -0.754  11.007  0.1699 -0.7943  0.7231
  272MOL0     O35796  -1.644  -0.638  11.081 -0.3423 -0.5820 -0.4835
  272MOL0     C35797  -1.708  -0.665  11.195  0.2828  0.6983 -0.2571
  272MOL0     C35798  -1.805  -0.763  11.215  0.2903 -0.8235  0.4742
  272MOL0     C35799  -1.866  -0.783  11.339  0.6776  0.4694  0.0867
  272MOL0     C35800  -1.825  -0.718  11.456 -0.1024 -0.7734  0.8091
  272MOL0     C35801  -1.879  -0.763  11.586 -0.1409 -0.3463 -0.4645
  272MOL0     O35802  -1.981  -0.861  11.584 -0.3500  0.2788  0.2874
  272MOL0     C35803  -2.021  -0.889  11.712  0.3443 -0.3050  0.6787
  272MOL0     C35804  -2.126  -0.815  11.765  0.6461  0.1071 -0.3232
  272MOL0     C35805  -2.161  -0.855  11.894 -0.0125  0.5626 -0.8093
  272MOL0     C35806  -2.097  -0.958  11.961  0.2964 -0.1611  0.6388
  272MOL0     O35807  -2.141  -0.973  12.085  0.3257 -0.6953 -0.0613
  272MOL0     C35808  -2.049  -1.001  12.194 -0.3348 -0.2964  0.2506
  272MOL0     C35809  -2.039  -1.156  12.206 -0.2766  0.3357  0.0147
  272MOL0     C35810  -1.925  -1.197  12.302 -0.6526 -0.9666 -0.3116
  272MOL0     C35811  -1.900  -1.349  12.311  0.4925 -0.5691 -0.0499
  272MOL0     C35812  -2.009  -1.416  12.390  0.3790 -0.2524  0.4044
  272MOL0     C35813  -1.949  -1.552  12.427  0.3585 -0.0843 -0.4476
  272MOL0     C35814  -2.003  -1.610  12.561  0.2871  0.0526  0.6038
  272MOL0     C35815  -2.155  -1.654  12.550 -0.4057  0.2414  0.0755
  272MOL0    Cl35816  -2.161  -1.825  12.508 -0.1490 -0.3765  0.1672
  272MOL0     C35817  -1.993  -1.027  11.897 -0.2317  0.6483 -0.9806
  272MOL0     C35818  -1.952  -0.981  11.775 -0.1477  0.6309  0.1224
  272MOL0     O35819  -1.825  -0.710  11.681  0.1884  0.2703 -0.3128
  272MOL0     C35820  -1.737  -0.611  11.438  0.3912  0.4660 -0.8946
  272MOL0     C35821  -1.680  -0.593  11.312  1.1241 -0.3774  0.6145
  272MOL0     N35822  -1.219  -0.387  10.818 -0.5877  0.6158 -0.9886
  272MOL0     N35823  -1.143  -0.306  10.770 -0.9371 -0.6720 -0.6696
  272MOL0     C35824  -0.110   0.244  11.026 -0.1037  0.0054  0.1077
  272MOL0     C35825   0.027   0.258  10.998 -1.0255  0.3646 -0.3455
  272MOL0     C35826   0.458   0.251  10.941 -0.1898  0.5910  0.6855
  272MOL0     C35827   0.506   0.130  10.881 -0.2685 -0.5761 -0.4159
  272MOL0     C35828   0.638   0.112  10.861 -0.6660 -0.3377  0.3935
  272MOL0     C35829   0.737   0.209  10.904  0.4327  0.3181  0.6388
  272MOL0     O35830   0.867   0.184  10.871 -0.1330 -0.1723  0.0154
  272MOL0     C35831   0.950   0.195  10.983  0.0159  0.2277  0.1446
  272MOL0     C35832   1.071   0.101  10.971  0.0325 -0.2550 -0.1076
  272MOL0     C35833   1.189   0.157  10.876  0.6170  0.7553 -0.3031
  272MOL0     C35834   1.322   0.080  10.904  0.9001 -0.5336 -0.7093
  272MOL0     C35835   1.443   0.124  10.831 -0.6622  0.6451  0.3525
  272MOL0     C35836   1.541   0.171  10.773 -0.3138  0.6888 -0.2701
  272MOL0     C35837   0.691   0.326  10.961 -0.2667 -0.9344  1.1060
  272MOL0     C35838   0.561   0.342  10.980  0.3568  0.6720  0.9990
  272MOL0     H35839   0.117  -0.070  11.005 -1.5151 -1.3637 -0.4973
  272MOL0     H35840  -0.129  -0.102  11.023  0.3517  0.7409 -2.3913
  272MOL0     H35841  -0.377  -0.083  11.010 -0.4062  0.1965  0.0736
  272MOL0     H35842  -0.340   0.012  10.869  1.3565 -3.2613  0.5250
  272MOL0     H35843  -0.534   0.166  10.967  1.0543  0.7217 -1.3827
  272MOL0     H35844  -0.575   0.047  11.072  0.1892 -0.3084  0.4667
  272MOL0     H35845  -0.560   0.019  10.764 -1.2655 -2.0304 -0.3380
  272MOL0     H35846  -0.712   0.060  10.858 -1.1394 -2.5166  2.4188
  272MOL0     H35847  -0.573  -0.209  10.872  1.1841 -0.0022  0.2213
  272MOL0     H35848  -0.726  -0.138  10.954 -0.4448  2.5998 -0.4219
  272MOL0     H35849  -0.689  -0.119  10.652 -1.1875 -0.4788 -1.1394
  272MOL0     H35850  -0.832  -0.108  10.757 -0.3868 -0.3726 -4.4318
  272MOL0     H35851  -0.835  -0.338  10.799 -3.0253  0.0317 -2.3872
  272MOL0     H35852  -0.679  -0.370  10.717 -0.0594 -0.2389 -4.2186
  272MOL0     H35853  -0.789  -0.288  10.492  0.9717 -3.1210 -0.4474
  272MOL0     H35854  -0.821  -0.449  10.550  2.8338  0.2114 -2.3313
  272MOL0     H35855  -1.021  -0.301  10.471 -0.1916  0.8277 -0.8959
  272MOL0     H35856  -0.985  -0.195  10.600 -3.1225  0.4176 -0.2978
  272MOL0     H35857  -1.069  -0.590  10.614  1.5176 -0.6017  1.0456
  272MOL0     H35858  -1.207  -0.712  10.813 -2.0054 -0.8379  0.8283
  272MOL0     H35859  -1.328  -0.680  10.694 -1.1388 -0.3013  1.2139
  272MOL0     H35860  -1.429  -0.506  10.888  0.0779 -0.3666  2.7849
  272MOL0     H35861  -1.358  -0.627  10.987 -1.6174 -1.1715  0.8809
  272MOL0     H35862  -1.605  -0.639  10.815 -3.1623 -1.4540  2.6983
  272MOL0     H35863  -1.505  -0.785  10.818  0.8685 -0.4347 -0.1290
  272MOL0     H35864  -1.521  -0.811  11.065  1.0939 -1.6856 -1.2328
  272MOL0     H35865  -1.673  -0.821  10.975  0.8708 -1.3300  0.0531
  272MOL0     H35866  -1.822  -0.827  11.129  1.6540 -0.4388 -0.1134
  272MOL0     H35867  -1.941  -0.861  11.335  1.0549  0.0846  0.3750
  272MOL0     H35868  -2.167  -0.728  11.716 -0.9912 -0.5018 -0.0867
  272MOL0     H35869  -2.235  -0.799  11.951  1.3204 -0.1975  1.8368
  272MOL0     H35870  -2.110  -0.971  12.280 -2.9906 -3.1057 -0.4359
  272MOL0     H35871  -1.960  -0.940  12.180 -0.7256 -0.2030 -2.3253
  272MOL0     H35872  -2.016  -1.207  12.111 -1.3873 -2.1907  0.9956
  272MOL0     H35873  -2.135  -1.197  12.240  0.2149  0.1399  1.2145
  272MOL0     H35874  -1.951  -1.159  12.402 -0.8671 -0.1775 -0.6624
  272MOL0     H35875  -1.829  -1.152  12.275  0.9755 -3.1437  1.4310
  272MOL0     H35876  -1.889  -1.409  12.220 -1.7724 -0.8520 -0.2070
  272MOL0     H35877  -1.803  -1.357  12.360 -0.8461 -1.4449  2.6238
  272MOL0     H35878  -2.110  -1.423  12.349  0.8405  0.9842 -1.0765
  272MOL0     H35879  -2.025  -1.354  12.478  1.4204 -0.5213  0.7902
  272MOL0     H35880  -1.840  -1.549  12.434  0.2802  1.6026  0.8622
  272MOL0     H35881  -1.957  -1.624  12.346 -1.6870  2.4107 -2.6390
  272MOL0     H35882  -1.948  -1.697  12.599 -1.2048 -0.8430  0.8287
  272MOL0     H35883  -1.999  -1.528  12.633  1.4619  2.4029 -1.9989
  272MOL0     H35884  -2.220  -1.587  12.492  0.1492  1.3249  0.6803
  272MOL0     H35885  -2.194  -1.633  12.650 -0.2935  3.4775 -0.4369
  272MOL0     H35886  -1.941  -1.109  11.946  0.2759  0.6264 -1.5507
  272MOL0     H35887  -1.859  -1.017  11.731 -0.8170  0.0265 -0.8404
  272MOL0     H35888  -1.728  -0.535  11.515 -1.2460  2.9523 -3.0030
  272MOL0     H35889  -1.608  -0.511  11.309  1.7676 -0.9549 -0.9983
  272MOL0     H35890  -0.182   0.325  11.025 -1.8039 -1.3136 -3.8285
  272MOL0     H35891   0.058   0.361  10.982  0.8629 -0.1726 -0.3123
  272MOL0     H35892   0.432   0.056  10.853 -1.8785  0.0379  1.9147
  272MOL0     H35893   0.665   0.024  10.803 -0.2669  0.9469 -1.4711
  272MOL0     H35894   0.897   0.177  11.076 -0.8971  0.9497 -0.2143
  272MOL0     H35895   0.984   0.299  10.980  1.8540 -0.3546 -0.5717
  272MOL0     H35896   1.120   0.091  11.068 -0.2586 -0.9401 -0.0274
  272MOL0     H35897   1.044   0.000  10.939  1.1508 -0.6469  0.1540
  272MOL0     H35898   1.197   0.266  10.883  0.6685  0.7199  0.1800
  272MOL0     H35899   1.163   0.140  10.771 -0.0789  1.3371 -0.2315
  272MOL0     H35900   1.346   0.084  11.011  0.5072  3.8256 -0.6194
  272MOL0     H35901   1.302  -0.026  10.884 -0.0534 -0.2513 -1.3159
  272MOL0     H35902   1.624   0.219  10.725  0.1443 -1.0962 -1.3645
  272MOL0     H35903   0.764   0.400  10.994  0.7922 -1.7746  0.6995
  272MOL0     H35904   0.520   0.434  11.019 -0.4995  0.1712  1.3117
  273MOL0     O35905   9.174   6.582   7.143  0.4267  0.2662  0.5456
  273MOL0     C35906   9.181   6.457   7.167 -0.7863 -0.0981  0.1015
  273MOL0     O35907   9.086   6.376   7.217  0.8539  0.1628 -0.4923
  273MOL0     C35908   8.961   6.432   7.244  0.2479  0.3462  0.1891
  273MOL0     C35909   8.852   6.366   7.185  0.2414 -0.6814  0.5273
  273MOL0     C35910   8.719   6.405   7.221  0.5267 -0.5780  0.1171
  273MOL0     C35911   8.696   6.509   7.308  1.1891  1.0908 -0.3351
  273MOL0     O35912   8.565   6.539   7.321 -1.1695  0.4358 -0.3805
  273MOL0     C35913   8.523   6.598   7.447 -0.6593  0.0201 -0.1617
  273MOL0     C35914   8.380   6.655   7.419 -0.8167 -0.0087  0.1726
  273MOL0     C35915   8.347   6.770   7.520 -0.4619  0.1898 -0.1790
  273MOL0     C35916   8.225   6.844   7.466 -0.3984  0.5032 -0.8736
  273MOL0     C35917   8.091   6.773   7.488 -0.0025 -0.1242 -0.0082
  273MOL0     C35918   7.980   6.846   7.427 -0.5588  0.0107  0.0175
  273MOL0     C35919   7.853   6.778   7.474 -0.5624  0.2977 -0.0802
  273MOL0     C35920   7.736   6.853   7.412  0.1951  0.2860  0.2553
  273MOL0     N35921   7.613   6.793   7.463  0.1260  0.2966 -0.7198
  273MOL0     C35922   7.503   6.765   7.386 -0.2257  0.5606  0.4484
  273MOL0     C35923   7.402   6.742   7.472  0.1976 -0.0898 -0.4870
  273MOL0     C35924   7.261   6.716   7.438  0.3680  1.3546 -0.4730
  273MOL0     C35925   7.169   6.749   7.556 -0.7986 -0.2042  0.1704
  273MOL0     C35926   7.027   6.744   7.500  0.7195  0.0135 -0.0626
  273MOL0     C35927   6.914   6.793   7.586 -0.0164 -0.1853 -0.1723
  273MOL0     O35928   6.840   6.684   7.646 -0.3373  0.7085  0.1015
  273MOL0     C35929   6.725   6.703   7.720 -0.2151  0.6033 -0.7083
  273MOL0     C35930   6.678   6.824   7.774 -0.5204  0.7552 -0.6435
  273MOL0     C35931   6.551   6.837   7.839  0.1473  0.1983  0.3075
  273MOL0     C35932   6.466   6.725   7.848  0.9862 -0.1865  0.4200
  273MOL0     C35933   6.323   6.742   7.890 -0.4007 -0.0017  0.0448
  273MOL0     O35934   6.288   6.859   7.945 -0.1779 -0.4243 -0.6944
  273MOL0     C35935   6.156   6.896   7.964  0.2767 -0.0880  0.4278
  273MOL0     C35936   6.115   6.924   8.092  0.2058 -0.4473 -0.2333
  273MOL0     C35937   5.985   6.959   8.125  0.0764 -0.2067  0.1374
  273MOL0     C35938   5.898   6.977   8.011  0.2756 -0.0638  0.1449
  273MOL0     O35939   5.769   7.030   8.014 -0.7503  0.6264 -0.5371
  273MOL0     C35940   5.723   7.078   8.140  0.7811 -0.6132 -0.7328
  273MOL0     C35941   5.582   7.142   8.140  0.1569 -0.1422  0.4284
  273MOL0     C35942   5.467   7.048   8.096 -0.1441 -0.2166  0.3425
  273MOL0     C35943   5.333   7.117   8.118 -0.1082 -0.4187  0.0286
  273MOL0     C35944   5.217   7.022   8.064 -0.1497 -0.0740  0.2057
  273MOL0     C35945   5.081   7.103   8.046 -0.5024  0.1111 -0.3031
  273MOL0     C35946   4.983   7.000   7.973  0.2849 -1.1782 -0.2647
  273MOL0     C35947   4.842   7.046   8.003  0.1920  0.3960 -0.0415
  273MOL0    Cl35948   4.713   6.915   7.944 -0.0144 -0.0042 -0.1442
  273MOL0     C35949   5.932   6.943   7.881 -0.5980  0.3668 -0.3920
  273MOL0     C35950   6.063   6.899   7.856  0.3610  0.6495 -0.2818
  273MOL0     O35951   6.248   6.645   7.871 -0.4756 -0.1932 -0.1601
  273MOL0     C35952   6.521   6.603   7.796 -0.7493 -0.0537 -0.5731
  273MOL0     C35953   6.647   6.594   7.738 -0.2830  0.0501 -0.6268
  273MOL0     N35954   7.447   6.757   7.601 -0.2529 -1.0946  0.0091
  273MOL0     N35955   7.571   6.799   7.592 -0.0965 -0.3693 -0.1523
  273MOL0     C35956   8.800   6.570   7.378  0.0545  0.2017  0.5323
  273MOL0     C35957   8.936   6.523   7.349 -0.1357 -0.6556  1.1248
  273MOL0     C35958   9.318   6.405   7.140 -0.3494  0.3690  0.3502
  273MOL0     C35959   9.423   6.494   7.114  0.0329 -0.0733 -0.3071
  273MOL0     C35960   9.549   6.442   7.094 -0.3989  0.2111 -0.6696
  273MOL0     C35961   9.572   6.301   7.105  0.6758  0.0560 -0.5591
  273MOL0     O35962   9.684   6.242   7.074  0.2331 -0.2068 -0.3470
  273MOL0     C35963   9.804   6.306   7.020  0.5238  0.4817  0.3933
  273MOL0     C35964   9.888   6.184   6.974  0.2800  0.2419 -0.2360
  273MOL0     C35965  10.009   6.241   6.899  1.1831 -0.2388  0.0728
  273MOL0     C35966  10.130   6.139   6.923  0.0650  0.1852  0.2891
  273MOL0     C35967  10.247   6.202   6.860 -0.3813  0.1926 -0.2190
  273MOL0     C35968  10.358   6.235   6.815  0.4532  0.4163  0.1779
  273MOL0     C35969   9.470   6.208   7.145  0.4178 -0.3897 -0.9586
  273MOL0     C35970   9.340   6.267   7.158  0.2876 -0.5678 -0.7186
  273MOL0     H35971   8.867   6.281   7.119 -0.2338  0.7342 -1.5052
  273MOL0     H35972   8.638   6.348   7.176 -2.8116  2.7082  1.3546
  273MOL0     H35973   8.580   6.688   7.472 -2.3561  0.2842  3.4351
  273MOL0     H35974   8.525   6.536   7.537 -1.5387 -2.3221 -1.6750
  273MOL0     H35975   8.313   6.569   7.430  0.1143 -0.6044  1.3657
  273MOL0     H35976   8.382   6.695   7.318  0.0229  0.7048  0.4655
  273MOL0     H35977   8.426   6.847   7.519 -1.1275  1.0880 -4.4798
  273MOL0     H35978   8.321   6.725   7.616 -1.0030  1.4727  0.3064
  273MOL0     H35979   8.220   6.942   7.514  0.1697 -0.1190  0.4967
  273MOL0     H35980   8.231   6.858   7.357 -2.1496 -1.7174 -1.3188
  273MOL0     H35981   8.075   6.759   7.595  0.5323 -0.4455  0.0320
  273MOL0     H35982   8.106   6.679   7.434  4.6213  1.2832 -1.7344
  273MOL0     H35983   7.994   6.844   7.319  0.0212  0.7618  0.0713
  273MOL0     H35984   7.980   6.949   7.463  2.7482  0.2162 -0.2797
  273MOL0     H35985   7.836   6.673   7.449 -0.8396  0.2856  0.1532
  273MOL0     H35986   7.844   6.796   7.582 -3.8039  1.1150 -0.4001
  273MOL0     H35987   7.740   6.854   7.302  1.4055 -1.7090  0.2270
  273MOL0     H35988   7.732   6.956   7.447 -0.1465  0.8504 -1.3527
  273MOL0     H35989   7.493   6.771   7.279  1.0734  0.2291  0.2897
  273MOL0     H35990   7.254   6.609   7.418 -1.2953  0.9608  1.8927
  273MOL0     H35991   7.233   6.773   7.349  1.0407  2.7216  0.1514
  273MOL0     H35992   7.181   6.853   7.589 -4.2475  0.5540 -0.5325
  273MOL0     H35993   7.188   6.679   7.638  1.5871  0.0413 -0.1113
  273MOL0     H35994   7.014   6.792   7.402 -1.6821 -1.0293 -0.3236
  273MOL0     H35995   7.003   6.643   7.466  0.1552  0.5890 -1.4302
  273MOL0     H35996   6.842   6.855   7.531 -1.4471 -1.1258  0.5614
  273MOL0     H35997   6.950   6.857   7.667  0.4895  3.7987 -3.2240
  273MOL0     H35998   6.744   6.910   7.775 -1.7858  1.8029 -2.0037
  273MOL0     H35999   6.514   6.930   7.882 -2.9959 -0.3453 -0.9563
  273MOL0     H36000   6.190   6.918   8.169  0.6713  1.9340 -0.4300
  273MOL0     H36001   5.953   6.967   8.228 -2.2398 -2.9927 -0.2483
  273MOL0     H36002   5.800   7.147   8.177 -1.0988  1.7998 -1.0344
  273MOL0     H36003   5.718   7.001   8.218  0.8534  1.9845  2.0466
  273MOL0     H36004   5.577   7.220   8.064  1.3487  1.4401  1.8727
  273MOL0     H36005   5.568   7.182   8.241 -0.1663 -0.5173  0.5324
  273MOL0     H36006   5.468   6.957   8.156 -0.9359 -0.0942  0.5556
  273MOL0     H36007   5.481   7.018   7.991 -1.9038  0.0153  0.0094
  273MOL0     H36008   5.320   7.143   8.223  1.0828 -2.4870  0.7454
  273MOL0     H36009   5.326   7.210   8.061  0.5300  0.2806  1.0543
  273MOL0     H36010   5.204   6.931   8.124 -0.1466  0.9670  1.8375
  273MOL0     H36011   5.238   6.986   7.963 -0.9157 -0.8706  0.3107
  273MOL0     H36012   5.100   7.196   7.992  1.2269  0.4292  0.8007
  273MOL0     H36013   5.047   7.129   8.147  0.1121  0.1580 -0.1058
  273MOL0     H36014   4.999   7.015   7.866 -0.6335 -2.0669 -0.5384
  273MOL0     H36015   5.008   6.900   8.008  0.9229 -0.2894  2.0167
  273MOL0     H36016   4.821   7.134   7.942  0.1712 -0.0773 -0.7248
  273MOL0     H36017   4.836   7.071   8.109  1.0978 -0.6136  0.2667
  273MOL0     H36018   5.870   6.962   7.794  1.5525 -0.6480 -2.2694
  273MOL0     H36019   6.097   6.882   7.754 -2.9876  0.0026 -1.4240
  273MOL0     H36020   6.466   6.510   7.779 -1.9764  0.7695 -1.2668
  273MOL0     H36021   6.688   6.508   7.687 -0.7832 -0.8040  0.3784
  273MOL0     H36022   8.785   6.655   7.443 -0.6538 -0.3337  1.0749
  273MOL0     H36023   9.020   6.572   7.396  1.6480  1.4187 -3.5400
  273MOL0     H36024   9.408   6.602   7.106  1.0270  0.2075  1.1910
  273MOL0     H36025   9.633   6.501   7.060  2.0110 -1.0497  2.5241
  273MOL0     H36026   9.858   6.369   7.091  0.6355 -1.6929  2.3478
  273MOL0     H36027   9.777   6.376   6.940 -0.1480 -1.5127 -1.2042
  273MOL0     H36028   9.929   6.135   7.062  0.7634  0.7122 -0.1897
  273MOL0     H36029   9.846   6.114   6.901 -1.6235  0.0459  0.9958
  273MOL0     H36030  10.041   6.336   6.942  0.4118 -0.4822  1.2381
  273MOL0     H36031   9.984   6.263   6.795  0.5944  0.5316  0.3669
  273MOL0     H36032  10.145   6.114   7.029  0.5090 -1.4139 -0.1327
  273MOL0     H36033  10.094   6.059   6.859 -0.9359  1.4923 -0.8332
  273MOL0     H36034  10.455   6.255   6.773 -0.2853  0.0221 -1.8322
  273MOL0     H36035   9.476   6.103   7.171 -2.0728  0.4176  3.8928
  273MOL0     H36036   9.254   6.206   7.180 -0.3124  0.4798 -0.0556
  274MOL0     O36037   1.289   9.605   1.640 -0.1807 -0.0921 -0.1253
  274MOL0     C36038   1.373   9.695   1.623  0.6992 -0.3222  0.5945
  274MOL0     O36039   1.346   9.828   1.637 -0.9766 -0.3116 -0.4965
  274MOL0     C36040   1.211   9.858   1.668 -0.5425 -0.6659  0.5806
  274MOL0     C36041   1.107   9.820   1.591 -0.2690  0.1584  0.5571
  274MOL0     C36042   0.980   9.865   1.626 -0.6710  0.6186 -0.2305
  274MOL0     C36043   0.950   9.929   1.740  0.1781 -0.6458 -0.9365
  274MOL0     O36044   0.818   9.963   1.757 -0.1647  0.4847 -0.2773
  274MOL0     C36045   0.793  10.016   1.888  0.1658  0.3965  0.1313
  274MOL0     C36046   0.649  10.047   1.873 -0.5348  0.1305 -1.0320
  274MOL0     C36047   0.598  10.125   1.995 -0.0817 -0.4439  0.6784
  274MOL0     C36048   0.474  10.207   1.971  1.0085 -0.3842  0.2515
  274MOL0     C36049   0.393  10.228   2.103  0.4995 -1.3400  0.0114
  274MOL0     C36050   0.279  10.339   2.074 -0.0360 -0.1779  0.0235
  274MOL0     C36051   0.204  10.374   2.192  0.1152 -0.4667 -0.4433
  274MOL0     C36052   0.060  10.414   2.187  0.1543  0.1977 -0.3907
  274MOL0     N36053   0.038  10.530   2.109  0.2368 -0.5175 -0.1892
  274MOL0     C36054   0.001  10.520   1.981  1.3178  0.6225 -0.1554
  274MOL0     C36055  -0.039  10.649   1.945 -0.0069  0.4542 -0.6310
  274MOL0     C36056  -0.123  10.672   1.823  0.3087 -1.1200 -0.1522
  274MOL0     C36057  -0.259  10.742   1.876 -0.8290  0.1651  0.0330
  274MOL0     C36058  -0.352  10.768   1.755 -0.7333 -0.4087  0.1943
  274MOL0     C36059  -0.436  10.894   1.784  0.2571 -0.2960 -0.0706
  274MOL0     O36060  -0.526  10.858   1.888 -0.3177 -0.3876  1.1950
  274MOL0     C36061  -0.590  10.960   1.954  0.2479 -0.0946  0.5225
  274MOL0     C36062  -0.727  10.971   1.932  0.2540 -1.1529 -0.3801
  274MOL0     C36063  -0.807  11.068   1.997  0.1025 -0.4039  0.0210
  274MOL0     C36064  -0.744  11.150   2.099 -0.2454  0.3213  0.4710
  274MOL0     C36065  -0.823  11.255   2.164  0.0987 -0.5256  0.1793
  274MOL0     O36066  -0.958  11.251   2.170  0.0799 -0.2132  0.6033
  274MOL0     C36067  -1.034  11.351   2.228 -1.3340  0.1661 -0.7894
  274MOL0     C36068  -1.029  11.467   2.161 -0.4156 -0.3885  0.4974
  274MOL0     C36069  -1.121  11.570   2.197  1.0389  0.2054  0.0661
  274MOL0     C36070  -1.208  11.555   2.306  0.0367  1.5387 -0.4344
  274MOL0     O36071  -1.293  11.646   2.350  0.3843  0.4604  0.7725
  274MOL0     C36072  -1.350  11.747   2.261  0.2230  0.3306 -0.5765
  274MOL0     C36073  -1.417  11.869   2.334 -0.4728  0.2301 -0.3853
  274MOL0     C36074  -1.484  11.958   2.236  1.0338 -0.2591 -0.9954
  274MOL0     C36075  -1.553  12.079   2.296  0.2235  0.7401  0.1921
  274MOL0     C36076  -1.607  12.177   2.184 -0.2043 -0.8605 -0.1211
  274MOL0     C36077  -1.680  12.281   2.269  0.5491  0.0391  0.2105
  274MOL0     C36078  -1.823  12.245   2.315  0.6259  0.4307 -0.0456
  274MOL0     C36079  -1.914  12.234   2.184 -0.6571  0.3904  0.1818
  274MOL0    Cl36080  -2.088  12.232   2.225 -0.1588  0.2291 -0.3059
  274MOL0     C36081  -1.201  11.438   2.378  1.0042  0.5047  0.0371
  274MOL0     C36082  -1.121  11.330   2.337  0.5688 -0.6221 -1.0888
  274MOL0     O36083  -0.754  11.338   2.228  0.2200  0.0670  0.6070
  274MOL0     C36084  -0.606  11.146   2.103 -1.1194  0.9985  0.5632
  274MOL0     C36085  -0.530  11.062   2.026  1.0113 -0.5762 -0.0930
  274MOL0     N36086  -0.027  10.725   2.055  0.1172 -1.0392  0.3048
  274MOL0     N36087   0.015  10.656   2.156 -0.0323 -0.5839 -0.3042
  274MOL0     C36088   1.058   9.965   1.818  0.1981  0.2517 -0.5587
  274MOL0     C36089   1.185   9.924   1.788 -0.1515 -0.1749  1.0048
  274MOL0     C36090   1.501   9.640   1.579  0.4128 -0.4915 -0.9432
  274MOL0     C36091   1.606   9.731   1.544  0.4660  0.9718  0.1523
  274MOL0     C36092   1.740   9.684   1.516  0.2467 -0.0521  0.2491
  274MOL0     C36093   1.765   9.545   1.511  0.8847 -0.3106  0.0532
  274MOL0     O36094   1.889   9.498   1.479 -0.2214  0.6307 -0.0049
  274MOL0     C36095   1.949   9.531   1.349  0.8668 -0.0782  1.6477
  274MOL0     C36096   1.858   9.480   1.237  0.1500 -0.1475 -0.4279
  274MOL0     C36097   1.930   9.492   1.102 -0.0259 -0.7060  0.5059
  274MOL0     C36098   1.869   9.408   0.993  0.0143  0.5204 -0.4249
  274MOL0     C36099   1.725   9.415   0.998  0.2445  0.3260  0.5065
  274MOL0     C36100   1.602   9.431   1.013 -0.5831  0.1260  0.5054
  274MOL0     C36101   1.663   9.454   1.542 -0.1165 -0.3975  0.3751
  274MOL0     C36102   1.531   9.502   1.575  0.2322 -0.1156 -0.4255
  274MOL0     H36103   1.132   9.751   1.511  1.7971 -1.2828  2.3346
  274MOL0     H36104   0.897   9.832   1.565  0.7053 -2.8175 -0.4831
  274MOL0     H36105   0.841  10.113   1.899  1.0001  0.0207 -0.1106
  274MOL0     H36106   0.806   9.949   1.974 -1.4249  2.1075  1.8214
  274MOL0     H36107   0.591   9.954   1.868  1.1956 -1.2122  1.6078
  274MOL0     H36108   0.634  10.109   1.784 -0.7998  1.8279  0.1532
  274MOL0     H36109   0.676  10.194   2.026 -0.2671  1.2713 -2.2874
  274MOL0     H36110   0.574  10.047   2.068 -2.0912 -1.2440 -0.7252
  274MOL0     H36111   0.493  10.307   1.931 -2.1838 -0.6410 -2.3084
  274MOL0     H36112   0.402  10.156   1.906  2.8777 -0.9350 -1.4781
  274MOL0     H36113   0.457  10.268   2.182 -0.8644  0.1285  0.4479
  274MOL0     H36114   0.345  10.136   2.137 -2.1400 -1.1052 -2.6389
  274MOL0     H36115   0.213  10.295   1.999 -0.6652 -0.0026  0.4624
  274MOL0     H36116   0.329  10.426   2.032 -0.1557 -0.4606 -0.7115
  274MOL0     H36117   0.204  10.284   2.254  1.7747  0.4489  0.9883
  274MOL0     H36118   0.256  10.449   2.252 -0.8723  1.2544 -1.6518
  274MOL0     H36119   0.020  10.429   2.287  1.1474 -1.6156  0.3446
  274MOL0     H36120   0.003  10.328   2.149  0.3217  0.8260 -2.1640
  274MOL0     H36121  -0.011  10.431   1.921  0.7888  0.8686 -0.4204
  274MOL0     H36122  -0.154  10.581   1.772 -0.8714 -0.5257 -0.5458
  274MOL0     H36123  -0.072  10.737   1.751 -0.8207 -0.7133 -0.6063
  274MOL0     H36124  -0.230  10.836   1.925 -2.2209  0.8972 -0.4861
  274MOL0     H36125  -0.315  10.683   1.949 -2.4383 -0.4317 -1.6249
  274MOL0     H36126  -0.295  10.777   1.662  2.1608 -2.5247  1.6224
  274MOL0     H36127  -0.419  10.682   1.745  1.3488 -2.2488  1.2611
  274MOL0     H36128  -0.489  10.936   1.698  2.2423  2.8751  0.0530
  274MOL0     H36129  -0.359  10.965   1.817 -1.3747  2.1389 -1.1733
  274MOL0     H36130  -0.780  10.900   1.869 -2.6741 -0.8014  1.4933
  274MOL0     H36131  -0.912  11.077   1.970 -0.3607 -0.1366  1.8030
  274MOL0     H36132  -0.963  11.474   2.075  1.1378  0.4475  1.7084
  274MOL0     H36133  -1.113  11.661   2.138  0.3945 -0.2045 -0.6780
  274MOL0     H36134  -1.432  11.698   2.207 -2.7619  2.6779  1.4851
  274MOL0     H36135  -1.286  11.777   2.177 -1.4651 -3.3479 -3.4452
  274MOL0     H36136  -1.334  11.919   2.385 -0.3025 -2.0417  1.7912
  274MOL0     H36137  -1.498  11.854   2.407 -1.7961  0.6616 -1.7044
  274MOL0     H36138  -1.564  11.901   2.187 -1.3446 -2.6175  4.7040
  274MOL0     H36139  -1.410  11.995   2.164 -0.3262  3.7786 -0.5948
  274MOL0     H36140  -1.623  12.054   2.376  0.5826  3.9031  1.6060
  274MOL0     H36141  -1.462  12.116   2.343  1.0498 -1.4715  0.4928
  274MOL0     H36142  -1.676  12.129   2.114 -1.0947  0.7367 -0.3922
  274MOL0     H36143  -1.519  12.211   2.128 -0.8284 -0.6989 -1.0244
  274MOL0     H36144  -1.689  12.375   2.214  1.1241 -0.9177 -1.6306
  274MOL0     H36145  -1.629  12.303   2.363 -2.3028  0.2812  1.8130
  274MOL0     H36146  -1.824  12.150   2.369 -1.8020  0.5111  0.1816
  274MOL0     H36147  -1.866  12.317   2.385  0.3908  1.4747 -1.2294
  274MOL0     H36148  -1.876  12.150   2.125  0.2507  1.2917 -0.5351
  274MOL0     H36149  -1.890  12.320   2.121  2.3634 -0.5892 -0.1510
  274MOL0     H36150  -1.258  11.435   2.471  0.6029  0.9702 -0.1888
  274MOL0     H36151  -1.107  11.242   2.400 -1.1976 -0.0450  0.1757
  274MOL0     H36152  -0.561  11.220   2.169 -2.3838  0.5132  2.0306
  274MOL0     H36153  -0.422  11.064   2.038  0.7597  2.5335  3.6864
  274MOL0     H36154   1.028  10.015   1.910 -0.8206 -1.0127 -0.1705
  274MOL0     H36155   1.272   9.949   1.848  0.2137 -0.0114  0.4147
  274MOL0     H36156   1.588   9.838   1.545 -2.2873  0.5921  2.2013
  274MOL0     H36157   1.815   9.752   1.475 -1.6235  0.5728 -2.3953
  274MOL0     H36158   2.047   9.483   1.335  0.1791 -0.7468 -1.9164
  274MOL0     H36159   1.963   9.640   1.349 -2.1859  0.4980 -1.7719
  274MOL0     H36160   1.824   9.378   1.255  2.6944 -1.2694 -1.4860
  274MOL0     H36161   1.769   9.542   1.226 -1.8977 -2.8803 -0.3297
  274MOL0     H36162   2.036   9.463   1.110  0.1844  0.2123  1.1772
  274MOL0     H36163   1.938   9.600   1.087 -0.4467 -0.7596 -0.1538
  274MOL0     H36164   1.911   9.423   0.893  3.1178 -1.0891  0.5094
  274MOL0     H36165   1.896   9.305   1.019 -1.6584  0.7081  2.5583
  274MOL0     H36166   1.500   9.463   1.007 -0.2006  1.5255  0.9724
  274MOL0     H36167   1.691   9.350   1.526  0.1017 -0.4108  0.8218
  274MOL0     H36168   1.455   9.427   1.594 -0.4368  1.2287  2.7673
  275MOL0     O36169   2.138   4.518   5.591  0.7513 -0.2518  0.7454
  275MOL0     C36170   2.171   4.415   5.538  0.3287  0.2559 -0.0941
  275MOL0     O36171   2.091   4.309   5.507 -0.7804 -0.6433 -1.0520
  275MOL0     C36172   1.960   4.316   5.543  0.0321 -0.2780  0.1435
  275MOL0     C36173   1.870   4.247   5.457 -0.1126  0.3806  0.6730
  275MOL0     C36174   1.727   4.256   5.486  0.2941  0.1267 -0.1440
  275MOL0     C36175   1.676   4.338   5.587  0.4977  0.8123 -0.3470
  275MOL0     O36176   1.538   4.350   5.603 -0.0100 -0.0085  0.3165
  275MOL0     C36177   1.488   4.458   5.677 -0.5735 -0.0712 -0.4804
  275MOL0     C36178   1.333   4.432   5.683 -0.2751  0.0182  0.0252
  275MOL0     C36179   1.247   4.549   5.731 -0.4621  0.5293  1.0046
  275MOL0     C36180   1.111   4.491   5.727  0.4742 -0.5363 -0.4110
  275MOL0     C36181   1.019   4.598   5.801 -1.2060 -0.1173  0.2192
  275MOL0     C36182   0.878   4.546   5.798 -0.6767 -0.4635 -0.3610
  275MOL0     C36183   0.779   4.654   5.868  0.2079 -0.1569 -0.1561
  275MOL0     C36184   0.638   4.600   5.882 -0.7086 -0.1874 -0.8226
  275MOL0     N36185   0.571   4.632   5.755 -0.1874  0.4089  0.5312
  275MOL0     C36186   0.569   4.556   5.642 -1.2703  0.1288 -0.2198
  275MOL0     C36187   0.490   4.627   5.559  0.0268 -0.0803 -0.6233
  275MOL0     C36188   0.452   4.572   5.423  0.2518 -0.1253 -0.4608
  275MOL0     C36189   0.305   4.616   5.390 -0.2524 -0.1365  0.2297
  275MOL0     C36190   0.263   4.595   5.241  0.9012 -0.2230 -0.1603
  275MOL0     C36191   0.126   4.646   5.203 -0.6168 -0.6451 -0.1971
  275MOL0     O36192   0.021   4.559   5.261 -0.7117 -0.3150 -0.4980
  275MOL0     C36193  -0.100   4.613   5.297  0.2726 -0.3699 -0.1563
  275MOL0     C36194  -0.173   4.545   5.387 -0.0009  0.4586 -0.0396
  275MOL0     C36195  -0.303   4.590   5.419  0.6252 -0.3496 -0.3323
  275MOL0     C36196  -0.366   4.692   5.350  0.3456 -0.5610  0.6291
  275MOL0     C36197  -0.506   4.733   5.378  0.4931 -0.0174 -1.5302
  275MOL0     O36198  -0.554   4.829   5.293  0.6309  0.5398  0.3949
  275MOL0     C36199  -0.680   4.877   5.294  0.4510  0.5812 -0.3830
  275MOL0     C36200  -0.729   4.938   5.407  0.1098 -1.3618  0.3587
  275MOL0     C36201  -0.863   4.973   5.414 -1.1677 -0.5362 -0.6786
  275MOL0     C36202  -0.951   4.946   5.307  0.3876 -0.3371 -0.5179
  275MOL0     O36203  -1.088   4.982   5.311  0.2075 -0.1007 -0.0460
  275MOL0     C36204  -1.166   4.934   5.422 -0.1872  0.8267  0.0845
  275MOL0     C36205  -1.297   4.996   5.418  0.4808 -0.0613  0.0315
  275MOL0     C36206  -1.293   5.142   5.463  0.3342 -0.8616 -0.4792
  275MOL0     C36207  -1.192   5.249   5.416  0.0717 -1.1812 -0.4850
  275MOL0     C36208  -1.232   5.400   5.463 -0.1547  0.4809  0.9431
  275MOL0     C36209  -1.215   5.521   5.371 -0.0456 -0.1366  0.7313
  275MOL0     C36210  -1.060   5.522   5.338  1.2410 -0.2641 -0.1785
  275MOL0     C36211  -1.001   5.663   5.342 -0.1805  0.1575  0.2908
  275MOL0    Cl36212  -0.830   5.676   5.309 -0.0109  0.1271 -0.0820
  275MOL0     C36213  -0.903   4.878   5.202 -0.0450 -0.6784  1.1928
  275MOL0     C36214  -0.772   4.838   5.193 -0.2650  0.8271 -1.1073
  275MOL0     O36215  -0.570   4.677   5.466  0.5317  0.7411 -0.4687
  275MOL0     C36216  -0.291   4.760   5.243 -0.2002 -0.0160 -0.3577
  275MOL0     C36217  -0.156   4.720   5.223 -0.6900 -0.2191 -0.0421
  275MOL0     N36218   0.436   4.735   5.622 -0.3114  0.6076 -0.1839
  275MOL0     N36219   0.486   4.735   5.744 -0.9361 -0.1608 -0.5512
  275MOL0     C36220   1.765   4.392   5.678  0.4032  0.5227  0.4615
  275MOL0     C36221   1.903   4.383   5.652  0.3512 -0.0043 -0.9184
  275MOL0     C36222   2.315   4.398   5.519 -0.7165  0.5591  0.3766
  275MOL0     C36223   2.358   4.307   5.425  0.5987  0.0785  0.1905
  275MOL0     C36224   2.488   4.276   5.410 -0.4882  0.2432  0.1155
  275MOL0     C36225   2.592   4.354   5.461  0.5586 -0.2557 -0.4987
  275MOL0     O36226   2.734   4.320   5.463  0.3589  0.0255  0.4873
  275MOL0     C36227   2.777   4.211   5.383  0.4472  0.5414 -0.5958
  275MOL0     C36228   2.927   4.214   5.355 -0.5846  0.1935  0.2795
  275MOL0     C36229   2.999   4.183   5.482 -0.4363 -0.5573  0.4318
  275MOL0     C36230   3.152   4.206   5.500 -0.6903  0.2408  0.3981
  275MOL0     C36231   3.228   4.154   5.387 -0.5049 -0.6489  0.1291
  275MOL0     C36232   3.305   4.112   5.298  0.0583  0.5566 -0.3352
  275MOL0     C36233   2.558   4.454   5.546  0.7014 -0.1220  0.7350
  275MOL0     C36234   2.420   4.480   5.577  0.7802 -0.2772 -0.4974
  275MOL0     H36235   1.914   4.196   5.371 -0.6936 -0.7923  1.0405
  275MOL0     H36236   1.664   4.197   5.420  0.2302  1.6602 -1.5357
  275MOL0     H36237   1.506   4.557   5.634 -0.2818 -0.1020 -0.4282
  275MOL0     H36238   1.532   4.462   5.777  1.6633  1.2261 -1.4477
  275MOL0     H36239   1.316   4.344   5.744 -1.0175 -2.3583 -3.3128
  275MOL0     H36240   1.295   4.388   5.590  1.1169 -0.3940 -0.3794
  275MOL0     H36241   1.270   4.626   5.656  2.8285 -1.7302 -0.5491
  275MOL0     H36242   1.276   4.577   5.833 -0.8548 -1.1087  1.5927
  275MOL0     H36243   1.071   4.478   5.627  0.7754  0.2907 -0.6501
  275MOL0     H36244   1.106   4.399   5.786  1.6279 -0.1037  0.4193
  275MOL0     H36245   1.020   4.699   5.760 -1.6352  0.1924  0.9443
  275MOL0     H36246   1.053   4.601   5.905  1.5170  1.9098 -0.6259
  275MOL0     H36247   0.879   4.454   5.856  1.7307  0.4099  1.1520
  275MOL0     H36248   0.849   4.522   5.696  0.9323 -3.3513 -0.2439
  275MOL0     H36249   0.811   4.671   5.972 -0.6473 -0.3873  0.1522
  275MOL0     H36250   0.784   4.750   5.816  0.7850 -0.6585 -1.0537
  275MOL0     H36251   0.581   4.653   5.960 -1.7064 -2.6349  0.2207
  275MOL0     H36252   0.630   4.493   5.903  2.1912 -0.2253  0.4788
  275MOL0     H36253   0.619   4.461   5.624  4.1291  2.2426  1.3664
  275MOL0     H36254   0.458   4.463   5.416 -0.0124 -0.1430 -0.3979
  275MOL0     H36255   0.530   4.600   5.351  1.2980  0.6694  0.9430
  275MOL0     H36256   0.297   4.725   5.400 -1.8032 -0.1762 -0.2866
  275MOL0     H36257   0.232   4.582   5.463 -1.4931  1.8195 -0.0019
  275MOL0     H36258   0.339   4.632   5.171  0.2663 -1.9637 -1.8323
  275MOL0     H36259   0.264   4.488   5.221  0.7379 -0.0755 -0.9967
  275MOL0     H36260   0.110   4.629   5.096 -2.8568  1.7398 -0.3478
  275MOL0     H36261   0.121   4.752   5.232 -0.8668 -1.0366  1.3098
  275MOL0     H36262  -0.120   4.462   5.433 -1.1948 -0.0044  0.5394
  275MOL0     H36263  -0.358   4.544   5.501  1.4658 -0.3719  0.2238
  275MOL0     H36264  -0.669   4.969   5.492 -0.3824 -2.1707  1.0249
  275MOL0     H36265  -0.911   5.014   5.503  1.2534  4.1107 -1.1988
  275MOL0     H36266  -1.122   4.956   5.520 -0.0757 -0.0030  0.2286
  275MOL0     H36267  -1.184   4.827   5.411 -1.0284  0.9991 -0.2821
  275MOL0     H36268  -1.362   4.937   5.483 -1.7314  1.7171 -0.4562
  275MOL0     H36269  -1.344   4.991   5.319 -3.6294 -0.6526  1.8059
  275MOL0     H36270  -1.274   5.125   5.570 -0.5065 -0.1191 -0.1977
  275MOL0     H36271  -1.393   5.184   5.449  0.7793  0.2601 -0.3955
  275MOL0     H36272  -1.098   5.212   5.457  0.5500  0.6879  0.1969
  275MOL0     H36273  -1.188   5.259   5.307 -2.9044  1.7210 -0.4840
  275MOL0     H36274  -1.176   5.428   5.553  1.2885  1.4719 -0.2139
  275MOL0     H36275  -1.337   5.410   5.493 -0.8057  2.4370 -1.6047
  275MOL0     H36276  -1.246   5.612   5.423  0.0939 -0.3899  1.2617
  275MOL0     H36277  -1.280   5.507   5.283 -0.1321 -0.1852  0.8033
  275MOL0     H36278  -1.009   5.466   5.417 -2.5585 -3.2281  0.5183
  275MOL0     H36279  -1.034   5.472   5.244  0.3690 -1.9476  0.4291
  275MOL0     H36280  -1.025   5.717   5.434 -1.3530 -1.9059  1.2593
  275MOL0     H36281  -1.056   5.712   5.261 -0.3025  3.0493  1.9645
  275MOL0     H36282  -0.975   4.860   5.122 -0.5788  1.7028  1.0597
  275MOL0     H36283  -0.736   4.778   5.109 -0.1183  1.4125 -1.4667
  275MOL0     H36284  -0.333   4.848   5.196  1.9595  0.7343 -0.9872
  275MOL0     H36285  -0.102   4.769   5.143 -2.2762 -0.4945 -1.3211
  275MOL0     H36286   1.736   4.457   5.759 -2.7378 -1.0914  0.7717
  275MOL0     H36287   1.967   4.424   5.730 -0.4479 -3.0359  1.5445
  275MOL0     H36288   2.283   4.240   5.383  0.6376 -0.1745  0.5256
  275MOL0     H36289   2.505   4.186   5.351  0.0129  1.3063 -1.4270
  275MOL0     H36290   2.722   4.195   5.290  1.9870 -1.2353 -1.2730
  275MOL0     H36291   2.763   4.122   5.446  3.8069  0.9524  0.9698
  275MOL0     H36292   2.957   4.130   5.292  0.0146 -1.4970  2.6935
  275MOL0     H36293   2.961   4.304   5.302 -0.9680 -0.3377 -0.9027
  275MOL0     H36294   2.980   4.081   5.518 -1.3563  0.2915  2.5571
  275MOL0     H36295   2.951   4.253   5.551 -0.9591 -1.3816  0.9277
  275MOL0     H36296   3.183   4.308   5.525  4.6438 -0.6740 -1.2421
  275MOL0     H36297   3.174   4.153   5.593  0.4999 -0.7993 -0.4391
  275MOL0     H36298   3.367   4.079   5.217 -0.6512 -0.4317 -0.5062
  275MOL0     H36299   2.645   4.509   5.582  0.6644  0.9232 -0.6614
  275MOL0     H36300   2.394   4.559   5.647 -1.6297 -1.3456 -0.0953
  276MOL0     O36301   5.933   4.556   6.084 -0.4513 -0.3823 -0.0715
  276MOL0     C36302   5.988   4.478   6.157  0.2260  0.5011 -0.9207
  276MOL0     O36303   5.926   4.380   6.237  0.0957  0.1007 -0.0071
  276MOL0     C36304   5.793   4.363   6.235 -0.0605 -0.3034 -0.4970
  276MOL0     C36305   5.749   4.234   6.254 -0.2221  0.5736 -0.3396
  276MOL0     C36306   5.607   4.207   6.253  0.1131  1.2098 -0.2142
  276MOL0     C36307   5.508   4.312   6.260 -0.0480 -0.0804  0.5445
  276MOL0     O36308   5.376   4.292   6.282  0.0463 -0.2622  0.4351
  276MOL0     C36309   5.315   4.167   6.267  0.1877  0.4368  0.6363
  276MOL0     C36310   5.161   4.186   6.305  0.0200  0.2700 -0.2919
  276MOL0     C36311   5.058   4.193   6.186  0.2176  0.3013 -1.1561
  276MOL0     C36312   4.921   4.213   6.222 -0.5299  0.3330  0.2804
  276MOL0     C36313   4.861   4.112   6.315 -0.5209  0.4903 -0.2103
  276MOL0     C36314   4.707   4.134   6.323 -0.3514 -0.0939 -0.1729
  276MOL0     C36315   4.635   4.072   6.208  0.2327 -0.1114 -0.2828
  276MOL0     C36316   4.488   4.081   6.240  0.7113  0.6807  0.3383
  276MOL0     N36317   4.416   4.024   6.125  0.2876  0.1811 -0.2066
  276MOL0     C36318   4.413   3.892   6.092 -0.7423 -0.5804 -0.6728
  276MOL0     C36319   4.319   3.873   5.998 -0.6146 -0.4951  0.1620
  276MOL0     C36320   4.279   3.748   5.938 -0.3342 -0.2032  0.1850
  276MOL0     C36321   4.169   3.690   6.019 -0.8516  0.7003  0.5682
  276MOL0     C36322   4.139   3.553   5.960 -1.0616  0.5449  0.0126
  276MOL0     C36323   3.996   3.505   5.987  0.0257 -0.0618 -0.2177
  276MOL0     O36324   3.902   3.585   5.906  0.1011 -0.1409 -0.3098
  276MOL0     C36325   3.769   3.585   5.931 -0.4561 -0.7128  0.2953
  276MOL0     C36326   3.696   3.683   5.866 -0.7479  0.5046 -0.2475
  276MOL0     C36327   3.563   3.693   5.892 -0.4569 -0.0446  0.1615
  276MOL0     C36328   3.488   3.614   5.977 -0.2249  0.1048  0.4164
  276MOL0     C36329   3.340   3.630   5.992 -0.2550  0.4240 -0.2073
  276MOL0     O36330   3.281   3.574   6.104  0.3213  0.0287  0.4114
  276MOL0     C36331   3.151   3.598   6.153  0.3151 -0.5128  0.0068
  276MOL0     C36332   3.107   3.552   6.283  0.1583  0.6270  0.6615
  276MOL0     C36333   2.983   3.586   6.345  0.4754  0.1240  0.3049
  276MOL0     C36334   2.889   3.666   6.272  0.5711 -0.2340 -0.3066
  276MOL0     O36335   2.781   3.710   6.339 -0.4358 -0.2230 -0.6977
  276MOL0     C36336   2.658   3.728   6.274  0.4868 -0.5146 -1.6646
  276MOL0     C36337   2.561   3.722   6.395  0.7277 -0.5800 -0.0742
  276MOL0     C36338   2.412   3.757   6.355  0.0413 -0.5660  1.0998
  276MOL0     C36339   2.305   3.646   6.381  0.0414  0.2960  0.1820
  276MOL0     C36340   2.163   3.708   6.404  0.2786 -0.1335  0.3262
  276MOL0     C36341   2.124   3.815   6.297 -0.2469  0.1438 -0.8031
  276MOL0     C36342   2.087   3.742   6.168 -0.2331 -0.3599 -1.0350
  276MOL0     C36343   2.048   3.844   6.065 -1.7690 -0.1227 -0.5381
  276MOL0    Cl36344   1.944   3.765   5.942  0.3251 -0.0514  0.2862
  276MOL0     C36345   2.922   3.702   6.136 -0.0652 -0.6892  0.2783
  276MOL0     C36346   3.044   3.658   6.076 -0.0775 -0.2368 -0.5906
  276MOL0     O36347   3.281   3.697   5.910  0.3235 -0.2293  0.1460
  276MOL0     C36348   3.562   3.509   6.041  0.5120 -0.6803  0.7336
  276MOL0     C36349   3.704   3.503   6.028  0.5129  0.1944  0.1391
  276MOL0     N36350   4.259   3.994   5.976  0.3529  0.0407 -0.2552
  276MOL0     N36351   4.323   4.092   6.044  0.0505 -0.4818 -0.0536
  276MOL0     C36352   5.561   4.443   6.247 -0.0478  0.5826  0.3108
  276MOL0     C36353   5.700   4.470   6.227 -0.0004  0.2994  0.7651
  276MOL0     C36354   6.134   4.455   6.152  0.4953  0.1694  0.2365
  276MOL0     C36355   6.215   4.567   6.120  0.0903 -0.3926 -0.1450
  276MOL0     C36356   6.354   4.554   6.099  1.1087  0.0748 -0.2178
  276MOL0     C36357   6.417   4.435   6.100 -0.5179  1.0382 -0.2206
  276MOL0     O36358   6.556   4.410   6.068 -0.5414  0.1831 -0.1505
  276MOL0     C36359   6.636   4.520   6.022  0.2750  0.2428 -0.5311
  276MOL0     C36360   6.765   4.480   5.975 -0.6417  0.8406  0.0303
  276MOL0     C36361   6.751   4.394   5.858  0.7219  0.4052 -0.1936
  276MOL0     C36362   6.865   4.409   5.744  0.0566 -0.4515  0.2550
  276MOL0     C36363   7.001   4.428   5.798  0.7277  0.2648  0.0091
  276MOL0     C36364   7.106   4.445   5.849  0.5556 -0.5269 -0.5348
  276MOL0     C36365   6.341   4.323   6.153 -0.2033  0.6788  0.1825
  276MOL0     C36366   6.206   4.336   6.180  0.1709 -0.8688 -0.1251
  276MOL0     H36367   5.820   4.153   6.265 -2.6206 -2.0599 -2.6170
  276MOL0     H36368   5.569   4.107   6.268 -1.9724  2.0755  0.7074
  276MOL0     H36369   5.349   4.100   6.346 -4.5836 -2.2437  0.7797
  276MOL0     H36370   5.331   4.127   6.167 -2.7300  1.4245 -0.3263
  276MOL0     H36371   5.138   4.272   6.368 -0.6354  0.4501 -0.7784
  276MOL0     H36372   5.135   4.103   6.372  2.2476  0.2376  0.6538
  276MOL0     H36373   5.063   4.108   6.118 -2.5799 -0.5466 -0.4449
  276MOL0     H36374   5.090   4.278   6.124 -2.5336  0.6553 -2.2176
  276MOL0     H36375   4.915   4.313   6.266  2.0279  1.0302 -0.8090
  276MOL0     H36376   4.853   4.220   6.136  0.0451 -2.7386 -0.5293
  276MOL0     H36377   4.901   4.109   6.416  1.9700 -0.6533 -1.1480
  276MOL0     H36378   4.880   4.013   6.274  1.6354  0.7420  0.0840
  276MOL0     H36379   4.686   4.241   6.332 -1.3724 -0.4667  3.8079
  276MOL0     H36380   4.673   4.076   6.409 -3.0433  2.1468  0.3930
  276MOL0     H36381   4.667   4.128   6.120  0.7284  3.0134  1.7211
  276MOL0     H36382   4.666   3.968   6.194  2.1354  0.5770 -1.6662
  276MOL0     H36383   4.450   4.183   6.251 -0.9564  0.1023  0.0810
  276MOL0     H36384   4.466   4.021   6.329  2.7950 -0.6980  0.0118
  276MOL0     H36385   4.472   3.812   6.136 -0.3980  1.2390  2.4137
  276MOL0     H36386   4.368   3.685   5.926  0.8232  1.6072 -1.1747
  276MOL0     H36387   4.246   3.765   5.835 -0.1494 -0.3408  0.1020
  276MOL0     H36388   4.080   3.753   6.007 -2.0561 -1.4161 -2.8979
  276MOL0     H36389   4.200   3.676   6.123 -0.6373  1.5924  0.6302
  276MOL0     H36390   4.153   3.566   5.853 -1.8178  3.3920  0.1661
  276MOL0     H36391   4.210   3.483   6.005  1.3418  2.2269 -1.0003
  276MOL0     H36392   3.965   3.502   6.092 -0.3274  3.2977 -0.1015
  276MOL0     H36393   3.987   3.404   5.945 -0.0972  0.2668 -1.0140
  276MOL0     H36394   3.756   3.755   5.810 -1.6341 -0.0860 -2.0494
  276MOL0     H36395   3.512   3.768   5.833  0.7447 -0.4829 -1.5212
  276MOL0     H36396   3.181   3.499   6.343 -0.8351 -1.9393 -0.2674
  276MOL0     H36397   2.962   3.557   6.447  0.0480  0.3526  0.2855
  276MOL0     H36398   2.641   3.646   6.204 -1.7849 -2.5266  1.0293
  276MOL0     H36399   2.657   3.814   6.207  0.5532 -1.2885 -2.6724
  276MOL0     H36400   2.590   3.791   6.474 -0.1370 -0.2892 -0.0069
  276MOL0     H36401   2.564   3.620   6.434 -1.5471 -1.2628 -1.4928
  276MOL0     H36402   2.396   3.795   6.254 -0.2178  3.5133  2.4801
  276MOL0     H36403   2.388   3.854   6.399  2.6324  1.9599 -2.4108
  276MOL0     H36404   2.306   3.571   6.302  0.2558 -0.6596  1.0637
  276MOL0     H36405   2.339   3.586   6.466  3.2553 -0.3421 -1.4123
  276MOL0     H36406   2.173   3.759   6.501 -0.5602  0.5429  0.0723
  276MOL0     H36407   2.089   3.629   6.416  1.4634 -1.1085  1.4704
  276MOL0     H36408   2.202   3.887   6.269  0.5816 -0.9851 -1.5378
  276MOL0     H36409   2.034   3.865   6.332  0.7119  1.2384  0.1875
  276MOL0     H36410   2.169   3.680   6.131  0.2591 -1.4268  1.6054
  276MOL0     H36411   1.994   3.688   6.187 -0.2867  0.4521  1.4046
  276MOL0     H36412   2.138   3.881   6.014 -0.6562 -1.0258  0.6921
  276MOL0     H36413   2.000   3.937   6.099 -2.1359 -0.2885 -0.5997
  276MOL0     H36414   2.856   3.768   6.082  0.3373  1.2187  1.9554
  276MOL0     H36415   3.058   3.676   5.970  3.4620  2.3960  0.1419
  276MOL0     H36416   3.518   3.453   6.122  1.0320 -0.7369  0.9857
  276MOL0     H36417   3.758   3.431   6.088 -1.7214  0.0404  2.1362
  276MOL0     H36418   5.501   4.534   6.244  0.2219  0.7282 -1.9414
  276MOL0     H36419   5.749   4.567   6.226 -0.5329  0.5715  0.6612
  276MOL0     H36420   6.157   4.658   6.116  0.3545 -0.1778  0.7513
  276MOL0     H36421   6.408   4.643   6.067  1.0648  0.2725  0.2479
  276MOL0     H36422   6.641   4.584   6.111 -0.7518 -1.4939  0.8536
  276MOL0     H36423   6.591   4.582   5.944 -0.1076 -0.0772 -0.5662
  276MOL0     H36424   6.817   4.576   5.967  0.3383  0.3760  0.6868
  276MOL0     H36425   6.822   4.416   6.042  1.2661 -0.5793 -2.7459
  276MOL0     H36426   6.650   4.411   5.821 -0.5163 -1.1959  2.1782
  276MOL0     H36427   6.749   4.289   5.888 -1.7690  0.8502  1.4129
  276MOL0     H36428   6.856   4.319   5.681  0.7806 -2.2412  2.5560
  276MOL0     H36429   6.839   4.491   5.677 -2.4209 -2.9105 -2.1056
  276MOL0     H36430   7.196   4.463   5.904 -2.0067  2.2498  3.2766
  276MOL0     H36431   6.398   4.232   6.167 -1.4773 -0.2943 -0.7000
  276MOL0     H36432   6.149   4.245   6.197 -1.6435  0.2641  0.1482
  277MOL0     O36433  11.208   7.037   6.367  0.1370  0.1874  0.5396
  277MOL0     C36434  11.265   7.114   6.446 -0.2800  0.7420 -1.6727
  277MOL0     O36435  11.210   7.230   6.490 -0.4326  0.4997  0.4124
  277MOL0     C36436  11.078   7.260   6.461 -0.0999  0.6674 -0.2037
  277MOL0     C36437  10.977   7.230   6.551  0.5949  1.3090 -0.3698
  277MOL0     C36438  10.845   7.264   6.521 -0.4605  0.0517 -0.3570
  277MOL0     C36439  10.805   7.331   6.401  0.6203 -0.5241 -0.8469
  277MOL0     O36440  10.674   7.366   6.395 -0.2104  0.3877  0.3636
  277MOL0     C36441  10.622   7.401   6.271 -0.6264 -0.6684 -0.6383
  277MOL0     C36442  10.467   7.387   6.282 -0.1367  1.0337  0.0958
  277MOL0     C36443  10.408   7.434   6.421 -0.6917 -0.3155  0.0091
  277MOL0     C36444  10.259   7.433   6.397 -0.4116 -0.0956  0.1388
  277MOL0     C36445  10.195   7.487   6.523 -0.7777  0.0650  0.2481
  277MOL0     C36446  10.045   7.470   6.523 -0.1246 -0.7275 -0.3808
  277MOL0     C36447   9.961   7.530   6.638 -0.1095 -0.2231  0.7210
  277MOL0     C36448   9.817   7.530   6.600  0.2144 -0.1515  0.7273
  277MOL0     N36449   9.742   7.630   6.676  0.6341  0.2901  0.1130
  277MOL0     C36450   9.699   7.747   6.629 -0.4700  0.3664  0.2159
  277MOL0     C36451   9.612   7.798   6.729 -0.0789  0.2316 -0.2363
  277MOL0     C36452   9.540   7.928   6.735 -0.6784  0.2834  0.9457
  277MOL0     C36453   9.390   7.906   6.724 -0.1609 -0.1983 -0.9315
  277MOL0     C36454   9.305   8.029   6.752  0.8755  0.6940  0.1743
  277MOL0     C36455   9.165   8.015   6.685 -0.1924 -0.0260 -0.7987
  277MOL0     O36456   9.108   7.891   6.716  0.1553 -0.3377  0.0585
  277MOL0     C36457   8.979   7.867   6.660  0.1057 -0.2557  0.4094
  277MOL0     C36458   8.900   7.957   6.584 -0.5507  0.0199  0.5167
  277MOL0     C36459   8.777   7.915   6.533  0.7577 -0.1807  1.1892
  277MOL0     C36460   8.722   7.789   6.560 -0.6811 -1.1260  0.4161
  277MOL0     C36461   8.583   7.757   6.506  0.0724 -0.7290 -0.1751
  277MOL0     O36462   8.499   7.857   6.459  0.2006 -0.0046 -0.7808
  277MOL0     C36463   8.366   7.832   6.441  0.4519 -0.3717 -0.6433
  277MOL0     C36464   8.327   7.749   6.335  0.5633 -0.0016  0.0867
  277MOL0     C36465   8.186   7.724   6.332  0.5247 -0.1607 -0.5043
  277MOL0     C36466   8.092   7.795   6.410 -0.0392 -0.0798 -0.2203
  277MOL0     O36467   7.953   7.765   6.404  0.6124  0.3851  0.0194
  277MOL0     C36468   7.867   7.865   6.465 -0.6932 -1.0019 -0.5666
  277MOL0     C36469   7.724   7.834   6.433 -0.2135 -0.1056  0.7203
  277MOL0     C36470   7.626   7.955   6.455  0.4333  0.1647 -0.5800
  277MOL0     C36471   7.487   7.907   6.426  0.0577  0.0304 -0.0989
  277MOL0     C36472   7.381   8.010   6.453  0.4470 -0.2638  0.1868
  277MOL0     C36473   7.240   7.940   6.432  0.9012  0.0173  1.2049
  277MOL0     C36474   7.127   8.030   6.462  0.8104 -0.0754  0.0900
  277MOL0     C36475   7.095   8.040   6.607  0.8875 -0.3361 -0.6485
  277MOL0    Cl36476   7.026   7.880   6.657  0.1582 -0.2344  0.2844
  277MOL0     C36477   8.141   7.890   6.500 -0.6129  0.4657 -0.0829
  277MOL0     C36478   8.279   7.909   6.513 -0.1768  0.1565  0.3254
  277MOL0     O36479   8.548   7.642   6.518 -0.0609  0.2665 -0.2729
  277MOL0     C36480   8.804   7.703   6.648 -0.1553  0.7174  0.9637
  277MOL0     C36481   8.927   7.748   6.684  0.0602  0.5725  0.1168
  277MOL0     N36482   9.620   7.714   6.833 -0.4899 -0.2623 -0.1992
  277MOL0     N36483   9.694   7.617   6.809 -0.0279  0.2862  0.3545
  277MOL0     C36484  10.907   7.357   6.306  0.5766  0.0410 -0.1006
  277MOL0     C36485  11.041   7.324   6.345  0.7853  0.7831 -0.3187
  277MOL0     C36486  11.396   7.074   6.500 -0.0972  0.2649 -0.1063
  277MOL0     C36487  11.492   7.164   6.539 -0.1500 -1.2173 -1.0910
  277MOL0     C36488  11.612   7.131   6.583 -0.5278 -0.0803  0.2719
  277MOL0     C36489  11.654   6.997   6.587  0.2481 -0.2696  0.5213
  277MOL0     O36490  11.779   6.985   6.639 -0.2380  0.2206 -0.3093
  277MOL0     C36491  11.840   6.855   6.614 -0.3531  0.0735  0.3915
  277MOL0     C36492  11.991   6.859   6.648  0.5035  0.3101 -0.4210
  277MOL0     C36493  12.063   6.725   6.654  0.8429  0.6993  0.2238
  277MOL0     C36494  12.005   6.627   6.755 -0.5699 -0.1887  0.1751
  277MOL0     C36495  12.096   6.510   6.764  0.3763 -1.5129 -0.4827
  277MOL0     C36496  12.180   6.420   6.772  0.1917  0.2320 -0.8001
  277MOL0     C36497  11.557   6.899   6.552  0.0757  0.3122 -0.6343
  277MOL0     C36498  11.427   6.942   6.509  0.6079  0.6145 -0.7739
  277MOL0     H36499  10.999   7.191   6.650 -3.7744  1.4274  0.8577
  277MOL0     H36500  10.767   7.242   6.594  1.0040  0.7283  1.4893
  277MOL0     H36501  10.656   7.336   6.190 -1.8099 -2.1707  0.0136
  277MOL0     H36502  10.638   7.508   6.259  0.2258 -0.6270  0.6189
  277MOL0     H36503  10.443   7.283   6.259 -2.9155  1.5702  0.2092
  277MOL0     H36504  10.416   7.445   6.204 -0.3860 -0.4476 -0.8688
  277MOL0     H36505  10.440   7.539   6.428  2.7134 -1.3607  3.3613
  277MOL0     H36506  10.450   7.376   6.504  0.6952 -0.6438 -0.8815
  277MOL0     H36507  10.230   7.499   6.316  0.1303  1.0812  0.8764
  277MOL0     H36508  10.217   7.333   6.381 -0.9852 -0.7438  4.4816
  277MOL0     H36509  10.232   7.588   6.541  2.4068 -1.1889  1.5457
  277MOL0     H36510  10.238   7.426   6.603 -0.1250 -0.3224 -0.3825
  277MOL0     H36511  10.025   7.362   6.526 -1.5394 -0.4522  1.4947
  277MOL0     H36512  10.018   7.506   6.423  2.6801 -3.1142 -2.1439
  277MOL0     H36513   9.968   7.469   6.729  1.4143  1.0267  1.5052
  277MOL0     H36514   9.983   7.635   6.660 -2.6770  0.3246  1.0097
  277MOL0     H36515   9.776   7.432   6.626 -0.6892 -0.4831 -1.6292
  277MOL0     H36516   9.799   7.550   6.494  2.6610 -0.0608  0.2709
  277MOL0     H36517   9.711   7.793   6.532  1.4199 -1.2928 -0.3943
  277MOL0     H36518   9.585   7.990   6.658 -0.1892 -0.2821  0.7698
  277MOL0     H36519   9.567   7.973   6.831 -1.0854 -0.1972  1.2986
  277MOL0     H36520   9.366   7.828   6.797  1.6013  1.0306  1.1053
  277MOL0     H36521   9.368   7.856   6.630  1.1732  0.9653 -1.9115
  277MOL0     H36522   9.282   8.028   6.860 -3.5576 -1.8208 -0.5169
  277MOL0     H36523   9.342   8.128   6.725 -0.5605  0.6790 -2.1284
  277MOL0     H36524   9.168   8.033   6.577  2.2881  1.3706 -0.5525
  277MOL0     H36525   9.102   8.092   6.730 -1.3466 -0.7612 -1.0874
  277MOL0     H36526   8.929   8.061   6.573  3.5051 -0.8998  0.6561
  277MOL0     H36527   8.722   7.983   6.469  2.0011  0.0285  0.3069
  277MOL0     H36528   8.393   7.692   6.271 -0.4854 -0.4432 -0.6271
  277MOL0     H36529   8.150   7.654   6.257 -0.2194 -0.7725  0.4016
  277MOL0     H36530   7.891   7.961   6.419  0.5797 -1.4844 -0.9588
  277MOL0     H36531   7.878   7.869   6.574 -1.3389  0.1583 -0.5244
  277MOL0     H36532   7.700   7.746   6.493  1.3934  0.1901  1.8706
  277MOL0     H36533   7.713   7.808   6.327 -0.5187  1.5947  0.3078
  277MOL0     H36534   7.662   8.036   6.391  2.3429  2.6227  3.2611
  277MOL0     H36535   7.652   7.984   6.557 -0.4879 -1.4283  0.1529
  277MOL0     H36536   7.476   7.879   6.321  2.3349 -0.6816 -0.2120
  277MOL0     H36537   7.467   7.812   6.476  2.5701 -1.3343 -1.4934
  277MOL0     H36538   7.398   8.098   6.391 -1.0748 -0.9913 -1.3545
  277MOL0     H36539   7.375   8.042   6.558 -0.2955 -3.9277  1.4020
  277MOL0     H36540   7.235   7.848   6.491  2.4784 -0.5378  0.5104
  277MOL0     H36541   7.231   7.920   6.325 -4.5106  0.2558  1.3244
  277MOL0     H36542   7.157   8.130   6.429 -0.3286  0.4152  0.4879
  277MOL0     H36543   7.043   7.995   6.402 -0.8288 -0.1294  2.2727
  277MOL0     H36544   7.032   8.123   6.639  0.9836  0.2794 -1.9833
  277MOL0     H36545   7.190   8.052   6.660  1.1709 -2.1293 -0.6852
  277MOL0     H36546   8.076   7.943   6.570  2.5860  1.6173  2.2989
  277MOL0     H36547   8.321   7.980   6.583  1.3106  1.6918 -1.9741
  277MOL0     H36548   8.772   7.604   6.679 -4.8409  1.6311 -0.2653
  277MOL0     H36549   8.992   7.680   6.738  0.3126  1.1363  0.5289
  277MOL0     H36550  10.905   7.421   6.218  3.6602  0.7858  0.2732
  277MOL0     H36551  11.116   7.364   6.278  0.6446  2.2696  0.3665
  277MOL0     H36552  11.473   7.270   6.530  2.3583 -0.5367  0.7210
  277MOL0     H36553  11.683   7.211   6.597  0.4066 -0.9494  0.6370
  277MOL0     H36554  11.823   6.836   6.507  0.4653  0.6566  0.1530
  277MOL0     H36555  11.785   6.778   6.669 -1.3591 -0.2939 -1.0670
  277MOL0     H36556  12.033   6.918   6.565 -1.2877  0.0543 -1.5525
  277MOL0     H36557  12.008   6.913   6.742  1.9359  0.4755 -0.7412
  277MOL0     H36558  12.166   6.748   6.680  0.5381  2.2355  0.1487
  277MOL0     H36559  12.047   6.676   6.557  2.8944 -0.0175  0.2101
  277MOL0     H36560  12.005   6.678   6.852  3.0113  2.5289 -1.0262
  277MOL0     H36561  11.904   6.590   6.737 -0.5043 -0.2301 -0.1087
  277MOL0     H36562  12.267   6.357   6.774 -0.3317 -0.5594  2.6480
  277MOL0     H36563  11.569   6.794   6.574 -4.0131  0.3015  2.8757
  277MOL0     H36564  11.352   6.873   6.474 -1.2535  3.2875 -2.4367
  278MOL0     O36565   1.265   9.094   1.899  0.2190  0.1122  0.2956
  278MOL0     C36566   1.311   9.207   1.909 -0.6309  0.5671 -0.0422
  278MOL0     O36567   1.241   9.322   1.941  0.1290 -0.5379  0.0646
  278MOL0     C36568   1.104   9.318   1.962  0.2494 -0.2039 -0.9139
  278MOL0     C36569   1.043   9.244   2.073  0.2298  0.1057  0.6429
  278MOL0     C36570   0.908   9.221   2.087 -0.7494  0.5892  0.4647
  278MOL0     C36571   0.817   9.266   1.982 -0.8991  0.9157 -0.4727
  278MOL0     O36572   0.686   9.229   1.987  0.2031 -0.8081  0.5297
  278MOL0     C36573   0.596   9.336   1.972  0.8136 -0.5147 -0.0329
  278MOL0     C36574   0.447   9.293   1.950 -0.7468  0.2656 -0.2515
  278MOL0     C36575   0.355   9.403   1.905  0.3168  0.4368  0.0596
  278MOL0     C36576   0.216   9.348   1.901  1.5125 -0.0060 -0.2690
  278MOL0     C36577   0.105   9.453   1.867 -0.0157 -0.5646  0.6471
  278MOL0     C36578  -0.027   9.386   1.864  0.9374  0.8915  0.1714
  278MOL0     C36579  -0.145   9.476   1.815  0.0337 -0.1901  0.3820
  278MOL0     C36580  -0.194   9.555   1.936 -0.4854  0.0354 -0.9068
  278MOL0     N36581  -0.298   9.648   1.893 -0.0397  0.6235  0.7601
  278MOL0     C36582  -0.428   9.605   1.892  0.7634  0.8601 -0.3027
  278MOL0     C36583  -0.504   9.720   1.869  0.1762 -0.1498 -0.7428
  278MOL0     C36584  -0.662   9.727   1.885 -0.2225 -0.3055  0.5747
  278MOL0     C36585  -0.697   9.748   2.027 -0.8196  0.5246 -0.2797
  278MOL0     C36586  -0.841   9.720   2.061 -0.5786 -0.2480 -0.5396
  278MOL0     C36587  -0.937   9.836   2.007  0.0148  0.6696 -0.7101
  278MOL0     O36588  -0.928   9.960   2.079 -0.0623 -0.4460  0.2634
  278MOL0     C36589  -0.960  10.084   2.023 -0.0790 -0.2172  0.8226
  278MOL0     C36590  -0.931  10.196   2.103  0.1086  0.3728 -0.3045
  278MOL0     C36591  -0.945  10.328   2.058 -0.4744  0.7632  0.3439
  278MOL0     C36592  -1.007  10.344   1.929 -0.8909  0.0103 -0.0851
  278MOL0     C36593  -1.030  10.480   1.884  0.1861 -0.8380  0.2170
  278MOL0     O36594  -1.151  10.508   1.823  0.3545  0.9265  0.0531
  278MOL0     C36595  -1.190  10.637   1.786 -0.2769  0.3800 -0.5917
  278MOL0     C36596  -1.321  10.670   1.814  0.2417  0.3725  0.2144
  278MOL0     C36597  -1.368  10.795   1.772  0.5678 -0.8856 -0.3797
  278MOL0     C36598  -1.287  10.881   1.698  0.5077 -0.1781  0.1738
  278MOL0     O36599  -1.322  11.008   1.654 -0.3104  0.1252 -0.3052
  278MOL0     C36600  -1.461  11.049   1.669 -0.7287  0.5535  0.4093
  278MOL0     C36601  -1.478  11.188   1.614  0.0548  0.4349  0.3158
  278MOL0     C36602  -1.619  11.235   1.639 -0.8376  1.3482 -0.0602
  278MOL0     C36603  -1.644  11.370   1.573 -0.6844 -0.3659 -0.1133
  278MOL0     C36604  -1.780  11.439   1.620  0.0489  1.0143  0.4504
  278MOL0     C36605  -1.910  11.366   1.585  0.4641 -0.1555  0.3419
  278MOL0     C36606  -1.945  11.368   1.435  0.2759  0.1668 -0.0792
  278MOL0     C36607  -2.042  11.487   1.407 -0.4111 -0.0201  0.4979
  278MOL0    Cl36608  -2.088  11.484   1.240  0.3340  0.4145  0.4600
  278MOL0     C36609  -1.152  10.851   1.687  0.0587  0.1775  0.2608
  278MOL0     C36610  -1.107  10.728   1.729 -0.3122 -0.6749 -0.1252
  278MOL0     O36611  -0.953  10.568   1.924  0.2681  0.4087  0.1829
  278MOL0     C36612  -1.041  10.235   1.852 -0.7070 -0.4917 -0.9155
  278MOL0     C36613  -1.015  10.101   1.893 -0.4543 -1.2070  0.1188
  278MOL0     N36614  -0.417   9.821   1.838 -0.5897 -0.7046 -0.3569
  278MOL0     N36615  -0.288   9.772   1.848 -0.2319  0.0425 -0.1903
  278MOL0     C36616   0.876   9.344   1.878 -0.1176 -0.0122 -0.2661
  278MOL0     C36617   1.011   9.373   1.875 -0.7710  0.0663  0.6519
  278MOL0     C36618   1.454   9.226   1.884  0.9255  0.0519  0.0676
  278MOL0     C36619   1.534   9.127   1.835 -0.1301  0.0586 -0.6374
  278MOL0     C36620   1.660   9.148   1.801 -0.7040  0.3220  0.9066
  278MOL0     C36621   1.725   9.273   1.823  1.0938  0.1068  0.4989
  278MOL0     O36622   1.856   9.281   1.775  0.0340 -0.2369  0.4271
  278MOL0     C36623   1.937   9.392   1.802 -0.7328 -0.4644  0.0334
  278MOL0     C36624   2.092   9.360   1.778 -0.2161 -0.5612 -1.2346
  278MOL0     C36625   2.177   9.490   1.768  0.6323  0.2016  1.0288
  278MOL0     C36626   2.183   9.534   1.615 -0.0028 -0.0992 -0.3018
  278MOL0     C36627   2.282   9.634   1.588  0.2039 -0.2964 -0.6591
  278MOL0     C36628   2.367   9.716   1.586  0.2375  0.0791  0.0533
  278MOL0     C36629   1.645   9.377   1.871  0.5782  0.7733  0.3853
  278MOL0     C36630   1.514   9.354   1.902  0.5704  0.8953 -0.6172
  278MOL0     H36631   1.097   9.195   2.153 -2.4216 -1.5756  1.5174
  278MOL0     H36632   0.874   9.168   2.175  2.4119  2.6293  3.1640
  278MOL0     H36633   0.618   9.395   1.882  0.5719  0.4944  0.5599
  278MOL0     H36634   0.598   9.408   2.053 -2.3685 -0.5188  0.1606
  278MOL0     H36635   0.418   9.243   2.042  3.0043 -2.0481 -0.0974
  278MOL0     H36636   0.445   9.211   1.877 -0.0594 -2.4544  2.5862
  278MOL0     H36637   0.376   9.436   1.802 -1.3273  0.4538 -0.3076
  278MOL0     H36638   0.356   9.491   1.970  2.9172 -0.4879  1.4167
  278MOL0     H36639   0.214   9.266   1.829  1.3150  0.4791 -0.8284
  278MOL0     H36640   0.191   9.304   1.998 -1.7765  0.1795 -0.9226
  278MOL0     H36641   0.139   9.502   1.776  2.4225  3.1481  3.2393
  278MOL0     H36642   0.102   9.534   1.941  0.8928 -0.4134  0.5242
  278MOL0     H36643  -0.043   9.345   1.964  2.9426 -0.2020  0.0982
  278MOL0     H36644  -0.026   9.298   1.799  0.7413  0.9801  0.0472
  278MOL0     H36645  -0.107   9.534   1.732  0.9949 -3.5013 -1.6901
  278MOL0     H36646  -0.219   9.405   1.775  0.7779 -3.0608  3.5420
  278MOL0     H36647  -0.115   9.609   1.989 -0.4013 -0.8732 -0.0791
  278MOL0     H36648  -0.241   9.492   2.012  1.4547  1.6899  1.8184
  278MOL0     H36649  -0.481   9.511   1.907 -2.9922  2.7353 -0.5830
  278MOL0     H36650  -0.712   9.637   1.847 -3.0432  1.3665  0.0779
  278MOL0     H36651  -0.703   9.808   1.824  1.3806  3.1723  3.7258
  278MOL0     H36652  -0.688   9.856   2.043 -4.7541  1.0839 -0.8174
  278MOL0     H36653  -0.622   9.688   2.080 -0.5619  0.0344 -1.1774
  278MOL0     H36654  -0.867   9.617   2.034 -0.9743 -0.1195 -0.6558
  278MOL0     H36655  -0.851   9.717   2.170  0.3896 -3.6057 -0.4219
  278MOL0     H36656  -1.037   9.797   2.027 -0.7339  2.3499 -0.9780
  278MOL0     H36657  -0.928   9.854   1.899 -0.9783  0.0701 -0.9022
  278MOL0     H36658  -0.893  10.178   2.203 -0.5905 -3.2893 -0.5693
  278MOL0     H36659  -0.911  10.413   2.115  0.5756 -0.0540  0.9642
  278MOL0     H36660  -1.388  10.613   1.878  0.0599  0.7720  0.3906
  278MOL0     H36661  -1.470  10.826   1.795  1.3757 -0.6217  3.5173
  278MOL0     H36662  -1.487  11.045   1.776 -2.8561  1.4224 -0.0287
  278MOL0     H36663  -1.538  10.994   1.614  1.5230  0.5953 -3.0659
  278MOL0     H36664  -1.445  11.188   1.510  1.8858  1.2315  0.8535
  278MOL0     H36665  -1.408  11.253   1.666 -0.0144  0.5917  0.2134
  278MOL0     H36666  -1.635  11.250   1.746 -0.2419  0.8389  0.1061
  278MOL0     H36667  -1.689  11.158   1.604 -1.6701  1.2034  1.7718
  278MOL0     H36668  -1.556  11.434   1.588  0.0265 -1.5226  0.8640
  278MOL0     H36669  -1.646  11.374   1.464  0.9461  4.0375 -0.2045
  278MOL0     H36670  -1.790  11.544   1.591 -0.7646  0.9562  0.5032
  278MOL0     H36671  -1.776  11.455   1.728 -0.1034 -1.4854  0.8713
  278MOL0     H36672  -1.984  11.419   1.646  2.7937  3.2677  0.4971
  278MOL0     H36673  -1.906  11.264   1.623 -0.7329  0.8572  3.5280
  278MOL0     H36674  -1.851  11.365   1.378  0.7935 -3.1736  0.6963
  278MOL0     H36675  -1.999  11.275   1.416 -2.3179  1.2213  1.6321
  278MOL0     H36676  -1.976  11.570   1.429  3.8347 -2.0167 -3.1796
  278MOL0     H36677  -2.133  11.473   1.467 -1.8005  0.0251 -1.4953
  278MOL0     H36678  -1.093  10.921   1.630  1.5643 -1.1850  0.0548
  278MOL0     H36679  -1.003  10.702   1.713 -0.6071 -0.8778 -1.9652
  278MOL0     H36680  -1.068  10.251   1.747 -0.4462  0.8394 -0.7960
  278MOL0     H36681  -1.029  10.016   1.827  1.3878 -1.3101 -0.2032
  278MOL0     H36682   0.810   9.377   1.798 -0.7034  0.2380  0.3144
  278MOL0     H36683   1.050   9.408   1.780 -0.3853 -1.7148  0.1107
  278MOL0     H36684   1.504   9.023   1.842  1.3654 -0.3244  0.7496
  278MOL0     H36685   1.718   9.061   1.771 -2.5329 -1.5479  2.5534
  278MOL0     H36686   1.921   9.430   1.903 -1.5152 -2.9529  0.9380
  278MOL0     H36687   1.910   9.489   1.761 -0.7655  0.9252  3.1047
  278MOL0     H36688   2.129   9.299   1.861 -1.2425 -1.9242 -1.7596
  278MOL0     H36689   2.106   9.301   1.687 -1.3993  0.0400 -1.8237
  278MOL0     H36690   2.275   9.479   1.816  0.1618 -0.9398  1.7730
  278MOL0     H36691   2.127   9.570   1.823 -0.3037  1.0937 -1.0147
  278MOL0     H36692   2.208   9.449   1.552  1.0188  1.2178 -1.7528
  278MOL0     H36693   2.090   9.572   1.573  0.2580  0.3170 -0.5121
  278MOL0     H36694   2.448   9.784   1.607  2.6047 -2.6383  0.3312
  278MOL0     H36695   1.684   9.476   1.894 -2.2535  1.8307  1.1219
  278MOL0     H36696   1.462   9.435   1.953  0.7838 -0.1180  1.3115
  279MOL0     O36697   0.801   3.638   1.299  0.2259  0.1091  0.4102
  279MOL0     C36698   0.829   3.731   1.374  0.7252 -0.2874 -0.2234
  279MOL0     O36699   0.746   3.828   1.430 -0.1139  0.0472  0.5409
  279MOL0     C36700   0.612   3.823   1.388 -0.7470 -0.3159  0.4606
  279MOL0     C36701   0.518   3.850   1.487 -0.1275  0.9160 -0.3710
  279MOL0     C36702   0.380   3.838   1.456 -0.0009  0.3447  0.1780
  279MOL0     C36703   0.339   3.806   1.324  1.7166 -0.2841  0.2125
  279MOL0     O36704   0.206   3.793   1.293  0.1949 -0.0946 -0.4639
  279MOL0     C36705   0.096   3.806   1.380  0.8804  1.4017 -0.8788
  279MOL0     C36706   0.056   3.951   1.413 -0.3261 -0.5214  0.7187
  279MOL0     C36707  -0.088   3.981   1.435  0.0241  0.2007 -1.0210
  279MOL0     C36708  -0.096   4.138   1.456  0.1643  0.5406 -0.9005
  279MOL0     C36709  -0.245   4.180   1.446 -0.9510  0.5392  0.2687
  279MOL0     C36710  -0.251   4.331   1.450  0.0325  0.3623 -0.4696
  279MOL0     C36711  -0.400   4.384   1.446  0.8544  0.3597  0.7732
  279MOL0     C36712  -0.436   4.533   1.488 -0.3345 -0.0976 -0.1622
  279MOL0     N36713  -0.574   4.567   1.476  0.2007  0.6535  0.2512
  279MOL0     C36714  -0.632   4.682   1.528  0.6089 -0.0791  0.0270
  279MOL0     C36715  -0.759   4.691   1.475 -1.3389  0.4297 -0.7516
  279MOL0     C36716  -0.858   4.799   1.506 -0.0264 -0.6422  0.5845
  279MOL0     C36717  -1.003   4.761   1.555  0.2099  0.1344 -0.9145
  279MOL0     C36718  -1.092   4.883   1.538  0.0662 -0.5289  0.1556
  279MOL0     C36719  -1.243   4.850   1.567 -0.1022 -0.6222  1.1006
  279MOL0     O36720  -1.274   4.844   1.712  0.2263 -0.1998 -0.3345
  279MOL0     C36721  -1.409   4.868   1.760 -0.8317 -0.0563  0.8293
  279MOL0     C36722  -1.510   4.895   1.666  0.2127  0.4839  0.4176
  279MOL0     C36723  -1.639   4.916   1.714 -1.4546  0.9771 -0.3565
  279MOL0     C36724  -1.677   4.899   1.844  0.9703  0.5974 -0.5033
  279MOL0     C36725  -1.817   4.925   1.883  0.0018 -0.4089 -0.2615
  279MOL0     O36726  -1.901   4.948   1.774 -0.1690  0.4699 -0.4981
  279MOL0     C36727  -2.022   4.979   1.810  0.0226 -0.4429  0.5013
  279MOL0     C36728  -2.062   5.107   1.828 -0.0887  0.6517  0.0595
  279MOL0     C36729  -2.192   5.135   1.841 -0.1252 -0.2668 -0.3980
  279MOL0     C36730  -2.293   5.034   1.832  0.0839  0.1381  0.3407
  279MOL0     O36731  -2.423   5.069   1.853 -0.2866 -0.0183 -0.1769
  279MOL0     C36732  -2.503   4.970   1.909  0.2615  0.4292  0.5638
  279MOL0     C36733  -2.618   5.048   1.983  0.1106  0.0130  0.3345
  279MOL0     C36734  -2.721   5.123   1.882 -0.9742  0.8301 -0.1419
  279MOL0     C36735  -2.805   5.014   1.812  0.7358  0.4646 -0.5234
  279MOL0     C36736  -2.929   5.075   1.742  0.9619 -0.2463 -1.0846
  279MOL0     C36737  -3.021   4.971   1.687  0.0808  0.3135 -0.3386
  279MOL0     C36738  -3.160   5.033   1.651 -0.0162  0.2736 -0.2498
  279MOL0     C36739  -3.269   5.037   1.764  0.4140 -0.1568 -0.1871
  279MOL0    Cl36740  -3.231   5.172   1.892  0.2403  0.1953 -0.1940
  279MOL0     C36741  -2.247   4.902   1.806 -0.3841  0.5809 -0.3263
  279MOL0     C36742  -2.114   4.872   1.800 -0.8445 -0.7261 -0.1590
  279MOL0     O36743  -1.844   4.924   2.005 -0.5977 -0.2506  0.4523
  279MOL0     C36744  -1.576   4.887   1.939 -0.2013 -0.0672 -0.9851
  279MOL0     C36745  -1.437   4.865   1.894  0.0971  0.4005 -0.3462
  279MOL0     N36746  -0.784   4.570   1.424  0.9676 -0.2909  0.1377
  279MOL0     N36747  -0.679   4.491   1.434  0.4395 -0.1084  0.3545
  279MOL0     C36748   0.430   3.781   1.224  0.5560 -1.1443  0.6591
  279MOL0     C36749   0.568   3.796   1.251  0.2794  0.5514 -0.6244
  279MOL0     C36750   0.962   3.745   1.429 -0.1855  0.4669 -0.8614
  279MOL0     C36751   1.053   3.648   1.387  0.0306 -0.1399  0.2159
  279MOL0     C36752   1.183   3.653   1.422  0.3568 -0.1487 -0.6390
  279MOL0     C36753   1.234   3.755   1.502 -0.7400 -0.8523  0.5258
  279MOL0     O36754   1.368   3.774   1.535  1.0767  0.5792 -0.1664
  279MOL0     C36755   1.470   3.687   1.490 -0.2957 -0.8942  0.3889
  279MOL0     C36756   1.592   3.763   1.540 -0.6924 -0.4405 -0.1648
  279MOL0     C36757   1.715   3.682   1.528 -0.1192 -0.6895  0.6473
  279MOL0     C36758   1.842   3.771   1.556 -0.4135  0.2647 -0.0146
  279MOL0     C36759   1.865   3.861   1.442 -0.5271 -0.0506  0.9368
  279MOL0     C36760   1.880   3.941   1.351 -0.3026  0.6801  1.0297
  279MOL0     C36761   1.147   3.853   1.544  0.2058  0.7168 -0.5194
  279MOL0     C36762   1.008   3.853   1.506  0.1601 -0.1382  0.3383
  279MOL0     H36763   0.539   3.875   1.590 -3.3876 -0.6059  0.7956
  279MOL0     H36764   0.305   3.862   1.531  0.2851 -1.2994  1.0144
  279MOL0     H36765   0.114   3.736   1.462 -3.0709  0.1531 -0.8493
  279MOL0     H36766   0.006   3.753   1.344  0.9582 -1.7154  2.8536
  279MOL0     H36767   0.087   4.017   1.332 -3.8359  1.9503  1.1489
  279MOL0     H36768   0.120   3.976   1.498  2.3940 -1.0750 -1.0704
  279MOL0     H36769  -0.124   3.917   1.516  0.5187 -0.2201 -1.1283
  279MOL0     H36770  -0.147   3.950   1.349 -0.0349 -1.6524 -0.3497
  279MOL0     H36771  -0.047   4.170   1.549  1.6233  0.3969 -1.5868
  279MOL0     H36772  -0.032   4.194   1.387  3.1080  1.9737  2.6752
  279MOL0     H36773  -0.305   4.137   1.527 -2.0553 -0.0927 -0.8517
  279MOL0     H36774  -0.288   4.146   1.351 -0.7104 -2.4781  1.1505
  279MOL0     H36775  -0.195   4.378   1.368  1.0021  3.1382  1.6276
  279MOL0     H36776  -0.202   4.365   1.542 -0.7010  0.5028 -0.1244
  279MOL0     H36777  -0.430   4.357   1.344 -0.7987  1.1598  1.0226
  279MOL0     H36778  -0.460   4.307   1.496 -0.8643  1.3899  0.3601
  279MOL0     H36779  -0.374   4.601   1.430  0.6842 -0.3786  0.5551
  279MOL0     H36780  -0.405   4.549   1.592 -1.2324  3.0780 -0.2701
  279MOL0     H36781  -0.584   4.753   1.594 -0.5230 -2.6275  3.9651
  279MOL0     H36782  -0.868   4.857   1.414  0.3641 -0.9692  0.3320
  279MOL0     H36783  -0.822   4.864   1.586  0.0832  1.0922 -0.8166
  279MOL0     H36784  -1.002   4.741   1.663  0.1695 -2.2949 -1.2967
  279MOL0     H36785  -1.049   4.674   1.507 -1.1201  1.7075 -2.6643
  279MOL0     H36786  -1.070   4.970   1.601 -2.1520  1.2235 -1.3536
  279MOL0     H36787  -1.079   4.913   1.434 -2.5839 -0.0236 -0.0901
  279MOL0     H36788  -1.267   4.761   1.509  0.4121 -1.4872  2.1807
  279MOL0     H36789  -1.299   4.933   1.522  0.6424 -1.1858 -1.0203
  279MOL0     H36790  -1.496   4.898   1.558 -1.4787 -3.9676 -0.1412
  279MOL0     H36791  -1.714   4.936   1.639 -1.2457 -0.4431 -0.9829
  279MOL0     H36792  -1.985   5.184   1.826  0.2210  0.3889  1.1604
  279MOL0     H36793  -2.213   5.241   1.854  3.7334  1.1278 -3.4440
  279MOL0     H36794  -2.442   4.909   1.975 -2.6199 -4.0865 -0.4405
  279MOL0     H36795  -2.542   4.912   1.824 -1.2729  2.2861 -0.0951
  279MOL0     H36796  -2.576   5.119   2.055 -1.0848  0.1027  0.9885
  279MOL0     H36797  -2.666   4.972   2.045  2.6658  0.5798  3.2687
  279MOL0     H36798  -2.659   5.171   1.806  0.0748 -0.5237 -0.1709
  279MOL0     H36799  -2.778   5.193   1.944 -1.8956 -0.6807  0.7841
  279MOL0     H36800  -2.742   4.959   1.741  0.9772 -0.9240  0.7127
  279MOL0     H36801  -2.848   4.951   1.891  1.8373  0.2900 -0.0481
  279MOL0     H36802  -2.913   5.151   1.664 -4.1724  1.9816 -0.4000
  279MOL0     H36803  -2.971   5.122   1.831  0.3873 -2.1930 -0.2894
  279MOL0     H36804  -3.026   4.898   1.769  2.9041  1.2140  0.7504
  279MOL0     H36805  -2.975   4.924   1.600 -0.5450 -2.3793  0.6722
  279MOL0     H36806  -3.138   5.130   1.605  1.0986 -0.6107 -1.6555
  279MOL0     H36807  -3.206   4.966   1.577 -0.4579  0.1273  0.1509
  279MOL0     H36808  -3.283   4.936   1.805 -0.6857 -0.3746 -1.0566
  279MOL0     H36809  -3.362   5.065   1.714  0.8772  4.1492  0.9777
  279MOL0     H36810  -2.317   4.824   1.778  0.5552 -0.0345 -1.0198
  279MOL0     H36811  -2.090   4.769   1.776 -3.7668 -1.8177  1.0632
  279MOL0     H36812  -1.587   4.884   2.047  0.0049  1.3033 -0.9104
  279MOL0     H36813  -1.369   4.830   1.971 -1.3424 -0.5156  0.5679
  279MOL0     H36814   0.386   3.773   1.125  1.2951  2.4757 -0.0893
  279MOL0     H36815   0.628   3.778   1.163 -0.0019  2.1941 -1.1990
  279MOL0     H36816   1.019   3.562   1.332 -0.6200  0.3870 -0.2283
  279MOL0     H36817   1.242   3.574   1.378 -0.5414 -0.5800 -1.0904
  279MOL0     H36818   1.477   3.679   1.381  1.1726  0.7114  0.3149
  279MOL0     H36819   1.471   3.584   1.524  1.5390 -0.8307  0.6122
  279MOL0     H36820   1.598   3.861   1.492 -1.5041 -0.1310  0.3263
  279MOL0     H36821   1.586   3.768   1.649 -0.3940 -3.2698  0.0531
  279MOL0     H36822   1.728   3.640   1.428 -2.8534  0.8061 -0.4492
  279MOL0     H36823   1.707   3.600   1.600 -0.4987  0.4585  1.9558
  279MOL0     H36824   1.829   3.833   1.644 -0.7711  1.3221 -0.7895
  279MOL0     H36825   1.927   3.702   1.555 -0.4458  0.1995 -1.9381
  279MOL0     H36826   1.876   4.016   1.274 -1.5555 -0.7016 -0.3215
  279MOL0     H36827   1.186   3.933   1.606 -0.1923  2.4255 -2.3913
  279MOL0     H36828   0.946   3.937   1.533 -2.5282 -1.8690 -0.0956
  280MOL0     O36829   5.458   4.093   0.121 -0.2727  0.4094  0.6071
  280MOL0     C36830   5.503   4.183   0.046  0.1193  0.2210 -0.5483
  280MOL0     O36831   5.427   4.286  -0.004  0.2025  0.4112  0.1744
  280MOL0     C36832   5.302   4.303   0.052  0.8777 -0.5475  0.3726
  280MOL0     C36833   5.191   4.242  -0.010  0.5715 -0.2813  0.4632
  280MOL0     C36834   5.070   4.268   0.051 -0.4950 -0.1232 -0.2883
  280MOL0     C36835   5.058   4.328   0.180 -0.0734 -0.5103 -0.5186
  280MOL0     O36836   4.946   4.362   0.245 -0.0032  0.6158 -0.2177
  280MOL0     C36837   4.827   4.353   0.172  0.0214  0.2009  0.2395
  280MOL0     C36838   4.730   4.470   0.226 -0.6377  0.2708  0.0749
  280MOL0     C36839   4.580   4.449   0.205 -0.6360  0.1312 -1.3665
  280MOL0     C36840   4.534   4.435   0.059 -0.1213  0.2591  0.6927
  280MOL0     C36841   4.383   4.452   0.043 -0.4101 -0.3605 -0.0353
  280MOL0     C36842   4.284   4.338   0.080 -0.1527  0.5982  0.4081
  280MOL0     C36843   4.145   4.350   0.018 -0.3345 -0.6576 -0.3964
  280MOL0     C36844   4.069   4.212   0.033 -0.2771 -0.9304  0.7519
  280MOL0     N36845   3.925   4.241   0.003  0.5145 -0.4539 -0.8931
  280MOL0     C36846   3.842   4.317   0.083 -0.1871 -0.7412  0.0296
  280MOL0     C36847   3.717   4.292   0.030 -1.2280 -0.5905  0.3308
  280MOL0     C36848   3.593   4.372   0.064 -0.2350  1.1913 -0.5848
  280MOL0     C36849   3.533   4.299   0.189 -0.9264  0.6314 -0.4307
  280MOL0     C36850   3.385   4.332   0.207  0.6353 -0.1952  0.0333
  280MOL0     C36851   3.371   4.482   0.245  0.1154  0.5056 -0.2330
  280MOL0     O36852   3.239   4.526   0.266 -0.0194 -0.0364  0.0116
  280MOL0     C36853   3.154   4.538   0.160 -0.0273  0.7596  0.1033
  280MOL0     C36854   3.017   4.535   0.187 -0.2873  0.7568  0.0502
  280MOL0     C36855   2.926   4.565   0.083  0.5196  0.1241  1.0435
  280MOL0     C36856   2.975   4.575  -0.052  0.2382  0.2732 -0.1068
  280MOL0     C36857   2.886   4.595  -0.167 -0.4196 -0.6909 -0.2955
  280MOL0     O36858   2.750   4.608  -0.144  0.0893  1.0005  0.0945
  280MOL0     C36859   2.658   4.598  -0.245  0.1462 -0.8265 -0.4661
  280MOL0     C36860   2.668   4.624  -0.381 -0.4028 -0.1166 -0.3380
  280MOL0     C36861   2.561   4.609  -0.468 -0.3662  0.3598  0.0792
  280MOL0     C36862   2.434   4.579  -0.417  0.5208 -0.2931 -0.4861
  280MOL0     O36863   2.337   4.572  -0.514  0.1706  0.2375 -0.0295
  280MOL0     C36864   2.195   4.541  -0.484 -0.6934 -0.1435  0.6798
  280MOL0     C36865   2.120   4.679  -0.458  0.8348  0.0607 -1.0223
  280MOL0     C36866   2.104   4.751  -0.589 -0.6453  0.1589  0.0941
  280MOL0     C36867   2.015   4.871  -0.557 -1.0032  0.1379 -0.2839
  280MOL0     C36868   1.980   4.977  -0.657 -0.4131  0.4683  0.1011
  280MOL0     C36869   1.940   4.908  -0.791  0.2318 -0.0101  0.0902
  280MOL0     C36870   1.924   5.017  -0.899  0.7376  0.8956 -0.8060
  280MOL0     C36871   1.872   4.971  -1.041  0.0412  0.0635 -0.0926
  280MOL0    Cl36872   1.956   4.820  -1.083 -0.0598 -0.2588  0.4594
  280MOL0     C36873   2.423   4.567  -0.276 -0.1250 -0.3831  0.6695
  280MOL0     C36874   2.528   4.587  -0.186  0.5805 -0.1300  0.5956
  280MOL0     O36875   2.933   4.608  -0.280  0.2038 -0.0984 -0.3232
  280MOL0     C36876   3.113   4.553  -0.079  0.0406 -0.7018 -0.3831
  280MOL0     C36877   3.199   4.541   0.026 -0.4383 -0.0773  0.1469
  280MOL0     N36878   3.726   4.223  -0.092  0.2492  0.6471 -0.0013
  280MOL0     N36879   3.855   4.200  -0.103  0.5491  0.6015  0.7134
  280MOL0     C36880   5.171   4.397   0.234 -0.2868  0.1971 -0.4934
  280MOL0     C36881   5.296   4.386   0.168 -0.3150  0.3181 -0.2262
  280MOL0     C36882   5.647   4.176   0.005  0.3386  0.1570 -0.3920
  280MOL0     C36883   5.731   4.073   0.052  1.0806 -0.2597  0.1251
  280MOL0     C36884   5.861   4.062   0.003 -0.1315  0.5147 -0.6243
  280MOL0     C36885   5.917   4.166  -0.071 -0.5128  0.1224  0.1804
  280MOL0     O36886   6.052   4.152  -0.116  0.2288  0.3332  0.1048
  280MOL0     C36887   6.097   4.235  -0.219 -0.1953  0.8233 -0.8826
  280MOL0     C36888   6.214   4.169  -0.282  0.0106  0.5544  0.1626
  280MOL0     C36889   6.174   4.034  -0.332  0.0892  0.5662 -0.3642
  280MOL0     C36890   6.095   4.035  -0.462  0.0835 -0.0260 -0.9865
  280MOL0     C36891   6.170   4.040  -0.586  0.3970  0.4744  0.4706
  280MOL0     C36892   6.227   4.072  -0.683 -0.6123 -0.0769 -0.2521
  280MOL0     C36893   5.840   4.269  -0.110  0.7689  0.3825 -0.0593
  280MOL0     C36894   5.703   4.276  -0.076  0.8399  1.1423  0.6598
  280MOL0     H36895   5.205   4.190  -0.105 -0.8804 -0.3463  0.2600
  280MOL0     H36896   4.988   4.215   0.004  0.1558 -3.5486  2.0665
  280MOL0     H36897   4.775   4.257   0.181  0.2747  0.0970  0.6443
  280MOL0     H36898   4.844   4.364   0.065  1.7296 -5.9120 -0.4672
  280MOL0     H36899   4.768   4.561   0.178  0.3849  0.1356  0.6128
  280MOL0     H36900   4.747   4.492   0.332  0.3034  0.9288 -0.2033
  280MOL0     H36901   4.518   4.525   0.253 -2.9282 -0.6444 -2.9677
  280MOL0     H36902   4.551   4.358   0.258  2.6022 -0.3171 -0.1467
  280MOL0     H36903   4.581   4.520   0.010 -2.5824  0.6802 -1.1693
  280MOL0     H36904   4.559   4.334   0.024 -2.2445 -0.8272  2.0918
  280MOL0     H36905   4.355   4.475  -0.060 -4.4115 -4.2091 -0.0778
  280MOL0     H36906   4.350   4.542   0.096 -0.4566 -0.2219 -0.2947
  280MOL0     H36907   4.267   4.326   0.188 -0.0592  2.8876  0.7143
  280MOL0     H36908   4.322   4.242   0.043 -0.4952 -0.0119  1.5750
  280MOL0     H36909   4.098   4.437   0.064  3.1437  1.5111 -0.5447
  280MOL0     H36910   4.149   4.373  -0.089 -1.9890  0.7873 -0.1862
  280MOL0     H36911   4.076   4.171   0.134  0.2973  0.7090  1.4058
  280MOL0     H36912   4.104   4.145  -0.046 -1.6887  1.6091 -2.2744
  280MOL0     H36913   3.876   4.386   0.160  0.4948 -0.8926 -0.1309
  280MOL0     H36914   3.518   4.362  -0.015 -0.6962  0.4137 -0.0689
  280MOL0     H36915   3.606   4.474   0.100  2.1421  0.9249 -0.5420
  280MOL0     H36916   3.593   4.313   0.279 -1.9020 -0.7239  0.4563
  280MOL0     H36917   3.530   4.191   0.175 -0.1330  0.3619  1.2968
  280MOL0     H36918   3.316   4.314   0.123 -1.1653  2.7945  0.7311
  280MOL0     H36919   3.341   4.269   0.285 -1.7450 -1.4147 -2.1064
  280MOL0     H36920   3.425   4.546   0.176  1.9347  1.2134  1.7373
  280MOL0     H36921   3.422   4.496   0.341  0.1531  0.6310 -0.2719
  280MOL0     H36922   2.990   4.542   0.292 -0.9303  0.1389 -0.0656
  280MOL0     H36923   2.820   4.575   0.107  0.6225 -0.6449  1.8976
  280MOL0     H36924   2.760   4.658  -0.428 -0.5761  0.0456 -0.5546
  280MOL0     H36925   2.586   4.614  -0.573 -1.0148  0.1205 -0.0880
  280MOL0     H36926   2.191   4.476  -0.396  0.5603 -0.9586  0.1590
  280MOL0     H36927   2.143   4.492  -0.567  0.9198 -0.4751 -0.1739
  280MOL0     H36928   2.184   4.738  -0.393 -0.3882 -1.0570  1.3151
  280MOL0     H36929   2.020   4.660  -0.419  0.2425  2.2457 -1.3615
  280MOL0     H36930   2.057   4.696  -0.670  0.0082  0.2694 -0.3697
  280MOL0     H36931   2.200   4.798  -0.614 -1.0120  0.9073  0.0614
  280MOL0     H36932   1.925   4.822  -0.520 -1.6917  3.0347  2.2911
  280MOL0     H36933   2.056   4.928  -0.473 -2.8648  0.5604  0.3981
  280MOL0     H36934   2.072   5.029  -0.686  0.5079 -2.1484 -2.1264
  280MOL0     H36935   1.907   5.047  -0.615 -0.1827 -0.1790  1.6523
  280MOL0     H36936   1.849   4.847  -0.785  0.7874 -0.7590  1.4922
  280MOL0     H36937   2.028   4.853  -0.825  1.8110  2.3258  0.1232
  280MOL0     H36938   1.863   5.101  -0.865  0.1171  0.5870 -1.1244
  280MOL0     H36939   2.029   5.046  -0.909  1.6239 -0.8296  2.2125
  280MOL0     H36940   1.893   5.050  -1.113 -1.4148 -1.4831 -2.3913
  280MOL0     H36941   1.764   4.959  -1.054  0.1138  1.0393 -2.0006
  280MOL0     H36942   2.324   4.568  -0.232  0.0416 -2.0324  1.1766
  280MOL0     H36943   2.512   4.594  -0.079 -2.9627  2.8329  0.0636
  280MOL0     H36944   3.158   4.558  -0.178  1.2176  0.8686  0.1881
  280MOL0     H36945   3.304   4.533  -0.002  0.1068 -0.5969  2.1621
  280MOL0     H36946   5.161   4.443   0.332 -0.4016 -0.1752 -0.3281
  280MOL0     H36947   5.385   4.433   0.209  1.2943 -1.5776 -1.3708
  280MOL0     H36948   5.695   3.984   0.102 -2.2860 -0.1019 -1.7399
  280MOL0     H36949   5.910   3.966   0.014  2.5538  1.9323  1.0718
  280MOL0     H36950   6.127   4.333  -0.182  1.7036 -0.4810  1.3347
  280MOL0     H36951   6.015   4.235  -0.291 -4.3552 -1.8018  3.2430
  280MOL0     H36952   6.255   4.228  -0.364  0.1859  1.2753  0.7611
  280MOL0     H36953   6.287   4.157  -0.201 -3.2545 -2.2334  3.0627
  280MOL0     H36954   6.113   3.979  -0.260  1.0882  1.6692  1.4154
  280MOL0     H36955   6.262   3.970  -0.342 -1.2286 -1.5278  0.7637
  280MOL0     H36956   6.027   3.950  -0.452  0.0988 -0.2049 -2.1934
  280MOL0     H36957   6.032   4.124  -0.455 -1.1611 -1.0072  1.7805
  280MOL0     H36958   6.274   4.104  -0.774 -2.0142 -0.7086 -1.2412
  280MOL0     H36959   5.871   4.351  -0.173 -1.5298  1.5873  0.2832
  280MOL0     H36960   5.634   4.351  -0.114 -0.0071  0.2395  0.3683
  281MOL0     O36961   8.593   0.098  10.666  0.2968 -0.2231  0.1006
  281MOL0     C36962   8.575   0.182  10.583  0.9947 -0.5759  0.6118
  281MOL0     O36963   8.449   0.239  10.559 -0.0122 -0.4027 -0.0299
  281MOL0     C36964   8.335   0.194  10.607  0.7058 -0.0118 -0.5452
  281MOL0     C36965   8.237   0.287  10.640 -0.7321 -0.1271 -0.2468
  281MOL0     C36966   8.115   0.241  10.685 -0.1980  0.1796  0.0685
  281MOL0     C36967   8.084   0.104  10.673  0.7062  0.3672  1.2647
  281MOL0     O36968   7.956   0.057  10.692  0.0431 -0.1156 -0.2605
  281MOL0     C36969   7.863   0.135  10.776 -0.4374 -0.0096  0.0043
  281MOL0     C36970   7.743   0.044  10.822 -0.6105 -0.0672 -0.2946
  281MOL0     C36971   7.646   0.122  10.908  0.8170 -0.0859  0.0313
  281MOL0     C36972   7.522   0.028  10.935  0.4040  0.4685  0.1985
  281MOL0     C36973   7.426   0.090  11.035 -0.5855 -0.5338 -1.2971
  281MOL0     C36974   7.286   0.016  11.038  0.0485  0.2171 -0.1201
  281MOL0     C36975   7.190   0.063  10.928 -0.2719  0.0688 -0.5508
  281MOL0     C36976   7.069  -0.034  10.918  0.1935  0.3678 -0.3366
  281MOL0     N36977   6.995  -0.040  11.048  0.5762  0.6755  0.4743
  281MOL0     C36978   7.006  -0.144  11.141 -0.4114 -1.3340  1.2808
  281MOL0     C36979   6.914  -0.101  11.233  0.7711 -0.7613  0.6742
  281MOL0     C36980   6.893  -0.184  11.351 -0.3673  0.4261  0.2483
  281MOL0     C36981   6.801  -0.300  11.324  0.6712  0.5657 -1.0470
  281MOL0     C36982   6.716  -0.341  11.447 -0.4897 -0.2439  0.6252
  281MOL0     C36983   6.596  -0.252  11.477  0.3522  0.0491 -1.0493
  281MOL0     O36984   6.508  -0.322  11.554  0.0182  0.0082  0.0948
  281MOL0     C36985   6.380  -0.334  11.509  0.3296 -0.5064 -0.5103
  281MOL0     C36986   6.310  -0.227  11.447 -0.2962 -0.3995 -0.0637
  281MOL0     C36987   6.181  -0.242  11.422  0.2100 -0.4369 -0.6174
  281MOL0     C36988   6.115  -0.358  11.435  0.9779  0.6110 -0.2330
  281MOL0     C36989   5.962  -0.354  11.429 -0.4703 -0.6431  0.6595
  281MOL0     O36990   5.894  -0.224  11.431  0.4763  0.4527 -0.7895
  281MOL0     C36991   5.758  -0.216  11.440  0.4113  0.0265 -0.2164
  281MOL0     C36992   5.698  -0.110  11.376  0.4204 -0.3596 -0.3720
  281MOL0     C36993   5.555  -0.100  11.388 -0.2002  0.3910 -0.1388
  281MOL0     C36994   5.482  -0.185  11.477 -0.5247 -0.3599  0.7335
  281MOL0     O36995   5.354  -0.158  11.504  0.0149 -0.2290  0.1984
  281MOL0     C36996   5.264  -0.277  11.497  0.2996  0.5266  0.1886
  281MOL0     C36997   5.117  -0.222  11.491  0.2169  0.6702  0.0188
  281MOL0     C36998   5.073  -0.182  11.347 -0.0868  1.2851  0.0704
  281MOL0     C36999   4.924  -0.139  11.332 -0.2653  0.4102  0.1635
  281MOL0     C37000   4.890  -0.077  11.200  0.5027  0.8432 -0.1684
  281MOL0     C37001   4.740  -0.047  11.185 -0.5479 -0.2138 -0.5096
  281MOL0     C37002   4.704   0.010  11.043 -1.0329 -0.2888  0.1351
  281MOL0     C37003   4.561   0.051  11.031 -0.4476  0.3173 -0.3807
  281MOL0    Cl37004   4.467  -0.088  11.019  0.5324 -0.6027 -0.0197
  281MOL0     C37005   5.548  -0.289  11.536 -0.2533  0.2023  0.2463
  281MOL0     C37006   5.680  -0.307  11.512 -0.3470 -0.1962  0.9186
  281MOL0     O37007   5.910  -0.460  11.411 -0.6575  0.6939  0.1930
  281MOL0     C37008   6.186  -0.480  11.463  0.0097 -0.5619  0.6333
  281MOL0     C37009   6.313  -0.457  11.499  0.3236  0.0751 -1.3983
  281MOL0     N37010   6.855   0.022  11.202 -0.4237 -1.2845 -0.1390
  281MOL0     N37011   6.913   0.057  11.096  0.3281 -0.0464  0.0616
  281MOL0     C37012   8.183   0.016  10.639 -0.2120  0.4106  0.0065
  281MOL0     C37013   8.303   0.058  10.602 -0.0692  0.0315  0.0634
  281MOL0     C37014   8.674   0.210  10.479  0.4033 -0.6953 -0.6574
  281MOL0     C37015   8.800   0.146  10.484  0.2714 -0.4762 -0.1821
  281MOL0     C37016   8.891   0.176  10.386  0.1298 -0.2594 -0.8769
  281MOL0     C37017   8.870   0.260  10.282  1.0294 -0.1655  0.1663
  281MOL0     O37018   8.965   0.295  10.181  0.1360 -0.1942  0.2264
  281MOL0     C37019   9.070   0.384  10.229 -0.7058  0.0108 -0.0087
  281MOL0     C37020   9.193   0.314  10.289 -0.8189 -1.3476 -0.0068
  281MOL0     C37021   9.261   0.233  10.182 -0.7001  0.4999 -0.4381
  281MOL0     C37022   9.372   0.141  10.242 -0.0601 -0.2471 -0.2400
  281MOL0     C37023   9.501   0.200  10.231 -0.6333 -0.5811  0.1187
  281MOL0     C37024   9.615   0.250  10.235 -0.4414  0.7683  0.6403
  281MOL0     C37025   8.750   0.326  10.281  0.0999 -0.3310  0.2168
  281MOL0     C37026   8.659   0.304  10.381  0.3547 -0.0631 -0.3496
  281MOL0     H37027   8.262   0.392  10.630  1.7088 -0.6819 -0.5098
  281MOL0     H37028   8.038   0.307  10.724 -0.3337  0.2807 -0.3610
  281MOL0     H37029   7.823   0.221  10.723 -0.2575  0.5462  0.7613
  281MOL0     H37030   7.907   0.172  10.869  1.1171  2.7498 -1.7173
  281MOL0     H37031   7.786  -0.043  10.873 -0.3130 -1.0377 -2.0826
  281MOL0     H37032   7.685   0.011  10.736 -0.9859  1.4727 -0.6575
  281MOL0     H37033   7.615   0.211  10.852  1.4166  0.5592  0.6862
  281MOL0     H37034   7.677   0.166  11.003 -0.5499  0.7301  0.1333
  281MOL0     H37035   7.465   0.004  10.845 -1.3884 -0.6962  1.5678
  281MOL0     H37036   7.562  -0.068  10.969 -0.4156 -0.6967 -1.9339
  281MOL0     H37037   7.413   0.198  11.026 -1.9080 -0.7250 -1.8900
  281MOL0     H37038   7.464   0.077  11.137 -0.5139  0.1422 -1.2348
  281MOL0     H37039   7.240   0.031  11.136  0.6487 -2.5997  0.6930
  281MOL0     H37040   7.304  -0.091  11.028  0.7835  0.3389 -0.1999
  281MOL0     H37041   7.160   0.165  10.951  1.1892 -0.0474  2.3935
  281MOL0     H37042   7.251   0.048  10.839  1.2748  0.8043  0.3500
  281MOL0     H37043   7.109  -0.133  10.892 -0.1076  0.0157  0.5249
  281MOL0     H37044   7.000  -0.007  10.838 -2.4699 -2.5403  0.7862
  281MOL0     H37045   7.046  -0.241  11.112 -1.1789 -0.9599 -1.2596
  281MOL0     H37046   6.844  -0.120  11.424 -3.0294 -0.5855 -0.5404
  281MOL0     H37047   6.982  -0.230  11.396 -1.2818 -2.0757 -0.3158
  281MOL0     H37048   6.862  -0.384  11.289  3.2949  2.3391 -1.0377
  281MOL0     H37049   6.727  -0.277  11.247 -0.9889  3.0592  1.1081
  281MOL0     H37050   6.691  -0.443  11.419  2.1731 -0.0583 -3.1731
  281MOL0     H37051   6.780  -0.351  11.536  0.2132 -2.7349 -0.0938
  281MOL0     H37052   6.552  -0.226  11.380  1.2532  0.3761 -1.3860
  281MOL0     H37053   6.616  -0.156  11.525  1.1064  0.1054 -1.4452
  281MOL0     H37054   6.356  -0.129  11.441  0.5226 -0.7201  0.6765
  281MOL0     H37055   6.126  -0.149  11.410 -1.8163 -1.8521 -3.6476
  281MOL0     H37056   5.757  -0.044  11.313 -0.1494 -0.0964 -0.6391
  281MOL0     H37057   5.499  -0.045  11.314 -0.4751 -2.0302 -1.8614
  281MOL0     H37058   5.264  -0.333  11.591  2.0762 -0.4313 -0.3522
  281MOL0     H37059   5.273  -0.341  11.409 -2.8720 -0.0450  0.1566
  281MOL0     H37060   5.116  -0.133  11.554  0.7464  0.1996  0.7005
  281MOL0     H37061   5.046  -0.288  11.542  0.6205  0.1801 -0.0433
  281MOL0     H37062   5.078  -0.269  11.282  1.7544 -0.3535  2.2186
  281MOL0     H37063   5.142  -0.107  11.307  0.3820  0.8749  0.0974
  281MOL0     H37064   4.860  -0.228  11.344  0.9420 -0.3171  1.5862
  281MOL0     H37065   4.899  -0.072  11.415  0.6419 -1.2446  1.8483
  281MOL0     H37066   4.923  -0.159  11.136 -0.6109  0.1365  0.1333
  281MOL0     H37067   4.945   0.014  11.174  0.4688  0.9029 -0.0308
  281MOL0     H37068   4.695   0.031  11.248 -1.3201  0.8464 -2.3014
  281MOL0     H37069   4.681  -0.137  11.204 -2.2564  0.8949 -0.4194
  281MOL0     H37070   4.772   0.089  11.007  0.2712 -1.0684  0.8219
  281MOL0     H37071   4.719  -0.071  10.972 -2.6631  0.4298 -1.0852
  281MOL0     H37072   4.551   0.110  10.939 -0.3948  1.6893  0.4584
  281MOL0     H37073   4.535   0.115  11.116 -0.7087 -1.3429  0.8342
  281MOL0     H37074   5.506  -0.356  11.610  1.9069  0.2821  1.6383
  281MOL0     H37075   5.738  -0.370  11.578  1.0022 -1.3505 -1.2482
  281MOL0     H37076   6.144  -0.580  11.470 -3.3624  0.6482 -0.4442
  281MOL0     H37077   6.373  -0.542  11.530 -0.6173  0.4581  1.8316
  281MOL0     H37078   8.160  -0.090  10.645 -1.0540  0.6428  1.2286
  281MOL0     H37079   8.381  -0.013  10.578 -0.9435 -0.9374  0.0319
  281MOL0     H37080   8.824   0.079  10.566 -0.5760  0.7613  1.1300
  281MOL0     H37081   8.989   0.132  10.377  1.0851  1.4139  0.7162
  281MOL0     H37082   9.023   0.439  10.311  1.5652 -0.3158  1.6169
  281MOL0     H37083   9.115   0.462  10.166  0.6431 -0.6797  0.0629
  281MOL0     H37084   9.263   0.392  10.319  1.3830 -3.2910  0.1694
  281MOL0     H37085   9.169   0.259  10.380 -0.6110  2.1791  2.4085
  281MOL0     H37086   9.301   0.304  10.109  2.4663  0.8735  1.4409
  281MOL0     H37087   9.195   0.163  10.130  0.9596 -0.7748 -0.9122
  281MOL0     H37088   9.339   0.118  10.344 -2.1016  2.0719 -0.2721
  281MOL0     H37089   9.371   0.047  10.187  1.3093  0.1367 -0.9482
  281MOL0     H37090   9.705   0.307  10.223  0.3713 -0.3315  1.2986
  281MOL0     H37091   8.726   0.402  10.208  0.2653  0.5858  1.1049
  281MOL0     H37092   8.575   0.373  10.391  1.0920  1.1904 -2.1983
  282MOL0     O37093   0.242  10.189   8.226  0.3661  0.4279  0.1724
  282MOL0     C37094   0.242  10.309   8.195  0.1781  0.6154  0.3450
  282MOL0     O37095   0.132  10.379   8.172  0.5212 -0.1951 -0.4136
  282MOL0     C37096   0.027  10.384   8.266 -0.5360 -0.6057  0.3400
  282MOL0     C37097   0.025  10.316   8.388 -0.7204  0.9199 -0.2698
  282MOL0     C37098  -0.087  10.317   8.472 -0.4068  0.7408  0.4679
  282MOL0     C37099  -0.199  10.391   8.435 -0.4310  0.0211 -0.1968
  282MOL0     O37100  -0.303  10.366   8.522  0.4258 -0.4562  0.5699
  282MOL0     C37101  -0.436  10.403   8.473  0.0240 -0.2229 -0.4041
  282MOL0     C37102  -0.555  10.336   8.555 -0.1144 -0.2115  0.7403
  282MOL0     C37103  -0.678  10.405   8.522 -0.7903 -0.5489 -0.0881
  282MOL0     C37104  -0.781  10.327   8.607 -0.1816  1.7244 -0.4727
  282MOL0     C37105  -0.913  10.400   8.606 -1.4349  0.0047  0.2710
  282MOL0     C37106  -1.006  10.350   8.718  0.6312 -0.1393  0.1051
  282MOL0     C37107  -1.090  10.461   8.768 -0.0994  0.5492 -0.0048
  282MOL0     C37108  -1.167  10.558   8.675 -1.2239  0.6521 -0.1195
  282MOL0     N37109  -1.207  10.685   8.743  0.7137  0.3822  0.1024
  282MOL0     C37110  -1.336  10.718   8.760 -0.3201 -0.1353  0.3623
  282MOL0     C37111  -1.333  10.831   8.825 -0.5012  0.1795 -0.2433
  282MOL0     C37112  -1.451  10.932   8.849 -0.4545 -0.7580  0.4458
  282MOL0     C37113  -1.533  10.890   8.970 -0.3006 -0.5463 -0.1263
  282MOL0     C37114  -1.648  10.986   9.008  0.6688  1.0886 -0.2309
  282MOL0     C37115  -1.593  11.111   9.072  1.1066  0.9447 -0.2564
  282MOL0     O37116  -1.714  11.177   9.117  0.2255 -0.2035  0.0622
  282MOL0     C37117  -1.700  11.288   9.193 -0.6198  0.5216 -0.5892
  282MOL0     C37118  -1.583  11.349   9.237  0.3939  0.4780  0.2046
  282MOL0     C37119  -1.582  11.443   9.342  0.4627 -0.3634  1.0820
  282MOL0     C37120  -1.706  11.493   9.393 -0.9416  0.9631  0.1365
  282MOL0     C37121  -1.707  11.601   9.490 -0.5893  0.1194  0.1883
  282MOL0     O37122  -1.583  11.627   9.545  0.2146 -0.2583 -0.5316
  282MOL0     C37123  -1.565  11.670   9.678  0.3071 -0.3756 -0.5944
  282MOL0     C37124  -1.663  11.696   9.775  0.3263 -0.1280 -1.0576
  282MOL0     C37125  -1.629  11.727   9.903  0.2460  0.6500  0.1456
  282MOL0     C37126  -1.488  11.732   9.940  0.7618 -0.1049 -0.1920
  282MOL0     O37127  -1.466  11.754  10.077  0.3971 -0.9374 -0.0500
  282MOL0     C37128  -1.395  11.870  10.121 -0.4850  1.0710 -0.2444
  282MOL0     C37129  -1.452  11.933  10.245  0.5947 -0.0867 -0.4206
  282MOL0     C37130  -1.456  11.834  10.354 -0.3256 -0.4736 -0.2123
  282MOL0     C37131  -1.509  11.897  10.486  0.7550 -0.3858 -0.2381
  282MOL0     C37132  -1.661  11.902  10.471  0.2410 -0.5029  0.0686
  282MOL0     C37133  -1.728  11.942  10.604 -0.7806  0.3375 -0.5693
  282MOL0     C37134  -1.887  11.960  10.583  0.3006 -0.0295  0.8718
  282MOL0     C37135  -1.938  12.037  10.701 -1.1829  0.0266 -0.0331
  282MOL0    Cl37136  -2.110  12.061  10.700 -0.0699  0.0529 -0.0188
  282MOL0     C37137  -1.392  11.695   9.847 -0.3728  0.3683  0.1686
  282MOL0     C37138  -1.433  11.682   9.711 -1.6508 -0.0160 -0.5193
  282MOL0     O37139  -1.815  11.664   9.520 -0.3654 -0.2898  0.2009
  282MOL0     C37140  -1.825  11.434   9.350 -0.1219 -1.1942  0.6387
  282MOL0     C37141  -1.819  11.333   9.250 -0.5785  0.3114 -0.6851
  282MOL0     N37142  -1.201  10.867   8.850  0.0258  0.4119  0.3085
  282MOL0     N37143  -1.129  10.783   8.790  0.0732  0.0961 -0.3507
  282MOL0     C37144  -0.195  10.466   8.317 -0.6324  0.4003 -0.0086
  282MOL0     C37145  -0.081  10.463   8.234  0.3310  0.4407  0.2088
  282MOL0     C37146   0.374  10.359   8.152  0.0081 -0.1995  0.5273
  282MOL0     C37147   0.385  10.489   8.104  0.0113  0.4785 -0.5523
  282MOL0     C37148   0.502  10.531   8.044  0.3269 -0.1152  0.0565
  282MOL0     C37149   0.618  10.454   8.051 -0.6895  0.2111  0.4622
  282MOL0     O37150   0.742  10.504   8.026  0.1984  0.3075 -0.4739
  282MOL0     C37151   0.770  10.623   7.950 -0.3973 -0.4609 -0.5910
  282MOL0     C37152   0.926  10.636   7.926 -0.3081  0.2961 -0.0164
  282MOL0     C37153   0.973  10.549   7.819 -0.9514  0.1796  0.8134
  282MOL0     C37154   1.121  10.547   7.800 -0.2893  0.6503 -0.1359
  282MOL0     C37155   1.163  10.680   7.749 -1.0286 -0.0595 -0.1031
  282MOL0     C37156   1.186  10.793   7.702 -0.5756  0.5350 -0.4110
  282MOL0     C37157   0.613  10.325   8.100  0.1084  0.1036  0.6625
  282MOL0     C37158   0.494  10.278   8.156 -0.5949 -0.0136  0.2460
  282MOL0     H37159   0.105  10.248   8.416 -0.1348  1.2409 -1.1064
  282MOL0     H37160  -0.083  10.258   8.564 -1.0700  1.3873  0.9201
  282MOL0     H37161  -0.448  10.386   8.365  4.5733  1.1719 -1.3353
  282MOL0     H37162  -0.425  10.511   8.483 -0.2674 -0.2326  0.0385
  282MOL0     H37163  -0.525  10.342   8.660  0.8916  1.2756  0.4119
  282MOL0     H37164  -0.576  10.232   8.529  3.6140 -0.6998 -1.0251
  282MOL0     H37165  -0.701  10.397   8.416  0.2467  1.0915 -0.4601
  282MOL0     H37166  -0.672  10.508   8.557  0.0997 -1.3571  2.4268
  282MOL0     H37167  -0.789  10.224   8.571  0.7694  1.5347 -0.1674
  282MOL0     H37168  -0.751  10.329   8.712  1.0308 -3.5917 -0.4201
  282MOL0     H37169  -0.967  10.397   8.511 -2.2705  2.9116  0.5502
  282MOL0     H37170  -0.883  10.502   8.634 -1.2139  0.6602 -2.1501
  282MOL0     H37171  -0.953  10.314   8.808  0.7836  3.7416  1.7553
  282MOL0     H37172  -1.067  10.271   8.673 -1.8482  1.2262  0.9136
  282MOL0     H37173  -1.167  10.403   8.820 -2.7145  2.9776 -0.9196
  282MOL0     H37174  -1.037  10.519   8.844  1.1577 -1.4361  0.7156
  282MOL0     H37175  -1.251  10.505   8.630 -0.5221 -0.5660 -0.0569
  282MOL0     H37176  -1.104  10.599   8.596 -1.7737 -1.4501 -1.7560
  282MOL0     H37177  -1.420  10.654   8.737  0.5678 -0.7570 -1.3386
  282MOL0     H37178  -1.510  10.932   8.757 -1.3804 -1.5241  1.0138
  282MOL0     H37179  -1.401  11.028   8.867  0.8282 -1.1005 -1.0455
  282MOL0     H37180  -1.481  10.882   9.066 -0.9027  1.7443  0.4632
  282MOL0     H37181  -1.577  10.792   8.952 -1.7095  0.0154  0.0679
  282MOL0     H37182  -1.707  11.001   8.917  0.5523  1.6650 -0.0672
  282MOL0     H37183  -1.705  10.935   9.086  2.6977  2.0717  2.0373
  282MOL0     H37184  -1.539  11.171   8.998 -0.1958  2.5938  0.0733
  282MOL0     H37185  -1.535  11.091   9.163  0.9412  3.2014  0.4029
  282MOL0     H37186  -1.487  11.321   9.194 -0.6041 -1.2377 -1.0739
  282MOL0     H37187  -1.489  11.486   9.378  0.1577 -0.0340  1.4767
  282MOL0     H37188  -1.770  11.691   9.760  0.1849  0.9503 -0.4700
  282MOL0     H37189  -1.706  11.738   9.979  1.0600  1.1842  0.9209
  282MOL0     H37190  -1.390  11.945  10.042 -2.7440  2.7392  1.0865
  282MOL0     H37191  -1.295  11.830  10.142 -1.0576 -0.9459 -1.0208
  282MOL0     H37192  -1.554  11.965  10.224  0.0882 -1.7003 -0.5148
  282MOL0     H37193  -1.388  12.017  10.274 -0.7466  1.6775 -2.2820
  282MOL0     H37194  -1.356  11.791  10.367  1.9415  4.6035  2.5761
  282MOL0     H37195  -1.525  11.752  10.334  0.9056 -1.5741 -0.0530
  282MOL0     H37196  -1.486  11.833  10.572 -2.1508 -1.5827 -0.2561
  282MOL0     H37197  -1.466  11.994  10.514  2.6725 -1.5909  1.2902
  282MOL0     H37198  -1.694  11.798  10.458  2.3627 -1.7351  3.2109
  282MOL0     H37199  -1.706  11.961  10.391 -0.8688  3.2318  3.1598
  282MOL0     H37200  -1.679  12.034  10.637  0.7047  0.3959 -2.7609
  282MOL0     H37201  -1.715  11.860  10.676  0.9022  0.5909 -0.5534
  282MOL0     H37202  -1.899  12.015  10.490  0.9992 -0.2294  0.6606
  282MOL0     H37203  -1.928  11.858  10.583 -1.5211  0.6767  0.3162
  282MOL0     H37204  -1.885  12.132  10.708 -1.1292  0.0416 -0.6287
  282MOL0     H37205  -1.915  11.979  10.791  2.6738  1.8048  0.3287
  282MOL0     H37206  -1.287  11.698   9.874 -0.6277 -0.2391  1.3270
  282MOL0     H37207  -1.356  11.679   9.634  0.5647  1.4683  1.5015
  282MOL0     H37208  -1.925  11.462   9.380 -1.2903 -2.1894 -1.9730
  282MOL0     H37209  -1.909  11.283   9.216  0.4816 -1.1031 -1.4980
  282MOL0     H37210  -0.268  10.543   8.295  2.7077  3.1108 -2.8410
  282MOL0     H37211  -0.081  10.525   8.145 -1.0356 -0.5177 -0.5084
  282MOL0     H37212   0.300  10.556   8.105  0.8478  1.5775  0.2097
  282MOL0     H37213   0.503  10.631   8.002  0.2505  0.3160  1.0314
  282MOL0     H37214   0.756  10.705   8.020  1.5085 -0.7797  0.2313
  282MOL0     H37215   0.714  10.630   7.856  1.3796  0.3556 -1.6450
  282MOL0     H37216   0.960  10.738   7.906  2.7873  0.1101  3.1044
  282MOL0     H37217   0.975  10.597   8.016  3.7534  3.0185 -0.7869
  282MOL0     H37218   0.919  10.575   7.728  1.1332  0.1995 -0.4892
  282MOL0     H37219   0.948  10.446   7.845 -0.8716  0.6178  2.8237
  282MOL0     H37220   1.169  10.526   7.896 -4.3343  1.6218  2.3145
  282MOL0     H37221   1.147  10.463   7.734  2.1160  0.6333  0.7103
  282MOL0     H37222   1.211  10.882   7.649  0.2620  2.2400  2.5925
  282MOL0     H37223   0.706  10.269   8.095 -0.3398 -0.5646 -0.5557
  282MOL0     H37224   0.496  10.174   8.188  1.0941 -0.1760 -0.2852
  283MOL0     O37225   9.318   1.498   0.230  0.6356  0.3251  0.1793
  283MOL0     C37226   9.279   1.486   0.115  0.5364 -0.3722 -0.7336
  283MOL0     O37227   9.334   1.408   0.020 -0.1233  0.1643  0.0883
  283MOL0     C37228   9.414   1.300   0.067  0.2689 -0.1784  0.1745
  283MOL0     C37229   9.383   1.162   0.044 -0.3151 -0.8885 -0.4018
  283MOL0     C37230   9.472   1.068   0.090  0.0432  0.3473  0.0239
  283MOL0     C37231   9.586   1.093   0.158 -1.0482  0.2322 -0.4328
  283MOL0     O37232   9.666   0.987   0.190  0.1745 -0.4370 -0.3841
  283MOL0     C37233   9.806   0.993   0.153 -0.7859 -0.1741 -0.0003
  283MOL0     C37234   9.872   0.852   0.166 -0.1381  0.1081  0.6374
  283MOL0     C37235  10.021   0.863   0.129  0.6955 -0.4598 -0.0728
  283MOL0     C37236  10.107   0.745   0.180  0.0274 -0.4003 -0.0254
  283MOL0     C37237  10.164   0.758   0.323  0.2380  0.6111 -1.2610
  283MOL0     C37238  10.078   0.759   0.455 -0.4532  0.0611  0.1725
  283MOL0     C37239  10.161   0.755   0.578  1.0045 -0.1585 -0.9596
  283MOL0     C37240  10.069   0.742   0.702 -0.0341  0.1289  0.5622
  283MOL0     N37241   9.975   0.626   0.700 -0.0495 -0.3553 -0.1870
  283MOL0     C37242   9.998   0.490   0.708 -0.0815 -0.0838  0.6789
  283MOL0     C37243   9.876   0.431   0.689  0.0735 -0.9321  0.4115
  283MOL0     C37244   9.836   0.288   0.691 -0.0007 -0.4874  0.2962
  283MOL0     C37245   9.715   0.274   0.794  0.8012 -0.5483 -0.2001
  283MOL0     C37246   9.702   0.123   0.827  1.4142 -0.7261  0.3208
  283MOL0     C37247   9.573   0.065   0.776 -0.2927  0.0721  1.0452
  283MOL0     O37248   9.470   0.123   0.855  0.2051 -0.1067  0.3340
  283MOL0     C37249   9.340   0.128   0.809 -0.4660 -0.1879  0.1327
  283MOL0     C37250   9.282   0.061   0.701 -0.4796  0.0954 -0.7960
  283MOL0     C37251   9.157   0.072   0.666 -0.0155 -0.7454  0.1180
  283MOL0     C37252   9.068   0.156   0.738  0.7478  0.0023  0.4704
  283MOL0     C37253   8.922   0.159   0.699 -0.3024  0.4100  0.0991
  283MOL0     O37254   8.839   0.199   0.799 -0.2993  0.8344  0.3503
  283MOL0     C37255   8.702   0.217   0.786  0.4162  0.3041  0.1218
  283MOL0     C37256   8.651   0.331   0.725  0.1705  0.2104 -0.5018
  283MOL0     C37257   8.512   0.358   0.701 -0.0839  0.6338  0.4121
  283MOL0     C37258   8.416   0.256   0.729 -0.5090 -0.0752  0.4427
  283MOL0     O37259   8.280   0.257   0.721 -0.1187 -0.3452  0.1405
  283MOL0     C37260   8.205   0.341   0.632 -0.3146 -0.3683  0.5048
  283MOL0     C37261   8.183   0.472   0.712  0.0884 -0.1165 -0.7464
  283MOL0     C37262   8.066   0.545   0.651 -0.6330 -0.3764  0.3016
  283MOL0     C37263   8.029   0.673   0.722 -0.3426  0.2763  0.2354
  283MOL0     C37264   7.899   0.723   0.657  0.1592  0.3593  0.0931
  283MOL0     C37265   7.815   0.794   0.762  0.2540  0.9881  0.5577
  283MOL0     C37266   7.723   0.898   0.697  0.0583  0.5407  0.2822
  283MOL0     C37267   7.609   0.936   0.788  0.5860 -0.0074 -0.2921
  283MOL0    Cl37268   7.505   1.060   0.701 -0.2564 -0.1281  0.0130
  283MOL0     C37269   8.466   0.154   0.812 -1.0676  0.2204  0.7576
  283MOL0     C37270   8.607   0.125   0.833  0.1260  0.4852  0.2795
  283MOL0     O37271   8.886   0.125   0.589  0.1171 -0.1987  0.6207
  283MOL0     C37272   9.114   0.228   0.854  0.1721  0.4333 -0.5644
  283MOL0     C37273   9.253   0.210   0.883  0.0770 -0.0751 -0.2247
  283MOL0     N37274   9.790   0.540   0.662 -0.1527  0.5561 -0.1580
  283MOL0     N37275   9.851   0.647   0.669  0.7945  0.5858 -0.2949
  283MOL0     C37276   9.621   1.229   0.188 -0.9959 -0.5649  0.0307
  283MOL0     C37277   9.534   1.329   0.138 -0.7988  0.3194  0.5810
  283MOL0     C37278   9.164   1.567   0.085  0.7728 -0.5301 -0.2279
  283MOL0     C37279   9.094   1.641   0.185  0.5364 -0.1668  0.3159
  283MOL0     C37280   8.992   1.729   0.153 -0.0248  0.0327 -0.5030
  283MOL0     C37281   8.955   1.746   0.016 -0.5155 -0.9014  0.3946
  283MOL0     O37282   8.862   1.829  -0.037  1.1566  0.0709  0.4687
  283MOL0     C37283   8.756   1.885   0.045  0.3503 -0.7306  0.2885
  283MOL0     C37284   8.625   1.909  -0.027 -0.4317 -0.4760  0.1158
  283MOL0     C37285   8.555   1.794  -0.104 -0.0284 -0.5149  0.4420
  283MOL0     C37286   8.433   1.843  -0.188  0.5787  1.1533  0.3902
  283MOL0     C37287   8.319   1.873  -0.107 -0.0252 -0.0013  0.1346
  283MOL0     C37288   8.216   1.908  -0.058  0.0805 -0.2883  0.2333
  283MOL0     C37289   9.021   1.675  -0.082 -0.0020 -0.4452  0.3017
  283MOL0     C37290   9.122   1.587  -0.048  0.2456  1.1214 -0.0641
  283MOL0     H37291   9.310   1.135  -0.032 -0.7198  0.5042 -0.5300
  283MOL0     H37292   9.427   0.972   0.068 -0.0736  0.5977 -0.8583
  283MOL0     H37293   9.855   1.065   0.219 -2.1625  0.5186  0.3146
  283MOL0     H37294   9.806   1.028   0.050 -0.4685  2.2345  0.7777
  283MOL0     H37295   9.828   0.772   0.106 -2.6002  0.3067  2.0308
  283MOL0     H37296   9.863   0.820   0.270  0.1794  3.0711  1.6571
  283MOL0     H37297  10.062   0.961   0.157 -0.1420  0.3807 -1.6200
  283MOL0     H37298  10.036   0.846   0.022  2.4031 -2.3672  0.3978
  283MOL0     H37299  10.047   0.656   0.160  0.6734 -0.8679  0.0856
  283MOL0     H37300  10.191   0.719   0.114 -0.0925 -3.1528  0.7808
  283MOL0     H37301  10.227   0.846   0.337  1.5189 -0.0572 -2.6135
  283MOL0     H37302  10.226   0.669   0.329  0.3827  0.8018  0.6916
  283MOL0     H37303  10.003   0.679   0.452 -0.8458  0.3583  1.5732
  283MOL0     H37304  10.017   0.849   0.450 -0.8953 -0.2584 -0.4813
  283MOL0     H37305  10.239   0.678   0.589  0.1179 -0.7034  2.6779
  283MOL0     H37306  10.219   0.848   0.588  1.4943 -0.5854  0.2548
  283MOL0     H37307  10.020   0.836   0.728 -0.3865  0.1698 -0.2129
  283MOL0     H37308  10.133   0.707   0.784 -1.2364 -2.1671  0.6183
  283MOL0     H37309  10.095   0.440   0.707 -0.2137 -0.4510  2.6297
  283MOL0     H37310   9.919   0.226   0.726 -2.1666 -3.3030  0.8171
  283MOL0     H37311   9.808   0.264   0.588  3.2808 -0.9381 -0.5962
  283MOL0     H37312   9.623   0.327   0.769  1.1994  0.2470 -0.0105
  283MOL0     H37313   9.745   0.318   0.890 -1.1605  0.2689  0.0858
  283MOL0     H37314   9.785   0.075   0.774  0.4535 -1.5389 -0.4812
  283MOL0     H37315   9.710   0.123   0.936  2.1664  0.1501  0.2765
  283MOL0     H37316   9.565  -0.043   0.793 -0.4317  0.0827  1.0469
  283MOL0     H37317   9.562   0.092   0.671 -1.5695  1.3997  1.4875
  283MOL0     H37318   9.337  -0.013   0.644 -0.9196  0.4691 -1.7327
  283MOL0     H37319   9.115   0.012   0.585  0.0781 -1.2983  0.4750
  283MOL0     H37320   8.731   0.399   0.698  1.7505 -0.9354  1.0051
  283MOL0     H37321   8.482   0.450   0.652  4.3189  0.8378 -2.5162
  283MOL0     H37322   8.116   0.293   0.591 -0.0886 -0.0817 -0.3509
  283MOL0     H37323   8.272   0.359   0.547  0.1360 -3.1932  0.1438
  283MOL0     H37324   8.273   0.534   0.718  0.9841 -1.4759  0.4551
  283MOL0     H37325   8.161   0.461   0.818  0.0052 -1.2892 -0.8756
  283MOL0     H37326   7.989   0.468   0.662  0.7430 -1.4769  3.0425
  283MOL0     H37327   8.096   0.571   0.549  1.4631  1.4043  1.2949
  283MOL0     H37328   8.009   0.637   0.824 -5.8200 -1.2368 -1.0268
  283MOL0     H37329   8.100   0.756   0.725  0.3524 -0.2949 -0.0156
  283MOL0     H37330   7.839   0.647   0.606 -1.6851  1.6693  0.2044
  283MOL0     H37331   7.922   0.793   0.577  0.5793  2.2955  1.8377
  283MOL0     H37332   7.884   0.853   0.824 -1.3918  3.1180  0.4909
  283MOL0     H37333   7.758   0.723   0.822 -0.2806 -0.0678 -1.1464
  283MOL0     H37334   7.786   0.986   0.677 -1.9097  1.4870 -2.2613
  283MOL0     H37335   7.698   0.859   0.598  2.2471 -0.7932  0.1850
  283MOL0     H37336   7.647   0.974   0.883 -1.1797 -0.7729  0.7647
  283MOL0     H37337   7.537   0.855   0.803  2.1564 -1.7363 -1.6445
  283MOL0     H37338   8.394   0.078   0.840 -1.3326 -0.2451 -1.0781
  283MOL0     H37339   8.642   0.036   0.885  2.1162 -0.3342 -2.2285
  283MOL0     H37340   9.058   0.301   0.910  0.2751 -1.5381  2.3107
  283MOL0     H37341   9.292   0.262   0.970 -1.4734  0.8041 -0.0183
  283MOL0     H37342   9.703   1.262   0.251 -1.5606  1.0734 -0.0260
  283MOL0     H37343   9.554   1.435   0.133 -0.5142  0.3059  1.3954
  283MOL0     H37344   9.123   1.617   0.287  1.0266 -0.0693  0.2026
  283MOL0     H37345   8.945   1.783   0.234  2.6873  1.3302  0.3274
  283MOL0     H37346   8.797   1.974   0.094 -1.5465  0.3166  0.0894
  283MOL0     H37347   8.742   1.824   0.134  0.2054  0.2515  0.9548
  283MOL0     H37348   8.562   1.966   0.043 -1.0563 -2.2369  1.0473
  283MOL0     H37349   8.654   1.986  -0.100 -1.9433 -0.7035 -0.7815
  283MOL0     H37350   8.527   1.716  -0.032 -3.4628 -2.4555 -2.6555
  283MOL0     H37351   8.627   1.756  -0.177  1.0269  1.3689  0.4431
  283MOL0     H37352   8.450   1.935  -0.245  2.7027  1.4586  1.4279
  283MOL0     H37353   8.403   1.766  -0.259 -1.2946  1.5244  0.7199
  283MOL0     H37354   8.129   1.916   0.004  1.3742  1.8380  1.9111
  283MOL0     H37355   8.996   1.687  -0.187 -0.3514  1.9123  0.6144
  283MOL0     H37356   9.171   1.529  -0.125 -1.1917  0.4011 -0.4712
  284MOL0     O37357   5.024   0.679   9.968 -0.5028  0.5381 -0.7197
  284MOL0     C37358   5.051   0.795   9.949  0.1101 -0.7097  1.4008
  284MOL0     O37359   4.973   0.903   9.992  0.0061 -0.4356 -0.1238
  284MOL0     C37360   4.845   0.895  10.042  0.4089 -0.0490  1.0782
  284MOL0     C37361   4.796   1.021  10.089  0.0656 -0.2484 -0.2582
  284MOL0     C37362   4.662   1.029  10.134  0.0585  0.0385  0.0973
  284MOL0     C37363   4.587   0.911  10.150 -0.0604  0.2137 -0.5873
  284MOL0     O37364   4.458   0.924  10.197 -0.4200 -0.2088 -0.1061
  284MOL0     C37365   4.350   0.860  10.130 -0.4759 -0.4355 -0.4323
  284MOL0     C37366   4.230   0.864  10.229  0.5558  0.2309 -0.1308
  284MOL0     C37367   4.104   0.811  10.165 -0.0283 -0.4480  0.7062
  284MOL0     C37368   3.978   0.871  10.235  0.4015 -0.0385  0.2163
  284MOL0     C37369   3.850   0.821  10.176 -0.1735  0.8554  0.1729
  284MOL0     C37370   3.736   0.865  10.271 -0.8888  0.4772 -0.9531
  284MOL0     C37371   3.690   1.007  10.242 -0.0550 -0.2830  0.8005
  284MOL0     C37372   3.579   1.057  10.327  0.3891 -0.2305  0.6849
  284MOL0     N37373   3.450   0.990  10.318 -0.5502  0.1122 -0.3547
  284MOL0     C37374   3.332   1.047  10.273 -0.7851  0.7986 -0.4746
  284MOL0     C37375   3.235   0.955  10.300  0.5147  0.1285 -0.2200
  284MOL0     C37376   3.089   0.992  10.274 -0.2693 -0.8146  0.2004
  284MOL0     C37377   2.988   0.918  10.361  0.2921  0.8487 -0.8413
  284MOL0     C37378   2.999   0.765  10.337 -0.3974 -0.0745  0.4604
  284MOL0     C37379   2.897   0.678  10.395  0.5898 -0.1339 -1.0720
  284MOL0     O37380   2.761   0.726  10.368 -0.5626 -0.2864  0.1713
  284MOL0     C37381   2.657   0.658  10.431  0.5858 -1.0107 -0.6325
  284MOL0     C37382   2.667   0.587  10.553  0.4060  0.0582 -0.1150
  284MOL0     C37383   2.548   0.527  10.606 -0.0053  0.2014  0.2475
  284MOL0     C37384   2.426   0.535  10.541 -0.1491  0.1923  0.7964
  284MOL0     C37385   2.304   0.478  10.607  0.1192  0.1176  0.1458
  284MOL0     O37386   2.187   0.511  10.549  0.6204  0.0071 -0.6931
  284MOL0     C37387   2.078   0.497  10.630  0.4996 -0.1842  0.2466
  284MOL0     C37388   2.015   0.615  10.678 -0.1521  0.3018  0.0085
  284MOL0     C37389   1.910   0.610  10.770  0.1486 -0.3059  0.1802
  284MOL0     C37390   1.858   0.482  10.795  1.1206 -0.4260  0.4828
  284MOL0     O37391   1.753   0.472  10.880  0.4861 -0.7144 -0.6957
  284MOL0     C37392   1.677   0.591  10.916 -0.4446  0.1744 -0.3280
  284MOL0     C37393   1.552   0.562  10.997 -0.4978  0.0850 -0.3570
  284MOL0     C37394   1.474   0.687  11.029  0.1652 -0.8037 -0.1992
  284MOL0     C37395   1.361   0.663  11.119  0.5530 -0.3654  0.5721
  284MOL0     C37396   1.276   0.784  11.135  0.1408  0.0836 -0.3234
  284MOL0     C37397   1.350   0.898  11.202 -0.6529 -0.4965 -0.0217
  284MOL0     C37398   1.268   1.017  11.256 -0.0613 -1.0439  0.1725
  284MOL0     C37399   1.155   1.070  11.169 -0.4761 -0.1659 -0.8403
  284MOL0    Cl37400   1.117   1.231  11.239 -0.1142  0.1551 -0.3418
  284MOL0     C37401   1.911   0.364  10.747  0.4336  0.0600  0.1454
  284MOL0     C37402   2.023   0.372  10.669 -0.2887  0.5445  0.2828
  284MOL0     O37403   2.318   0.405  10.708  0.3833  0.2566  0.4490
  284MOL0     C37404   2.420   0.604  10.420  0.0504 -0.5528 -0.5112
  284MOL0     C37405   2.531   0.669  10.369  0.6441 -0.5131  0.8256
  284MOL0     N37406   3.300   0.845  10.359 -0.2400  0.4480  0.0820
  284MOL0     N37407   3.428   0.867  10.373  0.3999 -0.0361  0.2949
  284MOL0     C37408   4.638   0.782  10.117 -0.3099  0.2342  0.7689
  284MOL0     C37409   4.765   0.772  10.058 -1.0296 -0.1330  0.1926
  284MOL0     C37410   5.177   0.825   9.883  0.5068  0.0291 -0.9730
  284MOL0     C37411   5.277   0.724   9.860  0.0855  0.2230 -0.1195
  284MOL0     C37412   5.384   0.755   9.776 -0.1421 -0.6854 -0.3074
  284MOL0     C37413   5.399   0.887   9.732 -1.0817  0.0601  0.2778
  284MOL0     O37414   5.500   0.928   9.649  0.1694  0.5070  0.3799
  284MOL0     C37415   5.616   0.853   9.628 -0.0797  0.5269 -0.0259
  284MOL0     C37416   5.723   0.926   9.544  0.5854  0.2328 -0.5122
  284MOL0     C37417   5.671   1.009   9.436  0.8883  0.0711  0.7152
  284MOL0     C37418   5.782   1.070   9.349 -0.0745  0.0354 -0.2002
  284MOL0     C37419   5.729   1.110   9.218  0.2634 -1.1656 -0.6191
  284MOL0     C37420   5.676   1.151   9.120  0.0837  0.0810 -1.1057
  284MOL0     C37421   5.306   0.989   9.765 -0.3184 -0.3683  0.4686
  284MOL0     C37422   5.197   0.960   9.838  0.7505  0.1853 -0.9209
  284MOL0     H37423   4.845   1.116  10.078 -0.8740  0.2949  0.0830
  284MOL0     H37424   4.610   1.118  10.164 -1.1178 -1.0640  1.4635
  284MOL0     H37425   4.380   0.757  10.107 -0.8435 -0.0549 -2.8523
  284MOL0     H37426   4.335   0.916  10.037  0.8639  0.5264 -0.1094
  284MOL0     H37427   4.218   0.969  10.259  2.6988 -0.2099  2.5989
  284MOL0     H37428   4.259   0.801  10.313 -1.7688 -0.9610 -0.1216
  284MOL0     H37429   4.106   0.702  10.158  0.3900 -0.5215  1.7761
  284MOL0     H37430   4.105   0.844  10.060  2.5036  0.6597  1.0125
  284MOL0     H37431   3.981   0.863  10.344  0.3357  1.9865  0.3998
  284MOL0     H37432   3.980   0.980  10.231 -3.7314  0.1641 -0.7400
  284MOL0     H37433   3.865   0.714  10.160 -2.5283  0.2469  1.6366
  284MOL0     H37434   3.824   0.858  10.076 -2.7034  0.4901  0.6273
  284MOL0     H37435   3.773   0.859  10.374 -1.0773  2.2385 -0.7579
  284MOL0     H37436   3.659   0.788  10.268  1.1103 -1.8326  1.4841
  284MOL0     H37437   3.775   1.072  10.268  0.2382 -0.9391  1.5409
  284MOL0     H37438   3.669   1.022  10.136  1.2122  3.3132  0.9257
  284MOL0     H37439   3.549   1.162  10.318 -0.6818 -0.3819  2.1513
  284MOL0     H37440   3.623   1.042  10.426  0.6238 -3.6058  0.1729
  284MOL0     H37441   3.308   1.142  10.225 -1.1060  0.7210 -0.4742
  284MOL0     H37442   3.076   0.986  10.166  0.2639  0.4914  0.0434
  284MOL0     H37443   3.064   1.096  10.296 -3.1031 -1.2001 -0.8444
  284MOL0     H37444   2.886   0.952  10.338 -0.3018  1.0034  1.7033
  284MOL0     H37445   2.994   0.933  10.469 -3.0816  1.4671 -0.6469
  284MOL0     H37446   2.986   0.746  10.230  1.5247 -0.9095  0.3458
  284MOL0     H37447   3.096   0.733  10.375  0.0756  2.6116  1.7483
  284MOL0     H37448   2.912   0.674  10.504 -0.7110  0.5990 -0.8396
  284MOL0     H37449   2.911   0.580  10.347 -0.5903 -0.5831 -0.5427
  284MOL0     H37450   2.764   0.584  10.601  0.9467  1.7639 -1.0176
  284MOL0     H37451   2.548   0.480  10.704 -0.0083  0.5961  0.4389
  284MOL0     H37452   2.066   0.708  10.660  0.9087 -0.2820 -0.0922
  284MOL0     H37453   1.872   0.707  10.799  1.2852  0.1336  0.2541
  284MOL0     H37454   1.651   0.650  10.827 -1.8066  0.9213  0.5366
  284MOL0     H37455   1.748   0.644  10.981 -0.5587  0.6683 -0.6019
  284MOL0     H37456   1.571   0.520  11.096 -1.9958  0.2333  0.0193
  284MOL0     H37457   1.485   0.487  10.952  0.4955 -3.1740  3.1421
  284MOL0     H37458   1.442   0.740  10.939 -1.3861  1.9064  1.8015
  284MOL0     H37459   1.545   0.755  11.076 -0.1669 -0.7630  0.2529
  284MOL0     H37460   1.302   0.591  11.062  3.1449 -0.2722 -2.5390
  284MOL0     H37461   1.380   0.609  11.212 -2.4340 -3.2560 -0.3046
  284MOL0     H37462   1.189   0.762  11.198 -0.9129  2.8972 -0.6508
  284MOL0     H37463   1.239   0.829  11.043 -1.0875 -2.5723 -1.2012
  284MOL0     H37464   1.421   0.945  11.134 -0.7301  0.3620  0.4621
  284MOL0     H37465   1.405   0.878  11.294  0.8863 -1.3159 -1.0838
  284MOL0     H37466   1.223   0.983  11.349 -1.2502 -0.9852 -0.3686
  284MOL0     H37467   1.338   1.092  11.295 -2.0229  1.2153 -0.4076
  284MOL0     H37468   1.067   1.006  11.179  0.6432 -1.8446 -1.3930
  284MOL0     H37469   1.188   1.097  11.069  2.1992  3.1510  0.7129
  284MOL0     H37470   1.859   0.271  10.766 -2.7966  1.2316 -2.0858
  284MOL0     H37471   2.062   0.278  10.631 -2.1071  0.0911 -0.6079
  284MOL0     H37472   2.324   0.624  10.374  0.4283  3.7783  0.2050
  284MOL0     H37473   2.515   0.719  10.274  0.5713  0.1929  1.2098
  284MOL0     H37474   4.573   0.696  10.127  0.8124 -0.7615 -0.2876
  284MOL0     H37475   4.800   0.676  10.020  2.1557  1.4027 -1.1267
  284MOL0     H37476   5.273   0.619   9.888  0.3659 -0.1980 -1.5495
  284MOL0     H37477   5.447   0.674   9.742 -0.4954 -1.0647 -0.0697
  284MOL0     H37478   5.590   0.762   9.574  4.2888 -0.8718 -0.2155
  284MOL0     H37479   5.661   0.815   9.720 -0.8400 -1.7330 -0.5312
  284MOL0     H37480   5.778   1.000   9.603 -1.0113  0.2686  1.0107
  284MOL0     H37481   5.793   0.857   9.496 -1.2369 -0.3091 -2.5379
  284MOL0     H37482   5.606   1.083   9.483  0.2661 -0.1085  0.1550
  284MOL0     H37483   5.605   0.941   9.380  1.6698  0.4215 -0.6600
  284MOL0     H37484   5.805   1.164   9.401 -0.3285 -0.7620  1.4172
  284MOL0     H37485   5.876   1.017   9.332  0.5371  1.2854 -0.9111
  284MOL0     H37486   5.641   1.187   9.026  0.1426  0.2399 -1.0670
  284MOL0     H37487   5.303   1.082   9.709  0.2612 -1.2694 -1.1202
  284MOL0     H37488   5.116   1.030   9.858 -1.0068 -1.7995 -0.7357
  285MOL0     O37489   1.265   5.001   1.166 -1.2661  0.2228 -0.6472
  285MOL0     C37490   1.310   5.026   1.050  0.0525  0.2977 -0.3831
  285MOL0     O37491   1.226   5.042   0.937 -0.1929 -0.0576  0.0631
  285MOL0     C37492   1.096   4.997   0.961  0.8298 -0.4808 -0.7055
  285MOL0     C37493   1.073   4.857   0.942 -0.1542 -0.4425  0.4021
  285MOL0     C37494   0.942   4.819   0.953  0.7714  0.7615 -0.0410
  285MOL0     C37495   0.841   4.908   0.998  0.2036 -0.2884 -0.0062
  285MOL0     O37496   0.711   4.874   1.026  0.6125 -0.0522  0.3068
  285MOL0     C37497   0.664   4.749   0.980 -0.2897  0.8096 -0.3291
  285MOL0     C37498   0.529   4.734   1.037 -0.1523 -0.2046  0.1021
  285MOL0     C37499   0.464   4.604   0.995  0.5728 -0.0256 -0.5491
  285MOL0     C37500   0.333   4.581   1.074  0.2339 -0.5085 -0.6022
  285MOL0     C37501   0.213   4.674   1.038  0.1070 -0.0286  0.5260
  285MOL0     C37502   0.089   4.619   1.099  0.5036 -0.2333 -0.8406
  285MOL0     C37503   0.044   4.500   1.017 -0.1183  0.4676 -0.0425
  285MOL0     C37504  -0.079   4.434   1.085 -0.3628 -0.4089  0.5932
  285MOL0     N37505  -0.196   4.507   1.054  0.4038  0.1131  0.4644
  285MOL0     C37506  -0.273   4.586   1.145  0.4859 -0.0974 -0.0608
  285MOL0     C37507  -0.367   4.641   1.069 -0.1990  1.0389 -0.0658
  285MOL0     C37508  -0.471   4.736   1.127 -0.0508 -0.9973  0.4514
  285MOL0     C37509  -0.464   4.880   1.071 -0.3993  0.1213  0.3159
  285MOL0     C37510  -0.560   4.966   1.150 -1.3113  0.1236 -0.5437
  285MOL0     C37511  -0.707   4.954   1.095  0.0841 -0.0143  0.0808
  285MOL0     O37512  -0.800   5.039   1.165  0.4956  0.2548  0.5229
  285MOL0     C37513  -0.932   5.023   1.141  0.2491 -0.1856 -0.9036
  285MOL0     C37514  -1.001   5.121   1.202 -0.2935  0.1402 -0.5445
  285MOL0     C37515  -1.141   5.110   1.219 -0.1778 -0.1079 -0.7302
  285MOL0     C37516  -1.204   4.995   1.170 -0.5633 -0.3265  0.2693
  285MOL0     C37517  -1.345   4.971   1.189  0.4608 -1.2199  0.1088
  285MOL0     O37518  -1.406   5.054   1.270 -0.1666  0.2548  0.9674
  285MOL0     C37519  -1.541   5.070   1.286 -0.4904 -0.2700 -0.3461
  285MOL0     C37520  -1.644   5.008   1.208 -0.8000 -0.5912  0.2478
  285MOL0     C37521  -1.775   5.031   1.237 -0.0311 -0.3708 -0.1138
  285MOL0     C37522  -1.821   5.118   1.330 -0.7948  0.0313  0.0430
  285MOL0     O37523  -1.950   5.108   1.355  0.4066 -0.0262 -0.1007
  285MOL0     C37524  -2.015   5.195   1.443  0.3740  0.6990 -0.8757
  285MOL0     C37525  -2.145   5.133   1.497 -0.2274  0.0118  0.5254
  285MOL0     C37526  -2.256   5.133   1.393  0.0280  0.3098  0.5151
  285MOL0     C37527  -2.397   5.095   1.449 -0.1338  0.2436 -0.4317
  285MOL0     C37528  -2.493   5.020   1.349  0.9640  0.3330 -0.0042
  285MOL0     C37529  -2.643   5.029   1.382 -0.2920 -0.4704  0.2901
  285MOL0     C37530  -2.718   4.957   1.271  0.1811 -0.3781 -0.3207
  285MOL0     C37531  -2.864   4.934   1.303  0.1222  0.0547 -0.5760
  285MOL0    Cl37532  -2.944   5.090   1.354  0.3283 -0.2370  0.0956
  285MOL0     C37533  -1.721   5.197   1.388 -0.9569 -0.8187  0.1628
  285MOL0     C37534  -1.586   5.173   1.368  0.1208  0.1634  0.2325
  285MOL0     O37535  -1.396   4.874   1.134 -0.7103  0.0991  0.1130
  285MOL0     C37536  -1.129   4.895   1.106 -0.1657 -0.0580  0.6106
  285MOL0     C37537  -0.989   4.903   1.097  0.5463 -0.0655  0.4416
  285MOL0     N37538  -0.347   4.614   0.932  0.0420 -0.5479  1.0291
  285MOL0     N37539  -0.253   4.524   0.927  0.6895  0.9555 -0.1358
  285MOL0     C37540   0.866   5.040   1.020  0.4087  0.3896 -0.3978
  285MOL0     C37541   0.995   5.090   0.998  0.7086  0.2934  0.1279
  285MOL0     C37542   1.453   5.050   1.032 -1.3866  0.3087 -0.0372
  285MOL0     C37543   1.496   5.130   0.924  0.3712 -0.4970 -0.3611
  285MOL0     C37544   1.633   5.160   0.907 -0.1710 -0.1685  0.8369
  285MOL0     C37545   1.731   5.104   0.985 -0.0407 -0.2725  0.2318
  285MOL0     O37546   1.863   5.132   0.966  0.3665  0.5427 -0.4685
  285MOL0     C37547   1.975   5.082   1.042  0.8494 -0.4451 -0.4504
  285MOL0     C37548   2.083   5.196   1.018  0.4343  0.3108 -0.6675
  285MOL0     C37549   2.201   5.168   1.118 -1.6989  0.8079 -0.4839
  285MOL0     C37550   2.329   5.253   1.093  0.9125 -0.1770 -0.4395
  285MOL0     C37551   2.453   5.194   1.141  0.6231 -0.4253  0.0629
  285MOL0     C37552   2.558   5.142   1.172 -0.2513 -0.0399  0.6787
  285MOL0     C37553   1.689   5.015   1.085 -1.1440 -0.2272  0.1500
  285MOL0     C37554   1.552   4.993   1.119 -0.2937 -0.0241  0.2845
  285MOL0     H37555   1.151   4.785   0.921 -2.0113 -2.8135  1.1401
  285MOL0     H37556   0.914   4.721   0.916  0.1772  1.8087 -2.5629
  285MOL0     H37557   0.736   4.674   1.013 -0.5855  0.9385  0.6250
  285MOL0     H37558   0.652   4.743   0.871 -1.8606  0.4002 -0.1605
  285MOL0     H37559   0.478   4.824   1.002 -0.5308 -0.3328  0.3134
  285MOL0     H37560   0.523   4.745   1.146 -1.8955 -1.2171  0.1385
  285MOL0     H37561   0.534   4.520   1.001 -0.3803 -0.6978  2.2547
  285MOL0     H37562   0.443   4.617   0.888 -1.9897  1.7048  0.0795
  285MOL0     H37563   0.306   4.475   1.086 -0.8300 -0.3162 -1.1843
  285MOL0     H37564   0.366   4.605   1.176  2.5365 -0.0721 -1.3873
  285MOL0     H37565   0.196   4.670   0.930 -0.0401 -1.0086  0.5811
  285MOL0     H37566   0.229   4.782   1.050 -1.7289  0.2377  0.9612
  285MOL0     H37567   0.000   4.683   1.099 -2.9916 -4.5239 -1.6723
  285MOL0     H37568   0.110   4.588   1.201 -0.9970 -1.4752 -0.8655
  285MOL0     H37569   0.015   4.518   0.913  2.4975 -0.8281 -1.0694
  285MOL0     H37570   0.122   4.424   1.009 -1.1064 -0.5792  0.0477
  285MOL0     H37571  -0.071   4.428   1.194  0.8301  1.3139  0.6595
  285MOL0     H37572  -0.086   4.333   1.044  1.4432 -0.5234  0.4805
  285MOL0     H37573  -0.271   4.602   1.252  0.7751 -0.2471 -0.0413
  285MOL0     H37574  -0.435   4.763   1.226 -0.6259 -1.7336  0.8715
  285MOL0     H37575  -0.574   4.699   1.123 -1.1659  1.7476 -4.6012
  285MOL0     H37576  -0.487   4.883   0.964  1.6317  0.1816 -0.1549
  285MOL0     H37577  -0.361   4.916   1.072 -0.4838  0.5011 -1.2945
  285MOL0     H37578  -0.547   4.954   1.258  1.5606  1.8565 -0.5907
  285MOL0     H37579  -0.552   5.074   1.134  2.1006 -0.0065 -0.5104
  285MOL0     H37580  -0.727   4.851   1.124  1.2582 -0.3058 -0.0822
  285MOL0     H37581  -0.727   4.969   0.989  3.0550  0.9938 -0.4391
  285MOL0     H37582  -0.940   5.200   1.243 -1.0977  0.7947 -0.5978
  285MOL0     H37583  -1.199   5.183   1.275  0.1615  0.7317 -1.4481
  285MOL0     H37584  -1.620   4.927   1.140  0.2658 -0.5914  0.6028
  285MOL0     H37585  -1.852   4.983   1.176 -1.8323  2.4980 -0.3273
  285MOL0     H37586  -2.047   5.285   1.390  0.3119  0.5654 -1.0705
  285MOL0     H37587  -1.944   5.232   1.517  1.1434 -0.8130 -0.8093
  285MOL0     H37588  -2.189   5.186   1.582  1.3918  0.0187  1.4147
  285MOL0     H37589  -2.124   5.036   1.544 -0.7079 -0.3328  0.0327
  285MOL0     H37590  -2.221   5.076   1.306 -1.9473  0.0434 -0.1647
  285MOL0     H37591  -2.266   5.234   1.352 -2.4653 -0.0690  0.0126
  285MOL0     H37592  -2.376   5.035   1.538  4.1682 -0.0543 -1.4043
  285MOL0     H37593  -2.448   5.185   1.483  2.8619  1.5584  0.9954
  285MOL0     H37594  -2.476   4.912   1.351 -2.0519 -0.2519  2.8398
  285MOL0     H37595  -2.469   5.059   1.250  1.0642  0.7810  0.1967
  285MOL0     H37596  -2.681   5.131   1.393  0.4457  0.0805 -1.7729
  285MOL0     H37597  -2.660   4.975   1.475 -1.8113  0.8929  0.8369
  285MOL0     H37598  -2.719   5.023   1.183 -0.4161 -0.7968 -0.6281
  285MOL0     H37599  -2.674   4.858   1.256 -0.5301 -0.6172 -0.8354
  285MOL0     H37600  -2.873   4.857   1.380 -0.5350 -1.2830 -1.9437
  285MOL0     H37601  -2.913   4.894   1.214  0.7941 -0.3531 -0.7729
  285MOL0     H37602  -1.748   5.270   1.464 -3.3775 -2.2947  0.8101
  285MOL0     H37603  -1.516   5.238   1.419  0.8928  0.7121 -1.4553
  285MOL0     H37604  -1.174   4.811   1.054 -2.4047  1.1319  0.5140
  285MOL0     H37605  -0.935   4.824   1.046 -0.4196 -0.6494  0.3025
  285MOL0     H37606   0.784   5.106   1.048  0.3959 -0.1316  0.8558
  285MOL0     H37607   0.993   5.196   1.019 -1.8919 -0.2783  3.5416
  285MOL0     H37608   1.423   5.182   0.862 -1.6667 -1.4347  1.1623
  285MOL0     H37609   1.659   5.223   0.823 -0.4525 -0.7381  0.3145
  285MOL0     H37610   2.007   4.982   1.012  1.5002 -0.7391  1.1582
  285MOL0     H37611   1.950   5.068   1.147 -1.4371 -0.6393 -0.9609
  285MOL0     H37612   2.112   5.201   0.913  1.2114  4.5281 -0.4316
  285MOL0     H37613   2.041   5.293   1.047  1.5612  0.8546 -0.7711
  285MOL0     H37614   2.235   5.064   1.109 -2.6258  0.2844  1.4557
  285MOL0     H37615   2.169   5.183   1.221  1.4357  0.5905  0.6425
  285MOL0     H37616   2.344   5.265   0.985  1.2785  1.0235 -0.2774
  285MOL0     H37617   2.325   5.356   1.130  1.7608 -0.6442  1.0336
  285MOL0     H37618   2.641   5.083   1.208  0.2725  0.5850  0.5049
  285MOL0     H37619   1.763   4.961   1.143  0.8704  1.9007 -0.3278
  285MOL0     H37620   1.523   4.930   1.202 -1.1000 -0.1825 -0.1086
  286MOL0     O37621  10.209   5.352   0.137 -0.2558 -0.5634  0.4371
  286MOL0     C37622  10.271   5.275   0.215  0.0669 -0.2718  0.7307
  286MOL0     O37623  10.224   5.217   0.327 -0.2258 -0.1182 -0.6150
  286MOL0     C37624  10.091   5.212   0.358 -1.0868 -1.0633 -0.1406
  286MOL0     C37625  10.015   5.328   0.380 -0.2575  0.9093  0.6380
  286MOL0     C37626   9.881   5.312   0.419 -0.2914  0.3874 -0.2111
  286MOL0     C37627   9.827   5.192   0.449  0.1022  0.0048  0.4529
  286MOL0     O37628   9.698   5.182   0.479 -0.2876 -0.6158  0.0130
  286MOL0     C37629   9.613   5.209   0.366 -0.0826  1.0786  0.3055
  286MOL0     C37630   9.470   5.212   0.420 -0.4002 -0.1334  0.2224
  286MOL0     C37631   9.359   5.249   0.317  0.2561  0.4526  0.3932
  286MOL0     C37632   9.213   5.270   0.377  0.1246 -0.7157  0.2932
  286MOL0     C37633   9.152   5.136   0.421 -0.6497 -0.1364 -0.6614
  286MOL0     C37634   9.003   5.151   0.432 -0.0213  0.3296  0.4823
  286MOL0     C37635   8.948   5.137   0.290 -0.2946 -0.3797  0.1767
  286MOL0     C37636   8.802   5.102   0.291  0.3571 -0.3157  0.3051
  286MOL0     N37637   8.763   4.968   0.329 -0.6609 -0.4378  0.8420
  286MOL0     C37638   8.723   4.875   0.237 -0.7474  0.0134 -1.4009
  286MOL0     C37639   8.661   4.789   0.320  0.5423  0.4633  0.5056
  286MOL0     C37640   8.576   4.672   0.267  0.2424 -1.1325  0.7845
  286MOL0     C37641   8.444   4.691   0.183 -0.3436 -0.6326 -0.0800
  286MOL0     C37642   8.423   4.559   0.105 -0.5353 -0.5577  0.2859
  286MOL0     C37643   8.284   4.547   0.048 -0.0100  0.1010 -0.0653
  286MOL0     O37644   8.304   4.508  -0.091  0.0907  0.3581  0.9476
  286MOL0     C37645   8.198   4.532  -0.169  0.0285 -0.0970 -1.4490
  286MOL0     C37646   8.106   4.434  -0.196 -0.2910  1.2115 -0.3141
  286MOL0     C37647   7.991   4.459  -0.276  0.0501 -0.1855 -0.0878
  286MOL0     C37648   7.968   4.589  -0.327 -0.5670 -0.6896 -0.8140
  286MOL0     C37649   7.852   4.622  -0.390  0.0865  0.1903  0.7519
  286MOL0     O37650   7.758   4.527  -0.406 -0.4249  0.8709 -0.2981
  286MOL0     C37651   7.631   4.570  -0.447 -0.1106  0.6923 -0.1670
  286MOL0     C37652   7.597   4.555  -0.585 -0.9003  0.2967 -0.4127
  286MOL0     C37653   7.473   4.599  -0.628 -0.4870  0.2305 -0.3181
  286MOL0     C37654   7.365   4.637  -0.543 -0.6117  0.3661  0.1589
  286MOL0     O37655   7.238   4.655  -0.599 -0.1457 -0.4614 -0.0191
  286MOL0     C37656   7.134   4.720  -0.519 -0.7991 -0.1604 -0.3820
  286MOL0     C37657   7.016   4.770  -0.600 -0.6334  0.0838 -0.2818
  286MOL0     C37658   6.932   4.655  -0.650  0.4096 -0.7984  0.0453
  286MOL0     C37659   6.864   4.683  -0.787  0.6555 -0.0726  1.2310
  286MOL0     C37660   6.774   4.568  -0.823 -0.4060  0.1685 -0.2314
  286MOL0     C37661   6.654   4.560  -0.739 -0.1639 -1.0890  0.2646
  286MOL0     C37662   6.543   4.475  -0.797 -0.3595 -0.4848 -0.2395
  286MOL0     C37663   6.424   4.467  -0.706 -0.1932  0.4749 -0.1968
  286MOL0    Cl37664   6.469   4.349  -0.583  0.1638  0.2647 -0.5321
  286MOL0     C37665   7.401   4.648  -0.410  0.9300 -0.2906  0.0141
  286MOL0     C37666   7.526   4.611  -0.364 -0.7938 -0.2987 -0.1418
  286MOL0     O37667   7.844   4.734  -0.428  0.5204 -0.4746 -0.2420
  286MOL0     C37668   8.063   4.689  -0.289  0.0257  0.1585  0.6955
  286MOL0     C37669   8.175   4.661  -0.217  0.3548  1.0069  0.1555
  286MOL0     N37670   8.667   4.822   0.453 -0.3885  0.1821 -0.5875
  286MOL0     N37671   8.729   4.932   0.452 -0.4880  0.3370 -0.8652
  286MOL0     C37672   9.904   5.077   0.446 -0.3947 -0.7528 -0.1622
  286MOL0     C37673  10.038   5.088   0.387 -0.3819 -0.4104 -0.6496
  286MOL0     C37674  10.407   5.227   0.170 -0.0418 -0.4273 -0.9333
  286MOL0     C37675  10.501   5.187   0.261 -0.2997  0.7352  0.1962
  286MOL0     C37676  10.631   5.156   0.228 -0.0572 -0.1770 -0.5339
  286MOL0     C37677  10.672   5.160   0.091 -0.3501  0.9532  0.9525
  286MOL0     O37678  10.804   5.137   0.056  0.2349 -0.0646 -0.6203
  286MOL0     C37679  10.813   5.038  -0.050  0.9438  0.0984  0.3709
  286MOL0     C37680  10.946   5.045  -0.130  1.0148  0.7385  0.1515
  286MOL0     C37681  10.985   5.168  -0.212 -0.0304  0.0301 -0.3004
  286MOL0     C37682  10.959   5.308  -0.159  0.0450  0.3360  0.1434
  286MOL0     C37683  11.051   5.344  -0.048  0.3062  0.2910  0.1451
  286MOL0     C37684  11.146   5.371   0.021  0.2993 -0.0761  0.6626
  286MOL0     C37685  10.579   5.206  -0.003  0.5640  1.0940  0.2827
  286MOL0     C37686  10.448   5.242   0.039  0.0577 -0.4981  1.0195
  286MOL0     H37687  10.049   5.430   0.363 -3.0615  2.3991  2.9127
  286MOL0     H37688   9.820   5.401   0.427  5.1399  4.5879  0.3235
  286MOL0     H37689   9.642   5.133   0.294  1.4072  3.0977 -1.3646
  286MOL0     H37690   9.622   5.307   0.317 -0.7206 -0.0447 -2.1748
  286MOL0     H37691   9.473   5.293   0.494 -2.2098  0.3226 -0.1568
  286MOL0     H37692   9.449   5.114   0.463 -0.2691 -0.7115 -1.0144
  286MOL0     H37693   9.347   5.175   0.238  0.6545  0.2763  0.4955
  286MOL0     H37694   9.394   5.340   0.266  0.3068 -1.3846 -3.1437
  286MOL0     H37695   9.218   5.337   0.463  1.6999  0.4437 -0.6480
  286MOL0     H37696   9.151   5.321   0.303  1.4507  3.6853  1.9432
  286MOL0     H37697   9.198   5.105   0.516 -1.3344 -0.0355 -0.2947
  286MOL0     H37698   9.172   5.055   0.351  2.7508  1.0643 -1.2527
  286MOL0     H37699   8.974   5.241   0.487 -0.2113 -0.5384  1.8318
  286MOL0     H37700   8.967   5.070   0.496  0.7504  1.0610  1.9033
  286MOL0     H37701   8.962   5.235   0.243 -0.1408  0.2643  1.4910
  286MOL0     H37702   8.990   5.056   0.231 -0.5527  0.5719 -1.3579
  286MOL0     H37703   8.753   5.116   0.194 -1.4026 -0.4082  1.1471
  286MOL0     H37704   8.769   5.183   0.357  1.7543 -0.1870  0.8871
  286MOL0     H37705   8.700   4.873   0.131 -0.6123 -0.5013 -1.4255
  286MOL0     H37706   8.544   4.614   0.354  0.9302  0.1273  1.9091
  286MOL0     H37707   8.640   4.610   0.204  0.3433 -1.6398  1.3727
  286MOL0     H37708   8.466   4.771   0.112  0.2562 -0.3366  0.4316
  286MOL0     H37709   8.360   4.727   0.241  1.1259  3.6568 -0.2766
  286MOL0     H37710   8.498   4.551   0.026 -0.6407  3.5857 -0.4743
  286MOL0     H37711   8.427   4.478   0.178  1.2611 -3.3529 -2.6926
  286MOL0     H37712   8.227   4.639   0.060  0.2344  0.1748  0.5494
  286MOL0     H37713   8.234   4.466   0.102 -1.5550  1.1209  0.0891
  286MOL0     H37714   8.136   4.339  -0.154  1.7526  0.7898 -2.4946
  286MOL0     H37715   7.929   4.373  -0.296  1.2900 -0.9095 -0.9841
  286MOL0     H37716   7.677   4.528  -0.653  0.6306 -0.2523  1.5394
  286MOL0     H37717   7.448   4.586  -0.733  1.3971  0.2048 -0.8038
  286MOL0     H37718   7.180   4.809  -0.476 -1.8518  0.3194 -0.2317
  286MOL0     H37719   7.107   4.648  -0.441 -1.0129  0.2598 -0.0624
  286MOL0     H37720   7.054   4.813  -0.692 -1.3310 -1.1388 -1.1767
  286MOL0     H37721   6.958   4.839  -0.538 -0.1651 -0.2954  0.6059
  286MOL0     H37722   6.859   4.628  -0.574 -2.2235  0.2320 -1.9490
  286MOL0     H37723   6.989   4.563  -0.669  2.9774  0.7715 -0.4255
  286MOL0     H37724   6.807   4.776  -0.790  2.2403  0.9248 -1.6686
  286MOL0     H37725   6.933   4.699  -0.871 -1.7354  2.0347 -0.4726
  286MOL0     H37726   6.828   4.474  -0.809  1.4378  1.5160  2.6531
  286MOL0     H37727   6.755   4.571  -0.931  0.8662 -1.7010 -0.5741
  286MOL0     H37728   6.621   4.663  -0.722 -1.3202 -1.5995  1.3215
  286MOL0     H37729   6.686   4.520  -0.642  0.5565 -0.6403  0.2184
  286MOL0     H37730   6.515   4.523  -0.891  1.6526 -0.1594 -0.7187
  286MOL0     H37731   6.589   4.382  -0.832  0.6129  0.2419 -0.9553
  286MOL0     H37732   6.350   4.430  -0.777 -0.1553 -0.5618  0.3003
  286MOL0     H37733   6.402   4.571  -0.680 -2.3399  1.2646 -4.3560
  286MOL0     H37734   7.336   4.701  -0.341 -1.2219  1.5180 -3.1803
  286MOL0     H37735   7.554   4.602  -0.260 -1.1566  3.1816  0.3568
  286MOL0     H37736   8.057   4.790  -0.327  1.8729 -0.5246 -1.7133
  286MOL0     H37737   8.239   4.745  -0.192 -0.7733  2.1012 -0.4693
  286MOL0     H37738   9.857   4.982   0.469 -0.1129  0.2703  6.3021
  286MOL0     H37739  10.096   4.998   0.368 -0.1687 -0.5390  0.5678
  286MOL0     H37740  10.473   5.166   0.364 -1.8268 -0.5117 -0.4258
  286MOL0     H37741  10.686   5.124   0.315 -2.2335 -0.8358  0.6837
  286MOL0     H37742  10.735   5.048  -0.125  1.9535  2.0887 -0.4883
  286MOL0     H37743  10.801   4.943   0.002 -3.3075  0.9575  1.3533
  286MOL0     H37744  11.030   5.023  -0.064  2.5483 -1.5130 -2.3740
  286MOL0     H37745  10.944   4.949  -0.183 -1.3906  1.2539 -0.8206
  286MOL0     H37746  10.936   5.167  -0.310 -3.7077  0.1480  1.3649
  286MOL0     H37747  11.090   5.157  -0.242 -0.1965  1.1706 -1.3582
  286MOL0     H37748  10.986   5.374  -0.242  0.3538  2.3986  1.7855
  286MOL0     H37749  10.853   5.313  -0.135 -0.4277  0.4933 -1.8054
  286MOL0     H37750  11.231   5.387   0.084  1.2369  3.5517 -1.2603
  286MOL0     H37751  10.611   5.251  -0.096 -0.4937  3.3515  0.9357
  286MOL0     H37752  10.383   5.289  -0.034  3.2983  0.1513 -1.6827
  287MOL0     O37753   3.973   9.868   9.608 -0.6957  0.1076 -0.0188
  287MOL0     C37754   3.959   9.806   9.716 -0.7215 -0.4935  0.1872
  287MOL0     O37755   3.860   9.818   9.806  0.3996 -0.6948 -0.3796
  287MOL0     C37756   3.763   9.914   9.782  0.4122 -0.3335  0.5250
  287MOL0     C37757   3.785  10.055   9.767  0.3520  0.4504  0.3051
  287MOL0     C37758   3.680  10.142   9.741  0.0084 -0.5185 -0.4333
  287MOL0     C37759   3.546  10.094   9.731 -0.1175 -0.5227  0.2319
  287MOL0     O37760   3.445  10.189   9.707 -0.1334  1.6633 -0.4328
  287MOL0     C37761   3.305  10.157   9.725 -0.0787  0.5166  0.4529
  287MOL0     C37762   3.239  10.272   9.660  0.1672 -0.0213 -0.2159
  287MOL0     C37763   3.095  10.263   9.665  0.7779  0.8780  0.3661
  287MOL0     C37764   3.033  10.391   9.641  1.1770 -0.4775  0.0495
  287MOL0     C37765   2.881  10.390   9.621  0.3977 -0.1653 -0.3207
  287MOL0     C37766   2.821  10.533   9.596 -0.1683 -0.6612 -0.5650
  287MOL0     C37767   2.673  10.543   9.629 -0.1631 -0.5064 -0.4591
  287MOL0     C37768   2.587  10.471   9.530 -0.4415  0.9034 -0.4215
  287MOL0     N37769   2.442  10.474   9.567  0.8555 -0.5854  0.2268
  287MOL0     C37770   2.367  10.589   9.559 -0.0395 -0.3945 -0.7427
  287MOL0     C37771   2.251  10.564   9.613  0.5708 -0.5215  0.3820
  287MOL0     C37772   2.134  10.656   9.642 -0.0197 -0.0164 -0.4494
  287MOL0     C37773   2.041  10.669   9.522 -1.0590  1.1249 -0.8001
  287MOL0     C37774   1.930  10.769   9.553 -0.4116 -0.3026 -0.0130
  287MOL0     C37775   1.821  10.773   9.449 -0.1248 -0.0302  0.1883
  287MOL0     O37776   1.742  10.659   9.468  0.2237  0.0550  0.3360
  287MOL0     C37777   1.605  10.673   9.444  0.2063 -0.1522 -0.5438
  287MOL0     C37778   1.545  10.580   9.363 -0.5790  0.1161  0.2532
  287MOL0     C37779   1.404  10.569   9.356  0.3233 -0.9744 -0.5449
  287MOL0     C37780   1.326  10.674   9.421 -0.2264 -0.0101 -0.4239
  287MOL0     C37781   1.178  10.672   9.421 -1.0898  0.9923  0.0364
  287MOL0     O37782   1.113  10.742   9.510  0.1866  0.2241  0.2624
  287MOL0     C37783   0.978  10.720   9.519  1.0771 -0.2161 -0.3322
  287MOL0     C37784   0.874  10.759   9.432 -1.4548 -1.0339 -0.5290
  287MOL0     C37785   0.741  10.720   9.457  0.2739  0.4888  0.1784
  287MOL0     C37786   0.705  10.666   9.579  0.3693  0.7728 -0.3779
  287MOL0     O37787   0.580  10.626   9.601 -0.5111 -0.1338  0.2969
  287MOL0     C37788   0.521  10.683   9.720 -0.5853 -1.1095  0.0468
  287MOL0     C37789   0.372  10.648   9.709 -0.8360 -0.3329 -0.6727
  287MOL0     C37790   0.307  10.719   9.821 -0.3765 -0.1794 -0.8694
  287MOL0     C37791   0.156  10.717   9.811  0.8892 -0.0233  0.4607
  287MOL0     C37792   0.105  10.841   9.878 -0.0697 -0.2948 -0.4547
  287MOL0     C37793  -0.045  10.847   9.911 -0.2450  0.3105 -0.3594
  287MOL0     C37794  -0.099  10.723   9.984 -0.8091 -0.6840 -0.3225
  287MOL0     C37795  -0.241  10.746  10.039 -0.3183 -1.3599  0.3795
  287MOL0    Cl37796  -0.336  10.608  10.084 -0.1059 -0.4198 -0.3119
  287MOL0     C37797   0.804  10.661   9.688  0.2192  0.0541 -0.2637
  287MOL0     C37798   0.938  10.679   9.650 -0.4366 -0.5625 -0.3276
  287MOL0     O37799   1.132  10.607   9.328  0.1423  0.2059  0.7622
  287MOL0     C37800   1.394  10.770   9.489  0.1504  0.0268 -0.9033
  287MOL0     C37801   1.530  10.776   9.504  0.2178  0.1292  0.1789
  287MOL0     N37802   2.248  10.426   9.640  0.1584 -0.5124 -0.7368
  287MOL0     N37803   2.365  10.372   9.608 -0.4181  0.5533  0.7519
  287MOL0     C37804   3.521   9.963   9.746 -0.0854  0.0038  0.4420
  287MOL0     C37805   3.631   9.879   9.783  0.5376  0.2862  0.6536
  287MOL0     C37806   4.077   9.726   9.758  0.5760 -0.0661 -0.5286
  287MOL0     C37807   4.200   9.737   9.683 -1.2139  0.0033 -0.0075
  287MOL0     C37808   4.314   9.667   9.721 -0.0626 -0.3721  0.3394
  287MOL0     C37809   4.303   9.595   9.844  0.1468 -0.2380 -0.0944
  287MOL0     O37810   4.404   9.542   9.912 -0.9172  0.2661  0.1430
  287MOL0     C37811   4.525   9.609   9.916  0.1843  1.0589 -0.2493
  287MOL0     C37812   4.517   9.743   9.977  0.1998 -0.7562 -0.4854
  287MOL0     C37813   4.656   9.815  10.005  0.1115  1.1249 -0.6452
  287MOL0     C37814   4.754   9.780   9.894 -0.3416 -0.7929  0.6265
  287MOL0     C37815   4.881   9.833   9.931  1.0490 -1.0692  0.0364
  287MOL0     C37816   4.991   9.885   9.960 -0.1662  0.8409 -0.6796
  287MOL0     C37817   4.187   9.585   9.907  0.6227 -0.0025 -0.6199
  287MOL0     C37818   4.068   9.650   9.867 -0.7384  0.5629 -0.0640
  287MOL0     H37819   3.888  10.086   9.762  0.4208 -0.0068 -3.1195
  287MOL0     H37820   3.702  10.247   9.723  2.0602 -0.4914  1.6822
  287MOL0     H37821   3.277  10.131   9.827 -1.1615  0.2129  0.0945
  287MOL0     H37822   3.279  10.072   9.661  2.8462 -0.5303  0.5049
  287MOL0     H37823   3.271  10.257   9.556  2.1233  0.3608  0.2791
  287MOL0     H37824   3.271  10.365   9.709  1.6839  0.3657 -1.8352
  287MOL0     H37825   3.062  10.224   9.762 -0.8770 -1.7085 -1.1139
  287MOL0     H37826   3.065  10.199   9.582 -0.1697 -0.7895  1.9189
  287MOL0     H37827   3.061  10.460   9.721 -2.1737 -1.7241  2.5454
  287MOL0     H37828   3.071  10.426   9.544  1.6558  2.1612  1.1119
  287MOL0     H37829   2.823  10.331   9.693 -2.1066 -1.4703 -3.2047
  287MOL0     H37830   2.859  10.331   9.531  3.7621  0.8155 -1.9369
  287MOL0     H37831   2.841  10.566   9.494  3.0616  0.8917  0.4324
  287MOL0     H37832   2.871  10.605   9.662 -1.6530 -0.4638  0.3965
  287MOL0     H37833   2.647  10.511   9.730 -0.5916 -2.4092 -1.1342
  287MOL0     H37834   2.625  10.641   9.622 -2.5928 -1.5314  0.7943
  287MOL0     H37835   2.627  10.369   9.523  0.3708  1.2370 -0.7480
  287MOL0     H37836   2.602  10.508   9.428 -1.6690 -5.2092 -3.2981
  287MOL0     H37837   2.387  10.685   9.514 -2.8436  1.5130  1.6552
  287MOL0     H37838   2.168  10.756   9.672  1.8529 -1.4058  2.4625
  287MOL0     H37839   2.077  10.610   9.723 -2.9528  0.7229 -1.9565
  287MOL0     H37840   2.003  10.571   9.493  2.3069 -0.7216  0.4358
  287MOL0     H37841   2.095  10.719   9.441  0.8469  0.8327  0.2233
  287MOL0     H37842   1.886  10.753   9.651 -2.0865  1.5885 -0.4046
  287MOL0     H37843   1.971  10.870   9.554 -2.1881  0.4411  0.9392
  287MOL0     H37844   1.859  10.761   9.348  2.0094  1.4734  0.7437
  287MOL0     H37845   1.769  10.870   9.448  0.8576  0.5027 -0.6998
  287MOL0     H37846   1.611  10.507   9.318 -0.3201  0.2314  0.4442
  287MOL0     H37847   1.362  10.487   9.298  0.2159 -1.1163 -0.2716
  287MOL0     H37848   0.891  10.824   9.347 -4.9357 -1.1792 -1.4993
  287MOL0     H37849   0.665  10.742   9.382  1.3525  1.1024 -0.7559
  287MOL0     H37850   0.525  10.792   9.731  1.0270 -1.2596  1.3634
  287MOL0     H37851   0.558  10.634   9.811 -1.8508 -3.3849 -0.5750
  287MOL0     H37852   0.352  10.541   9.706  1.0501 -0.8885  2.1539
  287MOL0     H37853   0.334  10.702   9.622 -1.6935 -0.8260 -0.6144
  287MOL0     H37854   0.347  10.821   9.822  2.7096 -1.2807  0.5707
  287MOL0     H37855   0.337  10.674   9.915 -0.5875 -1.3205 -1.3357
  287MOL0     H37856   0.120  10.714   9.708 -1.1261  3.2076  0.9293
  287MOL0     H37857   0.126  10.625   9.861  1.3289 -1.1431 -1.2676
  287MOL0     H37858   0.135  10.930   9.821  2.9098  0.3773  1.8867
  287MOL0     H37859   0.156  10.852   9.975  2.5848  1.5716 -1.9166
  287MOL0     H37860  -0.094  10.870   9.816 -2.1770  1.0915  0.7597
  287MOL0     H37861  -0.049  10.932   9.980  0.2505  1.6626 -1.9310
  287MOL0     H37862  -0.098  10.644   9.908  2.1791  1.1553 -2.4004
  287MOL0     H37863  -0.031  10.686  10.061  0.4911 -0.5906 -1.3949
  287MOL0     H37864  -0.294  10.803   9.962 -1.2602 -1.0303  1.2465
  287MOL0     H37865  -0.238  10.800  10.134 -0.9200 -0.3680 -0.1492
  287MOL0     H37866   0.770  10.635   9.787 -2.4035  0.4185 -0.9822
  287MOL0     H37867   1.011  10.660   9.727 -1.3829 -2.2974  0.1998
  287MOL0     H37868   1.344  10.858   9.528 -1.2256 -1.2839  0.3776
  287MOL0     H37869   1.578  10.855   9.560 -0.7330  0.2317  0.8740
  287MOL0     H37870   3.425   9.913   9.743  0.1571 -0.4618 -2.2898
  287MOL0     H37871   3.605   9.776   9.806  0.2070  0.1704 -0.1877
  287MOL0     H37872   4.219   9.799   9.596  1.2740 -0.9996 -0.2365
  287MOL0     H37873   4.410   9.665   9.670 -1.2104  1.3624 -2.0604
  287MOL0     H37874   4.559   9.619   9.813  0.1313 -1.2523 -0.5310
  287MOL0     H37875   4.598   9.539   9.957 -1.3389 -0.1238  0.5647
  287MOL0     H37876   4.446   9.804   9.920 -0.8581 -0.4645  1.0959
  287MOL0     H37877   4.467   9.731  10.074 -1.1163  2.0136 -0.7138
  287MOL0     H37878   4.680   9.774  10.104  0.0965  4.2840  0.7987
  287MOL0     H37879   4.650   9.923  10.023  2.7604  1.3359 -0.6884
  287MOL0     H37880   4.779   9.677   9.864  1.3966  0.1993 -1.5989
  287MOL0     H37881   4.730   9.835   9.802  3.2438 -0.7560 -0.4335
  287MOL0     H37882   5.080   9.910  10.015 -1.6809  0.8105  1.9694
  287MOL0     H37883   4.192   9.542  10.007  1.0321  1.2501 -0.0725
  287MOL0     H37884   3.980   9.628   9.927 -0.0619 -2.5042 -0.0203
  288MOL0     O37885   8.880   0.086   2.208 -0.1442  0.2430 -0.4357
  288MOL0     C37886   8.858   0.161   2.117  0.5325  0.5010  0.3205
  288MOL0     O37887   8.935   0.193   2.003  0.2461  0.2665 -0.8505
  288MOL0     C37888   9.055   0.134   1.993  0.0377  0.8030 -0.3956
  288MOL0     C37889   9.067   0.001   1.988  0.5537  0.4542  0.3476
  288MOL0     C37890   9.186  -0.069   1.971  0.0411 -0.4289 -0.3860
  288MOL0     C37891   9.306   0.009   1.955 -0.5281 -0.0341 -0.8604
  288MOL0     O37892   9.432  -0.045   1.969 -0.0671  0.5064 -0.0545
  288MOL0     C37893   9.450  -0.170   2.034  0.5671 -1.0069  0.3928
  288MOL0     C37894   9.479  -0.281   1.923  0.9181  0.4780  0.3483
  288MOL0     C37895   9.487  -0.416   2.004  0.8685 -0.6038  0.4407
  288MOL0     C37896   9.560  -0.528   1.942  0.1271  0.9688 -0.4919
  288MOL0     C37897   9.538  -0.536   1.792  0.0234 -0.2854 -0.4314
  288MOL0     C37898   9.391  -0.572   1.750 -0.5433 -0.4751  0.4071
  288MOL0     C37899   9.363  -0.545   1.606 -0.6601 -0.6524 -0.8431
  288MOL0     C37900   9.227  -0.600   1.559 -0.6269 -0.9021  0.0025
  288MOL0     N37901   9.122  -0.503   1.515  0.3784  0.1591  0.5236
  288MOL0     C37902   9.032  -0.436   1.599  0.7740  0.3773 -0.1890
  288MOL0     C37903   8.953  -0.365   1.512  0.3592  1.1174 -0.2144
  288MOL0     C37904   8.869  -0.253   1.561 -1.1888 -0.0906 -0.3798
  288MOL0     C37905   8.950  -0.146   1.636  0.2519  0.5057  0.0606
  288MOL0     C37906   8.899  -0.004   1.599  0.1362 -0.7246  0.2869
  288MOL0     C37907   8.771   0.038   1.661 -0.2418  0.0944  0.2534
  288MOL0     O37908   8.657  -0.031   1.611 -0.0752  0.5137  1.0515
  288MOL0     C37909   8.538  -0.020   1.678  0.2974 -0.2042 -0.3453
  288MOL0     C37910   8.509   0.088   1.755  0.8983  0.5019 -1.0186
  288MOL0     C37911   8.378   0.123   1.808 -0.0240 -0.8244 -0.1881
  288MOL0     C37912   8.275   0.032   1.792  0.0644  0.0522  0.3268
  288MOL0     C37913   8.139   0.077   1.835  0.5100 -0.9153  0.0202
  288MOL0     O37914   8.107   0.205   1.862  0.0885 -0.5904  0.3548
  288MOL0     C37915   7.989   0.252   1.920  0.5385 -0.5976 -0.0564
  288MOL0     C37916   7.941   0.377   1.884  0.0971  0.4572 -0.4543
  288MOL0     C37917   7.831   0.436   1.944 -0.1780  0.0657 -0.1937
  288MOL0     C37918   7.769   0.362   2.049  0.5868 -0.6492 -0.2118
  288MOL0     O37919   7.666   0.428   2.105  0.2109  0.6521 -0.0038
  288MOL0     C37920   7.537   0.361   2.115  0.4640  0.0502  0.1943
  288MOL0     C37921   7.487   0.282   1.995 -0.2251  0.5049  0.8585
  288MOL0     C37922   7.492   0.358   1.867  0.2588 -0.2198 -0.1598
  288MOL0     C37923   7.376   0.458   1.850 -0.2520 -0.8408 -0.9228
  288MOL0     C37924   7.410   0.556   1.748  0.0725 -0.3506 -0.2774
  288MOL0     C37925   7.298   0.665   1.748  0.2443  0.3084  0.0730
  288MOL0     C37926   7.314   0.767   1.639 -0.3631  0.3374 -0.4016
  288MOL0     C37927   7.306   0.724   1.492  0.5171  0.0258  0.0284
  288MOL0    Cl37928   7.460   0.655   1.427 -0.1487 -0.5268 -0.0855
  288MOL0     C37929   7.807   0.236   2.088  1.0089  0.7286  0.2973
  288MOL0     C37930   7.921   0.181   2.022  0.2283 -0.3541  0.0321
  288MOL0     O37931   8.065  -0.017   1.844 -0.3098 -0.4934  0.0683
  288MOL0     C37932   8.310  -0.088   1.716  0.3047  0.6628 -0.4654
  288MOL0     C37933   8.437  -0.109   1.657  0.0662 -0.8283  0.0859
  288MOL0     N37934   8.992  -0.397   1.386  0.8512  0.2956  0.5722
  288MOL0     N37935   9.093  -0.482   1.387 -0.0372  0.7560 -0.1436
  288MOL0     C37936   9.293   0.144   1.950 -0.0604 -0.6111  0.7761
  288MOL0     C37937   9.171   0.209   1.967  0.8302 -0.0369 -0.2043
  288MOL0     C37938   8.745   0.246   2.137  0.7236  0.6362 -1.2504
  288MOL0     C37939   8.733   0.370   2.055  1.0507 -0.2361 -0.3113
  288MOL0     C37940   8.620   0.443   2.068  0.6673 -0.6435  0.0979
  288MOL0     C37941   8.517   0.409   2.161  0.1073 -0.4971  0.0900
  288MOL0     O37942   8.406   0.491   2.185  0.5446  0.3165  0.1812
  288MOL0     C37943   8.323   0.501   2.065  0.1544 -0.2700 -0.4555
  288MOL0     C37944   8.182   0.496   2.117 -0.7098  0.7212 -0.3950
  288MOL0     C37945   8.133   0.603   2.223 -0.2530  0.1887  0.6586
  288MOL0     C37946   7.979   0.596   2.235 -0.4399 -0.0118 -0.9912
  288MOL0     C37947   7.941   0.693   2.331 -0.7123  0.3499  0.1471
  288MOL0     C37948   7.916   0.765   2.431 -0.3460 -0.4079  0.3875
  288MOL0     C37949   8.542   0.304   2.247  0.0284  1.0546 -0.1234
  288MOL0     C37950   8.653   0.224   2.239  0.0548 -0.0969  0.6567
  288MOL0     H37951   8.986  -0.071   1.996 -1.8515  3.1519  2.4301
  288MOL0     H37952   9.196  -0.177   1.971  0.1869 -0.4195  0.6466
  288MOL0     H37953   9.362  -0.197   2.092  0.8816 -1.6777  0.5696
  288MOL0     H37954   9.542  -0.179   2.093  1.0579 -0.7461 -0.3114
  288MOL0     H37955   9.571  -0.260   1.868  0.9086  1.1892  0.5886
  288MOL0     H37956   9.393  -0.288   1.856  0.1205  0.3074  1.3606
  288MOL0     H37957   9.389  -0.459   2.025  0.3193  0.1700 -0.4686
  288MOL0     H37958   9.534  -0.394   2.100  1.7361  0.0120 -0.1058
  288MOL0     H37959   9.668  -0.521   1.957  0.6574 -2.9588 -1.4371
  288MOL0     H37960   9.521  -0.619   1.988 -0.8143  1.7152  0.2275
  288MOL0     H37961   9.606  -0.609   1.748 -0.2272  1.1638 -3.4751
  288MOL0     H37962   9.567  -0.439   1.751  1.8289 -0.7215 -0.2925
  288MOL0     H37963   9.318  -0.515   1.809 -0.1839  2.2322 -1.5799
  288MOL0     H37964   9.374  -0.679   1.765 -3.3014 -0.5915 -2.4502
  288MOL0     H37965   9.359  -0.437   1.588 -3.2601 -0.6169 -0.4019
  288MOL0     H37966   9.434  -0.597   1.542 -1.8631 -2.5479 -0.7107
  288MOL0     H37967   9.186  -0.657   1.643 -1.5196  0.6087  0.6337
  288MOL0     H37968   9.244  -0.666   1.474 -0.1984 -0.1186 -0.5324
  288MOL0     H37969   9.029  -0.438   1.708  0.1024 -1.1628 -0.2130
  288MOL0     H37970   8.789  -0.291   1.625  0.7217 -2.2854  0.8809
  288MOL0     H37971   8.832  -0.197   1.475 -1.3221 -0.5208 -0.6069
  288MOL0     H37972   9.053  -0.137   1.600 -0.3385  1.5118 -1.4742
  288MOL0     H37973   8.950  -0.167   1.744  0.4326  1.4638  0.2636
  288MOL0     H37974   8.974   0.070   1.629 -0.6549  0.7629 -1.2420
  288MOL0     H37975   8.892   0.009   1.490 -0.2480 -3.8998 -0.1820
  288MOL0     H37976   8.757   0.143   1.634 -0.7799 -0.2141 -0.7503
  288MOL0     H37977   8.774   0.028   1.770 -4.2694 -1.0833  0.4189
  288MOL0     H37978   8.579   0.165   1.786 -2.5090  4.0887 -1.3671
  288MOL0     H37979   8.377   0.218   1.860  1.0144 -0.3425 -1.0237
  288MOL0     H37980   7.979   0.430   1.797 -1.6742  4.3585  0.9451
  288MOL0     H37981   7.796   0.536   1.918  1.1903  0.8164  0.7282
  288MOL0     H37982   7.461   0.434   2.145  3.1774  3.0167  0.4667
  288MOL0     H37983   7.540   0.280   2.188 -2.0549 -2.4156 -2.2155
  288MOL0     H37984   7.390   0.233   2.002  1.5040 -3.6328 -0.7467
  288MOL0     H37985   7.555   0.197   1.981  1.0359  1.7776 -1.3760
  288MOL0     H37986   7.474   0.285   1.787 -0.0217  1.1126 -1.3703
  288MOL0     H37987   7.586   0.408   1.845  0.9122 -0.2968  2.1921
  288MOL0     H37988   7.281   0.416   1.817 -1.0438  2.3631 -3.2221
  288MOL0     H37989   7.353   0.517   1.939 -1.5135  0.2479 -1.9450
  288MOL0     H37990   7.422   0.503   1.653  0.6172 -0.9517  0.1101
  288MOL0     H37991   7.511   0.589   1.775  0.5213 -0.2622 -1.9688
  288MOL0     H37992   7.286   0.714   1.845  0.1999 -1.2334  0.8846
  288MOL0     H37993   7.199   0.630   1.717 -0.1887  1.1093  0.5002
  288MOL0     H37994   7.238   0.845   1.652  0.5321  1.2172 -0.3637
  288MOL0     H37995   7.410   0.816   1.660 -0.3741  0.8814 -1.5484
  288MOL0     H37996   7.275   0.813   1.435  1.8034 -1.2886 -2.9385
  288MOL0     H37997   7.231   0.645   1.488  0.7908 -0.3580  1.9005
  288MOL0     H37998   7.751   0.181   2.162 -4.0512  0.9212 -2.8957
  288MOL0     H37999   7.961   0.086   2.056 -1.2893 -0.0458  3.0104
  288MOL0     H38000   8.244  -0.171   1.689  2.1097 -0.3071 -2.1352
  288MOL0     H38001   8.445  -0.195   1.592 -0.9140  0.3488 -1.6933
  288MOL0     H38002   9.373   0.215   1.935 -0.7884  0.5527  2.2073
  288MOL0     H38003   9.175   0.317   1.967  1.7419 -0.0661  0.1523
  288MOL0     H38004   8.808   0.404   1.984  1.9930 -1.6106 -0.0201
  288MOL0     H38005   8.606   0.541   2.022 -0.3704 -1.5087 -1.5260
  288MOL0     H38006   8.338   0.425   1.988 -1.2879  0.9050 -1.9974
  288MOL0     H38007   8.353   0.602   2.033 -3.9764  1.5818  0.7815
  288MOL0     H38008   8.116   0.495   2.030 -0.1022  2.1516 -0.9004
  288MOL0     H38009   8.171   0.399   2.168  0.8343  0.7108 -0.0421
  288MOL0     H38010   8.161   0.706   2.200 -0.9522 -0.2966 -2.9195
  288MOL0     H38011   8.184   0.574   2.316 -0.1252 -1.1977  0.1822
  288MOL0     H38012   7.913   0.591   2.149  1.1540 -4.2423 -2.1974
  288MOL0     H38013   7.964   0.497   2.280  0.5253 -0.3632 -1.4077
  288MOL0     H38014   7.893   0.817   2.522 -1.4754  0.2537 -0.2492
  288MOL0     H38015   8.459   0.295   2.317  0.3584  0.3644  0.1784
  288MOL0     H38016   8.669   0.141   2.306 -0.3109 -2.3796 -1.9041
  289MOL0     O38017   0.486   7.088   9.333 -0.3842 -0.0243 -0.8159
  289MOL0     C38018   0.531   7.094   9.218  0.0637  0.2175  0.1404
  289MOL0     O38019   0.453   7.066   9.106 -0.1710 -0.1441 -0.4193
  289MOL0     C38020   0.317   7.060   9.127  0.0771 -0.1542  0.5339
  289MOL0     C38021   0.237   7.166   9.077  0.2199  0.1277  0.9437
  289MOL0     C38022   0.096   7.160   9.095 -0.0869 -0.3581  0.0037
  289MOL0     C38023   0.029   7.062   9.159  0.4285  0.4345  0.0529
  289MOL0     O38024  -0.109   7.065   9.181 -0.1433 -0.2277  0.0733
  289MOL0     C38025  -0.153   7.030   9.313  0.9049 -0.2162 -0.4120
  289MOL0     C38026  -0.279   7.108   9.360  0.5120  0.3833  0.0668
  289MOL0     C38027  -0.388   7.110   9.257  0.1159 -0.7773  0.0383
  289MOL0     C38028  -0.504   7.193   9.317 -0.1698 -0.5164 -1.0572
  289MOL0     C38029  -0.637   7.176   9.241 -0.7218 -0.0872  0.5216
  289MOL0     C38030  -0.748   7.266   9.283  0.2762 -0.7358 -0.5072
  289MOL0     C38031  -0.807   7.239   9.424  0.3081 -0.0652 -0.0213
  289MOL0     C38032  -0.875   7.360   9.491 -0.0252  0.2188  0.5839
  289MOL0     N38033  -0.946   7.300   9.607  0.1288  0.0918 -0.4211
  289MOL0     C38034  -1.070   7.232   9.611  0.5953 -0.8694 -0.0975
  289MOL0     C38035  -1.098   7.228   9.745  0.0135  0.2818  0.0584
  289MOL0     C38036  -1.213   7.171   9.831 -0.3639 -0.5163 -0.1022
  289MOL0     C38037  -1.336   7.261   9.813  0.7201 -0.6360 -0.3336
  289MOL0     C38038  -1.456   7.172   9.766 -1.0487  0.8962  0.4434
  289MOL0     C38039  -1.595   7.231   9.761 -0.3291  0.6853 -0.5341
  289MOL0     O38040  -1.678   7.117   9.713  0.8876 -0.2180 -0.0223
  289MOL0     C38041  -1.812   7.125   9.688  0.3338 -0.1789 -0.3974
  289MOL0     C38042  -1.876   7.020   9.625  1.5017 -0.1973  0.2659
  289MOL0     C38043  -2.024   7.017   9.616 -1.3551  0.0850  0.6174
  289MOL0     C38044  -2.099   7.128   9.663  0.8762 -0.8775 -0.1651
  289MOL0     C38045  -2.243   7.133   9.655 -0.0884 -0.0157  0.8352
  289MOL0     O38046  -2.308   7.245   9.682  0.6290  0.7539 -0.2983
  289MOL0     C38047  -2.444   7.248   9.688  0.2960  0.4593  0.8257
  289MOL0     C38048  -2.519   7.312   9.586 -0.2709 -0.2479  0.8084
  289MOL0     C38049  -2.660   7.332   9.605 -0.0583 -0.5878  1.0354
  289MOL0     C38050  -2.716   7.289   9.723 -0.4870 -0.9551  0.5143
  289MOL0     O38051  -2.850   7.290   9.737  0.0899  0.3230 -0.2321
  289MOL0     C38052  -2.931   7.391   9.693  0.1234 -0.4779  0.1158
  289MOL0     C38053  -3.083   7.342   9.701  0.2201  0.1485 -1.0099
  289MOL0     C38054  -3.183   7.465   9.717  0.0681  0.0778 -0.0549
  289MOL0     C38055  -3.152   7.556   9.837 -0.3879 -0.0574  0.0357
  289MOL0     C38056  -3.265   7.662   9.849 -0.8256  0.0618  0.4056
  289MOL0     C38057  -3.283   7.713   9.992 -0.1147 -0.5512  0.3014
  289MOL0     C38058  -3.159   7.788  10.049  0.3602  0.5059 -0.9930
  289MOL0     C38059  -3.196   7.838  10.191  0.1616  0.2023  0.4337
  289MOL0    Cl38060  -3.059   7.922  10.262 -0.1254  0.0045  0.0625
  289MOL0     C38061  -2.642   7.232   9.817  0.6395 -0.0258 -0.5536
  289MOL0     C38062  -2.507   7.204   9.803 -0.1062 -0.3586 -0.0367
  289MOL0     O38063  -2.293   7.031   9.619  0.3019  0.1172  0.1624
  289MOL0     C38064  -2.035   7.232   9.732  0.6909  0.5902  0.2295
  289MOL0     C38065  -1.892   7.231   9.743  0.1116  0.4157  0.7652
  289MOL0     N38066  -0.992   7.273   9.813 -0.0869 -0.3694  0.3180
  289MOL0     N38067  -0.906   7.311   9.736  0.6397 -0.4675 -0.1972
  289MOL0     C38068   0.105   6.962   9.215 -0.1144  0.0423  0.7705
  289MOL0     C38069   0.248   6.956   9.199  0.2521 -0.2265  0.6803
  289MOL0     C38070   0.674   7.116   9.203 -0.3047 -0.5537  0.6986
  289MOL0     C38071   0.752   7.154   9.316  0.8032 -0.3287  0.5648
  289MOL0     C38072   0.888   7.150   9.302  0.0881 -0.0903 -0.2281
  289MOL0     C38073   0.959   7.114   9.184 -0.2686 -0.2794 -0.0557
  289MOL0     O38074   1.099   7.098   9.182  0.0895 -0.0156 -0.4159
  289MOL0     C38075   1.152   7.015   9.073  0.5905 -0.2270 -0.2766
  289MOL0     C38076   1.291   6.977   9.108 -0.2509 -0.2619  0.4339
  289MOL0     C38077   1.383   7.108   9.110 -0.1844 -0.0801 -0.3932
  289MOL0     C38078   1.517   7.079   9.188 -0.5756 -0.4620  0.1653
  289MOL0     C38079   1.608   7.198   9.181  0.3627  1.2157 -0.1895
  289MOL0     C38080   1.700   7.274   9.198 -0.8177  0.0266  0.2569
  289MOL0     C38081   0.879   7.096   9.071  0.2573  0.0836  0.1700
  289MOL0     C38082   0.740   7.099   9.080 -0.1218  0.0124  0.8002
  289MOL0     H38083   0.292   7.255   9.048  0.5517  1.1322  4.2335
  289MOL0     H38084   0.038   7.239   9.048 -0.0163  1.7820  3.2047
  289MOL0     H38085  -0.071   7.052   9.382  1.1090  0.4328 -0.8522
  289MOL0     H38086  -0.185   6.925   9.312 -1.7968  0.4901 -2.6876
  289MOL0     H38087  -0.254   7.202   9.410 -0.5375  0.8037 -0.1636
  289MOL0     H38088  -0.330   7.051   9.437 -4.6529  3.0100 -0.9346
  289MOL0     H38089  -0.425   7.009   9.238  0.8517 -1.3010  1.2358
  289MOL0     H38090  -0.353   7.162   9.167 -3.2498 -1.2296 -1.6861
  289MOL0     H38091  -0.511   7.166   9.423  2.3816  0.6081 -0.5086
  289MOL0     H38092  -0.477   7.299   9.329 -1.1066 -0.4033  0.2696
  289MOL0     H38093  -0.667   7.073   9.262  1.8837 -0.5382  2.4343
  289MOL0     H38094  -0.620   7.175   9.133  1.6673  0.3870  0.8343
  289MOL0     H38095  -0.832   7.254   9.213  0.0319  0.8667 -0.5369
  289MOL0     H38096  -0.709   7.368   9.272 -3.2480  0.4746 -5.3313
  289MOL0     H38097  -0.873   7.152   9.432  2.0389 -1.2502  2.8548
  289MOL0     H38098  -0.733   7.206   9.498 -0.8609 -0.3966  1.0483
  289MOL0     H38099  -0.950   7.396   9.420  0.8139 -2.1595 -1.6247
  289MOL0     H38100  -0.813   7.447   9.514  0.0927  0.9034 -2.0174
  289MOL0     H38101  -1.132   7.179   9.540 -1.8369 -1.6672  2.4708
  289MOL0     H38102  -1.167   7.173   9.930  3.0993 -1.8595 -1.5293
  289MOL0     H38103  -1.221   7.066   9.800 -0.3097 -0.1773 -1.2909
  289MOL0     H38104  -1.324   7.351   9.751  0.3057  1.0659  1.9384
  289MOL0     H38105  -1.349   7.313   9.908  3.9293 -0.5413  0.1638
  289MOL0     H38106  -1.431   7.136   9.666  0.0234  0.9764  0.6753
  289MOL0     H38107  -1.465   7.091   9.840  1.2167 -0.1197 -0.2999
  289MOL0     H38108  -1.597   7.311   9.687  0.7392  2.0461  0.8456
  289MOL0     H38109  -1.628   7.278   9.854 -2.5262  2.4174 -2.0778
  289MOL0     H38110  -1.829   6.940   9.568  0.6304 -0.7952  0.3662
  289MOL0     H38111  -2.058   6.925   9.569  1.7138 -0.9803  0.2077
  289MOL0     H38112  -2.470   7.354   9.499  0.2620 -1.9944  0.2142
  289MOL0     H38113  -2.713   7.372   9.519  2.5833 -0.6003 -0.7383
  289MOL0     H38114  -2.908   7.423   9.591 -1.9823 -0.9426 -0.5579
  289MOL0     H38115  -2.919   7.477   9.760  0.0147 -1.2509  1.1465
  289MOL0     H38116  -3.087   7.276   9.788  2.8669  2.5226  1.0993
  289MOL0     H38117  -3.105   7.297   9.604 -0.1422 -0.4506 -0.6574
  289MOL0     H38118  -3.285   7.426   9.724  0.6215 -2.3977 -3.3438
  289MOL0     H38119  -3.174   7.508   9.617  0.6847  2.4986  0.9890
  289MOL0     H38120  -3.139   7.502   9.931 -0.1538  0.8659  0.5456
  289MOL0     H38121  -3.057   7.609   9.829  0.0795 -0.4483  2.4045
  289MOL0     H38122  -3.362   7.622   9.819 -0.2819 -1.7748  0.9813
  289MOL0     H38123  -3.243   7.743   9.779  0.0273 -0.2176  0.3380
  289MOL0     H38124  -3.310   7.629  10.057 -1.8641  0.0641  0.4340
  289MOL0     H38125  -3.368   7.781  10.004  0.7669  0.2106  3.1068
  289MOL0     H38126  -3.077   7.715  10.048  1.0796  1.2665  0.0806
  289MOL0     H38127  -3.122   7.871   9.988 -0.7277  2.2626  0.6381
  289MOL0     H38128  -3.227   7.751  10.250  0.4102 -2.4552 -3.0551
  289MOL0     H38129  -3.284   7.902  10.181  0.1791  0.4790  1.8230
  289MOL0     H38130  -2.705   7.194   9.897 -0.7053 -2.4556 -2.6117
  289MOL0     H38131  -2.446   7.150   9.875 -1.0790 -0.6720  0.5761
  289MOL0     H38132  -2.092   7.313   9.776  0.3428  0.8995 -0.7819
  289MOL0     H38133  -1.842   7.309   9.798  2.4648 -0.6629  0.2835
  289MOL0     H38134   0.054   6.872   9.249  1.3903 -0.9493  0.4969
  289MOL0     H38135   0.308   6.873   9.237  0.8643 -0.8429 -1.4995
  289MOL0     H38136   0.705   7.183   9.409  0.0594  0.9836 -0.1863
  289MOL0     H38137   0.935   7.166   9.398 -1.2158  1.3206  0.2192
  289MOL0     H38138   1.136   7.051   8.971 -2.5493  1.5843  0.7190
  289MOL0     H38139   1.090   6.926   9.082  2.5352 -1.5392  0.9013
  289MOL0     H38140   1.291   6.940   9.211 -1.0405  1.3199  1.0318
  289MOL0     H38141   1.326   6.907   9.031  0.1081  2.5885 -2.1763
  289MOL0     H38142   1.334   7.185   9.170  1.1345 -0.1553  0.8284
  289MOL0     H38143   1.401   7.140   9.007 -0.8247 -1.3766 -0.9278
  289MOL0     H38144   1.498   7.054   9.293 -2.3892  2.3729  0.6302
  289MOL0     H38145   1.576   7.002   9.137  1.5470  0.8991  0.4411
  289MOL0     H38146   1.785   7.337   9.217 -0.0338 -0.2490 -2.0894
  289MOL0     H38147   0.919   7.064   8.975 -1.4361 -1.4986 -0.0729
  289MOL0     H38148   0.676   7.073   8.996  1.2695 -3.0458  0.5307
  290MOL0     O38149  11.123   8.606   1.211  0.0765 -0.1380  0.3678
  290MOL0     C38150  11.120   8.575   1.090 -0.6604  1.2029 -0.8114
  290MOL0     O38151  11.016   8.504   1.033  0.2092  0.3293 -0.4415
  290MOL0     C38152  10.906   8.470   1.106  0.7076 -0.1975  0.7164
  290MOL0     C38153  10.802   8.564   1.143  0.0483 -0.1487  0.7271
  290MOL0     C38154  10.679   8.525   1.202  0.3569  0.1423 -0.2027
  290MOL0     C38155  10.652   8.389   1.221  0.4783  0.3581  0.1467
  290MOL0     O38156  10.541   8.329   1.274 -0.6310  0.4257  0.3230
  290MOL0     C38157  10.439   8.410   1.323  0.3810  0.0674  0.5945
  290MOL0     C38158  10.312   8.321   1.334  0.5427 -0.3963  0.0592
  290MOL0     C38159  10.215   8.373   1.439 -1.0591 -0.9759 -0.2391
  290MOL0     C38160  10.074   8.305   1.429 -0.0969  0.6386  1.1072
  290MOL0     C38161   9.971   8.385   1.507 -0.2713 -0.9640  0.7060
  290MOL0     C38162   9.825   8.325   1.500 -0.4823  0.3937 -0.0869
  290MOL0     C38163   9.720   8.421   1.569  0.0542 -0.8402  0.1284
  290MOL0     C38164   9.588   8.348   1.600  0.1317 -0.8695  0.6226
  290MOL0     N38165   9.490   8.438   1.668 -0.6416  0.0135  1.0199
  290MOL0     C38166   9.375   8.389   1.734  0.6655  0.1138  0.1093
  290MOL0     C38167   9.343   8.492   1.812 -0.3191 -1.3325 -1.1224
  290MOL0     C38168   9.220   8.492   1.906 -0.1207 -0.1975  0.0296
  290MOL0     C38169   9.093   8.541   1.831  0.4727 -0.3596 -0.4183
  290MOL0     C38170   9.065   8.690   1.835 -0.0547  0.0573 -0.9815
  290MOL0     C38171   8.936   8.720   1.749 -0.4358  0.3330 -0.4343
  290MOL0     O38172   8.829   8.662   1.813 -0.1510 -0.0307  0.3049
  290MOL0     C38173   8.716   8.729   1.804 -0.1976 -0.3367  0.3465
  290MOL0     C38174   8.666   8.790   1.691 -0.2912  0.4477 -0.4790
  290MOL0     C38175   8.534   8.829   1.676 -0.0380  0.0865  0.9848
  290MOL0     C38176   8.447   8.815   1.775  0.3678 -0.2548 -0.6327
  290MOL0     C38177   8.309   8.864   1.751  0.2237  0.8096 -0.7276
  290MOL0     O38178   8.220   8.862   1.861  0.1878  0.2096  0.3035
  290MOL0     C38179   8.090   8.876   1.832  0.2806 -0.1589  1.2302
  290MOL0     C38180   8.044   9.004   1.812  0.7638 -0.5264  0.2125
  290MOL0     C38181   7.909   9.039   1.806 -0.3208 -0.1484  1.0067
  290MOL0     C38182   7.808   8.938   1.818  0.0916 -0.3184 -0.2614
  290MOL0     O38183   7.672   8.950   1.814  0.1552 -0.1065 -0.3877
  290MOL0     C38184   7.617   9.085   1.842 -0.1154 -0.5868  0.4395
  290MOL0     C38185   7.471   9.092   1.799  0.2975  0.2866 -0.2336
  290MOL0     C38186   7.407   9.226   1.841  0.2224 -0.6235  0.3941
  290MOL0     C38187   7.287   9.252   1.757 -0.2412 -0.0964 -0.0882
  290MOL0     C38188   7.182   9.132   1.736 -0.4671  0.1877 -0.1805
  290MOL0     C38189   7.065   9.182   1.647 -0.4398  0.3152  0.2844
  290MOL0     C38190   6.983   9.064   1.604 -1.1864 -0.0379  0.1722
  290MOL0     C38191   6.847   9.116   1.546 -0.3810 -0.1805  0.6468
  290MOL0    Cl38192   6.728   9.002   1.484 -0.0719  0.6433 -0.1115
  290MOL0     C38193   7.854   8.810   1.835  0.0780 -0.8019 -0.0743
  290MOL0     C38194   7.996   8.777   1.846  0.1301  0.3051 -1.0368
  290MOL0     O38195   8.277   8.878   1.635 -0.4894 -0.4964  0.8201
  290MOL0     C38196   8.491   8.763   1.900  0.0521  0.0731 -0.5297
  290MOL0     C38197   8.626   8.715   1.915 -0.2978 -0.1564  0.4714
  290MOL0     N38198   9.434   8.592   1.800  0.7100 -0.3593 -0.7318
  290MOL0     N38199   9.520   8.566   1.710 -0.1966 -0.4473  1.5685
  290MOL0     C38200  10.762   8.294   1.179 -0.5873 -0.3414  0.5567
  290MOL0     C38201  10.876   8.335   1.118  0.1205  0.3462 -0.0347
  290MOL0     C38202  11.229   8.616   0.998 -0.8414 -0.5014 -0.6456
  290MOL0     C38203  11.216   8.602   0.861  0.4804  0.0902 -0.0762
  290MOL0     C38204  11.309   8.660   0.771  0.1330 -0.2156  0.1750
  290MOL0     C38205  11.435   8.709   0.815 -0.7952  0.3156 -0.7348
  290MOL0     O38206  11.522   8.750   0.720 -0.3560 -0.8976 -0.7150
  290MOL0     C38207  11.629   8.842   0.761  0.3770 -0.4023  0.1595
  290MOL0     C38208  11.683   8.922   0.641 -0.0390 -0.2294  0.8518
  290MOL0     C38209  11.595   9.041   0.596 -0.1401  0.4112  0.3448
  290MOL0     C38210  11.636   9.174   0.667 -1.0247 -0.0597  0.4532
  290MOL0     C38211  11.770   9.217   0.639  0.0181  0.4138 -0.4964
  290MOL0     C38212  11.879   9.262   0.624 -0.2962 -1.1614  0.0354
  290MOL0     C38213  11.454   8.714   0.955 -0.4122 -0.1210  0.6369
  290MOL0     C38214  11.348   8.674   1.039 -0.2552 -0.0439  0.3483
  290MOL0     H38215  10.823   8.667   1.118  1.9028 -0.7917 -0.7044
  290MOL0     H38216  10.601   8.599   1.219  1.2606  0.8689  0.8783
  290MOL0     H38217  10.412   8.481   1.245  1.3166 -1.5096 -1.2535
  290MOL0     H38218  10.472   8.460   1.415 -0.3388 -0.3129  1.0654
  290MOL0     H38219  10.341   8.221   1.370 -0.2495 -1.1956 -1.4389
  290MOL0     H38220  10.258   8.301   1.241 -2.1244 -1.7259  1.7715
  290MOL0     H38221  10.210   8.481   1.425  0.7605 -0.8062  0.0532
  290MOL0     H38222  10.257   8.359   1.540  2.6054 -0.8044 -1.5835
  290MOL0     H38223  10.043   8.316   1.325 -0.4510 -2.4034  0.8102
  290MOL0     H38224  10.082   8.198   1.450 -2.0165 -0.2760 -2.1028
  290MOL0     H38225   9.968   8.488   1.470 -0.3076 -1.6552 -1.3473
  290MOL0     H38226  10.015   8.397   1.606  1.8118  3.2554 -0.4997
  290MOL0     H38227   9.823   8.232   1.558 -0.8619  0.3051 -0.2399
  290MOL0     H38228   9.804   8.306   1.395  1.5174 -1.6626 -0.1966
  290MOL0     H38229   9.765   8.472   1.655 -0.3829  0.1550 -0.2169
  290MOL0     H38230   9.695   8.506   1.505  1.8168 -1.4561 -1.4675
  290MOL0     H38231   9.622   8.266   1.665 -0.6372 -1.8252 -0.1429
  290MOL0     H38232   9.554   8.309   1.504 -0.4206  0.5820  0.2138
  290MOL0     H38233   9.322   8.294   1.729 -1.8001  1.3758  1.0068
  290MOL0     H38234   9.237   8.551   1.997 -4.0851 -0.3180  1.0558
  290MOL0     H38235   9.194   8.388   1.931 -4.4113  0.0789 -2.3219
  290MOL0     H38236   9.007   8.487   1.871  2.1802 -1.1565  2.4206
  290MOL0     H38237   9.121   8.522   1.727  0.2139  0.0542 -0.5648
  290MOL0     H38238   9.048   8.730   1.935  0.2323  0.6414 -1.1628
  290MOL0     H38239   9.156   8.731   1.789 -0.2844  0.4532 -1.0828
  290MOL0     H38240   8.943   8.679   1.648  2.1860 -1.8215  0.5252
  290MOL0     H38241   8.925   8.829   1.751  2.0859  0.6646  2.0483
  290MOL0     H38242   8.730   8.801   1.604  0.4387 -0.7305 -0.1253
  290MOL0     H38243   8.507   8.879   1.584  2.1071 -0.4787 -0.0215
  290MOL0     H38244   8.122   9.079   1.810  1.0678 -0.8439  0.0222
  290MOL0     H38245   7.887   9.140   1.774 -0.5307 -0.5417 -0.1311
  290MOL0     H38246   7.673   9.154   1.778 -0.7422 -0.3455  0.1451
  290MOL0     H38247   7.620   9.122   1.945 -1.5194  0.6532  0.0571
  290MOL0     H38248   7.420   9.011   1.852  0.6042  1.9193  2.7257
  290MOL0     H38249   7.457   9.072   1.692  3.3642 -2.0250 -0.3482
  290MOL0     H38250   7.471   9.312   1.816 -1.2835  0.0824 -1.3158
  290MOL0     H38251   7.372   9.220   1.944 -1.5468 -2.2985 -0.2633
  290MOL0     H38252   7.234   9.328   1.816 -2.3986 -0.3096 -1.6161
  290MOL0     H38253   7.316   9.292   1.659 -2.9220  2.0528 -0.1305
  290MOL0     H38254   7.140   9.087   1.827 -1.8544 -0.9038 -1.2973
  290MOL0     H38255   7.224   9.058   1.667 -0.3304  1.3050 -1.3428
  290MOL0     H38256   7.097   9.223   1.550  3.2810 -4.2213 -0.7600
  290MOL0     H38257   7.005   9.258   1.697  0.4825  0.7863  0.7178
  290MOL0     H38258   7.038   9.001   1.533 -1.7603 -1.3145  0.8179
  290MOL0     H38259   6.967   8.994   1.687 -0.0907  3.3628  3.5297
  290MOL0     H38260   6.882   9.190   1.473 -3.0295 -0.8400 -1.4523
  290MOL0     H38261   6.797   9.172   1.626  1.3307  1.6009  0.5502
  290MOL0     H38262   7.787   8.725   1.835  1.1704 -1.7191 -1.4793
  290MOL0     H38263   8.021   8.672   1.859 -4.0862 -0.6672  1.2496
  290MOL0     H38264   8.428   8.759   1.989  2.8078  0.6370  1.6130
  290MOL0     H38265   8.661   8.675   2.010 -0.1071  3.3026  2.0116
  290MOL0     H38266  10.749   8.187   1.195  2.7372 -0.8373  0.6210
  290MOL0     H38267  10.946   8.268   1.068 -0.5858 -0.5723  0.1662
  290MOL0     H38268  11.128   8.556   0.815  1.0587  1.3260 -2.5866
  290MOL0     H38269  11.285   8.648   0.666 -3.7253  3.2334  0.4169
  290MOL0     H38270  11.716   8.798   0.811  0.2179 -0.5510  0.3094
  290MOL0     H38271  11.591   8.913   0.835  0.0458 -0.9187  0.4924
  290MOL0     H38272  11.781   8.964   0.668  0.3731 -1.8171  1.9264
  290MOL0     H38273  11.710   8.849   0.564  1.1183  0.5583  0.4667
  290MOL0     H38274  11.488   9.025   0.610  0.1747  0.2575  3.2743
  290MOL0     H38275  11.608   9.054   0.489 -2.2290 -0.4895 -0.0772
  290MOL0     H38276  11.566   9.253   0.639 -1.9836 -0.7728  0.7726
  290MOL0     H38277  11.629   9.148   0.774 -0.3692 -2.2567  0.0071
  290MOL0     H38278  11.980   9.294   0.610 -0.7825  0.2105 -0.5109
  290MOL0     H38279  11.554   8.733   0.992  0.8681 -0.1409 -2.5353
  290MOL0     H38280  11.354   8.695   1.146 -0.4125 -1.1755  0.5873
  291MOL0     O38281   3.773   2.291   6.393  0.2251  0.1923  0.1239
  291MOL0     C38282   3.828   2.255   6.288  0.3220 -0.1864 -0.7355
  291MOL0     O38283   3.770   2.183   6.189 -0.1408 -0.0505 -0.0872
  291MOL0     C38284   3.630   2.165   6.188 -0.0732 -0.2135 -1.0865
  291MOL0     C38285   3.535   2.264   6.217  0.3364 -0.3132 -0.3571
  291MOL0     C38286   3.390   2.242   6.213 -1.1824 -0.3707  0.1539
  291MOL0     C38287   3.349   2.109   6.180 -0.4644 -0.4965  0.2794
  291MOL0     O38288   3.211   2.079   6.175 -0.1168  0.1498 -0.1377
  291MOL0     C38289   3.166   1.949   6.227  0.3118 -0.5853  0.1301
  291MOL0     C38290   3.014   1.953   6.246  0.6710 -0.0387  0.7647
  291MOL0     C38291   2.939   1.994   6.114  0.1744 -0.0482 -0.4363
  291MOL0     C38292   2.801   1.943   6.141 -0.0737  0.0666  0.3141
  291MOL0     C38293   2.712   1.985   6.016 -1.0825 -0.4525 -0.3973
  291MOL0     C38294   2.574   1.922   6.041  0.3271  0.4734  0.0300
  291MOL0     C38295   2.477   1.940   5.925 -0.7157 -0.1703 -0.3712
  291MOL0     C38296   2.422   2.086   5.914  0.7149 -0.4421 -0.4225
  291MOL0     N38297   2.309   2.090   5.823 -0.2213  0.6298 -0.1950
  291MOL0     C38298   2.311   2.091   5.691 -0.6138  1.0427  0.2098
  291MOL0     C38299   2.185   2.108   5.657 -0.4443 -0.4412  0.3660
  291MOL0     C38300   2.129   2.121   5.517  0.1390  0.3439  0.8031
  291MOL0     C38301   1.995   2.188   5.518  0.7726 -0.8792  0.1922
  291MOL0     C38302   1.939   2.223   5.379  0.7996  1.0827 -0.1200
  291MOL0     C38303   1.799   2.285   5.385 -0.6319  0.8429  0.1816
  291MOL0     O38304   1.763   2.341   5.259  0.2777 -0.2363  0.2962
  291MOL0     C38305   1.627   2.349   5.225 -0.2230 -0.2311  0.7549
  291MOL0     C38306   1.606   2.436   5.117 -0.4711 -0.0540  0.2424
  291MOL0     C38307   1.480   2.472   5.076 -0.1165  0.1062  0.5579
  291MOL0     C38308   1.368   2.417   5.144  0.1039 -0.6080 -1.4121
  291MOL0     C38309   1.229   2.447   5.104 -0.4127  0.0711 -0.2544
  291MOL0     O38310   1.129   2.356   5.134  0.2106 -0.0776 -0.1099
  291MOL0     C38311   0.998   2.381   5.098 -0.4885  0.2501  1.3229
  291MOL0     C38312   0.936   2.502   5.067  0.1369  0.1349  0.5249
  291MOL0     C38313   0.801   2.504   5.035  0.4359  1.1779 -0.0519
  291MOL0     C38314   0.726   2.381   5.025  0.0519 -0.4828 -0.3633
  291MOL0     O38315   0.594   2.363   5.012  0.2701 -0.2746  0.6345
  291MOL0     C38316   0.508   2.483   5.023 -0.5859 -0.2048  1.0186
  291MOL0     C38317   0.366   2.453   4.975  1.0669  0.4536  0.8068
  291MOL0     C38318   0.272   2.367   5.060  0.2836 -0.9571  0.4342
  291MOL0     C38319   0.152   2.301   4.979 -0.0735  0.5196  0.4620
  291MOL0     C38320   0.045   2.237   5.074 -0.1745  0.2871  0.7696
  291MOL0     C38321  -0.089   2.211   4.993 -0.3717 -0.1674 -0.1889
  291MOL0     C38322  -0.198   2.172   5.091 -0.1922  0.0211  0.1097
  291MOL0     C38323  -0.330   2.209   5.028 -1.0204  0.2587  0.4410
  291MOL0    Cl38324  -0.364   2.092   4.890 -0.3874  0.2650  0.5854
  291MOL0     C38325   0.794   2.258   5.057  0.3326 -0.0955 -0.5607
  291MOL0     C38326   0.922   2.263   5.090 -0.1288  0.0211  0.3944
  291MOL0     O38327   1.211   2.552   5.049 -0.0479 -0.1313 -0.3947
  291MOL0     C38328   1.386   2.320   5.248 -0.7192 -0.0596  0.8850
  291MOL0     C38329   1.517   2.294   5.294  0.8218  0.1686 -0.9599
  291MOL0     N38330   2.109   2.105   5.768  0.2055  0.8583  0.0635
  291MOL0     N38331   2.185   2.085   5.873  0.3307  0.5171  0.5104
  291MOL0     C38332   3.438   2.008   6.151  0.3004  0.0921  0.6279
  291MOL0     C38333   3.575   2.042   6.158  0.8524  0.0664  0.4731
  291MOL0     C38334   3.975   2.274   6.271 -0.2455  0.1113  0.1482
  291MOL0     C38335   4.057   2.215   6.177 -0.0318 -0.8247  0.9698
  291MOL0     C38336   4.189   2.251   6.166  0.2367  0.2499 -0.0346
  291MOL0     C38337   4.254   2.340   6.261  0.4710  0.0198  0.9099
  291MOL0     O38338   4.386   2.379   6.257  0.2890  0.3679  0.4965
  291MOL0     C38339   4.470   2.283   6.189 -0.1132  0.2989  0.1016
  291MOL0     C38340   4.601   2.284   6.265  0.2026 -0.1968 -0.5629
  291MOL0     C38341   4.675   2.419   6.248 -0.5864  0.0876 -0.1993
  291MOL0     C38342   4.820   2.407   6.273  0.2246 -0.0016  0.3125
  291MOL0     C38343   4.902   2.524   6.261 -0.2520  0.2470  0.8004
  291MOL0     C38344   4.996   2.606   6.265  0.9319  0.8094 -0.3331
  291MOL0     C38345   4.171   2.394   6.356 -0.7715  0.3827  0.7076
  291MOL0     C38346   4.033   2.367   6.361  0.5694  0.1390 -0.4189
  291MOL0     H38347   3.568   2.366   6.236  1.2871 -0.3782 -1.5316
  291MOL0     H38348   3.315   2.314   6.245  0.1042 -0.5839  4.2284
  291MOL0     H38349   3.203   1.924   6.327 -0.2959  0.5215  0.6430
  291MOL0     H38350   3.194   1.870   6.157 -0.4122  0.1161 -0.9744
  291MOL0     H38351   2.973   2.024   6.319 -3.7458 -0.5850 -0.8379
  291MOL0     H38352   2.977   1.856   6.279  0.3270  0.3313  1.5015
  291MOL0     H38353   2.981   1.946   6.025  0.4740 -0.0994 -0.2674
  291MOL0     H38354   2.941   2.103   6.104 -0.6000  0.0635  0.4537
  291MOL0     H38355   2.806   1.834   6.146  1.1394  0.1000  0.1840
  291MOL0     H38356   2.752   1.977   6.233  1.4801  0.8476  0.8950
  291MOL0     H38357   2.755   1.938   5.927  2.0482  1.5646 -0.1028
  291MOL0     H38358   2.709   2.093   6.002 -0.2459 -0.5555 -1.5138
  291MOL0     H38359   2.535   1.975   6.128 -0.3048  1.0120 -0.5670
  291MOL0     H38360   2.584   1.819   6.077  2.9682  1.3692  2.2197
  291MOL0     H38361   2.520   1.914   5.828  0.8473  2.4968 -0.4907
  291MOL0     H38362   2.396   1.868   5.941  0.0502 -2.0804 -4.0438
  291MOL0     H38363   2.508   2.145   5.882  0.2589  0.6514  0.3314
  291MOL0     H38364   2.395   2.122   6.014  0.6493  0.1054 -0.6328
  291MOL0     H38365   2.389   2.082   5.616  0.2633 -0.5584  1.2499
  291MOL0     H38366   2.127   2.021   5.472  0.4869 -0.1885  1.9231
  291MOL0     H38367   2.194   2.179   5.450 -0.2893  0.5769  0.5848
  291MOL0     H38368   2.000   2.289   5.561  0.8294 -1.3601  1.3747
  291MOL0     H38369   1.930   2.125   5.579 -3.0397 -0.1293 -2.7818
  291MOL0     H38370   1.996   2.294   5.318  0.8191  2.2373  1.1763
  291MOL0     H38371   1.940   2.130   5.322  1.1336  1.0104 -0.0019
  291MOL0     H38372   1.804   2.372   5.452  1.8730  1.7628 -1.0418
  291MOL0     H38373   1.727   2.211   5.418  1.5760 -2.8818 -2.6300
  291MOL0     H38374   1.692   2.483   5.072 -0.3934  1.7210  2.1053
  291MOL0     H38375   1.445   2.540   4.998 -1.6599  0.1531  1.2546
  291MOL0     H38376   0.993   2.595   5.063  0.8034 -0.2147  1.3754
  291MOL0     H38377   0.752   2.601   5.026 -0.7926  0.5666 -0.2123
  291MOL0     H38378   0.550   2.563   4.961 -2.0324 -0.0895  0.1631
  291MOL0     H38379   0.497   2.520   5.126  0.4320 -0.5438  1.2641
  291MOL0     H38380   0.373   2.410   4.875 -1.5517 -1.3545  1.2933
  291MOL0     H38381   0.308   2.546   4.972 -0.0807 -0.1782  1.9628
  291MOL0     H38382   0.232   2.426   5.144 -1.6500 -0.4448 -0.7771
  291MOL0     H38383   0.331   2.289   5.108 -1.0095 -1.1169  1.8606
  291MOL0     H38384   0.104   2.385   4.927  0.6894  1.1955  0.8186
  291MOL0     H38385   0.180   2.225   4.905  0.1702 -0.1516  1.2283
  291MOL0     H38386   0.019   2.298   5.161 -4.8359 -0.2567  0.0518
  291MOL0     H38387   0.065   2.137   5.113 -2.2641 -1.1542 -1.5685
  291MOL0     H38388  -0.069   2.130   4.923 -0.2867 -1.4112  1.2109
  291MOL0     H38389  -0.112   2.305   4.944 -0.9290 -0.1480  0.1050
  291MOL0     H38390  -0.189   2.064   5.104  0.5986 -0.2222 -2.0625
  291MOL0     H38391  -0.186   2.219   5.189 -0.3272  0.3783 -0.0432
  291MOL0     H38392  -0.320   2.314   4.997 -1.2888  0.6617  1.6521
  291MOL0     H38393  -0.411   2.214   5.102  0.4356  2.1726  2.0108
  291MOL0     H38394   0.738   2.165   5.062  2.8859 -1.6757  2.2471
  291MOL0     H38395   0.973   2.171   5.114  2.9704  1.2502 -0.9174
  291MOL0     H38396   1.299   2.275   5.295 -0.6781 -1.6743 -0.4769
  291MOL0     H38397   1.532   2.221   5.373  4.0370 -0.2048 -1.7779
  291MOL0     H38398   3.404   1.908   6.126  0.0537 -0.1673  1.9351
  291MOL0     H38399   3.652   1.972   6.128 -0.7138 -0.7144 -2.0512
  291MOL0     H38400   4.011   2.151   6.103 -0.0053  0.8165 -0.5173
  291MOL0     H38401   4.232   2.191   6.086 -1.7250 -1.5592  0.1820
  291MOL0     H38402   4.494   2.318   6.088  2.9763  0.8060  0.8851
  291MOL0     H38403   4.425   2.184   6.192 -2.8189  1.4419  0.6787
  291MOL0     H38404   4.560   2.265   6.364  0.1261  1.4430 -0.2479
  291MOL0     H38405   4.659   2.196   6.237  0.4178 -0.3788  0.4458
  291MOL0     H38406   4.636   2.500   6.310  2.8200  0.2038  2.0471
  291MOL0     H38407   4.662   2.446   6.142 -0.7415 -2.5766 -0.9522
  291MOL0     H38408   4.830   2.378   6.378 -2.6933  3.2773  1.7056
  291MOL0     H38409   4.843   2.330   6.198 -3.5132  0.3474 -1.4180
  291MOL0     H38410   5.084   2.664   6.283  0.3619  1.1623  1.5034
  291MOL0     H38411   4.208   2.451   6.440  3.9501  0.4905 -1.1307
  291MOL0     H38412   3.977   2.413   6.441  0.8439 -0.6659  0.2453
  292MOL0     O38413   8.007   1.373   9.296  0.0184  0.4611  0.9081
  292MOL0     C38414   8.022   1.499   9.292 -0.6093 -0.3586 -0.5709
  292MOL0     O38415   7.953   1.591   9.227  0.2603 -0.2775 -0.5205
  292MOL0     C38416   7.826   1.560   9.168  0.7965  0.4585  0.0718
  292MOL0     C38417   7.718   1.509   9.237 -0.4551 -0.5259 -0.2604
  292MOL0     C38418   7.600   1.470   9.170  0.0727  0.4875 -0.4161
  292MOL0     C38419   7.580   1.498   9.038 -0.7209 -0.3498  0.8560
  292MOL0     O38420   7.467   1.443   8.978  0.6612  0.0424 -0.2795
  292MOL0     C38421   7.402   1.523   8.873  0.0391  0.1615 -0.2879
  292MOL0     C38422   7.259   1.480   8.862  0.5799  0.3068  0.0449
  292MOL0     C38423   7.180   1.593   8.802  0.1289 -0.8998  0.4154
  292MOL0     C38424   7.030   1.566   8.828 -0.0509  0.1367  0.6613
  292MOL0     C38425   6.954   1.683   8.882 -0.8389 -0.6442 -0.9803
  292MOL0     C38426   6.917   1.793   8.786  0.2009 -0.4179 -0.3542
  292MOL0     C38427   6.844   1.899   8.870 -0.2497  0.7887  0.0418
  292MOL0     C38428   6.702   1.850   8.907 -0.2831  0.2403 -0.2016
  292MOL0     N38429   6.608   1.952   8.955 -0.0044  0.6255  0.7280
  292MOL0     C38430   6.511   2.016   8.889  1.4596  0.5576 -0.4699
  292MOL0     C38431   6.432   2.071   8.986 -0.5597  0.1785 -0.3499
  292MOL0     C38432   6.308   2.152   8.962  0.1346  1.1410 -0.5776
  292MOL0     C38433   6.192   2.097   9.038 -0.5992  0.2797  1.0287
  292MOL0     C38434   6.174   2.139   9.183 -1.1532  0.6010 -0.0168
  292MOL0     C38435   6.154   2.282   9.207  0.2119  0.1901 -0.1922
  292MOL0     O38436   6.120   2.305   9.345 -0.4345 -0.6096  0.2016
  292MOL0     C38437   5.989   2.299   9.390  0.3289 -0.6648 -0.1170
  292MOL0     C38438   5.966   2.324   9.519 -0.5402  0.3766  0.9138
  292MOL0     C38439   5.838   2.339   9.578  0.2377 -0.5784 -0.3955
  292MOL0     C38440   5.728   2.316   9.502 -0.2249  0.3947 -0.8676
  292MOL0     C38441   5.587   2.325   9.556 -0.1185  0.1475 -0.8983
  292MOL0     O38442   5.565   2.398   9.675 -0.1620  0.1678  0.9221
  292MOL0     C38443   5.439   2.425   9.713 -0.6465 -0.1416 -0.2082
  292MOL0     C38444   5.352   2.529   9.658 -0.5025 -0.4751 -1.0653
  292MOL0     C38445   5.235   2.563   9.724 -0.2829 -0.2281  0.3610
  292MOL0     C38446   5.186   2.494   9.835  0.0027 -0.4478  0.0938
  292MOL0     O38447   5.060   2.536   9.874  0.1500 -0.1606  0.1388
  292MOL0     C38448   4.989   2.452   9.961  0.8435 -0.2344  0.6898
  292MOL0     C38449   4.847   2.510   9.982  0.7795  0.0373  0.1948
  292MOL0     C38450   4.837   2.627  10.068  0.5554 -0.4935  0.1625
  292MOL0     C38451   4.690   2.688  10.070 -0.2411  0.0031 -0.4375
  292MOL0     C38452   4.669   2.810  10.155  0.2798 -0.3393 -0.0932
  292MOL0     C38453   4.680   2.783  10.307 -0.2257 -0.2167 -0.6097
  292MOL0     C38454   4.643   2.909  10.377  0.4258  0.1291  0.7390
  292MOL0     C38455   4.632   2.894  10.532  1.0923  1.1098 -0.6326
  292MOL0    Cl38456   4.466   2.825  10.564 -0.0740  0.2857 -0.5501
  292MOL0     C38457   5.265   2.395   9.889 -0.9132 -0.3623  0.6852
  292MOL0     C38458   5.390   2.361   9.830 -0.0345  0.9349  0.1501
  292MOL0     O38459   5.495   2.282   9.490  0.1666 -0.5889  0.6498
  292MOL0     C38460   5.747   2.273   9.368  0.1622  0.3149 -0.4509
  292MOL0     C38461   5.873   2.266   9.308 -0.4185 -0.4779  0.3734
  292MOL0     N38462   6.495   2.053   9.111  0.1168  0.1507  0.2489
  292MOL0     N38463   6.593   1.977   9.084  0.4996 -0.1623 -0.0141
  292MOL0     C38464   7.683   1.569   8.972  0.6707  0.7307 -0.5563
  292MOL0     C38465   7.805   1.602   9.037  0.2794 -0.1948 -0.1324
  292MOL0     C38466   8.129   1.559   9.373  0.6067  1.1878 -0.4761
  292MOL0     C38467   8.231   1.470   9.426 -0.3258 -0.6596 -0.4985
  292MOL0     C38468   8.322   1.516   9.527 -0.8063 -0.4844  0.9353
  292MOL0     C38469   8.299   1.643   9.582 -0.4017 -0.0268  0.3696
  292MOL0     O38470   8.357   1.707   9.688 -0.9933  0.1716 -0.3762
  292MOL0     C38471   8.440   1.618   9.771 -0.4926  0.0105  0.6759
  292MOL0     C38472   8.587   1.598   9.727 -0.5814  0.9203 -0.3301
  292MOL0     C38473   8.680   1.709   9.766  0.1703 -0.5813 -0.5259
  292MOL0     C38474   8.824   1.667   9.751  0.5301  0.2872 -0.1979
  292MOL0     C38475   8.909   1.761   9.823 -1.1256  0.2738 -1.1928
  292MOL0     C38476   9.005   1.832   9.867 -0.8194 -0.0961  0.8834
  292MOL0     C38477   8.199   1.730   9.523 -0.0534 -0.4353  0.4792
  292MOL0     C38478   8.108   1.690   9.424 -0.0905  0.4141  0.1880
  292MOL0     H38479   7.754   1.474   9.334 -0.9622  0.8262  0.4299
  292MOL0     H38480   7.525   1.404   9.214 -0.0299 -0.1448 -1.5083
  292MOL0     H38481   7.446   1.529   8.773 -1.7675  2.6925 -1.0441
  292MOL0     H38482   7.399   1.625   8.912 -2.9508  0.1879 -0.3123
  292MOL0     H38483   7.219   1.446   8.958  1.1710 -1.4480 -0.2985
  292MOL0     H38484   7.261   1.393   8.795  0.6739 -0.2666  0.7851
  292MOL0     H38485   7.207   1.617   8.699 -0.6824 -1.6826  0.0142
  292MOL0     H38486   7.197   1.684   8.861 -0.8047 -0.9976  0.8495
  292MOL0     H38487   6.983   1.532   8.735 -2.4921 -0.3086  1.9796
  292MOL0     H38488   7.012   1.487   8.901 -1.5131 -1.9087 -1.7510
  292MOL0     H38489   7.010   1.727   8.965 -0.2029  2.8649 -3.0451
  292MOL0     H38490   6.872   1.626   8.924  1.3382 -3.4888 -0.3226
  292MOL0     H38491   6.857   1.756   8.702  0.2829 -1.7243  0.1365
  292MOL0     H38492   7.011   1.837   8.751  0.3100  2.6048  3.1584
  292MOL0     H38493   6.906   1.925   8.957 -0.8583 -0.9010  1.0292
  292MOL0     H38494   6.836   1.980   8.797  1.6298 -0.5362 -1.7239
  292MOL0     H38495   6.711   1.764   8.975  1.8845 -0.0043 -0.7554
  292MOL0     H38496   6.655   1.813   8.816 -1.0807  1.9841 -0.5435
  292MOL0     H38497   6.477   2.025   8.786 -1.8819  0.5991  0.5251
  292MOL0     H38498   6.279   2.151   8.856 -1.1474  3.4663 -0.3142
  292MOL0     H38499   6.315   2.256   8.995  1.6216  0.8852 -0.0207
  292MOL0     H38500   6.207   1.989   9.041 -1.3917  0.0396 -1.3449
  292MOL0     H38501   6.100   2.133   8.991  0.2068  1.3161  0.1870
  292MOL0     H38502   6.097   2.073   9.222  0.4846 -0.6047  1.3471
  292MOL0     H38503   6.268   2.109   9.231 -1.3103  1.4733  0.8858
  292MOL0     H38504   6.075   2.337   9.155  0.9105  1.7396  0.3017
  292MOL0     H38505   6.244   2.337   9.178 -0.1373  0.5971 -0.5215
  292MOL0     H38506   6.052   2.336   9.584  0.7978 -2.6035 -0.1232
  292MOL0     H38507   5.827   2.371   9.681 -2.2364 -0.0910 -0.7469
  292MOL0     H38508   5.391   2.584   9.572 -0.4213  0.9684 -0.1349
  292MOL0     H38509   5.181   2.649   9.686 -0.2042  0.7188  2.2615
  292MOL0     H38510   5.030   2.447  10.063  0.5204 -2.5882  0.7808
  292MOL0     H38511   4.975   2.354   9.914 -1.1111  1.4178 -2.4241
  292MOL0     H38512   4.784   2.422   9.998 -0.9580 -0.4082 -6.3931
  292MOL0     H38513   4.800   2.545   9.890 -2.6490 -0.5885  1.5381
  292MOL0     H38514   4.916   2.693  10.029 -0.7976  1.9638  1.3583
  292MOL0     H38515   4.858   2.590  10.169  0.1845 -0.7136  0.1584
  292MOL0     H38516   4.664   2.718   9.968 -0.7253  0.1621 -0.2691
  292MOL0     H38517   4.612   2.615  10.096  0.0500 -0.4543 -0.8327
  292MOL0     H38518   4.573   2.854  10.128  0.9084  0.8962 -0.3586
  292MOL0     H38519   4.750   2.870  10.112 -1.1656 -0.2457 -2.9056
  292MOL0     H38520   4.781   2.757  10.337 -0.9128 -0.7046  1.4138
  292MOL0     H38521   4.607   2.705  10.332  0.0426 -0.3821 -0.3464
  292MOL0     H38522   4.725   2.979  10.355  1.4139 -0.9356  0.9434
  292MOL0     H38523   4.547   2.950  10.344  1.5302  4.4221  2.2165
  292MOL0     H38524   4.636   2.983  10.595 -0.0615 -0.3046  1.5364
  292MOL0     H38525   4.704   2.825  10.577  0.0119  0.5837  0.3265
  292MOL0     H38526   5.225   2.329   9.965 -2.3437 -1.2035 -0.7396
  292MOL0     H38527   5.442   2.278   9.876  1.1537 -0.0280 -2.6959
  292MOL0     H38528   5.654   2.260   9.314  0.3373  0.0470 -0.6925
  292MOL0     H38529   5.880   2.246   9.201  0.2678  2.6301 -0.2469
  292MOL0     H38530   7.666   1.591   8.867 -1.8485  2.9442  0.1967
  292MOL0     H38531   7.891   1.640   8.983 -0.6155  1.9727 -0.1329
  292MOL0     H38532   8.246   1.369   9.390  0.7875 -1.2248  1.4104
  292MOL0     H38533   8.403   1.455   9.565  0.9810  2.0786  1.4641
  292MOL0     H38534   8.388   1.522   9.775  1.3500 -1.3490 -2.8643
  292MOL0     H38535   8.444   1.649   9.875  0.4983 -0.2697  0.7384
  292MOL0     H38536   8.623   1.505   9.773  0.1240  0.6040 -1.4702
  292MOL0     H38537   8.585   1.594   9.617 -1.8416  0.6295 -0.3140
  292MOL0     H38538   8.656   1.732   9.870  0.1689  0.0428 -0.6623
  292MOL0     H38539   8.652   1.795   9.705 -0.7135  0.3561  1.1399
  292MOL0     H38540   8.838   1.570   9.800  0.1912 -0.4898 -1.5788
  292MOL0     H38541   8.853   1.665   9.646  0.2960  1.1968 -0.2855
  292MOL0     H38542   9.084   1.887   9.916  0.5520 -0.9114 -0.3372
  292MOL0     H38543   8.190   1.835   9.552  1.1092 -0.0518 -0.5084
  292MOL0     H38544   8.021   1.753   9.407 -0.4755  0.6400  2.6500
  293MOL0     O38545   5.531   6.114   8.577  0.2849 -0.8828 -0.1181
  293MOL0     C38546   5.577   5.999   8.578  0.7389 -0.3649 -0.2137
  293MOL0     O38547   5.495   5.887   8.586 -0.6114  0.0572  0.6316
  293MOL0     C38548   5.355   5.888   8.590  0.4775  0.0702 -0.4560
  293MOL0     C38549   5.277   5.993   8.539  0.6921  0.3401 -0.2712
  293MOL0     C38550   5.144   5.984   8.544  0.9583  0.0247 -0.3128
  293MOL0     C38551   5.076   5.873   8.597  0.8349  0.7715 -1.2526
  293MOL0     O38552   4.944   5.879   8.586  0.4026  0.3438 -0.0567
  293MOL0     C38553   4.874   5.752   8.564 -1.0488 -0.1279 -1.2664
  293MOL0     C38554   4.729   5.763   8.531 -0.6625  0.1258  0.0326
  293MOL0     C38555   4.643   5.794   8.648  0.2684  0.2301 -0.1607
  293MOL0     C38556   4.496   5.755   8.635  0.2166 -0.3070  0.0247
  293MOL0     C38557   4.410   5.779   8.766  0.0076  0.6647  0.4074
  293MOL0     C38558   4.399   5.931   8.798  0.4864 -0.0409 -0.5110
  293MOL0     C38559   4.344   5.958   8.939  0.0471 -0.3348 -0.6854
  293MOL0     C38560   4.192   5.963   8.942 -0.2796  0.7361  0.6244
  293MOL0     N38561   4.129   6.096   8.919  0.4299 -0.3901  0.8321
  293MOL0     C38562   4.154   6.214   8.992 -0.9075  0.0993 -0.4481
  293MOL0     C38563   4.102   6.311   8.911 -0.2880  0.4014 -0.3535
  293MOL0     C38564   4.124   6.452   8.922  0.2954 -1.1350 -0.3229
  293MOL0     C38565   4.000   6.511   8.985 -0.6582 -0.3939  0.9255
  293MOL0     C38566   3.881   6.530   8.893  0.2231 -0.0358 -0.8756
  293MOL0     C38567   3.742   6.549   8.954 -0.3076 -0.9617 -0.3592
  293MOL0     O38568   3.641   6.596   8.865 -0.8785  0.0988  0.4071
  293MOL0     C38569   3.519   6.627   8.923 -0.6888 -0.2043 -0.4579
  293MOL0     C38570   3.508   6.628   9.061 -0.1632 -0.3727  0.1630
  293MOL0     C38571   3.384   6.646   9.123  0.4236  0.5222  0.4610
  293MOL0     C38572   3.273   6.680   9.041  0.1935  0.1655 -0.5209
  293MOL0     C38573   3.144   6.712   9.108  0.7961 -0.3874  0.8706
  293MOL0     O38574   3.039   6.741   9.028  0.5617 -0.3468 -0.4179
  293MOL0     C38575   2.920   6.797   9.075 -1.1710  0.2482  0.5404
  293MOL0     C38576   2.856   6.875   8.984  0.5959 -0.6379 -0.3884
  293MOL0     C38577   2.722   6.930   9.002 -0.7742 -0.5875  0.1116
  293MOL0     C38578   2.661   6.897   9.117 -0.2080 -0.6163  0.3709
  293MOL0     O38579   2.533   6.927   9.147 -0.0395  0.4493 -0.3404
  293MOL0     C38580   2.493   7.061   9.117  0.4989 -0.2279 -0.6583
  293MOL0     C38581   2.378   7.109   9.206 -0.1332  0.1401  0.0852
  293MOL0     C38582   2.251   7.022   9.181  0.8443 -0.0893  0.8115
  293MOL0     C38583   2.135   7.100   9.234  0.3674 -0.8212  0.3656
  293MOL0     C38584   2.011   7.017   9.247 -0.1148 -0.2100 -0.1106
  293MOL0     C38585   2.008   6.883   9.312  0.0596  1.0936 -0.4425
  293MOL0     C38586   2.070   6.883   9.458 -0.0950  0.0853  0.4842
  293MOL0     C38587   2.117   6.749   9.506 -0.0166 -0.5221  0.5473
  293MOL0    Cl38588   2.257   6.693   9.414  0.1542  0.2705  0.0404
  293MOL0     C38589   2.725   6.815   9.216  0.2168  0.0307  0.4336
  293MOL0     C38590   2.849   6.755   9.184 -0.5557 -1.0575 -0.1992
  293MOL0     O38591   3.136   6.726   9.228  0.4404 -1.1289  0.1212
  293MOL0     C38592   3.281   6.674   8.903  0.1691 -0.6352  0.6310
  293MOL0     C38593   3.404   6.643   8.843 -0.6856  1.4989 -0.9432
  293MOL0     N38594   4.029   6.252   8.815  0.2674  0.1728 -0.3735
  293MOL0     N38595   4.056   6.126   8.809  0.0536 -0.4772 -0.0792
  293MOL0     C38596   5.153   5.769   8.637 -0.1932  0.5035 -0.7196
  293MOL0     C38597   5.296   5.775   8.641  0.5362 -0.2859  0.2112
  293MOL0     C38598   5.729   5.984   8.574  0.0559  0.3057  0.0402
  293MOL0     C38599   5.818   6.090   8.585  0.1109  0.5592  0.4411
  293MOL0     C38600   5.960   6.072   8.570  0.3122 -0.0255  0.5193
  293MOL0     C38601   6.015   5.942   8.550  0.0981 -1.0705 -0.1822
  293MOL0     O38602   6.148   5.927   8.537  0.5716 -0.2235  0.2542
  293MOL0     C38603   6.209   6.013   8.439  0.1994  0.4438  0.0815
  293MOL0     C38604   6.329   5.936   8.380 -0.1006  0.4562 -0.8040
  293MOL0     C38605   6.461   5.978   8.456 -0.6625 -0.4253  0.9779
  293MOL0     C38606   6.580   5.953   8.362 -0.6362 -0.1069  0.4845
  293MOL0     C38607   6.697   6.022   8.410 -0.3627 -0.2251 -0.7959
  293MOL0     C38608   6.785   6.073   8.467  0.3550  1.0459 -0.3269
  293MOL0     C38609   5.924   5.839   8.553 -0.9073  0.1163 -0.3158
  293MOL0     C38610   5.785   5.857   8.570  0.3547 -0.6172 -0.0786
  293MOL0     H38611   5.330   6.087   8.527  1.8610  0.1204  2.5171
  293MOL0     H38612   5.090   6.072   8.509 -0.4811  0.7867  3.3131
  293MOL0     H38613   4.891   5.692   8.654  0.0579  1.3577 -0.4340
  293MOL0     H38614   4.921   5.702   8.479 -0.7075 -0.9007 -0.6267
  293MOL0     H38615   4.688   5.673   8.485 -1.9455  0.0231  1.2896
  293MOL0     H38616   4.717   5.846   8.461 -2.0014  0.7458  0.9281
  293MOL0     H38617   4.645   5.903   8.655  0.8198  0.3832 -2.1715
  293MOL0     H38618   4.687   5.741   8.733 -2.0130 -0.4450  0.6774
  293MOL0     H38619   4.449   5.818   8.559  0.8796  1.4821  1.0340
  293MOL0     H38620   4.487   5.650   8.605 -4.1769 -0.3430  0.8475
  293MOL0     H38621   4.460   5.721   8.844 -2.5605  0.3062  1.8844
  293MOL0     H38622   4.310   5.739   8.746  0.1280  1.0412 -1.0687
  293MOL0     H38623   4.333   5.981   8.726 -0.0840 -0.0255  0.0146
  293MOL0     H38624   4.499   5.975   8.798  0.9959 -1.1079  1.1088
  293MOL0     H38625   4.386   5.886   9.009 -3.0935  0.3556  2.1522
  293MOL0     H38626   4.386   6.044   8.991  1.2263 -3.7838  4.8370
  293MOL0     H38627   4.156   5.928   9.040  0.0996 -0.6693  0.2933
  293MOL0     H38628   4.161   5.894   8.863  0.2033  0.3605  0.7548
  293MOL0     H38629   4.214   6.224   9.082  0.7377 -3.2675 -1.0179
  293MOL0     H38630   4.145   6.493   8.823 -0.7454 -0.1895 -0.1714
  293MOL0     H38631   4.210   6.466   8.988 -0.7090 -0.5548  0.9024
  293MOL0     H38632   4.020   6.611   9.026 -1.8111  0.3588 -0.2603
  293MOL0     H38633   3.981   6.444   9.069  3.0475 -2.1051  0.5869
  293MOL0     H38634   3.897   6.616   8.828  0.2539 -0.8975 -2.0305
  293MOL0     H38635   3.888   6.442   8.829  0.1348 -0.3531 -0.4612
  293MOL0     H38636   3.761   6.618   9.036  1.7685 -1.3678 -0.4288
  293MOL0     H38637   3.697   6.454   8.985 -2.0773 -1.0224 -2.8360
  293MOL0     H38638   3.592   6.631   9.129  1.0546  0.2010 -1.3215
  293MOL0     H38639   3.383   6.652   9.231 -1.4156  2.4105  0.3921
  293MOL0     H38640   2.916   6.898   8.896  0.7275  1.1007  0.1272
  293MOL0     H38641   2.674   6.994   8.928 -1.5579 -0.4330  0.7373
  293MOL0     H38642   2.466   7.058   9.011  0.6522 -3.1838 -0.6964
  293MOL0     H38643   2.575   7.133   9.125  0.0908  0.1774 -0.1108
  293MOL0     H38644   2.358   7.216   9.191  1.9802  0.6094  0.2642
  293MOL0     H38645   2.407   7.092   9.310 -1.0992 -1.2443  0.1535
  293MOL0     H38646   2.258   6.923   9.228  0.5477 -0.1392  0.7517
  293MOL0     H38647   2.236   7.007   9.074  0.6595 -0.2233  0.8549
  293MOL0     H38648   2.149   7.150   9.330 -0.7045  0.3341 -0.0450
  293MOL0     H38649   2.108   7.178   9.162  0.3525 -1.8122 -0.7142
  293MOL0     H38650   1.980   6.993   9.145  2.2539 -2.0419 -0.4857
  293MOL0     H38651   1.940   7.076   9.306  1.0910 -1.7010  3.0863
  293MOL0     H38652   2.058   6.811   9.247  0.0617  0.8701 -0.1946
  293MOL0     H38653   1.905   6.845   9.317  0.0200  1.1991 -0.4459
  293MOL0     H38654   2.156   6.950   9.465  0.3170 -0.5928  2.1840
  293MOL0     H38655   1.994   6.918   9.528  2.2179  0.6279  2.8998
  293MOL0     H38656   2.028   6.688   9.490 -0.5024  0.7667 -1.9982
  293MOL0     H38657   2.144   6.753   9.612 -0.6473 -1.2137  0.7420
  293MOL0     H38658   2.670   6.792   9.306 -0.1857 -1.9227 -0.2573
  293MOL0     H38659   2.908   6.694   9.252  0.0519  1.1994  1.4207
  293MOL0     H38660   3.198   6.692   8.836  0.8818  0.3231 -0.0244
  293MOL0     H38661   3.416   6.621   8.737  1.9576 -4.1205  0.1336
  293MOL0     H38662   5.118   5.676   8.682  1.2776  0.9977  1.6405
  293MOL0     H38663   5.360   5.690   8.664  1.4232 -0.9558 -3.9969
  293MOL0     H38664   5.775   6.190   8.582 -1.7012 -0.1187  1.7567
  293MOL0     H38665   6.026   6.157   8.588 -0.2662  0.5431  0.0392
  293MOL0     H38666   6.235   6.104   8.492  0.3890 -1.3041  3.2614
  293MOL0     H38667   6.138   6.040   8.361 -0.8476  3.5101  1.9286
  293MOL0     H38668   6.310   5.828   8.377  1.2006  0.1497  0.5236
  293MOL0     H38669   6.337   5.980   8.280  2.2924  2.5231  0.1740
  293MOL0     H38670   6.460   5.921   8.549 -0.1295 -0.1237  1.1653
  293MOL0     H38671   6.448   6.083   8.484 -1.7416  0.7319 -3.0587
  293MOL0     H38672   6.588   5.845   8.349  2.9692  0.1013 -0.0271
  293MOL0     H38673   6.571   5.997   8.263  0.1804  1.2226  0.9616
  293MOL0     H38674   6.877   6.122   8.490  0.7394 -0.1295  0.7187
  293MOL0     H38675   5.971   5.741   8.559  1.0475  1.0880  1.2942
  293MOL0     H38676   5.727   5.765   8.571 -1.4339  0.4241 -1.2018
  294MOL0     O38677   7.128   8.966   7.508 -0.6405  0.1908  0.0463
  294MOL0     C38678   7.167   9.024   7.404  0.3429 -0.1372  0.4717
  294MOL0     O38679   7.090   9.064   7.302 -0.5691 -0.1365  0.2903
  294MOL0     C38680   6.957   9.034   7.288 -0.1212  0.4126 -1.0304
  294MOL0     C38681   6.912   9.050   7.156  0.1001 -0.8551 -0.7131
  294MOL0     C38682   6.776   9.054   7.124 -0.4727 -0.4117  0.5740
  294MOL0     C38683   6.689   9.030   7.225 -0.2111  0.3471 -0.4350
  294MOL0     O38684   6.556   9.037   7.195  0.2473  0.0787  0.6621
  294MOL0     C38685   6.462   8.996   7.300 -0.0446 -0.2368 -0.3865
  294MOL0     C38686   6.327   9.000   7.239  0.0494  0.5612 -0.3352
  294MOL0     C38687   6.273   9.146   7.221  0.3016 -0.1808  0.0587
  294MOL0     C38688   6.114   9.131   7.200 -0.1315 -0.6141 -0.1205
  294MOL0     C38689   6.043   9.260   7.218 -0.3960  0.0645  0.4559
  294MOL0     C38690   5.889   9.256   7.196  0.0424 -0.3563 -0.1803
  294MOL0     C38691   5.816   9.185   7.306 -0.4601  0.1348 -0.1789
  294MOL0     C38692   5.776   9.037   7.273 -0.3205 -0.6857  0.0015
  294MOL0     N38693   5.683   9.035   7.163 -0.1902 -0.3566  0.0095
  294MOL0     C38694   5.551   9.069   7.173  0.7967  0.1610 -0.5161
  294MOL0     C38695   5.505   9.052   7.047  0.3629 -0.5989  0.2596
  294MOL0     C38696   5.372   9.079   6.985  1.0930 -0.1093 -0.4115
  294MOL0     C38697   5.326   9.233   7.001 -0.1871  0.1586 -0.4545
  294MOL0     C38698   5.193   9.257   6.934 -0.7087  0.4606  0.0868
  294MOL0     C38699   5.080   9.151   6.952  0.1570  0.0442  0.6484
  294MOL0     O38700   4.958   9.202   6.903  0.1755  0.1586 -0.1621
  294MOL0     C38701   4.843   9.130   6.913 -0.4220  0.1496  0.1651
  294MOL0     C38702   4.723   9.195   6.880  0.4897 -0.5476  0.2211
  294MOL0     C38703   4.593   9.133   6.868 -0.4944 -0.9284  0.5772
  294MOL0     C38704   4.582   9.002   6.901 -1.0990  0.2567  0.3661
  294MOL0     C38705   4.454   8.944   6.902  0.4303 -0.0219 -0.2460
  294MOL0     O38706   4.450   8.812   6.934  0.9804 -0.0580 -0.1309
  294MOL0     C38707   4.325   8.754   6.957  0.3724  0.3700 -0.3428
  294MOL0     C38708   4.214   8.771   6.878  0.2099  0.0501  0.3739
  294MOL0     C38709   4.089   8.719   6.913 -0.0253 -0.3162  0.4465
  294MOL0     C38710   4.071   8.652   7.037 -0.4036  0.3205  0.4944
  294MOL0     O38711   3.946   8.605   7.081  0.2581  0.8079  0.3035
  294MOL0     C38712   3.921   8.656   7.205  0.4540  0.7231  0.3311
  294MOL0     C38713   3.769   8.632   7.233 -0.3772 -0.1132  0.1626
  294MOL0     C38714   3.686   8.699   7.128  0.2625  0.0675 -0.5898
  294MOL0     C38715   3.541   8.708   7.171 -0.0190  0.0616 -0.9049
  294MOL0     C38716   3.454   8.769   7.070  0.8274  0.2030  0.2194
  294MOL0     C38717   3.305   8.772   7.106  0.4216 -0.2291  0.3950
  294MOL0     C38718   3.223   8.820   6.986  0.1385 -0.2492  0.1947
  294MOL0     C38719   3.248   8.979   6.962 -0.2422  0.1641  0.1041
  294MOL0    Cl38720   3.186   9.023   6.798 -0.5420 -0.0673  0.4869
  294MOL0     C38721   4.188   8.627   7.108  0.6134  0.3187 -1.4088
  294MOL0     C38722   4.305   8.692   7.078 -0.5305 -0.3126  0.0176
  294MOL0     O38723   4.353   9.019   6.888  0.6797  0.4342  0.2301
  294MOL0     C38724   4.707   8.927   6.928 -0.0617 -0.2068  0.1466
  294MOL0     C38725   4.828   8.991   6.942  0.4330 -0.5570 -0.8891
  294MOL0     N38726   5.603   9.019   6.967  0.0902 -0.1772 -0.1199
  294MOL0     N38727   5.713   9.006   7.034 -0.4632 -0.6406  0.4068
  294MOL0     C38728   6.728   9.010   7.356 -1.3879  0.6574 -0.3585
  294MOL0     C38729   6.864   9.006   7.387  0.2080 -0.4193 -0.2818
  294MOL0     C38730   7.315   9.040   7.395 -0.6109 -0.7826  0.0830
  294MOL0     C38731   7.406   8.995   7.496 -0.2647 -0.5588  0.0036
  294MOL0     C38732   7.544   9.007   7.482 -0.1092 -0.2180 -0.0743
  294MOL0     C38733   7.602   9.058   7.363 -0.5697  0.5634 -0.1880
  294MOL0     O38734   7.741   9.048   7.351 -0.4617  0.1741  0.3471
  294MOL0     C38735   7.794   9.045   7.218 -0.9536  0.2078  0.3690
  294MOL0     C38736   7.951   9.022   7.230 -0.1163  0.4877 -0.1864
  294MOL0     C38737   8.025   9.157   7.266 -1.2474 -0.5367  0.6304
  294MOL0     C38738   8.173   9.134   7.301  0.4692 -0.3942 -0.2062
  294MOL0     C38739   8.250   9.074   7.188  0.3790  0.1554 -0.4348
  294MOL0     C38740   8.323   9.030   7.105 -0.1021 -0.1084 -0.8424
  294MOL0     C38741   7.518   9.114   7.273  0.5216  0.2849  0.1642
  294MOL0     C38742   7.377   9.104   7.279 -0.5703  0.4640 -0.0156
  294MOL0     H38743   6.991   9.085   7.090  0.3029 -1.2377 -0.6764
  294MOL0     H38744   6.739   9.080   7.025 -1.4714 -0.8206  0.8299
  294MOL0     H38745   6.472   9.069   7.380 -1.9034 -0.2159 -0.1454
  294MOL0     H38746   6.482   8.899   7.346  0.3757  0.2674  0.5150
  294MOL0     H38747   6.271   8.946   7.316  2.6035 -3.1874 -0.8018
  294MOL0     H38748   6.335   8.943   7.146  0.9115  1.6489 -0.9531
  294MOL0     H38749   6.311   9.195   7.130 -2.5474 -0.4338 -1.3684
  294MOL0     H38750   6.295   9.209   7.307  0.2248  0.2929 -0.2647
  294MOL0     H38751   6.091   9.078   7.107 -2.0446 -3.3484  1.7381
  294MOL0     H38752   6.090   9.064   7.283 -0.2550  0.2026  0.5163
  294MOL0     H38753   6.090   9.328   7.147  1.3361  0.1757  1.6630
  294MOL0     H38754   6.069   9.293   7.319  1.3389 -0.9415  0.3781
  294MOL0     H38755   5.872   9.208   7.098  0.7916 -0.5388 -0.2293
  294MOL0     H38756   5.852   9.359   7.193 -0.7296 -0.6227 -0.1217
  294MOL0     H38757   5.875   9.181   7.398  2.7770 -0.9250 -2.1508
  294MOL0     H38758   5.726   9.244   7.326 -0.3845 -0.4791  2.2149
  294MOL0     H38759   5.751   8.982   7.364  1.5648 -0.1406  0.9089
  294MOL0     H38760   5.867   8.988   7.237 -2.0009 -2.5413 -1.9934
  294MOL0     H38761   5.489   9.084   7.261 -0.1519 -0.1011 -1.1168
  294MOL0     H38762   5.304   9.013   7.038  2.5138 -2.8446 -1.7890
  294MOL0     H38763   5.368   9.047   6.880 -1.2498  1.2358 -0.7939
  294MOL0     H38764   5.390   9.308   6.955 -1.1140  1.4559  0.3051
  294MOL0     H38765   5.325   9.256   7.108  2.6428 -0.7374 -0.1530
  294MOL0     H38766   5.154   9.350   6.974 -2.5339 -1.1071  2.2146
  294MOL0     H38767   5.207   9.272   6.827 -1.8184 -0.4007 -0.1973
  294MOL0     H38768   5.069   9.137   7.060  1.6410  1.4573  1.0244
  294MOL0     H38769   5.112   9.057   6.907  0.3711 -0.0820  1.0614
  294MOL0     H38770   4.736   9.302   6.865 -2.2383  0.0686  1.5287
  294MOL0     H38771   4.506   9.189   6.836 -0.6838 -1.3670  0.3253
  294MOL0     H38772   4.231   8.828   6.787  1.8186 -0.8007  0.0900
  294MOL0     H38773   4.004   8.741   6.849  0.9951  0.9462 -0.5063
  294MOL0     H38774   3.939   8.764   7.207 -1.1824  1.2575 -3.7632
  294MOL0     H38775   3.983   8.601   7.276  0.0532 -0.0868  0.0710
  294MOL0     H38776   3.742   8.682   7.326 -0.4708  4.2027 -1.9642
  294MOL0     H38777   3.740   8.526   7.237  1.3902 -0.7693 -2.0009
  294MOL0     H38778   3.701   8.644   7.035  4.4301 -1.7254  0.8830
  294MOL0     H38779   3.727   8.797   7.103 -1.8514  0.2214 -4.2111
  294MOL0     H38780   3.506   8.606   7.188 -0.3517 -0.0215 -1.9791
  294MOL0     H38781   3.537   8.770   7.261  1.9993 -1.1517  0.0847
  294MOL0     H38782   3.464   8.713   6.977 -1.4469 -0.7806  0.5167
  294MOL0     H38783   3.491   8.870   7.046 -0.9125  0.5351 -1.2476
  294MOL0     H38784   3.295   8.832   7.197  3.1358 -1.8974  1.9074
  294MOL0     H38785   3.267   8.670   7.121 -1.4934 -0.1464 -2.8163
  294MOL0     H38786   3.249   8.763   6.896  1.6563  1.0058 -0.2063
  294MOL0     H38787   3.115   8.804   6.990 -0.1175  0.4923 -2.0724
  294MOL0     H38788   3.354   9.006   6.970 -0.3526  1.3140 -1.6994
  294MOL0     H38789   3.200   9.035   7.042 -1.2099  1.6491 -1.4451
  294MOL0     H38790   4.178   8.568   7.199  0.6875  2.8105  0.3151
  294MOL0     H38791   4.386   8.690   7.150  1.0711 -0.6240 -1.7473
  294MOL0     H38792   4.691   8.825   6.960  1.7957  0.0054  1.9524
  294MOL0     H38793   4.914   8.933   6.974 -0.4561 -2.3600 -1.5871
  294MOL0     H38794   6.664   8.986   7.441  1.6095 -1.8400  1.3932
  294MOL0     H38795   6.873   9.001   7.496 -0.0414 -2.2742 -0.3153
  294MOL0     H38796   7.370   8.936   7.579 -1.6186 -0.4775 -0.4941
  294MOL0     H38797   7.610   8.955   7.550  0.3373 -0.5645 -0.7595
  294MOL0     H38798   7.772   9.136   7.163  0.2844 -0.8316 -2.0127
  294MOL0     H38799   7.747   8.958   7.171  1.1382  0.3666 -2.2154
  294MOL0     H38800   7.957   8.945   7.308  2.4062 -1.3004 -1.9721
  294MOL0     H38801   7.988   8.975   7.138 -0.3221 -1.7300  0.7924
  294MOL0     H38802   7.980   9.208   7.351 -0.7005 -0.0806  0.6458
  294MOL0     H38803   8.015   9.216   7.175 -1.4911 -4.3077 -2.0566
  294MOL0     H38804   8.223   9.230   7.320  1.7999 -1.3870  1.6561
  294MOL0     H38805   8.184   9.067   7.387 -1.8446  2.7314  2.7860
  294MOL0     H38806   8.389   8.990   7.032 -0.6787  0.1721 -1.5240
  294MOL0     H38807   7.555   9.169   7.187 -1.7809 -1.8975 -2.4431
  294MOL0     H38808   7.322   9.155   7.200  0.9733  1.2951 -0.6028
  295MOL0     O38809   9.044   0.570   6.560  1.2302  1.2134  0.3898
  295MOL0     C38810   9.097   0.630   6.657  0.3331 -0.3421 -0.9661
  295MOL0     O38811   9.028   0.695   6.759 -0.2314  0.0471 -0.0259
  295MOL0     C38812   8.892   0.698   6.780 -0.1913 -0.0824  0.1199
  295MOL0     C38813   8.792   0.698   6.687  0.4951 -0.0826 -0.6670
  295MOL0     C38814   8.653   0.710   6.709 -0.0451 -0.4682  0.4731
  295MOL0     C38815   8.604   0.710   6.840  0.1341  1.2158  0.0771
  295MOL0     O38816   8.474   0.714   6.879  0.1566 -0.0299  0.3277
  295MOL0     C38817   8.365   0.708   6.781 -0.0550  0.1973 -0.0227
  295MOL0     C38818   8.245   0.679   6.870 -0.5315  0.0551 -1.0404
  295MOL0     C38819   8.120   0.685   6.783 -1.6168 -0.0941  0.0102
  295MOL0     C38820   8.007   0.614   6.862 -0.5017 -0.2592 -0.7997
  295MOL0     C38821   7.865   0.667   6.835 -0.1494 -0.8149  0.1416
  295MOL0     C38822   7.825   0.698   6.690  0.1375  0.3435  0.2900
  295MOL0     C38823   7.686   0.749   6.671  0.0340  0.9598 -0.3099
  295MOL0     C38824   7.636   0.742   6.526 -0.1214 -0.3784 -0.4366
  295MOL0     N38825   7.500   0.807   6.530  0.2507 -0.0049  0.1991
  295MOL0     C38826   7.381   0.755   6.470 -0.0577  0.1691  0.1172
  295MOL0     C38827   7.283   0.848   6.485 -0.5019  0.1300  0.7819
  295MOL0     C38828   7.146   0.857   6.414  0.5398 -0.5154 -0.6310
  295MOL0     C38829   7.162   0.906   6.268 -0.2523 -0.9413 -0.1701
  295MOL0     C38830   7.036   0.948   6.196  0.5293  0.1094  0.6549
  295MOL0     C38831   7.062   1.012   6.058  0.1184 -0.4637  0.1864
  295MOL0     O38832   7.002   0.912   5.962 -0.6336  0.2606 -0.0908
  295MOL0     C38833   7.064   0.795   5.931  0.4103 -0.4488  0.0299
  295MOL0     C38834   6.990   0.680   5.887  0.5953  0.5186  0.2100
  295MOL0     C38835   7.055   0.553   5.875  0.0921  0.3830 -0.6409
  295MOL0     C38836   7.190   0.544   5.901  1.0249  0.6353 -0.0919
  295MOL0     C38837   7.253   0.411   5.871 -0.1655  0.0715 -0.5061
  295MOL0     O38838   7.396   0.411   5.876  0.1460 -0.1750 -0.2037
  295MOL0     C38839   7.479   0.308   5.846 -0.1318 -0.0178  0.3342
  295MOL0     C38840   7.445   0.195   5.766  0.4752  0.5012 -0.4332
  295MOL0     C38841   7.543   0.094   5.734  0.1911  0.2425 -0.3711
  295MOL0     C38842   7.676   0.115   5.773 -0.5559  0.0033  0.0365
  295MOL0     O38843   7.778   0.025   5.742 -0.0831  0.0284  0.8841
  295MOL0     C38844   7.745  -0.108   5.715  1.1027 -0.2938  0.3713
  295MOL0     C38845   7.866  -0.204   5.706  0.3135 -0.6693  0.1229
  295MOL0     C38846   7.896  -0.282   5.833  0.1879 -0.6053  0.3987
  295MOL0     C38847   8.041  -0.284   5.876  0.5067 -0.5647 -0.2146
  295MOL0     C38848   8.135  -0.338   5.755  0.3907 -1.1364 -0.2571
  295MOL0     C38849   8.271  -0.380   5.789 -0.4086 -0.8319 -0.9084
  295MOL0     C38850   8.344  -0.407   5.653 -0.3543  0.6177  0.2014
  295MOL0     C38851   8.297  -0.529   5.571  0.9693  0.6499 -0.3292
  295MOL0    Cl38852   8.272  -0.661   5.685 -0.1398 -0.1608  0.3696
  295MOL0     C38853   7.713   0.228   5.850 -1.2548 -0.1390 -0.4450
  295MOL0     C38854   7.611   0.324   5.887 -0.6654  0.5876  0.4971
  295MOL0     O38855   7.181   0.323   5.830 -0.6981  0.6295 -0.2830
  295MOL0     C38856   7.263   0.657   5.937  0.6042 -0.4778 -0.0039
  295MOL0     C38857   7.196   0.779   5.962 -0.1215 -0.2359  0.0681
  295MOL0     N38858   7.341   0.950   6.558  0.1345  0.4055  0.4173
  295MOL0     N38859   7.461   0.928   6.587  0.1475 -0.8826 -0.0036
  295MOL0     C38860   8.703   0.701   6.943  0.1068 -0.5428 -0.6170
  295MOL0     C38861   8.842   0.700   6.909  0.6838 -0.3820 -0.3092
  295MOL0     C38862   9.250   0.642   6.653 -0.0523  1.0119  0.3683
  295MOL0     C38863   9.325   0.679   6.771  0.5363  0.7527 -0.2679
  295MOL0     C38864   9.468   0.691   6.762 -0.1330 -0.4721 -0.4415
  295MOL0     C38865   9.534   0.678   6.638  0.3358 -0.4617 -0.6062
  295MOL0     O38866   9.666   0.713   6.616  0.4504  0.1454 -0.3095
  295MOL0     C38867   9.747   0.600   6.629  0.2053  0.9507  0.3696
  295MOL0     C38868   9.887   0.610   6.571 -0.3835 -0.0444  0.9026
  295MOL0     C38869   9.878   0.675   6.430 -0.6481 -0.6270  1.1298
  295MOL0     C38870   9.979   0.607   6.339  0.4228  0.1967 -0.2939
  295MOL0     C38871  10.112   0.619   6.389 -1.2980 -0.4929 -0.1646
  295MOL0     C38872  10.218   0.635   6.437 -0.1993 -0.4811 -1.0844
  295MOL0     C38873   9.455   0.631   6.530  0.0126  0.4807 -0.2355
  295MOL0     C38874   9.315   0.618   6.533  0.2890  0.2163  0.2358
  295MOL0     H38875   8.819   0.720   6.584  1.4719  1.8784 -0.0417
  295MOL0     H38876   8.594   0.710   6.617  0.6520 -0.9030  0.0171
  295MOL0     H38877   8.377   0.627   6.709 -0.8811 -0.4300  0.5254
  295MOL0     H38878   8.370   0.801   6.723  0.5955 -0.0394 -0.3410
  295MOL0     H38879   8.236   0.745   6.956  0.7374 -0.7107 -0.2833
  295MOL0     H38880   8.257   0.582   6.920  1.4857  1.8782  2.4116
  295MOL0     H38881   8.137   0.626   6.693  0.9426 -0.7782  0.8613
  295MOL0     H38882   8.096   0.789   6.758 -0.5732  0.3297  0.7057
  295MOL0     H38883   8.020   0.507   6.847  0.9948 -0.1354 -0.4817
  295MOL0     H38884   8.022   0.639   6.967  0.4971 -0.2170 -0.9453
  295MOL0     H38885   7.857   0.759   6.895 -2.6229 -1.0381  0.2300
  295MOL0     H38886   7.791   0.593   6.867 -0.1519 -1.2209 -0.7873
  295MOL0     H38887   7.833   0.601   6.640 -1.0047 -0.4186  1.5093
  295MOL0     H38888   7.899   0.762   6.642  2.8464  0.6982  4.3763
  295MOL0     H38889   7.624   0.676   6.725 -1.5341  0.0499 -3.1199
  295MOL0     H38890   7.677   0.847   6.719 -0.4093  0.3858  0.8098
  295MOL0     H38891   7.642   0.642   6.482  2.6406 -1.2406  1.6169
  295MOL0     H38892   7.696   0.797   6.453 -0.8026 -0.7087 -1.2572
  295MOL0     H38893   7.382   0.665   6.409  4.7942  0.2414 -0.3072
  295MOL0     H38894   7.087   0.936   6.461  0.6319 -1.0194  0.3479
  295MOL0     H38895   7.084   0.769   6.428 -1.3934  0.6289 -1.5687
  295MOL0     H38896   7.209   0.823   6.214  1.0643  0.9102 -2.0174
  295MOL0     H38897   7.238   0.985   6.268  0.7370 -1.8625  0.6520
  295MOL0     H38898   6.962   0.868   6.187 -1.9335  2.2300  0.7798
  295MOL0     H38899   6.987   1.026   6.255 -1.1352 -0.8530  0.6124
  295MOL0     H38900   7.167   1.028   6.033 -0.3563 -0.3656 -1.9456
  295MOL0     H38901   7.021   1.113   6.051  5.8608  2.4115  1.8184
  295MOL0     H38902   6.893   0.694   5.842 -0.3959  1.3440  2.4297
  295MOL0     H38903   7.004   0.465   5.837  0.5052  0.2537 -0.8995
  295MOL0     H38904   7.346   0.173   5.728  1.0275 -2.4209 -0.4332
  295MOL0     H38905   7.502   0.010   5.680 -2.6222  1.6551 -0.6174
  295MOL0     H38906   7.694  -0.120   5.618  0.1163 -1.2143  0.9776
  295MOL0     H38907   7.670  -0.151   5.782  1.6574 -3.1745 -0.6940
  295MOL0     H38908   7.948  -0.133   5.690  0.9180 -1.5705 -0.9118
  295MOL0     H38909   7.855  -0.272   5.621  0.9812 -1.3092  0.5361
  295MOL0     H38910   7.854  -0.383   5.827 -2.1585  0.2555  1.3777
  295MOL0     H38911   7.840  -0.243   5.918  0.3077  1.3523 -0.3744
  295MOL0     H38912   8.076  -0.189   5.918 -2.0585 -0.7186  2.5824
  295MOL0     H38913   8.051  -0.343   5.967 -0.0343  0.4666  0.5357
  295MOL0     H38914   8.135  -0.254   5.686 -1.2577 -0.8765  0.0156
  295MOL0     H38915   8.097  -0.422   5.697 -1.4295  0.2949 -1.2350
  295MOL0     H38916   8.283  -0.467   5.855  1.6738  0.4470  0.5050
  295MOL0     H38917   8.321  -0.299   5.842 -1.6996 -0.4267 -0.2646
  295MOL0     H38918   8.362  -0.323   5.586 -1.4224 -0.2729 -1.2568
  295MOL0     H38919   8.439  -0.447   5.689 -1.6929 -1.8743  1.2706
  295MOL0     H38920   8.358  -0.562   5.486 -0.7238  0.8648 -1.6820
  295MOL0     H38921   8.209  -0.496   5.516  1.1026 -3.0582 -3.1735
  295MOL0     H38922   7.817   0.245   5.876 -0.7269 -0.7030 -2.0284
  295MOL0     H38923   7.640   0.414   5.940  0.6585  1.7713 -2.0534
  295MOL0     H38924   7.365   0.655   5.972 -0.2570 -2.6818  2.6861
  295MOL0     H38925   7.254   0.860   6.004 -3.2014  2.3580 -0.3308
  295MOL0     H38926   8.666   0.711   7.044  1.4137  4.8138 -0.3592
  295MOL0     H38927   8.909   0.702   6.994 -0.0567 -0.0598  0.2788
  295MOL0     H38928   9.271   0.711   6.859 -0.0459  0.0862 -0.3730
  295MOL0     H38929   9.524   0.720   6.850  3.3391  1.3226 -2.9923
  295MOL0     H38930   9.693   0.517   6.582 -1.3225  2.6493 -1.0348
  295MOL0     H38931   9.762   0.576   6.735 -0.3378 -0.1177  0.2155
  295MOL0     H38932   9.950   0.678   6.628 -1.1034 -0.9701  2.8852
  295MOL0     H38933   9.932   0.510   6.575  0.5211  0.3954  2.3645
  295MOL0     H38934   9.891   0.783   6.421 -1.9133 -0.5879 -0.7586
  295MOL0     H38935   9.778   0.666   6.386  0.5442 -0.2071 -1.8962
  295MOL0     H38936   9.955   0.500   6.334 -0.1609  0.1781  1.9409
  295MOL0     H38937   9.981   0.639   6.235  0.6941 -3.1823 -1.4573
  295MOL0     H38938  10.319   0.638   6.472 -0.7416 -2.2130  0.8240
  295MOL0     H38939   9.512   0.623   6.438  2.6462 -0.3857  1.3625
  295MOL0     H38940   9.253   0.595   6.447 -2.5463  2.6934  1.4439
  296MOL0     O38941   7.898   5.569  11.252  0.8915  0.5413 -0.2682
  296MOL0     C38942   7.931   5.638  11.348 -0.4463 -1.0587 -0.5321
  296MOL0     O38943   7.857   5.741  11.414  0.2539 -0.0977 -0.1052
  296MOL0     C38944   7.740   5.783  11.356  0.6349  0.2442  0.4748
  296MOL0     C38945   7.747   5.859  11.239  0.5388  0.7097  0.0728
  296MOL0     C38946   7.626   5.916  11.190  0.6742  0.7089 -0.1828
  296MOL0     C38947   7.501   5.900  11.254  0.6337  0.1059  1.0387
  296MOL0     O38948   7.385   5.967  11.204 -0.0494  1.1028 -0.0055
  296MOL0     C38949   7.321   5.898  11.087 -0.0009 -0.6911  0.3184
  296MOL0     C38950   7.224   5.986  11.012 -0.7173  0.1223 -0.6990
  296MOL0     C38951   7.078   5.988  11.064 -0.8534 -0.6276 -0.0381
  296MOL0     C38952   7.004   6.107  11.000 -0.1434  0.0366  0.4438
  296MOL0     C38953   6.847   6.097  11.014 -0.4005 -1.1721 -0.1582
  296MOL0     C38954   6.768   6.190  10.913 -0.8420 -0.6626  0.1573
  296MOL0     C38955   6.803   6.332  10.899  0.2089  0.4484 -0.1081
  296MOL0     C38956   6.773   6.424  11.019  0.1935 -0.3451  0.0469
  296MOL0     N38957   6.634   6.433  11.052  0.0586 -0.7408  0.5693
  296MOL0     C38958   6.557   6.556  11.059  0.2586  0.6528  1.1886
  296MOL0     C38959   6.448   6.529  11.129 -0.3215 -0.7582  1.0659
  296MOL0     C38960   6.332   6.627  11.142 -0.4720 -0.5464  0.9835
  296MOL0     C38961   6.223   6.584  11.039  0.1799  0.4482  0.0161
  296MOL0     C38962   6.125   6.711  11.039  0.2004  0.5383 -0.4299
  296MOL0     C38963   5.995   6.684  10.972  0.7894 -0.0133  0.7541
  296MOL0     O38964   5.907   6.781  11.001 -0.2587 -0.1751  0.6542
  296MOL0     C38965   5.776   6.771  10.953 -0.1599 -0.1121  0.9694
  296MOL0     C38966   5.671   6.839  11.015  1.0351  0.0718 -0.5245
  296MOL0     C38967   5.539   6.826  10.967 -0.6186  0.5747 -0.2048
  296MOL0     C38968   5.511   6.755  10.856  1.0841  0.2730  1.2521
  296MOL0     C38969   5.375   6.753  10.798  0.4509  0.7690 -0.4204
  296MOL0     O38970   5.268   6.783  10.883 -0.1153  0.0766  0.2850
  296MOL0     C38971   5.143   6.777  10.822 -0.3020  1.2479  0.4593
  296MOL0     C38972   5.096   6.847  10.703  0.1122 -0.0563 -0.0091
  296MOL0     C38973   4.965   6.830  10.662 -0.2296  0.9767 -0.2644
  296MOL0     C38974   4.880   6.738  10.733 -0.7512 -0.0677  1.5051
  296MOL0     O38975   4.752   6.720  10.690  0.5610  0.9188 -0.7940
  296MOL0     C38976   4.683   6.831  10.630 -0.1602  0.6037 -0.3528
  296MOL0     C38977   4.540   6.805  10.633  0.4828  0.2907 -0.7010
  296MOL0     C38978   4.500   6.687  10.557 -0.4182  0.3418 -0.7386
  296MOL0     C38979   4.351   6.657  10.583 -0.8020  0.7482 -0.3374
  296MOL0     C38980   4.308   6.542  10.499 -0.3052 -0.2248  0.1112
  296MOL0     C38981   4.180   6.479  10.542 -0.3187  0.0910 -0.6954
  296MOL0     C38982   4.070   6.585  10.589  0.5733 -0.5160  0.1631
  296MOL0     C38983   3.994   6.664  10.477  0.8175  0.6712  0.1165
  296MOL0    Cl38984   3.870   6.547  10.409 -0.1983 -0.1362 -0.0150
  296MOL0     C38985   4.928   6.665  10.844 -0.0127  0.6198 -0.1944
  296MOL0     C38986   5.058   6.681  10.885 -0.6551  0.7943 -0.2718
  296MOL0     O38987   5.360   6.722  10.675 -0.1761 -0.5656  0.1029
  296MOL0     C38988   5.612   6.688  10.791 -0.6063  0.0917 -0.7269
  296MOL0     C38989   5.738   6.689  10.847 -1.2154  0.4090 -0.0801
  296MOL0     N38990   6.462   6.392  11.164 -0.0386  0.6193 -0.7720
  296MOL0     N38991   6.575   6.345  11.128  0.0775 -0.0331  0.7176
  296MOL0     C38992   7.499   5.816  11.361 -0.0236  0.0505  0.4326
  296MOL0     C38993   7.615   5.758  11.419  0.3898 -0.5619 -0.4399
  296MOL0     C38994   8.072   5.608  11.411  0.2169 -0.0125  0.1996
  296MOL0     C38995   8.131   5.692  11.503  0.0144  0.2963  0.0273
  296MOL0     C38996   8.254   5.673  11.550 -1.1578 -0.2626  0.6332
  296MOL0     C38997   8.337   5.568  11.499 -0.1600 -0.6579 -0.8750
  296MOL0     O38998   8.462   5.571  11.563  0.1463  0.1917  0.2034
  296MOL0     C38999   8.557   5.464  11.528  0.8729 -0.8857  0.5528
  296MOL0     C39000   8.688   5.495  11.600  0.7843  0.4224 -0.1973
  296MOL0     C39001   8.723   5.645  11.589 -0.0331  0.2472  0.6526
  296MOL0     C39002   8.784   5.674  11.449 -0.0858 -0.9548  0.4774
  296MOL0     C39003   8.902   5.596  11.428  0.5077  0.9064  0.2503
  296MOL0     C39004   9.010   5.533  11.415 -0.2699  0.4653  0.3459
  296MOL0     C39005   8.284   5.484  11.403 -0.4495 -0.6119  0.2375
  296MOL0     C39006   8.153   5.509  11.354 -0.5222  0.8953  0.1782
  296MOL0     H39007   7.837   5.871  11.181  0.1387 -0.4357 -0.8215
  296MOL0     H39008   7.623   5.983  11.104  2.4060 -0.1347 -0.9435
  296MOL0     H39009   7.276   5.805  11.121  0.9394 -0.6759  1.6595
  296MOL0     H39010   7.396   5.864  11.015 -1.4674  0.8351 -2.0943
  296MOL0     H39011   7.216   5.944  10.911 -0.0586 -1.0492 -0.2848
  296MOL0     H39012   7.264   6.087  11.001 -1.4609  0.6087  0.7912
  296MOL0     H39013   7.064   6.017  11.168 -1.3486  2.9265 -0.9594
  296MOL0     H39014   7.035   5.888  11.057  0.2476 -1.1870  0.7385
  296MOL0     H39015   7.037   6.201  11.045 -0.2606 -0.2019  1.0382
  296MOL0     H39016   7.036   6.104  10.895 -0.2219 -0.7800  0.4361
  296MOL0     H39017   6.827   6.131  11.116 -1.6087 -0.3200 -0.6679
  296MOL0     H39018   6.815   5.992  11.007  0.3741 -1.2931 -3.1113
  296MOL0     H39019   6.660   6.176  10.925 -1.1167 -0.1184 -1.4592
  296MOL0     H39020   6.783   6.148  10.813 -2.9396  1.6544 -1.2416
  296MOL0     H39021   6.912   6.334  10.897  0.3872 -0.3637  3.0164
  296MOL0     H39022   6.783   6.379  10.802 -2.7389 -0.3150  0.0206
  296MOL0     H39023   6.810   6.526  11.004 -1.0965  0.0613 -0.5357
  296MOL0     H39024   6.817   6.389  11.113 -2.4689  3.8184  3.2123
  296MOL0     H39025   6.580   6.645  11.001 -1.2670  0.0600 -0.4078
  296MOL0     H39026   6.371   6.728  11.128  0.1812 -0.6739  1.7383
  296MOL0     H39027   6.284   6.625  11.240 -0.4245 -0.4785  1.0090
  296MOL0     H39028   6.165   6.499  11.076 -0.8030  1.7095  1.4444
  296MOL0     H39029   6.252   6.564  10.935 -0.8015 -1.4821  0.0612
  296MOL0     H39030   6.113   6.731  11.145  0.4474 -1.4662  0.0229
  296MOL0     H39031   6.182   6.791  10.991  0.4119 -0.2383 -1.5328
  296MOL0     H39032   5.955   6.587  11.002  0.3554 -0.2821 -0.5910
  296MOL0     H39033   6.009   6.681  10.863  1.3011  0.6451  0.7964
  296MOL0     H39034   5.680   6.900  11.104  1.3917  0.3397 -0.7415
  296MOL0     H39035   5.454   6.862  11.023 -4.9080 -4.2854 -2.7114
  296MOL0     H39036   5.174   6.905  10.656  1.3986 -1.5947  0.1494
  296MOL0     H39037   4.922   6.887  10.581 -2.8194  0.5937  0.7361
  296MOL0     H39038   4.715   6.825  10.526 -0.7150 -1.2934 -0.4653
  296MOL0     H39039   4.723   6.916  10.685  1.2490 -0.0928 -0.2555
  296MOL0     H39040   4.498   6.895  10.588  2.1598  0.5997 -1.7757
  296MOL0     H39041   4.510   6.802  10.737 -0.8449 -1.8895 -1.0932
  296MOL0     H39042   4.568   6.609  10.592 -0.4441  1.4435  1.9500
  296MOL0     H39043   4.504   6.704  10.449  0.8132 -3.1063 -1.3715
  296MOL0     H39044   4.350   6.631  10.689 -0.0876 -0.0818 -0.5264
  296MOL0     H39045   4.295   6.747  10.555  0.1187  1.6427  0.6336
  296MOL0     H39046   4.375   6.459  10.479 -0.1661  0.0240 -0.4603
  296MOL0     H39047   4.283   6.595  10.406 -1.6447  0.1256  0.6359
  296MOL0     H39048   4.215   6.424  10.630 -0.2434 -1.4008 -1.6261
  296MOL0     H39049   4.145   6.406  10.468 -0.6062 -0.7902  0.2834
  296MOL0     H39050   4.009   6.523  10.655 -0.0049  1.1411  1.2559
  296MOL0     H39051   4.106   6.663  10.657 -0.8438  1.3183 -1.0625
  296MOL0     H39052   4.058   6.698  10.396 -0.3240  0.6461 -0.8235
  296MOL0     H39053   3.950   6.755  10.518  1.4230  1.7671 -1.5595
  296MOL0     H39054   4.857   6.595  10.888 -2.7482  1.8588 -2.3570
  296MOL0     H39055   5.096   6.628  10.971 -0.9184  0.9738 -0.0412
  296MOL0     H39056   5.591   6.647  10.693  0.2187 -1.4261 -0.3098
  296MOL0     H39057   5.803   6.638  10.776 -0.0778  0.7861  0.6661
  296MOL0     H39058   7.396   5.796  11.387  0.0172 -1.4053 -0.4360
  296MOL0     H39059   7.612   5.706  11.514 -0.1654  1.0102  0.4331
  296MOL0     H39060   8.083   5.785  11.529 -1.6381 -0.0605 -1.5565
  296MOL0     H39061   8.305   5.747  11.611  1.2833 -0.2078 -1.2884
  296MOL0     H39062   8.587   5.467  11.423  2.9689  1.3262  1.0919
  296MOL0     H39063   8.531   5.359  11.540  0.9668 -1.4171 -2.8489
  296MOL0     H39064   8.690   5.466  11.706 -1.4549 -2.2529 -0.7563
  296MOL0     H39065   8.773   5.432  11.571  5.0530  4.7217  1.6572
  296MOL0     H39066   8.794   5.678  11.666  1.2276  1.0123 -0.7928
  296MOL0     H39067   8.635   5.709  11.602  1.4882  2.3200  1.1844
  296MOL0     H39068   8.706   5.663  11.373 -0.3387 -0.7385  0.7031
  296MOL0     H39069   8.819   5.778  11.448  0.7265 -1.2132 -1.1128
  296MOL0     H39070   9.098   5.473  11.407  0.4467  1.4578  0.5026
  296MOL0     H39071   8.338   5.393  11.376  0.9424  0.7400 -1.8288
  296MOL0     H39072   8.131   5.437  11.275  2.3841  0.8046 -0.6399
  297MOL0     O39073   3.379   0.872   9.260  0.4597 -0.5754  0.2731
  297MOL0     C39074   3.496   0.840   9.282  0.5081 -0.1623  0.0886
  297MOL0     O39075   3.541   0.739   9.367 -0.1883  0.1779  0.1062
  297MOL0     C39076   3.442   0.648   9.404  0.6583 -0.4200 -0.2612
  297MOL0     C39077   3.366   0.652   9.523  0.3994 -0.3336 -0.0954
  297MOL0     C39078   3.271   0.555   9.554 -0.5161  0.8974 -0.2905
  297MOL0     C39079   3.245   0.446   9.470 -0.1728 -0.3665  0.1983
  297MOL0     O39080   3.141   0.363   9.501  0.9624  0.5780 -0.3278
  297MOL0     C39081   3.164   0.223   9.489 -0.7844 -0.2939  0.0779
  297MOL0     C39082   3.091   0.121   9.574  0.1168 -0.0811  0.3405
  297MOL0     C39083   2.971   0.179   9.658  0.7657  0.0959  0.7278
  297MOL0     C39084   2.852   0.225   9.574 -0.5135 -0.1791 -0.6229
  297MOL0     C39085   2.730   0.247   9.655  0.1384 -0.3564  0.2359
  297MOL0     C39086   2.604   0.282   9.561 -0.5245  0.6802 -0.7125
  297MOL0     C39087   2.495   0.353   9.644  0.0136  0.7516 -0.4991
  297MOL0     C39088   2.410   0.440   9.563  0.3005  0.5416 -0.5602
  297MOL0     N39089   2.320   0.364   9.469  0.3146  0.4732 -0.2351
  297MOL0     C39090   2.198   0.420   9.423  0.5662 -0.0469 -0.1774
  297MOL0     C39091   2.159   0.336   9.326 -0.5472 -0.2153  0.2612
  297MOL0     C39092   2.028   0.342   9.258 -0.2372  0.9082 -0.4673
  297MOL0     C39093   1.909   0.276   9.328  0.1975  0.0920  0.3369
  297MOL0     C39094   1.780   0.308   9.258 -0.0599 -0.3773 -0.0951
  297MOL0     C39095   1.650   0.297   9.350 -0.3329  0.3164  0.6339
  297MOL0     O39096   1.540   0.333   9.275 -0.0008  0.9375 -0.2587
  297MOL0     C39097   1.414   0.354   9.329 -0.5118 -0.1265 -0.2542
  297MOL0     C39098   1.380   0.317   9.458  0.1338  0.2347  0.3054
  297MOL0     C39099   1.256   0.331   9.514 -0.0446  0.0678 -0.1050
  297MOL0     C39100   1.154   0.384   9.437 -0.4029 -0.1629 -0.5159
  297MOL0     C39101   1.016   0.401   9.483  0.0830  0.1008 -0.1268
  297MOL0     O39102   0.918   0.450   9.399 -0.7195 -0.0393  0.2890
  297MOL0     C39103   0.784   0.436   9.429 -0.3038  0.6395 -0.0807
  297MOL0     C39104   0.698   0.469   9.319 -0.2350 -0.0111  0.7802
  297MOL0     C39105   0.558   0.469   9.333  0.0225  0.0068 -1.2719
  297MOL0     C39106   0.495   0.431   9.454 -0.9562 -0.7491 -0.2658
  297MOL0     O39107   0.359   0.443   9.470 -0.1563 -0.0982 -0.4793
  297MOL0     C39108   0.269   0.436   9.362 -0.1959  0.1315 -0.1905
  297MOL0     C39109   0.128   0.455   9.404  0.2471  0.0814  0.2502
  297MOL0     C39110   0.038   0.476   9.275 -0.2228  0.4808 -0.2137
  297MOL0     C39111  -0.110   0.524   9.296  0.1371  0.6002 -0.2742
  297MOL0     C39112  -0.110   0.679   9.299 -1.4695 -0.5772 -0.4802
  297MOL0     C39113  -0.244   0.749   9.285 -0.0672 -0.5749 -0.3829
  297MOL0     C39114  -0.231   0.885   9.359  0.2474  0.2067  0.2923
  297MOL0     C39115  -0.356   0.967   9.340 -0.5336  0.1049  0.9842
  297MOL0    Cl39116  -0.348   1.123   9.429  0.2529 -0.2312  0.2083
  297MOL0     C39117   0.581   0.394   9.553 -0.5790  0.2347 -0.6950
  297MOL0     C39118   0.720   0.391   9.544  0.0088 -0.4322 -0.3328
  297MOL0     O39119   1.001   0.358   9.600  0.0537  0.4792  0.4809
  297MOL0     C39120   1.188   0.427   9.305  0.1624  0.0151 -0.0714
  297MOL0     C39121   1.322   0.421   9.249 -0.4417  0.1447 -0.0319
  297MOL0     N39122   2.259   0.252   9.295  0.0696 -0.3071  0.1685
  297MOL0     N39123   2.356   0.278   9.370  0.0341  0.0944 -0.0261
  297MOL0     C39124   3.319   0.440   9.351  0.5743 -0.0800 -0.3771
  297MOL0     C39125   3.425   0.528   9.328  0.0490  0.3340  0.1898
  297MOL0     C39126   3.610   0.895   9.194 -0.3318  0.5563  0.6231
  297MOL0     C39127   3.737   0.835   9.188  0.6080 -0.0492  0.1673
  297MOL0     C39128   3.847   0.882   9.104  0.7062  0.4972 -0.6727
  297MOL0     C39129   3.824   0.988   9.014  0.1035  0.7555 -0.5802
  297MOL0     O39130   3.932   1.018   8.936  0.5609 -0.6514  0.5784
  297MOL0     C39131   3.915   1.071   8.805 -0.7907 -0.3271  0.8020
  297MOL0     C39132   4.035   1.032   8.709  0.2921  0.0517 -0.2389
  297MOL0     C39133   4.164   1.090   8.756  1.0946  0.3170 -0.8804
  297MOL0     C39134   4.269   1.073   8.646 -0.0146  0.2351 -0.1500
  297MOL0     C39135   4.370   1.179   8.667 -0.0564  0.1782 -0.0257
  297MOL0     C39136   4.460   1.260   8.684 -0.6720 -0.0177 -0.0779
  297MOL0     C39137   3.697   1.051   9.025  0.6413  0.0299  0.4418
  297MOL0     C39138   3.598   1.006   9.111  0.7938  0.1149 -0.7796
  297MOL0     H39139   3.366   0.737   9.590  0.2568 -0.1637 -0.3098
  297MOL0     H39140   3.210   0.555   9.644  2.1791 -1.5376  1.6989
  297MOL0     H39141   3.271   0.211   9.502 -0.7574  1.1139  1.4034
  297MOL0     H39142   3.145   0.202   9.383  0.6225 -0.9002 -0.0643
  297MOL0     H39143   3.161   0.093   9.654 -0.4441  0.3887  1.0098
  297MOL0     H39144   3.071   0.024   9.528  2.6553 -0.1640 -0.7623
  297MOL0     H39145   3.013   0.261   9.717  1.7127  1.8008 -2.1163
  297MOL0     H39146   2.928   0.108   9.729  1.7831 -0.6756  0.5918
  297MOL0     H39147   2.889   0.311   9.517  1.1000 -0.3165  0.1491
  297MOL0     H39148   2.829   0.147   9.501  2.0137 -0.2890 -1.4029
  297MOL0     H39149   2.747   0.325   9.730 -0.6049 -0.5125  0.5714
  297MOL0     H39150   2.704   0.156   9.710 -0.7742  0.2998  0.9037
  297MOL0     H39151   2.568   0.184   9.530  1.3358 -1.1811  2.4410
  297MOL0     H39152   2.633   0.348   9.478 -0.3583  0.0987 -1.1230
  297MOL0     H39153   2.430   0.278   9.690  3.1371 -1.3160  0.9062
  297MOL0     H39154   2.538   0.413   9.724 -0.0024  0.2063 -0.0756
  297MOL0     H39155   2.476   0.513   9.515  2.5228  0.5551  2.2335
  297MOL0     H39156   2.335   0.493   9.622  1.8193 -0.6500  2.6930
  297MOL0     H39157   2.140   0.498   9.472 -0.5369 -0.1448 -1.2692
  297MOL0     H39158   2.053   0.283   9.169  0.1141 -0.9659  0.8095
  297MOL0     H39159   2.009   0.445   9.227  3.2657  1.3466 -1.6245
  297MOL0     H39160   1.909   0.322   9.427 -0.4340 -0.3272  0.5376
  297MOL0     H39161   1.928   0.168   9.325  4.4742  0.6965 -1.4179
  297MOL0     H39162   1.770   0.404   9.207 -2.8858  0.9823  2.6293
  297MOL0     H39163   1.776   0.230   9.181  2.9067 -0.3225 -0.3978
  297MOL0     H39164   1.672   0.377   9.421  1.2997  2.3328 -1.9750
  297MOL0     H39165   1.653   0.193   9.385 -0.4474 -0.8812 -2.5307
  297MOL0     H39166   1.458   0.261   9.509 -0.4270 -2.3996 -1.5250
  297MOL0     H39167   1.239   0.283   9.610  1.7935  1.7319  1.1389
  297MOL0     H39168   0.746   0.504   9.228 -2.2564 -0.5039 -0.5638
  297MOL0     H39169   0.494   0.511   9.257 -3.4663  1.0133  1.8917
  297MOL0     H39170   0.267   0.336   9.318 -2.1589 -0.3996  0.9502
  297MOL0     H39171   0.292   0.511   9.286 -1.0532  0.7437  0.1387
  297MOL0     H39172   0.125   0.537   9.476  2.7219  0.9131 -0.5020
  297MOL0     H39173   0.108   0.357   9.449  1.5947 -0.0369  0.6242
  297MOL0     H39174   0.018   0.383   9.221  0.1215 -0.1971  0.7962
  297MOL0     H39175   0.098   0.538   9.208  3.8353 -1.2707  1.5035
  297MOL0     H39176  -0.164   0.496   9.204 -3.2831  3.8277  0.4864
  297MOL0     H39177  -0.166   0.478   9.378 -1.0423  1.1840 -0.7306
  297MOL0     H39178  -0.042   0.717   9.222 -0.6081  1.6464  1.2835
  297MOL0     H39179  -0.062   0.710   9.392  0.3004  1.5250 -1.9980
  297MOL0     H39180  -0.331   0.703   9.333 -1.0458  1.2801 -0.2775
  297MOL0     H39181  -0.260   0.759   9.177  2.4901  0.7221 -0.7225
  297MOL0     H39182  -0.214   0.865   9.466 -0.3105  0.9028  0.5135
  297MOL0     H39183  -0.152   0.950   9.321  0.0006  0.6606  0.5466
  297MOL0     H39184  -0.448   0.921   9.376 -0.2098 -0.7246  0.7739
  297MOL0     H39185  -0.366   0.997   9.235  4.7479  2.0413  0.7086
  297MOL0     H39186   0.540   0.373   9.651  1.0625 -0.0249 -0.0430
  297MOL0     H39187   0.770   0.349   9.631 -1.3892 -1.4888  0.0048
  297MOL0     H39188   1.111   0.459   9.236 -0.0351 -0.9938 -0.3374
  297MOL0     H39189   1.349   0.443   9.146  0.0772 -0.3300 -0.0033
  297MOL0     H39190   3.307   0.366   9.272  1.6443  1.3010 -1.9107
  297MOL0     H39191   3.477   0.534   9.234 -1.6251 -1.8902 -0.9728
  297MOL0     H39192   3.764   0.752   9.253  0.3957 -0.3510 -0.1317
  297MOL0     H39193   3.941   0.828   9.111 -1.7523 -4.5081 -1.8522
  297MOL0     H39194   3.909   1.180   8.812 -0.0964 -0.2238 -0.1005
  297MOL0     H39195   3.816   1.043   8.767 -1.7459  1.9806  1.4245
  297MOL0     H39196   4.031   0.925   8.690  0.5307 -0.0544  0.2978
  297MOL0     H39197   4.006   1.074   8.612 -1.9059  1.9064  1.1141
  297MOL0     H39198   4.196   1.039   8.848  3.4458 -0.4338 -2.0542
  297MOL0     H39199   4.145   1.197   8.760 -1.9715 -0.0017 -3.1892
  297MOL0     H39200   4.327   0.981   8.663 -0.3093  0.1813  0.6214
  297MOL0     H39201   4.221   1.072   8.548  0.1645  1.5327 -0.2695
  297MOL0     H39202   4.549   1.314   8.711 -0.4437 -0.5258  0.1994
  297MOL0     H39203   3.679   1.138   8.963  0.9705 -0.1616  0.0654
  297MOL0     H39204   3.509   1.068   9.116 -0.5862 -1.8636  0.6404
  298MOL0     O39205   9.709   9.689   2.898  0.0990  0.1499 -0.1065
  298MOL0     C39206   9.652   9.748   2.800  0.1941 -0.1388 -0.1639
  298MOL0     O39207   9.514   9.757   2.774 -0.3685  0.3674 -0.0848
  298MOL0     C39208   9.427   9.724   2.880 -0.0387  0.5009 -0.4237
  298MOL0     C39209   9.316   9.639   2.862  0.1198  0.4095  0.5750
  298MOL0     C39210   9.219   9.626   2.954 -0.4191  0.4005 -0.7169
  298MOL0     C39211   9.246   9.669   3.086  1.0171 -0.4080 -0.1258
  298MOL0     O39212   9.144   9.656   3.174 -0.0319  0.3444  0.2082
  298MOL0     C39213   9.115   9.766   3.258  0.4379 -0.1044 -0.3606
  298MOL0     C39214   8.962   9.787   3.280  0.2136 -1.1788  0.5950
  298MOL0     C39215   8.876   9.796   3.154  0.0926  0.9510 -0.3717
  298MOL0     C39216   8.728   9.752   3.174  0.4066  0.5067  0.7955
  298MOL0     C39217   8.663   9.826   3.292  0.7507 -1.2282  0.2440
  298MOL0     C39218   8.516   9.855   3.263  0.9948  0.2186  0.7199
  298MOL0     C39219   8.453   9.948   3.362 -0.2234  0.4927 -0.1188
  298MOL0     C39220   8.400   9.880   3.488  0.3130 -0.3252  0.4159
  298MOL0     N39221   8.332   9.973   3.580 -0.1233  0.7641  0.2606
  298MOL0     C39222   8.206  10.034   3.574  0.1777  0.1704 -0.9279
  298MOL0     C39223   8.217  10.136   3.664 -0.0818  0.2044  0.9022
  298MOL0     C39224   8.104  10.234   3.675 -0.9931  0.0371  0.3644
  298MOL0     C39225   8.136  10.331   3.787  0.0329 -0.0896 -1.1551
  298MOL0     C39226   8.026  10.436   3.828 -0.0997  0.0964  0.7457
  298MOL0     C39227   7.971  10.523   3.713 -0.2758  1.1641 -0.3154
  298MOL0     O39228   7.866  10.450   3.646  1.3437  0.4710 -0.0876
  298MOL0     C39229   7.772  10.515   3.568 -0.3456 -0.0447  0.4063
  298MOL0     C39230   7.709  10.427   3.478 -0.4109 -0.4931 -0.6790
  298MOL0     C39231   7.606  10.479   3.405  0.6688  0.0609  0.5963
  298MOL0     C39232   7.569  10.617   3.408  0.1186  0.0351 -0.4051
  298MOL0     C39233   7.452  10.661   3.326  0.2426 -0.2549 -0.1880
  298MOL0     O39234   7.392  10.568   3.253 -0.1019 -0.3468 -0.0109
  298MOL0     C39235   7.260  10.584   3.219 -0.3760  0.3217  0.5008
  298MOL0     C39236   7.227  10.593   3.080  0.0125  0.4012 -0.8258
  298MOL0     C39237   7.091  10.611   3.048  0.0359 -1.3516 -0.2470
  298MOL0     C39238   6.989  10.611   3.144  0.0239 -0.6330  0.4263
  298MOL0     O39239   6.854  10.605   3.114  0.2526  0.3878 -0.1549
  298MOL0     C39240   6.817  10.537   2.994 -0.2458  0.2750 -0.1154
  298MOL0     C39241   6.668  10.494   3.001 -0.5506  0.6054  0.0224
  298MOL0     C39242   6.640  10.373   3.082 -0.7019 -0.4845 -0.0193
  298MOL0     C39243   6.499  10.337   3.078  1.1423  0.7555 -0.4064
  298MOL0     C39244   6.442  10.277   2.948 -0.0087 -0.4979  0.8344
  298MOL0     C39245   6.291  10.274   2.953 -0.5464 -1.0379  0.0165
  298MOL0     C39246   6.236  10.203   2.827  0.2598 -0.4410  0.0925
  298MOL0     C39247   6.082  10.188   2.821  0.7496 -0.7386 -0.4502
  298MOL0    Cl39248   6.025  10.101   2.674  0.3077 -0.5854  0.4587
  298MOL0     C39249   7.021  10.599   3.273 -0.5183 -0.3350  0.3020
  298MOL0     C39250   7.154  10.590   3.317 -0.1183  0.8305 -1.0394
  298MOL0     O39251   7.408  10.776   3.349 -0.7248  0.0864  0.4123
  298MOL0     C39252   7.641  10.708   3.485 -0.3107  0.2930 -0.1904
  298MOL0     C39253   7.745  10.659   3.566 -0.0066 -0.1811 -0.2140
  298MOL0     N39254   8.337  10.123   3.727 -0.3241 -0.3247 -0.9707
  298MOL0     N39255   8.407  10.027   3.679  0.3858 -0.1742  0.1626
  298MOL0     C39256   9.363   9.728   3.120  0.3430  0.1551  0.5157
  298MOL0     C39257   9.455   9.764   3.016 -0.0167  0.4442 -0.3076
  298MOL0     C39258   9.739   9.789   2.685  0.1575 -0.5908 -0.8701
  298MOL0     C39259   9.688   9.894   2.596  0.7954  0.1377 -0.4096
  298MOL0     C39260   9.754   9.920   2.475  0.1810  0.4962  0.1681
  298MOL0     C39261   9.876   9.857   2.448 -0.8560 -0.5477  0.2648
  298MOL0     O39262   9.937   9.907   2.334 -0.5761 -0.5567 -0.3080
  298MOL0     C39263  10.070   9.867   2.296 -0.2127  0.0685 -0.4805
  298MOL0     C39264  10.175   9.941   2.387  0.8123  0.9214 -0.0662
  298MOL0     C39265  10.166  10.090   2.398 -0.0122 -0.5886 -0.4598
  298MOL0     C39266  10.244  10.136   2.522 -0.4356 -0.2694  0.3092
  298MOL0     C39267  10.378  10.156   2.490  0.9576 -0.3570 -0.3052
  298MOL0     C39268  10.497  10.176   2.454  0.6720  0.4187  0.6585
  298MOL0     C39269   9.927   9.761   2.536  0.9208 -0.0003  0.2939
  298MOL0     C39270   9.849   9.722   2.649 -0.5209  0.0357 -0.2745
  298MOL0     H39271   9.316   9.594   2.763 -1.1431 -0.2429  0.8503
  298MOL0     H39272   9.121   9.586   2.930 -1.3531  1.6410  0.7950
  298MOL0     H39273   9.150   9.866   3.231  1.3843 -0.4869 -0.5916
  298MOL0     H39274   9.155   9.750   3.358 -0.2862  0.8301  0.0982
  298MOL0     H39275   8.931   9.867   3.348 -3.3505  0.0594 -2.1375
  298MOL0     H39276   8.922   9.701   3.333 -1.1991 -1.1046 -0.2920
  298MOL0     H39277   8.919   9.737   3.072 -2.1945 -1.6631  0.1654
  298MOL0     H39278   8.865   9.899   3.119 -2.5140  1.8483  2.6689
  298MOL0     H39279   8.683   9.775   3.077 -0.5632 -1.9281  0.5940
  298MOL0     H39280   8.719   9.644   3.184 -2.3310  0.5221 -0.7132
  298MOL0     H39281   8.703   9.927   3.286  1.7603 -1.6632 -1.0282
  298MOL0     H39282   8.681   9.793   3.395  2.2505 -1.7260 -0.1436
  298MOL0     H39283   8.455   9.764   3.258  1.9172 -0.3583 -0.5667
  298MOL0     H39284   8.507   9.903   3.165 -0.2685  0.0117  0.7208
  298MOL0     H39285   8.523  10.032   3.370  1.0695  0.1800 -4.9598
  298MOL0     H39286   8.371  10.004   3.316  0.9452  5.0021  2.6147
  298MOL0     H39287   8.479   9.825   3.540  1.2709  0.3772 -0.2542
  298MOL0     H39288   8.317   9.813   3.461 -0.6749  1.7465 -2.1505
  298MOL0     H39289   8.125  10.004   3.507  0.5984 -0.1398 -1.3027
  298MOL0     H39290   8.015  10.173   3.692  1.2951 -2.7870  3.5804
  298MOL0     H39291   8.100  10.299   3.587  0.4113 -0.4492 -0.0802
  298MOL0     H39292   8.229  10.387   3.775  0.2866 -0.3324 -0.3844
  298MOL0     H39293   8.147  10.278   3.882  0.0318  0.8825 -0.6028
  298MOL0     H39294   7.945  10.385   3.882 -1.3022 -0.0075 -1.0599
  298MOL0     H39295   8.071  10.505   3.900  1.7474  0.0160 -0.2643
  298MOL0     H39296   8.054  10.548   3.647 -1.2880  2.9418 -0.9875
  298MOL0     H39297   7.931  10.617   3.753  0.1050  0.9771  0.5266
  298MOL0     H39298   7.728  10.320   3.478 -2.1963 -0.8433 -0.5727
  298MOL0     H39299   7.555  10.413   3.336  0.3456 -0.5375  1.3917
  298MOL0     H39300   7.309  10.583   3.010  1.8876 -1.9453  1.4684
  298MOL0     H39301   7.045  10.623   2.951 -0.2568 -0.7860 -0.0399
  298MOL0     H39302   6.875  10.447   2.970 -1.2281 -0.5425  0.5125
  298MOL0     H39303   6.828  10.607   2.911 -1.2652  0.9037  0.2624
  298MOL0     H39304   6.634  10.482   2.898 -2.5448  1.2360  0.5680
  298MOL0     H39305   6.614  10.575   3.049 -2.4829 -0.8684  0.4662
  298MOL0     H39306   6.674  10.383   3.186 -0.5147 -0.4202 -0.0861
  298MOL0     H39307   6.698  10.290   3.042  1.0213  0.1845  0.9471
  298MOL0     H39308   6.496  10.261   3.156  2.8942  0.7611 -0.2799
  298MOL0     H39309   6.434  10.420   3.108 -1.2213 -0.8811 -0.7217
  298MOL0     H39310   6.496  10.184   2.928  1.9424  0.9403 -1.2171
  298MOL0     H39311   6.460  10.338   2.859 -1.9851 -1.6349 -0.4058
  298MOL0     H39312   6.252  10.375   2.936  1.1803 -0.6672 -2.2502
  298MOL0     H39313   6.259  10.218   3.041 -0.2968  0.5140  1.1410
  298MOL0     H39314   6.278  10.250   2.738  0.4664  0.1779  0.5047
  298MOL0     H39315   6.280  10.104   2.837 -1.0026 -1.0265  0.0129
  298MOL0     H39316   6.041  10.289   2.825  0.6188 -0.7809 -0.7260
  298MOL0     H39317   6.061  10.134   2.914  1.4493 -1.3847 -0.6525
  298MOL0     H39318   6.940  10.588   3.344 -2.2287 -0.2307 -1.5477
  298MOL0     H39319   7.180  10.591   3.422  0.2835  0.0691 -1.1247
  298MOL0     H39320   7.621  10.815   3.479  0.1984  0.3819 -0.4135
  298MOL0     H39321   7.787  10.728   3.638  0.4757 -2.1686  1.5338
  298MOL0     H39322   9.395   9.763   3.218  0.0993 -0.4449  0.8110
  298MOL0     H39323   9.544   9.819   3.046 -2.1836  1.8945  4.3803
  298MOL0     H39324   9.594   9.944   2.615  1.3043  0.3792  1.7215
  298MOL0     H39325   9.709   9.989   2.404  2.3681  1.0390 -0.7891
  298MOL0     H39326  10.086   9.897   2.192  0.9106 -0.4222 -0.4658
  298MOL0     H39327  10.084   9.759   2.294 -0.2406  0.0731 -2.5764
  298MOL0     H39328  10.155   9.896   2.485 -1.2639  0.8151 -0.4876
  298MOL0     H39329  10.274   9.914   2.349 -0.2689  0.5905 -2.8989
  298MOL0     H39330  10.061  10.114   2.418  0.4042 -0.3813  1.7936
  298MOL0     H39331  10.194  10.134   2.302 -2.2869 -1.0919 -1.4237
  298MOL0     H39332  10.204  10.229   2.563 -0.0117  0.3710 -0.6885
  298MOL0     H39333  10.243  10.072   2.610 -1.7769  1.4308  1.5928
  298MOL0     H39334  10.596  10.193   2.417  0.7640 -0.1998  0.6108
  298MOL0     H39335  10.027   9.720   2.529  1.0783  0.7179 -2.4981
  298MOL0     H39336   9.898   9.653   2.717  0.8299  2.0600  0.9102
  299MOL0     O39337   3.969   4.148   5.664 -0.5760 -0.2199  0.5285
  299MOL0     C39338   3.959   4.143   5.545  0.4875 -0.4094  0.0936
  299MOL0     O39339   3.862   4.204   5.472 -0.3140  0.2655 -0.1649
  299MOL0     C39340   3.771   4.280   5.544  1.2749  0.6119 -0.5989
  299MOL0     C39341   3.811   4.371   5.650 -0.5118 -0.3023  0.5916
  299MOL0     C39342   3.718   4.448   5.715 -0.6895 -0.3631 -0.8542
  299MOL0     C39343   3.584   4.444   5.688  0.4607  0.3210  0.1161
  299MOL0     O39344   3.499   4.525   5.757  0.0776  0.3213  0.1277
  299MOL0     C39345   3.355   4.525   5.724  0.6884  0.5797 -0.2855
  299MOL0     C39346   3.286   4.634   5.807  0.4449 -0.5307 -0.3446
  299MOL0     C39347   3.276   4.608   5.954 -0.6773 -0.0194  0.9554
  299MOL0     C39348   3.238   4.739   6.022  0.5022  0.3152 -0.2312
  299MOL0     C39349   3.232   4.720   6.175 -0.4952 -0.0332  0.6223
  299MOL0     C39350   3.180   4.843   6.246  0.5916  0.1359 -0.1919
  299MOL0     C39351   3.155   4.822   6.400 -0.7753 -0.3255  0.4826
  299MOL0     C39352   3.079   4.933   6.467 -0.7664 -0.4199 -0.6699
  299MOL0     N39353   3.083   4.913   6.615 -0.3592  0.1093  0.1386
  299MOL0     C39354   2.989   4.840   6.691 -0.1523 -1.1941 -0.0568
  299MOL0     C39355   3.034   4.854   6.815 -0.1492 -0.1915  0.4772
  299MOL0     C39356   3.001   4.767   6.939  0.3021 -0.2755 -0.8658
  299MOL0     C39357   2.850   4.762   6.959 -0.1557  0.7432 -0.0816
  299MOL0     C39358   2.780   4.888   7.015 -0.9282 -0.4706 -0.5124
  299MOL0     C39359   2.630   4.854   7.027 -1.5204  0.8464  0.3287
  299MOL0     O39360   2.562   4.958   7.101 -0.0017 -0.2022 -0.2837
  299MOL0     C39361   2.433   4.931   7.135 -0.0882 -0.3029  0.1396
  299MOL0     C39362   2.346   4.839   7.075 -0.0416  0.6292  0.8665
  299MOL0     C39363   2.219   4.824   7.123  0.3018 -1.1589  1.1028
  299MOL0     C39364   2.164   4.919   7.221  1.1997  0.0787  0.3867
  299MOL0     C39365   2.024   4.915   7.276 -0.0260 -0.1398  0.5280
  299MOL0     O39366   1.975   5.024   7.348 -0.1735  0.2273 -0.0382
  299MOL0     C39367   1.842   5.044   7.392 -0.4710  0.4451  0.5322
  299MOL0     C39368   1.810   5.128   7.503 -0.0354 -0.1098 -0.2286
  299MOL0     C39369   1.683   5.140   7.556 -0.1057 -0.1120  0.4403
  299MOL0     C39370   1.578   5.069   7.497 -0.3634 -0.8064  0.4308
  299MOL0     O39371   1.454   5.113   7.532  1.0258 -0.3304 -0.1906
  299MOL0     C39372   1.366   5.148   7.419 -0.4822 -0.4483 -1.0794
  299MOL0     C39373   1.249   5.045   7.423  0.2168 -0.0272  0.1242
  299MOL0     C39374   1.143   5.066   7.310 -0.2292 -0.9203 -0.0497
  299MOL0     C39375   1.063   5.190   7.318  0.4774 -0.2802 -0.2703
  299MOL0     C39376   0.964   5.205   7.203  0.1371  0.4567 -0.2151
  299MOL0     C39377   0.855   5.299   7.236 -0.4478  0.2578  0.0396
  299MOL0     C39378   0.752   5.288   7.119 -0.1124 -0.8069 -0.3998
  299MOL0     C39379   0.608   5.315   7.167 -0.5711 -0.5215  0.8539
  299MOL0    Cl39380   0.488   5.323   7.030 -0.1023  0.0456  0.2254
  299MOL0     C39381   1.598   4.983   7.391  0.2681 -0.1999  0.1309
  299MOL0     C39382   1.732   4.966   7.344 -0.4376 -0.3515 -0.5797
  299MOL0     O39383   1.962   4.813   7.248  0.0448  0.1218 -0.2175
  299MOL0     C39384   2.246   5.028   7.257  0.9772 -0.2371  0.2179
  299MOL0     C39385   2.380   5.033   7.223 -0.4465  0.9997  0.0876
  299MOL0     N39386   3.138   4.950   6.811 -0.4207 -0.1030 -0.0933
  299MOL0     N39387   3.167   4.986   6.694  0.1057  0.5679 -0.3803
  299MOL0     C39388   3.544   4.358   5.583  0.3894  0.8215  0.5188
  299MOL0     C39389   3.632   4.279   5.510 -0.7209  0.2950 -0.0632
  299MOL0     C39390   4.055   4.056   5.478 -0.7435 -0.2425 -0.0229
  299MOL0     C39391   4.040   4.012   5.342  0.8261  0.0354 -0.4043
  299MOL0     C39392   4.127   3.923   5.280  0.6598 -0.7375  0.3425
  299MOL0     C39393   4.236   3.884   5.355 -0.6798  0.2578  0.0578
  299MOL0     O39394   4.314   3.808   5.278 -0.8023 -0.2151 -0.0211
  299MOL0     C39395   4.452   3.779   5.309 -0.5814  0.5311  0.1023
  299MOL0     C39396   4.527   3.738   5.183 -0.0533 -0.9272 -0.2215
  299MOL0     C39397   4.675   3.691   5.204 -0.4304 -0.0650  0.7817
  299MOL0     C39398   4.747   3.649   5.076  0.3208  0.8002  0.4240
  299MOL0     C39399   4.882   3.586   5.108  0.4884  0.2133  0.0973
  299MOL0     C39400   4.976   3.523   5.146 -0.5057  0.7761  0.1440
  299MOL0     C39401   4.263   3.939   5.482 -0.5324 -0.5416  0.0673
  299MOL0     C39402   4.173   4.014   5.541  0.1413 -0.2995 -0.1036
  299MOL0     H39403   3.918   4.384   5.661 -0.1018 -2.9741  0.4980
  299MOL0     H39404   3.754   4.521   5.786  1.7178 -1.4859 -0.8333
  299MOL0     H39405   3.318   4.424   5.742  5.3835 -1.0369  2.0097
  299MOL0     H39406   3.324   4.541   5.621 -0.8297  0.9678  0.1944
  299MOL0     H39407   3.185   4.652   5.770  1.1440  1.3638 -1.4731
  299MOL0     H39408   3.340   4.728   5.792  0.6599 -0.5868  0.0627
  299MOL0     H39409   3.361   4.558   6.001 -0.7571  0.3032  1.4537
  299MOL0     H39410   3.191   4.541   5.970 -1.2252  0.5503  0.4664
  299MOL0     H39411   3.319   4.809   6.002  1.4509 -0.5639  0.4006
  299MOL0     H39412   3.135   4.765   5.996 -0.1706 -1.6265  0.3136
  299MOL0     H39413   3.334   4.691   6.202 -0.9189 -1.3953  0.8748
  299MOL0     H39414   3.170   4.631   6.192  0.0785 -0.5165  0.2164
  299MOL0     H39415   3.091   4.885   6.197  0.8065  0.1735 -0.5476
  299MOL0     H39416   3.250   4.924   6.224  1.1274 -0.7466 -1.9083
  299MOL0     H39417   3.104   4.726   6.407 -1.3176 -0.3850 -2.6129
  299MOL0     H39418   3.255   4.816   6.443  0.1629 -2.3436 -1.7744
  299MOL0     H39419   2.977   4.935   6.429 -1.0641  1.5459  0.1222
  299MOL0     H39420   3.118   5.035   6.459 -1.7858  0.3170  2.3442
  299MOL0     H39421   2.913   4.771   6.655  1.3249 -1.9977 -1.7831
  299MOL0     H39422   3.052   4.815   7.023  0.0357  0.9812 -1.3952
  299MOL0     H39423   3.044   4.667   6.926  0.5875 -0.5947  2.0027
  299MOL0     H39424   2.834   4.684   7.033 -2.9273  2.0023  0.7823
  299MOL0     H39425   2.807   4.736   6.861  0.4929  2.4523 -0.8678
  299MOL0     H39426   2.836   4.918   7.105 -1.6340  0.0074 -0.2250
  299MOL0     H39427   2.796   4.970   6.945  1.3859 -0.7098 -0.3571
  299MOL0     H39428   2.610   4.756   7.071 -0.5203  0.7199  0.5129
  299MOL0     H39429   2.583   4.862   6.928 -2.1024  0.9478  0.6070
  299MOL0     H39430   2.364   4.768   6.994 -3.2815 -0.3198  0.8316
  299MOL0     H39431   2.157   4.751   7.071 -1.4304  1.6023 -1.0153
  299MOL0     H39432   1.885   5.190   7.550 -0.7018  0.3298  0.2862
  299MOL0     H39433   1.658   5.204   7.640  4.5359  0.6696  1.5616
  299MOL0     H39434   1.423   5.134   7.326  0.5045 -1.8893 -0.3135
  299MOL0     H39435   1.321   5.247   7.417  1.4993  0.6099 -5.5271
  299MOL0     H39436   1.202   5.056   7.521  1.2405  3.4700  0.3654
  299MOL0     H39437   1.277   4.940   7.418  3.9653  0.8431 -0.0278
  299MOL0     H39438   1.071   4.984   7.311  1.3729 -2.3564  0.3947
  299MOL0     H39439   1.202   5.057   7.219  2.8548 -0.9017  1.7997
  299MOL0     H39440   1.015   5.172   7.414  2.4176 -0.5693  0.7008
  299MOL0     H39441   1.126   5.280   7.322 -1.5339  1.3375 -2.2752
  299MOL0     H39442   0.924   5.106   7.178 -0.6649  0.4935  0.8541
  299MOL0     H39443   1.002   5.246   7.109 -1.3067  2.4521  0.0072
  299MOL0     H39444   0.905   5.393   7.259 -1.8779  1.1354 -0.3170
  299MOL0     H39445   0.802   5.271   7.328 -1.2766  0.6589 -0.3039
  299MOL0     H39446   0.782   5.370   7.053 -1.3961  2.1445  2.3723
  299MOL0     H39447   0.760   5.193   7.067 -0.8110 -0.5634 -0.9613
  299MOL0     H39448   0.612   5.400   7.236  0.7440 -1.2859  1.7590
  299MOL0     H39449   0.577   5.232   7.231  0.6446 -3.8176 -2.4730
  299MOL0     H39450   1.521   4.911   7.366  0.3771 -0.2063 -0.1929
  299MOL0     H39451   1.740   4.892   7.265 -2.0929  2.0311 -3.1825
  299MOL0     H39452   2.235   5.111   7.325  3.0213  1.6026 -1.5367
  299MOL0     H39453   2.440   5.120   7.249  0.8477  0.5839 -1.3557
  299MOL0     H39454   3.440   4.348   5.555  0.3240 -1.2360  1.2769
  299MOL0     H39455   3.597   4.217   5.428  0.5573  0.1477 -0.5237
  299MOL0     H39456   3.959   4.043   5.277  1.6838 -1.0219 -2.0261
  299MOL0     H39457   4.111   3.879   5.182  1.2908  1.9090 -1.0639
  299MOL0     H39458   4.455   3.696   5.380 -0.1045  0.8850  0.5103
  299MOL0     H39459   4.501   3.867   5.354 -0.7177  0.0704  1.1959
  299MOL0     H39460   4.465   3.662   5.134 -0.5071 -1.1911  0.7467
  299MOL0     H39461   4.532   3.819   5.110  0.7796  1.2393  2.1113
  299MOL0     H39462   4.676   3.597   5.259 -0.4567 -0.5490 -0.0196
  299MOL0     H39463   4.724   3.772   5.258 -1.5901  0.9636  0.3366
  299MOL0     H39464   4.689   3.568   5.032  0.1938  0.6676  0.8325
  299MOL0     H39465   4.777   3.735   5.015 -0.5318  0.0875 -1.0251
  299MOL0     H39466   5.063   3.474   5.183 -0.2775  1.2446  0.2406
  299MOL0     H39467   4.354   3.917   5.537 -2.0514  0.9398  3.4429
  299MOL0     H39468   4.201   4.048   5.641  0.0697 -1.7356  0.4263
  300MOL0     O39469   7.980   6.651  11.096  0.0602 -0.5053  0.0999
  300MOL0     C39470   8.046   6.728  11.172  0.1753  1.1694  0.4833
  300MOL0     O39471   7.996   6.803  11.275  0.4578  0.2674  0.2556
  300MOL0     C39472   7.868   6.787  11.321 -0.7945 -0.1835 -0.0141
  300MOL0     C39473   7.847   6.784  11.453 -0.2554  0.8725 -0.1121
  300MOL0     C39474   7.718   6.772  11.518 -1.3410 -0.0279  0.8530
  300MOL0     C39475   7.604   6.768  11.431 -0.1455 -0.0125  0.0416
  300MOL0     O39476   7.479   6.761  11.489  0.2355 -0.3098  0.0908
  300MOL0     C39477   7.368   6.807  11.406  0.0556  0.4286 -0.5027
  300MOL0     C39478   7.245   6.819  11.489  0.0041 -0.3057  0.6765
  300MOL0     C39479   7.181   6.681  11.524  1.0171 -0.6270 -0.3893
  300MOL0     C39480   7.066   6.682  11.613  0.6131  0.5343 -0.1310
  300MOL0     C39481   6.947   6.776  11.577 -0.8131  0.2017  0.5025
  300MOL0     C39482   6.826   6.755  11.658  0.6488  0.6139 -0.3779
  300MOL0     C39483   6.763   6.617  11.659  0.3877 -0.1665 -0.1143
  300MOL0     C39484   6.684   6.572  11.529 -0.6065  0.0557  0.3936
  300MOL0     N39485   6.537   6.618  11.530 -0.2605 -0.3859  0.0447
  300MOL0     C39486   6.429   6.564  11.584  0.0169 -0.3993 -0.3004
  300MOL0     C39487   6.322   6.639  11.549  0.3965 -1.0654 -0.4856
  300MOL0     C39488   6.183   6.603  11.589  1.3269 -0.0379  0.1592
  300MOL0     C39489   6.114   6.545  11.466 -0.5307 -0.5239 -0.5081
  300MOL0     C39490   5.962   6.547  11.498  0.8471 -0.9756 -0.5895
  300MOL0     C39491   5.884   6.450  11.413  0.5831 -0.4914 -0.1466
  300MOL0     O39492   5.802   6.512  11.316  0.3014  0.1567  0.0555
  300MOL0     C39493   5.678   6.557  11.358  0.9599  0.5051  0.2567
  300MOL0     C39494   5.641   6.575  11.498  0.3456  0.3924  0.5786
  300MOL0     C39495   5.518   6.633  11.540  0.1102 -0.7818  0.3435
  300MOL0     C39496   5.428   6.672  11.440 -0.3988  0.2217  0.0628
  300MOL0     C39497   5.300   6.731  11.473  0.3852  0.0474 -0.7833
  300MOL0     O39498   5.226   6.771  11.370  0.3543  0.2687  0.3705
  300MOL0     C39499   5.106   6.822  11.376  0.0132 -0.7329  0.5769
  300MOL0     C39500   5.072   6.934  11.459 -0.3305 -0.3565 -0.3007
  300MOL0     C39501   4.943   6.985  11.459  0.8533  0.1692  0.8346
  300MOL0     C39502   4.842   6.923  11.383  0.7871 -0.1663  0.2441
  300MOL0     O39503   4.712   6.978  11.396 -0.2475 -0.3035  0.0421
  300MOL0     C39504   4.596   6.883  11.394  0.1105 -0.0586  0.4079
  300MOL0     C39505   4.475   6.935  11.479  0.1366  0.7433  0.0186
  300MOL0     C39506   4.410   7.058  11.420  0.3228  0.3706 -0.4099
  300MOL0     C39507   4.288   7.096  11.514 -0.1547  0.2501 -0.7406
  300MOL0     C39508   4.195   7.204  11.455  0.6234  0.6159  0.0729
  300MOL0     C39509   4.062   7.207  11.531 -1.1449  0.6823 -0.0920
  300MOL0     C39510   3.968   7.319  11.476 -0.4352  0.8224 -0.7435
  300MOL0     C39511   3.877   7.283  11.359 -0.0831 -1.1055  0.1301
  300MOL0    Cl39512   3.780   7.436  11.318  0.1518 -0.1520  0.0955
  300MOL0     C39513   4.871   6.817  11.302 -0.4491  0.2870  0.0677
  300MOL0     C39514   5.004   6.768  11.292 -0.2124  0.2242 -0.5807
  300MOL0     O39515   5.268   6.733  11.595 -0.2651  0.4536  0.8802
  300MOL0     C39516   5.462   6.664  11.302 -0.9193  0.1128  0.3045
  300MOL0     C39517   5.588   6.608  11.261  0.1242  0.3289 -0.2324
  300MOL0     N39518   6.367   6.742  11.461 -0.3165  0.9886 -0.2829
  300MOL0     N39519   6.498   6.730  11.457 -0.7232  0.9067 -0.6078
  300MOL0     C39520   7.632   6.759  11.295 -0.2592 -0.1611 -0.3939
  300MOL0     C39521   7.764   6.772  11.236  0.3448  0.3810  0.2345
  300MOL0     C39522   8.191   6.720  11.160  0.5114  0.3791  0.2089
  300MOL0     C39523   8.252   6.650  11.058  0.0863  0.3817  0.5696
  300MOL0     C39524   8.392   6.651  11.040 -0.5126 -0.1321 -0.2485
  300MOL0     C39525   8.475   6.726  11.130  1.1066 -0.3319 -0.2981
  300MOL0     O39526   8.613   6.722  11.108 -0.3033 -0.1751  0.7757
  300MOL0     C39527   8.689   6.759  11.218 -0.2345  0.9185  0.1070
  300MOL0     C39528   8.839   6.740  11.187 -0.4526 -0.8768 -0.8335
  300MOL0     C39529   8.883   6.819  11.055  1.2067  0.2265  0.5057
  300MOL0     C39530   9.032   6.806  11.026 -0.0253  0.3502  0.2563
  300MOL0     C39531   9.072   6.666  10.994  0.3505 -0.1051  0.6734
  300MOL0     C39532   9.106   6.554  10.971 -0.3675  0.2136  0.9607
  300MOL0     C39533   8.410   6.804  11.235  0.1770  0.4791 -0.7607
  300MOL0     C39534   8.277   6.793  11.248  0.0639 -0.0459 -0.6111
  300MOL0     H39535   7.932   6.782  11.520 -1.5992 -0.9154  1.6443
  300MOL0     H39536   7.725   6.776  11.626 -1.3019 -0.5305  0.8692
  300MOL0     H39537   7.355   6.729  11.330 -1.1154  1.8863 -1.9016
  300MOL0     H39538   7.394   6.896  11.348  1.0291 -0.0367 -0.7960
  300MOL0     H39539   7.175   6.879  11.429  2.0517  0.8999 -0.6259
  300MOL0     H39540   7.268   6.870  11.583 -1.0040  2.2122 -0.3350
  300MOL0     H39541   7.258   6.622  11.574  1.0281 -0.8384 -0.6532
  300MOL0     H39542   7.152   6.631  11.431 -0.2889 -2.9840  1.2097
  300MOL0     H39543   7.037   6.576  11.615  3.0134 -0.1881  1.8191
  300MOL0     H39544   7.103   6.706  11.713  1.0988  2.6199 -0.7673
  300MOL0     H39545   6.917   6.756  11.474 -2.2396 -1.6472  1.2112
  300MOL0     H39546   6.985   6.878  11.590  0.5276 -0.5350  3.1113
  300MOL0     H39547   6.750   6.822  11.617 -1.7473 -0.6467  1.7405
  300MOL0     H39548   6.826   6.795  11.760 -2.0470 -1.3661  0.5163
  300MOL0     H39549   6.838   6.543  11.688  1.5532  0.5669 -1.1470
  300MOL0     H39550   6.693   6.614  11.743  1.1657 -3.1856  0.5363
  300MOL0     H39551   6.682   6.463  11.529  2.7756 -0.1302  0.6216
  300MOL0     H39552   6.739   6.602  11.439 -2.5875  3.1029  0.0508
  300MOL0     H39553   6.445   6.470  11.635 -2.0090  0.9837  3.2222
  300MOL0     H39554   6.120   6.689  11.614  0.6130 -0.7739  0.9644
  300MOL0     H39555   6.178   6.534  11.674  0.1790  0.4270  0.4883
  300MOL0     H39556   6.145   6.443  11.440  0.2463  0.1715 -2.5235
  300MOL0     H39557   6.139   6.611  11.382  1.4914 -2.2219 -1.3464
  300MOL0     H39558   5.949   6.520  11.604 -0.5287 -3.0530 -1.2087
  300MOL0     H39559   5.926   6.649  11.490 -0.4859 -1.2159  1.4906
  300MOL0     H39560   5.819   6.392  11.478  1.9758 -0.0817  1.6799
  300MOL0     H39561   5.954   6.375  11.373  1.2577 -1.6364  2.9338
  300MOL0     H39562   5.712   6.543  11.574 -0.9779 -4.4511  0.0983
  300MOL0     H39563   5.483   6.634  11.643 -0.6191  1.1606  0.1301
  300MOL0     H39564   5.157   6.990  11.495  0.3598 -1.5174 -0.0807
  300MOL0     H39565   4.919   7.077  11.511  1.8872  0.9421 -0.0018
  300MOL0     H39566   4.631   6.783  11.420 -0.9937 -1.1517 -1.9825
  300MOL0     H39567   4.559   6.873  11.291  0.8266 -2.3774  0.3091
  300MOL0     H39568   4.505   6.941  11.584  0.8797  1.1821 -0.2052
  300MOL0     H39569   4.395   6.861  11.468 -0.4228  1.7438 -5.3271
  300MOL0     H39570   4.356   7.036  11.328  0.3832 -1.7301  0.0047
  300MOL0     H39571   4.481   7.140  11.401 -0.7599  0.7088 -3.5628
  300MOL0     H39572   4.242   7.002  11.545  1.6005  0.0312  1.5140
  300MOL0     H39573   4.336   7.131  11.607  0.2465 -3.1406  0.4762
  300MOL0     H39574   4.177   7.165  11.355  0.5394 -0.0510  0.3378
  300MOL0     H39575   4.244   7.301  11.457  2.8871 -0.4616  1.1340
  300MOL0     H39576   4.083   7.216  11.638 -5.3668  3.2846  0.7877
  300MOL0     H39577   4.015   7.110  11.518 -0.3112  0.5788 -3.1543
  300MOL0     H39578   3.918   7.365  11.562 -1.1779  0.0940 -0.7709
  300MOL0     H39579   4.034   7.398  11.438  1.8998 -0.5017  0.3450
  300MOL0     H39580   3.818   7.197  11.389  2.0226 -2.0745  1.7770
  300MOL0     H39581   3.942   7.246  11.279 -2.1281 -1.0597 -1.6331
  300MOL0     H39582   4.800   6.778  11.231 -0.1921  1.1549 -0.6930
  300MOL0     H39583   5.023   6.692  11.218 -1.9632 -1.4426  0.5716
  300MOL0     H39584   5.393   6.692  11.222  0.6763  1.2119 -0.7513
  300MOL0     H39585   5.617   6.595  11.157  1.8098  1.8592  0.0007
  300MOL0     H39586   7.547   6.754  11.228 -2.4760  1.3889  2.0749
  300MOL0     H39587   7.772   6.783  11.128 -2.1454 -1.8171 -0.2814
  300MOL0     H39588   8.199   6.589  10.986  3.7805  0.3861 -2.4321
  300MOL0     H39589   8.446   6.596  10.964  1.3580 -0.1930  1.0459
  300MOL0     H39590   8.656   6.714  11.312 -1.6077  0.4488 -0.5879
  300MOL0     H39591   8.673   6.867  11.224 -0.9781  0.8184 -0.0606
  300MOL0     H39592   8.894   6.775  11.275 -1.5188 -2.4091  0.5011
  300MOL0     H39593   8.872   6.636  11.183  0.1385 -0.6737 -1.4480
  300MOL0     H39594   8.859   6.923  11.080  1.0088 -0.3634  3.0242
  300MOL0     H39595   8.834   6.786  10.963  0.4363  0.3299  0.8679
  300MOL0     H39596   9.053   6.874  10.943  1.2151 -0.6827 -0.3024
  300MOL0     H39597   9.094   6.838  11.110  1.6307 -2.5044  0.2315
  300MOL0     H39598   9.129   6.449  10.961  0.2694  0.3578  0.8375
  300MOL0     H39599   8.461   6.867  11.308  0.6765  0.3099 -0.9591
  300MOL0     H39600   8.233   6.857  11.324  1.3951  1.5237 -1.1033
  301MOL0     O39601  10.096   8.176   5.980 -0.0491  0.1258 -0.0468
  301MOL0     C39602  10.134   8.146   5.867 -0.0348  0.6878 -0.4511
  301MOL0     O39603  10.056   8.096   5.762  0.0256  0.6194 -0.2163
  301MOL0     C39604   9.926   8.075   5.795  0.3098  0.2453  0.4115
  301MOL0     C39605   9.865   7.947   5.783  0.2527 -0.1211  1.0295
  301MOL0     C39606   9.729   7.928   5.805 -0.5817 -0.5931  0.5401
  301MOL0     C39607   9.646   8.031   5.848  0.3100 -0.3131 -0.8230
  301MOL0     O39608   9.513   8.018   5.885  0.4724 -0.3094 -0.1027
  301MOL0     C39609   9.442   7.899   5.838  0.5677 -0.1839 -0.5901
  301MOL0     C39610   9.292   7.904   5.855 -0.6640 -0.3593  0.8919
  301MOL0     C39611   9.233   8.035   5.783 -0.7108  0.3922 -0.8100
  301MOL0     C39612   9.078   8.031   5.781 -0.1311 -1.0976 -0.4706
  301MOL0     C39613   9.011   8.181   5.782 -0.4634 -0.1908  0.0885
  301MOL0     C39614   9.031   8.255   5.639 -0.3718 -0.1962  0.5387
  301MOL0     C39615   8.959   8.382   5.645  0.1878  0.2053  0.6249
  301MOL0     C39616   8.949   8.454   5.512  1.0895  0.9942  0.6234
  301MOL0     N39617   8.866   8.577   5.528  0.3334  0.2999 -0.4291
  301MOL0     C39618   8.895   8.698   5.575 -0.7550 -0.5044 -0.6046
  301MOL0     C39619   8.781   8.770   5.555  0.1522  0.5391 -0.2460
  301MOL0     C39620   8.757   8.908   5.596  0.0313  0.0156  0.2336
  301MOL0     C39621   8.719   8.911   5.753 -0.2961 -0.9666  0.5179
  301MOL0     C39622   8.578   8.844   5.789  0.4297 -0.5239 -0.6234
  301MOL0     C39623   8.450   8.884   5.697 -0.0247 -0.0459 -0.5129
  301MOL0     O39624   8.341   8.804   5.737 -0.2551  0.5941 -0.5104
  301MOL0     C39625   8.223   8.820   5.668 -0.5776  0.9037  0.0491
  301MOL0     C39626   8.218   8.870   5.540  0.9022 -0.3247 -0.3298
  301MOL0     C39627   8.094   8.892   5.481  0.5750 -0.1584  0.4185
  301MOL0     C39628   7.973   8.846   5.543 -0.7957 -1.1558  0.5494
  301MOL0     C39629   7.841   8.852   5.471  0.7110  0.2013 -0.4072
  301MOL0     O39630   7.736   8.799   5.540  0.9072  0.1335  0.3228
  301MOL0     C39631   7.613   8.779   5.490 -0.4286 -0.5032  0.4723
  301MOL0     C39632   7.532   8.700   5.566  0.4740  0.1751  0.4519
  301MOL0     C39633   7.401   8.666   5.530 -0.4144 -0.3898 -0.2309
  301MOL0     C39634   7.351   8.721   5.408 -0.2838 -0.3207 -0.7211
  301MOL0     O39635   7.230   8.678   5.372 -0.1818  0.6049 -0.0346
  301MOL0     C39636   7.200   8.667   5.232  0.4744  0.5509  0.5197
  301MOL0     C39637   7.091   8.556   5.217 -0.4473 -0.2264  0.5525
  301MOL0     C39638   7.058   8.527   5.068  0.1551 -0.2548 -0.1302
  301MOL0     C39639   6.952   8.424   5.052  0.6768  0.0239 -0.0194
  301MOL0     C39640   6.812   8.488   5.064 -0.3367 -0.0884  0.0381
  301MOL0     C39641   6.700   8.391   5.038 -0.1781  0.0506 -0.1507
  301MOL0     C39642   6.564   8.451   5.078  0.4716  1.3232 -0.4225
  301MOL0     C39643   6.522   8.414   5.220  0.2833  0.1989  0.1987
  301MOL0    Cl39644   6.390   8.520   5.262  0.0710 -0.1544  0.3045
  301MOL0     C39645   7.430   8.801   5.332  0.4296  0.2800 -0.9686
  301MOL0     C39646   7.559   8.830   5.372  0.6561 -0.0044  0.4393
  301MOL0     O39647   7.838   8.912   5.367 -0.4670 -0.0035  0.0640
  301MOL0     C39648   7.988   8.788   5.675  0.8466  0.0658 -0.6384
  301MOL0     C39649   8.107   8.785   5.732 -0.7164  0.2887 -0.3520
  301MOL0     N39650   8.691   8.688   5.516 -0.3403  0.3152 -0.2154
  301MOL0     N39651   8.731   8.569   5.502 -0.0959  0.4225 -0.0312
  301MOL0     C39652   9.697   8.162   5.859 -0.8360 -1.3485  0.1473
  301MOL0     C39653   9.838   8.179   5.835  0.1327  0.6177 -0.5328
  301MOL0     C39654  10.287   8.145   5.847  0.3124 -0.2163 -0.2980
  301MOL0     C39655  10.367   8.213   5.936  0.0500  0.2512 -0.0961
  301MOL0     C39656  10.507   8.199   5.933 -1.2179  0.1997  0.0888
  301MOL0     C39657  10.573   8.135   5.832 -0.5245  0.3446  0.7917
  301MOL0     O39658  10.709   8.141   5.816 -0.2891  0.7899  0.2633
  301MOL0     C39659  10.781   8.131   5.938  0.2140 -0.4645 -0.3431
  301MOL0     C39660  10.923   8.102   5.913  0.4435  0.1472  0.0057
  301MOL0     C39661  11.005   8.082   6.045 -0.3166 -0.4520 -0.6400
  301MOL0     C39662  11.047   8.225   6.094 -1.1397 -0.0685 -0.3797
  301MOL0     C39663  11.194   8.238   6.083 -0.3077 -0.2502 -0.6607
  301MOL0     C39664  11.317   8.248   6.086 -0.0404 -0.1176 -0.8580
  301MOL0     C39665  10.494   8.077   5.739  0.4172  0.6046 -0.2865
  301MOL0     C39666  10.352   8.078   5.742  0.0491 -0.2296  0.0239
  301MOL0     H39667   9.912   7.859   5.741 -4.8783 -2.6314 -0.3628
  301MOL0     H39668   9.696   7.826   5.792  1.2954 -1.1916  0.0541
  301MOL0     H39669   9.485   7.811   5.887 -0.2408 -1.0268 -1.3628
  301MOL0     H39670   9.452   7.882   5.731 -7.3006 -0.1701 -1.8765
  301MOL0     H39671   9.268   7.905   5.962  0.2889 -0.9069  1.1286
  301MOL0     H39672   9.251   7.813   5.811  0.9962 -0.4168 -0.6326
  301MOL0     H39673   9.274   8.050   5.682 -3.3571 -0.1997 -2.0754
  301MOL0     H39674   9.265   8.129   5.829  2.9017 -0.3580 -1.4828
  301MOL0     H39675   9.051   7.968   5.696 -2.4843 -0.7110 -0.0645
  301MOL0     H39676   9.032   7.967   5.856 -2.0756 -1.3882 -1.8406
  301MOL0     H39677   9.052   8.253   5.853 -0.6068  3.0816 -2.8538
  301MOL0     H39678   8.903   8.169   5.790 -0.6408 -0.4518 -2.0306
  301MOL0     H39679   8.994   8.188   5.560 -1.0865 -0.6834  1.2805
  301MOL0     H39680   9.138   8.277   5.627 -0.2882  1.5681  3.6639
  301MOL0     H39681   8.860   8.365   5.689 -0.2812 -1.1221 -0.8259
  301MOL0     H39682   9.012   8.442   5.720  1.7289  1.3012 -1.2396
  301MOL0     H39683   8.901   8.394   5.434 -0.0249  2.5641  0.0330
  301MOL0     H39684   9.046   8.482   5.470  2.0090 -2.0821  0.5240
  301MOL0     H39685   8.990   8.739   5.609 -1.5012  2.7434 -2.0733
  301MOL0     H39686   8.676   8.950   5.535  0.4215 -1.0079 -1.0419
  301MOL0     H39687   8.839   8.977   5.575  0.3349  0.4918  2.7654
  301MOL0     H39688   8.713   9.017   5.779 -3.6839 -0.7649 -0.5015
  301MOL0     H39689   8.800   8.872   5.815  1.2253  1.5566  0.2467
  301MOL0     H39690   8.582   8.737   5.766 -0.3306 -0.3284 -1.7792
  301MOL0     H39691   8.568   8.849   5.898  1.7830 -0.7416 -0.4775
  301MOL0     H39692   8.479   8.860   5.594  0.6073 -0.9520 -0.1418
  301MOL0     H39693   8.414   8.987   5.703 -1.4002 -0.4243 -1.6252
  301MOL0     H39694   8.311   8.908   5.499  1.0340  0.1184  0.3518
  301MOL0     H39695   8.093   8.946   5.387 -1.0700 -0.9894 -0.0665
  301MOL0     H39696   7.567   8.669   5.664 -1.8144 -1.2958  0.8802
  301MOL0     H39697   7.336   8.595   5.580 -1.9044  1.2658  0.2780
  301MOL0     H39698   7.284   8.630   5.172 -0.2383  1.7344 -1.3008
  301MOL0     H39699   7.161   8.763   5.196 -2.5138 -0.8939 -0.3800
  301MOL0     H39700   7.005   8.603   5.266 -0.0352 -0.0440  1.1005
  301MOL0     H39701   7.121   8.464   5.268 -2.2140 -0.8211  0.5761
  301MOL0     H39702   7.156   8.499   5.030 -0.8585 -2.2285 -1.4546
  301MOL0     H39703   7.031   8.618   5.014  1.7743  0.3413  0.0217
  301MOL0     H39704   6.957   8.382   4.951 -0.5906 -1.0576  0.3401
  301MOL0     H39705   6.955   8.348   5.131  1.6217 -0.7023 -0.7402
  301MOL0     H39706   6.793   8.573   4.997 -1.1439  0.3442  0.8007
  301MOL0     H39707   6.803   8.524   5.166 -1.9889 -3.6265  1.2856
  301MOL0     H39708   6.702   8.294   5.090 -1.9238 -0.2875 -0.6559
  301MOL0     H39709   6.717   8.365   4.933  2.0980 -1.2654  0.4644
  301MOL0     H39710   6.555   8.560   5.070 -1.8783  1.2617  0.5161
  301MOL0     H39711   6.485   8.420   5.009  1.4909  1.4206 -1.6907
  301MOL0     H39712   6.597   8.434   5.297 -0.5302  1.3308  0.7395
  301MOL0     H39713   6.489   8.310   5.213 -1.0135  0.6809 -1.9637
  301MOL0     H39714   7.392   8.841   5.239  0.2080 -0.4419 -1.1908
  301MOL0     H39715   7.603   8.912   5.316 -0.0348 -0.6365 -1.0955
  301MOL0     H39716   7.901   8.742   5.721 -1.0986  4.1724  0.2908
  301MOL0     H39717   8.120   8.745   5.832  1.0782  1.4859 -0.0650
  301MOL0     H39718   9.635   8.249   5.880 -1.4493 -1.8826  0.5507
  301MOL0     H39719   9.874   8.280   5.852  0.3104  0.4037  0.4271
  301MOL0     H39720  10.320   8.265   6.019 -0.1342  0.1254 -0.1209
  301MOL0     H39721  10.557   8.253   6.012  1.8158 -0.2412 -1.3984
  301MOL0     H39722  10.740   8.067   6.016  1.3951  1.6986  2.2078
  301MOL0     H39723  10.760   8.228   5.985  0.2394  0.7103 -2.6240
  301MOL0     H39724  10.931   8.008   5.857  2.0395  0.2043  0.0872
  301MOL0     H39725  10.965   8.188   5.860  1.3815 -0.1729  0.2178
  301MOL0     H39726  11.098   8.034   6.013 -0.3573 -0.1315 -1.2540
  301MOL0     H39727  10.944   8.044   6.127 -1.9988 -0.2310 -1.7342
  301MOL0     H39728  10.998   8.299   6.031  1.6302  1.7700 -0.5372
  301MOL0     H39729  11.000   8.239   6.192  0.7484 -0.3449  0.6140
  301MOL0     H39730  11.422   8.261   6.105 -0.5160  0.2823  1.8344
  301MOL0     H39731  10.557   8.044   5.658  1.2900  0.0574  0.5844
  301MOL0     H39732  10.296   8.033   5.660  0.1697 -0.4664  0.0684
  302MOL0     O39733  10.541   6.791  11.029  0.1231 -0.9538 -0.4419
  302MOL0     C39734  10.514   6.694  11.097 -0.1716  0.6564 -0.6097
  302MOL0     O39735  10.380   6.653  11.129  0.0045  0.0989 -0.2883
  302MOL0     C39736  10.274   6.714  11.066  0.8023  0.3131 -0.0016
  302MOL0     C39737  10.155   6.638  11.052 -0.3773 -0.0904  0.9302
  302MOL0     C39738  10.035   6.691  10.981 -0.0835  0.4188 -0.4157
  302MOL0     C39739  10.031   6.821  10.939  1.5137 -0.1495  0.1971
  302MOL0     O39740   9.924   6.892  10.893  0.2320 -0.3969  0.3945
  302MOL0     C39741   9.800   6.821  10.877  0.8127 -0.3845 -0.6023
  302MOL0     C39742   9.785   6.741  10.747 -0.0419  0.1640  0.5760
  302MOL0     C39743   9.640   6.686  10.733 -0.5788  0.5300  1.0861
  302MOL0     C39744   9.617   6.599  10.606 -0.1186 -0.5724  0.2214
  302MOL0     C39745   9.468   6.575  10.584 -0.7519  0.6517  0.4450
  302MOL0     C39746   9.391   6.517  10.707  0.5789 -0.4376  0.3563
  302MOL0     C39747   9.246   6.478  10.666  0.1406 -0.6139 -0.4299
  302MOL0     C39748   9.167   6.598  10.615 -1.0021 -0.2007  0.0032
  302MOL0     N39749   9.025   6.564  10.585 -0.0799 -0.0348 -0.1551
  302MOL0     C39750   8.919   6.578  10.671 -0.4117 -0.0072  0.5123
  302MOL0     C39751   8.810   6.518  10.611 -1.3841  0.7415 -0.6520
  302MOL0     C39752   8.665   6.518  10.659  0.1767  0.4960  1.2016
  302MOL0     C39753   8.642   6.373  10.701  0.6867  0.7762 -0.0991
  302MOL0     C39754   8.489   6.350  10.708  1.0188  1.1661  0.2611
  302MOL0     C39755   8.454   6.198  10.725  0.0574  0.4378  1.0895
  302MOL0     O39756   8.316   6.182  10.774 -0.0355  0.6541  0.2610
  302MOL0     C39757   8.215   6.227  10.688 -0.1447  0.4463  0.2466
  302MOL0     C39758   8.211   6.237  10.546  0.1554 -1.1914  0.0468
  302MOL0     C39759   8.092   6.267  10.474 -0.6014 -0.3535 -0.5114
  302MOL0     C39760   7.975   6.295  10.544 -0.1823  0.2350  0.0877
  302MOL0     C39761   7.865   6.356  10.465 -0.1621 -0.2011  0.5948
  302MOL0     O39762   7.737   6.330  10.507 -0.1542 -0.3999  0.1573
  302MOL0     C39763   7.633   6.404  10.456  0.6737 -0.5709 -0.7577
  302MOL0     C39764   7.518   6.325  10.451 -0.1327 -0.6916 -0.0563
  302MOL0     C39765   7.403   6.386  10.405 -0.0604 -0.0485  0.4210
  302MOL0     C39766   7.405   6.508  10.356  0.1669 -0.9742 -0.8010
  302MOL0     O39767   7.292   6.559  10.316 -0.1096  0.3889 -0.2270
  302MOL0     C39768   7.238   6.518  10.192  1.4445  0.3196  0.9104
  302MOL0     C39769   7.131   6.617  10.164 -0.2528 -0.3447  0.0506
  302MOL0     C39770   7.197   6.755  10.123  0.6156 -0.3779  0.4571
  302MOL0     C39771   7.093   6.869  10.094 -0.1479  0.5811 -0.2004
  302MOL0     C39772   7.155   7.011  10.096  0.0994  0.1843 -0.0110
  302MOL0     C39773   7.194   7.061  10.233  0.5452  0.0699 -0.2029
  302MOL0     C39774   7.224   7.212  10.221 -0.6126  0.0960 -0.8420
  302MOL0     C39775   7.330   7.249  10.114  0.8734  0.8371 -0.3461
  302MOL0    Cl39776   7.471   7.132  10.115  0.4731 -0.4987  0.4317
  302MOL0     C39777   7.510   6.589  10.356 -0.6546  0.2946 -1.0294
  302MOL0     C39778   7.641   6.536  10.410  0.6142  0.2473 -0.4611
  302MOL0     O39779   7.894   6.427  10.370  0.0048  0.3111 -0.1519
  302MOL0     C39780   7.974   6.285  10.682 -0.1122 -0.0084 -0.0619
  302MOL0     C39781   8.095   6.259  10.752 -0.1735  0.0564  0.5689
  302MOL0     N39782   8.846   6.479  10.486 -0.1928 -0.5735  0.3637
  302MOL0     N39783   8.974   6.498  10.474 -0.2596  0.3150  0.5493
  302MOL0     C39784  10.148   6.896  10.954  0.6736 -0.4497  0.2411
  302MOL0     C39785  10.262   6.839  11.007  0.2458 -0.8153 -0.9648
  302MOL0     C39786  10.623   6.610  11.153  0.0942 -0.4578  0.7774
  302MOL0     C39787  10.758   6.640  11.123 -0.0255  0.3375 -0.3721
  302MOL0     C39788  10.868   6.559  11.166  0.0504 -0.0841 -0.1216
  302MOL0     C39789  10.843   6.444  11.245 -1.0104 -1.5224 -0.0186
  302MOL0     O39790  10.940   6.356  11.286  0.2084 -1.1428 -0.2841
  302MOL0     C39791  11.072   6.356  11.227  0.4206  0.0327  0.9590
  302MOL0     C39792  11.059   6.276  11.095 -0.7620  0.5579 -0.1576
  302MOL0     C39793  11.198   6.269  11.030  0.1315 -0.2628  0.4794
  302MOL0     C39794  11.178   6.186  10.899 -0.3052 -0.0894 -0.6781
  302MOL0     C39795  11.312   6.152  10.858  0.8366 -0.8461 -0.1421
  302MOL0     C39796  11.411   6.109  10.796 -0.3779  0.5065 -0.2567
  302MOL0     C39797  10.706   6.427  11.285  0.3034  0.6668  0.2086
  302MOL0     C39798  10.599   6.514  11.244 -0.2685 -0.2078 -0.3257
  302MOL0     H39799  10.136   6.537  11.086  0.9715 -0.6721  0.0416
  302MOL0     H39800   9.954   6.620  10.963 -0.3712  0.1417  1.7741
  302MOL0     H39801   9.716   6.889  10.891  1.8348  0.4549  1.9869
  302MOL0     H39802   9.797   6.753  10.962  0.0621 -1.3779 -1.3866
  302MOL0     H39803   9.855   6.657  10.755 -0.8515 -0.5670  0.1939
  302MOL0     H39804   9.808   6.800  10.657 -0.9612  0.2459  0.3875
  302MOL0     H39805   9.581   6.777  10.713 -1.0832 -0.2274 -1.1516
  302MOL0     H39806   9.606   6.643  10.828  1.2009  1.1457  2.0558
  302MOL0     H39807   9.663   6.652  10.522 -0.4448  0.2604  0.5517
  302MOL0     H39808   9.660   6.501  10.628 -0.3319 -1.0850 -1.4779
  302MOL0     H39809   9.459   6.508  10.498 -2.1986  3.7797 -2.0324
  302MOL0     H39810   9.423   6.669  10.554 -0.2166  0.7649 -0.0260
  302MOL0     H39811   9.378   6.578  10.797 -0.5914 -1.8806  1.2247
  302MOL0     H39812   9.426   6.419  10.739 -1.0170 -1.5045 -0.9916
  302MOL0     H39813   9.239   6.394  10.595  2.2038 -0.3353 -1.0128
  302MOL0     H39814   9.189   6.448  10.754 -1.6089  1.2444 -0.8569
  302MOL0     H39815   9.214   6.630  10.522 -1.4227 -2.1314 -0.9421
  302MOL0     H39816   9.174   6.673  10.693 -0.8338 -0.9885  0.7600
  302MOL0     H39817   8.929   6.637  10.762  1.9783 -1.2634  1.1633
  302MOL0     H39818   8.608   6.553  10.573  0.7902  2.1306  1.4253
  302MOL0     H39819   8.652   6.588  10.742  1.7413  0.3324  1.6213
  302MOL0     H39820   8.688   6.354  10.798  4.3070  2.8458 -1.2211
  302MOL0     H39821   8.679   6.295  10.634 -1.9270  0.9314 -1.8605
  302MOL0     H39822   8.458   6.412  10.793  2.5498  0.9383  1.0140
  302MOL0     H39823   8.444   6.392  10.618 -1.5395 -0.4976  0.6835
  302MOL0     H39824   8.514   6.162  10.810  0.4303  2.6944  1.8865
  302MOL0     H39825   8.473   6.142  10.634  2.2612  1.5823  0.7744
  302MOL0     H39826   8.297   6.211  10.487 -1.9193 -4.9631 -1.6639
  302MOL0     H39827   8.089   6.283  10.367  1.4196 -1.5493 -0.8025
  302MOL0     H39828   7.514   6.223  10.487 -1.7898 -0.3880  0.7294
  302MOL0     H39829   7.315   6.323  10.414 -1.0713  1.2644  0.0186
  302MOL0     H39830   7.181   6.424  10.196  0.5099  0.8266 -0.0702
  302MOL0     H39831   7.314   6.506  10.115 -1.0238 -0.2015 -1.5864
  302MOL0     H39832   7.062   6.630  10.248 -3.7412  0.6418 -2.6881
  302MOL0     H39833   7.063   6.586  10.083  1.4728 -1.3841 -1.0509
  302MOL0     H39834   7.259   6.730  10.036 -3.1186  0.0356 -2.5820
  302MOL0     H39835   7.274   6.787  10.193  2.3459  0.6713 -1.7948
  302MOL0     H39836   7.050   6.850   9.995 -0.0670  0.2125 -0.1642
  302MOL0     H39837   7.010   6.869  10.165 -1.6678  2.5233 -1.8372
  302MOL0     H39838   7.081   7.079  10.053 -1.3907 -0.4092  1.5309
  302MOL0     H39839   7.244   7.009  10.032 -0.8255  1.0145 -1.3648
  302MOL0     H39840   7.272   6.999  10.279 -1.0860 -0.6509  1.7201
  302MOL0     H39841   7.115   7.052  10.308  1.0146 -1.3520  0.1591
  302MOL0     H39842   7.132   7.267  10.201 -2.6714 -3.4936 -2.0498
  302MOL0     H39843   7.267   7.235  10.319  0.0049  0.7228 -1.2490
  302MOL0     H39844   7.369   7.349  10.131  2.1124 -0.0114  2.2284
  302MOL0     H39845   7.272   7.244  10.021 -1.4222  0.4485  1.0235
  302MOL0     H39846   7.507   6.693  10.324  1.1013  0.3528 -1.0757
  302MOL0     H39847   7.735   6.590  10.408  0.1259  1.1329 -0.1096
  302MOL0     H39848   7.882   6.296  10.739 -0.7528 -2.9680 -0.3654
  302MOL0     H39849   8.100   6.244  10.859 -3.7558 -0.3625  0.8214
  302MOL0     H39850  10.146   6.997  10.915 -1.7579 -0.9833 -1.2092
  302MOL0     H39851  10.346   6.907  10.999 -1.5517  1.8122  0.6859
  302MOL0     H39852  10.772   6.734  11.071  1.9974 -0.7785 -1.9880
  302MOL0     H39853  10.968   6.587  11.138  0.1035 -3.0216 -3.7221
  302MOL0     H39854  11.134   6.303  11.300 -1.2615 -1.9361  1.0511
  302MOL0     H39855  11.103   6.458  11.201  0.7523 -0.6558 -1.6430
  302MOL0     H39856  11.036   6.170  11.109 -2.2379  0.5871 -1.9844
  302MOL0     H39857  10.993   6.327  11.025 -0.8517 -1.5721 -1.7042
  302MOL0     H39858  11.268   6.222  11.100 -1.2929 -0.3114  1.9176
  302MOL0     H39859  11.233   6.372  11.012 -1.0062 -0.2572 -2.0003
  302MOL0     H39860  11.123   6.092  10.912 -0.2858  0.1924  2.2068
  302MOL0     H39861  11.129   6.240  10.818  1.2836 -1.6499 -2.7868
  302MOL0     H39862  11.502   6.075  10.752 -0.4666  0.4217 -0.3767
  302MOL0     H39863  10.686   6.358  11.366  0.4399 -0.6161 -0.8191
  302MOL0     H39864  10.502   6.484  11.281 -0.1856 -0.1806 -0.0834
  303MOL0     O39865   7.650   6.242   3.788 -0.1358  0.3348 -0.5053
  303MOL0     C39866   7.754   6.171   3.811  0.4175  0.2323  0.4973
  303MOL0     O39867   7.749   6.028   3.831 -0.4811  0.2235 -0.1763
  303MOL0     C39868   7.627   5.964   3.841  0.0220  0.2297 -0.7613
  303MOL0     C39869   7.552   5.926   3.732  0.0275 -0.0880 -0.4626
  303MOL0     C39870   7.443   5.843   3.742  0.1135 -0.5860 -1.0249
  303MOL0     C39871   7.382   5.827   3.871 -1.3067  0.1694  0.4306
  303MOL0     O39872   7.272   5.754   3.901 -0.3134  0.0615 -0.1554
  303MOL0     C39873   7.244   5.655   3.803 -0.1850  0.2945  0.0436
  303MOL0     C39874   7.123   5.602   3.875 -0.5126  0.3388 -0.7470
  303MOL0     C39875   7.039   5.507   3.775  0.1746  0.3314 -0.1677
  303MOL0     C39876   6.919   5.452   3.859 -0.1077 -0.2399 -0.3947
  303MOL0     C39877   6.843   5.344   3.771  0.4916 -0.6747  0.3089
  303MOL0     C39878   6.750   5.271   3.866 -1.2758 -0.3215 -0.0463
  303MOL0     C39879   6.696   5.152   3.790  0.0554 -0.2089  0.5086
  303MOL0     C39880   6.561   5.106   3.848  0.6500 -0.0333 -0.2187
  303MOL0     N39881   6.511   4.971   3.797 -0.2550  0.1863 -0.1397
  303MOL0     C39882   6.589   4.862   3.763  0.1028 -0.3102 -0.1451
  303MOL0     C39883   6.519   4.779   3.677  0.1956 -0.4296 -0.6582
  303MOL0     C39884   6.571   4.664   3.605  0.6169 -0.4255  0.5722
  303MOL0     C39885   6.461   4.564   3.550 -0.2676 -0.5550  0.5001
  303MOL0     C39886   6.356   4.513   3.650  0.3313  0.2629  0.8083
  303MOL0     C39887   6.233   4.465   3.582 -0.6880 -0.0342  0.5369
  303MOL0     O39888   6.145   4.434   3.688 -0.3537 -0.5457  0.1330
  303MOL0     C39889   6.017   4.394   3.655 -0.2784 -0.0968 -0.2059
  303MOL0     C39890   5.926   4.379   3.763  0.4767  0.4943  0.8241
  303MOL0     C39891   5.791   4.351   3.747  0.2931 -0.1682 -0.0836
  303MOL0     C39892   5.745   4.328   3.612 -0.4630  0.6375  0.1632
  303MOL0     C39893   5.606   4.302   3.585 -0.8385 -0.8781 -0.7019
  303MOL0     O39894   5.556   4.328   3.458  0.2803 -0.0477 -0.2413
  303MOL0     C39895   5.424   4.322   3.438  0.6790 -0.3259 -0.0162
  303MOL0     C39896   5.305   4.322   3.529 -0.5770 -0.1763  0.3920
  303MOL0     C39897   5.171   4.322   3.484 -0.6969  0.6796 -0.1283
  303MOL0     C39898   5.147   4.319   3.347 -0.3347  0.9207 -0.1116
  303MOL0     O39899   5.028   4.316   3.280  0.2916 -0.2169  0.4395
  303MOL0     C39900   4.914   4.323   3.371  0.2425  0.2885  0.3371
  303MOL0     C39901   4.788   4.320   3.289  0.0012  0.1676  0.9277
  303MOL0     C39902   4.743   4.192   3.230 -0.4734  1.0309 -0.5238
  303MOL0     C39903   4.653   4.212   3.113 -0.5477  0.4063 -0.5432
  303MOL0     C39904   4.516   4.269   3.145 -0.0721 -1.1643 -0.9927
  303MOL0     C39905   4.467   4.366   3.038 -1.5545  0.3835 -0.3328
  303MOL0     C39906   4.317   4.380   3.031  2.1730  0.2244 -0.0787
  303MOL0     C39907   4.239   4.274   2.943 -0.5818  0.1748  0.4447
  303MOL0    Cl39908   4.250   4.318   2.767  0.2831  0.4054 -0.5585
  303MOL0     C39909   5.254   4.326   3.262 -0.0730 -1.3774  0.4057
  303MOL0     C39910   5.386   4.322   3.302 -0.5119 -0.3944  0.2099
  303MOL0     O39911   5.545   4.255   3.678 -1.0432 -0.2656  0.3999
  303MOL0     C39912   5.837   4.332   3.500  0.3964  0.2235  1.4008
  303MOL0     C39913   5.968   4.371   3.528 -1.0977 -0.4371  0.4233
  303MOL0     N39914   6.391   4.837   3.666 -0.4976 -0.0730 -0.1507
  303MOL0     N39915   6.387   4.946   3.741  0.5025  0.4730 -0.5383
  303MOL0     C39916   7.445   5.873   3.977 -0.4658 -0.0372  0.0111
  303MOL0     C39917   7.569   5.945   3.968  0.8830 -0.1882  0.6886
  303MOL0     C39918   7.883   6.240   3.835 -0.7733 -0.7941 -0.2940
  303MOL0     C39919   7.998   6.164   3.865 -0.3592  0.3827  0.6860
  303MOL0     C39920   8.121   6.225   3.884 -0.2700 -0.4427 -0.0766
  303MOL0     C39921   8.131   6.366   3.888  0.4529 -0.3935  0.8754
  303MOL0     O39922   8.243   6.421   3.927  0.2754 -0.3965  0.0887
  303MOL0     C39923   8.284   6.547   3.873  0.3944 -1.3442  0.1996
  303MOL0     C39924   8.422   6.582   3.906  0.9666  0.6794 -0.2985
  303MOL0     C39925   8.440   6.592   4.067  0.6723 -0.5197  0.5035
  303MOL0     C39926   8.569   6.671   4.105 -0.4054  0.4573  0.9355
  303MOL0     C39927   8.582   6.812   4.058  0.7591  0.6177  0.1142
  303MOL0     C39928   8.606   6.927   4.037 -0.4910 -0.6207 -0.1150
  303MOL0     C39929   8.018   6.441   3.867 -0.7265  0.4379  0.8636
  303MOL0     C39930   7.899   6.382   3.834  0.6996  0.4426  0.3778
  303MOL0     H39931   7.593   5.934   3.632  1.4011 -0.4445  0.0387
  303MOL0     H39932   7.388   5.811   3.655  0.8788 -2.6961 -0.7938
  303MOL0     H39933   7.320   5.577   3.793 -0.1125  0.3639  0.0541
  303MOL0     H39934   7.215   5.687   3.703 -2.0980 -1.5794 -0.0797
  303MOL0     H39935   7.058   5.688   3.897  1.4501  1.8557 -0.6687
  303MOL0     H39936   7.151   5.552   3.968  1.1744 -2.0345 -2.4326
  303MOL0     H39937   7.103   5.428   3.734 -1.9861 -0.6041 -1.9317
  303MOL0     H39938   6.992   5.570   3.699  0.2043  1.3130  0.6127
  303MOL0     H39939   6.968   5.406   3.946  1.8424 -0.8356 -1.7211
  303MOL0     H39940   6.850   5.533   3.884  0.1745  0.5399 -2.0268
  303MOL0     H39941   6.915   5.277   3.724  0.3213 -0.6351 -0.0119
  303MOL0     H39942   6.783   5.392   3.692 -0.3970 -3.0624 -0.5446
  303MOL0     H39943   6.662   5.332   3.890  0.1549  1.8697 -0.1446
  303MOL0     H39944   6.792   5.251   3.965 -2.5707  2.9650  1.3004
  303MOL0     H39945   6.684   5.185   3.686  1.2576 -0.1072  0.3824
  303MOL0     H39946   6.769   5.070   3.789  0.2396 -0.0680 -1.7990
  303MOL0     H39947   6.483   5.181   3.829 -0.3228 -0.3212  2.2262
  303MOL0     H39948   6.559   5.112   3.957 -1.4801  2.1490 -0.3025
  303MOL0     H39949   6.690   4.847   3.799 -0.2541 -0.1900  0.9562
  303MOL0     H39950   6.626   4.606   3.680  0.9604 -0.8371  0.0084
  303MOL0     H39951   6.634   4.694   3.521  1.4550 -4.3904 -0.4367
  303MOL0     H39952   6.520   4.487   3.498  3.5123  3.3803 -1.6832
  303MOL0     H39953   6.413   4.614   3.465  0.7817 -0.8947 -0.3266
  303MOL0     H39954   6.391   4.429   3.711 -2.0104  0.7683  3.0543
  303MOL0     H39955   6.316   4.592   3.714  1.2326  2.6774 -1.4176
  303MOL0     H39956   6.250   4.374   3.524  1.0170  0.3409  0.3857
  303MOL0     H39957   6.206   4.549   3.517  2.0235  1.6146  1.3362
  303MOL0     H39958   5.960   4.411   3.862 -0.3292  0.5588  1.0836
  303MOL0     H39959   5.724   4.354   3.832 -0.7962  0.6897 -0.9479
  303MOL0     H39960   5.323   4.346   3.633 -0.9089 -2.8114  1.1172
  303MOL0     H39961   5.091   4.309   3.556 -0.1249 -3.9763 -0.0273
  303MOL0     H39962   4.918   4.416   3.428 -1.1611  0.2057  0.6017
  303MOL0     H39963   4.918   4.241   3.444  1.8743 -0.1957 -0.2482
  303MOL0     H39964   4.811   4.378   3.199  0.9409 -2.8483 -0.9326
  303MOL0     H39965   4.708   4.371   3.344 -0.8474  0.1235 -0.2323
  303MOL0     H39966   4.693   4.134   3.309 -0.6582 -0.9050 -2.0032
  303MOL0     H39967   4.824   4.124   3.203 -1.2575  0.3864 -1.3076
  303MOL0     H39968   4.712   4.275   3.044  3.3289  0.6328  2.6136
  303MOL0     H39969   4.640   4.111   3.073 -0.9447 -0.5085  1.7903
  303MOL0     H39970   4.529   4.329   3.236  0.5748 -0.9462 -1.2234
  303MOL0     H39971   4.450   4.184   3.163 -0.6290  0.0077  3.9882
  303MOL0     H39972   4.485   4.315   2.943 -3.1502  0.7771 -0.8889
  303MOL0     H39973   4.527   4.457   3.035 -3.5937  1.7669 -2.1880
  303MOL0     H39974   4.276   4.360   3.131  0.0500  0.2687 -0.9025
  303MOL0     H39975   4.290   4.484   3.009 -2.7913 -0.5606  1.1930
  303MOL0     H39976   4.135   4.265   2.975 -1.0585  0.6579 -0.8838
  303MOL0     H39977   4.288   4.178   2.967  0.9007  1.2092  1.7596
  303MOL0     H39978   5.228   4.333   3.157  1.1234 -1.4640  0.0784
  303MOL0     H39979   5.466   4.312   3.229 -0.2040  0.8293  0.3424
  303MOL0     H39980   5.788   4.305   3.407 -1.1559 -0.0125  2.2601
  303MOL0     H39981   6.034   4.379   3.442  1.5083  1.3424  2.4567
  303MOL0     H39982   7.395   5.861   4.073 -0.3234 -1.5126 -0.0733
  303MOL0     H39983   7.629   5.961   4.056 -0.8995  0.7744  1.7846
  303MOL0     H39984   8.003   6.057   3.880 -1.4793  0.2534  0.2186
  303MOL0     H39985   8.217   6.177   3.903  0.7782  1.2829 -0.6931
  303MOL0     H39986   8.227   6.637   3.896  0.2341 -1.2980 -0.3599
  303MOL0     H39987   8.264   6.546   3.765  0.4052  2.9678  0.0085
  303MOL0     H39988   8.484   6.502   3.863  1.0784  0.7908 -0.3455
  303MOL0     H39989   8.440   6.680   3.861  0.5407  2.1079  2.4753
  303MOL0     H39990   8.452   6.499   4.123 -2.6102  0.7114  3.6393
  303MOL0     H39991   8.351   6.638   4.112  1.1702  1.3410 -0.2809
  303MOL0     H39992   8.567   6.675   4.215 -1.4807  0.6219  0.9271
  303MOL0     H39993   8.653   6.602   4.094 -1.7538 -1.4202  1.8052
  303MOL0     H39994   8.621   7.033   4.026 -4.1307  0.1826  1.2360
  303MOL0     H39995   8.028   6.549   3.875 -0.6494  0.4909  0.1394
  303MOL0     H39996   7.803   6.432   3.833 -0.3312 -1.4371 -0.2881
  304MOL0     O39997  10.092   3.435   4.053 -0.0845 -0.4083  0.1261
  304MOL0     C39998  10.194   3.423   4.120 -0.1455  0.5212  0.0968
  304MOL0     O39999  10.194   3.377   4.245 -0.4077  0.0839 -0.9243
  304MOL0     C40000  10.102   3.287   4.275  0.7439  0.0899  0.7549
  304MOL0     C40001  10.123   3.152   4.257 -0.5352 -0.5506  0.4570
  304MOL0     C40002  10.023   3.053   4.279  0.2482  0.1039 -0.1956
  304MOL0     C40003   9.901   3.094   4.315  0.1950  0.0193 -0.8704
  304MOL0     O40004   9.802   3.003   4.346  0.4717  0.4195  0.0142
  304MOL0     C40005   9.667   3.029   4.299 -0.8516 -0.5897  0.1111
  304MOL0     C40006   9.596   2.898   4.300 -0.3311  0.9628  0.2616
  304MOL0     C40007   9.446   2.914   4.267 -0.2610 -0.6840  0.1631
  304MOL0     C40008   9.357   2.950   4.381 -0.2638  0.1899 -0.0409
  304MOL0     C40009   9.217   2.998   4.334  0.5104 -0.1040 -0.4209
  304MOL0     C40010   9.131   3.038   4.454 -0.5380 -0.4542 -0.0157
  304MOL0     C40011   9.116   2.915   4.549  0.0968 -0.0348  0.1223
  304MOL0     C40012   8.995   2.930   4.637 -0.1965  1.5151 -0.3359
  304MOL0     N40013   9.008   3.045   4.727 -0.0390 -0.0458  0.0467
  304MOL0     C40014   8.962   3.175   4.690  0.5010  0.1241 -0.4714
  304MOL0     C40015   8.984   3.246   4.800 -0.2607 -0.0103 -0.3002
  304MOL0     C40016   8.951   3.387   4.803 -0.4866 -0.2895 -0.1485
  304MOL0     C40017   8.823   3.412   4.876  0.5205 -0.7100  0.4009
  304MOL0     C40018   8.784   3.560   4.871  1.0302 -0.4197  0.1476
  304MOL0     C40019   8.660   3.603   4.947  0.3602  0.7549  0.1789
  304MOL0     O40020   8.623   3.740   4.912 -0.0965 -0.7184  0.2215
  304MOL0     C40021   8.513   3.790   4.974 -0.2970 -0.1043 -0.6235
  304MOL0     C40022   8.508   3.923   5.013  0.3756  0.0508  0.3197
  304MOL0     C40023   8.396   3.983   5.078  0.3095  0.0018  0.1900
  304MOL0     C40024   8.295   3.906   5.113 -0.1328 -0.3535  0.2283
  304MOL0     C40025   8.185   3.954   5.196 -0.2502 -0.7651  0.0360
  304MOL0     O40026   8.081   3.870   5.226 -0.5904  0.1428 -0.4205
  304MOL0     C40027   7.974   3.906   5.303 -0.0818  0.2778 -0.3140
  304MOL0     C40028   7.879   3.991   5.247 -1.0284 -0.9008 -1.4420
  304MOL0     C40029   7.776   4.034   5.334 -0.6700 -0.1173 -0.0484
  304MOL0     C40030   7.768   3.999   5.469  0.0426  0.3674 -0.7270
  304MOL0     O40031   7.661   4.043   5.543 -0.5196  0.4078  0.5037
  304MOL0     C40032   7.621   3.981   5.673 -0.4989  0.3694 -0.3928
  304MOL0     C40033   7.489   4.037   5.724  0.6976 -0.2503  0.2234
  304MOL0     C40034   7.454   3.999   5.867  0.4509  0.5230  0.1896
  304MOL0     C40035   7.304   4.047   5.893 -0.2642 -0.6467  0.4567
  304MOL0     C40036   7.275   4.039   6.038  0.1852  0.2526  1.1210
  304MOL0     C40037   7.169   4.124   6.092  0.0086 -0.5017  0.5985
  304MOL0     C40038   7.025   4.083   6.069  0.1851  0.0290  0.1229
  304MOL0     C40039   6.933   4.166   6.156  0.8458 -0.2329  0.5834
  304MOL0    Cl40040   6.897   4.082   6.309 -0.0560  0.1526 -0.1075
  304MOL0     C40041   7.860   3.903   5.515  0.2982  0.2330 -1.2726
  304MOL0     C40042   7.961   3.862   5.434  0.4200 -0.6990 -0.2119
  304MOL0     O40043   8.190   4.073   5.222 -0.3981  0.3591  0.3295
  304MOL0     C40044   8.295   3.772   5.074 -0.4259 -0.2408 -0.0241
  304MOL0     C40045   8.400   3.719   4.995  0.0173 -0.1187 -0.5843
  304MOL0     N40046   9.053   3.168   4.894  0.7599 -0.1672  0.1964
  304MOL0     N40047   9.051   3.046   4.852  0.3128  1.0245 -0.1835
  304MOL0     C40048   9.875   3.235   4.339 -0.5800  0.3773  0.0964
  304MOL0     C40049   9.974   3.328   4.316 -0.3727 -0.0898  0.1362
  304MOL0     C40050  10.331   3.459   4.065  0.2060  0.6287 -0.7239
  304MOL0     C40051  10.450   3.391   4.112  0.4251  0.3851 -0.2442
  304MOL0     C40052  10.570   3.416   4.046 -0.7909 -1.8076  0.0011
  304MOL0     C40053  10.579   3.515   3.945  0.3786  0.0512 -0.2169
  304MOL0     O40054  10.697   3.556   3.881  0.4087 -0.4331 -0.2815
  304MOL0     C40055  10.823   3.496   3.923 -0.4093 -0.5415  0.3342
  304MOL0     C40056  10.928   3.562   3.829 -0.1228 -0.5343  0.0195
  304MOL0     C40057  11.067   3.500   3.848  0.5582 -0.4645  0.3371
  304MOL0     C40058  11.165   3.549   3.738  0.1835 -0.7847 -0.1003
  304MOL0     C40059  11.193   3.691   3.760 -0.2244 -0.1030  0.0283
  304MOL0     C40060  11.217   3.804   3.767 -0.5269 -0.2228 -0.6163
  304MOL0     C40061  10.464   3.591   3.910 -0.2965 -0.1471 -0.6046
  304MOL0     C40062  10.344   3.555   3.962 -1.1542 -0.3391  0.6348
  304MOL0     H40063  10.218   3.119   4.219  0.2691  1.7125  0.3169
  304MOL0     H40064  10.029   2.945   4.266  3.1506 -0.3812  3.3476
  304MOL0     H40065   9.673   3.077   4.201  0.7916 -1.8860 -0.4735
  304MOL0     H40066   9.617   3.090   4.375  0.2537  1.0622 -0.4240
  304MOL0     H40067   9.610   2.856   4.400 -3.5894  1.4264  1.0239
  304MOL0     H40068   9.636   2.832   4.222 -1.0733 -0.3722  0.9782
  304MOL0     H40069   9.418   2.827   4.207  4.1773 -1.1123 -1.6738
  304MOL0     H40070   9.430   2.993   4.193 -1.0376 -0.5795  0.4320
  304MOL0     H40071   9.362   2.864   4.448 -1.7065 -0.0014 -0.1475
  304MOL0     H40072   9.408   3.033   4.429  0.3198 -2.5293  4.6466
  304MOL0     H40073   9.162   2.927   4.271  0.7724 -0.7857  0.1101
  304MOL0     H40074   9.223   3.083   4.266 -0.8580  1.4068  1.2158
  304MOL0     H40075   9.033   3.068   4.417 -0.3043  2.0342  1.2283
  304MOL0     H40076   9.165   3.130   4.502 -0.4557 -0.6193  0.2456
  304MOL0     H40077   9.096   2.824   4.492  2.0472  0.6127 -1.7380
  304MOL0     H40078   9.207   2.889   4.603 -1.1087 -2.9590  0.9087
  304MOL0     H40079   8.983   2.834   4.689  2.8287  2.2525  1.9869
  304MOL0     H40080   8.906   2.945   4.576  0.5098  2.3873 -1.1734
  304MOL0     H40081   8.940   3.207   4.589 -0.7584 -3.5539 -1.5323
  304MOL0     H40082   8.947   3.435   4.704  1.0010 -0.4418 -0.3088
  304MOL0     H40083   9.028   3.441   4.859 -0.4688  1.3412 -1.6409
  304MOL0     H40084   8.824   3.366   4.976  0.4978 -2.8648 -0.5333
  304MOL0     H40085   8.733   3.367   4.834 -1.4705  2.3132  1.0729
  304MOL0     H40086   8.870   3.608   4.918  0.2147  0.6156  0.6239
  304MOL0     H40087   8.780   3.589   4.766 -0.3342 -1.8888 -0.2650
  304MOL0     H40088   8.680   3.591   5.053 -1.9486 -1.8209  0.4216
  304MOL0     H40089   8.578   3.535   4.921  2.2898 -0.7024 -2.6900
  304MOL0     H40090   8.599   3.982   5.009 -0.2196  0.9635 -0.0981
  304MOL0     H40091   8.399   4.087   5.107 -1.7157  0.4105 -0.8429
  304MOL0     H40092   7.887   4.021   5.143  0.1545  0.9265 -0.8750
  304MOL0     H40093   7.687   4.084   5.299 -0.2756  0.9876  0.4695
  304MOL0     H40094   7.697   3.989   5.751 -3.0174  2.0655  2.0999
  304MOL0     H40095   7.596   3.876   5.660  2.7397 -0.8549  1.8173
  304MOL0     H40096   7.412   3.996   5.657  0.8601  2.3711 -1.7214
  304MOL0     H40097   7.484   4.146   5.722  1.6005 -0.2159 -1.4498
  304MOL0     H40098   7.516   4.054   5.938  1.2256 -0.2308  0.1020
  304MOL0     H40099   7.456   3.890   5.875  0.0398  0.3989 -1.1639
  304MOL0     H40100   7.306   4.155   5.876 -0.6789 -0.4069  1.8435
  304MOL0     H40101   7.228   4.006   5.826  1.5790 -1.4082 -1.2760
  304MOL0     H40102   7.363   4.066   6.096  1.6159 -0.8286 -0.4462
  304MOL0     H40103   7.244   3.936   6.057 -4.5552  1.4725  1.1731
  304MOL0     H40104   7.184   4.222   6.044 -0.6792 -1.6837 -2.2187
  304MOL0     H40105   7.182   4.137   6.200  1.2405 -0.4261  0.4567
  304MOL0     H40106   7.007   4.101   5.962 -0.2017  2.5214  0.5364
  304MOL0     H40107   7.003   3.983   6.106  0.7183 -0.9222 -1.9987
  304MOL0     H40108   6.839   4.177   6.100  1.4699 -0.3186 -0.5003
  304MOL0     H40109   6.964   4.270   6.165 -1.7826  0.8729 -1.8593
  304MOL0     H40110   7.843   3.846   5.606 -2.1180  2.9064  0.1299
  304MOL0     H40111   8.034   3.795   5.478 -0.1491 -0.1190  1.7218
  304MOL0     H40112   8.213   3.707   5.105 -1.5773  1.0995 -0.1567
  304MOL0     H40113   8.390   3.612   4.980  0.9784 -0.2954 -0.0918
  304MOL0     H40114   9.775   3.270   4.358 -0.4540 -0.0234  1.6228
  304MOL0     H40115   9.948   3.433   4.325  1.3418  0.3622  0.1182
  304MOL0     H40116  10.439   3.319   4.192 -1.9937 -0.6793 -1.4111
  304MOL0     H40117  10.658   3.365   4.085 -0.8760 -0.4066  2.2453
  304MOL0     H40118  10.814   3.387   3.911 -2.0200 -0.2098 -2.3555
  304MOL0     H40119  10.859   3.519   4.023  0.4953 -3.4089  0.7666
  304MOL0     H40120  10.887   3.545   3.729 -0.9473 -3.3282  0.7378
  304MOL0     H40121  10.922   3.668   3.852  2.0811  0.1059 -1.9356
  304MOL0     H40122  11.068   3.393   3.823 -0.5521 -0.4634  0.2410
  304MOL0     H40123  11.113   3.520   3.945 -0.4155  0.7147  0.5703
  304MOL0     H40124  11.261   3.500   3.758  1.3834  2.3513  2.8657
  304MOL0     H40125  11.133   3.524   3.636 -0.3686 -1.0338  0.1303
  304MOL0     H40126  11.234   3.908   3.786  0.1768 -0.2991 -0.8000
  304MOL0     H40127  10.485   3.676   3.845 -1.0280  1.8846  1.6598
  304MOL0     H40128  10.255   3.609   3.932 -0.8126  1.3046  2.3972
  305MOL0     O40129   3.782   0.616   9.916 -0.4081  0.2330  0.2229
  305MOL0     C40130   3.748   0.576   9.803  0.7802 -0.3197 -0.2700
  305MOL0     O40131   3.634   0.496   9.781 -0.5055 -0.3619  0.5708
  305MOL0     C40132   3.556   0.430   9.871 -0.2781 -1.1142 -0.4913
  305MOL0     C40133   3.588   0.397  10.002 -0.0562  0.5728 -0.1708
  305MOL0     C40134   3.495   0.324  10.076  0.2452  0.5463  0.8339
  305MOL0     C40135   3.371   0.275  10.023 -0.6074  0.2360  0.1213
  305MOL0     O40136   3.264   0.224  10.095 -0.6371 -0.1065  0.0439
  305MOL0     C40137   3.293   0.176  10.223  0.0026 -0.3637 -0.6489
  305MOL0     C40138   3.180   0.091  10.277  0.6938  0.1764 -0.6552
  305MOL0     C40139   3.048   0.169  10.280  0.2991 -0.8775 -0.4568
  305MOL0     C40140   2.938   0.107  10.369 -0.1259  0.1440 -0.0759
  305MOL0     C40141   2.801   0.168  10.323  0.3732  0.2202  0.0225
  305MOL0     C40142   2.675   0.101  10.391  0.1271 -0.6388 -0.5630
  305MOL0     C40143   2.548   0.165  10.331 -0.4642  0.1341 -0.0876
  305MOL0     C40144   2.420   0.140  10.418 -0.8471  0.3118  0.4242
  305MOL0     N40145   2.312   0.209  10.350 -0.0460 -0.5975  0.1916
  305MOL0     C40146   2.191   0.230  10.405  0.1234 -0.2335 -0.0575
  305MOL0     C40147   2.129   0.298  10.311 -0.0889 -0.0912  0.3711
  305MOL0     C40148   1.980   0.333  10.313 -0.4903  0.2849  0.5466
  305MOL0     C40149   1.955   0.482  10.259 -0.4369  0.0172 -0.5314
  305MOL0     C40150   1.810   0.511  10.248  0.6149 -0.1901  0.0318
  305MOL0     C40151   1.727   0.502  10.374 -0.6378  0.2098  0.3230
  305MOL0     O40152   1.597   0.534  10.333 -0.1665  0.3549  0.1375
  305MOL0     C40153   1.503   0.537  10.438 -0.4158  1.1608 -0.2849
  305MOL0     C40154   1.375   0.558  10.396  0.2507 -0.7137  0.1173
  305MOL0     C40155   1.271   0.572  10.482 -0.0540  1.0711  0.2789
  305MOL0     C40156   1.290   0.578  10.617  0.3257  0.6101  0.4915
  305MOL0     C40157   1.173   0.591  10.710  0.6252 -0.2922 -0.2650
  305MOL0     O40158   1.051   0.567  10.657 -0.0523 -0.2270  0.1974
  305MOL0     C40159   0.928   0.599  10.718 -0.3837 -0.0891  0.0680
  305MOL0     C40160   0.904   0.631  10.854  0.7366 -0.0032  0.4904
  305MOL0     C40161   0.775   0.666  10.886  0.4118  0.1972  0.4295
  305MOL0     C40162   0.669   0.656  10.794  0.3089  0.1942 -0.3619
  305MOL0     O40163   0.546   0.686  10.851 -0.1226 -0.3312  0.8390
  305MOL0     C40164   0.440   0.702  10.761  0.6570  0.7366  0.1036
  305MOL0     C40165   0.331   0.786  10.823  0.1298  0.0615  0.0804
  305MOL0     C40166   0.200   0.771  10.742 -0.5638  0.6982  1.3442
  305MOL0     C40167   0.083   0.864  10.801 -0.5896  0.3953 -0.5160
  305MOL0     C40168  -0.018   0.901  10.691 -0.4780 -0.1360 -0.1542
  305MOL0     C40169  -0.102   0.788  10.635  0.2103 -0.1538  0.0377
  305MOL0     C40170  -0.218   0.842  10.550  1.1735 -0.0765  0.0611
  305MOL0     C40171  -0.334   0.895  10.641 -0.2438 -0.2053  0.4430
  305MOL0    Cl40172  -0.374   0.791  10.793 -0.2548 -0.4186  0.0337
  305MOL0     C40173   0.694   0.605  10.671  0.7298 -0.0072  1.0145
  305MOL0     C40174   0.821   0.576  10.634 -0.4039  0.2303 -0.6403
  305MOL0     O40175   1.193   0.620  10.829 -0.3419  0.0893  0.6587
  305MOL0     C40176   1.419   0.557  10.663 -0.3261 -0.3510 -0.0085
  305MOL0     C40177   1.526   0.535  10.576 -0.2108  0.1406  1.0123
  305MOL0     N40178   2.207   0.334  10.202  0.0756 -0.4412  0.8065
  305MOL0     N40179   2.323   0.280  10.237  0.0404 -0.5546  0.4507
  305MOL0     C40180   3.354   0.298   9.888  0.3570 -0.2266  0.0419
  305MOL0     C40181   3.442   0.380   9.817 -0.1106  0.7175 -0.2455
  305MOL0     C40182   3.829   0.621   9.687  0.8533 -0.2001  0.5206
  305MOL0     C40183   3.914   0.735   9.693 -0.1798 -0.0355  0.0924
  305MOL0     C40184   3.985   0.775   9.583  0.2355 -0.0428  0.3898
  305MOL0     C40185   3.972   0.714   9.462  0.8248  0.0555 -0.1954
  305MOL0     O40186   4.050   0.756   9.348  0.2364  0.3475 -0.5321
  305MOL0     C40187   4.169   0.837   9.380  0.5622 -0.4275  0.1619
  305MOL0     C40188   4.271   0.851   9.267  0.3470 -1.0748  0.0897
  305MOL0     C40189   4.379   0.951   9.323 -0.4144  0.6649  1.2775
  305MOL0     C40190   4.520   0.944   9.258 -0.7636 -0.0857 -0.2925
  305MOL0     C40191   4.508   0.948   9.115  0.7580 -0.1505 -0.5016
  305MOL0     C40192   4.522   0.952   8.994  0.5477 -0.3978  0.8823
  305MOL0     C40193   3.888   0.598   9.454  0.6815  0.8498 -0.4910
  305MOL0     C40194   3.812   0.559   9.561 -0.5397  0.3875 -0.0914
  305MOL0     H40195   3.685   0.423  10.045 -0.9035  1.1943  1.4462
  305MOL0     H40196   3.522   0.325  10.181  0.3232 -1.4228  0.8698
  305MOL0     H40197   3.300   0.261  10.291  2.4927 -1.7948  1.0463
  305MOL0     H40198   3.387   0.121  10.229  1.0457  1.4657  0.6063
  305MOL0     H40199   3.198   0.062  10.381 -4.9812  3.8018  1.8248
  305MOL0     H40200   3.164   0.010  10.205  0.1983 -0.9512  0.6848
  305MOL0     H40201   3.026   0.175  10.173  1.6017  0.2472 -0.6828
  305MOL0     H40202   3.058   0.275  10.305 -4.1455 -0.2612 -0.3530
  305MOL0     H40203   2.944   0.000  10.347 -1.2891  0.1833 -0.6174
  305MOL0     H40204   2.950   0.125  10.476 -2.2611 -0.2564  0.2624
  305MOL0     H40205   2.798   0.164  10.213 -4.3264  1.7125 -0.1320
  305MOL0     H40206   2.806   0.274  10.348  1.9592  0.4158 -0.9709
  305MOL0     H40207   2.689   0.105  10.499  1.4771 -0.4760 -0.7235
  305MOL0     H40208   2.673  -0.005  10.365 -3.4775 -1.3336  1.8525
  305MOL0     H40209   2.569   0.272  10.326  0.7628 -0.1377 -0.8748
  305MOL0     H40210   2.537   0.132  10.227  1.5892  0.5179 -0.4716
  305MOL0     H40211   2.446   0.177  10.517  1.7996 -0.4373  0.1010
  305MOL0     H40212   2.403   0.032  10.419 -0.4182  0.2518  1.5929
  305MOL0     H40213   2.157   0.175  10.492  1.8332 -2.2951 -0.5942
  305MOL0     H40214   1.934   0.319  10.411  0.7419  2.2491  1.4698
  305MOL0     H40215   1.928   0.271  10.239 -1.5951  2.5341 -0.6546
  305MOL0     H40216   1.991   0.497  10.157  0.4471  1.9721  0.0104
  305MOL0     H40217   1.999   0.560  10.323  0.5664  1.6430 -3.0276
  305MOL0     H40218   1.802   0.618  10.229  0.5765 -0.1477  0.2731
  305MOL0     H40219   1.767   0.454  10.165 -0.4755  1.9322 -0.9371
  305MOL0     H40220   1.768   0.570  10.449  2.0674  2.0185 -2.5672
  305MOL0     H40221   1.729   0.398  10.409  0.6560  0.4354  0.9722
  305MOL0     H40222   1.364   0.569  10.288 -1.7604  0.6107  0.4032
  305MOL0     H40223   1.171   0.575  10.439 -0.2196 -1.7661  0.2882
  305MOL0     H40224   0.983   0.643  10.926  1.9626  3.0090 -1.2008
  305MOL0     H40225   0.751   0.701  10.986 -3.1226  2.2001 -0.9462
  305MOL0     H40226   0.402   0.601  10.747 -0.9965  0.9587  2.5065
  305MOL0     H40227   0.461   0.750  10.665  0.2928  2.2687  0.7575
  305MOL0     H40228   0.365   0.889  10.812  3.4747 -0.7206  1.9231
  305MOL0     H40229   0.318   0.776  10.931 -0.9984  2.0254  0.1808
  305MOL0     H40230   0.173   0.665  10.729 -3.5271  1.3514  1.4400
  305MOL0     H40231   0.226   0.809  10.643  2.6111 -1.3553  1.2345
  305MOL0     H40232   0.035   0.814  10.886  0.4948  1.0892  0.5497
  305MOL0     H40233   0.134   0.957  10.827 -2.5045  1.7185 -1.3017
  305MOL0     H40234   0.035   0.940  10.604  0.5207  0.2141  0.5857
  305MOL0     H40235  -0.083   0.981  10.727 -1.1834 -0.6854 -0.1857
  305MOL0     H40236  -0.135   0.716  10.711 -0.4047 -1.2878 -1.2795
  305MOL0     H40237  -0.045   0.721  10.570 -0.8342  0.5072 -1.6013
  305MOL0     H40238  -0.193   0.919  10.477 -0.4000  1.2299  0.8332
  305MOL0     H40239  -0.260   0.753  10.501 -0.3138  0.5905  0.0627
  305MOL0     H40240  -0.428   0.893  10.584 -0.5727 -0.2382  0.9720
  305MOL0     H40241  -0.310   0.994  10.680 -1.5770 -0.0472  0.9194
  305MOL0     H40242   0.612   0.576  10.608  0.2862  1.5219  0.8421
  305MOL0     H40243   0.841   0.541  10.533  1.2706 -1.4600  0.2281
  305MOL0     H40244   1.431   0.563  10.770  0.8974 -2.1280 -0.0131
  305MOL0     H40245   1.629   0.516  10.603  1.3886  4.1048 -1.4470
  305MOL0     H40246   3.262   0.260   9.844 -1.7944 -0.1114  3.9487
  305MOL0     H40247   3.427   0.394   9.710 -2.2567 -0.9005 -0.2446
  305MOL0     H40248   3.929   0.792   9.784  3.8350  0.2645 -0.5729
  305MOL0     H40249   4.045   0.863   9.601 -0.3631  0.4856 -0.1462
  305MOL0     H40250   4.225   0.782   9.456  0.5549  1.3115  1.4833
  305MOL0     H40251   4.139   0.937   9.412  0.5832 -0.5878  0.6999
  305MOL0     H40252   4.322   0.756   9.250  0.6028 -0.5028 -2.7728
  305MOL0     H40253   4.229   0.887   9.173  0.0996  2.1722  1.2995
  305MOL0     H40254   4.396   0.935   9.430  2.4278 -0.0193  0.8039
  305MOL0     H40255   4.346   1.056   9.316 -0.9162  0.5684  2.0142
  305MOL0     H40256   4.590   1.022   9.290 -3.3605  2.8574 -1.2456
  305MOL0     H40257   4.562   0.847   9.284 -0.8301  0.4442  2.0369
  305MOL0     H40258   4.545   0.957   8.889  0.1779  0.5251  0.8364
  305MOL0     H40259   3.872   0.555   9.356 -0.3511  2.9081 -1.2761
  305MOL0     H40260   3.729   0.489   9.554 -2.0967  1.8413  2.3761
  306MOL0     O40261   2.720   9.020  10.539  0.5190  0.2498  0.0475
  306MOL0     C40262   2.729   9.142  10.557 -0.3158  0.1103  0.0786
  306MOL0     O40263   2.620   9.229  10.541  0.6322  0.8449 -0.5500
  306MOL0     C40264   2.495   9.184  10.519 -0.7974  0.0618  0.2663
  306MOL0     C40265   2.430   9.095  10.610 -0.1993  1.1190  1.0223
  306MOL0     C40266   2.302   9.052  10.584  0.7504 -0.4993  0.0695
  306MOL0     C40267   2.228   9.088  10.473 -0.6393 -1.0059 -0.1336
  306MOL0     O40268   2.091   9.058  10.476 -0.5408 -0.4261  0.3707
  306MOL0     C40269   2.012   9.094  10.363  0.1957 -0.1595 -0.1885
  306MOL0     C40270   1.878   9.020  10.368 -0.2723  0.3696  0.7977
  306MOL0     C40271   1.794   9.058  10.488 -0.4243 -0.2181 -0.0074
  306MOL0     C40272   1.647   9.015  10.475  0.6966 -0.7949  0.5993
  306MOL0     C40273   1.546   9.101  10.548  0.7551  0.2612 -0.3183
  306MOL0     C40274   1.552   9.105  10.700 -0.1810  0.2287 -0.0381
  306MOL0     C40275   1.425   9.156  10.760  0.7226 -0.7154 -0.8844
  306MOL0     C40276   1.311   9.051  10.750 -0.1653  0.9520 -0.0584
  306MOL0     N40277   1.194   9.104  10.814  0.4174  0.0731  0.1582
  306MOL0     C40278   1.172   9.120  10.955  0.3571  0.3471  0.8336
  306MOL0     C40279   1.043   9.161  10.959  0.1897  0.4941  0.1574
  306MOL0     C40280   0.946   9.172  11.071 -0.0795 -0.4534 -0.5781
  306MOL0     C40281   1.021   9.176  11.202 -0.8436 -0.1621 -0.7007
  306MOL0     C40282   0.955   9.266  11.305  1.3863 -0.0069 -0.2845
  306MOL0     C40283   0.806   9.223  11.341  0.6613 -0.1076  0.4376
  306MOL0     O40284   0.754   9.303  11.448  0.4811  0.0461  0.5539
  306MOL0     C40285   0.614   9.296  11.480 -1.1604  0.3810  0.1095
  306MOL0     C40286   0.525   9.207  11.416  0.4686  0.4364  0.4093
  306MOL0     C40287   0.388   9.222  11.447 -0.2989  0.8351 -0.0562
  306MOL0     C40288   0.340   9.307  11.543  0.1515 -0.6083  0.4171
  306MOL0     C40289   0.205   9.306  11.585 -0.0561 -1.4639  0.0801
  306MOL0     O40290   0.167   9.422  11.657  0.1969  0.3841 -0.0420
  306MOL0     C40291   0.033   9.449  11.677  0.4080 -0.7844  0.0076
  306MOL0     C40292  -0.066   9.441  11.588  0.8677  0.4246  0.7445
  306MOL0     C40293  -0.202   9.476  11.623  0.6734  1.0609 -0.0757
  306MOL0     C40294  -0.230   9.515  11.753  0.1046 -0.7318  0.8975
  306MOL0     O40295  -0.365   9.544  11.762 -0.1488  0.9004  0.2540
  306MOL0     C40296  -0.419   9.604  11.879  0.1179 -0.3307  0.3541
  306MOL0     C40297  -0.566   9.631  11.869  0.5913 -0.0080  0.3243
  306MOL0     C40298  -0.622   9.708  11.989 -0.6751 -0.3075 -1.0447
  306MOL0     C40299  -0.774   9.682  12.024 -0.7797  0.2887  0.2989
  306MOL0     C40300  -0.829   9.795  12.115  0.3658  0.6417 -1.0936
  306MOL0     C40301  -0.982   9.787  12.115  0.2105  0.0445  0.5460
  306MOL0     C40302  -1.040   9.886  12.216 -0.0644  0.2037  0.6071
  306MOL0     C40303  -1.176   9.842  12.277  0.4556 -1.2559 -0.4188
  306MOL0    Cl40304  -1.142   9.684  12.373  0.0299  0.2169  0.3301
  306MOL0     C40305  -0.131   9.526  11.846 -0.4881 -0.4961  0.0081
  306MOL0     C40306   0.004   9.499  11.801  0.1017  0.9594 -0.4519
  306MOL0     O40307   0.132   9.211  11.556 -0.0466 -0.2053  0.2386
  306MOL0     C40308   0.429   9.395  11.609 -0.4459 -0.5884 -0.6243
  306MOL0     C40309   0.561   9.382  11.575  0.8391 -0.7448  0.1187
  306MOL0     N40310   0.981   9.169  10.828  0.1657  0.2281  0.3332
  306MOL0     N40311   1.078   9.141  10.747  0.0012 -1.1555  0.6732
  306MOL0     C40312   2.296   9.177  10.382  0.8157  0.3407 -0.8158
  306MOL0     C40313   2.427   9.222  10.407  0.6333  0.5428 -0.6123
  306MOL0     C40314   2.853   9.207  10.593 -0.2334 -0.5821  0.3301
  306MOL0     C40315   2.860   9.354  10.602 -0.7341 -0.5551 -0.3458
  306MOL0     C40316   2.977   9.420  10.632 -0.1107 -0.0548 -0.0928
  306MOL0     C40317   3.090   9.347  10.644  0.4911 -0.0693  0.7546
  306MOL0     O40318   3.200   9.413  10.680 -0.1598 -0.3321 -0.3349
  306MOL0     C40319   3.330   9.371  10.625  1.0226  0.9261 -0.0097
  306MOL0     C40320   3.411   9.330  10.749 -0.2103 -0.3473  0.2067
  306MOL0     C40321   3.520   9.218  10.728  0.6394  0.0599  0.3345
  306MOL0     C40322   3.594   9.199  10.865 -0.7641  0.6996  0.2044
  306MOL0     C40323   3.669   9.320  10.880 -0.5642 -0.1319 -0.3035
  306MOL0     C40324   3.748   9.415  10.891 -0.2053  0.5290 -0.7086
  306MOL0     C40325   3.089   9.204  10.634 -0.5961 -0.2746 -0.7781
  306MOL0     C40326   2.972   9.138  10.614 -0.9202  0.3019 -0.2757
  306MOL0     H40327   2.489   9.061  10.695  0.5865  1.1385  0.4919
  306MOL0     H40328   2.252   8.974  10.641  1.0620 -0.5053  0.3411
  306MOL0     H40329   2.055   9.077  10.264  0.2788  3.5486 -0.9382
  306MOL0     H40330   1.997   9.202  10.375  1.1063 -0.0762  0.2462
  306MOL0     H40331   1.878   8.911  10.363 -0.8076  0.4185 -1.5508
  306MOL0     H40332   1.823   9.040  10.275  3.3685 -0.0608 -1.6379
  306MOL0     H40333   1.801   9.167  10.492 -1.8032 -0.1461  1.5759
  306MOL0     H40334   1.843   9.005  10.570  1.2030  0.9559 -0.1658
  306MOL0     H40335   1.615   9.021  10.370 -0.2029 -0.4069  0.8876
  306MOL0     H40336   1.645   8.911  10.509  1.1979 -0.1226  2.7919
  306MOL0     H40337   1.450   9.075  10.504  1.6029 -1.9141 -1.0302
  306MOL0     H40338   1.566   9.201  10.508  1.3980  1.3797  2.5398
  306MOL0     H40339   1.635   9.168  10.733  0.6839 -1.2734  0.7673
  306MOL0     H40340   1.579   9.005  10.736  0.4170  1.2892  2.6850
  306MOL0     H40341   1.447   9.186  10.863  2.6142  1.8005 -1.8949
  306MOL0     H40342   1.398   9.249  10.709  2.2666  1.4876  1.9657
  306MOL0     H40343   1.320   8.951  10.794 -2.7407  0.7916  0.3075
  306MOL0     H40344   1.274   9.034  10.648 -2.4885 -1.2966  1.0452
  306MOL0     H40345   1.246   9.100  11.033  2.3032 -2.0024 -1.4325
  306MOL0     H40346   0.861   9.105  11.061 -1.5194  1.3269 -0.8002
  306MOL0     H40347   0.900   9.266  11.038 -0.5540 -0.0046  1.2617
  306MOL0     H40348   1.123   9.215  11.196 -1.9357  3.1936  0.6267
  306MOL0     H40349   1.022   9.076  11.247  0.4376 -1.2689 -2.9996
  306MOL0     H40350   1.009   9.266  11.400  1.2825  0.1919 -0.2248
  306MOL0     H40351   0.947   9.369  11.270 -1.0762  0.3231  1.0074
  306MOL0     H40352   0.812   9.118  11.372  2.5184  0.4160  2.0596
  306MOL0     H40353   0.752   9.235  11.246 -0.2745  3.5976  1.2732
  306MOL0     H40354   0.554   9.134  11.341  1.8721  1.2641  0.1221
  306MOL0     H40355   0.316   9.167  11.387  0.6253  0.3403 -0.7354
  306MOL0     H40356  -0.048   9.405  11.487  1.8309  3.7562 -0.4017
  306MOL0     H40357  -0.279   9.461  11.549 -0.4012 -1.2845  1.4110
  306MOL0     H40358  -0.363   9.695  11.897  1.9410 -0.3632 -3.9686
  306MOL0     H40359  -0.398   9.534  11.960  1.0398 -0.1723  0.2641
  306MOL0     H40360  -0.616   9.535  11.859  0.7794  0.0399 -1.2096
  306MOL0     H40361  -0.591   9.689  11.780  1.3979 -0.2399 -0.0623
  306MOL0     H40362  -0.601   9.815  11.982  2.1028 -0.7681 -1.1630
  306MOL0     H40363  -0.557   9.678  12.073 -2.1118 -1.7099 -0.3789
  306MOL0     H40364  -0.835   9.683  11.933 -0.5281 -0.0198  0.1268
  306MOL0     H40365  -0.778   9.583  12.069  0.8372  0.6452  1.3081
  306MOL0     H40366  -0.800   9.894  12.080 -2.9424  1.1222 -2.8858
  306MOL0     H40367  -0.795   9.785  12.219 -0.3279  0.4198 -0.8827
  306MOL0     H40368  -1.022   9.686  12.132 -0.1392 -0.0862 -0.9491
  306MOL0     H40369  -1.023   9.803  12.015  0.4164  1.0370  0.6134
  306MOL0     H40370  -0.966   9.899  12.296 -0.5192  1.3058  0.8619
  306MOL0     H40371  -1.044   9.982  12.163 -3.3855 -0.7927 -1.2666
  306MOL0     H40372  -1.257   9.820  12.208  0.5727 -1.1630 -0.5875
  306MOL0     H40373  -1.209   9.928  12.337 -0.9584 -2.5436  0.7242
  306MOL0     H40374  -0.163   9.547  11.947 -0.1335 -0.4254  0.1087
  306MOL0     H40375   0.088   9.501  11.870  0.3553  0.0966 -0.7258
  306MOL0     H40376   0.412   9.461  11.693  1.2711  0.0870 -0.7608
  306MOL0     H40377   0.621   9.458  11.624 -1.3684  0.8316  0.5380
  306MOL0     H40378   2.243   9.217  10.296 -1.5753  0.0085  0.3952
  306MOL0     H40379   2.475   9.297  10.345 -1.0957  1.9951 -0.2642
  306MOL0     H40380   2.778   9.423  10.585  1.4771  2.2531 -0.3444
  306MOL0     H40381   2.993   9.526  10.649  1.8837 -0.3005 -0.2013
  306MOL0     H40382   3.375   9.462  10.584  1.5653  2.3052  3.3669
  306MOL0     H40383   3.314   9.286  10.557  0.2268  1.9467 -1.1325
  306MOL0     H40384   3.463   9.420  10.783 -0.8267 -0.2565  0.9510
  306MOL0     H40385   3.339   9.299  10.825  0.5941 -2.3988  0.1982
  306MOL0     H40386   3.586   9.242  10.645  1.3058 -4.4729 -0.7123
  306MOL0     H40387   3.467   9.126  10.699 -1.5295  0.8314  1.6467
  306MOL0     H40388   3.516   9.189  10.941  1.4866 -0.8212  2.4789
  306MOL0     H40389   3.655   9.108  10.867 -0.4541  0.9163  1.7653
  306MOL0     H40390   3.804   9.506  10.893 -0.3459  0.6052  0.4203
  306MOL0     H40391   3.182   9.149  10.645  0.4037  0.7890 -3.1084
  306MOL0     H40392   2.968   9.029  10.613 -2.5230  0.2786  1.9168
  307MOL0     O40393   6.356   1.640   2.837 -0.1852 -0.6660 -0.6122
  307MOL0     C40394   6.298   1.547   2.787 -0.7667 -0.3246 -0.2392
  307MOL0     O40395   6.164   1.549   2.758  0.0560 -0.4838  0.0743
  307MOL0     C40396   6.083   1.653   2.804 -0.0985 -0.3118  0.7091
  307MOL0     C40397   5.980   1.684   2.717  0.2147 -0.4584  0.5461
  307MOL0     C40398   5.879   1.772   2.751 -0.5982  0.5780  0.0746
  307MOL0     C40399   5.881   1.825   2.877  0.1431 -0.3798 -0.0479
  307MOL0     O40400   5.758   1.893   2.918 -0.6719  0.2367  0.8822
  307MOL0     C40401   5.781   2.002   3.006  0.8387  0.2275  0.5858
  307MOL0     C40402   5.741   1.965   3.148 -0.1353 -0.1331 -0.5991
  307MOL0     C40403   5.727   2.086   3.234 -0.5476  0.4429 -0.4675
  307MOL0     C40404   5.681   2.061   3.377 -0.2817  0.4949  1.1654
  307MOL0     C40405   5.671   2.185   3.455  0.3171  0.5258 -0.4266
  307MOL0     C40406   5.586   2.156   3.581 -0.9451 -0.4750  0.0930
  307MOL0     C40407   5.564   2.298   3.642 -0.5335 -0.7846  0.3636
  307MOL0     C40408   5.542   2.308   3.793 -0.7374 -0.9442 -0.4001
  307MOL0     N40409   5.401   2.263   3.831  0.2382 -0.8957  0.0418
  307MOL0     C40410   5.350   2.142   3.831  0.8044  0.2740 -0.2499
  307MOL0     C40411   5.218   2.158   3.848  0.7386 -0.0617  0.7699
  307MOL0     C40412   5.115   2.048   3.819 -0.4843 -0.4886  0.3062
  307MOL0     C40413   5.094   1.937   3.919 -0.5872 -1.0323 -0.8111
  307MOL0     C40414   5.025   1.990   4.037  0.4692 -0.3220 -0.6055
  307MOL0     C40415   5.020   1.882   4.147 -0.7520 -0.4677  0.1366
  307MOL0     O40416   4.948   1.940   4.262  0.1482  0.8135  0.4510
  307MOL0     C40417   4.811   1.949   4.248  0.1986  0.4781  0.6170
  307MOL0     C40418   4.750   2.038   4.338 -0.5414  0.7768 -0.2430
  307MOL0     C40419   4.618   2.067   4.327 -0.0958 -0.1413  0.7321
  307MOL0     C40420   4.535   2.011   4.233  0.8816  0.6620  0.4462
  307MOL0     C40421   4.397   2.049   4.226  0.3749  0.3086 -0.5606
  307MOL0     O40422   4.347   2.138   4.317 -0.2667 -0.3228 -0.3001
  307MOL0     C40423   4.221   2.166   4.323 -0.1927 -0.3208 -0.0275
  307MOL0     C40424   4.119   2.077   4.278 -0.6031 -0.5009  0.0287
  307MOL0     C40425   3.985   2.111   4.282 -0.2831 -0.4089  0.4172
  307MOL0     C40426   3.943   2.243   4.330 -0.0625  0.0280 -0.2563
  307MOL0     O40427   3.814   2.289   4.359 -0.3246  0.0948 -0.5252
  307MOL0     C40428   3.719   2.193   4.331 -0.2872  0.2794  0.3670
  307MOL0     C40429   3.585   2.256   4.362 -0.7191  1.0533  0.1556
  307MOL0     C40430   3.464   2.160   4.344  0.5887 -0.5923 -0.1830
  307MOL0     C40431   3.319   2.220   4.368  0.6936  0.6175  0.0619
  307MOL0     C40432   3.303   2.255   4.520 -0.0680  0.2167  0.1013
  307MOL0     C40433   3.169   2.237   4.562 -0.0723 -0.4415 -0.2557
  307MOL0     C40434   3.083   2.356   4.515 -0.6425  0.4059 -0.3926
  307MOL0     C40435   2.933   2.327   4.520  0.2742  0.1835 -0.1305
  307MOL0    Cl40436   2.883   2.195   4.393 -0.2093 -0.4668  0.5004
  307MOL0     C40437   4.051   2.330   4.377  0.2867 -0.3282 -0.6255
  307MOL0     C40438   4.180   2.296   4.367 -0.6143 -0.3084 -0.1788
  307MOL0     O40439   4.347   2.018   4.122  0.0035  0.6223 -0.6557
  307MOL0     C40440   4.597   1.928   4.136 -0.5258  0.4461  0.1809
  307MOL0     C40441   4.733   1.887   4.143  0.9910  0.1742  0.3960
  307MOL0     N40442   5.189   2.292   3.883  0.2625 -0.1516  0.0637
  307MOL0     N40443   5.296   2.351   3.862  0.3239 -0.9897  0.6342
  307MOL0     C40444   5.991   1.803   2.964 -0.0294 -0.5861  0.4377
  307MOL0     C40445   6.083   1.716   2.925 -1.0344 -0.3755  0.5253
  307MOL0     C40446   6.371   1.420   2.753  0.4827 -0.7899 -0.2101
  307MOL0     C40447   6.320   1.317   2.672  0.6650  0.4922  0.6513
  307MOL0     C40448   6.398   1.206   2.643  0.1563  0.0538 -0.1239
  307MOL0     C40449   6.522   1.187   2.695  0.1320 -0.0632 -0.0166
  307MOL0     O40450   6.583   1.064   2.655 -0.9898 -0.5597 -0.0931
  307MOL0     C40451   6.715   1.032   2.708  0.1278  0.8562  0.0746
  307MOL0     C40452   6.761   0.896   2.653  1.7660  0.1455 -0.0531
  307MOL0     C40453   6.702   0.782   2.739  0.0948 -0.1082 -0.1840
  307MOL0     C40454   6.710   0.641   2.666 -0.5159  0.0227 -0.1197
  307MOL0     C40455   6.844   0.624   2.604 -0.3483  0.3251  0.1831
  307MOL0     C40456   6.951   0.593   2.549 -0.3032  1.8140 -0.8526
  307MOL0     C40457   6.582   1.288   2.769  0.4270 -0.4363 -0.0925
  307MOL0     C40458   6.501   1.401   2.800 -0.0737  0.0212 -0.6078
  307MOL0     H40459   5.989   1.637   2.620  1.9295  4.1182 -1.7966
  307MOL0     H40460   5.792   1.781   2.687 -1.8948 -3.7514  0.8956
  307MOL0     H40461   5.720   2.089   2.979  1.3922  1.0186  1.8026
  307MOL0     H40462   5.884   2.037   2.995  0.8596 -0.6150 -3.1717
  307MOL0     H40463   5.821   1.911   3.200 -2.0511 -0.6098  2.0178
  307MOL0     H40464   5.651   1.904   3.149 -0.6785  0.6477  0.1364
  307MOL0     H40465   5.654   2.157   3.192 -1.1528 -1.2389 -2.4321
  307MOL0     H40466   5.823   2.138   3.249  0.0454 -1.6097  5.6250
  307MOL0     H40467   5.593   1.997   3.388  0.0770 -0.1330  0.5097
  307MOL0     H40468   5.757   2.006   3.432 -1.0497  0.3851  2.1341
  307MOL0     H40469   5.634   2.267   3.393  1.4857  0.5758 -1.1055
  307MOL0     H40470   5.772   2.218   3.483  1.5882 -2.7975 -0.6795
  307MOL0     H40471   5.647   2.086   3.639 -0.2103 -0.9861 -1.2496
  307MOL0     H40472   5.488   2.111   3.563 -2.0265  0.4305  3.1251
  307MOL0     H40473   5.652   2.357   3.613 -0.2441 -1.7485 -0.8142
  307MOL0     H40474   5.485   2.345   3.583 -1.4752 -1.1598  1.2930
  307MOL0     H40475   5.546   2.416   3.811  1.9404 -0.7535 -1.6716
  307MOL0     H40476   5.618   2.263   3.857 -0.9155 -1.1870 -0.3585
  307MOL0     H40477   5.390   2.046   3.798 -2.3500 -0.4871 -2.3816
  307MOL0     H40478   5.140   1.986   3.732 -0.8283 -0.1503 -0.0350
  307MOL0     H40479   5.016   2.093   3.820 -0.6890 -0.9365  1.1524
  307MOL0     H40480   5.185   1.877   3.931  0.8355  0.6231 -2.6942
  307MOL0     H40481   5.033   1.855   3.880 -1.4288 -2.1762  2.5290
  307MOL0     H40482   5.069   2.082   4.077 -0.8597  0.0032  0.1547
  307MOL0     H40483   4.922   2.007   4.005  0.7043  0.8345 -0.7954
  307MOL0     H40484   5.119   1.852   4.184  0.0429  0.6177 -0.9825
  307MOL0     H40485   4.974   1.795   4.100 -0.0184  1.3661 -4.5962
  307MOL0     H40486   4.810   2.084   4.416  1.8171 -2.5882  0.1367
  307MOL0     H40487   4.583   2.138   4.401 -0.2838  0.1248  0.3922
  307MOL0     H40488   4.137   1.977   4.241 -1.5272 -0.5753 -0.2386
  307MOL0     H40489   3.911   2.041   4.244 -0.6331  1.3134 -2.3463
  307MOL0     H40490   3.736   2.111   4.403 -1.7988  1.8057  2.5887
  307MOL0     H40491   3.723   2.158   4.227 -0.4270  2.0692 -0.2652
  307MOL0     H40492   3.578   2.330   4.282 -1.0311  0.3750 -0.4573
  307MOL0     H40493   3.578   2.300   4.462 -1.8123 -0.2711  0.7044
  307MOL0     H40494   3.496   2.076   4.406 -1.7136 -0.8442  0.7673
  307MOL0     H40495   3.472   2.121   4.242 -2.0982 -2.5962  0.2626
  307MOL0     H40496   3.309   2.314   4.313  0.9605  0.8807  0.4587
  307MOL0     H40497   3.242   2.148   4.339  0.7850  0.1530  0.9650
  307MOL0     H40498   3.327   2.360   4.537 -1.8197  0.7495 -0.4827
  307MOL0     H40499   3.374   2.196   4.580 -1.2110 -0.2492  1.0328
  307MOL0     H40500   3.185   2.232   4.670 -0.8981  1.5886  0.0027
  307MOL0     H40501   3.120   2.149   4.518 -1.4893 -0.4022  1.1326
  307MOL0     H40502   3.104   2.435   4.587  3.7296 -0.3397 -0.5913
  307MOL0     H40503   3.111   2.404   4.421 -1.6966  1.5798 -0.1302
  307MOL0     H40504   2.884   2.424   4.507  1.3633  1.1692  2.5589
  307MOL0     H40505   2.903   2.289   4.618 -0.6359  0.2287 -0.3785
  307MOL0     H40506   4.025   2.430   4.411  0.8053 -0.1924 -0.6273
  307MOL0     H40507   4.258   2.358   4.411  0.2566  0.1777 -2.2892
  307MOL0     H40508   4.526   1.893   4.061 -1.0674 -1.8948  1.6857
  307MOL0     H40509   4.775   1.827   4.064  0.7472  1.0131 -0.3908
  307MOL0     H40510   6.009   1.853   3.059 -2.0175 -1.9475  1.5852
  307MOL0     H40511   6.159   1.674   2.990  0.0678 -2.2140 -1.7983
  307MOL0     H40512   6.217   1.297   2.642  1.1077 -0.3861 -0.3434
  307MOL0     H40513   6.347   1.129   2.585 -3.3272  1.2583  1.0941
  307MOL0     H40514   6.700   1.026   2.816 -2.0884 -2.2800 -0.2534
  307MOL0     H40515   6.792   1.101   2.671  2.6409 -1.9784 -0.4278
  307MOL0     H40516   6.713   0.869   2.558 -2.0329 -5.0991  2.8569
  307MOL0     H40517   6.870   0.883   2.647  2.2763  2.1670  2.9209
  307MOL0     H40518   6.596   0.799   2.760 -1.0245 -3.0619 -2.6934
  307MOL0     H40519   6.754   0.783   2.836 -2.7326  2.2443  1.4631
  307MOL0     H40520   6.692   0.569   2.746  0.8047  2.8977  3.0249
  307MOL0     H40521   6.639   0.636   2.583  1.6202  2.4531 -2.2935
  307MOL0     H40522   7.053   0.568   2.528 -0.1636  1.6680 -0.0331
  307MOL0     H40523   6.682   1.263   2.804 -0.3242  0.5303  3.0568
  307MOL0     H40524   6.545   1.476   2.864  2.3727 -2.8787  1.4046
  308MOL0     O40525   8.063   2.352  10.846 -0.6691 -0.0860 -0.4179
  308MOL0     C40526   8.062   2.407  10.963 -0.0765 -0.3813  0.4271
  308MOL0     O40527   8.122   2.526  10.999  0.8260  0.1282 -0.4013
  308MOL0     C40528   8.192   2.590  10.905 -0.4469  0.5541 -0.1432
  308MOL0     C40529   8.294   2.517  10.834 -0.1391  0.0684 -1.0136
  308MOL0     C40530   8.364   2.572  10.726 -0.4053 -0.1387 -0.2333
  308MOL0     C40531   8.323   2.696  10.681 -0.7352  0.1480  0.6190
  308MOL0     O40532   8.393   2.742  10.575 -0.1054  0.2386  0.2294
  308MOL0     C40533   8.410   2.882  10.553 -0.0938  0.0347 -0.5639
  308MOL0     C40534   8.472   2.960  10.673  0.2875  0.4820  1.1120
  308MOL0     C40535   8.504   3.104  10.646 -0.7232  0.4249 -0.8934
  308MOL0     C40536   8.577   3.128  10.515 -0.1134  0.0136  0.4421
  308MOL0     C40537   8.631   3.273  10.514 -0.0536  0.5519  0.2419
  308MOL0     C40538   8.738   3.306  10.410  0.5439 -0.3695 -0.3773
  308MOL0     C40539   8.883   3.234  10.446 -0.5919 -0.8673  0.0370
  308MOL0     C40540   8.937   3.141  10.337  0.0078 -1.4673 -0.9946
  308MOL0     N40541   8.961   3.217  10.214  0.0450  0.1492 -0.4754
  308MOL0     C40542   9.045   3.328  10.212  0.2110 -0.1324 -0.6421
  308MOL0     C40543   9.038   3.367  10.083 -0.4219 -0.6187  0.3055
  308MOL0     C40544   9.115   3.482  10.030  0.9326 -0.0142 -0.3737
  308MOL0     C40545   9.048   3.553   9.911 -0.2887 -0.4225  0.1550
  308MOL0     C40546   9.122   3.689   9.889  0.3275 -0.1726 -0.0034
  308MOL0     C40547   9.043   3.772   9.793  0.0633 -0.3100  0.3746
  308MOL0     O40548   9.061   3.711   9.658 -0.1333 -0.1021 -0.1918
  308MOL0     C40549   9.139   3.769   9.573  0.5492  0.4280 -0.6030
  308MOL0     C40550   9.086   3.847   9.473 -0.5712  0.7946  0.1241
  308MOL0     C40551   9.163   3.906   9.371  0.7732 -1.0944 -0.1931
  308MOL0     C40552   9.299   3.887   9.374 -0.2817  0.8585 -0.4840
  308MOL0     C40553   9.382   3.953   9.266  0.7479 -0.4478 -0.2681
  308MOL0     O40554   9.509   3.904   9.260  0.6392 -0.1041  0.1502
  308MOL0     C40555   9.602   3.946   9.166 -0.0076 -0.0259 -0.4695
  308MOL0     C40556   9.725   3.873   9.182 -0.1844 -0.0348  1.3700
  308MOL0     C40557   9.834   3.907   9.097 -0.1269  0.1199 -0.5216
  308MOL0     C40558   9.818   4.000   8.993 -0.4805 -0.1359 -0.3076
  308MOL0     O40559   9.925   4.004   8.898 -0.0043  0.3800 -0.1917
  308MOL0     C40560   9.961   4.133   8.852  0.2125 -1.0328 -0.0234
  308MOL0     C40561  10.081   4.130   8.764 -0.0383  0.1891 -0.2155
  308MOL0     C40562  10.131   4.272   8.728  0.3197  1.3896 -0.8158
  308MOL0     C40563  10.258   4.261   8.633  0.0644  0.0278 -0.1111
  308MOL0     C40564  10.320   4.401   8.614 -0.5952 -0.1931  0.3366
  308MOL0     C40565  10.419   4.424   8.491 -0.1714  0.3598  0.1393
  308MOL0     C40566  10.506   4.554   8.517  0.3347 -0.0821 -1.0787
  308MOL0     C40567  10.626   4.579   8.425  0.1287  0.1866 -0.4359
  308MOL0    Cl40568  10.563   4.638   8.270 -0.5141 -0.0899  0.1778
  308MOL0     C40569   9.702   4.082   8.988  0.5654  0.1754 -0.1569
  308MOL0     C40570   9.600   4.055   9.081  0.7617 -0.3134 -0.4307
  308MOL0     O40571   9.335   4.035   9.191 -0.3389 -0.0021  1.1110
  308MOL0     C40572   9.354   3.811   9.476  0.8902 -0.7955 -0.3425
  308MOL0     C40573   9.276   3.748   9.576 -0.2211 -0.9017 -0.5667
  308MOL0     N40574   8.964   3.277  10.007 -0.4338  0.2445 -0.4374
  308MOL0     N40575   8.907   3.201  10.089  0.6687 -0.3898 -0.2949
  308MOL0     C40576   8.223   2.773  10.742  0.1721  0.5499  0.1999
  308MOL0     C40577   8.157   2.717  10.847  0.7682  1.0974 -0.0396
  308MOL0     C40578   7.997   2.340  11.075  0.2366 -1.1453  0.2979
  308MOL0     C40579   7.934   2.212  11.065 -0.1790  0.4027 -0.0891
  308MOL0     C40580   7.873   2.148  11.172 -0.1946  0.1482 -0.2178
  308MOL0     C40581   7.878   2.209  11.290  0.0283 -0.7845 -0.7523
  308MOL0     O40582   7.832   2.156  11.416  0.3195 -0.3583 -0.4565
  308MOL0     C40583   7.783   2.023  11.417  0.4071  0.2847 -0.5729
  308MOL0     C40584   7.691   2.002  11.537 -0.8519 -1.4378 -0.5056
  308MOL0     C40585   7.563   2.094  11.512  0.5970  0.5381  0.2314
  308MOL0     C40586   7.474   2.089  11.640 -0.2775 -0.6237 -0.1822
  308MOL0     C40587   7.407   1.960  11.654 -0.0007  0.4572 -0.6672
  308MOL0     C40588   7.349   1.849  11.634  1.2253 -0.9402 -0.4301
  308MOL0     C40589   7.915   2.339  11.306 -0.0567  0.5103  0.0479
  308MOL0     C40590   7.972   2.406  11.196 -0.2941 -0.2043  0.4207
  308MOL0     H40591   8.317   2.418  10.873 -1.6049  0.6033  1.3853
  308MOL0     H40592   8.453   2.526  10.685 -0.4011 -1.6576  1.3722
  308MOL0     H40593   8.311   2.921  10.525 -0.3178 -0.5886 -0.6638
  308MOL0     H40594   8.479   2.885  10.469 -0.5029 -1.4475 -0.9828
  308MOL0     H40595   8.567   2.921  10.712 -0.7361  1.2338  4.6703
  308MOL0     H40596   8.401   2.966  10.756  1.7453 -1.0358  2.5507
  308MOL0     H40597   8.564   3.150  10.725 -0.9710  1.2807 -1.1891
  308MOL0     H40598   8.408   3.158  10.648 -0.1140  1.5302  1.1517
  308MOL0     H40599   8.653   3.049  10.504 -0.2453  0.1745 -2.2080
  308MOL0     H40600   8.503   3.127  10.435  0.5258  1.7155 -0.2117
  308MOL0     H40601   8.658   3.288  10.619 -1.5152 -1.5075  0.9747
  308MOL0     H40602   8.546   3.334  10.485 -0.0314  0.1986 -0.6007
  308MOL0     H40603   8.761   3.413  10.404  2.3736 -0.6676  0.5913
  308MOL0     H40604   8.694   3.272  10.316  2.3229  0.4637 -1.5606
  308MOL0     H40605   8.953   3.316  10.461 -2.3438  0.3036  2.6515
  308MOL0     H40606   8.869   3.185  10.543 -1.4815 -1.6366 -0.4634
  308MOL0     H40607   8.870   3.057  10.317 -1.6731 -0.2059 -0.8176
  308MOL0     H40608   9.023   3.089  10.380  0.0252 -1.1029 -0.5817
  308MOL0     H40609   9.081   3.380  10.300 -0.5650  1.4138 -1.2156
  308MOL0     H40610   9.211   3.437  10.002  0.7595  0.1559 -1.2720
  308MOL0     H40611   9.130   3.546  10.118 -0.8183 -4.0057  3.1255
  308MOL0     H40612   8.943   3.574   9.936  0.2280  0.5246  1.6430
  308MOL0     H40613   9.056   3.494   9.819  1.6726  1.9044 -1.2906
  308MOL0     H40614   9.148   3.754   9.973  2.8349  0.7414 -1.3724
  308MOL0     H40615   9.228   3.674   9.866  1.1408  2.1974  1.8154
  308MOL0     H40616   9.084   3.872   9.806 -1.2719  0.1297  1.3930
  308MOL0     H40617   8.936   3.779   9.813 -0.5015  0.7968 -2.5410
  308MOL0     H40618   8.981   3.873   9.471 -1.4342 -1.3249 -6.1720
  308MOL0     H40619   9.110   3.971   9.302  0.7885 -2.8753 -1.9962
  308MOL0     H40620   9.730   3.791   9.252  1.6974 -0.8492  0.3534
  308MOL0     H40621   9.930   3.859   9.108 -0.3325 -0.1698  0.0687
  308MOL0     H40622   9.973   4.200   8.938  1.5013 -1.2643 -0.0115
  308MOL0     H40623   9.880   4.176   8.792  1.0778  0.9224  0.1309
  308MOL0     H40624  10.061   4.080   8.669  0.8219  1.1089 -0.9076
  308MOL0     H40625  10.166   4.085   8.816  1.0871 -0.8254 -2.7953
  308MOL0     H40626  10.155   4.329   8.819  0.3898 -0.4798  0.3902
  308MOL0     H40627  10.044   4.308   8.674 -2.8002 -3.9333 -0.0941
  308MOL0     H40628  10.323   4.187   8.682 -1.3926  0.3180  2.4722
  308MOL0     H40629  10.225   4.222   8.537 -0.5219 -1.2586  0.5766
  308MOL0     H40630  10.380   4.424   8.702 -0.7041  0.7017  0.1873
  308MOL0     H40631  10.241   4.476   8.615  0.2634  0.7873 -1.2191
  308MOL0     H40632  10.384   4.413   8.388  0.0281 -2.0302  0.2747
  308MOL0     H40633  10.491   4.343   8.501  1.5632  1.8252 -0.0812
  308MOL0     H40634  10.438   4.640   8.513  0.1800 -0.1720 -0.5370
  308MOL0     H40635  10.544   4.550   8.619 -1.5689 -2.3665 -0.3613
  308MOL0     H40636  10.700   4.500   8.414  1.4818  1.0823  1.5968
  308MOL0     H40637  10.686   4.658   8.471 -1.6697  0.1805  2.1443
  308MOL0     H40638   9.696   4.157   8.910  1.5615  0.9935  0.5309
  308MOL0     H40639   9.517   4.125   9.084  0.5298 -0.6124  1.4160
  308MOL0     H40640   9.462   3.798   9.475  0.9950 -0.5171  1.7639
  308MOL0     H40641   9.325   3.695   9.657  3.4526  1.3648 -1.0436
  308MOL0     H40642   8.192   2.873  10.713  0.0647  0.0590 -1.4986
  308MOL0     H40643   8.077   2.777  10.890 -0.0931 -0.3834  0.4665
  308MOL0     H40644   7.941   2.165  10.967 -1.2080  1.0948 -0.5002
  308MOL0     H40645   7.820   2.055  11.154 -1.3018  0.9080 -0.9987
  308MOL0     H40646   7.871   1.957  11.417  0.4172  0.2880 -1.4881
  308MOL0     H40647   7.734   2.003  11.322  2.8406  1.3707 -2.1526
  308MOL0     H40648   7.669   1.897  11.559 -0.3387 -0.8694  3.5883
  308MOL0     H40649   7.739   2.040  11.628 -0.4018 -1.9040 -0.5425
  308MOL0     H40650   7.516   2.048  11.425 -0.1948  2.0009 -0.1581
  308MOL0     H40651   7.603   2.193  11.487  0.4110 -0.0989 -2.9727
  308MOL0     H40652   7.540   2.124  11.721  0.1928 -0.2381 -0.7231
  308MOL0     H40653   7.385   2.150  11.627  0.4032  0.6722  0.9525
  308MOL0     H40654   7.277   1.772  11.617 -4.1892  3.5877 -0.9263
  308MOL0     H40655   7.906   2.394  11.400  1.6371 -0.1290  0.6212
  308MOL0     H40656   8.011   2.506  11.214  2.9614 -1.1617 -0.5904
  309MOL0     O40657   6.754   0.735   3.930  0.6355 -0.6629 -0.3352
  309MOL0     C40658   6.666   0.818   3.903  0.4309 -0.4916 -0.0277
  309MOL0     O40659   6.679   0.957   3.891 -0.0919  0.0675 -0.5635
  309MOL0     C40660   6.798   1.024   3.887  0.4673 -0.2901  0.3323
  309MOL0     C40661   6.813   1.136   3.971  0.0143  0.6863  0.7889
  309MOL0     C40662   6.940   1.211   3.974  0.0330  0.6664  0.4430
  309MOL0     C40663   7.049   1.155   3.899  0.7097 -0.5006 -0.0925
  309MOL0     O40664   7.166   1.233   3.902  0.0308  0.1975 -0.2064
  309MOL0     C40665   7.258   1.206   3.796  0.3140  0.4729 -0.0362
  309MOL0     C40666   7.345   1.333   3.782 -0.3589  0.2345  0.7949
  309MOL0     C40667   7.433   1.361   3.910  0.3166  0.2038 -0.1350
  309MOL0     C40668   7.565   1.424   3.862 -0.3181 -0.5515  0.3099
  309MOL0     C40669   7.668   1.417   3.971  0.4864 -0.5233  0.8557
  309MOL0     C40670   7.630   1.499   4.098  0.2836  0.0874  0.1378
  309MOL0     C40671   7.757   1.530   4.183  0.2037 -0.3537  0.2673
  309MOL0     C40672   7.723   1.596   4.316  0.0482  0.3373  0.0874
  309MOL0     N40673   7.679   1.731   4.283  0.7123  0.0841  0.1950
  309MOL0     C40674   7.547   1.767   4.294  0.9542 -0.3629  0.0952
  309MOL0     C40675   7.538   1.897   4.241 -0.6338 -0.3066 -0.3648
  309MOL0     C40676   7.412   1.976   4.231 -0.5087  0.0536 -0.3014
  309MOL0     C40677   7.391   2.099   4.328  0.0472 -0.1382 -0.3171
  309MOL0     C40678   7.253   2.163   4.321  0.0662  0.6797 -0.1693
  309MOL0     C40679   7.237   2.268   4.431  0.3936 -0.9249 -0.1313
  309MOL0     O40680   7.105   2.318   4.445  0.2738 -0.4081  0.3890
  309MOL0     C40681   7.000   2.236   4.472 -0.1832  0.3157  0.3942
  309MOL0     C40682   6.926   2.177   4.371  0.2898 -0.7200  0.5637
  309MOL0     C40683   6.805   2.115   4.397 -0.4581 -0.2510 -0.1588
  309MOL0     C40684   6.760   2.106   4.529  0.0107  0.5025  0.2222
  309MOL0     C40685   6.633   2.030   4.560 -0.1824  0.0954  0.6343
  309MOL0     O40686   6.576   1.956   4.463 -0.2512  0.0049  0.3449
  309MOL0     C40687   6.475   1.865   4.500  0.2396 -0.2130 -0.1796
  309MOL0     C40688   6.493   1.729   4.475  0.6550  0.6134 -0.4422
  309MOL0     C40689   6.399   1.633   4.525 -0.6300 -0.7676  0.2912
  309MOL0     C40690   6.284   1.678   4.597  0.4008  0.0004 -0.1617
  309MOL0     O40691   6.176   1.612   4.648  0.4248  0.1783 -0.1927
  309MOL0     C40692   6.203   1.490   4.721 -0.2367 -0.2853 -0.1379
  309MOL0     C40693   6.164   1.370   4.644 -0.1325 -0.5464 -0.0224
  309MOL0     C40694   6.030   1.391   4.582  0.0498 -0.1293  0.3603
  309MOL0     C40695   5.991   1.259   4.497  0.2836  0.4557  0.3261
  309MOL0     C40696   5.849   1.272   4.444 -0.8386 -1.1883 -0.3124
  309MOL0     C40697   5.808   1.139   4.383 -0.4516  0.1370  0.2355
  309MOL0     C40698   5.663   1.132   4.353  0.1852  0.1600  0.1554
  309MOL0     C40699   5.604   0.994   4.308 -0.0721 -0.4678 -1.1341
  309MOL0    Cl40700   5.670   0.960   4.148 -0.0875  0.1931 -0.2289
  309MOL0     C40701   6.264   1.816   4.609  0.4032 -0.1244 -0.2253
  309MOL0     C40702   6.353   1.910   4.558 -0.3272 -0.0274 -0.1537
  309MOL0     O40703   6.586   2.049   4.675 -0.1144 -0.1398  1.0050
  309MOL0     C40704   6.834   2.159   4.632 -0.2454  1.2667 -0.1009
  309MOL0     C40705   6.955   2.222   4.601  0.2371 -0.1018 -0.0830
  309MOL0     N40706   7.664   1.931   4.201  0.0345  0.0741 -0.2641
  309MOL0     N40707   7.747   1.834   4.227  0.3447  0.5703  0.4192
  309MOL0     C40708   7.037   1.040   3.825 -0.2907 -0.5940 -0.4599
  309MOL0     C40709   6.915   0.971   3.819  0.5181 -0.9067  0.0623
  309MOL0     C40710   6.528   0.770   3.890 -0.0595  0.6372  0.4848
  309MOL0     C40711   6.496   0.636   3.842 -1.2812  0.1960  0.6026
  309MOL0     C40712   6.369   0.596   3.797  0.1561 -0.1812  0.4094
  309MOL0     C40713   6.263   0.690   3.812  0.2670  0.2428 -0.3865
  309MOL0     O40714   6.134   0.671   3.765  0.0129  0.3063 -0.2840
  309MOL0     C40715   6.095   0.535   3.774  0.0358  0.4018 -0.5480
  309MOL0     C40716   5.946   0.516   3.723  0.0998  0.3614  0.8836
  309MOL0     C40717   5.925   0.585   3.588  0.3972 -0.2270 -0.1848
  309MOL0     C40718   5.775   0.580   3.542 -0.4754 -0.5227  0.7710
  309MOL0     C40719   5.687   0.649   3.633  0.0787  0.4534 -0.8167
  309MOL0     C40720   5.602   0.700   3.693 -0.1898 -0.7748 -0.0594
  309MOL0     C40721   6.285   0.816   3.870  0.0023  0.5573  0.0966
  309MOL0     C40722   6.420   0.856   3.907 -1.2210  0.1793  0.2871
  309MOL0     H40723   6.723   1.169   4.021  1.1418  3.2303  1.2926
  309MOL0     H40724   6.945   1.305   4.029 -2.1695  0.7429  0.5995
  309MOL0     H40725   7.215   1.176   3.700  0.5247 -1.5873  0.4665
  309MOL0     H40726   7.312   1.117   3.831  0.5882  1.2004  1.4784
  309MOL0     H40727   7.289   1.423   3.754  1.6225  1.0851 -0.6853
  309MOL0     H40728   7.409   1.315   3.695 -1.1973 -0.5040  0.3201
  309MOL0     H40729   7.451   1.265   3.959  3.1073  0.7864  0.1474
  309MOL0     H40730   7.388   1.436   3.977  0.5746  1.8806 -1.7460
  309MOL0     H40731   7.598   1.365   3.776 -2.1053 -5.4128  2.5671
  309MOL0     H40732   7.549   1.523   3.819  3.1159 -1.4545 -3.6370
  309MOL0     H40733   7.760   1.459   3.932  1.2879 -1.3513  1.8037
  309MOL0     H40734   7.675   1.311   3.998  0.9440 -0.3896  1.2551
  309MOL0     H40735   7.559   1.446   4.163 -1.0540  1.0579 -0.4833
  309MOL0     H40736   7.592   1.596   4.066 -0.1034  0.2125  0.9491
  309MOL0     H40737   7.804   1.440   4.222  2.9056  0.8373  0.0137
  309MOL0     H40738   7.825   1.577   4.112 -0.1739 -1.2928 -0.7414
  309MOL0     H40739   7.812   1.588   4.378 -1.7244  0.9781  2.9198
  309MOL0     H40740   7.652   1.533   4.371  1.0987 -1.4359 -0.5074
  309MOL0     H40741   7.464   1.715   4.340  0.7717 -0.4435 -0.3186
  309MOL0     H40742   7.331   1.904   4.249 -0.0573 -0.4355 -0.1833
  309MOL0     H40743   7.395   2.017   4.131  0.4635  0.0673 -0.4741
  309MOL0     H40744   7.466   2.176   4.309  2.3287 -1.8126  1.2841
  309MOL0     H40745   7.407   2.065   4.431 -1.2402 -0.8178 -0.3195
  309MOL0     H40746   7.237   2.214   4.226  1.6943  0.0623 -0.8222
  309MOL0     H40747   7.187   2.078   4.341  0.5723  0.1111 -0.8445
  309MOL0     H40748   7.303   2.354   4.415  1.6693 -1.3113  2.4974
  309MOL0     H40749   7.276   2.220   4.521 -0.2003 -1.7002 -0.2787
  309MOL0     H40750   6.959   2.181   4.267 -0.4600 -0.2388  0.3362
  309MOL0     H40751   6.743   2.075   4.318 -1.5939  0.4787  0.3502
  309MOL0     H40752   6.587   1.707   4.424 -0.0352 -0.9032 -1.1113
  309MOL0     H40753   6.426   1.529   4.513  4.7258  0.3106  0.3651
  309MOL0     H40754   6.141   1.503   4.810  0.9846  1.3107  0.5550
  309MOL0     H40755   6.303   1.479   4.766  0.4154  0.0437 -1.4539
  309MOL0     H40756   6.168   1.280   4.707 -1.0597 -1.8104 -1.6690
  309MOL0     H40757   6.243   1.361   4.568 -0.0265  3.3710 -0.5908
  309MOL0     H40758   6.032   1.475   4.513 -1.4717 -2.4023 -2.7148
  309MOL0     H40759   5.955   1.407   4.660 -1.8285  0.1232 -1.4241
  309MOL0     H40760   6.050   1.245   4.406 -1.6204 -0.5735 -0.8131
  309MOL0     H40761   5.984   1.172   4.563  0.4153  1.0560  1.1536
  309MOL0     H40762   5.843   1.361   4.381 -0.9529  0.0317  1.3267
  309MOL0     H40763   5.786   1.298   4.530  1.9630  1.9348  1.0111
  309MOL0     H40764   5.845   1.065   4.454 -1.6419  0.2135  0.9525
  309MOL0     H40765   5.854   1.118   4.286  1.1684  0.2427  0.9485
  309MOL0     H40766   5.607   1.174   4.437  0.8687 -0.4025  0.9073
  309MOL0     H40767   5.648   1.209   4.277 -0.3935  0.5067  0.6074
  309MOL0     H40768   5.495   0.991   4.294 -0.3209 -1.2028  0.7262
  309MOL0     H40769   5.646   0.922   4.378  1.9366  2.8835  1.4333
  309MOL0     H40770   6.175   1.854   4.658  1.6357  0.0021  2.0784
  309MOL0     H40771   6.333   2.013   4.586 -0.6975 -0.0869 -0.1871
  309MOL0     H40772   6.795   2.144   4.732 -0.9833  0.5462 -0.4843
  309MOL0     H40773   7.021   2.259   4.679 -0.0644 -1.1400  0.6992
  309MOL0     H40774   7.128   0.995   3.786  0.6556  0.9685 -0.1054
  309MOL0     H40775   6.915   0.874   3.771 -2.5757 -1.0471  0.1623
  309MOL0     H40776   6.574   0.561   3.830  0.2762  2.1621 -4.3495
  309MOL0     H40777   6.361   0.494   3.762 -0.6268  0.2239 -0.6412
  309MOL0     H40778   6.097   0.505   3.879 -2.5712  1.1374 -0.2112
  309MOL0     H40779   6.157   0.468   3.714  1.3619 -1.0913  2.2977
  309MOL0     H40780   5.929   0.409   3.706 -0.9366  0.9327 -2.3877
  309MOL0     H40781   5.878   0.555   3.800 -0.4570 -2.0711  1.7294
  309MOL0     H40782   6.002   0.547   3.520  0.3767 -0.1212 -0.2670
  309MOL0     H40783   5.953   0.690   3.592 -2.4478  0.6205 -0.3357
  309MOL0     H40784   5.760   0.615   3.440 -0.0241 -0.6928  0.6464
  309MOL0     H40785   5.762   0.472   3.545 -2.8148 -0.3813 -1.2739
  309MOL0     H40786   5.545   0.768   3.753 -0.3246  1.2752 -2.3798
  309MOL0     H40787   6.203   0.887   3.874 -1.0108 -0.6243  2.2856
  309MOL0     H40788   6.436   0.960   3.932 -1.0412  0.9803 -2.7389
  310MOL0     O40789   0.766   8.475   4.908 -0.1279 -0.4149 -0.3122
  310MOL0     C40790   0.788   8.541   4.804  0.3778  0.1180 -0.1382
  310MOL0     O40791   0.692   8.588   4.719 -0.5675  0.0788  0.3566
  310MOL0     C40792   0.557   8.577   4.747  0.1950  0.3729 -0.1138
  310MOL0     C40793   0.498   8.487   4.840  0.8045  0.1254 -0.9860
  310MOL0     C40794   0.359   8.504   4.867 -1.0192 -0.8490  0.9626
  310MOL0     C40795   0.284   8.603   4.808  0.5270 -0.6162  0.6077
  310MOL0     O40796   0.146   8.624   4.838 -0.6421 -0.0791  0.5301
  310MOL0     C40797   0.048   8.665   4.745  0.3963 -0.3264 -0.0610
  310MOL0     C40798   0.015   8.809   4.732 -0.0956  0.6143 -1.2832
  310MOL0     C40799  -0.006   8.887   4.859  1.4943  0.7401  0.3379
  310MOL0     C40800  -0.120   8.830   4.935 -0.5326  0.4477 -0.2514
  310MOL0     C40801  -0.135   8.902   5.066 -0.1666 -0.1486  0.1963
  310MOL0     C40802  -0.239   8.847   5.160 -0.5533 -0.5588  0.0633
  310MOL0     C40803  -0.235   8.923   5.298 -0.1297  0.5093 -0.2310
  310MOL0     C40804  -0.318   8.835   5.411 -0.2498 -0.3679 -0.4265
  310MOL0     N40805  -0.302   8.902   5.544  0.3976  0.6326  0.0713
  310MOL0     C40806  -0.194   8.960   5.588  0.4675 -0.2203  1.0281
  310MOL0     C40807  -0.234   9.008   5.714  0.0054  0.2465  0.1899
  310MOL0     C40808  -0.154   9.094   5.813  0.7429  0.5512  0.5752
  310MOL0     C40809  -0.006   9.135   5.776 -0.4582 -0.3576 -0.2516
  310MOL0     C40810  -0.017   9.252   5.675 -0.3435 -0.7338  0.5529
  310MOL0     C40811   0.122   9.307   5.637  0.3604 -0.5323 -0.6323
  310MOL0     O40812   0.189   9.196   5.581 -0.2134 -0.2071  0.4769
  310MOL0     C40813   0.327   9.195   5.547  1.3182  0.1175 -0.5629
  310MOL0     C40814   0.419   9.293   5.583  0.7204  1.0248 -0.5473
  310MOL0     C40815   0.546   9.290   5.534 -1.2157  0.7660 -0.9757
  310MOL0     C40816   0.591   9.178   5.460  0.4242 -0.4988 -0.0169
  310MOL0     C40817   0.728   9.182   5.401  0.2927 -0.7191 -0.0122
  310MOL0     O40818   0.779   9.313   5.385  0.0019 -0.2306 -0.2907
  310MOL0     C40819   0.900   9.341   5.324 -0.2421  0.6732 -0.2414
  310MOL0     C40820   1.003   9.414   5.387 -0.1524 -1.2973  0.0143
  310MOL0     C40821   1.118   9.444   5.310  0.3737 -0.2028 -0.1060
  310MOL0     C40822   1.126   9.408   5.176 -0.5444  0.2348  0.5081
  310MOL0     O40823   1.236   9.424   5.110 -0.0512 -0.4502  0.5759
  310MOL0     C40824   1.282   9.565   5.102 -0.0691  0.1906  0.2541
  310MOL0     C40825   1.431   9.562   5.060 -0.6412 -0.3373  0.5273
  310MOL0     C40826   1.453   9.488   4.935 -0.7828  0.0096  0.5931
  310MOL0     C40827   1.605   9.480   4.892  0.3940 -0.6164 -0.5367
  310MOL0     C40828   1.620   9.399   4.761  0.7024 -0.0813 -0.1286
  310MOL0     C40829   1.775   9.352   4.747  0.6524 -0.6065  0.3635
  310MOL0     C40830   1.876   9.463   4.691 -0.1600 -0.8581 -0.8249
  310MOL0     C40831   2.025   9.403   4.674 -0.1163 -0.1601 -0.4492
  310MOL0    Cl40832   2.089   9.340   4.821 -0.2645  0.1119  0.1107
  310MOL0     C40833   1.019   9.340   5.110  1.0543  0.5737 -0.5560
  310MOL0     C40834   0.907   9.315   5.181 -0.1776 -0.2251 -0.6511
  310MOL0     O40835   0.785   9.079   5.392  0.0743 -0.3547  0.1360
  310MOL0     C40836   0.498   9.083   5.421 -0.2110 -0.4830  0.7715
  310MOL0     C40837   0.365   9.088   5.478  0.6935 -0.7188 -0.1862
  310MOL0     N40838  -0.369   8.968   5.740  0.3201 -0.2344  0.3131
  310MOL0     N40839  -0.397   8.896   5.643 -0.2761  0.1099 -0.0713
  310MOL0     C40840   0.343   8.680   4.705  0.5954 -0.8637 -0.7874
  310MOL0     C40841   0.478   8.668   4.673  0.6044  1.1186 -0.8641
  310MOL0     C40842   0.926   8.555   4.757  0.2456 -0.0014 -0.1592
  310MOL0     C40843   0.961   8.611   4.640  0.0214 -0.1580 -0.3519
  310MOL0     C40844   1.092   8.629   4.598 -0.0598  0.4078 -0.1926
  310MOL0     C40845   1.195   8.574   4.679 -0.0469 -0.7454  0.4987
  310MOL0     O40846   1.323   8.592   4.630 -0.2677  0.2477  0.8700
  310MOL0     C40847   1.435   8.569   4.720 -0.3509  0.0633  0.2447
  310MOL0     C40848   1.493   8.427   4.706 -0.2473  0.0065  0.3848
  310MOL0     C40849   1.561   8.383   4.846  0.1701  0.7966  0.7269
  310MOL0     C40850   1.661   8.267   4.834  0.4312 -0.5163 -0.0675
  310MOL0     C40851   1.718   8.204   4.955 -0.6721 -0.3733  0.3459
  310MOL0     C40852   1.770   8.162   5.065  0.1527  0.0475  0.3698
  310MOL0     C40853   1.159   8.515   4.804  0.7894 -1.4712 -0.0739
  310MOL0     C40854   1.024   8.521   4.851 -0.1024  0.1463  0.5305
  310MOL0     H40855   0.558   8.405   4.879 -0.8043  0.2114  1.9988
  310MOL0     H40856   0.312   8.443   4.943  0.0707 -1.0293  1.5076
  310MOL0     H40857  -0.043   8.608   4.766 -0.5745  1.6432  1.4899
  310MOL0     H40858   0.083   8.629   4.648 -1.3187  2.2692 -1.7648
  310MOL0     H40859  -0.075   8.814   4.670 -0.4376 -0.1609 -0.8630
  310MOL0     H40860   0.093   8.858   4.673  0.0660  0.4570 -1.2005
  310MOL0     H40861  -0.033   8.989   4.832 -2.6372 -0.5467 -1.1796
  310MOL0     H40862   0.092   8.889   4.908  2.3816  3.0122 -1.3639
  310MOL0     H40863  -0.207   8.836   4.870 -0.9920 -1.5329  0.1235
  310MOL0     H40864  -0.101   8.724   4.952  0.8783  0.2355 -2.7429
  310MOL0     H40865  -0.158   9.009   5.059 -1.4005 -0.2622  1.8967
  310MOL0     H40866  -0.041   8.905   5.121 -1.1182 -0.6798  1.9375
  310MOL0     H40867  -0.206   8.744   5.173  3.1233  0.2654 -1.5352
  310MOL0     H40868  -0.341   8.864   5.123 -0.3233  0.1205 -0.2778
  310MOL0     H40869  -0.131   8.939   5.326 -0.0139  1.9096 -1.3780
  310MOL0     H40870  -0.280   9.022   5.292 -0.1495  0.4647 -0.9064
  310MOL0     H40871  -0.284   8.732   5.428  1.2569  0.4724  2.4731
  310MOL0     H40872  -0.420   8.820   5.377 -0.4349 -3.7542  1.2051
  310MOL0     H40873  -0.100   8.981   5.538 -0.4812 -0.2530 -0.8685
  310MOL0     H40874  -0.146   9.039   5.908  1.6466  0.2502  0.3406
  310MOL0     H40875  -0.216   9.183   5.821 -0.0035  0.4605 -2.7656
  310MOL0     H40876   0.059   9.059   5.734  1.3768 -1.1832  3.6044
  310MOL0     H40877   0.040   9.168   5.870  0.3603 -3.4313  0.5387
  310MOL0     H40878  -0.069   9.227   5.582  1.7561 -2.8822 -0.1511
  310MOL0     H40879  -0.068   9.339   5.716  1.0987 -0.2601  1.4235
  310MOL0     H40880   0.176   9.340   5.727  0.0115 -1.5203 -0.0433
  310MOL0     H40881   0.111   9.392   5.570  0.2890 -1.1896 -1.4686
  310MOL0     H40882   0.386   9.373   5.648  2.6911  0.4991  1.2232
  310MOL0     H40883   0.614   9.373   5.554  0.7109 -0.5301 -1.8104
  310MOL0     H40884   1.001   9.430   5.494 -3.4681  2.9086 -0.3586
  310MOL0     H40885   1.204   9.487   5.360  1.8082 -2.5803 -0.3419
  310MOL0     H40886   1.275   9.625   5.193 -0.5065 -0.1619  0.4574
  310MOL0     H40887   1.221   9.601   5.018  0.2266  0.7966  0.2973
  310MOL0     H40888   1.500   9.519   5.134 -1.6307 -3.3585 -0.1752
  310MOL0     H40889   1.453   9.667   5.040 -1.9203 -0.0863  0.3634
  310MOL0     H40890   1.387   9.526   4.857  0.2459 -1.6946 -1.2030
  310MOL0     H40891   1.421   9.387   4.961  1.5256 -0.6055  1.3479
  310MOL0     H40892   1.640   9.583   4.880 -1.2108  0.2710  1.7091
  310MOL0     H40893   1.660   9.427   4.970  2.3629  0.8623 -0.8465
  310MOL0     H40894   1.578   9.456   4.678 -0.4920 -1.5554 -0.5873
  310MOL0     H40895   1.566   9.304   4.762  2.8246 -1.3838 -1.7350
  310MOL0     H40896   1.786   9.259   4.690 -1.0342 -1.0776  0.7435
  310MOL0     H40897   1.809   9.333   4.849 -2.0722 -1.1064  1.2495
  310MOL0     H40898   1.847   9.500   4.592  1.0203  1.8472 -0.2558
  310MOL0     H40899   1.877   9.548   4.760 -0.9678 -2.3870  1.1856
  310MOL0     H40900   2.080   9.484   4.627 -0.0975  0.5472  0.7377
  310MOL0     H40901   2.025   9.318   4.605 -0.1531 -0.4998 -0.0348
  310MOL0     H40902   1.017   9.313   5.005 -0.1366  0.6910 -0.5777
  310MOL0     H40903   0.820   9.276   5.128 -0.4809  0.7497 -0.8914
  310MOL0     H40904   0.541   8.999   5.368  3.7903  1.1354  1.1067
  310MOL0     H40905   0.291   9.012   5.458  1.1262 -1.0364 -0.6139
  310MOL0     H40906   0.296   8.763   4.653  2.3013  1.0863  0.6768
  310MOL0     H40907   0.524   8.743   4.610  1.4529  0.0699 -1.5302
  310MOL0     H40908   0.884   8.638   4.568  0.4527 -1.9926 -1.6015
  310MOL0     H40909   1.117   8.670   4.500  0.9274 -2.7871 -1.4121
  310MOL0     H40910   1.405   8.594   4.822  1.8373 -0.6196  1.1105
  310MOL0     H40911   1.519   8.636   4.700 -0.0429 -0.7759 -1.4968
  310MOL0     H40912   1.410   8.362   4.675 -0.7535  1.5843 -1.9299
  310MOL0     H40913   1.572   8.421   4.631  0.4896  0.2302  1.1397
  310MOL0     H40914   1.476   8.351   4.907 -0.4776 -1.5429 -1.2465
  310MOL0     H40915   1.603   8.477   4.883  0.5301  0.4486  1.2072
  310MOL0     H40916   1.625   8.188   4.767 -0.3307 -0.2520  0.0228
  310MOL0     H40917   1.748   8.313   4.787  1.1432 -1.3002  0.4469
  310MOL0     H40918   1.814   8.109   5.147 -1.6194 -1.2412  0.5482
  310MOL0     H40919   1.235   8.479   4.872  1.3748  0.4453  0.3337
  310MOL0     H40920   0.994   8.484   4.948  0.7099 -0.3646  0.6000
  311MOL0     O40921   1.894   1.302   1.357 -0.2704 -0.6889 -0.5299
  311MOL0     C40922   1.820   1.314   1.450 -0.3119  0.1020  0.5303
  311MOL0     O40923   1.858   1.279   1.577 -0.1132 -0.4226 -0.2391
  311MOL0     C40924   1.993   1.288   1.599 -0.2823 -0.5288 -0.7704
  311MOL0     C40925   2.068   1.174   1.631 -0.1804  0.0799 -0.3360
  311MOL0     C40926   2.208   1.192   1.652  0.3978 -0.8756  1.1392
  311MOL0     C40927   2.264   1.317   1.668  0.2752 -0.4557  0.0287
  311MOL0     O40928   2.400   1.340   1.700  0.2135  0.2452  0.7134
  311MOL0     C40929   2.483   1.365   1.585  0.4569 -0.6431  0.2710
  311MOL0     C40930   2.622   1.438   1.615 -0.1417 -0.2024 -0.1172
  311MOL0     C40931   2.619   1.589   1.654 -0.7535  0.3731 -0.9648
  311MOL0     C40932   2.536   1.620   1.782 -0.2320  0.1594  0.1568
  311MOL0     C40933   2.517   1.777   1.775  0.1406 -0.5557  0.9738
  311MOL0     C40934   2.436   1.823   1.891 -0.3443 -0.2832 -0.5030
  311MOL0     C40935   2.373   1.967   1.868  0.2259  0.9835  0.9167
  311MOL0     C40936   2.244   1.952   1.783 -0.2838  0.3648  0.4474
  311MOL0     N40937   2.123   1.923   1.865 -1.0623  0.1905  0.7683
  311MOL0     C40938   2.050   2.004   1.946 -1.4199  0.3276 -0.9110
  311MOL0     C40939   1.966   1.924   2.012  0.2450  0.3554 -0.3351
  311MOL0     C40940   1.861   1.964   2.105  0.6574  0.2973 -0.1399
  311MOL0     C40941   1.733   1.882   2.084 -0.0525  0.6168 -0.2215
  311MOL0     C40942   1.662   1.926   1.958  0.9179  0.0578  0.1112
  311MOL0     C40943   1.518   1.894   1.961 -0.8439  0.7475  0.3417
  311MOL0     O40944   1.443   1.982   2.051  0.0861 -0.2522  0.1125
  311MOL0     C40945   1.308   1.973   2.050 -0.4665  0.3008  0.1651
  311MOL0     C40946   1.221   1.914   1.949 -0.1504  0.5487 -1.0050
  311MOL0     C40947   1.083   1.910   1.967  0.2066 -0.4562 -0.2995
  311MOL0     C40948   1.028   1.966   2.086  1.9405 -0.3628  0.2747
  311MOL0     C40949   0.870   1.956   2.108  0.0570 -0.3907 -0.1253
  311MOL0     O40950   0.821   2.041   2.208  0.1278 -0.7033 -0.1524
  311MOL0     C40951   0.688   2.049   2.222  0.9185  0.6760  0.4562
  311MOL0     C40952   0.622   2.025   2.344  0.5247  0.3034  0.7230
  311MOL0     C40953   0.481   2.028   2.354 -0.3553  0.0568 -0.6434
  311MOL0     C40954   0.403   2.065   2.244  0.1590 -0.9861  0.1097
  311MOL0     O40955   0.271   2.073   2.251  1.0535  0.7786 -0.4160
  311MOL0     C40956   0.215   1.956   2.186  0.0221  0.1614 -0.0009
  311MOL0     C40957   0.072   1.933   2.251 -0.7567 -0.0616 -0.3232
  311MOL0     C40958  -0.034   2.042   2.227  0.7637 -0.1125  0.8808
  311MOL0     C40959  -0.164   2.007   2.304  0.0955 -0.3976 -0.2859
  311MOL0     C40960  -0.242   1.892   2.244  0.0884  0.5849  0.4891
  311MOL0     C40961  -0.318   1.929   2.116  0.5368  0.8489 -1.0288
  311MOL0     C40962  -0.400   1.811   2.057  0.0106 -1.0810 -0.6451
  311MOL0     C40963  -0.520   1.756   2.135 -0.5491  0.2543 -0.2826
  311MOL0    Cl40964  -0.661   1.873   2.151  0.1410 -0.4227 -0.6439
  311MOL0     C40965   0.467   2.095   2.123  0.1655  0.3964  0.0839
  311MOL0     C40966   0.609   2.084   2.111  0.3497 -0.0373 -0.0814
  311MOL0     O40967   0.804   1.875   2.038 -0.7431 -0.2105 -0.5687
  311MOL0     C40968   1.108   2.019   2.187  0.6962  0.6552 -0.0834
  311MOL0     C40969   1.243   2.024   2.161 -0.4424  0.6551  0.0377
  311MOL0     N40970   1.980   1.788   1.970 -0.0001 -0.5252  0.2407
  311MOL0     N40971   2.067   1.793   1.876 -0.2390  0.4111  0.6610
  311MOL0     C40972   2.189   1.428   1.639  0.6052  0.1982 -0.7016
  311MOL0     C40973   2.050   1.416   1.602 -0.7485 -0.4513  1.1696
  311MOL0     C40974   1.676   1.343   1.424 -0.8427  0.6713  0.4842
  311MOL0     C40975   1.595   1.332   1.530 -0.2543 -0.4317 -0.2149
  311MOL0     C40976   1.460   1.352   1.520  0.7611 -0.1792  0.6233
  311MOL0     C40977   1.398   1.392   1.399 -0.3474 -0.1578  0.3840
  311MOL0     O40978   1.258   1.390   1.399  0.8169 -0.3098 -0.3525
  311MOL0     C40979   1.183   1.376   1.279 -0.2777 -0.8089 -0.7775
  311MOL0     C40980   1.053   1.312   1.319  0.1745 -0.3591 -0.6724
  311MOL0     C40981   1.079   1.203   1.422  0.5282 -0.0952 -0.8109
  311MOL0     C40982   0.957   1.107   1.442  0.1603 -0.7807  0.1753
  311MOL0     C40983   0.850   1.181   1.507  0.9543  0.4587  0.4863
  311MOL0     C40984   0.757   1.244   1.553 -0.2964  0.3314 -0.1869
  311MOL0     C40985   1.487   1.415   1.290 -0.6151  0.0403  0.6695
  311MOL0     C40986   1.620   1.383   1.295  0.0752 -0.4128 -0.5770
  311MOL0     H40987   2.030   1.073   1.642  1.9056 -0.6298  1.0464
  311MOL0     H40988   2.276   1.113   1.680  4.1138  0.8489 -2.0766
  311MOL0     H40989   2.424   1.410   1.504 -1.5623 -0.2440  1.8861
  311MOL0     H40990   2.505   1.267   1.543 -1.6549 -0.8341 -0.5145
  311MOL0     H40991   2.688   1.420   1.530 -0.4593 -1.3029 -0.1424
  311MOL0     H40992   2.669   1.374   1.691  0.9813  0.2124 -0.4432
  311MOL0     H40993   2.565   1.629   1.567 -1.1072 -2.1957 -2.0124
  311MOL0     H40994   2.716   1.636   1.674  0.4206 -1.0166 -3.0127
  311MOL0     H40995   2.441   1.566   1.772 -2.1303  2.8070  2.4717
  311MOL0     H40996   2.594   1.601   1.873 -0.7856  1.5627  0.8218
  311MOL0     H40997   2.464   1.799   1.682  0.9064 -1.8759  0.1888
  311MOL0     H40998   2.616   1.824   1.773 -0.9567  2.0496  2.6407
  311MOL0     H40999   2.495   1.832   1.982  0.1439  1.3265 -0.9331
  311MOL0     H41000   2.353   1.754   1.907 -0.3802 -0.4715 -1.4476
  311MOL0     H41001   2.351   2.011   1.965  2.1437 -1.4234  2.5762
  311MOL0     H41002   2.439   2.023   1.801  2.2381 -1.0365  1.0963
  311MOL0     H41003   2.256   1.867   1.715 -0.6846 -0.3697  1.2647
  311MOL0     H41004   2.230   2.039   1.719  0.7527  0.0836 -0.1936
  311MOL0     H41005   2.058   2.112   1.960 -0.2225  0.1624 -0.1718
  311MOL0     H41006   1.835   2.070   2.091 -0.5195  0.3416  1.9373
  311MOL0     H41007   1.912   1.943   2.199  0.5710 -2.0774 -0.5656
  311MOL0     H41008   1.671   1.889   2.174  2.4381 -0.6175  1.7355
  311MOL0     H41009   1.760   1.776   2.081  3.0725  1.3057 -0.0772
  311MOL0     H41010   1.662   2.034   1.940  1.1838  0.6144  2.9828
  311MOL0     H41011   1.712   1.869   1.881 -0.8866 -2.4125  0.6425
  311MOL0     H41012   1.505   1.787   1.975 -0.5292  0.8724  1.6479
  311MOL0     H41013   1.490   1.913   1.856  1.5965 -1.6675 -0.8567
  311MOL0     H41014   1.263   1.872   1.858  1.5638 -0.8745  0.3699
  311MOL0     H41015   1.024   1.860   1.891  0.5017 -0.7049 -0.3691
  311MOL0     H41016   0.685   1.975   2.416  2.3218 -0.2771 -1.1691
  311MOL0     H41017   0.427   1.988   2.439  0.6418  0.3356  0.1401
  311MOL0     H41018   0.276   1.866   2.194  2.3035  1.4532 -1.8346
  311MOL0     H41019   0.204   1.980   2.079 -3.2159 -0.8619 -0.0310
  311MOL0     H41020   0.089   1.919   2.358 -0.8341 -1.8909 -0.5238
  311MOL0     H41021   0.033   1.837   2.215 -2.2736  0.1954  0.5975
  311MOL0     H41022  -0.058   2.027   2.121  0.3189 -0.3585  1.0115
  311MOL0     H41023   0.007   2.141   2.248 -0.8883  1.2746 -1.7712
  311MOL0     H41024  -0.138   1.980   2.406 -1.8307  1.3664  0.7416
  311MOL0     H41025  -0.215   2.102   2.322  2.3352  0.2512  3.8568
  311MOL0     H41026  -0.315   1.866   2.321  1.3702  1.6052  2.1205
  311MOL0     H41027  -0.173   1.813   2.212 -2.3512 -0.7070 -1.9755
  311MOL0     H41028  -0.249   1.970   2.041  2.6960 -0.7784 -0.0141
  311MOL0     H41029  -0.382   2.014   2.143 -2.1727 -0.7282 -2.0609
  311MOL0     H41030  -0.439   1.854   1.964 -1.2140  1.8778  1.1038
  311MOL0     H41031  -0.340   1.720   2.045 -1.3971 -2.7196  3.1958
  311MOL0     H41032  -0.481   1.722   2.231  1.0690  2.8422  0.0826
  311MOL0     H41033  -0.559   1.670   2.080 -0.1071 -2.7267  3.6395
  311MOL0     H41034   0.411   2.123   2.034  0.2150  0.2654  0.0102
  311MOL0     H41035   0.664   2.113   2.022  2.3666 -2.2957  0.3255
  311MOL0     H41036   1.070   2.060   2.280  3.2169  2.2028  0.3764
  311MOL0     H41037   1.301   2.058   2.246  0.9122  1.3544 -1.1373
  311MOL0     H41038   2.236   1.525   1.647 -0.9659  0.9639 -0.4522
  311MOL0     H41039   1.988   1.497   1.566  0.0968 -0.6933 -0.9906
  311MOL0     H41040   1.635   1.309   1.628 -0.7754  1.5757  0.5313
  311MOL0     H41041   1.392   1.343   1.604 -0.7510  1.1253 -0.3978
  311MOL0     H41042   1.243   1.317   1.209  0.7471 -1.0329  0.2674
  311MOL0     H41043   1.167   1.472   1.228  2.6342 -0.8174 -1.8579
  311MOL0     H41044   0.977   1.381   1.359  0.2202  0.3628 -1.7927
  311MOL0     H41045   1.024   1.261   1.227 -1.6344  1.2307 -1.0692
  311MOL0     H41046   1.102   1.255   1.515 -0.7657 -0.6546 -0.1528
  311MOL0     H41047   1.165   1.140   1.400  0.8947  0.0315  0.2040
  311MOL0     H41048   0.922   1.062   1.348  2.3111  0.3167 -1.2389
  311MOL0     H41049   0.987   1.022   1.504 -1.2547 -0.4640  1.3374
  311MOL0     H41050   0.677   1.296   1.602 -0.3890 -2.2633  2.7575
  311MOL0     H41051   1.444   1.441   1.194 -0.6956 -0.1445  0.6544
  311MOL0     H41052   1.686   1.398   1.210  0.8189  1.0870  0.2156
  312MOL0     O41053   3.504   0.472   1.734  0.3903  0.4655  0.1749
  312MOL0     C41054   3.594   0.485   1.820  0.6831 -0.7056 -0.4645
  312MOL0     O41055   3.588   0.449   1.952 -0.6623  0.5240  0.4404
  312MOL0     C41056   3.491   0.369   1.998  0.2156 -0.1291  0.1450
  312MOL0     C41057   3.536   0.266   2.070 -0.0076 -0.4075 -1.6793
  312MOL0     C41058   3.453   0.171   2.132  0.4474  0.7240  1.3572
  312MOL0     C41059   3.309   0.188   2.121  0.6571 -0.0733 -0.8712
  312MOL0     O41060   3.210   0.103   2.166 -0.5172  0.6294 -0.5860
  312MOL0     C41061   3.258  -0.028   2.207 -0.2943  0.2208 -0.4290
  312MOL0     C41062   3.158  -0.131   2.249  0.0978  0.1856 -0.5876
  312MOL0     C41063   3.048  -0.138   2.136  0.0996  0.5352 -0.0843
  312MOL0     C41064   2.940  -0.228   2.192 -0.1889  0.2684  0.0504
  312MOL0     C41065   2.837  -0.254   2.079 -1.0222 -0.6310 -0.8060
  312MOL0     C41066   2.725  -0.352   2.117 -0.4948 -0.2956  0.8380
  312MOL0     C41067   2.649  -0.299   2.243 -0.2565  0.8343  0.0207
  312MOL0     C41068   2.497  -0.280   2.209 -0.0785  0.3129 -0.3054
  312MOL0     N41069   2.432  -0.402   2.177  0.1901  0.4519 -0.3694
  312MOL0     C41070   2.455  -0.530   2.225  0.1651 -0.0414 -0.4092
  312MOL0     C41071   2.362  -0.611   2.177  0.2078 -0.9168  1.0645
  312MOL0     C41072   2.350  -0.755   2.222  0.0008 -0.6587  0.4382
  312MOL0     C41073   2.203  -0.783   2.256 -0.4919 -0.5787 -0.0917
  312MOL0     C41074   2.170  -0.722   2.394  0.1924  0.2133 -0.0262
  312MOL0     C41075   2.035  -0.770   2.455 -0.1621  0.2438 -0.0894
  312MOL0     O41076   2.044  -0.913   2.471 -0.4046 -0.0726  0.0977
  312MOL0     C41077   1.938  -0.999   2.489  0.2968  0.2382 -1.3108
  312MOL0     C41078   1.961  -1.130   2.537 -0.4646  0.2077  0.0787
  312MOL0     C41079   1.855  -1.217   2.557  0.4145 -0.2418  0.0052
  312MOL0     C41080   1.716  -1.171   2.558 -0.5708  0.9930  0.1586
  312MOL0     C41081   1.604  -1.254   2.572 -0.2677  0.0731 -0.1323
  312MOL0     O41082   1.486  -1.204   2.547 -0.8682 -0.2506  0.1290
  312MOL0     C41083   1.376  -1.274   2.575  0.3937  0.0797 -0.4909
  312MOL0     C41084   1.264  -1.227   2.655  0.3846  0.3552 -0.8769
  312MOL0     C41085   1.141  -1.296   2.673 -0.6050 -0.4228  0.3375
  312MOL0     C41086   1.127  -1.420   2.610 -0.3451  0.7007 -0.1217
  312MOL0     O41087   1.015  -1.505   2.628  0.2360  0.5172 -0.7516
  312MOL0     C41088   0.904  -1.465   2.706 -0.5908 -0.6328 -0.4605
  312MOL0     C41089   0.794  -1.407   2.603  0.6485  0.4572 -0.8668
  312MOL0     C41090   0.672  -1.355   2.683  0.4047  0.2727  0.4213
  312MOL0     C41091   0.577  -1.475   2.726 -0.0998  0.0234 -0.6651
  312MOL0     C41092   0.437  -1.421   2.756  0.3830  0.4356 -0.4472
  312MOL0     C41093   0.346  -1.543   2.808 -0.4410  1.1852  0.2244
  312MOL0     C41094   0.338  -1.670   2.722  0.0628 -0.2679 -0.1098
  312MOL0     C41095   0.208  -1.752   2.761 -0.2571 -0.0034 -0.2243
  312MOL0    Cl41096   0.059  -1.656   2.719 -0.3521  0.2778  0.2052
  312MOL0     C41097   1.238  -1.475   2.529  1.1954  0.1322 -0.0178
  312MOL0     C41098   1.357  -1.395   2.514  0.7078 -0.2130 -0.3070
  312MOL0     O41099   1.629  -1.372   2.583 -0.3015  0.0180 -0.3696
  312MOL0     C41100   1.699  -1.035   2.530  0.5692 -0.5209 -1.0566
  312MOL0     C41101   1.808  -0.958   2.495  0.4223  0.0170  0.4626
  312MOL0     N41102   2.279  -0.529   2.095  0.4179  0.3411 -0.2805
  312MOL0     N41103   2.319  -0.408   2.106 -0.4619  0.1358  0.2552
  312MOL0     C41104   3.268   0.300   2.046  0.2043 -0.7381 -0.4715
  312MOL0     C41105   3.350   0.386   1.981  1.0466 -0.7878 -1.0690
  312MOL0     C41106   3.714   0.554   1.773 -0.7906 -0.9638 -0.3104
  312MOL0     C41107   3.820   0.586   1.860 -0.4088  0.6359 -0.7299
  312MOL0     C41108   3.941   0.638   1.809  0.3722  0.0271  0.4154
  312MOL0     C41109   3.953   0.669   1.674  0.1096 -0.1396 -0.2180
  312MOL0     O41110   4.081   0.707   1.630 -0.7751 -0.0499 -0.3982
  312MOL0     C41111   4.104   0.720   1.495 -0.1486 -0.5914  0.1122
  312MOL0     C41112   4.139   0.585   1.422 -0.4251 -0.6575 -0.4832
  312MOL0     C41113   4.222   0.598   1.290 -0.5824 -0.5832 -0.3069
  312MOL0     C41114   4.371   0.652   1.310  0.6581 -0.0210  0.3693
  312MOL0     C41115   4.456   0.574   1.400  0.1571 -0.3501  0.3288
  312MOL0     C41116   4.516   0.502   1.478 -1.0841 -0.6545 -0.6252
  312MOL0     C41117   3.843   0.642   1.588 -0.8016 -0.1703  0.4410
  312MOL0     C41118   3.730   0.584   1.638  0.3433 -0.3906  0.5425
  312MOL0     H41119   3.644   0.255   2.071  0.3996  2.3573  1.0643
  312MOL0     H41120   3.510   0.096   2.185 -0.6067 -0.0957  1.3662
  312MOL0     H41121   3.330  -0.020   2.289  0.4493 -0.9112 -0.9325
  312MOL0     H41122   3.302  -0.068   2.115 -1.8452  0.3443 -1.2630
  312MOL0     H41123   3.111  -0.102   2.343  1.0686  3.1683 -0.8970
  312MOL0     H41124   3.204  -0.228   2.269 -1.7371 -0.3984  1.0787
  312MOL0     H41125   3.076  -0.185   2.041 -2.5927 -0.8824 -0.2686
  312MOL0     H41126   3.003  -0.041   2.111  2.7879  1.5787 -1.2161
  312MOL0     H41127   2.992  -0.321   2.219  0.2601 -0.1850 -2.1790
  312MOL0     H41128   2.901  -0.181   2.282  1.7166 -0.2244  1.1955
  312MOL0     H41129   2.895  -0.297   1.997  0.4312  0.4604 -0.3938
  312MOL0     H41130   2.795  -0.160   2.043  0.7829  0.8242  0.6331
  312MOL0     H41131   2.767  -0.453   2.122  1.8893  0.6942  2.8105
  312MOL0     H41132   2.653  -0.356   2.035 -1.9947 -1.6847  2.1642
  312MOL0     H41133   2.668  -0.364   2.328  1.9884 -0.0310 -1.0579
  312MOL0     H41134   2.690  -0.203   2.276  0.1206  0.1890  1.4870
  312MOL0     H41135   2.491  -0.214   2.122 -3.1283 -1.3658 -1.5122
  312MOL0     H41136   2.443  -0.230   2.289 -0.6860  1.9292 -1.6722
  312MOL0     H41137   2.529  -0.567   2.296 -1.2013 -0.0585  1.0694
  312MOL0     H41138   2.404  -0.778   2.313 -0.2513 -1.3908  0.4117
  312MOL0     H41139   2.388  -0.819   2.141  0.9059 -1.1243  1.2179
  312MOL0     H41140   2.181  -0.890   2.246 -1.6005 -0.3203 -0.5708
  312MOL0     H41141   2.148  -0.732   2.177 -0.3372  0.4095  0.4236
  312MOL0     H41142   2.248  -0.755   2.464  2.0579  4.6318  0.3051
  312MOL0     H41143   2.176  -0.613   2.397 -3.1333  0.5187  3.5141
  312MOL0     H41144   1.966  -0.747   2.373  0.8315  0.2964 -0.9368
  312MOL0     H41145   2.010  -0.718   2.547 -3.1315  3.2784 -2.3435
  312MOL0     H41146   2.064  -1.155   2.558 -0.0876  2.5792  1.4316
  312MOL0     H41147   1.876  -1.321   2.583 -1.3230 -0.1905  1.9547
  312MOL0     H41148   1.278  -1.132   2.704  2.2247 -1.0152  1.4911
  312MOL0     H41149   1.061  -1.244   2.724  0.7893  0.6909  1.4710
  312MOL0     H41150   0.924  -1.404   2.794 -1.6631 -0.9016 -0.0164
  312MOL0     H41151   0.873  -1.561   2.747  1.6222 -2.4251 -2.6639
  312MOL0     H41152   0.755  -1.479   2.531 -0.6895 -2.5018  2.4938
  312MOL0     H41153   0.833  -1.324   2.543  1.1397  1.4119  0.6943
  312MOL0     H41154   0.621  -1.285   2.616  0.0111  0.4603  0.9053
  312MOL0     H41155   0.702  -1.311   2.779  0.6304 -0.4137  0.6696
  312MOL0     H41156   0.584  -1.541   2.639  1.1386 -1.7408  0.6752
  312MOL0     H41157   0.623  -1.520   2.815  0.0848  2.2335  0.4155
  312MOL0     H41158   0.384  -1.373   2.673 -5.1821 -0.6434  2.0642
  312MOL0     H41159   0.447  -1.342   2.830 -1.5556  1.3655 -1.1191
  312MOL0     H41160   0.249  -1.499   2.833 -0.2744  4.0524 -3.2160
  312MOL0     H41161   0.402  -1.566   2.899  0.8413 -0.5362 -0.9463
  312MOL0     H41162   0.339  -1.640   2.617 -1.9921 -0.2956 -0.1644
  312MOL0     H41163   0.426  -1.731   2.749  1.4965  2.2880  1.3587
  312MOL0     H41164   0.217  -1.766   2.869 -0.0968 -0.0487 -0.2442
  312MOL0     H41165   0.222  -1.842   2.701  1.9713  0.5997 -0.7256
  312MOL0     H41166   1.243  -1.576   2.490  0.0316  0.5550 -1.3740
  312MOL0     H41167   1.433  -1.452   2.461  1.2054 -0.3835  0.5656
  312MOL0     H41168   1.601  -0.990   2.536  0.4151 -1.0133  0.4844
  312MOL0     H41169   1.778  -0.855   2.478  0.5845  0.3159  1.8975
  312MOL0     H41170   3.161   0.315   2.052  0.1603 -0.3579 -1.7656
  312MOL0     H41171   3.308   0.467   1.922 -0.8176 -0.8476  0.0770
  312MOL0     H41172   3.827   0.547   1.961  0.2639  1.1088 -0.5926
  312MOL0     H41173   4.022   0.642   1.881 -0.1102 -0.5784  1.0046
  312MOL0     H41174   4.195   0.782   1.501  0.3547 -1.0516 -1.9490
  312MOL0     H41175   4.034   0.784   1.440  1.4402  1.5275  0.3692
  312MOL0     H41176   4.208   0.524   1.480  1.2370  0.5942 -1.0490
  312MOL0     H41177   4.047   0.530   1.403 -0.0722 -0.7814 -1.9651
  312MOL0     H41178   4.173   0.671   1.225 -0.5602  0.1484  0.4886
  312MOL0     H41179   4.230   0.496   1.252  2.2620 -0.8716  0.8254
  312MOL0     H41180   4.428   0.669   1.218 -0.9456  3.8233 -0.1218
  312MOL0     H41181   4.369   0.757   1.339  2.4608  0.1005  0.1675
  312MOL0     H41182   4.560   0.431   1.544  0.8804  0.7804 -0.2930
  312MOL0     H41183   3.848   0.672   1.484 -2.1898  1.0587  0.6822
  312MOL0     H41184   3.649   0.565   1.568  0.1350 -0.9101  0.9203
  313MOL0     O41185   3.660   6.210   7.658 -0.4754 -0.4810 -0.3953
  313MOL0     C41186   3.649   6.093   7.617 -0.1894 -0.6332  0.2617
  313MOL0     O41187   3.534   6.037   7.589  0.3322 -0.5377  0.2541
  313MOL0     C41188   3.414   6.104   7.619 -0.5767  0.8546  0.4252
  313MOL0     C41189   3.342   6.047   7.726  0.2802 -0.2991  0.5574
  313MOL0     C41190   3.209   6.077   7.746  0.3292 -0.2631  0.0438
  313MOL0     C41191   3.157   6.188   7.660  0.0355  0.5131  0.1027
  313MOL0     O41192   3.033   6.239   7.682  0.4451  0.2825 -0.2063
  313MOL0     C41193   3.022   6.328   7.794  0.4662 -0.0419  0.1599
  313MOL0     C41194   2.876   6.373   7.802 -0.1151 -0.0017 -0.0690
  313MOL0     C41195   2.779   6.270   7.859 -0.4242  0.4007  0.4429
  313MOL0     C41196   2.625   6.297   7.835 -0.8281 -0.1694 -0.3204
  313MOL0     C41197   2.521   6.194   7.873 -0.7446  0.8358 -0.0163
  313MOL0     C41198   2.523   6.077   7.776  0.3994  0.5951  0.0876
  313MOL0     C41199   2.454   5.959   7.841  0.3289  0.3581 -0.0574
  313MOL0     C41200   2.301   5.969   7.847  0.1513 -0.1875  0.3864
  313MOL0     N41201   2.232   5.846   7.873  0.1277  0.2586 -0.1003
  313MOL0     C41202   2.146   5.779   7.800  0.1784  0.5519  0.0561
  313MOL0     C41203   2.104   5.674   7.872 -0.1824  0.5539 -0.0137
  313MOL0     C41204   2.010   5.572   7.822 -0.2776  0.4590  0.5400
  313MOL0     C41205   1.890   5.549   7.909  0.8125  0.1187  0.2729
  313MOL0     C41206   1.795   5.443   7.841  0.1540 -0.1194  0.4945
  313MOL0     C41207   1.682   5.506   7.760  0.1385 -0.2618 -0.1426
  313MOL0     O41208   1.585   5.522   7.867  0.2248 -0.5602  0.4392
  313MOL0     C41209   1.461   5.495   7.816 -0.3491 -0.1671 -0.5379
  313MOL0     C41210   1.435   5.365   7.779 -0.4849  0.4952 -0.8127
  313MOL0     C41211   1.308   5.329   7.732 -0.3885  1.2330  0.4037
  313MOL0     C41212   1.211   5.434   7.709 -0.2176 -0.3139 -0.2656
  313MOL0     C41213   1.079   5.405   7.650 -0.6875  0.1693 -0.0109
  313MOL0     O41214   1.015   5.513   7.610  0.1760 -0.0097  0.0155
  313MOL0     C41215   0.878   5.508   7.573  0.3385  0.2520 -0.5584
  313MOL0     C41216   0.842   5.611   7.486  0.0079 -0.4202 -0.4748
  313MOL0     C41217   0.706   5.630   7.440 -0.5349  0.6429 -0.9688
  313MOL0     C41218   0.603   5.537   7.491 -0.5961 -0.4325 -0.4431
  313MOL0     O41219   0.475   5.566   7.458 -0.1008 -0.2069  0.0860
  313MOL0     C41220   0.368   5.470   7.494  0.3622 -0.2800  0.0427
  313MOL0     C41221   0.246   5.504   7.413 -0.1512 -0.0353 -0.7991
  313MOL0     C41222   0.273   5.507   7.261  0.8028 -0.3651  0.6092
  313MOL0     C41223   0.150   5.550   7.181 -0.1117 -0.5194 -0.0373
  313MOL0     C41224   0.192   5.558   7.030 -0.0458  0.6893  0.1130
  313MOL0     C41225   0.082   5.580   6.932  0.2306 -0.1192  0.0849
  313MOL0     C41226   0.132   5.601   6.789 -0.1682 -0.8885  0.3350
  313MOL0     C41227   0.170   5.473   6.713  0.5990 -0.0187  0.6203
  313MOL0    Cl41228   0.211   5.515   6.549 -0.0685 -0.2711  0.2653
  313MOL0     C41229   0.638   5.441   7.580  0.3657  0.7816 -0.9720
  313MOL0     C41230   0.774   5.428   7.633  0.3129 -0.1298  0.7442
  313MOL0     O41231   1.041   5.289   7.650  0.1601  0.1544  0.1677
  313MOL0     C41232   1.242   5.563   7.743 -0.1028  0.6673 -0.4823
  313MOL0     C41233   1.371   5.594   7.793  0.2070  0.2247 -0.3176
  313MOL0     N41234   2.178   5.668   7.985  0.2046  0.3207 -0.8723
  313MOL0     N41235   2.258   5.767   7.987  0.0317  0.3037  0.2600
  313MOL0     C41236   3.238   6.253   7.568  0.5394  0.0120  0.5319
  313MOL0     C41237   3.362   6.212   7.547 -0.9155  0.2964 -1.2950
  313MOL0     C41238   3.768   6.019   7.575 -0.1063 -0.0380 -0.3689
  313MOL0     C41239   3.755   5.886   7.535 -0.3748 -1.0480  0.3833
  313MOL0     C41240   3.863   5.816   7.498 -0.1058 -0.1115 -0.0725
  313MOL0     C41241   3.993   5.870   7.505  0.0286  0.6582 -0.9254
  313MOL0     O41242   4.098   5.781   7.496 -0.0816 -0.0475  0.3734
  313MOL0     C41243   4.231   5.827   7.467  0.8640 -0.0762  0.3041
  313MOL0     C41244   4.308   5.728   7.371 -0.8784 -0.4398 -0.3594
  313MOL0     C41245   4.246   5.705   7.229 -1.1652  0.3542  0.3113
  313MOL0     C41246   4.210   5.837   7.155 -0.3107 -0.2110 -0.4974
  313MOL0     C41247   4.328   5.921   7.143 -0.0544 -0.6618 -0.0086
  313MOL0     C41248   4.432   5.985   7.130 -0.2921  0.8562  0.6227
  313MOL0     C41249   4.006   6.000   7.542 -0.5546  1.0992  0.0521
  313MOL0     C41250   3.896   6.078   7.580  0.4151  0.3948  0.3906
  313MOL0     H41251   3.387   5.965   7.781 -0.1413 -0.4857  0.6293
  313MOL0     H41252   3.161   6.022   7.827  1.3156 -0.0344  0.8120
  313MOL0     H41253   3.080   6.418   7.772  0.1147 -0.3005 -2.0256
  313MOL0     H41254   3.064   6.271   7.877  5.1290  0.6018 -1.5031
  313MOL0     H41255   2.840   6.397   7.702  0.0754 -1.0767 -0.4126
  313MOL0     H41256   2.876   6.470   7.853  2.0860  0.1497 -0.2660
  313MOL0     H41257   2.790   6.257   7.967 -0.4950  0.3621  0.4457
  313MOL0     H41258   2.800   6.170   7.821  0.6533  0.0014  2.0050
  313MOL0     H41259   2.599   6.387   7.891  1.1996  0.4172 -0.2689
  313MOL0     H41260   2.616   6.320   7.728 -2.0198 -1.3755 -0.5031
  313MOL0     H41261   2.421   6.237   7.861 -1.0033  0.8059  1.7490
  313MOL0     H41262   2.528   6.171   7.980 -2.2557  1.6212  0.2882
  313MOL0     H41263   2.628   6.056   7.752  0.4581  0.5915  0.3458
  313MOL0     H41264   2.482   6.113   7.682 -0.0982  0.2701  0.1757
  313MOL0     H41265   2.481   5.872   7.780 -2.2802 -0.7034  0.1956
  313MOL0     H41266   2.484   5.951   7.945 -2.0817 -2.5763  0.5456
  313MOL0     H41267   2.288   5.994   7.741 -0.2517  1.8281  0.8775
  313MOL0     H41268   2.261   6.043   7.916 -1.8465 -0.6039 -0.2486
  313MOL0     H41269   2.127   5.808   7.697  1.5394  2.3646  0.2708
  313MOL0     H41270   2.070   5.480   7.820 -0.6633  0.1450 -3.2414
  313MOL0     H41271   1.980   5.602   7.722  1.3763 -0.0287 -0.1365
  313MOL0     H41272   1.838   5.643   7.931  0.7225 -0.3512  2.2636
  313MOL0     H41273   1.924   5.515   8.007 -1.1817 -1.4184  0.4896
  313MOL0     H41274   1.857   5.365   7.797 -0.6102 -1.5692  1.8829
  313MOL0     H41275   1.745   5.383   7.918 -0.6901  0.6722  0.5828
  313MOL0     H41276   1.650   5.438   7.680  0.9586 -0.8004 -0.0308
  313MOL0     H41277   1.727   5.600   7.727  0.5401 -0.7645 -1.0802
  313MOL0     H41278   1.511   5.289   7.792  0.9057  1.9916  0.3214
  313MOL0     H41279   1.290   5.223   7.716 -2.1005  0.7474  4.3465
  313MOL0     H41280   0.914   5.689   7.467  0.1972 -0.8148 -1.4096
  313MOL0     H41281   0.679   5.721   7.388 -2.1099 -0.6944 -2.6259
  313MOL0     H41282   0.329   5.484   7.595 -1.9112 -0.4407 -0.7484
  313MOL0     H41283   0.394   5.364   7.483 -0.3315 -0.3347 -1.3312
  313MOL0     H41284   0.212   5.601   7.451  1.9202  0.6408 -0.5725
  313MOL0     H41285   0.174   5.424   7.435  3.5191 -3.4082  0.0946
  313MOL0     H41286   0.304   5.405   7.235  0.3054 -0.4088  0.1790
  313MOL0     H41287   0.360   5.569   7.236 -0.0473 -0.1418 -2.0651
  313MOL0     H41288   0.054   5.497   7.187 -0.2523 -0.2682 -0.0250
  313MOL0     H41289   0.130   5.656   7.202  1.9799  0.2032 -1.4295
  313MOL0     H41290   0.252   5.469   7.009  1.4969  1.3008  1.6453
  313MOL0     H41291   0.261   5.641   7.023  0.9222  0.0171  1.2013
  313MOL0     H41292   0.034   5.670   6.969 -0.8703 -0.3279 -0.7892
  313MOL0     H41293   0.005   5.502   6.940 -0.0161  0.2489  1.6241
  313MOL0     H41294   0.053   5.662   6.744  0.8804  1.7032  1.8244
  313MOL0     H41295   0.220   5.666   6.799 -0.0988 -1.1709  1.8048
  313MOL0     H41296   0.083   5.408   6.726  1.3146 -0.8491  1.4405
  313MOL0     H41297   0.257   5.428   6.760 -0.1862 -1.8012  0.4442
  313MOL0     H41298   0.556   5.391   7.631  1.2269  0.7801  0.4755
  313MOL0     H41299   0.805   5.353   7.704  0.8832  2.1578  3.0301
  313MOL0     H41300   1.174   5.646   7.726  0.9790  1.0118 -3.7821
  313MOL0     H41301   1.400   5.695   7.821  1.8753 -0.4879  0.6692
  313MOL0     H41302   3.201   6.338   7.512 -2.0389 -1.7612 -0.6412
  313MOL0     H41303   3.409   6.245   7.455 -2.1186 -0.3944 -2.1964
  313MOL0     H41304   3.653   5.850   7.525 -1.3886  2.1763 -4.0054
  313MOL0     H41305   3.859   5.710   7.473 -2.0078  0.2120 -1.3622
  313MOL0     H41306   4.284   5.829   7.563  3.4927 -1.9702 -0.9711
  313MOL0     H41307   4.232   5.924   7.417 -0.1576  1.0246  2.2852
  313MOL0     H41308   4.408   5.766   7.351 -0.3052 -0.9862  1.2728
  313MOL0     H41309   4.318   5.632   7.422  1.1599  0.4915  1.1325
  313MOL0     H41310   4.161   5.639   7.250  0.7016 -2.5750 -0.7853
  313MOL0     H41311   4.309   5.636   7.172  1.1506  0.2631  2.7832
  313MOL0     H41312   4.169   5.824   7.055 -1.4319  0.0467 -0.0837
  313MOL0     H41313   4.136   5.891   7.214 -0.1056 -0.4976  0.0393
  313MOL0     H41314   4.520   6.045   7.139 -0.9375  1.6184  2.4118
  313MOL0     H41315   4.106   6.038   7.561 -0.4695  0.2065  1.5147
  313MOL0     H41316   3.908   6.180   7.615  2.6527  0.1944  0.3323
  314MOL0     O41317   0.645   3.026   8.440 -0.6672 -0.6952 -0.4673
  314MOL0     C41318   0.693   2.922   8.480  0.5890 -0.4185 -0.1654
  314MOL0     O41319   0.623   2.820   8.537 -0.2606  0.6403 -0.4918
  314MOL0     C41320   0.486   2.843   8.545  0.3142  0.0291 -0.0771
  314MOL0     C41321   0.426   2.907   8.660 -0.6940  1.0585 -0.4425
  314MOL0     C41322   0.290   2.910   8.674  0.0572 -0.0019  0.0940
  314MOL0     C41323   0.203   2.876   8.575 -0.3130 -0.2035  0.0217
  314MOL0     O41324   0.070   2.890   8.607 -0.2347  0.2795 -0.6717
  314MOL0     C41325  -0.024   2.861   8.500  0.1693 -0.3238  0.3365
  314MOL0     C41326  -0.155   2.929   8.545 -0.0096  0.2954  0.0751
  314MOL0     C41327  -0.204   2.881   8.674  0.2476 -0.1517 -0.5187
  314MOL0     C41328  -0.357   2.881   8.700  0.4440 -0.0956 -0.2218
  314MOL0     C41329  -0.418   3.019   8.739  0.0810 -0.4142  0.4021
  314MOL0     C41330  -0.562   2.999   8.788 -0.2063 -0.2955  0.5300
  314MOL0     C41331  -0.633   3.143   8.782 -0.0200 -0.3779  0.0321
  314MOL0     C41332  -0.778   3.139   8.757 -0.0880 -0.0417  0.5786
  314MOL0     N41333  -0.850   3.077   8.870 -0.4851 -0.4932  1.0874
  314MOL0     C41334  -0.880   3.140   8.989 -0.6278  0.3295  0.8875
  314MOL0     C41335  -0.927   3.041   9.067  0.8228 -0.1983 -0.1038
  314MOL0     C41336  -0.985   3.058   9.200  0.0583  1.0654 -0.6285
  314MOL0     C41337  -1.099   3.154   9.191  0.0792 -0.1779 -0.1866
  314MOL0     C41338  -1.199   3.124   9.082 -0.1799 -0.8804 -0.1688
  314MOL0     C41339  -1.267   2.995   9.097 -0.5501  0.6783 -0.1261
  314MOL0     O41340  -1.354   3.001   9.206  0.2398  0.1698  0.6851
  314MOL0     C41341  -1.448   2.899   9.208  0.2483  0.7228 -0.0672
  314MOL0     C41342  -1.550   2.922   9.293  0.0238  0.6479  0.2661
  314MOL0     C41343  -1.648   2.825   9.315  0.3921 -0.5863 -0.3303
  314MOL0     C41344  -1.644   2.699   9.256 -0.9629 -0.2980 -0.3862
  314MOL0     C41345  -1.743   2.592   9.281  0.1433 -0.4444  0.3800
  314MOL0     O41346  -1.846   2.608   9.371 -0.0606 -0.7636 -1.2071
  314MOL0     C41347  -1.932   2.501   9.395 -0.6261 -0.1074 -1.1293
  314MOL0     C41348  -2.019   2.451   9.299  0.3274  0.1381  0.9497
  314MOL0     C41349  -2.083   2.325   9.316  0.1418 -1.2924 -1.0873
  314MOL0     C41350  -2.076   2.266   9.446 -0.5340 -0.2934 -0.0664
  314MOL0     O41351  -2.142   2.143   9.456 -0.2641 -0.3910  0.2628
  314MOL0     C41352  -2.203   2.100   9.580  0.9104 -0.5227 -0.0264
  314MOL0     C41353  -2.358   2.101   9.571  0.0298 -0.0031 -0.3996
  314MOL0     C41354  -2.405   2.005   9.466  0.3523 -0.0273  0.0163
  314MOL0     C41355  -2.549   2.012   9.442  0.0255  0.1681  0.0326
  314MOL0     C41356  -2.611   1.889   9.376 -0.3639 -0.4744 -0.1843
  314MOL0     C41357  -2.768   1.888   9.366  0.0434 -0.0965 -0.6093
  314MOL0     C41358  -2.813   2.000   9.280  0.5831 -0.0626  0.7908
  314MOL0     C41359  -2.970   2.003   9.255 -0.3152 -0.2595 -0.4985
  314MOL0    Cl41360  -3.021   1.864   9.151 -0.2342  0.0929 -0.1945
  314MOL0     C41361  -2.001   2.321   9.549  0.2085 -0.0465  0.1962
  314MOL0     C41362  -1.924   2.436   9.522  0.0435  0.1192 -0.3199
  314MOL0     O41363  -1.719   2.485   9.232  0.5861 -0.1604  0.6910
  314MOL0     C41364  -1.532   2.672   9.175  1.5361 -0.0181  0.2395
  314MOL0     C41365  -1.441   2.773   9.148  0.0353  0.3096 -0.2620
  314MOL0     N41366  -0.910   2.921   9.009  0.4127 -0.1022  0.3051
  314MOL0     N41367  -0.877   2.945   8.888 -0.0257 -0.2060 -0.6876
  314MOL0     C41368   0.255   2.823   8.456  0.0560  0.1759  0.2244
  314MOL0     C41369   0.395   2.821   8.432 -0.2357  0.3844  0.5161
  314MOL0     C41370   0.846   2.931   8.469 -0.6557 -0.6730 -0.0919
  314MOL0     C41371   0.909   3.041   8.414 -0.6715  0.6840  0.3904
  314MOL0     C41372   1.047   3.049   8.400  0.5651 -0.1849  0.4735
  314MOL0     C41373   1.130   2.950   8.453 -0.2480  0.8182  1.8418
  314MOL0     O41374   1.270   2.935   8.459 -0.2989  0.4518 -0.0618
  314MOL0     C41375   1.360   3.021   8.392  0.0567 -0.8819  0.4680
  314MOL0     C41376   1.496   3.033   8.449 -1.0665 -0.4918 -0.4460
  314MOL0     C41377   1.587   3.109   8.351 -0.1708 -0.1123  0.0854
  314MOL0     C41378   1.575   3.257   8.362  0.3994  0.2898  0.7770
  314MOL0     C41379   1.595   3.315   8.492 -0.5326  0.3748  1.0080
  314MOL0     C41380   1.624   3.373   8.593  0.2555  1.0282  0.1682
  314MOL0     C41381   1.057   2.839   8.500 -0.2871  0.3864  0.4955
  314MOL0     C41382   0.920   2.833   8.517  0.4616 -0.0264 -0.4806
  314MOL0     H41383   0.490   2.924   8.746  1.9895  0.7945 -2.2540
  314MOL0     H41384   0.242   2.948   8.763 -1.3537 -0.0567 -0.6214
  314MOL0     H41385  -0.025   2.752   8.483 -0.4971 -0.5473  1.7342
  314MOL0     H41386   0.009   2.908   8.407 -0.4864  1.1266  0.8150
  314MOL0     H41387  -0.230   2.904   8.468 -0.7232  2.7343 -0.1028
  314MOL0     H41388  -0.141   3.038   8.544  1.5500  0.1100 -0.0738
  314MOL0     H41389  -0.144   2.930   8.751  1.5448 -0.8124 -1.0857
  314MOL0     H41390  -0.171   2.777   8.683 -0.6969 -0.3429  1.0626
  314MOL0     H41391  -0.408   2.850   8.608  0.6185  0.0969 -0.3847
  314MOL0     H41392  -0.383   2.813   8.782 -2.1722  0.3567 -0.5941
  314MOL0     H41393  -0.416   3.083   8.650  4.3096 -0.9577 -0.1039
  314MOL0     H41394  -0.359   3.072   8.814  0.2613  1.0184 -0.7023
  314MOL0     H41395  -0.562   2.959   8.890  1.1432 -0.4284  0.5050
  314MOL0     H41396  -0.612   2.928   8.722  0.2191 -2.4183  2.3690
  314MOL0     H41397  -0.614   3.190   8.878 -1.7088  0.2641  0.0762
  314MOL0     H41398  -0.586   3.195   8.698  2.5911 -1.2882  0.8288
  314MOL0     H41399  -0.806   3.074   8.673 -1.8134 -0.0177  1.1032
  314MOL0     H41400  -0.833   3.233   8.746 -4.3107 -2.5977 -4.3565
  314MOL0     H41401  -0.864   3.244   9.017 -0.2166  0.3558  0.5619
  314MOL0     H41402  -0.912   3.099   9.270  0.2849 -2.8900  1.7374
  314MOL0     H41403  -1.017   2.960   9.236  2.0618 -0.6605 -3.0908
  314MOL0     H41404  -1.073   3.259   9.177 -0.5013  0.0636  0.4820
  314MOL0     H41405  -1.148   3.149   9.289 -2.2359 -1.5218 -1.3234
  314MOL0     H41406  -1.275   3.203   9.089  0.4675 -0.2829  0.1920
  314MOL0     H41407  -1.152   3.133   8.984  0.7230  0.2637  0.3501
  314MOL0     H41408  -1.193   2.917   9.118 -1.9319 -0.2070  1.6800
  314MOL0     H41409  -1.314   2.962   9.004 -1.1898 -0.2392  0.5112
  314MOL0     H41410  -1.540   3.016   9.346  1.6796  1.4734 -1.4134
  314MOL0     H41411  -1.728   2.847   9.385  2.0270 -0.0926  1.4419
  314MOL0     H41412  -2.023   2.486   9.196  2.6692 -0.9549  0.4279
  314MOL0     H41413  -2.150   2.278   9.245 -0.7345  0.3121 -1.3592
  314MOL0     H41414  -2.169   2.159   9.665  1.1903  1.7735 -1.6608
  314MOL0     H41415  -2.170   2.001   9.613  0.1794 -0.2177  1.7427
  314MOL0     H41416  -2.382   2.207   9.556  1.2471  0.2822 -0.4790
  314MOL0     H41417  -2.403   2.080   9.669 -2.4450 -0.2924 -1.5177
  314MOL0     H41418  -2.380   1.906   9.505 -0.4363 -0.4065 -0.4377
  314MOL0     H41419  -2.357   2.024   9.369 -0.2582 -0.9217 -0.4667
  314MOL0     H41420  -2.588   2.036   9.541  4.2434 -0.0449  1.9691
  314MOL0     H41421  -2.566   2.100   9.379  0.8132 -1.1791 -2.1823
  314MOL0     H41422  -2.577   1.807   9.440 -2.4400 -0.1636  1.4130
  314MOL0     H41423  -2.564   1.876   9.277 -0.4318 -3.1133  0.0649
  314MOL0     H41424  -2.822   1.902   9.460 -1.6111 -0.8290 -1.3958
  314MOL0     H41425  -2.796   1.788   9.332 -1.1393 -0.2847  0.7946
  314MOL0     H41426  -2.786   2.092   9.333  1.4319 -0.9234  1.9108
  314MOL0     H41427  -2.768   1.985   9.181 -1.8501 -1.0381 -0.2343
  314MOL0     H41428  -2.993   2.104   9.220  0.6008 -0.4480 -1.6883
  314MOL0     H41429  -3.026   1.998   9.349  0.1178  0.2009 -0.2068
  314MOL0     H41430  -1.984   2.267   9.641  0.2630 -0.5477 -0.1021
  314MOL0     H41431  -1.848   2.477   9.587  1.0400  1.5174 -2.2319
  314MOL0     H41432  -1.503   2.579   9.126  2.3426  2.0603 -3.6399
  314MOL0     H41433  -1.362   2.748   9.078  1.8643  0.3878  1.6542
  314MOL0     H41434   0.196   2.773   8.379  0.7524 -0.4621  0.0915
  314MOL0     H41435   0.448   2.782   8.346 -0.7835  1.5764 -0.3820
  314MOL0     H41436   0.846   3.114   8.364 -1.6012 -0.4808 -0.1912
  314MOL0     H41437   1.067   3.145   8.354  0.1358  0.0005  0.6701
  314MOL0     H41438   1.318   3.122   8.394  1.8298  0.1224 -3.1817
  314MOL0     H41439   1.378   2.995   8.287  2.4057  3.1604 -0.3542
  314MOL0     H41440   1.509   3.078   8.548 -1.5197 -0.9079 -0.1968
  314MOL0     H41441   1.535   2.931   8.454 -1.6547 -0.7048 -0.1493
  314MOL0     H41442   1.561   3.093   8.246 -1.1851 -0.8328  0.4287
  314MOL0     H41443   1.690   3.075   8.365 -0.7550 -1.8662  0.3358
  314MOL0     H41444   1.652   3.288   8.290 -0.1947 -2.5534 -1.2835
  314MOL0     H41445   1.479   3.282   8.315 -0.5771 -1.9669  1.4171
  314MOL0     H41446   1.649   3.437   8.675 -1.9458  1.1231  0.8226
  314MOL0     H41447   1.125   2.762   8.535  0.7082  0.9794 -0.0706
  314MOL0     H41448   0.876   2.740   8.553 -1.6434  1.3741  0.7440
  315MOL0     O41449   2.219   1.432   3.247 -0.2750  0.4341 -0.1418
  315MOL0     C41450   2.253   1.544   3.210 -0.1923  0.4062 -0.4130
  315MOL0     O41451   2.235   1.596   3.086  0.1572  0.7750  0.4445
  315MOL0     C41452   2.129   1.547   3.010 -0.3267  1.2999 -0.0041
  315MOL0     C41453   2.153   1.536   2.875  0.1494  0.4888  1.2372
  315MOL0     C41454   2.060   1.488   2.784 -0.5438 -0.3705  0.3204
  315MOL0     C41455   1.936   1.453   2.825 -0.0557  0.5696  0.4651
  315MOL0     O41456   1.834   1.401   2.747 -0.9491  0.3079 -0.1393
  315MOL0     C41457   1.839   1.436   2.606  0.1986  0.4977 -0.4938
  315MOL0     C41458   1.911   1.339   2.510  0.9809 -0.0621 -0.5805
  315MOL0     C41459   1.841   1.198   2.511  0.1238 -0.0707  0.1277
  315MOL0     C41460   1.689   1.206   2.480  0.9944  0.4018  1.0274
  315MOL0     C41461   1.636   1.075   2.422 -0.0055  0.0929  0.7426
  315MOL0     C41462   1.482   1.060   2.433  0.4012 -0.2307  0.3325
  315MOL0     C41463   1.409   0.954   2.347 -0.3600  0.7598  0.0023
  315MOL0     C41464   1.493   0.821   2.330 -0.8308  0.0181  0.2498
  315MOL0     N41465   1.431   0.722   2.246 -0.0809  0.7959  0.6378
  315MOL0     C41466   1.442   0.728   2.116 -0.3232  0.2109 -0.2725
  315MOL0     C41467   1.345   0.647   2.062  0.0167  0.1589  0.0830
  315MOL0     C41468   1.331   0.618   1.912 -0.2388  0.7953  0.0354
  315MOL0     C41469   1.198   0.652   1.853  0.3941 -0.7591  0.2265
  315MOL0     C41470   1.180   0.601   1.714 -1.1640  0.2555  0.1667
  315MOL0     C41471   1.086   0.686   1.626 -0.2653  0.0071  0.0922
  315MOL0     O41472   0.951   0.702   1.674 -0.0214  0.2767 -0.5034
  315MOL0     C41473   0.863   0.757   1.592  0.4780  0.5171  0.3364
  315MOL0     C41474   0.755   0.821   1.658 -0.9940  0.6713  0.1084
  315MOL0     C41475   0.646   0.867   1.585  0.0860 -0.8697  0.2943
  315MOL0     C41476   0.629   0.842   1.452 -0.8064  0.2565  0.3448
  315MOL0     C41477   0.505   0.865   1.377  0.4090 -0.4913 -0.2465
  315MOL0     O41478   0.377   0.854   1.442 -0.5188  0.2198  0.3887
  315MOL0     C41479   0.258   0.847   1.376  0.3934 -0.5085 -0.1372
  315MOL0     C41480   0.144   0.913   1.428  0.5352 -0.1841  0.0012
  315MOL0     C41481   0.023   0.925   1.356  0.0518  0.9029 -0.5610
  315MOL0     C41482   0.006   0.861   1.233  0.1976  0.4860 -0.1884
  315MOL0     O41483  -0.106   0.873   1.153 -0.3487 -0.0324  0.2072
  315MOL0     C41484  -0.211   0.796   1.219 -0.4567 -0.8372 -0.0937
  315MOL0     C41485  -0.209   0.655   1.160  0.2619 -0.0677  0.3672
  315MOL0     C41486  -0.353   0.594   1.199 -0.0027 -0.1403  0.6697
  315MOL0     C41487  -0.446   0.596   1.084  0.3941  0.3021  0.0611
  315MOL0     C41488  -0.578   0.524   1.098 -0.1011  0.2912  0.4350
  315MOL0     C41489  -0.648   0.490   0.969 -0.0405  0.3600  0.3326
  315MOL0     C41490  -0.780   0.407   0.996  0.4977 -0.2041  0.0036
  315MOL0     C41491  -0.864   0.413   0.866 -0.4235 -0.3267  0.6951
  315MOL0    Cl41492  -1.022   0.337   0.912 -0.0327  0.3116 -0.1587
  315MOL0     C41493   0.121   0.791   1.181  0.1504  0.2254 -0.0640
  315MOL0     C41494   0.243   0.788   1.252  0.0585  0.1010 -0.0338
  315MOL0     O41495   0.520   0.883   1.255  0.2831  0.1957  0.0765
  315MOL0     C41496   0.734   0.778   1.388 -0.9227  0.9547  0.0399
  315MOL0     C41497   0.842   0.729   1.451 -0.1365  0.2816 -0.3310
  315MOL0     N41498   1.267   0.604   2.166 -0.4120  0.4666 -0.2243
  315MOL0     N41499   1.323   0.646   2.277 -0.0808 -0.3916  0.0121
  315MOL0     C41500   1.907   1.479   2.959 -0.4508 -0.8965 -0.5363
  315MOL0     C41501   2.001   1.522   3.055 -0.3741  0.6827  0.0913
  315MOL0     C41502   2.343   1.614   3.312 -0.0631  1.0066 -0.1842
  315MOL0     C41503   2.369   1.561   3.437 -0.2903  0.3771  0.2383
  315MOL0     C41504   2.439   1.627   3.535 -0.4584 -0.0636 -0.2358
  315MOL0     C41505   2.499   1.752   3.508 -0.1044 -0.3401 -0.3237
  315MOL0     O41506   2.558   1.822   3.612  0.5918  1.2086  0.6364
  315MOL0     C41507   2.684   1.768   3.652  0.5594  0.3090 -0.6997
  315MOL0     C41508   2.794   1.790   3.545 -0.1939 -0.8419 -0.1105
  315MOL0     C41509   2.926   1.767   3.596  0.3940  0.0567 -0.1318
  315MOL0     C41510   3.033   1.757   3.492  0.2302  0.4940 -0.2178
  315MOL0     C41511   3.087   1.878   3.432  0.6199  0.6030 -0.1788
  315MOL0     C41512   3.140   1.980   3.399 -0.3509 -0.4941  1.0596
  315MOL0     C41513   2.482   1.802   3.381  1.0236  0.1033  0.1700
  315MOL0     C41514   2.409   1.731   3.280 -0.4828  0.7430  0.2919
  315MOL0     H41515   2.252   1.559   2.835  0.3575 -0.1913  1.3355
  315MOL0     H41516   2.084   1.477   2.679  0.3638 -0.0600  0.4852
  315MOL0     H41517   1.887   1.533   2.589  4.1038 -0.2895  3.9372
  315MOL0     H41518   1.736   1.447   2.570  0.6613  1.1132 -1.6584
  315MOL0     H41519   2.019   1.333   2.526  0.9485 -1.0339 -0.6720
  315MOL0     H41520   1.906   1.384   2.411 -1.0054  0.0766 -0.4693
  315MOL0     H41521   1.865   1.155   2.608  3.2953 -0.9848 -0.9368
  315MOL0     H41522   1.876   1.135   2.429  0.5625 -1.9928  1.7225
  315MOL0     H41523   1.634   1.226   2.572 -4.1462  0.0260 -1.6113
  315MOL0     H41524   1.671   1.284   2.406 -0.1924 -0.1390  0.7287
  315MOL0     H41525   1.684   0.985   2.460 -0.7615 -1.6912 -2.2194
  315MOL0     H41526   1.658   1.074   2.314 -0.2562 -1.3018  0.6865
  315MOL0     H41527   1.440   1.159   2.411 -2.8747 -1.1415  1.8815
  315MOL0     H41528   1.452   1.041   2.537  0.2390  0.3777  0.4053
  315MOL0     H41529   1.308   0.936   2.384 -0.1335  0.2506  0.3901
  315MOL0     H41530   1.395   0.997   2.248 -1.6355  0.9989  0.2734
  315MOL0     H41531   1.507   0.772   2.427  3.1001 -0.1699 -0.2483
  315MOL0     H41532   1.596   0.837   2.297 -0.3458  1.0927  2.1310
  315MOL0     H41533   1.519   0.782   2.062  1.8485 -0.0017  2.4252
  315MOL0     H41534   1.349   0.510   1.905  1.8877  1.1266 -0.3626
  315MOL0     H41535   1.408   0.674   1.859 -0.1809  1.0321  0.3655
  315MOL0     H41536   1.206   0.761   1.859 -0.9156 -0.6041 -0.3497
  315MOL0     H41537   1.121   0.607   1.916 -0.7268 -1.3371 -1.4768
  315MOL0     H41538   1.273   0.591   1.657 -1.8570  0.9996 -1.1239
  315MOL0     H41539   1.147   0.497   1.724  3.1999 -1.4890 -1.2488
  315MOL0     H41540   1.080   0.629   1.533 -0.1378 -2.4039  1.4702
  315MOL0     H41541   1.123   0.786   1.605 -1.8620  1.4005  3.2448
  315MOL0     H41542   0.766   0.841   1.764 -0.1488 -1.8794  0.5809
  315MOL0     H41543   0.571   0.925   1.638  1.6914  0.1861  1.4931
  315MOL0     H41544   0.155   0.967   1.522 -0.1258  1.6571 -0.9337
  315MOL0     H41545  -0.061   0.979   1.399 -0.6752  0.5799 -1.5216
  315MOL0     H41546  -0.296   0.856   1.186 -2.1424 -1.4896  2.6799
  315MOL0     H41547  -0.207   0.785   1.328 -1.9903  1.9878  0.3561
  315MOL0     H41548  -0.130   0.593   1.203 -1.4841 -1.7942  1.2317
  315MOL0     H41549  -0.208   0.656   1.050 -0.9650 -1.0566  0.3234
  315MOL0     H41550  -0.391   0.651   1.285 -0.6362  1.5945 -0.7062
  315MOL0     H41551  -0.317   0.495   1.227 -1.8119 -1.4120 -1.2632
  315MOL0     H41552  -0.458   0.696   1.044  1.7712 -0.2970 -1.9895
  315MOL0     H41553  -0.399   0.543   1.001 -1.3032 -0.2703 -0.5811
  315MOL0     H41554  -0.646   0.587   1.157 -1.4803 -0.8135  0.0506
  315MOL0     H41555  -0.568   0.429   1.152 -0.5949  0.5015  0.9080
  315MOL0     H41556  -0.588   0.439   0.893 -0.4533  0.8770 -0.3540
  315MOL0     H41557  -0.680   0.578   0.913  0.1664 -2.0660 -4.0676
  315MOL0     H41558  -0.749   0.304   1.015  0.2114 -0.2136  0.4515
  315MOL0     H41559  -0.828   0.432   1.091 -0.1021  0.2977 -0.4230
  315MOL0     H41560  -0.796   0.374   0.790 -1.8497  2.5184 -2.2752
  315MOL0     H41561  -0.889   0.516   0.838  0.5967 -0.7883 -2.3020
  315MOL0     H41562   0.117   0.732   1.090 -1.1544 -0.2804  0.3106
  315MOL0     H41563   0.330   0.732   1.219 -0.0885  0.3620 -0.9090
  315MOL0     H41564   0.727   0.748   1.284 -0.6213 -4.6248  1.3152
  315MOL0     H41565   0.906   0.658   1.400 -0.6821 -0.5986  0.1818
  315MOL0     H41566   1.810   1.449   2.996  0.3089 -2.0068  0.6459
  315MOL0     H41567   1.976   1.540   3.159 -0.8540  3.6655 -0.4455
  315MOL0     H41568   2.344   1.458   3.463  1.2663  0.3348  1.7141
  315MOL0     H41569   2.443   1.576   3.631 -2.2666  1.0017  0.4609
  315MOL0     H41570   2.682   1.664   3.685  4.1834 -0.1498 -1.4806
  315MOL0     H41571   2.709   1.825   3.742 -0.5139 -1.5020  0.8236
  315MOL0     H41572   2.772   1.736   3.452 -0.9172  0.3811 -0.6866
  315MOL0     H41573   2.784   1.896   3.521 -1.9422 -1.3728 -2.0545
  315MOL0     H41574   2.912   1.673   3.649 -2.5735  0.0599 -0.7330
  315MOL0     H41575   2.954   1.850   3.662 -0.4595  0.5714 -0.4064
  315MOL0     H41576   3.119   1.704   3.535  2.1935  2.6367 -1.2629
  315MOL0     H41577   2.998   1.699   3.406  0.7878  1.0217 -0.8131
  315MOL0     H41578   3.200   2.061   3.362  1.0816 -2.2173 -0.5661
  315MOL0     H41579   2.537   1.890   3.350 -1.2057  0.3624 -3.7712
  315MOL0     H41580   2.405   1.777   3.181  1.6993  1.0975  0.3136
  316MOL0     O41581   7.759   3.844   6.561 -0.1118  0.4790  0.3118
  316MOL0     C41582   7.749   3.730   6.526 -0.0647  0.4758 -0.6700
  316MOL0     O41583   7.631   3.658   6.503  0.6672 -0.3506 -0.7051
  316MOL0     C41584   7.516   3.721   6.520  0.6553  0.0727  0.2759
  316MOL0     C41585   7.457   3.736   6.646 -0.6818 -0.4569  0.5362
  316MOL0     C41586   7.333   3.793   6.655  0.7916  1.0919 -0.1461
  316MOL0     C41587   7.268   3.837   6.538 -0.1656 -0.2287 -0.4985
  316MOL0     O41588   7.140   3.888   6.537  0.2946  0.2662  0.5231
  316MOL0     C41589   7.036   3.790   6.557  0.0744  0.0358  0.4523
  316MOL0     C41590   6.921   3.865   6.624 -0.2130  0.5294  0.9830
  316MOL0     C41591   6.798   3.775   6.662  0.5539  0.4570  0.0953
  316MOL0     C41592   6.687   3.854   6.731 -0.0436 -0.2782 -0.0819
  316MOL0     C41593   6.545   3.792   6.696 -0.9175  0.6023  0.2496
  316MOL0     C41594   6.432   3.868   6.758  0.8388 -0.1211 -0.3085
  316MOL0     C41595   6.302   3.796   6.744 -0.5037 -0.4686  0.6570
  316MOL0     C41596   6.182   3.876   6.785 -0.2763 -0.7251 -0.1023
  316MOL0     N41597   6.050   3.824   6.745  0.1012  0.0449 -0.0699
  316MOL0     C41598   5.962   3.882   6.661 -0.2842 -0.6032  0.2902
  316MOL0     C41599   5.847   3.814   6.682 -0.1072 -0.0207 -0.3910
  316MOL0     C41600   5.708   3.836   6.619 -0.4209  0.8237  0.3496
  316MOL0     C41601   5.616   3.919   6.715  0.5407 -0.7240 -0.4100
  316MOL0     C41602   5.483   3.952   6.639  0.6051  0.2787  0.4836
  316MOL0     C41603   5.372   4.025   6.718 -0.3331 -0.1743 -0.4316
  316MOL0     O41604   5.331   3.935   6.819 -0.2759 -0.3566  0.1802
  316MOL0     C41605   5.224   3.960   6.904 -0.7678 -0.2947  0.2785
  316MOL0     C41606   5.182   3.852   6.989 -0.2998 -0.1990  0.0761
  316MOL0     C41607   5.063   3.864   7.067  0.8268  0.5026 -0.3000
  316MOL0     C41608   4.992   3.986   7.065 -0.1128 -0.2299 -0.0516
  316MOL0     C41609   4.867   3.983   7.147  0.6873 -0.4287 -0.1653
  316MOL0     O41610   4.788   4.100   7.135 -0.5334 -0.5884  0.4237
  316MOL0     C41611   4.682   4.103   7.214 -0.1476  1.2177  0.4172
  316MOL0     C41612   4.553   4.053   7.177  0.6494 -0.3261 -0.3897
  316MOL0     C41613   4.440   4.078   7.258  0.3987  0.1783  0.1758
  316MOL0     C41614   4.456   4.152   7.377 -0.4068  0.6156 -0.5593
  316MOL0     O41615   4.361   4.196   7.462 -0.1209  0.0659  0.0977
  316MOL0     C41616   4.229   4.154   7.432  0.5385 -0.4680  0.0293
  316MOL0     C41617   4.130   4.211   7.539  0.5929 -1.1504 -0.8815
  316MOL0     C41618   4.165   4.209   7.681 -0.2534  0.1822  0.4768
  316MOL0     C41619   4.074   4.284   7.769 -0.4578  0.0723 -1.1314
  316MOL0     C41620   4.100   4.241   7.912 -0.2826  0.0493 -1.8241
  316MOL0     C41621   4.005   4.324   8.004  0.2370 -0.3938 -0.6694
  316MOL0     C41622   3.999   4.266   8.147  0.3762  0.0642  0.3159
  316MOL0     C41623   3.889   4.337   8.229  0.0915 -0.4324 -0.1128
  316MOL0    Cl41624   3.744   4.239   8.217 -0.2284 -0.0494  0.0356
  316MOL0     C41625   4.586   4.203   7.412  0.6668  0.5510 -0.2169
  316MOL0     C41626   4.694   4.180   7.330 -0.0906  0.7911  0.2788
  316MOL0     O41627   4.832   3.876   7.199 -0.6527  0.3935  0.4192
  316MOL0     C41628   5.045   4.099   7.002 -0.3370  0.5803 -1.0964
  316MOL0     C41629   5.166   4.081   6.931 -0.1376  0.1528 -0.6206
  316MOL0     N41630   5.857   3.726   6.779 -1.3307  1.1379  0.3527
  316MOL0     N41631   5.986   3.726   6.813  0.3063 -0.1496 -0.0779
  316MOL0     C41632   7.331   3.830   6.415  0.7665 -0.1238  0.2903
  316MOL0     C41633   7.448   3.760   6.401 -0.0387  0.2590 -0.6692
  316MOL0     C41634   7.875   3.653   6.487 -0.3848 -0.6224 -0.2132
  316MOL0     C41635   7.998   3.710   6.473  0.0973 -0.0853 -0.2921
  316MOL0     C41636   8.113   3.629   6.430 -0.6372  0.4500 -1.1082
  316MOL0     C41637   8.102   3.494   6.407 -0.3558  0.0921  0.4119
  316MOL0     O41638   8.202   3.411   6.354 -0.0505  0.3447  0.2457
  316MOL0     C41639   8.308   3.465   6.272  0.5295  0.3889  0.5310
  316MOL0     C41640   8.259   3.490   6.127 -0.8267  0.3246  0.0410
  316MOL0     C41641   8.363   3.550   6.020 -0.5410  0.9225 -0.3871
  316MOL0     C41642   8.460   3.445   5.954 -0.2856  0.4756  0.6420
  316MOL0     C41643   8.506   3.470   5.816  0.6523  0.6966  0.1422
  316MOL0     C41644   8.541   3.497   5.704  0.8229  0.8391  0.1679
  316MOL0     C41645   7.973   3.437   6.420 -0.2573 -0.0888  0.5120
  316MOL0     C41646   7.861   3.516   6.454 -0.0207  0.0325  0.2709
  316MOL0     H41647   7.519   3.712   6.732  0.1780  3.2881  1.1192
  316MOL0     H41648   7.291   3.804   6.755  3.2959 -1.5937  1.3671
  316MOL0     H41649   7.063   3.697   6.608 -0.0091 -1.5936 -2.2614
  316MOL0     H41650   7.011   3.745   6.460 -0.5371 -1.7937  1.4052
  316MOL0     H41651   6.893   3.951   6.563  1.7365  0.6631  0.2218
  316MOL0     H41652   6.951   3.901   6.723 -1.3718 -1.3078  2.0805
  316MOL0     H41653   6.830   3.691   6.723  0.8276 -0.1694 -0.8953
  316MOL0     H41654   6.764   3.729   6.569 -0.9587  1.1311  0.2771
  316MOL0     H41655   6.700   3.844   6.840 -0.2080 -1.2452 -0.1499
  316MOL0     H41656   6.680   3.959   6.700  0.3394 -0.4881 -0.8988
  316MOL0     H41657   6.541   3.685   6.720 -0.5500  0.8873  1.6560
  316MOL0     H41658   6.534   3.810   6.588 -1.4201  2.3483  0.5590
  316MOL0     H41659   6.427   3.970   6.718 -1.9423 -0.6614 -1.5706
  316MOL0     H41660   6.457   3.879   6.864  1.9981 -0.2289 -0.5596
  316MOL0     H41661   6.301   3.754   6.643 -1.4765 -2.9019  1.5906
  316MOL0     H41662   6.287   3.703   6.799 -0.3263 -1.6181 -1.1365
  316MOL0     H41663   6.187   3.983   6.761 -1.8793  0.0047  2.4125
  316MOL0     H41664   6.185   3.887   6.893 -0.4297 -3.4462  0.2528
  316MOL0     H41665   5.973   3.965   6.592  2.9918  0.1775  1.5939
  316MOL0     H41666   5.666   3.740   6.586  2.5497 -1.3272  2.3303
  316MOL0     H41667   5.721   3.901   6.532 -0.6804  0.7665  0.2648
  316MOL0     H41668   5.661   4.017   6.736  1.5132 -1.6316  2.1521
  316MOL0     H41669   5.597   3.874   6.813 -1.1365 -1.4171 -1.0154
  316MOL0     H41670   5.510   4.012   6.551 -0.6581  0.2753  0.0788
  316MOL0     H41671   5.453   3.856   6.597 -0.3734  0.1087  1.5373
  316MOL0     H41672   5.298   4.059   6.645  0.6093  0.4878 -1.0969
  316MOL0     H41673   5.412   4.112   6.771 -0.9769 -0.1070 -0.0510
  316MOL0     H41674   5.234   3.756   6.986  0.2798  0.0824  0.7339
  316MOL0     H41675   5.041   3.779   7.131  0.8688 -0.2957 -1.3137
  316MOL0     H41676   4.543   4.004   7.080  2.8780  0.0339 -0.8397
  316MOL0     H41677   4.347   4.029   7.230 -0.7369  0.9263  2.3626
  316MOL0     H41678   4.221   4.045   7.441 -2.1844 -0.2394  1.4207
  316MOL0     H41679   4.192   4.188   7.335 -1.1742 -1.5098  0.2709
  316MOL0     H41680   4.035   4.157   7.528 -0.4038  0.5361 -0.9724
  316MOL0     H41681   4.115   4.319   7.529  3.2790 -0.5479  0.7123
  316MOL0     H41682   4.266   4.250   7.693  0.4290 -0.5712 -1.9804
  316MOL0     H41683   4.150   4.105   7.710 -3.5073  0.4955  0.2473
  316MOL0     H41684   4.082   4.392   7.748  0.3301 -0.4578 -4.0586
  316MOL0     H41685   3.973   4.245   7.753  0.0336 -3.0771  2.3117
  316MOL0     H41686   4.202   4.259   7.949 -0.8502 -0.4503  0.0654
  316MOL0     H41687   4.069   4.138   7.928 -0.6207  0.5580  1.6862
  316MOL0     H41688   3.902   4.325   7.965 -0.1989  0.2204  0.4532
  316MOL0     H41689   4.028   4.431   8.004  0.3411 -0.3779 -2.7968
  316MOL0     H41690   3.968   4.161   8.145 -1.5509  0.5969  0.0185
  316MOL0     H41691   4.099   4.272   8.192  1.4570  2.6636 -2.1333
  316MOL0     H41692   3.866   4.436   8.190  0.8682  0.2505  1.0949
  316MOL0     H41693   3.916   4.350   8.334 -2.4278  2.0465  0.3510
  316MOL0     H41694   4.582   4.271   7.497 -0.1413  0.5273 -0.2317
  316MOL0     H41695   4.785   4.227   7.365  0.6896 -2.3363  2.9964
  316MOL0     H41696   5.012   4.200   7.025  2.4661  1.6060 -1.1850
  316MOL0     H41697   5.205   4.175   6.892 -1.5070  0.9074 -0.2389
  316MOL0     H41698   7.295   3.861   6.318 -0.0704 -1.1678  0.2469
  316MOL0     H41699   7.480   3.756   6.298 -0.6564 -0.2849 -0.8495
  316MOL0     H41700   8.019   3.813   6.502 -0.6645 -0.1985  0.7488
  316MOL0     H41701   8.213   3.671   6.433 -0.6895  0.5444  0.5439
  316MOL0     H41702   8.387   3.389   6.278 -0.4685 -0.9267 -1.5931
  316MOL0     H41703   8.346   3.562   6.304  0.0568  1.2270 -1.3057
  316MOL0     H41704   8.218   3.394   6.094 -1.8989  0.3958  1.1100
  316MOL0     H41705   8.181   3.565   6.125  0.4582  1.8783  2.7179
  316MOL0     H41706   8.436   3.613   6.073  2.5865 -1.8930 -1.0041
  316MOL0     H41707   8.311   3.620   5.953 -1.1655 -0.6215 -1.5591
  316MOL0     H41708   8.551   3.445   6.015 -0.8243  0.8562  1.4650
  316MOL0     H41709   8.409   3.350   5.971 -1.6924  0.8897 -0.9970
  316MOL0     H41710   8.579   3.520   5.607  2.5706  0.3088  0.6878
  316MOL0     H41711   7.952   3.337   6.384 -0.7583  1.4861 -4.2827
  316MOL0     H41712   7.763   3.471   6.461 -0.0078 -0.0107  0.1710
  317MOL0     O41713   7.910  10.494   0.814  0.0834 -0.1939 -0.6191
  317MOL0     C41714   7.928  10.601   0.746 -0.1213 -0.1878  0.4132
  317MOL0     O41715   7.856  10.712   0.756 -0.0321  0.2367  0.5142
  317MOL0     C41716   7.764  10.719   0.858 -0.6743 -0.8291 -0.1600
  317MOL0     C41717   7.638  10.774   0.832 -0.1734  0.3792 -0.6999
  317MOL0     C41718   7.546  10.806   0.938  0.2104  0.3893  0.9254
  317MOL0     C41719   7.570  10.769   1.072 -0.8983 -0.5652  0.4985
  317MOL0     O41720   7.495  10.805   1.188  0.4234 -0.7314  0.2945
  317MOL0     C41721   7.374  10.879   1.157 -0.6860 -0.0825 -0.4213
  317MOL0     C41722   7.299  10.901   1.287  0.2090  0.5181 -0.8139
  317MOL0     C41723   7.146  10.917   1.277 -0.3618  0.2296  0.0481
  317MOL0     C41724   7.090  10.776   1.279  0.3981 -0.5742  0.7619
  317MOL0     C41725   6.930  10.766   1.254 -0.5196  0.0071 -0.9345
  317MOL0     C41726   6.866  10.788   1.391  0.2726 -0.0313  0.1425
  317MOL0     C41727   6.720  10.742   1.386  0.6696  0.1699  0.3716
  317MOL0     C41728   6.641  10.818   1.496  0.4039 -0.3305  0.1262
  317MOL0     N41729   6.508  10.755   1.487  0.8682 -0.1320  0.1847
  317MOL0     C41730   6.426  10.758   1.375  0.4195  0.6213 -0.5816
  317MOL0     C41731   6.312  10.686   1.417 -0.3909 -0.6700  0.2729
  317MOL0     C41732   6.175  10.685   1.363 -0.3123 -0.5082  0.2699
  317MOL0     C41733   6.074  10.733   1.462 -0.7280  0.2958 -0.1646
  317MOL0     C41734   5.942  10.766   1.390 -0.7988  0.3727  1.1216
  317MOL0     C41735   5.829  10.794   1.486  0.0484  0.1090 -0.5425
  317MOL0     O41736   5.714  10.817   1.403  0.1449  0.4368 -0.4076
  317MOL0     C41737   5.595  10.824   1.468 -0.5523  0.1471  0.0734
  317MOL0     C41738   5.479  10.779   1.403 -0.8027  0.7120 -0.6522
  317MOL0     C41739   5.349  10.770   1.457  0.3805 -0.3112  0.3346
  317MOL0     C41740   5.335  10.824   1.583 -0.0952 -0.6476 -0.4265
  317MOL0     C41741   5.205  10.838   1.652 -0.8142 -0.1323  0.6989
  317MOL0     O41742   5.108  10.789   1.571  0.2131 -0.6504 -0.0404
  317MOL0     C41743   4.979  10.797   1.613 -0.7788  0.0338  0.1658
  317MOL0     C41744   4.915  10.918   1.647 -0.4409  0.0123 -0.8480
  317MOL0     C41745   4.780  10.917   1.673  0.0194  0.2231 -1.3401
  317MOL0     C41746   4.710  10.789   1.692 -0.4600 -0.8196 -0.3703
  317MOL0     O41747   4.580  10.807   1.722 -0.6752  0.6556  0.2725
  317MOL0     C41748   4.488  10.703   1.697  0.6491  0.3081  0.7260
  317MOL0     C41749   4.347  10.761   1.674  0.1451  0.4614 -0.4882
  317MOL0     C41750   4.328  10.880   1.581 -0.3660 -0.1914  0.3781
  317MOL0     C41751   4.353  10.842   1.437  0.2130  0.3203  0.2327
  317MOL0     C41752   4.432  10.946   1.348 -0.2314 -0.3311 -0.4608
  317MOL0     C41753   4.573  10.970   1.398  0.6104 -0.5703  1.7540
  317MOL0     C41754   4.641  11.084   1.314  0.6792  0.5632  0.0633
  317MOL0     C41755   4.787  11.097   1.361 -0.0873  0.5026 -0.5092
  317MOL0    Cl41756   4.898  10.971   1.310  0.3385  0.0998  0.1139
  317MOL0     C41757   4.785  10.672   1.660 -1.3893  0.3199 -0.9984
  317MOL0     C41758   4.910  10.672   1.621  0.3443 -0.4282  0.5881
  317MOL0     O41759   5.199  10.877   1.762  0.7718 -0.4267  0.1636
  317MOL0     C41760   5.449  10.888   1.648  0.2341  0.5935 -0.5469
  317MOL0     C41761   5.577  10.874   1.591 -0.1442 -0.2419 -0.3415
  317MOL0     N41762   6.337  10.641   1.542 -1.0190 -0.5430  0.2178
  317MOL0     N41763   6.451  10.683   1.586  0.2498  0.7963  0.3755
  317MOL0     C41764   7.705  10.732   1.100 -0.0271 -0.0482 -0.8623
  317MOL0     C41765   7.791  10.698   0.993  0.1325 -0.0221 -0.1313
  317MOL0     C41766   8.039  10.589   0.651  0.2837 -0.2914 -0.5120
  317MOL0     C41767   8.096  10.696   0.594  0.0917  0.1974  0.2833
  317MOL0     C41768   8.203  10.686   0.507 -0.1187 -0.8160  0.5778
  317MOL0     C41769   8.254  10.561   0.464  0.5712  0.0270 -0.7007
  317MOL0     O41770   8.353  10.569   0.381 -1.0359  1.2000  0.5626
  317MOL0     C41771   8.430  10.448   0.354  0.2276  0.5517  0.6790
  317MOL0     C41772   8.581  10.457   0.378  0.1431  0.5843 -0.5950
  317MOL0     C41773   8.637  10.378   0.502 -0.2894  0.0748 -0.2049
  317MOL0     C41774   8.550  10.379   0.631 -0.1499 -0.5463  0.8979
  317MOL0     C41775   8.626  10.330   0.742 -0.1891 -0.6312  0.6281
  317MOL0     C41776   8.693  10.288   0.834 -0.2198  0.2735 -0.1532
  317MOL0     C41777   8.190  10.443   0.524 -1.2484 -0.5250 -0.3264
  317MOL0     C41778   8.081  10.466   0.615  0.6334 -0.7426  0.7767
  317MOL0     H41779   7.616  10.796   0.728  0.8389 -1.0977 -1.2451
  317MOL0     H41780   7.451  10.850   0.910 -1.4221 -3.1953  0.2370
  317MOL0     H41781   7.312  10.825   1.085 -2.5089 -2.3499  2.6262
  317MOL0     H41782   7.393  10.977   1.113  1.2459 -0.3858 -0.3406
  317MOL0     H41783   7.342  10.997   1.317  0.7762 -0.1135  0.5000
  317MOL0     H41784   7.316  10.811   1.347  1.8073 -0.5347 -2.7109
  317MOL0     H41785   7.122  10.970   1.184 -0.3856  2.7238  1.3669
  317MOL0     H41786   7.110  10.985   1.355  1.5310  1.6704 -0.2633
  317MOL0     H41787   7.133  10.718   1.196 -0.9810  1.1683 -1.2981
  317MOL0     H41788   7.116  10.734   1.376  0.3724  2.7253  2.3046
  317MOL0     H41789   6.918  10.658   1.236 -0.4986 -0.7316  2.7004
  317MOL0     H41790   6.879  10.841   1.193 -2.3639  0.5168  1.0948
  317MOL0     H41791   6.872  10.890   1.430 -1.1590  0.3726 -0.6328
  317MOL0     H41792   6.923  10.721   1.457 -0.3749 -2.5804 -1.6870
  317MOL0     H41793   6.677  10.769   1.289  1.8228  0.7936  0.0225
  317MOL0     H41794   6.709  10.633   1.394  0.0908  0.3380  2.2724
  317MOL0     H41795   6.644  10.925   1.478 -0.2336 -0.3488 -0.1321
  317MOL0     H41796   6.681  10.809   1.597  1.7400 -1.9229 -0.4911
  317MOL0     H41797   6.449  10.816   1.286  0.0123  3.9223  1.3074
  317MOL0     H41798   6.147  10.584   1.331 -1.5600  0.9559 -3.9461
  317MOL0     H41799   6.163  10.738   1.268  1.7607 -0.7694 -0.1861
  317MOL0     H41800   6.117  10.823   1.509 -1.2717 -1.1394  3.4441
  317MOL0     H41801   6.056  10.655   1.536 -0.6813  2.1653  1.9278
  317MOL0     H41802   5.944  10.840   1.310  1.4160 -2.0433 -1.2337
  317MOL0     H41803   5.906  10.676   1.340 -1.7389  1.4301 -0.1981
  317MOL0     H41804   5.851  10.880   1.550  2.2600 -1.8092  1.4521
  317MOL0     H41805   5.797  10.713   1.552 -1.4037  1.4075  0.4456
  317MOL0     H41806   5.486  10.751   1.298  0.9370 -0.4153 -0.2771
  317MOL0     H41807   5.270  10.739   1.389 -0.6779 -0.9430  1.7830
  317MOL0     H41808   4.973  11.009   1.633 -0.4941  0.1616 -0.1242
  317MOL0     H41809   4.740  11.011   1.710 -0.2431 -1.1612  2.3069
  317MOL0     H41810   4.482  10.634   1.783 -1.6171 -0.2494  0.2056
  317MOL0     H41811   4.508  10.651   1.603  2.4047 -0.7811  1.6343
  317MOL0     H41812   4.320  10.803   1.771  0.7140  0.7736 -0.4581
  317MOL0     H41813   4.280  10.678   1.651 -1.4982  1.2876  1.0863
  317MOL0     H41814   4.397  10.958   1.616 -0.2288 -0.0229 -0.2547
  317MOL0     H41815   4.226  10.917   1.593 -0.3919 -0.6380  1.7712
  317MOL0     H41816   4.402  10.745   1.431 -0.3970  0.0090  0.2108
  317MOL0     H41817   4.261  10.812   1.386  0.5087 -3.8938  1.8193
  317MOL0     H41818   4.370  11.034   1.330  1.2220  0.0473 -4.4740
  317MOL0     H41819   4.446  10.898   1.251 -0.5887 -0.6876 -0.3421
  317MOL0     H41820   4.641  10.884   1.389 -1.9500 -2.4590 -1.9095
  317MOL0     H41821   4.568  10.999   1.504  1.8962  1.0667  1.4147
  317MOL0     H41822   4.644  11.067   1.206  0.3434 -0.9959  0.2782
  317MOL0     H41823   4.588  11.176   1.337  1.2806  0.5348  1.6657
  317MOL0     H41824   4.800  11.098   1.469  1.7243  1.2927 -0.6912
  317MOL0     H41825   4.829  11.187   1.316  1.5359  0.4454  0.8193
  317MOL0     H41826   4.741  10.572   1.654  0.9583 -1.1067  2.7507
  317MOL0     H41827   4.970  10.585   1.598  0.3193 -0.4499  0.6043
  317MOL0     H41828   5.440  10.923   1.750  1.7147  3.9317 -1.4422
  317MOL0     H41829   5.655  10.921   1.649 -0.1453 -1.6085  0.8243
  317MOL0     H41830   7.745  10.717   1.199  1.7098  0.6922 -1.4164
  317MOL0     H41831   7.890  10.668   1.024  0.0248 -0.4145 -0.1693
  317MOL0     H41832   8.070  10.797   0.626  2.0419  0.6469  0.5523
  317MOL0     H41833   8.249  10.776   0.468  2.0829 -1.7890  0.7973
  317MOL0     H41834   8.434  10.436   0.245  4.2603 -0.8243  0.7977
  317MOL0     H41835   8.399  10.356   0.404  2.6971  0.5609  2.3795
  317MOL0     H41836   8.629  10.416   0.288  0.2852 -1.6226  0.4266
  317MOL0     H41837   8.613  10.561   0.384 -0.0579  0.7494 -2.0470
  317MOL0     H41838   8.731  10.430   0.520 -0.1500 -0.1419 -0.2902
  317MOL0     H41839   8.668  10.276   0.475 -0.8529  0.2282 -1.5289
  317MOL0     H41840   8.517  10.480   0.656  1.0439  0.1124 -0.0652
  317MOL0     H41841   8.465  10.310   0.629 -1.5610  1.0948  1.3026
  317MOL0     H41842   8.764  10.256   0.908  0.4773  0.4141 -0.7455
  317MOL0     H41843   8.216  10.340   0.504 -1.8504 -0.9379  0.9665
  317MOL0     H41844   8.037  10.375   0.654 -2.8335 -0.6380 -2.3231
  318MOL0     O41845   0.014   5.212   9.112 -0.3030  0.6129 -0.5198
  318MOL0     C41846   0.057   5.294   9.189  0.3310 -0.9954 -0.9713
  318MOL0     O41847  -0.013   5.408   9.224  0.1734 -0.5656 -0.2595
  318MOL0     C41848  -0.142   5.417   9.176 -0.0016  0.4429 -0.5525
  318MOL0     C41849  -0.240   5.414   9.272 -0.4479  0.3627  0.3267
  318MOL0     C41850  -0.379   5.437   9.235  0.1221 -0.2775 -1.2137
  318MOL0     C41851  -0.416   5.469   9.104 -0.0085 -0.8072  0.7913
  318MOL0     O41852  -0.550   5.481   9.056 -0.0206 -0.2434 -0.7287
  318MOL0     C41853  -0.664   5.469   9.148 -0.2623 -0.4064 -0.4048
  318MOL0     C41854  -0.699   5.615   9.187 -0.0169 -0.0085  0.6370
  318MOL0     C41855  -0.848   5.648   9.164  0.1617  0.0570  0.2483
  318MOL0     C41856  -0.880   5.685   9.023 -0.6573 -0.2969  0.8653
  318MOL0     C41857  -1.026   5.712   9.003  0.9881  0.1825  0.1743
  318MOL0     C41858  -1.081   5.675   8.862  0.0336 -0.4795 -0.1954
  318MOL0     C41859  -1.233   5.693   8.848 -0.0479  0.0455 -0.1411
  318MOL0     C41860  -1.283   5.684   8.699  0.2299 -0.1903 -0.0295
  318MOL0     N41861  -1.431   5.699   8.701 -0.6818  0.1015 -0.0135
  318MOL0     C41862  -1.523   5.600   8.675  0.4940  0.3877  0.4845
  318MOL0     C41863  -1.650   5.658   8.685  0.5133  0.6071  0.3116
  318MOL0     C41864  -1.784   5.601   8.654 -0.1673  0.2327 -0.5017
  318MOL0     C41865  -1.827   5.595   8.507 -0.4147  0.2789 -0.1708
  318MOL0     C41866  -1.756   5.472   8.432  0.2908  0.5837  0.5295
  318MOL0     C41867  -1.729   5.484   8.276 -0.1022  0.1005  0.0038
  318MOL0     O41868  -1.654   5.365   8.236 -0.0940 -0.2157  0.3217
  318MOL0     C41869  -1.509   5.379   8.217  0.4993 -0.1570  0.6721
  318MOL0     C41870  -1.444   5.299   8.130  0.5374 -0.3979  0.5219
  318MOL0     C41871  -1.310   5.296   8.122 -0.1359  0.1593  0.3173
  318MOL0     C41872  -1.237   5.392   8.187 -0.0661 -0.8277 -0.3278
  318MOL0     C41873  -1.094   5.403   8.183 -0.5106 -0.3144  0.6311
  318MOL0     O41874  -1.029   5.500   8.264  0.1688  0.9816  0.3956
  318MOL0     C41875  -0.898   5.499   8.299  0.7862  0.1340  0.2773
  318MOL0     C41876  -0.799   5.400   8.268  0.0303 -0.4628 -0.1488
  318MOL0     C41877  -0.664   5.406   8.306 -0.7373 -0.1293 -0.3442
  318MOL0     C41878  -0.628   5.515   8.394 -0.4187  0.7515 -0.2260
  318MOL0     O41879  -0.498   5.536   8.423 -0.0098 -0.3313 -0.1792
  318MOL0     C41880  -0.441   5.456   8.526 -0.0256 -0.5800 -0.2864
  318MOL0     C41881  -0.293   5.425   8.505 -0.6198  0.6856  0.6265
  318MOL0     C41882  -0.225   5.362   8.625 -0.4635 -0.4531 -0.7018
  318MOL0     C41883  -0.085   5.325   8.588 -0.4216 -0.0847 -0.7050
  318MOL0     C41884   0.000   5.315   8.708 -0.9499  0.3483 -0.7764
  318MOL0     C41885   0.146   5.271   8.665  0.1897 -0.6912  0.0085
  318MOL0     C41886   0.229   5.230   8.784 -0.5981  0.4610  0.4551
  318MOL0     C41887   0.342   5.125   8.748 -0.0969 -0.1062  0.2633
  318MOL0    Cl41888   0.381   5.039   8.889 -0.1904  0.0175 -0.0484
  318MOL0     C41889  -0.725   5.605   8.436  0.0870 -1.0902 -0.3901
  318MOL0     C41890  -0.856   5.600   8.380  0.6744 -0.7465  0.7604
  318MOL0     O41891  -1.038   5.333   8.096  0.4956  0.0095 -0.5163
  318MOL0     C41892  -1.302   5.486   8.268  0.2255 -0.0353  0.5945
  318MOL0     C41893  -1.436   5.480   8.284  0.5517  0.1872 -0.4522
  318MOL0     N41894  -1.626   5.787   8.718  0.1139 -0.7322  1.3458
  318MOL0     N41895  -1.498   5.808   8.737 -0.3578 -0.6473 -0.3691
  318MOL0     C41896  -0.314   5.470   9.008 -0.4132 -0.1180  0.0582
  318MOL0     C41897  -0.181   5.453   9.051  0.1398 -1.1913 -0.1332
  318MOL0     C41898   0.199   5.293   9.235  0.7915 -0.7415 -0.8851
  318MOL0     C41899   0.287   5.201   9.178 -0.0782  0.3637 -0.1587
  318MOL0     C41900   0.423   5.214   9.216 -0.3287 -0.0396  0.4723
  318MOL0     C41901   0.468   5.306   9.315  0.0302 -0.9770 -0.2187
  318MOL0     O41902   0.595   5.306   9.357  0.0070 -0.5501 -0.4709
  318MOL0     C41903   0.638   5.394   9.458 -0.4048 -0.4756  0.9694
  318MOL0     C41904   0.785   5.352   9.477  0.0284  0.6595 -0.0612
  318MOL0     C41905   0.853   5.452   9.568 -0.8230 -0.0127 -0.5105
  318MOL0     C41906   1.011   5.453   9.543  0.5734 -0.1233 -0.4168
  318MOL0     C41907   1.072   5.533   9.651  0.0304  0.2504  0.3182
  318MOL0     C41908   1.116   5.605   9.730 -1.0127  0.6724 -0.1671
  318MOL0     C41909   0.374   5.401   9.361  0.3928  0.3354  0.3123
  318MOL0     C41910   0.241   5.399   9.320  0.7888  0.4799  0.1926
  318MOL0     H41911  -0.214   5.407   9.377 -0.4700 -0.9965  0.2695
  318MOL0     H41912  -0.457   5.434   9.311 -0.0148  1.8120 -1.2128
  318MOL0     H41913  -0.655   5.406   9.236 -0.1472  0.5997  0.3228
  318MOL0     H41914  -0.749   5.431   9.090  0.1908 -2.0223 -0.0668
  318MOL0     H41915  -0.638   5.686   9.131  0.5601 -1.4957 -0.6802
  318MOL0     H41916  -0.671   5.624   9.293  1.4816 -4.4752  0.8426
  318MOL0     H41917  -0.877   5.727   9.234 -1.6983  0.9795 -1.4767
  318MOL0     H41918  -0.912   5.562   9.189 -0.6090  1.2344  2.6143
  318MOL0     H41919  -0.813   5.767   8.996  0.8454 -1.6926  0.1987
  318MOL0     H41920  -0.854   5.610   8.948  0.3431  1.6220 -0.8375
  318MOL0     H41921  -1.048   5.819   9.010 -0.2885 -0.0214 -0.2966
  318MOL0     H41922  -1.091   5.667   9.079  1.2088 -1.0093 -0.3145
  318MOL0     H41923  -1.062   5.569   8.843 -0.0346 -0.2977 -1.3712
  318MOL0     H41924  -1.030   5.737   8.788 -1.0221 -0.3338 -0.8217
  318MOL0     H41925  -1.278   5.617   8.913 -2.0877  1.9094  0.7366
  318MOL0     H41926  -1.262   5.792   8.883 -0.2863  0.9790 -2.7424
  318MOL0     H41927  -1.246   5.593   8.651  1.0251 -1.3112  2.5479
  318MOL0     H41928  -1.244   5.772   8.646  0.7096 -0.9655 -0.9860
  318MOL0     H41929  -1.502   5.494   8.668 -1.5239 -0.5040  4.7947
  318MOL0     H41930  -1.855   5.661   8.711  0.1358 -0.0394  0.1647
  318MOL0     H41931  -1.784   5.498   8.689 -1.3862  0.6398  0.7807
  318MOL0     H41932  -1.818   5.690   8.454 -2.4458  2.1704  2.6209
  318MOL0     H41933  -1.935   5.580   8.508 -0.4719  0.6892 -0.0880
  318MOL0     H41934  -1.667   5.437   8.484  0.8650  1.1723 -0.0435
  318MOL0     H41935  -1.826   5.388   8.439  0.7415  0.1975  0.4647
  318MOL0     H41936  -1.677   5.577   8.254 -0.6485  0.0510 -1.5730
  318MOL0     H41937  -1.827   5.492   8.229 -0.6747 -1.6730  0.7853
  318MOL0     H41938  -1.501   5.220   8.081 -0.9192  0.5812  0.5811
  318MOL0     H41939  -1.247   5.229   8.064 -0.4147 -0.3990  0.6512
  318MOL0     H41940  -0.818   5.314   8.204  0.2773 -0.7231  0.1226
  318MOL0     H41941  -0.591   5.332   8.277  1.5716  1.5565  0.7847
  318MOL0     H41942  -0.502   5.366   8.536  0.5156 -0.9000  0.2840
  318MOL0     H41943  -0.434   5.501   8.626 -2.1479 -0.2833 -0.2319
  318MOL0     H41944  -0.239   5.518   8.486 -0.2082  0.3501  0.1243
  318MOL0     H41945  -0.276   5.373   8.410 -1.2873  1.4436  0.0713
  318MOL0     H41946  -0.288   5.274   8.645 -0.7683 -0.8271 -3.0428
  318MOL0     H41947  -0.227   5.425   8.714 -1.6393 -1.8263  0.2989
  318MOL0     H41948  -0.085   5.232   8.531 -1.2388 -1.9519  2.1353
  318MOL0     H41949  -0.039   5.413   8.540 -0.5560  1.1072  1.2359
  318MOL0     H41950  -0.031   5.237   8.779 -1.6469  0.8138 -0.5666
  318MOL0     H41951  -0.000   5.406   8.767 -1.7856 -1.8738  3.0070
  318MOL0     H41952   0.196   5.355   8.617 -1.5958  0.8700  0.7449
  318MOL0     H41953   0.138   5.199   8.583  0.7052  1.1073 -1.7043
  318MOL0     H41954   0.273   5.321   8.827 -0.6206  0.1005  1.2592
  318MOL0     H41955   0.162   5.186   8.858 -3.2727  0.9626 -1.5075
  318MOL0     H41956   0.427   5.183   8.714  1.7077 -2.8235 -0.1833
  318MOL0     H41957   0.313   5.056   8.668 -1.3933 -0.0860  0.6897
  318MOL0     H41958  -0.687   5.683   8.501  0.9752 -2.6152  0.9991
  318MOL0     H41959  -0.929   5.680   8.394  0.4535 -0.7385 -0.3665
  318MOL0     H41960  -1.247   5.572   8.304  1.0980 -0.0171 -0.7109
  318MOL0     H41961  -1.488   5.545   8.354 -1.9121 -0.4756 -1.5655
  318MOL0     H41962  -0.341   5.496   8.906 -2.6580 -1.2504  0.2864
  318MOL0     H41963  -0.100   5.489   8.988  1.3916  0.4801  2.2946
  318MOL0     H41964   0.266   5.122   9.107  0.5807 -1.3041  1.4311
  318MOL0     H41965   0.502   5.148   9.181 -0.2132 -0.3395  1.2761
  318MOL0     H41966   0.587   5.384   9.555 -1.5214  1.2810  0.6002
  318MOL0     H41967   0.635   5.499   9.428  2.1717 -0.5935  0.1338
  318MOL0     H41968   0.776   5.254   9.525  1.8724 -0.2260 -1.3940
  318MOL0     H41969   0.844   5.329   9.388 -0.5511 -0.5275 -0.1624
  318MOL0     H41970   0.835   5.424   9.673  3.2939  1.4279  0.7643
  318MOL0     H41971   0.818   5.555   9.557  2.1064  1.0956 -0.4524
  318MOL0     H41972   1.040   5.348   9.555 -2.7747 -1.2553 -1.2025
  318MOL0     H41973   1.046   5.485   9.445  0.5541 -1.2111 -0.7883
  318MOL0     H41974   1.141   5.681   9.802  1.8500  3.2968 -3.5387
  318MOL0     H41975   0.397   5.473   9.439 -3.3894 -1.0945  3.0469
  318MOL0     H41976   0.173   5.470   9.368  2.1329  1.3803  0.8497
  319MOL0     O41977   1.044   0.835   7.849  0.2468  0.7411 -0.0227
  319MOL0     C41978   1.053   0.792   7.735  0.7143 -0.0359 -0.3597
  319MOL0     O41979   0.972   0.698   7.689  0.0468  0.5169  0.0134
  319MOL0     C41980   0.845   0.688   7.738  0.2013 -0.1811 -0.1015
  319MOL0     C41981   0.770   0.810   7.753 -0.2292 -0.1156 -0.2378
  319MOL0     C41982   0.636   0.801   7.809 -0.1327 -0.0370 -0.4563
  319MOL0     C41983   0.571   0.675   7.812 -0.6907  0.1267 -0.1731
  319MOL0     O41984   0.434   0.654   7.847  0.1359 -0.3089 -0.0993
  319MOL0     C41985   0.349   0.762   7.885 -0.9011  0.2465  0.2154
  319MOL0     C41986   0.210   0.715   7.922  0.6994 -0.6023 -0.1597
  319MOL0     C41987   0.134   0.671   7.797 -0.3997 -0.2923 -0.2162
  319MOL0     C41988  -0.005   0.614   7.840  0.0218  0.7430  0.2725
  319MOL0     C41989  -0.105   0.602   7.728  0.0153  0.8621 -0.3565
  319MOL0     C41990  -0.149   0.743   7.686  0.9073  0.5802  0.2611
  319MOL0     C41991  -0.276   0.736   7.593  0.0475 -0.0329  0.3607
  319MOL0     C41992  -0.314   0.871   7.529 -0.1997  0.3141 -0.6150
  319MOL0     N41993  -0.435   0.864   7.436  0.3135  0.0621 -1.1695
  319MOL0     C41994  -0.500   0.758   7.393 -0.1064 -0.6701  0.0045
  319MOL0     C41995  -0.613   0.801   7.335 -0.1092  0.5650  0.8108
  319MOL0     C41996  -0.714   0.709   7.270  0.5392  0.4920  0.0259
  319MOL0     C41997  -0.855   0.778   7.275  0.7587  0.6096 -0.3149
  319MOL0     C41998  -0.963   0.672   7.247  0.0822 -0.2167  0.0201
  319MOL0     C41999  -1.095   0.752   7.254 -0.2366  0.2012  0.3255
  319MOL0     O42000  -1.202   0.677   7.190  1.0556 -0.1279 -0.2999
  319MOL0     C42001  -1.338   0.712   7.215  0.2215 -1.4440 -0.7204
  319MOL0     C42002  -1.437   0.617   7.195 -0.0767 -0.5287  0.8238
  319MOL0     C42003  -1.573   0.648   7.216 -0.5184 -0.2021 -0.1129
  319MOL0     C42004  -1.612   0.780   7.262  1.0360 -0.7192  1.0102
  319MOL0     C42005  -1.758   0.818   7.279 -0.0500 -0.0247  0.2300
  319MOL0     O42006  -1.806   0.940   7.284 -0.1011  0.3076  0.1344
  319MOL0     C42007  -1.934   0.971   7.268  0.8416 -0.4260 -0.2794
  319MOL0     C42008  -1.995   1.059   7.361  0.5478  0.6170 -0.2282
  319MOL0     C42009  -2.130   1.097   7.348 -0.3614  0.2009  0.2300
  319MOL0     C42010  -2.218   1.048   7.250  0.9427  0.2900 -0.0884
  319MOL0     O42011  -2.351   1.066   7.262  0.2334 -0.2136 -0.2695
  319MOL0     C42012  -2.439   1.007   7.162  0.1953 -0.4535 -1.2138
  319MOL0     C42013  -2.586   1.064   7.174  0.2733  0.3947  0.2372
  319MOL0     C42014  -2.674   1.011   7.065 -0.6925 -0.3042 -0.3437
  319MOL0     C42015  -2.815   1.058   7.070  0.4307 -0.2746  0.3600
  319MOL0     C42016  -2.885   1.033   6.939 -0.0832 -0.2330 -0.2850
  319MOL0     C42017  -3.021   1.079   6.957  0.3369 -0.3267  0.1129
  319MOL0     C42018  -3.108   1.087   6.826 -0.5920  0.4454 -0.5891
  319MOL0     C42019  -3.257   1.117   6.854 -0.0133 -0.6606  0.4035
  319MOL0    Cl42020  -3.326   1.169   6.700 -0.2891 -0.2067 -0.0863
  319MOL0     C42021  -2.158   0.966   7.153 -0.1340 -0.3608 -0.3548
  319MOL0     C42022  -2.020   0.926   7.161 -0.5012 -0.9330 -0.0489
  319MOL0     O42023  -1.823   0.711   7.297 -0.6916 -0.2484 -0.0336
  319MOL0     C42024  -1.511   0.886   7.270 -0.0862 -0.8242  1.1969
  319MOL0     C42025  -1.376   0.849   7.245  1.0334 -0.1792  0.7418
  319MOL0     N42026  -0.614   0.937   7.348 -0.0816 -0.1760 -0.3870
  319MOL0     N42027  -0.513   0.975   7.408  0.4534 -0.8227 -1.2513
  319MOL0     C42028   0.650   0.557   7.790  0.7511 -0.2724  0.4762
  319MOL0     C42029   0.788   0.563   7.756  1.4440  1.1628 -0.1316
  319MOL0     C42030   1.166   0.830   7.656 -0.5200  0.2352  0.6752
  319MOL0     C42031   1.176   0.792   7.517 -0.1962  0.4420  0.2238
  319MOL0     C42032   1.289   0.811   7.441  0.7921  0.3631  0.6014
  319MOL0     C42033   1.402   0.871   7.495  0.4090 -0.4753  0.1677
  319MOL0     O42034   1.521   0.895   7.429 -0.6037  0.4670 -0.0297
  319MOL0     C42035   1.545   0.821   7.305  0.8674 -0.1562 -0.2510
  319MOL0     C42036   1.698   0.812   7.281  0.4856  0.4312  0.7317
  319MOL0     C42037   1.780   0.944   7.285 -0.1287  0.0950 -0.5933
  319MOL0     C42038   1.933   0.924   7.263  0.5346  0.0751  0.5127
  319MOL0     C42039   2.010   1.040   7.307 -0.6943 -0.6475 -0.5131
  319MOL0     C42040   2.084   1.126   7.342  0.0199  0.0592 -0.4197
  319MOL0     C42041   1.395   0.909   7.626  0.4408  1.0674  0.3822
  319MOL0     C42042   1.284   0.883   7.709 -0.5062  0.2591 -0.1127
  319MOL0     H42043   0.805   0.909   7.730 -0.6179 -0.2272 -1.3614
  319MOL0     H42044   0.577   0.888   7.833 -3.3343 -2.3921  0.9020
  319MOL0     H42045   0.335   0.829   7.800 -2.5402 -0.2150  0.0729
  319MOL0     H42046   0.389   0.806   7.976  4.0036 -0.5869 -1.2490
  319MOL0     H42047   0.149   0.799   7.954 -0.8180 -0.4451 -3.0613
  319MOL0     H42048   0.213   0.640   8.001 -0.4638 -1.7177 -1.1060
  319MOL0     H42049   0.200   0.604   7.741  0.5602 -0.2048  0.7735
  319MOL0     H42050   0.118   0.758   7.732  2.1146  0.0651 -0.4694
  319MOL0     H42051   0.003   0.513   7.880  2.1695  0.9053  0.3906
  319MOL0     H42052  -0.055   0.684   7.908  2.4945  0.6485  2.3407
  319MOL0     H42053  -0.189   0.537   7.755  0.3365 -0.4154 -2.2754
  319MOL0     H42054  -0.062   0.556   7.639  0.1196  2.5902 -1.2377
  319MOL0     H42055  -0.063   0.786   7.634  0.5735 -1.4815 -2.2794
  319MOL0     H42056  -0.174   0.809   7.768 -2.5692  1.5353 -1.3850
  319MOL0     H42057  -0.269   0.667   7.509 -0.9553 -1.0789  1.0974
  319MOL0     H42058  -0.362   0.710   7.656 -0.8507 -0.3222 -0.9558
  319MOL0     H42059  -0.230   0.917   7.477 -0.1026  1.7192  0.7144
  319MOL0     H42060  -0.332   0.946   7.607  1.0341  0.0072  0.0031
  319MOL0     H42061  -0.468   0.655   7.390  3.1547  0.2463 -2.0026
  319MOL0     H42062  -0.719   0.616   7.328 -0.1352  0.0214 -0.7640
  319MOL0     H42063  -0.686   0.706   7.165 -3.1180 -1.0562 -1.0761
  319MOL0     H42064  -0.859   0.854   7.197 -0.9940 -0.9931 -1.9062
  319MOL0     H42065  -0.884   0.822   7.371 -2.0518 -1.8810  0.1316
  319MOL0     H42066  -0.938   0.621   7.153  2.4470 -1.6843  1.3270
  319MOL0     H42067  -0.970   0.589   7.318 -1.2999 -0.8733 -0.8548
  319MOL0     H42068  -1.092   0.844   7.194  2.1810  0.4443  0.7454
  319MOL0     H42069  -1.119   0.765   7.360  2.1525 -0.8320  1.0665
  319MOL0     H42070  -1.409   0.516   7.167 -1.2224 -0.5443 -0.3403
  319MOL0     H42071  -1.642   0.565   7.204  0.8291 -1.3582  0.0036
  319MOL0     H42072  -1.936   1.102   7.441 -0.3967  1.8725 -0.1798
  319MOL0     H42073  -2.166   1.161   7.429 -2.0580  2.6870 -2.3072
  319MOL0     H42074  -2.454   0.903   7.193 -1.8806 -0.0413 -0.7115
  319MOL0     H42075  -2.395   1.015   7.062  0.9851  0.1051 -0.8373
  319MOL0     H42076  -2.588   1.173   7.165  0.9698  0.4466  0.5963
  319MOL0     H42077  -2.635   1.038   7.269  1.6429  0.7760  1.0853
  319MOL0     H42078  -2.678   0.901   7.063  1.6417 -0.4804  1.1108
  319MOL0     H42079  -2.628   1.035   6.969 -0.9534 -0.6467 -0.5602
  319MOL0     H42080  -2.869   1.000   7.146  0.8776 -1.4942 -0.2209
  319MOL0     H42081  -2.808   1.165   7.093 -1.9725 -0.0347  0.2575
  319MOL0     H42082  -2.899   0.927   6.917 -0.5935 -0.2385  0.0519
  319MOL0     H42083  -2.838   1.089   6.857 -0.5677  0.8373  0.1389
  319MOL0     H42084  -3.027   1.178   7.003  0.6712  0.0535 -0.6467
  319MOL0     H42085  -3.075   1.005   7.017  0.5320  1.2630  2.3700
  319MOL0     H42086  -3.063   1.167   6.766 -0.2326  0.4710 -0.2865
  319MOL0     H42087  -3.094   0.997   6.765 -0.5680  1.1607 -1.6733
  319MOL0     H42088  -3.283   1.202   6.918 -1.7883 -0.8865  0.0183
  319MOL0     H42089  -3.309   1.031   6.897 -2.1810 -0.4287 -1.5397
  319MOL0     H42090  -2.218   0.926   7.072  0.9757 -1.0017 -0.8774
  319MOL0     H42091  -1.987   0.854   7.088  1.5974 -1.0000  0.9056
  319MOL0     H42092  -1.530   0.989   7.298  2.1316 -0.4033  1.3452
  319MOL0     H42093  -1.297   0.923   7.231  0.4253  0.2882 -0.4087
  319MOL0     H42094   0.604   0.459   7.801  1.5439 -0.7840 -0.6301
  319MOL0     H42095   0.850   0.476   7.744  1.7397  1.5396 -1.4258
  319MOL0     H42096   1.103   0.730   7.466 -1.1425  0.4872  1.4751
  319MOL0     H42097   1.288   0.788   7.335  1.0370  1.3763  0.3592
  319MOL0     H42098   1.503   0.875   7.219 -0.4100  2.3423  1.7845
  319MOL0     H42099   1.510   0.717   7.306  1.2302 -0.2909 -0.9309
  319MOL0     H42100   1.739   0.747   7.358  0.6658  1.0872  1.2012
  319MOL0     H42101   1.703   0.765   7.183  0.7833 -2.6259  2.1171
  319MOL0     H42102   1.771   0.976   7.390  2.7543  2.0246 -0.8427
  319MOL0     H42103   1.728   1.017   7.222 -1.3149  0.1057  0.3427
  319MOL0     H42104   1.971   0.831   7.305 -2.0600 -2.5527 -2.4339
  319MOL0     H42105   1.950   0.912   7.155  3.8572  0.5628  0.8650
  319MOL0     H42106   2.164   1.179   7.390  0.4963 -2.2392  1.4899
  319MOL0     H42107   1.486   0.940   7.676  0.7281 -2.5849  2.4432
  319MOL0     H42108   1.277   0.920   7.810 -3.1005 -0.2261 -0.0577
  320MOL0     O42109   4.031   0.851   4.017  0.8180  0.8284  0.1444
  320MOL0     C42110   3.961   0.800   4.105  0.9985  0.5661  0.5466
  320MOL0     O42111   4.009   0.728   4.212 -0.0744 -0.2682 -0.3284
  320MOL0     C42112   4.147   0.724   4.228  0.1955  0.0904 -0.0893
  320MOL0     C42113   4.237   0.686   4.131  0.0667  0.0738 -0.0597
  320MOL0     C42114   4.370   0.688   4.156  0.0805  0.4804  0.4910
  320MOL0     C42115   4.423   0.708   4.279 -0.2319 -0.0518 -0.8029
  320MOL0     O42116   4.559   0.698   4.301 -0.1252  0.2372  0.2183
  320MOL0     C42117   4.602   0.676   4.436 -0.3247  0.3144 -0.0801
  320MOL0     C42118   4.754   0.683   4.454  0.5650 -0.3423  0.1891
  320MOL0     C42119   4.841   0.644   4.339 -0.6129  0.4974  0.7549
  320MOL0     C42120   4.992   0.667   4.364 -0.5487 -0.0673 -0.9709
  320MOL0     C42121   5.076   0.632   4.236 -0.1035 -0.0733  0.1116
  320MOL0     C42122   5.038   0.493   4.168 -0.6413 -0.3357 -0.7270
  320MOL0     C42123   5.080   0.384   4.271  0.2776 -0.2026  0.0673
  320MOL0     C42124   5.098   0.247   4.197 -0.4463 -0.5991  0.3418
  320MOL0     N42125   5.140   0.146   4.290  0.7596  0.2455 -0.5529
  320MOL0     C42126   5.083   0.026   4.310  1.2956 -0.3845  0.5483
  320MOL0     C42127   5.158  -0.030   4.408  0.3551 -0.4939 -0.3386
  320MOL0     C42128   5.117  -0.169   4.460 -0.3930  0.3579  0.5502
  320MOL0     C42129   5.039  -0.175   4.591  0.3609 -0.2545  0.0411
  320MOL0     C42130   4.887  -0.162   4.590  0.0978  0.2597  0.4145
  320MOL0     C42131   4.819  -0.146   4.729 -0.4097 -0.7024  0.3033
  320MOL0     O42132   4.727  -0.248   4.759  0.3054 -0.2579  0.1135
  320MOL0     C42133   4.597  -0.235   4.707 -0.0118  0.6032 -0.6685
  320MOL0     C42134   4.570  -0.163   4.585 -0.5427  0.0576 -0.1982
  320MOL0     C42135   4.443  -0.145   4.527  0.5328  0.2244 -0.0914
  320MOL0     C42136   4.336  -0.199   4.602 -0.5472  0.1249  0.3368
  320MOL0     C42137   4.198  -0.192   4.546 -0.0774  0.1511 -0.0729
  320MOL0     O42138   4.099  -0.232   4.637 -0.2895  0.1964 -0.0543
  320MOL0     C42139   3.964  -0.216   4.599 -0.1872  0.4287 -0.0972
  320MOL0     C42140   3.903  -0.092   4.603  0.1557  0.0140 -0.1360
  320MOL0     C42141   3.770  -0.092   4.559  0.4536  0.8708 -0.5468
  320MOL0     C42142   3.705  -0.209   4.497 -0.4862 -1.4156  0.6218
  320MOL0     O42143   3.580  -0.214   4.447 -0.1731 -0.0908 -0.3259
  320MOL0     C42144   3.497  -0.118   4.504 -0.0873  0.8660  0.0319
  320MOL0     C42145   3.363  -0.137   4.445  0.1403 -0.0941 -0.8257
  320MOL0     C42146   3.258  -0.040   4.487 -0.0140 -0.1545  0.1458
  320MOL0     C42147   3.140  -0.072   4.423 -0.1978  0.0987  0.0876
  320MOL0     C42148   3.024   0.022   4.437 -0.0988 -0.0318  0.0063
  320MOL0     C42149   2.886  -0.042   4.402  0.1851 -0.3648 -0.2949
  320MOL0     C42150   2.778   0.050   4.451  0.0776  0.1850  0.8245
  320MOL0     C42151   2.649   0.047   4.367  0.6435 -0.2368 -0.4150
  320MOL0    Cl42152   2.577  -0.116   4.401 -0.1436  0.6671 -0.0418
  320MOL0     C42153   3.780  -0.321   4.483  0.7350 -0.1002 -0.5547
  320MOL0     C42154   3.905  -0.323   4.546 -0.1442  0.4574 -0.1451
  320MOL0     O42155   4.182  -0.143   4.437 -0.1698 -0.7300  0.6407
  320MOL0     C42156   4.357  -0.276   4.710 -0.1610  0.4531  1.3651
  320MOL0     C42157   4.484  -0.300   4.767 -0.2847 -0.8691 -0.2087
  320MOL0     N42158   5.255   0.055   4.451  0.7809 -0.5226  0.1032
  320MOL0     N42159   5.241   0.159   4.379  0.2733 -0.7805 -0.3760
  320MOL0     C42160   4.339   0.747   4.375  0.2192 -0.7610  0.4322
  320MOL0     C42161   4.199   0.757   4.350  0.3270 -0.5465  0.7053
  320MOL0     C42162   3.813   0.809   4.096 -0.1934  0.7390  0.3524
  320MOL0     C42163   3.761   0.889   4.001 -0.5899 -0.6012  0.5247
  320MOL0     C42164   3.622   0.904   3.981  0.3795 -0.2644 -0.4063
  320MOL0     C42165   3.529   0.828   4.056 -0.0371  0.2364  0.3804
  320MOL0     O42166   3.392   0.813   4.037 -0.1075 -0.0433 -0.5892
  320MOL0     C42167   3.328   0.903   3.941 -0.6510  0.7437 -0.5455
  320MOL0     C42168   3.176   0.908   3.961  0.1083 -0.1010 -0.3436
  320MOL0     C42169   3.091   0.843   3.846  0.0717  0.2809  0.0430
  320MOL0     C42170   2.941   0.881   3.845  0.2521  0.1944  0.5095
  320MOL0     C42171   2.868   0.796   3.756  0.2493  0.8141 -0.5375
  320MOL0     C42172   2.809   0.718   3.680 -0.0947  0.3916 -0.3881
  320MOL0     C42173   3.589   0.737   4.146 -0.4190 -0.3958  0.1656
  320MOL0     C42174   3.724   0.736   4.169  0.5821  0.8727  0.6062
  320MOL0     H42175   4.206   0.647   4.034 -1.0472  1.7435 -0.4154
  320MOL0     H42176   4.436   0.662   4.073 -2.0847  0.0145 -1.1608
  320MOL0     H42177   4.575   0.574   4.466 -0.9610  0.3482 -0.5452
  320MOL0     H42178   4.557   0.749   4.503 -0.1560 -0.4374  0.8842
  320MOL0     H42179   4.788   0.628   4.542  2.3991  0.6346  0.1358
  320MOL0     H42180   4.792   0.784   4.470  1.1202 -0.7500  1.5591
  320MOL0     H42181   4.811   0.703   4.252  0.6443 -0.0873 -0.0930
  320MOL0     H42182   4.822   0.540   4.312  0.6477  0.7336 -1.2519
  320MOL0     H42183   5.018   0.767   4.400 -0.3272 -0.7640  0.9243
  320MOL0     H42184   5.020   0.595   4.442 -0.7974 -2.1741 -2.7118
  320MOL0     H42185   5.180   0.625   4.270  0.1100 -0.4587 -0.6089
  320MOL0     H42186   5.063   0.707   4.158 -2.2547 -3.2817 -2.8727
  320MOL0     H42187   5.116   0.487   4.092  1.9710 -0.5630  1.7897
  320MOL0     H42188   4.935   0.494   4.130 -1.1878  1.4723  0.6455
  320MOL0     H42189   5.176   0.412   4.315 -0.7565  1.6555  1.2710
  320MOL0     H42190   5.018   0.363   4.358  3.5617 -1.2095  2.3505
  320MOL0     H42191   5.166   0.265   4.113 -0.7550  0.5027  0.3086
  320MOL0     H42192   5.005   0.210   4.152 -0.5667 -0.8236  0.7758
  320MOL0     H42193   4.998  -0.009   4.252 -0.4969 -0.1008  2.8616
  320MOL0     H42194   5.214  -0.219   4.471  0.3188  1.1521 -1.7076
  320MOL0     H42195   5.075  -0.228   4.378  1.8609  0.7941 -1.0202
  320MOL0     H42196   5.080  -0.093   4.651  0.9654 -1.4626  1.3353
  320MOL0     H42197   5.067  -0.269   4.639 -0.5758 -1.2442 -1.2930
  320MOL0     H42198   4.859  -0.075   4.530  1.8568  1.4122  1.2026
  320MOL0     H42199   4.840  -0.249   4.543  0.4991 -0.2849  1.0039
  320MOL0     H42200   4.764  -0.052   4.724  2.0666  0.8006 -3.9317
  320MOL0     H42201   4.893  -0.139   4.810 -0.0282  2.0687 -0.1728
  320MOL0     H42202   4.652  -0.124   4.526  0.4320 -0.3838  0.8339
  320MOL0     H42203   4.417  -0.102   4.431  2.6218  1.9955  0.0662
  320MOL0     H42204   3.946  -0.001   4.641 -1.0692  0.8679 -0.7188
  320MOL0     H42205   3.720  -0.003   4.596 -0.2954  0.6282 -0.9465
  320MOL0     H42206   3.541  -0.025   4.467  3.2468  0.0667  1.6198
  320MOL0     H42207   3.480  -0.129   4.611  1.6423  0.3058  0.2803
  320MOL0     H42208   3.329  -0.240   4.459 -1.5449  0.7465  1.8961
  320MOL0     H42209   3.377  -0.129   4.336 -0.1930  1.6900 -0.7708
  320MOL0     H42210   3.292   0.063   4.470  2.3349 -0.6313  1.5225
  320MOL0     H42211   3.232  -0.056   4.592 -1.9524 -0.0356 -0.2802
  320MOL0     H42212   3.155  -0.104   4.319  3.0044 -1.9429  1.0378
  320MOL0     H42213   3.093  -0.155   4.476 -0.4142  0.7704  0.9661
  320MOL0     H42214   3.041   0.115   4.382 -0.1577 -1.2719 -2.2060
  320MOL0     H42215   3.019   0.041   4.545  3.7013 -2.6213  0.8074
  320MOL0     H42216   2.866  -0.141   4.446 -3.4200  0.2140 -0.3002
  320MOL0     H42217   2.880  -0.079   4.299 -1.4176 -1.7528  0.2299
  320MOL0     H42218   2.758   0.012   4.552 -2.7986 -3.8139 -0.9812
  320MOL0     H42219   2.826   0.148   4.450 -0.5731  0.5063  0.7930
  320MOL0     H42220   2.677   0.065   4.263  1.1310  3.6964  0.2221
  320MOL0     H42221   2.578   0.121   4.406  2.1448  0.6277  0.8053
  320MOL0     H42222   3.740  -0.411   4.437 -0.3673 -0.1567  0.4626
  320MOL0     H42223   3.961  -0.415   4.533  0.0640  0.8358 -2.4837
  320MOL0     H42224   4.276  -0.312   4.772 -1.0516  0.7309  0.3898
  320MOL0     H42225   4.490  -0.358   4.859  3.6955 -1.6484 -0.7500
  320MOL0     H42226   4.362   0.778   4.476  1.9221  1.2262 -0.4581
  320MOL0     H42227   4.139   0.799   4.431 -1.5855 -0.6248 -0.5974
  320MOL0     H42228   3.821   0.937   3.924 -1.6553 -0.2436 -0.1065
  320MOL0     H42229   3.580   0.976   3.911 -0.8431 -0.3510  0.2008
  320MOL0     H42230   3.361   0.866   3.844  1.4832  2.0684 -0.3949
  320MOL0     H42231   3.383   0.996   3.954  0.2177  0.0702  0.8208
  320MOL0     H42232   3.155   0.853   4.053  0.8807  4.6054  3.0006
  320MOL0     H42233   3.154   1.011   3.987  3.7131  0.9496 -0.8698
  320MOL0     H42234   3.106   0.735   3.832  2.1755  0.7658 -2.1101
  320MOL0     H42235   3.130   0.887   3.755 -2.9766 -0.8024 -1.9374
  320MOL0     H42236   2.896   0.870   3.944 -0.5697 -1.9496 -0.0453
  320MOL0     H42237   2.941   0.983   3.806  1.9078 -0.4823 -1.4565
  320MOL0     H42238   2.741   0.657   3.623  0.7575 -1.3760  0.4126
  320MOL0     H42239   3.533   0.671   4.211  1.8917 -1.1109  1.5585
  320MOL0     H42240   3.769   0.677   4.249  1.2656  1.4562  0.6581
  321MOL0     O42241   9.147   5.780   7.554  0.1770  0.3033  0.1590
  321MOL0     C42242   9.151   5.660   7.540 -0.3703  0.2287 -1.2156
  321MOL0     O42243   9.046   5.570   7.536  0.2322 -0.9140  0.1398
  321MOL0     C42244   8.919   5.606   7.572  0.1687  0.4284  0.2512
  321MOL0     C42245   8.886   5.658   7.698  0.0844 -0.4436 -0.4130
  321MOL0     C42246   8.749   5.654   7.736  0.2465  0.0928  0.9625
  321MOL0     C42247   8.650   5.617   7.641  0.0634  0.0063 -0.5823
  321MOL0     O42248   8.514   5.619   7.668  0.1144  0.2644 -0.1839
  321MOL0     C42249   8.468   5.606   7.802 -0.6481 -0.2860  0.4285
  321MOL0     C42250   8.323   5.565   7.798  0.1471  0.3351  1.1291
  321MOL0     C42251   8.269   5.546   7.936 -0.3405  0.2057 -0.2445
  321MOL0     C42252   8.115   5.529   7.944 -1.0079 -0.3459  0.6488
  321MOL0     C42253   8.059   5.512   8.088  0.3279  0.0695 -0.4121
  321MOL0     C42254   8.084   5.637   8.165 -0.5024 -0.5596  0.5307
  321MOL0     C42255   7.993   5.641   8.295  0.7062 -0.7042 -0.0879
  321MOL0     C42256   8.014   5.776   8.359 -0.8646  0.1560  0.9126
  321MOL0     N42257   7.933   5.777   8.474  0.7500 -0.1622 -0.3227
  321MOL0     C42258   7.973   5.767   8.602 -0.0537  0.2105  0.0400
  321MOL0     C42259   7.846   5.779   8.675  0.1405  0.0425  0.2784
  321MOL0     C42260   7.852   5.787   8.824 -0.0785  0.0320  0.1082
  321MOL0     C42261   7.728   5.856   8.880 -0.5169  0.3223 -0.2687
  321MOL0     C42262   7.741   6.005   8.847  0.6891  0.4457  0.1199
  321MOL0     C42263   7.621   6.095   8.883  0.1493  0.1244  0.6403
  321MOL0     O42264   7.576   6.069   9.019 -0.1209 -0.4530  0.7077
  321MOL0     C42265   7.456   6.128   9.062 -0.1705 -0.2170 -0.8656
  321MOL0     C42266   7.389   6.224   8.991 -0.0197 -0.4048 -0.0312
  321MOL0     C42267   7.274   6.286   9.053 -0.0064  0.1390  0.0069
  321MOL0     C42268   7.223   6.253   9.178  0.7178 -0.3208  1.2048
  321MOL0     C42269   7.098   6.320   9.235  0.3722  0.3414  0.3691
  321MOL0     O42270   7.012   6.377   9.144  0.0130  0.5297 -0.0296
  321MOL0     C42271   6.888   6.421   9.193  0.4842 -0.3652 -1.1573
  321MOL0     C42272   6.781   6.336   9.167  0.1417  1.3981  0.2731
  321MOL0     C42273   6.656   6.378   9.198 -0.2067 -0.8388 -0.9074
  321MOL0     C42274   6.633   6.516   9.239  0.3231  0.5172  0.0836
  321MOL0     O42275   6.508   6.543   9.285  0.2580 -0.4923  0.0279
  321MOL0     C42276   6.483   6.680   9.326 -0.0809  0.1392 -0.6663
  321MOL0     C42277   6.327   6.716   9.339 -0.2061  0.1985  0.3127
  321MOL0     C42278   6.276   6.762   9.202  0.3846 -0.8773  0.5268
  321MOL0     C42279   6.130   6.786   9.239  0.1049 -0.5658  0.4523
  321MOL0     C42280   6.063   6.875   9.136 -0.4523 -0.1934  0.0194
  321MOL0     C42281   5.906   6.866   9.127 -0.2120  0.2374  0.0370
  321MOL0     C42282   5.862   6.738   9.063 -0.8641  0.1447  0.3753
  321MOL0     C42283   5.718   6.734   9.025 -0.2210  0.7281 -0.6318
  321MOL0    Cl42284   5.678   6.833   8.880 -0.1582 -0.2126 -0.0890
  321MOL0     C42285   6.740   6.598   9.263 -0.6290 -0.3671 -0.4828
  321MOL0     C42286   6.871   6.548   9.247 -0.1841 -0.5337  0.6822
  321MOL0     O42287   7.088   6.325   9.359  0.1667  0.0203 -0.1609
  321MOL0     C42288   7.292   6.156   9.253 -0.0261  0.0694 -0.2087
  321MOL0     C42289   7.403   6.095   9.190  0.7879  0.2620  0.7988
  321MOL0     N42290   7.738   5.790   8.580  0.3313 -0.4987 -0.0478
  321MOL0     N42291   7.790   5.786   8.462  0.2785  0.0026 -0.6549
  321MOL0     C42292   8.687   5.573   7.519  0.5215  0.2182 -0.7426
  321MOL0     C42293   8.818   5.569   7.481 -0.2967 -0.1745  0.2329
  321MOL0     C42294   9.288   5.607   7.525  0.7305 -0.2311 -0.0860
  321MOL0     C42295   9.402   5.678   7.562 -0.4842  0.5032  0.1764
  321MOL0     C42296   9.532   5.632   7.524 -0.2630  0.1235  0.4001
  321MOL0     C42297   9.540   5.503   7.467  0.2575  0.0526 -0.2894
  321MOL0     O42298   9.659   5.442   7.437  0.1503 -0.1551  0.8939
  321MOL0     C42299   9.789   5.497   7.451  0.7192 -0.2626 -0.6435
  321MOL0     C42300   9.854   5.473   7.589 -0.9992  0.2984  0.3097
  321MOL0     C42301  10.014   5.506   7.585  0.7665  0.0273 -0.2978
  321MOL0     C42302  10.093   5.486   7.710 -0.6008 -0.3534  0.8228
  321MOL0     C42303  10.096   5.346   7.754 -0.0029  0.0534 -0.2276
  321MOL0     C42304  10.107   5.230   7.778  0.2396 -0.1087 -0.4864
  321MOL0     C42305   9.421   5.440   7.426 -0.4502  0.1303  0.1625
  321MOL0     C42306   9.297   5.483   7.455 -0.3994  0.5080  1.3654
  321MOL0     H42307   8.966   5.695   7.761 -0.3192 -0.9474  0.4260
  321MOL0     H42308   8.709   5.699   7.826 -1.3983  1.5237 -0.4135
  321MOL0     H42309   8.471   5.698   7.860 -2.4659 -2.1954  3.8847
  321MOL0     H42310   8.537   5.539   7.855 -0.2114 -0.5710 -0.4814
  321MOL0     H42311   8.318   5.469   7.746 -0.0296 -0.8875  3.2779
  321MOL0     H42312   8.259   5.636   7.745  0.4345 -0.8219 -0.8891
  321MOL0     H42313   8.302   5.629   7.999 -0.5339  0.5274 -0.5641
  321MOL0     H42314   8.307   5.450   7.974 -0.3732  0.5260  0.6320
  321MOL0     H42315   8.075   5.615   7.889  0.6391 -1.1179 -1.9882
  321MOL0     H42316   8.080   5.447   7.880 -0.0695  0.9220 -1.6274
  321MOL0     H42317   8.087   5.417   8.136 -0.7715 -0.9715 -1.7371
  321MOL0     H42318   7.952   5.509   8.069  0.0748 -1.9774  0.9983
  321MOL0     H42319   8.056   5.723   8.103  0.6118 -0.9415 -0.5437
  321MOL0     H42320   8.190   5.649   8.189 -0.3396  2.1614 -1.1264
  321MOL0     H42321   7.888   5.638   8.266  1.5748 -1.8091 -3.6014
  321MOL0     H42322   8.016   5.554   8.357 -0.7086 -0.8013  0.3150
  321MOL0     H42323   7.976   5.851   8.289 -1.1593 -1.8413 -1.1823
  321MOL0     H42324   8.121   5.778   8.383 -1.3212 -0.4143  3.1909
  321MOL0     H42325   8.078   5.762   8.630  1.0696 -3.4076 -3.8491
  321MOL0     H42326   7.934   5.854   8.850 -1.4509  2.0278 -0.4369
  321MOL0     H42327   7.863   5.682   8.851 -1.7449 -0.0635  0.5384
  321MOL0     H42328   7.720   5.849   8.989 -1.4120  1.1711 -0.2619
  321MOL0     H42329   7.639   5.813   8.833 -0.8827  0.4884  0.2633
  321MOL0     H42330   7.821   6.046   8.910 -1.3391  1.4474  2.1676
  321MOL0     H42331   7.760   6.016   8.740  1.0973  2.5911  0.3604
  321MOL0     H42332   7.536   6.082   8.815 -0.1277  3.3204  0.2299
  321MOL0     H42333   7.649   6.200   8.870 -1.2118  0.3125 -1.2158
  321MOL0     H42334   7.416   6.254   8.891  2.3990 -2.8468 -0.2444
  321MOL0     H42335   7.233   6.360   8.986 -0.0560  1.8564  1.8232
  321MOL0     H42336   6.804   6.240   9.122 -1.7378  1.7840 -1.6451
  321MOL0     H42337   6.575   6.307   9.192 -1.9995  1.1293 -1.1311
  321MOL0     H42338   6.531   6.757   9.266 -0.3521  1.3564  0.6279
  321MOL0     H42339   6.530   6.696   9.423  1.7764 -0.9663 -1.3352
  321MOL0     H42340   6.317   6.804   9.403  3.3379  0.9983  0.0005
  321MOL0     H42341   6.274   6.630   9.380  1.9878 -0.5332  1.8287
  321MOL0     H42342   6.296   6.683   9.129 -1.3205 -0.2454 -0.6643
  321MOL0     H42343   6.321   6.860   9.183 -0.4150 -0.4442  0.8284
  321MOL0     H42344   6.088   6.685   9.235  0.6596 -0.7864  0.0371
  321MOL0     H42345   6.108   6.836   9.334  0.7912  4.1359 -1.5652
  321MOL0     H42346   6.116   6.860   9.042  2.0264  0.7737  1.1621
  321MOL0     H42347   6.092   6.977   9.161  0.0076 -0.0766 -0.9634
  321MOL0     H42348   5.875   6.957   9.075 -1.4739  1.7592  3.2558
  321MOL0     H42349   5.862   6.870   9.227 -0.6934 -1.2301 -0.0942
  321MOL0     H42350   5.925   6.728   8.975 -0.7492  6.5461 -0.6821
  321MOL0     H42351   5.888   6.658   9.133  0.0872 -0.8068 -1.0152
  321MOL0     H42352   5.655   6.762   9.110  0.2625 -0.4819  0.1453
  321MOL0     H42353   5.682   6.633   9.002 -1.7799  1.1594 -0.1887
  321MOL0     H42354   6.751   6.699   9.301  0.6703  0.4192 -2.7516
  321MOL0     H42355   6.958   6.610   9.264 -0.1435  0.2694 -2.0509
  321MOL0     H42356   7.257   6.121   9.349 -1.1943  0.8954 -0.3079
  321MOL0     H42357   7.451   6.009   9.235 -1.6492 -2.1446 -0.8600
  321MOL0     H42358   8.611   5.526   7.457  0.5918 -0.9239  0.0108
  321MOL0     H42359   8.851   5.528   7.386 -2.7311 -2.4618  0.2384
  321MOL0     H42360   9.398   5.769   7.622  0.6612  1.0970 -0.6075
  321MOL0     H42361   9.616   5.680   7.574 -2.3627  1.5416  2.7856
  321MOL0     H42362   9.789   5.602   7.420  0.6408 -0.5256 -1.5643
  321MOL0     H42363   9.855   5.450   7.377  0.1777 -0.1313 -1.2200
  321MOL0     H42364   9.802   5.537   7.661  0.9415  0.1194  1.9412
  321MOL0     H42365   9.832   5.371   7.619 -0.0282  0.5012  1.7983
  321MOL0     H42366  10.020   5.613   7.560 -0.1979  0.7947  2.4332
  321MOL0     H42367  10.063   5.443   7.510  1.7624  1.9223 -1.3045
  321MOL0     H42368  10.194   5.519   7.684 -0.0971 -1.9330  0.6549
  321MOL0     H42369  10.057   5.548   7.792 -0.1207  2.3614 -0.8780
  321MOL0     H42370  10.132   5.127   7.792  0.4426  0.0368  0.2546
  321MOL0     H42371   9.422   5.349   7.367  0.8267  0.4317 -0.3061
  321MOL0     H42372   9.217   5.422   7.416  0.6380  0.0941 -0.2259
  322MOL0     O42373   0.117   3.791   5.574 -0.6885 -0.2144 -0.8770
  322MOL0     C42374   0.197   3.842   5.655  0.1049  0.2105 -0.0780
  322MOL0     O42375   0.173   3.954   5.735 -0.7407 -0.5364  0.6049
  322MOL0     C42376   0.043   3.999   5.726 -0.5875  0.7347 -0.4906
  322MOL0     C42377   0.009   4.118   5.660 -1.0827  0.7087  0.3852
  322MOL0     C42378  -0.117   4.158   5.642  0.4270  0.2645  0.6230
  322MOL0     C42379  -0.221   4.091   5.702  1.1169 -0.7052 -0.4351
  322MOL0     O42380  -0.352   4.115   5.681 -0.3084  0.1490  0.4991
  322MOL0     C42381  -0.402   4.251   5.678  0.8930  0.1222  0.9002
  322MOL0     C42382  -0.557   4.226   5.659 -0.4889 -0.7135  0.4299
  322MOL0     C42383  -0.630   4.359   5.622 -0.2496 -0.2253 -0.7468
  322MOL0     C42384  -0.748   4.328   5.542 -0.9726 -0.2243 -0.1962
  322MOL0     C42385  -0.806   4.451   5.480  0.2783 -0.1755 -0.0898
  322MOL0     C42386  -0.956   4.436   5.436 -0.3966 -0.0006  0.0833
  322MOL0     C42387  -0.992   4.555   5.348 -0.3489 -0.0262  0.2619
  322MOL0     C42388  -1.138   4.571   5.327  0.2042 -0.3804  0.5353
  322MOL0     N42389  -1.201   4.458   5.270  0.0139  0.3486 -0.2082
  322MOL0     C42390  -1.313   4.397   5.331  0.0141 -0.2121  0.1256
  322MOL0     C42391  -1.330   4.274   5.265 -0.2012 -0.7421 -0.0313
  322MOL0     C42392  -1.421   4.155   5.306 -0.1436  0.0854 -0.4309
  322MOL0     C42393  -1.560   4.163   5.253 -0.3295 -0.2830 -0.1058
  322MOL0     C42394  -1.657   4.047   5.281  0.2543 -0.0199  0.0477
  322MOL0     C42395  -1.651   3.996   5.427  0.6141  0.3625 -0.1592
  322MOL0     O42396  -1.748   3.898   5.449 -0.2083  0.3347  0.1375
  322MOL0     C42397  -1.856   3.936   5.524 -0.1062  0.1190 -0.2264
  322MOL0     C42398  -1.972   3.854   5.494  0.3323  0.1187  0.4709
  322MOL0     C42399  -2.095   3.891   5.545 -0.6700  1.0890  0.0689
  322MOL0     C42400  -2.099   3.991   5.637 -0.7907 -0.6902 -0.3859
  322MOL0     C42401  -2.228   4.035   5.693 -0.1352 -0.3027  1.3319
  322MOL0     O42402  -2.221   4.151   5.776 -0.1669  0.1935  0.5739
  322MOL0     C42403  -2.331   4.193   5.853 -0.2371  0.7339 -0.8602
  322MOL0     C42404  -2.462   4.138   5.849  0.7491  0.1652 -0.1025
  322MOL0     C42405  -2.562   4.177   5.941  0.8499 -0.0737 -0.3308
  322MOL0     C42406  -2.544   4.263   6.051  0.4044  0.1733  0.1072
  322MOL0     O42407  -2.649   4.291   6.135 -0.0622 -0.2995  0.0393
  322MOL0     C42408  -2.617   4.391   6.237  0.5725  0.3767  0.0997
  322MOL0     C42409  -2.747   4.444   6.289  0.1869  0.1181  0.4872
  322MOL0     C42410  -2.733   4.580   6.364 -0.2933  0.4341  0.0707
  322MOL0     C42411  -2.873   4.618   6.423  0.5188 -0.1412  0.3328
  322MOL0     C42412  -2.853   4.731   6.528 -1.5932 -0.2113 -0.1913
  322MOL0     C42413  -2.991   4.756   6.591 -0.4544  0.0403  0.9962
  322MOL0     C42414  -2.972   4.848   6.713  0.5290  0.7783  0.1596
  322MOL0     C42415  -3.096   4.863   6.792  0.2597  0.2202 -0.1080
  322MOL0    Cl42416  -3.197   4.983   6.705  0.0795  0.1619 -0.1867
  322MOL0     C42417  -2.412   4.323   6.048 -0.6714 -0.0959  0.0275
  322MOL0     C42418  -2.312   4.287   5.960 -0.5121  0.2975 -0.3065
  322MOL0     O42419  -2.329   3.969   5.660  0.2286 -0.2348 -0.1621
  322MOL0     C42420  -1.988   4.056   5.684 -0.3004 -0.0963  0.5576
  322MOL0     C42421  -1.864   4.034   5.615  0.2813  0.5679 -0.7274
  322MOL0     N42422  -1.238   4.263   5.164  0.1515  0.2465 -0.9189
  322MOL0     N42423  -1.163   4.372   5.168 -0.8128  1.0396 -0.3644
  322MOL0     C42424  -0.189   3.997   5.805 -0.3506 -0.2295  0.4816
  322MOL0     C42425  -0.053   3.946   5.809  0.4696 -0.7843  0.0271
  322MOL0     C42426   0.338   3.786   5.654 -0.6106 -0.8463 -0.0882
  322MOL0     C42427   0.447   3.849   5.723  0.2961  0.5898  0.0295
  322MOL0     C42428   0.575   3.791   5.711 -0.6190 -0.1810 -0.6251
  322MOL0     C42429   0.594   3.675   5.634 -1.3254  0.0717  0.2695
  322MOL0     O42430   0.725   3.615   5.636 -0.1606 -0.0742  0.9637
  322MOL0     C42431   0.781   3.574   5.509 -1.1159  0.3881  0.7871
  322MOL0     C42432   0.787   3.690   5.400  0.3099  0.8028 -0.1865
  322MOL0     C42433   0.859   3.811   5.461  0.3343  0.5866 -0.7880
  322MOL0     C42434   1.018   3.796   5.460  0.0643  0.8297  0.4995
  322MOL0     C42435   1.079   3.840   5.327 -0.1549 -0.0061 -0.0576
  322MOL0     C42436   1.135   3.884   5.223  0.3927  1.2945  0.3805
  322MOL0     C42437   0.487   3.616   5.565 -0.5477  0.4097 -0.1885
  322MOL0     C42438   0.361   3.672   5.579 -0.5615 -0.4184  0.9476
  322MOL0     H42439   0.091   4.172   5.613 -3.0972  2.3954 -1.4151
  322MOL0     H42440  -0.129   4.250   5.586 -0.2638 -0.1108  0.1323
  322MOL0     H42441  -0.365   4.311   5.594  0.2808 -1.1392 -0.3078
  322MOL0     H42442  -0.370   4.308   5.765 -0.6107  2.2150  0.1653
  322MOL0     H42443  -0.602   4.181   5.749 -2.2835  2.7682  1.4465
  322MOL0     H42444  -0.560   4.148   5.582  0.5455 -2.0562  1.6824
  322MOL0     H42445  -0.553   4.415   5.569 -0.1425 -0.9310 -1.3529
  322MOL0     H42446  -0.665   4.413   5.710  1.0553 -1.0213  0.2978
  322MOL0     H42447  -0.710   4.255   5.469  2.3256 -1.2518  2.3010
  322MOL0     H42448  -0.817   4.272   5.605 -1.0345  1.8473  1.6869
  322MOL0     H42449  -0.750   4.486   5.393  0.4434  1.6938  0.7140
  322MOL0     H42450  -0.809   4.535   5.549 -0.8999 -0.4823  0.2524
  322MOL0     H42451  -1.021   4.426   5.524 -0.4423  2.7307  0.4351
  322MOL0     H42452  -0.973   4.341   5.384 -2.5596 -0.4635  1.4940
  322MOL0     H42453  -0.951   4.647   5.391 -3.3946  1.0907  1.0398
  322MOL0     H42454  -0.951   4.536   5.248 -0.9824  0.8212 -0.1741
  322MOL0     H42455  -1.139   4.646   5.248 -2.3909  0.4987  1.3071
  322MOL0     H42456  -1.184   4.605   5.420 -0.2628  0.8688 -0.1429
  322MOL0     H42457  -1.378   4.430   5.411  3.0401 -0.1725  2.7392
  322MOL0     H42458  -1.441   4.155   5.414 -2.2879 -4.4931 -0.5785
  322MOL0     H42459  -1.362   4.065   5.283  0.2223  0.7410 -2.1900
  322MOL0     H42460  -1.561   4.161   5.144 -1.3922  0.0396 -0.1095
  322MOL0     H42461  -1.599   4.254   5.299  2.4536 -0.7782  3.7835
  322MOL0     H42462  -1.757   4.087   5.263 -1.8978 -4.0669  1.6341
  322MOL0     H42463  -1.638   3.965   5.211  0.6420 -2.0667  2.3936
  322MOL0     H42464  -1.649   4.073   5.505 -1.5849 -0.7901  1.1142
  322MOL0     H42465  -1.560   3.937   5.431  0.3441 -0.1265 -0.9861
  322MOL0     H42466  -1.965   3.775   5.419 -1.5533  0.7408 -0.4113
  322MOL0     H42467  -2.181   3.827   5.525  0.5989 -2.0761  3.5737
  322MOL0     H42468  -2.507   4.071   5.776 -2.3118 -1.3323  2.8733
  322MOL0     H42469  -2.656   4.124   5.933  0.6739  0.1673  0.1335
  322MOL0     H42470  -2.550   4.473   6.207 -0.3460  1.6121  1.2774
  322MOL0     H42471  -2.580   4.348   6.330  2.3133  2.0962  0.2810
  322MOL0     H42472  -2.775   4.370   6.364  0.5321 -0.8718 -0.3279
  322MOL0     H42473  -2.815   4.450   6.203  0.6609  1.9374  0.1838
  322MOL0     H42474  -2.701   4.667   6.306 -1.0985  1.1830  0.7122
  322MOL0     H42475  -2.659   4.562   6.442  0.0156 -0.1081 -0.3414
  322MOL0     H42476  -2.929   4.657   6.337 -1.4634  0.7664  1.9544
  322MOL0     H42477  -2.932   4.534   6.460 -1.9230  1.1005 -0.5505
  322MOL0     H42478  -2.805   4.815   6.477 -0.6018 -0.5158  0.2147
  322MOL0     H42479  -2.795   4.681   6.606 -0.8891 -0.8150 -1.0711
  322MOL0     H42480  -3.041   4.665   6.626 -1.6174  0.9524  1.7980
  322MOL0     H42481  -3.054   4.806   6.518  0.9285  2.1155  1.1357
  322MOL0     H42482  -2.893   4.802   6.774  0.0796  0.1395  0.2698
  322MOL0     H42483  -2.935   4.946   6.682 -1.4457  1.8314  0.9774
  322MOL0     H42484  -3.062   4.906   6.887  2.2136 -2.1494  0.3850
  322MOL0     H42485  -3.154   4.770   6.795  0.7905 -0.2390 -2.3502
  322MOL0     H42486  -2.388   4.412   6.104 -1.2293 -1.3218  2.3453
  322MOL0     H42487  -2.229   4.356   5.960 -1.2008  1.1483 -0.8906
  322MOL0     H42488  -1.992   4.131   5.763  1.7685  0.3124  0.3438
  322MOL0     H42489  -1.783   4.097   5.649 -0.0367  1.2436 -1.1963
  322MOL0     H42490  -0.272   3.962   5.865 -1.0978 -0.4881 -0.6689
  322MOL0     H42491  -0.027   3.867   5.879  0.7223 -0.8279 -0.1135
  322MOL0     H42492   0.438   3.935   5.787  0.9336  0.7930 -0.1441
  322MOL0     H42493   0.657   3.828   5.771 -2.5323  2.6538  0.4232
  322MOL0     H42494   0.723   3.493   5.463 -1.7204  1.5328 -0.5105
  322MOL0     H42495   0.878   3.528   5.531 -1.0262  0.6783  1.0066
  322MOL0     H42496   0.829   3.648   5.308 -0.4306  1.1807 -0.6976
  322MOL0     H42497   0.689   3.729   5.374  0.9801  2.9795  0.3294
  322MOL0     H42498   0.828   3.818   5.565 -0.1863  2.3662 -1.0305
  322MOL0     H42499   0.826   3.904   5.414 -0.4056  1.2397  0.9419
  322MOL0     H42500   1.057   3.842   5.552 -0.6574  3.5500 -0.4330
  322MOL0     H42501   1.039   3.690   5.475  2.0211  1.5910  4.4940
  322MOL0     H42502   1.168   3.907   5.124  1.6196 -1.5771  0.0158
  322MOL0     H42503   0.492   3.522   5.511  1.0011  1.2707 -1.6307
  322MOL0     H42504   0.292   3.617   5.515  2.2494 -4.3499  0.8955
  323MOL0     O42505   6.142   9.326   5.503 -0.3058 -0.4055  0.8808
  323MOL0     C42506   6.167   9.319   5.625 -0.5241  1.3098  0.0267
  323MOL0     O42507   6.076   9.332   5.726  0.2391  0.0966 -0.5531
  323MOL0     C42508   5.949   9.371   5.692  0.7169  0.0118  0.4633
  323MOL0     C42509   5.865   9.281   5.628 -0.3132  0.1866  0.8057
  323MOL0     C42510   5.741   9.307   5.587  0.5406 -0.5996  0.0291
  323MOL0     C42511   5.684   9.429   5.614  0.1215  0.0196 -0.4790
  323MOL0     O42512   5.548   9.454   5.596  0.0027  0.6844 -0.1316
  323MOL0     C42513   5.484   9.394   5.479  0.7981 -0.6199  0.4576
  323MOL0     C42514   5.561   9.440   5.350 -0.2801  0.0295  0.1346
  323MOL0     C42515   5.527   9.357   5.229 -0.5559  0.2951  0.0515
  323MOL0     C42516   5.585   9.212   5.239  0.4568  0.8448 -0.0900
  323MOL0     C42517   5.550   9.153   5.101  0.8497 -0.2588 -0.1306
  323MOL0     C42518   5.534   8.996   5.112 -0.7101  0.2327  0.1282
  323MOL0     C42519   5.536   8.936   4.973  0.0643 -0.4301  0.4743
  323MOL0     C42520   5.402   8.952   4.895 -0.5729  0.6837  0.5913
  323MOL0     N42521   5.303   8.866   4.969  0.4644  0.7557  0.0573
  323MOL0     C42522   5.216   8.920   5.061  0.0349  0.1478 -0.3651
  323MOL0     C42523   5.148   8.805   5.087 -0.6764  0.5598  0.0525
  323MOL0     C42524   5.031   8.799   5.188  0.0292  0.5358  0.2524
  323MOL0     C42525   4.900   8.871   5.134 -0.1097 -0.7271  0.0732
  323MOL0     C42526   4.808   8.773   5.060 -0.1128 -0.8845  0.6342
  323MOL0     C42527   4.660   8.811   5.073  0.4048 -0.8975 -0.7215
  323MOL0     O42528   4.612   8.918   4.985  0.0448  0.2040  0.7098
  323MOL0     C42529   4.478   8.947   4.994  0.3432  0.7777 -0.5099
  323MOL0     C42530   4.411   8.979   4.876  0.4289  0.1366 -0.0833
  323MOL0     C42531   4.279   9.018   4.885  0.3848 -0.4675 -0.2951
  323MOL0     C42532   4.204   9.015   4.999  0.2929 -0.0344 -0.6332
  323MOL0     C42533   4.056   9.043   4.992 -0.0874 -1.0064 -0.2221
  323MOL0     O42534   3.991   9.043   5.112 -0.0469  0.1393 -0.4627
  323MOL0     C42535   3.855   9.064   5.119  0.2228 -0.3903 -0.0336
  323MOL0     C42536   3.759   9.008   5.030 -0.0404  0.4697 -0.9469
  323MOL0     C42537   3.618   9.021   5.055 -0.5058  0.0673  0.5249
  323MOL0     C42538   3.578   9.102   5.168 -0.0479  0.5205 -0.3150
  323MOL0     O42539   3.453   9.123   5.199  0.4393 -0.0154  0.4877
  323MOL0     C42540   3.396   9.210   5.108 -0.1550 -0.7075  0.1518
  323MOL0     C42541   3.275   9.277   5.153 -0.1203  0.1183 -0.0320
  323MOL0     C42542   3.158   9.183   5.187  0.2591  0.1035  0.3022
  323MOL0     C42543   3.029   9.265   5.214  0.9575 -0.2008  0.1046
  323MOL0     C42544   2.914   9.171   5.266 -0.6014 -0.7208 -0.1156
  323MOL0     C42545   2.787   9.255   5.293 -0.0011 -0.3767  0.2864
  323MOL0     C42546   2.656   9.175   5.318  0.2258  0.1751 -0.4851
  323MOL0     C42547   2.648   9.114   5.450 -0.6120 -0.0854  0.9618
  323MOL0    Cl42548   2.486   9.051   5.477  0.4981 -0.2611 -0.1665
  323MOL0     C42549   3.680   9.165   5.250 -0.1616 -0.1050 -0.8041
  323MOL0     C42550   3.818   9.153   5.220  0.1728  0.4768  0.2713
  323MOL0     O42551   4.003   9.056   4.877 -0.4190 -0.7537 -0.3653
  323MOL0     C42552   4.261   8.968   5.121 -0.2596 -0.2914  0.0419
  323MOL0     C42553   4.404   8.944   5.117  0.2951  0.0224 -0.0025
  323MOL0     N42554   5.179   8.692   5.014 -0.1559 -1.1097  0.0614
  323MOL0     N42555   5.278   8.733   4.948 -0.0493  0.3826  0.3206
  323MOL0     C42556   5.766   9.523   5.680  0.7712 -0.3201  0.0598
  323MOL0     C42557   5.898   9.497   5.719 -0.4181  0.1555 -0.1374
  323MOL0     C42558   6.305   9.279   5.668 -0.0549  0.3942  0.2141
  323MOL0     C42559   6.398   9.226   5.577 -0.5438 -0.3965  0.5516
  323MOL0     C42560   6.511   9.161   5.631 -0.6473  0.2047  0.0904
  323MOL0     C42561   6.547   9.161   5.768  0.3814  0.2327 -0.5018
  323MOL0     O42562   6.662   9.096   5.804  0.2102 -0.3600 -0.2236
  323MOL0     C42563   6.699   9.064   5.940 -0.4440 -0.5273  0.1841
  323MOL0     C42564   6.793   9.165   6.004 -0.1171 -0.2625  0.4213
  323MOL0     C42565   6.945   9.178   5.968  0.2357  0.5043  0.0170
  323MOL0     C42566   7.033   9.274   6.044 -0.4156 -0.0546 -0.2386
  323MOL0     C42567   7.166   9.259   5.991  0.0309 -0.4429 -0.1101
  323MOL0     C42568   7.268   9.239   5.936  0.1707  0.3839 -0.6564
  323MOL0     C42569   6.466   9.242   5.854  0.6227  0.4437 -0.1804
  323MOL0     C42570   6.343   9.281   5.803 -0.3411  0.2733 -0.6937
  323MOL0     H42571   5.897   9.177   5.621 -1.1755 -0.3030  3.1788
  323MOL0     H42572   5.682   9.225   5.548  1.3226 -3.6157  4.4602
  323MOL0     H42573   5.382   9.432   5.477  1.1272  0.2305 -1.2282
  323MOL0     H42574   5.481   9.286   5.497  0.8261 -0.3923  1.9432
  323MOL0     H42575   5.670   9.429   5.354 -0.2936  0.1007  0.7600
  323MOL0     H42576   5.539   9.547   5.344 -1.1626 -0.1983 -1.1777
  323MOL0     H42577   5.548   9.407   5.133  1.1067  0.9742  0.7253
  323MOL0     H42578   5.418   9.350   5.232 -0.7209  1.4835 -1.5628
  323MOL0     H42579   5.694   9.213   5.247  0.3596  0.0739  1.6651
  323MOL0     H42580   5.544   9.151   5.319 -1.2717 -0.1196 -1.6263
  323MOL0     H42581   5.633   9.172   5.032 -1.1206 -1.5716 -3.0772
  323MOL0     H42582   5.452   9.188   5.069  1.1341  1.2925  0.5878
  323MOL0     H42583   5.454   8.973   5.184 -0.5579  0.3301  0.3302
  323MOL0     H42584   5.622   8.960   5.166 -2.5195 -0.5519  2.7873
  323MOL0     H42585   5.609   8.987   4.909 -1.2180 -0.7877 -1.3450
  323MOL0     H42586   5.557   8.829   4.974  2.8937 -0.0334 -1.8112
  323MOL0     H42587   5.409   8.910   4.794 -3.3283  0.1911  0.5267
  323MOL0     H42588   5.363   9.053   4.887 -1.9582  0.1138 -0.3021
  323MOL0     H42589   5.210   9.019   5.105  1.2073 -0.2555  0.7521
  323MOL0     H42590   5.072   8.856   5.272  0.9623 -0.2114  0.3114
  323MOL0     H42591   5.016   8.698   5.228  1.2357  0.2743  0.0834
  323MOL0     H42592   4.917   8.960   5.071  0.7297  0.0810  1.3789
  323MOL0     H42593   4.841   8.905   5.219  1.0171  0.2248  0.5000
  323MOL0     H42594   4.833   8.766   4.954 -0.7970  0.1090  0.3932
  323MOL0     H42595   4.822   8.677   5.112  2.6421  0.1234  1.9401
  323MOL0     H42596   4.638   8.836   5.177 -1.2246  2.7800 -1.7825
  323MOL0     H42597   4.604   8.720   5.048 -1.0733  0.3347 -2.0600
  323MOL0     H42598   4.466   8.988   4.783 -0.3810 -1.1108 -0.6963
  323MOL0     H42599   4.236   9.046   4.790  1.5712  0.0797 -0.6898
  323MOL0     H42600   3.787   8.951   4.942  3.0428  1.0680 -0.4745
  323MOL0     H42601   3.540   8.987   4.988  1.4388 -2.2263 -0.6964
  323MOL0     H42602   3.357   9.145   5.029 -5.4056  1.1355  0.8022
  323MOL0     H42603   3.470   9.274   5.060  2.7262 -3.3802  0.6978
  323MOL0     H42604   3.244   9.350   5.077  1.6164  1.3252  0.3482
  323MOL0     H42605   3.298   9.328   5.247 -1.6699 -3.5036  2.4971
  323MOL0     H42606   3.182   9.122   5.275 -1.0990  1.6310  1.7977
  323MOL0     H42607   3.145   9.119   5.100  2.8365 -2.4868  1.6128
  323MOL0     H42608   3.035   9.339   5.294 -0.4564  0.0831 -0.0346
  323MOL0     H42609   2.995   9.313   5.121  1.8111  0.5633  0.1700
  323MOL0     H42610   2.950   9.123   5.358 -0.9372 -2.9068 -1.0632
  323MOL0     H42611   2.884   9.092   5.197 -1.7038 -1.0114  0.6801
  323MOL0     H42612   2.759   9.323   5.211 -2.2921 -1.7166 -0.1517
  323MOL0     H42613   2.800   9.315   5.383 -1.3874 -0.9688  0.9061
  323MOL0     H42614   2.580   9.253   5.308 -2.2969 -2.2006 -1.3941
  323MOL0     H42615   2.636   9.104   5.236 -0.4198  0.2540 -0.4027
  323MOL0     H42616   2.675   9.182   5.531  0.4383 -1.7331  2.0592
  323MOL0     H42617   2.712   9.025   5.454 -3.4383 -2.2994  5.1234
  323MOL0     H42618   3.652   9.238   5.326 -0.8477 -1.6177  0.4439
  323MOL0     H42619   3.892   9.195   5.287  1.4107  0.8850 -1.2886
  323MOL0     H42620   4.211   8.965   5.217  0.4163 -2.1572  0.3719
  323MOL0     H42621   4.454   8.929   5.212 -2.0441 -0.8592  1.1763
  323MOL0     H42622   5.726   9.617   5.719  3.0017 -0.1929  2.3388
  323MOL0     H42623   5.961   9.568   5.772 -1.0272  0.0758  0.7197
  323MOL0     H42624   6.387   9.240   5.470  1.4866  0.0861  0.3547
  323MOL0     H42625   6.593   9.144   5.561 -0.9470  0.1482 -0.2517
  323MOL0     H42626   6.755   8.971   5.925  0.2774 -0.1951  0.8133
  323MOL0     H42627   6.614   9.043   6.006 -0.7406 -0.8454 -0.2884
  323MOL0     H42628   6.743   9.258   5.975 -1.7111 -1.5947 -1.3240
  323MOL0     H42629   6.786   9.167   6.113  0.1312  0.8873  0.4335
  323MOL0     H42630   6.958   9.188   5.860 -0.9562  0.2391 -0.1724
  323MOL0     H42631   6.989   9.082   5.997 -0.8558 -0.1190 -0.3067
  323MOL0     H42632   7.000   9.375   6.019 -0.1220 -0.6696 -3.5264
  323MOL0     H42633   7.032   9.239   6.148 -0.4988  0.5957 -0.0189
  323MOL0     H42634   7.370   9.238   5.903  1.1180  0.8567  2.0222
  323MOL0     H42635   6.481   9.250   5.961 -0.4386  1.4078 -0.0818
  323MOL0     H42636   6.268   9.316   5.874  0.6038  0.6211  0.1523
  324MOL0     O42637   8.972   1.943   4.118  0.0770  0.3441 -0.6660
  324MOL0     C42638   9.070   2.007   4.154  0.7580 -0.0761  0.2997
  324MOL0     O42639   9.068   2.095   4.246 -0.0958 -0.2500 -0.2133
  324MOL0     C42640   8.987   2.107   4.350  0.2499  0.3860 -0.0860
  324MOL0     C42641   8.899   2.011   4.394  0.2809 -0.0863 -0.2615
  324MOL0     C42642   8.813   2.048   4.508 -0.0991  0.3398 -0.5958
  324MOL0     C42643   8.831   2.163   4.577  0.1492 -0.8010  0.7933
  324MOL0     O42644   8.771   2.189   4.695 -0.2232  0.2122  0.3794
  324MOL0     C42645   8.685   2.309   4.705 -0.6599  0.8505  0.4449
  324MOL0     C42646   8.763   2.414   4.791  0.1732  0.3567 -0.4085
  324MOL0     C42647   8.663   2.523   4.828  0.3041  0.1033 -0.6067
  324MOL0     C42648   8.720   2.640   4.918  0.3896  0.5273 -0.3860
  324MOL0     C42649   8.608   2.733   4.962 -0.0082 -0.4770 -0.3054
  324MOL0     C42650   8.661   2.867   5.030  0.3558  0.6464  0.3144
  324MOL0     C42651   8.739   2.961   4.944 -0.3087 -0.3477 -0.0665
  324MOL0     C42652   8.647   3.050   4.846  0.1435  0.0197 -0.2632
  324MOL0     N42653   8.572   3.149   4.926  0.3967  1.0057 -0.1397
  324MOL0     C42654   8.592   3.200   5.055 -0.4200  0.1684 -0.3673
  324MOL0     C42655   8.496   3.292   5.066  0.1525 -1.4546 -0.3423
  324MOL0     C42656   8.482   3.370   5.202 -1.0935  0.4394 -0.2298
  324MOL0     C42657   8.336   3.416   5.222  0.4618  0.4536  0.4259
  324MOL0     C42658   8.315   3.485   5.362 -0.2109 -0.4651  0.0600
  324MOL0     C42659   8.168   3.519   5.394  1.2326  0.0481 -0.0533
  324MOL0     O42660   8.148   3.533   5.531  0.0735 -0.1698  0.1065
  324MOL0     C42661   8.022   3.553   5.584  0.3792  0.5218 -0.1426
  324MOL0     C42662   8.021   3.636   5.699 -0.5239  0.3641  0.4875
  324MOL0     C42663   7.901   3.649   5.772  0.3089  0.7761  0.4373
  324MOL0     C42664   7.780   3.602   5.733  0.5743  0.7679  0.0388
  324MOL0     C42665   7.652   3.608   5.817  0.1026  0.2254 -0.4552
  324MOL0     O42666   7.529   3.587   5.757 -0.0877  0.3114 -0.5450
  324MOL0     C42667   7.417   3.582   5.838 -0.4442  0.0867 -0.1250
  324MOL0     C42668   7.313   3.677   5.804  1.0525  0.1487  0.6939
  324MOL0     C42669   7.191   3.671   5.877 -0.2558  0.2351 -0.3858
  324MOL0     C42670   7.159   3.571   5.978  0.3351  0.9472  0.2642
  324MOL0     O42671   7.033   3.561   6.039  0.8933 -0.5685  0.2799
  324MOL0     C42672   6.948   3.681   6.035  0.5057  0.6118 -1.3091
  324MOL0     C42673   6.829   3.667   6.116  0.0416  0.0446  0.0643
  324MOL0     C42674   6.709   3.770   6.084  0.1257 -0.5976 -0.1062
  324MOL0     C42675   6.611   3.787   6.200  0.4076  0.4336 -0.2963
  324MOL0     C42676   6.473   3.854   6.160 -1.2587  0.0848  0.9858
  324MOL0     C42677   6.370   3.867   6.273  0.3970  0.3524  0.7869
  324MOL0     C42678   6.229   3.902   6.220  0.5328 -0.2847 -0.9567
  324MOL0     C42679   6.117   3.921   6.326 -0.5558  0.9568 -0.7430
  324MOL0    Cl42680   6.154   4.043   6.441  0.0486  0.1563  0.1811
  324MOL0     C42681   7.259   3.482   6.001 -0.4716 -0.5255 -0.3015
  324MOL0     C42682   7.392   3.493   5.941 -0.2304 -1.0313 -0.2339
  324MOL0     O42683   7.671   3.644   5.937 -0.8676 -0.1123  0.4256
  324MOL0     C42684   7.788   3.518   5.615 -0.0512  0.4554  0.3425
  324MOL0     C42685   7.905   3.501   5.541  0.2521  1.6884  0.0755
  324MOL0     N42686   8.413   3.289   4.958  0.3824 -0.0434 -0.5756
  324MOL0     N42687   8.462   3.214   4.872 -0.1276  0.6164 -0.0145
  324MOL0     C42688   8.926   2.254   4.529 -0.3796 -1.0235  0.0949
  324MOL0     C42689   8.998   2.228   4.412  0.3568 -0.4137 -0.5606
  324MOL0     C42690   9.186   1.998   4.062 -0.5804 -0.3812  0.9293
  324MOL0     C42691   9.179   1.923   3.935 -0.1777  0.0699 -0.3095
  324MOL0     C42692   9.295   1.910   3.860 -0.6362 -0.5088  0.1342
  324MOL0     C42693   9.414   1.976   3.892  0.5927  0.2977  1.3870
  324MOL0     O42694   9.525   1.951   3.826  0.0067 -0.2887 -0.1012
  324MOL0     C42695   9.584   2.063   3.759  0.2109  0.0231 -0.7499
  324MOL0     C42696   9.737   2.060   3.778 -0.4666  0.8105  0.2371
  324MOL0     C42697   9.791   1.930   3.705  0.1036 -0.4170 -0.0400
  324MOL0     C42698   9.949   1.930   3.722 -0.0595  1.0202 -0.0815
  324MOL0     C42699  10.007   2.047   3.653 -0.0182  0.5126  0.4260
  324MOL0     C42700  10.052   2.145   3.599 -0.6934  0.1076  0.0512
  324MOL0     C42701   9.415   2.059   4.002 -0.1628  0.0728 -0.9775
  324MOL0     C42702   9.306   2.068   4.094 -0.0888  0.4766  0.0252
  324MOL0     H42703   8.890   1.914   4.346  0.3634 -0.3336  0.2184
  324MOL0     H42704   8.745   1.976   4.551 -0.9155  3.0300  3.1399
  324MOL0     H42705   8.593   2.281   4.758  0.3921  0.7288  2.2875
  324MOL0     H42706   8.664   2.344   4.604  1.3203 -0.6849 -0.5596
  324MOL0     H42707   8.838   2.447   4.718 -2.3392  1.7162 -2.5597
  324MOL0     H42708   8.808   2.364   4.877  1.1870  0.9143 -0.5928
  324MOL0     H42709   8.572   2.481   4.872 -0.3419  1.4919 -0.5623
  324MOL0     H42710   8.623   2.566   4.736 -0.3047  0.7632 -0.0393
  324MOL0     H42711   8.776   2.617   5.009 -0.9939  3.2631  1.2645
  324MOL0     H42712   8.785   2.695   4.849  1.4588 -1.0080 -0.6767
  324MOL0     H42713   8.541   2.691   5.037 -1.0914  2.0855  0.2727
  324MOL0     H42714   8.555   2.766   4.872  0.4053 -1.0720 -0.7771
  324MOL0     H42715   8.733   2.842   5.108  1.1646  1.5588 -0.1201
  324MOL0     H42716   8.579   2.915   5.084 -0.2497 -0.6018  0.5366
  324MOL0     H42717   8.811   3.011   5.009 -0.7042 -3.3426  2.9848
  324MOL0     H42718   8.809   2.902   4.884 -0.7838 -0.7495 -0.2328
  324MOL0     H42719   8.581   2.991   4.782  0.1316 -1.0051  0.6616
  324MOL0     H42720   8.713   3.113   4.785  2.0299  1.3467  2.8553
  324MOL0     H42721   8.670   3.168   5.123  0.2050 -1.8358 -1.9394
  324MOL0     H42722   8.547   3.458   5.198  0.4607 -0.5502  1.7405
  324MOL0     H42723   8.529   3.321   5.287 -0.1261 -0.1121 -1.0566
  324MOL0     H42724   8.265   3.332   5.218 -0.0447  0.8602  0.7656
  324MOL0     H42725   8.315   3.487   5.141  2.3824 -0.3232 -0.8292
  324MOL0     H42726   8.358   3.421   5.439  0.5355 -3.1524 -2.4210
  324MOL0     H42727   8.369   3.580   5.353 -3.1641  1.1912 -2.4679
  324MOL0     H42728   8.109   3.437   5.350  0.2591  1.5799 -1.7467
  324MOL0     H42729   8.137   3.608   5.338 -0.9988 -0.4819  0.2513
  324MOL0     H42730   8.111   3.676   5.744 -1.1078  1.9907  0.2650
  324MOL0     H42731   7.903   3.699   5.868 -0.5261 -0.3568  1.0769
  324MOL0     H42732   7.337   3.758   5.736 -0.5451  0.7463  0.8084
  324MOL0     H42733   7.117   3.749   5.859 -2.2684 -0.4280  3.8384
  324MOL0     H42734   6.903   3.694   5.936 -4.3018 -0.9443  0.3986
  324MOL0     H42735   7.001   3.774   6.059 -2.9796  2.0589  1.7833
  324MOL0     H42736   6.850   3.669   6.223 -0.1846  0.2046  0.1071
  324MOL0     H42737   6.785   3.568   6.097 -1.2130  0.4774  0.5823
  324MOL0     H42738   6.655   3.733   5.996 -2.3506  1.5786  0.3697
  324MOL0     H42739   6.742   3.873   6.076  0.6554 -0.6245  1.4188
  324MOL0     H42740   6.587   3.689   6.243  1.9843  0.8537  1.6401
  324MOL0     H42741   6.659   3.846   6.278  1.5667 -3.0745  1.8668
  324MOL0     H42742   6.426   3.801   6.077 -3.2659  1.2120  1.3263
  324MOL0     H42743   6.488   3.958   6.128 -4.2181  0.1350 -0.5611
  324MOL0     H42744   6.403   3.932   6.354  2.2881  0.9055 -0.3544
  324MOL0     H42745   6.363   3.769   6.319  0.9707  1.6967  3.9964
  324MOL0     H42746   6.236   3.995   6.162 -0.4064 -0.0526 -0.7169
  324MOL0     H42747   6.190   3.821   6.157  0.8943 -1.8547  0.7808
  324MOL0     H42748   6.110   3.823   6.373  0.1518 -0.7518 -3.8655
  324MOL0     H42749   6.018   3.943   6.283 -1.4263  3.5030  2.2080
  324MOL0     H42750   7.244   3.399   6.069  0.6166 -0.0347  0.5853
  324MOL0     H42751   7.468   3.419   5.962  0.2327 -0.4556  0.1437
  324MOL0     H42752   7.696   3.491   5.564  0.6168  0.5479 -0.9397
  324MOL0     H42753   7.898   3.443   5.449  2.6652  1.6518 -0.1570
  324MOL0     H42754   8.938   2.355   4.566 -2.5401  0.8465 -3.6986
  324MOL0     H42755   9.071   2.297   4.370 -0.8624  1.3058  0.0026
  324MOL0     H42756   9.086   1.870   3.918  0.2523 -0.5035 -0.9357
  324MOL0     H42757   9.283   1.837   3.782  1.9624  0.3270 -1.1466
  324MOL0     H42758   9.554   2.161   3.799  1.1086 -1.1757  3.3282
  324MOL0     H42759   9.554   2.061   3.654 -0.7274  2.4815 -0.6093
  324MOL0     H42760   9.763   2.158   3.739 -3.0357  1.6627  0.4671
  324MOL0     H42761   9.756   2.056   3.885  0.0095  2.3427  0.2328
  324MOL0     H42762   9.763   1.944   3.600  2.4536  2.4837 -0.4217
  324MOL0     H42763   9.755   1.833   3.740 -0.7583  0.6029  2.0788
  324MOL0     H42764   9.969   1.911   3.828 -0.3376  0.4779 -0.1225
  324MOL0     H42765   9.986   1.839   3.674 -1.6891  0.0546  0.4040
  324MOL0     H42766  10.104   2.230   3.560 -0.3709  0.8411  1.9441
  324MOL0     H42767   9.504   2.115   4.029 -1.1813  1.8051 -1.0674
  324MOL0     H42768   9.305   2.141   4.174 -2.5905  1.6833 -0.9939
  325MOL0     O42769   1.465   7.396   3.843 -0.0853 -0.0423  0.3603
  325MOL0     C42770   1.554   7.405   3.756  0.9738  0.0088  0.1594
  325MOL0     O42771   1.532   7.409   3.619 -0.5429 -0.2377 -0.4816
  325MOL0     C42772   1.413   7.453   3.569  0.3646 -0.2441 -0.4735
  325MOL0     C42773   1.349   7.373   3.481  0.2634 -0.1099 -1.2023
  325MOL0     C42774   1.227   7.412   3.428  0.0700  0.2117  0.5311
  325MOL0     C42775   1.166   7.533   3.460  0.9483 -0.2589  0.7068
  325MOL0     O42776   1.033   7.560   3.415 -0.0092  0.3737  0.0368
  325MOL0     C42777   0.989   7.516   3.283 -0.8419  0.1503  0.5567
  325MOL0     C42778   0.888   7.621   3.229  0.2029  0.1067  0.3418
  325MOL0     C42779   0.745   7.608   3.274 -0.1219  0.6580 -0.1350
  325MOL0     C42780   0.667   7.728   3.233  0.0148 -0.8481  0.5802
  325MOL0     C42781   0.516   7.692   3.212  0.4338  1.1863 -0.7195
  325MOL0     C42782   0.451   7.639   3.343 -0.0568  0.6163  0.6527
  325MOL0     C42783   0.306   7.613   3.333 -0.9402  0.1594  0.2671
  325MOL0     C42784   0.264   7.533   3.454  0.3809 -0.0072 -0.1730
  325MOL0     N42785   0.123   7.514   3.464  0.2937  0.1357 -0.3207
  325MOL0     C42786   0.021   7.598   3.414  0.0879 -0.2279  0.3842
  325MOL0     C42787  -0.093   7.529   3.438 -0.3961  0.2699 -0.0179
  325MOL0     C42788  -0.235   7.574   3.404  0.4498 -0.3863 -0.2540
  325MOL0     C42789  -0.271   7.723   3.434 -0.3220  1.0096 -0.0485
  325MOL0     C42790  -0.416   7.747   3.383 -0.3035 -0.7784  0.9765
  325MOL0     C42791  -0.523   7.739   3.489 -0.0319 -0.9345 -0.0172
  325MOL0     O42792  -0.654   7.752   3.428 -0.0578 -0.2944 -0.4834
  325MOL0     C42793  -0.763   7.773   3.512 -0.1220  0.2519 -0.9892
  325MOL0     C42794  -0.888   7.774   3.460  0.2567 -0.0621  0.8227
  325MOL0     C42795  -1.005   7.790   3.545 -0.8234  0.8583  0.4464
  325MOL0     C42796  -1.000   7.791   3.683  0.7347 -0.1034  0.0851
  325MOL0     C42797  -1.114   7.833   3.765  0.4634  0.4399  0.4395
  325MOL0     O42798  -1.226   7.858   3.691 -0.9468 -1.1946 -0.0722
  325MOL0     C42799  -1.342   7.899   3.745  0.4747  0.1807 -0.8879
  325MOL0     C42800  -1.455   7.868   3.672  0.5213 -0.2665  0.4359
  325MOL0     C42801  -1.580   7.922   3.692  0.2933  1.1450 -0.0220
  325MOL0     C42802  -1.593   8.001   3.809  0.8656  0.3371 -0.6453
  325MOL0     O42803  -1.717   8.055   3.855 -0.4756 -0.2653 -0.1364
  325MOL0     C42804  -1.823   8.040   3.769  0.0147  0.0424 -0.1641
  325MOL0     C42805  -1.941   8.124   3.826 -0.2852  0.3144  0.2931
  325MOL0     C42806  -2.048   8.140   3.717  0.4904 -0.2853 -0.2821
  325MOL0     C42807  -2.139   8.266   3.746  0.0157  1.0303 -0.5724
  325MOL0     C42808  -2.286   8.237   3.708  0.2787  0.3843 -0.5087
  325MOL0     C42809  -2.348   8.136   3.811  0.2360 -0.9484  0.5570
  325MOL0     C42810  -2.495   8.145   3.834  0.9558 -0.4386 -0.8605
  325MOL0     C42811  -2.587   8.138   3.701  0.0854  0.1554  0.6240
  325MOL0    Cl42812  -2.627   8.300   3.649 -0.2008  0.0145  0.2218
  325MOL0     C42813  -1.490   8.030   3.886  0.5761  0.0252 -0.0359
  325MOL0     C42814  -1.360   7.977   3.857  0.3190  1.0308 -0.1087
  325MOL0     O42815  -1.104   7.836   3.887  0.7898 -0.2538 -0.6779
  325MOL0     C42816  -0.869   7.785   3.739 -0.1064  0.6350 -0.0646
  325MOL0     C42817  -0.760   7.783   3.653 -0.2125  0.1905  0.9214
  325MOL0     N42818  -0.062   7.406   3.491  0.1285 -0.3267  0.0687
  325MOL0     N42819   0.064   7.395   3.505  0.6589  0.5314  0.1242
  325MOL0     C42820   1.227   7.621   3.552  0.7723 -0.6074 -0.0620
  325MOL0     C42821   1.352   7.582   3.607 -0.1575 -0.5764  1.2025
  325MOL0     C42822   1.692   7.407   3.812 -0.7030  0.9710 -0.6999
  325MOL0     C42823   1.723   7.391   3.952  0.8241 -0.4333 -0.0797
  325MOL0     C42824   1.858   7.384   4.002  0.4116  0.0218  0.2830
  325MOL0     C42825   1.969   7.401   3.914 -0.0772  0.4094 -0.0803
  325MOL0     O42826   2.102   7.390   3.961 -0.6079 -0.1494 -1.2356
  325MOL0     C42827   2.127   7.311   4.084  0.6737 -0.2438  0.0616
  325MOL0     C42828   2.272   7.263   4.094  1.4400 -0.1061  0.1972
  325MOL0     C42829   2.372   7.376   4.065  0.4392 -0.3863  0.3632
  325MOL0     C42830   2.512   7.330   4.103 -0.5467  0.1840 -0.1862
  325MOL0     C42831   2.558   7.223   4.019 -0.2336  0.3249  0.4002
  325MOL0     C42832   2.583   7.138   3.934  0.1489 -0.3446 -0.8727
  325MOL0     C42833   1.939   7.423   3.781 -0.1590  0.4163 -0.4184
  325MOL0     C42834   1.810   7.420   3.732 -1.1552 -0.0591  0.6603
  325MOL0     H42835   1.391   7.274   3.463  1.2846 -0.1333  1.0526
  325MOL0     H42836   1.187   7.334   3.364  0.3650  0.3671  0.1504
  325MOL0     H42837   0.947   7.416   3.269  0.3708 -0.4564  1.0752
  325MOL0     H42838   1.080   7.522   3.222 -0.1097  1.1146  1.6945
  325MOL0     H42839   0.890   7.598   3.122  1.9847 -4.1652  1.0855
  325MOL0     H42840   0.918   7.722   3.259  1.1532  0.2551 -1.0243
  325MOL0     H42841   0.720   7.596   3.380 -4.4304  1.3319 -0.8801
  325MOL0     H42842   0.708   7.520   3.220 -1.6829 -0.3579  2.4242
  325MOL0     H42843   0.680   7.808   3.306 -0.8639 -1.1818  1.1117
  325MOL0     H42844   0.705   7.762   3.136 -0.5557  2.3312  1.3440
  325MOL0     H42845   0.499   7.610   3.142  0.1778  0.0492  0.6323
  325MOL0     H42846   0.460   7.774   3.169 -0.8585 -0.5409 -2.4958
  325MOL0     H42847   0.460   7.720   3.417 -2.0057 -0.3262  2.0150
  325MOL0     H42848   0.501   7.547   3.374 -0.0642 -1.2627 -4.0804
  325MOL0     H42849   0.256   7.705   3.303  2.0407  1.7464 -0.1838
  325MOL0     H42850   0.284   7.556   3.242  0.2753 -1.6296  1.0169
  325MOL0     H42851   0.286   7.597   3.540  2.7031 -1.7883  0.6733
  325MOL0     H42852   0.324   7.442   3.465 -1.5299 -1.2791  0.1354
  325MOL0     H42853   0.031   7.693   3.363 -1.0744 -0.5576 -0.4978
  325MOL0     H42854  -0.308   7.500   3.438  0.4550 -2.0494 -3.4279
  325MOL0     H42855  -0.245   7.578   3.295 -1.2136 -1.9566 -0.2142
  325MOL0     H42856  -0.211   7.786   3.368 -1.1732  1.3684 -0.4913
  325MOL0     H42857  -0.253   7.766   3.533 -0.6943  1.2067 -0.0650
  325MOL0     H42858  -0.407   7.845   3.334  0.2283 -0.8312  0.9617
  325MOL0     H42859  -0.440   7.680   3.301 -0.7835  0.2571  0.2491
  325MOL0     H42860  -0.519   7.820   3.562 -1.2740  0.9886 -1.9662
  325MOL0     H42861  -0.512   7.640   3.533  2.8701 -0.4814  0.4993
  325MOL0     H42862  -0.879   7.770   3.352 -0.4606  0.9606  0.7125
  325MOL0     H42863  -1.106   7.788   3.505 -1.0280  2.9503  0.7431
  325MOL0     H42864  -1.425   7.806   3.588  1.6744  2.4968 -1.3523
  325MOL0     H42865  -1.656   7.905   3.616  2.4786 -0.8874 -1.9444
  325MOL0     H42866  -1.857   7.936   3.762 -0.5234  0.1892  0.2466
  325MOL0     H42867  -1.793   8.067   3.667  1.4578 -0.7284  0.0232
  325MOL0     H42868  -1.896   8.217   3.861  0.4845  0.1293 -0.1900
  325MOL0     H42869  -1.996   8.077   3.908 -0.3122 -1.3144 -0.6154
  325MOL0     H42870  -2.103   8.045   3.716  0.9327 -0.5421 -0.8101
  325MOL0     H42871  -2.007   8.163   3.619  1.0597  2.5196  0.5275
  325MOL0     H42872  -2.143   8.299   3.850 -3.0883  0.3772 -0.3785
  325MOL0     H42873  -2.105   8.351   3.686 -2.1403  2.4882  0.1290
  325MOL0     H42874  -2.307   8.197   3.608  2.2611 -2.3200  0.0306
  325MOL0     H42875  -2.338   8.332   3.720 -0.7344 -0.4330  2.2851
  325MOL0     H42876  -2.302   8.163   3.906 -4.3953  0.3508  2.7442
  325MOL0     H42877  -2.319   8.033   3.789  0.5169 -0.2946 -2.6782
  325MOL0     H42878  -2.521   8.063   3.901  1.4469  1.2225  1.4946
  325MOL0     H42879  -2.519   8.231   3.897  0.0756 -0.6897 -0.8401
  325MOL0     H42880  -2.681   8.084   3.708  1.2349 -2.2302 -1.1542
  325MOL0     H42881  -2.531   8.083   3.625 -0.2499  0.5562  0.0856
  325MOL0     H42882  -1.488   8.082   3.982  0.9367 -0.3058  0.1389
  325MOL0     H42883  -1.287   8.007   3.932  0.4291  2.4896 -0.7827
  325MOL0     H42884  -0.838   7.816   3.839  0.3235  4.2003 -1.1587
  325MOL0     H42885  -0.661   7.793   3.698  1.5704 -1.5562 -2.1884
  325MOL0     H42886   1.177   7.715   3.575 -0.5706 -0.9048 -1.5383
  325MOL0     H42887   1.412   7.638   3.677  1.6327  0.2198 -0.8394
  325MOL0     H42888   1.652   7.373   4.032  1.5259  0.6555  0.8292
  325MOL0     H42889   1.881   7.344   4.100 -0.5908 -1.1688  0.0546
  325MOL0     H42890   2.057   7.228   4.073 -1.4454  1.4827 -0.1747
  325MOL0     H42891   2.091   7.364   4.172 -0.2018 -3.7475  1.9796
  325MOL0     H42892   2.290   7.218   4.192 -0.5525 -1.6955 -0.0973
  325MOL0     H42893   2.274   7.190   4.013  0.1310  1.2624 -1.1456
  325MOL0     H42894   2.345   7.457   4.134 -2.8984 -1.6838  0.7830
  325MOL0     H42895   2.359   7.417   3.964 -1.3086  1.4332  1.2509
  325MOL0     H42896   2.583   7.412   4.093  2.7471 -2.6065 -2.0824
  325MOL0     H42897   2.508   7.312   4.211 -1.2266  2.8017  0.2786
  325MOL0     H42898   2.607   7.071   3.854  0.1902 -3.0641  1.2931
  325MOL0     H42899   2.029   7.445   3.724  1.0549  1.7210  1.8513
  325MOL0     H42900   1.794   7.464   3.634  2.5638 -3.6155 -1.8742
  326MOL0     O42901   3.697  10.843   1.089 -0.1783  0.3909  0.3409
  326MOL0     C42902   3.672  10.941   1.149 -0.3480 -0.2679  0.1618
  326MOL0     O42903   3.557  11.008   1.131 -0.4451  0.3513  0.0931
  326MOL0     C42904   3.472  10.957   1.048 -0.3172 -0.3013  0.1694
  326MOL0     C42905   3.482  10.971   0.910  0.3929  0.2405 -0.0622
  326MOL0     C42906   3.381  10.912   0.826 -0.3731 -1.1254  0.6642
  326MOL0     C42907   3.269  10.841   0.880  0.0359 -0.1084 -0.9561
  326MOL0     O42908   3.183  10.790   0.799 -0.3119  0.2027 -0.0706
  326MOL0     C42909   3.052  10.846   0.808  0.3806  0.1601  0.1830
  326MOL0     C42910   2.959  10.796   0.696 -0.0343 -0.6826  0.3535
  326MOL0     C42911   2.822  10.770   0.757  0.0930  0.5786 -0.6342
  326MOL0     C42912   2.728  10.706   0.653 -0.3691 -0.7184 -0.4965
  326MOL0     C42913   2.605  10.657   0.717  0.4591 -0.4519  0.1204
  326MOL0     C42914   2.518  10.585   0.613  0.2545  0.2514 -0.5380
  326MOL0     C42915   2.372  10.555   0.651 -0.1839  0.4787 -0.4559
  326MOL0     C42916   2.370  10.422   0.731  0.7582  0.0289 -0.3064
  326MOL0     N42917   2.230  10.396   0.780 -0.3509  0.6073  0.4255
  326MOL0     C42918   2.169  10.463   0.877  0.0345 -0.4366  0.2140
  326MOL0     C42919   2.051  10.404   0.902  1.1314  0.0354  0.7973
  326MOL0     C42920   1.953  10.459   1.006 -0.5414 -0.7291 -0.9930
  326MOL0     C42921   1.816  10.393   1.000 -1.1640  0.5276  0.3922
  326MOL0     C42922   1.715  10.457   1.098  0.5355 -0.2843  0.3689
  326MOL0     C42923   1.588  10.380   1.110 -0.8321  0.0956  0.0149
  326MOL0     O42924   1.505  10.449   1.202  0.6133 -0.3484 -0.4287
  326MOL0     C42925   1.399  10.527   1.172  1.0182 -0.5200  1.3537
  326MOL0     C42926   1.313  10.568   1.279 -0.6724 -0.3700  0.1117
  326MOL0     C42927   1.192  10.634   1.250 -0.7223 -0.9241  0.0150
  326MOL0     C42928   1.156  10.664   1.116  1.4063 -0.2450 -0.6128
  326MOL0     C42929   1.028  10.730   1.077 -0.3460 -0.0467 -0.3484
  326MOL0     O42930   1.003  10.757   0.949  0.1422 -0.1290 -0.2017
  326MOL0     C42931   0.879  10.812   0.924 -0.4896 -0.0879  0.3239
  326MOL0     C42932   0.785  10.729   0.854 -0.9808 -0.6222 -0.9810
  326MOL0     C42933   0.664  10.788   0.827 -0.1405  0.3927 -0.2004
  326MOL0     C42934   0.626  10.916   0.879 -0.1651  0.2844 -0.1994
  326MOL0     O42935   0.503  10.980   0.857  0.4606 -0.1969 -0.4578
  326MOL0     C42936   0.386  10.902   0.859 -0.1980  0.3725  0.1150
  326MOL0     C42937   0.262  10.994   0.845 -0.2650  0.3258  0.3688
  326MOL0     C42938   0.137  10.897   0.854  0.4324  0.1389  0.1095
  326MOL0     C42939   0.018  10.962   0.785  0.3022  0.0069 -0.3574
  326MOL0     C42940  -0.032  11.096   0.840 -0.5916  0.2366 -0.0487
  326MOL0     C42941  -0.150  11.146   0.758  0.3343  0.4719 -0.6239
  326MOL0     C42942  -0.198  11.284   0.783  0.4243 -0.4070  0.4023
  326MOL0     C42943  -0.297  11.342   0.674  0.6252 -0.6144 -0.0437
  326MOL0    Cl42944  -0.425  11.229   0.618  0.0450 -0.3424 -0.5365
  326MOL0     C42945   0.727  10.993   0.937  0.1921 -0.4900  0.5696
  326MOL0     C42946   0.849  10.939   0.967 -1.3117  0.0942  0.3686
  326MOL0     O42947   0.946  10.753   1.170  0.6216  0.5212  0.1736
  326MOL0     C42948   1.251  10.640   1.011  0.9310  0.3465  0.1009
  326MOL0     C42949   1.370  10.570   1.035 -0.4938  0.0606  0.7769
  326MOL0     N42950   2.033  10.294   0.812  0.4059  0.1520  0.4399
  326MOL0     N42951   2.142  10.293   0.749  0.1675  0.5360 -0.3297
  326MOL0     C42952   3.269  10.821   1.022 -0.1356  0.2600 -0.0256
  326MOL0     C42953   3.368  10.884   1.100 -0.3607  0.1103  0.3531
  326MOL0     C42954   3.771  11.009   1.237 -0.8262  0.2700 -0.0646
  326MOL0     C42955   3.728  11.102   1.334  0.6548 -1.0083 -0.8160
  326MOL0     C42956   3.827  11.159   1.415  0.3819 -0.2527 -0.7497
  326MOL0     C42957   3.964  11.138   1.400 -0.7668  0.1811 -0.7346
  326MOL0     O42958   4.059  11.198   1.488  0.7165 -0.5961 -0.4759
  326MOL0     C42959   4.169  11.258   1.425 -0.2995 -0.1054  0.4062
  326MOL0     C42960   4.211  11.368   1.529  0.0178  0.0903 -0.1270
  326MOL0     C42961   4.331  11.450   1.476  0.1707  0.8732  0.7386
  326MOL0     C42962   4.458  11.358   1.478 -0.4618  0.8146  0.3700
  326MOL0     C42963   4.574  11.435   1.426  0.4660  0.5238 -0.1979
  326MOL0     C42964   4.667  11.498   1.379  0.2129  0.1474  0.5874
  326MOL0     C42965   4.002  11.051   1.298 -0.0543  0.7421 -0.1456
  326MOL0     C42966   3.908  10.982   1.218 -0.2476  0.0296  0.3297
  326MOL0     H42967   3.561  11.034   0.871 -0.4359  0.5115 -1.3767
  326MOL0     H42968   3.394  10.928   0.720  1.1885  1.4102  1.1555
  326MOL0     H42969   3.071  10.954   0.808  2.4839 -0.1743 -0.2793
  326MOL0     H42970   3.000  10.820   0.901 -0.8503 -4.1743 -1.4352
  326MOL0     H42971   2.997  10.703   0.652  1.9734 -0.9068  2.3846
  326MOL0     H42972   2.942  10.868   0.615 -0.4631 -1.6474 -0.4415
  326MOL0     H42973   2.774  10.862   0.793 -3.1936 -1.1731 -0.1069
  326MOL0     H42974   2.834  10.719   0.853 -0.4746  0.4105 -0.6452
  326MOL0     H42975   2.700  10.777   0.575  2.2422  1.5965  0.5260
  326MOL0     H42976   2.787  10.637   0.592  1.7796  2.2857 -2.0936
  326MOL0     H42977   2.558  10.748   0.755  0.4454 -0.6345  0.5425
  326MOL0     H42978   2.650  10.597   0.796  3.3588  0.3898 -0.7925
  326MOL0     H42979   2.553  10.495   0.562  3.0545  1.3048 -0.6434
  326MOL0     H42980   2.514  10.658   0.532  2.1412 -0.9583 -1.7686
  326MOL0     H42981   2.330  10.641   0.704 -2.0376 -1.8349  2.1435
  326MOL0     H42982   2.310  10.525   0.566  0.2712 -0.1804 -0.5681
  326MOL0     H42983   2.435  10.422   0.819  0.1694 -2.1185  0.2069
  326MOL0     H42984   2.396  10.344   0.658 -1.1857 -1.0338  0.0620
  326MOL0     H42985   2.205  10.550   0.930  0.9361 -0.3911 -0.4428
  326MOL0     H42986   1.941  10.563   0.976  0.4962 -0.9113 -2.0680
  326MOL0     H42987   1.995  10.464   1.107 -0.2507 -0.1241 -1.1384
  326MOL0     H42988   1.826  10.284   1.007 -1.2837  0.5230  0.4858
  326MOL0     H42989   1.770  10.413   0.903 -2.2782  0.3718  0.8778
  326MOL0     H42990   1.769  10.464   1.193  2.4389  1.8541 -0.7965
  326MOL0     H42991   1.696  10.562   1.071 -0.2834 -0.6979 -0.7471
  326MOL0     H42992   1.603  10.281   1.154 -0.8284  0.2945  0.4681
  326MOL0     H42993   1.543  10.366   1.012 -0.7873  3.5974 -0.6258
  326MOL0     H42994   1.349  10.549   1.380  5.2505  2.0804 -1.1384
  326MOL0     H42995   1.131  10.670   1.332 -1.6445 -2.7157  0.1713
  326MOL0     H42996   0.805  10.629   0.817  1.3781 -0.4553 -0.3236
  326MOL0     H42997   0.589  10.728   0.775  0.9148 -1.8130  0.6810
  326MOL0     H42998   0.371  10.833   0.943 -2.4970  0.5894 -0.0782
  326MOL0     H42999   0.404  10.861   0.760 -2.2130  0.7967 -0.4558
  326MOL0     H43000   0.256  11.046   0.749 -1.5428 -0.5396 -0.0494
  326MOL0     H43001   0.255  11.061   0.931  0.4470 -1.8055  2.1837
  326MOL0     H43002   0.117  10.869   0.958 -1.4049 -3.3139 -1.0031
  326MOL0     H43003   0.156  10.802   0.803 -1.0230  0.5097 -1.2072
  326MOL0     H43004   0.050  10.987   0.683 -0.1504  0.3415 -0.4196
  326MOL0     H43005  -0.056  10.882   0.789  0.5116 -0.1375  1.8387
  326MOL0     H43006   0.045  11.173   0.833  0.4246 -0.7395  0.2947
  326MOL0     H43007  -0.066  11.086   0.943 -4.4561 -0.6182 -1.2230
  326MOL0     H43008  -0.234  11.077   0.768  0.7686  0.1138  0.7675
  326MOL0     H43009  -0.126  11.140   0.651 -2.1482 -1.2999 -1.1544
  326MOL0     H43010  -0.262  11.268   0.871 -1.2202  1.2075 -0.4169
  326MOL0     H43011  -0.117  11.355   0.797 -0.0959  0.1568  0.6055
  326MOL0     H43012  -0.243  11.359   0.581 -0.7004  0.5430 -0.6418
  326MOL0     H43013  -0.339  11.438   0.705 -0.1132 -0.7134 -0.7086
  326MOL0     H43014   0.696  11.087   0.982  0.8510 -1.1177  2.4154
  326MOL0     H43015   0.914  10.988   1.038  0.9150 -0.8476 -0.8948
  326MOL0     H43016   1.220  10.683   0.916  2.7812 -1.2297 -1.2970
  326MOL0     H43017   1.439  10.561   0.952  0.5226  1.9655  1.3677
  326MOL0     H43018   3.192  10.771   1.081 -1.2504  1.3525 -0.5044
  326MOL0     H43019   3.366  10.882   1.208  0.6635 -3.6302  0.4502
  326MOL0     H43020   3.623  11.130   1.347  1.0401  0.3824 -0.4446
  326MOL0     H43021   3.799  11.225   1.497 -1.2314  2.5099 -3.3403
  326MOL0     H43022   4.142  11.311   1.333  0.1167 -2.5554 -1.2377
  326MOL0     H43023   4.241  11.177   1.411  0.1683  0.2635  0.6151
  326MOL0     H43024   4.121  11.430   1.537  0.9592  1.2563  2.3174
  326MOL0     H43025   4.238  11.328   1.626  0.9249  2.7098  0.7776
  326MOL0     H43026   4.335  11.540   1.538  1.2756 -0.3528  2.5593
  326MOL0     H43027   4.314  11.478   1.372  0.6857  0.5949  0.5770
  326MOL0     H43028   4.473  11.323   1.580 -3.0153 -0.3718  0.4088
  326MOL0     H43029   4.438  11.273   1.413  1.4740 -0.4876  1.3930
  326MOL0     H43030   4.722  11.581   1.341  2.2786 -1.9137 -1.2310
  326MOL0     H43031   4.106  11.030   1.274 -0.3781 -0.2480 -0.7060
  326MOL0     H43032   3.936  10.910   1.142  1.3527 -0.0173  0.9327
  327MOL0     O43033   8.806   6.219   7.847  0.2211 -0.2197  0.1232
  327MOL0     C43034   8.848   6.112   7.886 -0.0733  0.4699 -0.4395
  327MOL0     O43035   8.781   5.995   7.912  0.2541  0.2737  0.2833
  327MOL0     C43036   8.643   6.004   7.917  0.0700  0.4798 -0.2064
  327MOL0     C43037   8.550   6.030   7.813 -1.2064 -0.4161  0.6571
  327MOL0     C43038   8.417   6.029   7.827  0.8408 -1.2442 -0.1998
  327MOL0     C43039   8.358   6.001   7.958  0.2186 -0.4163 -0.4152
  327MOL0     O43040   8.222   6.016   7.982 -0.1400  0.0252 -0.7516
  327MOL0     C43041   8.142   5.942   7.892  0.0538  0.2844 -0.1443
  327MOL0     C43042   8.005   6.015   7.868 -0.1898  0.7613 -0.3920
  327MOL0     C43043   7.930   6.064   7.999 -0.5824  0.2419 -0.1290
  327MOL0     C43044   7.806   6.141   7.946 -0.4556 -0.2511 -0.1567
  327MOL0     C43045   7.701   6.179   8.065  0.4425  0.4747  0.0518
  327MOL0     C43046   7.660   6.056   8.138  0.0354 -0.1913  0.9076
  327MOL0     C43047   7.540   6.076   8.235  0.3017  0.6706  0.2275
  327MOL0     C43048   7.489   5.951   8.305  0.5607  0.1764 -0.7592
  327MOL0     N43049   7.415   6.004   8.423  0.1464 -0.1113 -0.6225
  327MOL0     C43050   7.401   5.936   8.539  0.6422 -0.3508 -0.4752
  327MOL0     C43051   7.302   6.000   8.610  0.4876 -0.0793 -0.1065
  327MOL0     C43052   7.231   5.960   8.733 -0.3760  0.8293 -0.3575
  327MOL0     C43053   7.097   5.883   8.722  1.4942  0.5236 -0.3966
  327MOL0     C43054   7.131   5.742   8.665  0.7946  0.3940  0.2739
  327MOL0     C43055   7.002   5.676   8.618  0.2914  0.1871 -0.1336
  327MOL0     O43056   6.917   5.629   8.721  0.0382  0.1578  0.4076
  327MOL0     C43057   6.778   5.624   8.706  0.1716 -0.5933  0.0552
  327MOL0     C43058   6.698   5.646   8.593 -0.3883  0.0161  0.5431
  327MOL0     C43059   6.560   5.649   8.594  0.1384 -0.9437 -1.0401
  327MOL0     C43060   6.495   5.634   8.723  0.3545  0.4407  0.1182
  327MOL0     C43061   6.351   5.658   8.744 -0.3811 -0.8847  0.3257
  327MOL0     O43062   6.310   5.680   8.871  0.2273  0.1173  0.3104
  327MOL0     C43063   6.179   5.723   8.897 -0.5593 -0.9818 -0.4449
  327MOL0     C43064   6.134   5.853   8.893 -0.5264 -0.0025  0.1607
  327MOL0     C43065   6.000   5.896   8.924 -0.0527  0.3222  0.1883
  327MOL0     C43066   5.915   5.793   8.964 -0.6692  0.3946  0.5845
  327MOL0     O43067   5.800   5.828   9.021 -0.1156 -0.3550 -0.4036
  327MOL0     C43068   5.702   5.897   8.938  0.5257 -0.2336 -0.4122
  327MOL0     C43069   5.555   5.867   9.009 -1.1695  0.2544 -0.0472
  327MOL0     C43070   5.452   5.963   8.953 -0.0083  0.0449 -0.3284
  327MOL0     C43071   5.313   5.931   9.018  0.1718  1.4377  0.1188
  327MOL0     C43072   5.215   6.019   8.944 -1.1039  0.3155 -0.7938
  327MOL0     C43073   5.095   6.061   9.038 -0.4392  0.5472  0.5384
  327MOL0     C43074   5.014   6.159   8.948 -0.6812  0.8630 -0.0222
  327MOL0     C43075   4.877   6.193   9.007 -0.7206  0.2560  0.2044
  327MOL0    Cl43076   4.772   6.049   9.008  0.0740 -0.1815  0.1693
  327MOL0     C43077   5.954   5.663   8.966 -0.3706  0.2916  0.0055
  327MOL0     C43078   6.090   5.626   8.942 -0.3285  1.0268 -0.1494
  327MOL0     O43079   6.284   5.670   8.635  0.3975  0.1181 -1.1729
  327MOL0     C43080   6.572   5.612   8.837 -0.2331 -0.6003 -0.5100
  327MOL0     C43081   6.715   5.602   8.824 -0.0327 -0.3598 -0.5883
  327MOL0     N43082   7.267   6.112   8.541 -1.0681 -0.1203 -0.1688
  327MOL0     N43083   7.328   6.108   8.429 -0.9634 -0.1397 -0.1717
  327MOL0     C43084   8.448   5.977   8.063 -0.1176  0.1456 -0.0233
  327MOL0     C43085   8.582   5.986   8.040 -0.2087 -0.3654  0.6184
  327MOL0     C43086   8.999   6.106   7.897  0.0757  0.0254  0.0364
  327MOL0     C43087   9.088   6.213   7.867  0.1866  0.3569 -0.2081
  327MOL0     C43088   9.221   6.215   7.891 -0.2381 -0.4874 -0.2948
  327MOL0     C43089   9.275   6.103   7.953 -0.3152  0.4186  0.3470
  327MOL0     O43090   9.408   6.077   7.969 -0.3070  0.3874 -0.8946
  327MOL0     C43091   9.508   6.189   7.954  0.8133  0.2340 -0.3039
  327MOL0     C43092   9.562   6.192   7.822 -0.3231 -0.0823  0.8812
  327MOL0     C43093   9.683   6.282   7.811 -0.1116 -0.3588 -0.6193
  327MOL0     C43094   9.807   6.196   7.824  0.8196  1.0617 -0.0313
  327MOL0     C43095   9.925   6.275   7.791  0.0685  0.0857 -0.4861
  327MOL0     C43096  10.022   6.342   7.781  0.3262  0.1233 -0.0693
  327MOL0     C43097   9.197   5.986   7.976  0.7517 -0.0812  0.3538
  327MOL0     C43098   9.061   5.993   7.944 -0.1490  0.0655  0.8563
  327MOL0     H43099   8.599   6.063   7.722 -0.0039 -1.9230  0.7232
  327MOL0     H43100   8.352   6.057   7.745  1.5710  0.6097 -0.1952
  327MOL0     H43101   8.108   5.849   7.940 -3.4665  1.2490 -0.4873
  327MOL0     H43102   8.183   5.904   7.797  0.9609  0.5013  0.1553
  327MOL0     H43103   7.938   5.949   7.812 -0.1759  0.7953 -0.4492
  327MOL0     H43104   8.030   6.097   7.800 -1.5551  0.9175 -0.7519
  327MOL0     H43105   7.996   6.129   8.057  0.6644 -1.8932  0.9523
  327MOL0     H43106   7.914   5.977   8.063  0.5526 -1.3433 -1.8698
  327MOL0     H43107   7.844   6.230   7.895  1.1803  0.3785  2.0232
  327MOL0     H43108   7.757   6.068   7.882 -3.1154 -0.3408  1.8115
  327MOL0     H43109   7.617   6.231   8.017 -2.6142  0.8962  5.1775
  327MOL0     H43110   7.755   6.246   8.131 -1.8184  1.4346  1.0350
  327MOL0     H43111   7.747   6.026   8.196  0.8529  2.1120  0.9560
  327MOL0     H43112   7.638   5.980   8.063 -0.1565 -1.1326  1.8962
  327MOL0     H43113   7.567   6.141   8.319 -2.1164 -0.4757  2.0277
  327MOL0     H43114   7.461   6.123   8.176  1.6045  2.8989  0.1639
  327MOL0     H43115   7.563   5.882   8.346  0.8166 -1.0688 -3.1701
  327MOL0     H43116   7.415   5.896   8.246  1.7759  0.8044 -2.9729
  327MOL0     H43117   7.443   5.839   8.561 -0.4160 -0.3624  1.6877
  327MOL0     H43118   7.200   6.054   8.780 -1.9501  1.6060 -2.7465
  327MOL0     H43119   7.294   5.900   8.799  0.3920 -1.0177 -2.6308
  327MOL0     H43120   7.022   5.941   8.667 -0.2267 -1.0958  0.1236
  327MOL0     H43121   7.056   5.867   8.822  1.2230 -0.2127 -0.6173
  327MOL0     H43122   7.189   5.759   8.574 -1.5790  0.5412 -1.3134
  327MOL0     H43123   7.188   5.689   8.742  1.7046  3.8302  2.2295
  327MOL0     H43124   7.044   5.597   8.556  4.6199  1.6778  0.5502
  327MOL0     H43125   6.950   5.743   8.548 -0.0859  0.4230  0.3631
  327MOL0     H43126   6.750   5.664   8.499 -2.8567 -1.1382 -1.1541
  327MOL0     H43127   6.503   5.690   8.512 -1.1765 -1.0418 -0.2045
  327MOL0     H43128   6.204   5.933   8.869 -0.6949 -0.3944 -1.7750
  327MOL0     H43129   5.976   6.002   8.919 -0.6546  0.1535 -2.1850
  327MOL0     H43130   5.703   5.846   8.842 -2.3172 -2.0066  0.3783
  327MOL0     H43131   5.723   6.002   8.914 -0.9107  0.5691  1.5709
  327MOL0     H43132   5.560   5.878   9.117 -2.0677 -0.5389  0.0884
  327MOL0     H43133   5.534   5.763   8.982  1.1534 -0.1415 -0.5443
  327MOL0     H43134   5.455   5.942   8.845 -0.1323  1.0673 -0.5344
  327MOL0     H43135   5.479   6.067   8.971  3.3624 -1.2726  4.0669
  327MOL0     H43136   5.278   5.829   8.999  3.9302  0.1449 -0.6862
  327MOL0     H43137   5.310   5.949   9.126 -3.0399  1.2347  0.1681
  327MOL0     H43138   5.164   5.975   8.858 -0.4495 -0.2033 -0.9227
  327MOL0     H43139   5.273   6.107   8.914  2.8554 -2.1533 -1.1263
  327MOL0     H43140   5.134   6.106   9.129  0.3602  0.0967  0.4323
  327MOL0     H43141   5.042   5.970   9.067 -0.6012  0.0554 -1.1887
  327MOL0     H43142   5.073   6.242   8.909  1.7780 -0.2200  1.1904
  327MOL0     H43143   4.976   6.110   8.857  1.1273  0.4707 -0.6049
  327MOL0     H43144   4.833   6.270   8.943 -0.6545 -1.9776 -2.7510
  327MOL0     H43145   4.882   6.237   9.107 -1.0564  1.3563 -0.2489
  327MOL0     H43146   5.890   5.580   8.996 -1.7248  1.7228  1.2370
  327MOL0     H43147   6.128   5.525   8.952 -0.2440  0.8979 -1.5556
  327MOL0     H43148   6.524   5.610   8.934 -0.4541 -1.6722 -0.6284
  327MOL0     H43149   6.780   5.572   8.905 -1.9325 -1.4436  0.5999
  327MOL0     H43150   8.411   5.948   8.160 -0.5623  0.8057  0.0104
  327MOL0     H43151   8.647   5.964   8.125  0.1443  0.4690  0.5766
  327MOL0     H43152   9.044   6.303   7.824  0.3211  1.5755  2.0903
  327MOL0     H43153   9.274   6.307   7.872 -0.2152 -0.4298  0.0512
  327MOL0     H43154   9.590   6.156   8.018  0.4804 -1.2612 -0.6201
  327MOL0     H43155   9.471   6.285   7.992  2.5921  1.0117 -0.4404
  327MOL0     H43156   9.592   6.095   7.779 -0.3545 -0.3158  1.3849
  327MOL0     H43157   9.483   6.226   7.755  0.1786 -0.8153 -0.1227
  327MOL0     H43158   9.689   6.369   7.878  2.4831 -0.3986 -0.6972
  327MOL0     H43159   9.675   6.332   7.714  1.3111  4.7201  1.5137
  327MOL0     H43160   9.813   6.163   7.928 -1.6454  4.2489  1.3027
  327MOL0     H43161   9.796   6.113   7.754  0.6358  2.8593 -2.2664
  327MOL0     H43162  10.109   6.401   7.764  1.3087 -1.8680 -2.7354
  327MOL0     H43163   9.233   5.890   8.012 -0.4257 -0.9095 -0.5636
  327MOL0     H43164   8.996   5.912   7.976  0.0823 -0.5884 -0.3044
  328MOL0     O43165   3.335   1.516   5.404 -0.1010  0.3282  0.4871
  328MOL0     C43166   3.420   1.599   5.370  0.2726  0.8832  0.0528
  328MOL0     O43167   3.445   1.627   5.245  0.0779  0.7200  0.1078
  328MOL0     C43168   3.359   1.570   5.152  0.1833  0.4305  0.1341
  328MOL0     C43169   3.247   1.640   5.099 -0.0900 -0.0570  0.2593
  328MOL0     C43170   3.185   1.594   4.974  0.1916  0.6670  0.9613
  328MOL0     C43171   3.228   1.476   4.908 -0.1977 -0.7443 -0.8350
  328MOL0     O43172   3.168   1.445   4.791 -0.5179  0.6015 -0.3693
  328MOL0     C43173   3.169   1.310   4.753 -0.9118  0.9229 -0.1281
  328MOL0     C43174   3.076   1.280   4.648 -0.0525  0.4289  0.8745
  328MOL0     C43175   2.942   1.353   4.662  0.3315  0.1494  0.6566
  328MOL0     C43176   2.834   1.305   4.561 -0.0301  0.4665 -1.4196
  328MOL0     C43177   2.711   1.391   4.548 -0.4617 -0.2843  0.1683
  328MOL0     C43178   2.629   1.416   4.678 -0.1123  0.0108  0.0981
  328MOL0     C43179   2.484   1.456   4.654 -0.5464 -0.9435  0.5986
  328MOL0     C43180   2.460   1.576   4.560 -0.3502 -0.8195  0.0366
  328MOL0     N43181   2.323   1.627   4.550 -0.0111 -0.3396  0.0319
  328MOL0     C43182   2.206   1.566   4.598 -0.8006 -0.5714 -0.1665
  328MOL0     C43183   2.103   1.649   4.549 -0.6039  0.2880 -0.7446
  328MOL0     C43184   1.954   1.635   4.578 -0.8070  0.8166  1.1093
  328MOL0     C43185   1.860   1.693   4.465 -0.5985  0.0891 -0.3923
  328MOL0     C43186   1.713   1.679   4.524 -0.6456 -0.3023  0.7200
  328MOL0     C43187   1.615   1.736   4.424  0.3737 -0.4633 -0.5000
  328MOL0     O43188   1.539   1.628   4.368 -0.1534 -0.3511  0.2482
  328MOL0     C43189   1.445   1.670   4.280 -0.6108 -0.5548 -0.1429
  328MOL0     C43190   1.475   1.681   4.146  0.8500 -0.7778  0.5992
  328MOL0     C43191   1.371   1.709   4.057  0.1664  0.5795  0.3787
  328MOL0     C43192   1.240   1.735   4.096 -0.5770  1.1277  0.2592
  328MOL0     C43193   1.129   1.768   3.999  0.0080  0.3712 -0.0631
  328MOL0     O43194   1.029   1.849   4.037  0.0953  0.5191 -0.5091
  328MOL0     C43195   0.912   1.835   3.968  0.5036  0.7139  0.7003
  328MOL0     C43196   0.809   1.737   3.988  0.2688 -0.2042 -0.1281
  328MOL0     C43197   0.702   1.724   3.896  0.8305 -0.6226 -0.4051
  328MOL0     C43198   0.710   1.805   3.774  1.6954 -0.2086 -0.0874
  328MOL0     O43199   0.614   1.785   3.675 -0.6259  0.1222 -0.4721
  328MOL0     C43200   0.549   1.903   3.615 -0.4828  0.5825  0.2238
  328MOL0     C43201   0.428   1.865   3.522 -0.2276  0.2555 -0.9010
  328MOL0     C43202   0.306   1.798   3.598  0.0765 -0.7060  0.3071
  328MOL0     C43203   0.183   1.812   3.508 -0.1579 -0.4879  0.2700
  328MOL0     C43204   0.061   1.742   3.572  1.1502  0.0937 -0.1245
  328MOL0     C43205  -0.068   1.793   3.512 -0.0176 -0.7242 -0.1692
  328MOL0     C43206  -0.190   1.746   3.601 -1.1966 -0.5397 -0.0358
  328MOL0     C43207  -0.326   1.796   3.549  0.1827 -0.4573 -0.4703
  328MOL0    Cl43208  -0.335   1.972   3.572  0.2804 -0.0232  0.0384
  328MOL0     C43209   0.803   1.903   3.757  0.2992 -0.2091 -0.0710
  328MOL0     C43210   0.896   1.920   3.865  0.8339  0.0314  0.5831
  328MOL0     O43211   1.138   1.712   3.890 -0.1408  0.0191  0.9126
  328MOL0     C43212   1.202   1.713   4.231 -0.3466 -0.0720  0.4539
  328MOL0     C43213   1.306   1.684   4.321 -0.1644  0.2593 -0.2233
  328MOL0     N43214   2.161   1.757   4.476  0.1438 -0.0515  0.0407
  328MOL0     N43215   2.292   1.732   4.465 -0.5739 -0.6658  0.3960
  328MOL0     C43216   3.345   1.417   4.964 -1.5148  0.4082  0.3390
  328MOL0     C43217   3.406   1.458   5.085  0.1724 -0.2684  0.0290
  328MOL0     C43218   3.514   1.623   5.477 -0.1383  0.7157  0.0572
  328MOL0     C43219   3.601   1.730   5.469 -0.5517  0.7589 -0.1048
  328MOL0     C43220   3.687   1.769   5.575  0.0816 -0.1899 -0.1383
  328MOL0     C43221   3.680   1.690   5.689 -0.3442 -0.4628 -1.5333
  328MOL0     O43222   3.773   1.727   5.783  0.3327 -1.1743 -0.5102
  328MOL0     C43223   3.781   1.663   5.909 -0.6982 -0.0568  0.1712
  328MOL0     C43224   3.860   1.762   6.003  1.5383 -0.2186 -1.2555
  328MOL0     C43225   4.013   1.744   5.996  0.4538 -0.2290 -0.2977
  328MOL0     C43226   4.088   1.832   6.094 -0.8936  0.2910  0.4062
  328MOL0     C43227   4.228   1.789   6.076 -0.6101  0.1086 -0.8890
  328MOL0     C43228   4.347   1.766   6.052  0.2865 -0.4835  0.4155
  328MOL0     C43229   3.600   1.578   5.702 -0.2766  0.2877  0.1372
  328MOL0     C43230   3.510   1.549   5.599 -0.3913  0.3464  0.9457
  328MOL0     H43231   3.221   1.733   5.149  2.3792  0.9443 -0.1698
  328MOL0     H43232   3.105   1.651   4.928  2.0080  2.7121  0.1652
  328MOL0     H43233   3.148   1.245   4.839 -0.7664 -0.7166 -1.2837
  328MOL0     H43234   3.263   1.268   4.715  0.0565  0.9480  2.0407
  328MOL0     H43235   3.066   1.171   4.638  2.0101  0.2619  0.3098
  328MOL0     H43236   3.121   1.308   4.553  3.5900  0.9595  2.5927
  328MOL0     H43237   2.965   1.459   4.647  1.5913 -0.4425 -2.4583
  328MOL0     H43238   2.890   1.344   4.757 -1.3032  0.9430 -0.1183
  328MOL0     H43239   2.875   1.300   4.460  1.8284 -2.9908 -0.6641
  328MOL0     H43240   2.818   1.200   4.589  3.7168  0.3440  1.0027
  328MOL0     H43241   2.637   1.361   4.473  1.1438  0.4849 -1.8137
  328MOL0     H43242   2.749   1.489   4.519 -1.2515  0.3836  1.3142
  328MOL0     H43243   2.673   1.505   4.725 -0.1162  1.8977 -3.1806
  328MOL0     H43244   2.612   1.322   4.732 -1.9332 -0.8086 -1.7709
  328MOL0     H43245   2.442   1.368   4.605  0.8995 -1.6644  0.5873
  328MOL0     H43246   2.432   1.466   4.749 -2.1034  1.0269 -0.3913
  328MOL0     H43247   2.497   1.545   4.462 -0.3233  1.2035 -0.6348
  328MOL0     H43248   2.533   1.656   4.574 -0.5967 -0.6099  0.1306
  328MOL0     H43249   2.196   1.476   4.657 -0.3428  0.0103  0.8156
  328MOL0     H43250   1.936   1.699   4.664  0.3879  1.7111  0.7276
  328MOL0     H43251   1.929   1.531   4.600  0.4436 -0.8111 -3.8541
  328MOL0     H43252   1.880   1.633   4.376  3.5693  1.0300 -0.3245
  328MOL0     H43253   1.891   1.796   4.441  0.1145 -0.2276 -0.8476
  328MOL0     H43254   1.686   1.578   4.558 -2.8145  0.3197  0.9369
  328MOL0     H43255   1.715   1.748   4.609  0.4661 -0.3257  0.7333
  328MOL0     H43256   1.665   1.798   4.349 -0.6468  1.6669  0.5167
  328MOL0     H43257   1.550   1.804   4.479 -0.0975  0.1329 -1.7422
  328MOL0     H43258   1.576   1.654   4.120  0.9111  1.5975 -2.3111
  328MOL0     H43259   1.390   1.706   3.950  0.3127  2.7906  0.2973
  328MOL0     H43260   0.807   1.680   4.080 -1.1284  0.0783  0.0432
  328MOL0     H43261   0.624   1.650   3.914  0.1775  0.2106  0.2754
  328MOL0     H43262   0.621   1.941   3.542 -1.5219 -0.0292 -1.1693
  328MOL0     H43263   0.523   1.973   3.695 -0.1913 -1.5457  2.2857
  328MOL0     H43264   0.460   1.799   3.441 -0.7057  0.2745 -1.1088
  328MOL0     H43265   0.388   1.957   3.478 -1.8183 -0.7766 -1.7222
  328MOL0     H43266   0.287   1.853   3.691  0.2102 -1.0151  0.5185
  328MOL0     H43267   0.323   1.697   3.634  0.1520 -0.1728  1.8340
  328MOL0     H43268   0.155   1.916   3.492  0.1699 -0.4298  0.0591
  328MOL0     H43269   0.206   1.768   3.410  0.6541  2.2225 -0.8387
  328MOL0     H43270   0.050   1.757   3.680 -1.1003  0.1556 -0.3245
  328MOL0     H43271   0.076   1.635   3.555  1.3086  0.2905 -1.2958
  328MOL0     H43272  -0.078   1.779   3.404 -2.2752  0.0356 -0.1084
  328MOL0     H43273  -0.081   1.901   3.526 -0.2504 -0.6889 -0.6516
  328MOL0     H43274  -0.188   1.637   3.607  1.4686 -0.5651 -0.2085
  328MOL0     H43275  -0.180   1.775   3.706 -1.9876  0.8367 -0.3179
  328MOL0     H43276  -0.400   1.742   3.609  0.3450  1.7524  1.9159
  328MOL0     H43277  -0.350   1.773   3.445 -0.2297 -0.3723 -0.3961
  328MOL0     H43278   0.802   1.962   3.667 -1.2719 -2.8382 -1.9230
  328MOL0     H43279   0.976   1.989   3.839 -0.8687  1.5422 -0.9096
  328MOL0     H43280   1.105   1.729   4.277 -0.8750  0.5919 -0.8580
  328MOL0     H43281   1.278   1.680   4.426  1.5012 -0.4307  0.2309
  328MOL0     H43282   3.394   1.341   4.902  1.9984  0.9596  2.1630
  328MOL0     H43283   3.502   1.422   5.123  0.5879  1.7671  1.0026
  328MOL0     H43284   3.610   1.792   5.381 -0.0142  2.0437  0.8198
  328MOL0     H43285   3.763   1.845   5.558  0.9824 -1.5568 -2.6670
  328MOL0     H43286   3.836   1.570   5.891  0.4183  0.6935 -0.4158
  328MOL0     H43287   3.679   1.650   5.945 -0.0567 -1.3543  1.6220
  328MOL0     H43288   3.835   1.865   5.973 -0.5041 -0.5879 -0.9778
  328MOL0     H43289   3.826   1.757   6.107  0.5858 -2.9563 -1.6290
  328MOL0     H43290   4.055   1.766   5.897  1.7243 -0.9055  0.0660
  328MOL0     H43291   4.035   1.638   6.012 -3.9153 -0.7995  4.8768
  328MOL0     H43292   4.087   1.937   6.066  0.3356  0.2306  0.0759
  328MOL0     H43293   4.050   1.820   6.197 -0.3227 -0.6233  0.5236
  328MOL0     H43294   4.448   1.752   6.019  1.3244  1.4460  2.5083
  328MOL0     H43295   3.606   1.515   5.791 -2.2771 -0.0777  0.0590
  328MOL0     H43296   3.448   1.460   5.608 -1.0280  0.5484 -1.0818
  329MOL0     O43297  11.228   7.123   2.371  0.2880 -0.0104  0.1215
  329MOL0     C43298  11.274   7.009   2.357 -0.5980  0.0402 -0.8311
  329MOL0     O43299  11.210   6.894   2.362 -0.0003 -0.8980  0.0665
  329MOL0     C43300  11.074   6.900   2.397  0.5077 -1.6704  0.0619
  329MOL0     C43301  11.027   6.965   2.512  0.4299 -0.6901 -0.5929
  329MOL0     C43302  10.892   6.970   2.555 -0.3150 -0.2981 -0.3899
  329MOL0     C43303  10.797   6.915   2.476  0.5614  0.2265  0.5530
  329MOL0     O43304  10.665   6.928   2.513  0.4842  0.4762 -0.0723
  329MOL0     C43305  10.565   6.925   2.408 -0.2018 -0.3218 -0.7160
  329MOL0     C43306  10.475   6.811   2.447  0.0739  0.9890 -0.2647
  329MOL0     C43307  10.334   6.846   2.404  0.4475 -0.5368  0.2106
  329MOL0     C43308  10.262   6.923   2.521  0.2252  0.7864 -0.6945
  329MOL0     C43309  10.138   6.996   2.479 -0.0125 -0.2484  0.0754
  329MOL0     C43310  10.041   6.909   2.412  0.0035 -0.2100  0.1102
  329MOL0     C43311   9.899   6.963   2.413  0.0193 -0.5815  0.1579
  329MOL0     C43312   9.883   7.105   2.358 -0.6433  0.5340 -0.0876
  329MOL0     N43313   9.745   7.150   2.377 -0.2289 -0.3930 -0.1408
  329MOL0     C43314   9.702   7.225   2.489 -0.2034 -0.3205 -0.4293
  329MOL0     C43315   9.570   7.221   2.472  0.2166 -0.6123 -0.4599
  329MOL0     C43316   9.458   7.274   2.563 -1.2874 -0.2513  0.6452
  329MOL0     C43317   9.319   7.288   2.504  0.9033 -0.6442 -0.0406
  329MOL0     C43318   9.223   7.348   2.614 -0.0646 -0.2196  0.4253
  329MOL0     C43319   9.083   7.399   2.569 -0.3999  0.4820  0.4892
  329MOL0     O43320   9.042   7.503   2.667 -0.0364  0.4416  0.2104
  329MOL0     C43321   8.908   7.519   2.678 -0.1253 -0.0136 -0.0643
  329MOL0     C43322   8.795   7.444   2.621 -0.0650  0.0862 -0.4796
  329MOL0     C43323   8.661   7.477   2.652  0.2402  0.5438 -0.6198
  329MOL0     C43324   8.635   7.596   2.723 -0.5508  0.2479  0.4186
  329MOL0     C43325   8.497   7.658   2.739 -0.4981  0.3619  0.1669
  329MOL0     O43326   8.393   7.569   2.705  0.2000  0.0725 -0.6851
  329MOL0     C43327   8.265   7.604   2.725 -0.4957  0.5358  0.1125
  329MOL0     C43328   8.217   7.673   2.832 -0.2553  0.6792 -0.0596
  329MOL0     C43329   8.079   7.685   2.846 -0.4120 -0.1829  0.5547
  329MOL0     C43330   7.988   7.631   2.749  0.2408 -0.4763 -0.2413
  329MOL0     O43331   7.855   7.639   2.775 -0.7602  0.1736 -0.4784
  329MOL0     C43332   7.759   7.606   2.673 -0.4615 -0.3413 -0.3560
  329MOL0     C43333   7.612   7.619   2.729 -0.5614 -0.1933 -0.1464
  329MOL0     C43334   7.519   7.536   2.642 -0.3034 -0.0147  0.6230
  329MOL0     C43335   7.371   7.533   2.692 -0.0739 -0.9133  0.0038
  329MOL0     C43336   7.273   7.524   2.580 -0.2463 -0.5129  0.1970
  329MOL0     C43337   7.135   7.564   2.614 -0.0940 -0.0484  0.2778
  329MOL0     C43338   7.093   7.474   2.739  0.1994 -0.0551 -0.1528
  329MOL0     C43339   6.940   7.484   2.773 -0.1802 -0.9368  0.0358
  329MOL0    Cl43340   6.855   7.466   2.617  0.2803 -0.3195 -0.4762
  329MOL0     C43341   8.045   7.553   2.646  0.7689 -1.1058 -0.4643
  329MOL0     C43342   8.180   7.544   2.632  0.5744 -0.0740 -0.6769
  329MOL0     O43343   8.487   7.763   2.804  0.1840  0.4582  0.3246
  329MOL0     C43344   8.743   7.668   2.775 -0.3050  0.9044 -0.2225
  329MOL0     C43345   8.868   7.636   2.750 -0.3218  0.2172  0.8455
  329MOL0     N43346   9.534   7.142   2.361  0.3432 -0.2437  0.2630
  329MOL0     N43347   9.640   7.106   2.307 -0.0774  0.3002  0.0747
  329MOL0     C43348  10.844   6.842   2.366  0.6799 -1.0393  0.3300
  329MOL0     C43349  10.977   6.835   2.329 -0.2828 -0.4985  0.5752
  329MOL0     C43350  11.415   7.003   2.336 -0.7506 -0.4970 -0.8589
  329MOL0     C43351  11.478   6.901   2.273  0.2566  0.1198  0.8174
  329MOL0     C43352  11.613   6.909   2.249 -0.4666  0.4531  0.1345
  329MOL0     C43353  11.697   7.023   2.285  0.9201  0.5939  0.3303
  329MOL0     O43354  11.830   7.042   2.261 -0.1357  0.1885  0.3892
  329MOL0     C43355  11.895   6.914   2.239  0.9162 -0.2198 -0.9811
  329MOL0     C43356  12.052   6.929   2.233  0.1321 -0.5112 -0.8229
  329MOL0     C43357  12.098   6.961   2.091  0.5254  0.0330  0.6977
  329MOL0     C43358  12.204   7.060   2.092  0.3684 -0.4177  0.0826
  329MOL0     C43359  12.326   6.992   2.135  0.2394  0.5535 -0.6485
  329MOL0     C43360  12.446   6.951   2.161  0.5210 -0.1287 -0.0877
  329MOL0     C43361  11.632   7.124   2.354  0.0706  0.9503 -0.2332
  329MOL0     C43362  11.498   7.117   2.383  1.0879 -0.3647  0.2428
  329MOL0     H43363  11.102   7.017   2.571  1.5528 -2.0753 -0.7698
  329MOL0     H43364  10.864   7.024   2.645  0.2749  1.7439 -1.3639
  329MOL0     H43365  10.608   6.917   2.308  2.3198  0.2125  0.2450
  329MOL0     H43366  10.506   7.017   2.401 -0.6209 -0.6553 -1.6821
  329MOL0     H43367  10.470   6.782   2.552 -0.4977 -1.6110 -0.9232
  329MOL0     H43368  10.511   6.722   2.395  1.6540  0.6338  1.3511
  329MOL0     H43369  10.281   6.752   2.383 -2.2425  0.8225  0.5111
  329MOL0     H43370  10.344   6.898   2.308 -0.3155 -0.8417 -0.0448
  329MOL0     H43371  10.248   6.848   2.599  2.9378 -1.2561 -1.9894
  329MOL0     H43372  10.327   7.002   2.559 -0.8140  1.0474  0.6011
  329MOL0     H43373  10.163   7.079   2.411 -1.3089 -0.2129 -0.3912
  329MOL0     H43374  10.092   7.041   2.568 -1.1351  1.6064 -1.3496
  329MOL0     H43375  10.049   6.807   2.451  0.8203 -1.3152 -2.6827
  329MOL0     H43376  10.071   6.903   2.307  0.2645 -1.2464  0.2359
  329MOL0     H43377   9.845   6.896   2.346  1.0095 -0.3041 -0.9615
  329MOL0     H43378   9.866   6.969   2.517  3.5623  3.2020  1.3705
  329MOL0     H43379   9.916   7.110   2.254 -0.3853  2.4415  0.0447
  329MOL0     H43380   9.956   7.169   2.409 -0.4225 -0.7920  1.3422
  329MOL0     H43381   9.759   7.255   2.577 -2.2125 -0.6659  1.0636
  329MOL0     H43382   9.493   7.372   2.598 -1.0842  0.1043 -0.5192
  329MOL0     H43383   9.456   7.203   2.647  0.2787  0.0935  1.0181
  329MOL0     H43384   9.289   7.188   2.471 -1.1882  0.9168 -3.4243
  329MOL0     H43385   9.321   7.354   2.416  0.9168  1.9225  1.7977
  329MOL0     H43386   9.215   7.275   2.695  2.8513 -2.9455 -1.5151
  329MOL0     H43387   9.276   7.440   2.640 -2.2891  1.0117  0.8727
  329MOL0     H43388   9.009   7.320   2.576  0.5540 -0.5876 -0.9890
  329MOL0     H43389   9.102   7.438   2.469  2.3993  0.2412  0.8587
  329MOL0     H43390   8.802   7.360   2.552 -0.7879 -0.5376  0.1814
  329MOL0     H43391   8.573   7.427   2.615  0.1871  1.1941 -1.3995
  329MOL0     H43392   8.286   7.701   2.911 -2.0364  0.2455  1.7312
  329MOL0     H43393   8.017   7.733   2.921 -2.2665  1.2481 -1.7374
  329MOL0     H43394   7.780   7.505   2.638 -0.6159 -1.2103  1.9000
  329MOL0     H43395   7.777   7.682   2.595  1.5787 -0.0445  0.3361
  329MOL0     H43396   7.575   7.722   2.737 -1.5830 -0.6122  0.6403
  329MOL0     H43397   7.624   7.584   2.831 -0.5618  1.2573  0.3756
  329MOL0     H43398   7.564   7.436   2.638 -0.0846  0.0188  1.8785
  329MOL0     H43399   7.519   7.584   2.543 -0.8241 -1.2259  0.0140
  329MOL0     H43400   7.370   7.451   2.765 -2.2900 -1.6198 -0.7583
  329MOL0     H43401   7.358   7.626   2.749  3.8649  0.3640 -0.8171
  329MOL0     H43402   7.264   7.424   2.538 -0.9545  0.0159 -0.9600
  329MOL0     H43403   7.307   7.589   2.498  2.0395 -2.6055 -0.6446
  329MOL0     H43404   7.067   7.549   2.530  1.1075 -1.6626 -0.4416
  329MOL0     H43405   7.127   7.671   2.637 -1.2009  0.1549 -0.9234
  329MOL0     H43406   7.119   7.372   2.708  0.0360 -0.4302  0.8874
  329MOL0     H43407   7.149   7.499   2.830 -1.0938 -1.2404  1.0188
  329MOL0     H43408   6.911   7.577   2.822 -1.4082 -1.5900  0.5860
  329MOL0     H43409   6.905   7.407   2.842 -0.3608 -0.8346  0.0578
  329MOL0     H43410   7.989   7.501   2.569  2.4452 -1.6450 -1.3672
  329MOL0     H43411   8.219   7.491   2.545 -2.1957 -1.9309 -0.9316
  329MOL0     H43412   8.730   7.758   2.833  0.9987  1.9052 -1.4347
  329MOL0     H43413   8.937   7.707   2.794 -0.3403  1.1905 -0.6272
  329MOL0     H43414  10.769   6.784   2.312  0.8172 -2.0003  1.1466
  329MOL0     H43415  10.995   6.776   2.240 -3.1030 -0.4714 -0.1171
  329MOL0     H43416  11.417   6.820   2.236 -1.3377  2.6105 -2.4446
  329MOL0     H43417  11.651   6.821   2.198  3.2499  1.2434  1.1886
  329MOL0     H43418  11.872   6.862   2.145  0.7896 -1.0954 -0.4750
  329MOL0     H43419  11.869   6.849   2.323 -0.7873  0.1864 -1.1623
  329MOL0     H43420  12.082   7.004   2.306  1.2874 -1.4425 -0.3134
  329MOL0     H43421  12.098   6.834   2.262  0.9367 -0.9082 -3.1879
  329MOL0     H43422  12.016   7.010   2.037  0.3642  0.9803  1.7638
  329MOL0     H43423  12.126   6.868   2.041  1.9115  1.6885 -1.8476
  329MOL0     H43424  12.214   7.101   1.991  0.9398  1.6039  0.9247
  329MOL0     H43425  12.185   7.149   2.151  0.8858 -0.3628  0.1762
  329MOL0     H43426  12.547   6.922   2.180  0.4318 -1.2950 -1.2511
  329MOL0     H43427  11.690   7.207   2.391  2.0122 -0.4345 -0.0096
  329MOL0     H43428  11.451   7.208   2.419 -0.1218  0.4463 -3.0097
  330MOL0     O43429   5.542   3.070  10.852  0.3755 -0.6512  0.2981
  330MOL0     C43430   5.609   3.172  10.839  0.1465 -0.3186 -0.0314
  330MOL0     O43431   5.580   3.293  10.899  0.3157 -0.1866 -0.0942
  330MOL0     C43432   5.477   3.316  10.979  0.0932  0.0801 -0.4816
  330MOL0     C43433   5.490   3.419  11.070 -1.0796  0.3381 -0.0393
  330MOL0     C43434   5.386   3.456  11.154 -0.5000 -0.5878 -0.2328
  330MOL0     C43435   5.261   3.398  11.149  0.3654  0.3446  0.3192
  330MOL0     O43436   5.143   3.415  11.231 -0.4523 -0.0324  1.2913
  330MOL0     C43437   5.141   3.536  11.308  0.5118  0.3782  0.3677
  330MOL0     C43438   4.990   3.573  11.332  0.2422 -1.0329 -0.4827
  330MOL0     C43439   4.905   3.472  11.423  0.1512  0.5906 -0.6371
  330MOL0     C43440   4.942   3.320  11.404  0.2606 -0.6308  0.0892
  330MOL0     C43441   4.831   3.220  11.457  0.2386  0.5655 -0.1361
  330MOL0     C43442   4.824   3.222  11.608  0.3147  0.3185 -0.2068
  330MOL0     C43443   4.721   3.127  11.664 -0.3995  0.3768 -0.1251
  330MOL0     C43444   4.671   3.164  11.800 -0.0582 -0.3805  0.2096
  330MOL0     N43445   4.577   3.067  11.844  0.2539  0.1037  1.0043
  330MOL0     C43446   4.496   3.093  11.949  0.3269 -0.2588  0.6644
  330MOL0     C43447   4.396   3.002  11.944  0.5818  0.7576  0.2059
  330MOL0     C43448   4.295   2.971  12.051  0.2039 -0.1305  0.2977
  330MOL0     C43449   4.177   3.067  12.036  0.2210 -0.2278 -0.9609
  330MOL0     C43450   4.209   3.222  12.035 -0.3397 -0.4867  0.0961
  330MOL0     C43451   4.072   3.295  12.037 -0.3250  1.0304 -1.1236
  330MOL0     O43452   3.997   3.265  12.160  0.0953  0.5820  0.2639
  330MOL0     C43453   3.863   3.225  12.158  0.4479  1.2551 -0.3404
  330MOL0     C43454   3.788   3.263  12.265  0.7704  0.5659 -0.5694
  330MOL0     C43455   3.658   3.226  12.280  0.8558  0.2753  0.3095
  330MOL0     C43456   3.595   3.146  12.181  0.1341  0.4352 -0.1328
  330MOL0     C43457   3.471   3.086  12.219  0.0185 -0.2015  0.3327
  330MOL0     O43458   3.395   3.049  12.107 -0.4966 -1.0899 -0.2222
  330MOL0     C43459   3.264   3.014  12.115  0.1793 -0.7157 -0.7278
  330MOL0     C43460   3.181   3.088  12.035  0.2794  0.0009 -0.3002
  330MOL0     C43461   3.045   3.052  12.032  0.2351  0.8736  0.8303
  330MOL0     C43462   2.992   2.956  12.112  0.0926 -1.2283 -0.3258
  330MOL0     O43463   2.860   2.932  12.094  0.1001  0.0546  0.0507
  330MOL0     C43464   2.786   2.850  12.189 -1.0320 -0.6255  0.2582
  330MOL0     C43465   2.635   2.859  12.168 -0.1025 -1.2649  0.1712
  330MOL0     C43466   2.569   2.822  12.034 -0.0978 -0.2302 -0.1704
  330MOL0     C43467   2.418   2.848  12.036 -0.5980 -0.5590 -0.3549
  330MOL0     C43468   2.350   2.861  11.889 -1.0014  0.0321 -0.3191
  330MOL0     C43469   2.212   2.924  11.912  0.2177 -1.0268  0.0080
  330MOL0     C43470   2.139   2.928  11.774  0.6406  0.4981 -0.0328
  330MOL0     C43471   1.991   2.967  11.767  0.0327  0.2716 -0.1647
  330MOL0    Cl43472   1.945   2.937  11.600  0.0001  0.3700 -0.2705
  330MOL0     C43473   3.078   2.888  12.201  0.5282  0.2861  0.9331
  330MOL0     C43474   3.216   2.914  12.207  0.0312  1.3711  0.0168
  330MOL0     O43475   3.435   3.070  12.334 -0.1201  0.4554 -0.0313
  330MOL0     C43476   3.670   3.103  12.077  0.0417 -0.3061  0.7545
  330MOL0     C43477   3.807   3.142  12.065  0.2801  1.0025  0.1190
  330MOL0     N43478   4.422   2.909  11.846  0.9775 -0.0468  0.4423
  330MOL0     N43479   4.529   2.955  11.782  0.6973  0.3256 -0.5775
  330MOL0     C43480   5.248   3.301  11.045 -0.6565 -0.0174 -0.3195
  330MOL0     C43481   5.348   3.257  10.972  0.1124 -0.1693  0.3943
  330MOL0     C43482   5.718   3.184  10.738  0.5424 -0.0743  0.0839
  330MOL0     C43483   5.824   3.274  10.743 -0.0400 -0.6536 -1.1573
  330MOL0     C43484   5.926   3.269  10.649  0.2886  0.0735 -0.5258
  330MOL0     C43485   5.925   3.165  10.550 -0.1042 -0.8010  0.7349
  330MOL0     O43486   6.023   3.174  10.448 -0.2526  0.3545  0.1978
  330MOL0     C43487   6.023   3.078  10.349  0.2949 -0.1215  0.7557
  330MOL0     C43488   6.156   3.091  10.273  0.8338 -0.1135  0.2143
  330MOL0     C43489   6.149   3.202  10.165  0.8189 -0.6289  0.6260
  330MOL0     C43490   6.285   3.250  10.115  0.2400  0.4370  0.8598
  330MOL0     C43491   6.334   3.149  10.012 -0.1469  0.3581  0.1527
  330MOL0     C43492   6.376   3.058   9.941  0.0336  0.2105 -1.0840
  330MOL0     C43493   5.821   3.073  10.547 -0.3823 -1.0360  0.1520
  330MOL0     C43494   5.721   3.076  10.641 -0.4974 -1.0046 -0.5145
  330MOL0     H43495   5.587   3.466  11.077  0.2595 -2.3499  0.8272
  330MOL0     H43496   5.395   3.534  11.230  0.6762  0.3941 -1.3465
  330MOL0     H43497   5.184   3.621  11.254 -3.0100  2.4585  0.5007
  330MOL0     H43498   5.196   3.521  11.401  2.7221 -2.5080 -1.2274
  330MOL0     H43499   4.943   3.589  11.234  0.9558  1.0591 -0.5270
  330MOL0     H43500   4.996   3.672  11.379  0.0587 -0.1206 -2.2900
  330MOL0     H43501   4.798   3.478  11.399 -0.1134 -0.2609  0.2614
  330MOL0     H43502   4.929   3.489  11.529  1.1893  0.4156 -0.8340
  330MOL0     H43503   4.948   3.298  11.297 -3.7545 -2.3798  0.0249
  330MOL0     H43504   5.036   3.291  11.452 -0.2630  0.5860  1.9521
  330MOL0     H43505   4.860   3.119  11.426 -2.0641 -0.4021  0.6331
  330MOL0     H43506   4.744   3.262  11.405  0.1339  0.4315 -0.0725
  330MOL0     H43507   4.792   3.323  11.637 -4.0535 -1.7014  3.1742
  330MOL0     H43508   4.924   3.198  11.645  0.6521  1.6578 -0.2129
  330MOL0     H43509   4.635   3.127  11.596 -1.5281 -2.2480  1.1610
  330MOL0     H43510   4.755   3.023  11.671 -1.6454  0.0098  1.0321
  330MOL0     H43511   4.612   3.255  11.794 -1.0455 -0.9920  0.5027
  330MOL0     H43512   4.755   3.186  11.866  0.0147  2.0926 -0.6167
  330MOL0     H43513   4.511   3.178  12.015  1.7442  0.3110 -0.3353
  330MOL0     H43514   4.338   2.994  12.149  2.5937  0.9654 -0.9180
  330MOL0     H43515   4.255   2.870  12.055 -0.7526  0.2393  0.3474
  330MOL0     H43516   4.111   3.045  12.120  2.2468 -3.5194 -0.0474
  330MOL0     H43517   4.114   3.034  11.953 -0.3523 -0.9257 -0.2658
  330MOL0     H43518   4.273   3.257  12.116  0.7269 -3.0021  0.4318
  330MOL0     H43519   4.249   3.251  11.938 -4.6030  1.1647 -1.3580
  330MOL0     H43520   4.019   3.274  11.944 -1.8886 -0.2606 -0.0022
  330MOL0     H43521   4.076   3.403  12.051  0.8458  0.5473  4.2135
  330MOL0     H43522   3.834   3.317  12.347  0.3579 -1.2630  0.9299
  330MOL0     H43523   3.619   3.256  12.377 -0.3625  3.1530 -0.9414
  330MOL0     H43524   3.226   3.157  11.965  1.4384 -0.1705  0.2471
  330MOL0     H43525   2.988   3.116  11.965  1.1226  1.9641  1.0914
  330MOL0     H43526   2.798   2.900  12.286 -0.0691  1.7780 -1.0259
  330MOL0     H43527   2.826   2.749  12.177  2.7177  0.3933  2.4646
  330MOL0     H43528   2.603   2.960  12.195 -1.2890 -1.1772 -1.4026
  330MOL0     H43529   2.585   2.795  12.242 -2.8549 -2.0989 -2.2436
  330MOL0     H43530   2.591   2.716  12.014 -0.3491 -0.0852 -1.2947
  330MOL0     H43531   2.617   2.882  11.956  0.1722  0.0285  0.1949
  330MOL0     H43532   2.366   2.763  12.082 -1.1694  0.7679  1.5751
  330MOL0     H43533   2.393   2.926  12.108 -1.8746 -1.5422  0.3199
  330MOL0     H43534   2.346   2.760  11.848  0.0378  0.5988 -1.9698
  330MOL0     H43535   2.400   2.935  11.825 -1.4111  1.4152  0.8991
  330MOL0     H43536   2.211   3.027  11.948 -2.5876 -1.3998  1.2979
  330MOL0     H43537   2.159   2.863  11.986 -1.3183 -1.5802 -1.4659
  330MOL0     H43538   2.192   3.003  11.714 -2.1261  1.8019 -1.0187
  330MOL0     H43539   2.153   2.828  11.733 -1.5610 -1.5180  3.5857
  330MOL0     H43540   1.995   3.074  11.788  1.6454  0.0014  1.1770
  330MOL0     H43541   1.936   2.904  11.837  0.8729  0.3915  0.6312
  330MOL0     H43542   3.031   2.804  12.251 -2.8148  0.9683 -0.8358
  330MOL0     H43543   3.292   2.864  12.266  0.0983  2.0775  0.5343
  330MOL0     H43544   3.633   3.034  12.002 -1.1523  2.3232 -1.2454
  330MOL0     H43545   3.856   3.113  11.973 -1.2106  1.4935 -0.8687
  330MOL0     H43546   5.145   3.269  11.036 -1.1844  1.7337 -0.9942
  330MOL0     H43547   5.336   3.176  10.902  2.3123  0.4184 -0.7548
  330MOL0     H43548   5.814   3.347  10.822 -0.4844 -1.9186 -0.0087
  330MOL0     H43549   5.997   3.352  10.650  0.7852 -0.3096  1.9851
  330MOL0     H43550   5.941   3.086  10.277  1.2563 -1.2065 -0.4873
  330MOL0     H43551   6.019   2.978  10.392  0.9269 -0.4459  0.0775
  330MOL0     H43552   6.241   3.094  10.342  0.7878 -0.7713  0.3071
  330MOL0     H43553   6.161   2.999  10.214 -2.2947 -0.8372  0.9138
  330MOL0     H43554   6.094   3.286  10.211  2.0398  0.9605 -0.6939
  330MOL0     H43555   6.090   3.183  10.075  1.0212  2.1246 -0.1824
  330MOL0     H43556   6.276   3.342  10.055 -1.8649 -0.2609  0.0276
  330MOL0     H43557   6.359   3.255  10.196  1.0816 -3.8423  0.5554
  330MOL0     H43558   6.414   2.983   9.875 -0.7562 -4.1781  2.8875
  330MOL0     H43559   5.828   3.000  10.466  1.3030  1.0725 -1.7419
  330MOL0     H43560   5.645   3.000  10.624 -2.5076  0.3624  1.6339
  331MOL0     O43561   6.849   8.775   2.323 -0.3516  0.2179 -0.5784
  331MOL0     C43562   6.839   8.676   2.255 -0.8876 -0.3107 -0.4569
  331MOL0     O43563   6.772   8.676   2.138  0.3438 -0.6902  0.5194
  331MOL0     C43564   6.757   8.798   2.078  0.2459  0.5073  0.0172
  331MOL0     C43565   6.637   8.825   2.016  1.2064  0.0182 -0.8474
  331MOL0     C43566   6.613   8.947   1.958  0.6193  0.5930  0.4545
  331MOL0     C43567   6.712   9.047   1.944 -0.1362 -0.3072 -0.2551
  331MOL0     O43568   6.694   9.162   1.879  0.1562  0.1241  0.4778
  331MOL0     C43569   6.559   9.205   1.852  0.2478  0.2293  0.3690
  331MOL0     C43570   6.564   9.348   1.795  0.0810 -0.6985  0.0989
  331MOL0     C43571   6.437   9.439   1.793 -0.2210  0.1714 -0.2059
  331MOL0     C43572   6.459   9.587   1.759 -0.1792  0.4846  0.2637
  331MOL0     C43573   6.338   9.666   1.776  0.6791 -0.4721  0.0844
  331MOL0     C43574   6.386   9.817   1.787  0.9562 -0.2568 -0.0949
  331MOL0     C43575   6.280   9.904   1.859 -0.2465  0.5557 -0.0021
  331MOL0     C43576   6.308  10.054   1.844  0.0615  0.5915  0.3330
  331MOL0     N43577   6.436  10.088   1.909 -0.8661  0.2457 -0.4916
  331MOL0     C43578   6.457  10.077   2.042 -0.3846 -0.1048 -0.2208
  331MOL0     C43579   6.561  10.155   2.066 -0.3989  0.5790  0.7477
  331MOL0     C43580   6.628  10.176   2.204 -0.2062  0.1811 -0.3804
  331MOL0     C43581   6.767  10.113   2.200  0.6456  0.4564 -1.0459
  331MOL0     C43582   6.798  10.090   2.350 -1.2574  0.8070 -0.0845
  331MOL0     C43583   6.934  10.015   2.358  1.0482  0.1416 -1.1624
  331MOL0     O43584   7.040  10.102   2.320  0.5528  0.4662  0.0838
  331MOL0     C43585   7.170  10.061   2.332  0.1867  0.5221  0.4955
  331MOL0     C43586   7.263  10.159   2.294  0.1684  0.1669  0.4718
  331MOL0     C43587   7.402  10.113   2.304 -0.0329 -0.2356 -0.3067
  331MOL0     C43588   7.444   9.985   2.357  0.0018  0.1467 -0.0876
  331MOL0     C43589   7.586   9.949   2.376  0.4779  0.3878  0.3626
  331MOL0     O43590   7.614   9.820   2.388 -0.8439 -0.1880  0.5239
  331MOL0     C43591   7.745   9.783   2.383 -0.0113  0.9782  0.5697
  331MOL0     C43592   7.822   9.806   2.266  0.4921 -0.3174 -0.4422
  331MOL0     C43593   7.957   9.767   2.258 -0.1835  0.0393  1.2111
  331MOL0     C43594   8.026   9.726   2.371  0.2064  0.6207  0.1617
  331MOL0     O43595   8.165   9.696   2.379 -0.3707 -0.8757 -0.3385
  331MOL0     C43596   8.232   9.699   2.255  0.0172  0.1232  0.4641
  331MOL0     C43597   8.361   9.634   2.259 -0.4617  0.1901  0.7928
  331MOL0     C43598   8.345   9.502   2.327 -0.2998  0.5167  0.3045
  331MOL0     C43599   8.464   9.409   2.301  0.5314 -0.2234  0.1623
  331MOL0     C43600   8.573   9.447   2.398 -0.1968 -0.1065 -0.1364
  331MOL0     C43601   8.682   9.334   2.418 -1.2085 -0.5553  0.1629
  331MOL0     C43602   8.817   9.394   2.443  0.0856 -0.3453 -0.6861
  331MOL0     C43603   8.914   9.292   2.498 -0.2013 -0.4960 -0.1436
  331MOL0    Cl43604   8.958   9.176   2.363 -0.1288 -0.0416  0.2991
  331MOL0     C43605   7.954   9.719   2.492  0.3401  1.0944 -0.8353
  331MOL0     C43606   7.816   9.734   2.493  0.3847 -0.2143  0.5037
  331MOL0     O43607   7.666  10.037   2.383  0.2063  0.3623  0.2422
  331MOL0     C43608   7.339   9.895   2.384 -0.8582  0.0263 -0.8586
  331MOL0     C43609   7.208   9.929   2.368  0.1989  0.8700 -0.0446
  331MOL0     N43610   6.604  10.207   1.948  0.3855 -0.9098 -0.4884
  331MOL0     N43611   6.532  10.164   1.854 -0.0227  0.8108 -0.1769
  331MOL0     C43612   6.838   9.018   2.003 -0.1015 -1.1889  0.3128
  331MOL0     C43613   6.860   8.899   2.079  0.0284 -0.0416  0.8339
  331MOL0     C43614   6.899   8.551   2.305 -0.1132  0.1067 -0.2472
  331MOL0     C43615   6.966   8.537   2.426  0.8952  0.1699 -0.0982
  331MOL0     C43616   7.042   8.417   2.449  0.8440 -0.2624 -0.0834
  331MOL0     C43617   7.051   8.314   2.353  0.4683 -0.2504  0.4167
  331MOL0     O43618   7.121   8.202   2.383 -0.2910  0.9953  0.6807
  331MOL0     C43619   7.036   8.089   2.414 -0.2421 -0.7913 -0.6367
  331MOL0     C43620   7.128   7.971   2.419  0.4220 -0.2309  0.1293
  331MOL0     C43621   7.191   7.945   2.284 -0.0075 -0.1500  0.4749
  331MOL0     C43622   7.265   7.817   2.284 -0.5708  0.7757 -0.3350
  331MOL0     C43623   7.358   7.799   2.167 -0.6186 -1.1839  0.1145
  331MOL0     C43624   7.426   7.759   2.074 -0.6697 -0.1213  0.5217
  331MOL0     C43625   6.989   8.331   2.231 -0.1617 -0.6205  0.5327
  331MOL0     C43626   6.916   8.447   2.214 -0.0286 -0.6197  0.2721
  331MOL0     H43627   6.563   8.746   2.021 -0.7193  1.6978 -1.3548
  331MOL0     H43628   6.511   8.962   1.925  1.2823  1.9827 -1.1130
  331MOL0     H43629   6.504   9.206   1.947  1.2231  0.3002  0.9488
  331MOL0     H43630   6.512   9.137   1.780  1.9230 -2.0417  1.2827
  331MOL0     H43631   6.601   9.346   1.692  0.7896 -2.6714  0.3438
  331MOL0     H43632   6.641   9.394   1.856 -0.6857  2.0672 -0.8668
  331MOL0     H43633   6.393   9.438   1.893 -0.4428 -0.8356 -0.3077
  331MOL0     H43634   6.370   9.392   1.721  0.2659 -0.3467 -0.3202
  331MOL0     H43635   6.535   9.633   1.822 -0.8710  1.7427  0.2206
  331MOL0     H43636   6.497   9.595   1.657  0.3550  0.9102  0.4894
  331MOL0     H43637   6.290   9.636   1.869 -1.6328 -1.0167 -1.2086
  331MOL0     H43638   6.263   9.655   1.698  3.8812  1.2512 -3.6037
  331MOL0     H43639   6.401   9.869   1.693  0.1223  0.9970  0.4348
  331MOL0     H43640   6.478   9.820   1.847  0.2343 -2.5979  1.2781
  331MOL0     H43641   6.180   9.884   1.820  0.8094 -2.0801 -1.6303
  331MOL0     H43642   6.277   9.880   1.966  1.3841 -0.4295 -0.1501
  331MOL0     H43643   6.237  10.117   1.899  0.7169  1.7788 -0.1493
  331MOL0     H43644   6.312  10.074   1.737  0.6245 -2.3906 -0.2839
  331MOL0     H43645   6.395  10.022   2.112 -0.0612 -1.3329 -0.8731
  331MOL0     H43646   6.568  10.137   2.286  1.9659 -0.4403  1.0166
  331MOL0     H43647   6.644  10.281   2.233  1.7966 -0.1568 -0.0662
  331MOL0     H43648   6.831  10.191   2.157 -0.8355  1.1768 -2.0223
  331MOL0     H43649   6.764  10.023   2.139 -2.5601 -0.7989  0.6996
  331MOL0     H43650   6.814  10.181   2.408  2.0327  0.8383 -0.7940
  331MOL0     H43651   6.721  10.024   2.390 -0.0525  0.0192  1.0463
  331MOL0     H43652   6.911   9.924   2.302 -0.2970  0.2060 -0.7556
  331MOL0     H43653   6.944   9.982   2.462 -1.3136  0.0342 -0.9050
  331MOL0     H43654   7.231  10.255   2.255 -0.5003  0.1311  0.9124
  331MOL0     H43655   7.482  10.180   2.274 -2.0589  1.5546 -2.0784
  331MOL0     H43656   7.779   9.842   2.173  0.4148 -2.7688 -1.4430
  331MOL0     H43657   8.009   9.783   2.164 -0.0475  1.2294  1.4753
  331MOL0     H43658   8.244   9.807   2.246  0.1030  0.0969  0.2710
  331MOL0     H43659   8.175   9.663   2.169 -3.3686 -0.4367  2.7355
  331MOL0     H43660   8.431   9.694   2.317 -0.5307  1.0301  0.0120
  331MOL0     H43661   8.412   9.624   2.163 -0.5759  0.9192  0.6536
  331MOL0     H43662   8.259   9.441   2.299 -0.5123  0.6712  0.6225
  331MOL0     H43663   8.334   9.522   2.434 -0.2038 -2.3875  0.9579
  331MOL0     H43664   8.440   9.306   2.330 -0.0362  0.1593  1.1107
  331MOL0     H43665   8.487   9.424   2.195  1.1195  0.1221  0.3374
  331MOL0     H43666   8.530   9.479   2.493 -1.9833 -1.4348 -0.4532
  331MOL0     H43667   8.616   9.541   2.363  4.6505 -1.8408  0.4141
  331MOL0     H43668   8.699   9.265   2.335  0.4574 -1.2217  1.0230
  331MOL0     H43669   8.639   9.276   2.501  0.1862 -2.0780 -0.1259
  331MOL0     H43670   8.850   9.432   2.346  0.8308  1.1684  0.1217
  331MOL0     H43671   8.804   9.490   2.496 -2.7800  1.3821 -4.1010
  331MOL0     H43672   8.879   9.245   2.590 -0.0245 -0.5165 -0.0862
  331MOL0     H43673   9.006   9.346   2.523 -0.0695  1.3775 -3.8544
  331MOL0     H43674   7.999   9.691   2.587 -0.3765 -1.4351 -1.1720
  331MOL0     H43675   7.752   9.724   2.579 -3.7060 -0.3151 -2.2732
  331MOL0     H43676   7.361   9.799   2.429 -0.7877  0.8631  0.9738
  331MOL0     H43677   7.137   9.848   2.382  2.7176 -1.0928  2.5928
  331MOL0     H43678   6.922   9.085   1.987  2.2648 -3.9638  0.0878
  331MOL0     H43679   6.959   8.878   2.119  0.4412  0.1446 -0.0675
  331MOL0     H43680   6.966   8.620   2.496  1.8511 -0.6513  0.8927
  331MOL0     H43681   7.104   8.406   2.538 -0.0097  1.2633  0.7498
  331MOL0     H43682   6.964   8.067   2.335 -0.8905 -1.8799  0.2247
  331MOL0     H43683   6.987   8.099   2.511 -0.0629 -1.1867 -0.5012
  331MOL0     H43684   7.212   7.992   2.485  0.7445  1.4714 -0.7740
  331MOL0     H43685   7.083   7.882   2.464 -3.2085  2.2217  1.8187
  331MOL0     H43686   7.259   8.030   2.276  0.7046  0.3545  6.5369
  331MOL0     H43687   7.131   7.948   2.193 -0.0023  1.0840  0.4960
  331MOL0     H43688   7.315   7.809   2.381 -1.0178  2.1961  0.0382
  331MOL0     H43689   7.185   7.744   2.295  0.8492 -0.4186  3.9926
  331MOL0     H43690   7.492   7.731   1.994 -1.4969 -0.0262 -0.2123
  331MOL0     H43691   7.007   8.260   2.152  0.0925 -0.8290  0.7775
  331MOL0     H43692   6.885   8.463   2.111  3.1149  0.1430 -0.6648
  332MOL0     O43693   9.273  11.154   5.559 -0.1899 -0.1180 -0.3831
  332MOL0     C43694   9.277  11.224   5.464 -0.2322 -0.0667  0.6734
  332MOL0     O43695   9.169  11.289   5.407 -0.0248 -0.5420  0.0729
  332MOL0     C43696   9.042  11.279   5.455  0.5030 -0.2904  0.0933
  332MOL0     C43697   8.996  11.239   5.583 -0.5500  0.3902 -0.1720
  332MOL0     C43698   8.860  11.252   5.617 -0.3770 -0.1051 -0.2296
  332MOL0     C43699   8.774  11.285   5.517  0.1544  0.6838  0.6638
  332MOL0     O43700   8.635  11.285   5.543  0.0314 -0.0678  0.0492
  332MOL0     C43701   8.586  11.370   5.649  0.2426  0.8797  0.6778
  332MOL0     C43702   8.467  11.325   5.733  0.2178 -0.1438  0.5688
  332MOL0     C43703   8.336  11.321   5.650 -0.0621  0.0748  0.7271
  332MOL0     C43704   8.273  11.447   5.603 -0.1931  0.3839  0.6355
  332MOL0     C43705   8.142  11.416   5.522 -0.0947  0.2236 -0.4338
  332MOL0     C43706   8.083  11.547   5.476  0.1792 -0.5692  0.8695
  332MOL0     C43707   7.937  11.531   5.435  0.1706 -0.2873 -0.0056
  332MOL0     C43708   7.923  11.468   5.304 -0.0188 -0.4720  1.2748
  332MOL0     N43709   7.781  11.463   5.263 -0.1604 -0.2645 -0.2204
  332MOL0     C43710   7.700  11.364   5.311 -0.4099  0.5166  0.5210
  332MOL0     C43711   7.571  11.404   5.279 -0.2973  0.4856  0.2692
  332MOL0     C43712   7.449  11.329   5.313 -0.5787 -0.2786 -0.2076
  332MOL0     C43713   7.320  11.366   5.238  0.8613 -0.1584 -0.0619
  332MOL0     C43714   7.257  11.501   5.286 -0.0724 -0.0147  0.0141
  332MOL0     C43715   7.129  11.536   5.205 -0.9135 -0.2946  0.1664
  332MOL0     O43716   7.018  11.448   5.243 -0.2160  0.1277 -0.9118
  332MOL0     C43717   6.896  11.488   5.206  0.2450 -0.4190  0.1502
  332MOL0     C43718   6.792  11.392   5.207  0.5334 -0.0814 -0.7008
  332MOL0     C43719   6.657  11.430   5.171 -0.5809  1.4672  1.0660
  332MOL0     C43720   6.623  11.556   5.126  1.5526  0.5473  0.3516
  332MOL0     C43721   6.482  11.597   5.104  1.1923  0.4053  0.4505
  332MOL0     O43722   6.439  11.720   5.135 -0.9825  0.9578 -0.2631
  332MOL0     C43723   6.302  11.734   5.138 -0.6242 -0.1484  0.0303
  332MOL0     C43724   6.216  11.667   5.226 -1.2733  0.5254  0.5802
  332MOL0     C43725   6.083  11.682   5.221  2.1540  0.1007  0.6765
  332MOL0     C43726   6.021  11.775   5.130 -0.1511 -0.5478 -0.0863
  332MOL0     O43727   5.888  11.808   5.130 -0.7880  0.5336  0.1993
  332MOL0     C43728   5.795  11.688   5.126 -0.3285 -0.5064  0.4526
  332MOL0     C43729   5.652  11.734   5.143  0.9088 -0.0149  0.1911
  332MOL0     C43730   5.626  11.855   5.050 -0.8339 -0.5818 -0.2556
  332MOL0     C43731   5.485  11.911   5.075 -0.2117  0.7551 -0.3580
  332MOL0     C43732   5.395  11.854   4.974 -0.1869  0.5669  0.4364
  332MOL0     C43733   5.392  11.940   4.847 -0.2586 -0.2873  0.2328
  332MOL0     C43734   5.326  11.858   4.741  0.0108  0.2796 -0.5386
  332MOL0     C43735   5.298  11.928   4.608  0.0579 -0.3256  0.4062
  332MOL0    Cl43736   5.152  12.032   4.628 -0.0031 -0.0815 -0.2606
  332MOL0     C43737   6.104  11.840   5.039 -0.5136 -0.4806  0.2044
  332MOL0     C43738   6.244  11.814   5.034  0.1228  0.0281  0.1237
  332MOL0     O43739   6.409  11.501   5.069  0.0875 -0.6887  0.0757
  332MOL0     C43740   6.724  11.652   5.128 -0.4749 -0.7602 -0.8958
  332MOL0     C43741   6.855  11.616   5.167 -0.1851  0.0336 -0.5901
  332MOL0     N43742   7.585  11.527   5.209  0.4578  0.7228  0.0892
  332MOL0     N43743   7.709  11.559   5.206  0.6465  0.4224  0.9613
  332MOL0     C43744   8.812  11.332   5.393  0.0693  0.2619 -0.1362
  332MOL0     C43745   8.947  11.330   5.364 -0.3941  0.5419  0.5426
  332MOL0     C43746   9.417  11.236   5.399  0.2803 -0.1690 -0.4827
  332MOL0     C43747   9.535  11.192   5.454  0.5220  0.2091  0.9945
  332MOL0     C43748   9.656  11.223   5.393 -0.8405 -0.0112  0.2191
  332MOL0     C43749   9.660  11.289   5.270  0.4548  0.6305 -0.2489
  332MOL0     O43750   9.775  11.323   5.207  0.2824 -0.2267  0.7293
  332MOL0     C43751   9.904  11.313   5.277  0.2751  0.3820 -0.0205
  332MOL0     C43752  10.005  11.391   5.202 -0.3789 -0.0506 -0.7053
  332MOL0     C43753  10.142  11.359   5.261 -0.0401 -0.1422  0.1591
  332MOL0     C43754  10.245  11.454   5.211 -0.2117  0.0888 -1.1744
  332MOL0     C43755  10.380  11.405   5.259  0.2555  0.4462  0.8322
  332MOL0     C43756  10.488  11.367   5.284 -0.2738  1.0905  0.2299
  332MOL0     C43757   9.544  11.323   5.211  0.5301  0.0852 -0.7555
  332MOL0     C43758   9.424  11.291   5.274 -0.9821  0.5904  0.5944
  332MOL0     H43759   9.063  11.202   5.660 -0.3368 -2.0467 -1.4234
  332MOL0     H43760   8.817  11.233   5.715 -2.9516  0.5994 -1.1430
  332MOL0     H43761   8.576  11.475   5.622  2.5788  1.5289  2.0308
  332MOL0     H43762   8.667  11.364   5.723  3.6598 -2.6400 -2.8307
  332MOL0     H43763   8.446  11.395   5.815 -0.2558  1.3392 -0.7680
  332MOL0     H43764   8.493  11.228   5.776 -1.4791 -0.5110  0.8445
  332MOL0     H43765   8.273  11.260   5.716  2.6800 -3.6308  0.2566
  332MOL0     H43766   8.352  11.257   5.563 -0.2927 -0.4322  1.0539
  332MOL0     H43767   8.249  11.526   5.674  1.4544  0.3932  1.2210
  332MOL0     H43768   8.349  11.492   5.539  1.9003 -1.6518  1.5451
  332MOL0     H43769   8.069  11.382   5.596  0.2146  1.0506  0.2710
  332MOL0     H43770   8.156  11.349   5.437 -2.1635 -2.2346  1.0158
  332MOL0     H43771   8.150  11.570   5.392  5.4787 -3.3725  3.7604
  332MOL0     H43772   8.086  11.622   5.556  0.6482 -0.7374  1.0113
  332MOL0     H43773   7.888  11.483   5.520  2.1895  0.2475  1.5441
  332MOL0     H43774   7.906  11.635   5.427  3.3476  0.7227 -0.5595
  332MOL0     H43775   7.952  11.363   5.300  1.6248 -0.0095 -0.0118
  332MOL0     H43776   7.977  11.536   5.238 -0.2161 -0.8390  0.7384
  332MOL0     H43777   7.732  11.273   5.360 -2.7858 -0.5112  0.3345
  332MOL0     H43778   7.422  11.321   5.418 -0.7949  0.7388 -0.1691
  332MOL0     H43779   7.467  11.225   5.284 -3.3472 -0.3549 -2.0381
  332MOL0     H43780   7.249  11.285   5.253  0.1074  0.8969  2.5991
  332MOL0     H43781   7.360  11.389   5.139 -2.4996  2.3092 -1.0086
  332MOL0     H43782   7.227  11.494   5.391  1.4801  0.7702  0.5405
  332MOL0     H43783   7.328  11.584   5.280  0.4644 -0.4860 -0.2733
  332MOL0     H43784   7.155  11.533   5.099 -2.1687 -0.7159 -0.1513
  332MOL0     H43785   7.102  11.641   5.213  0.1678  0.0189 -0.2231
  332MOL0     H43786   6.801  11.289   5.240 -1.3332 -0.1540 -0.3054
  332MOL0     H43787   6.590  11.345   5.168 -0.0106  1.0366 -0.7026
  332MOL0     H43788   6.261  11.613   5.309 -2.5140  2.3036  2.5208
  332MOL0     H43789   6.026  11.625   5.293 -0.5052 -2.0212 -2.7575
  332MOL0     H43790   5.826  11.624   5.210 -0.0141 -0.6220  0.2477
  332MOL0     H43791   5.810  11.639   5.030  2.4328 -0.9933  1.0503
  332MOL0     H43792   5.626  11.748   5.248 -1.2646  1.1992 -0.4530
  332MOL0     H43793   5.580  11.655   5.119 -1.3046  1.5120  1.5655
  332MOL0     H43794   5.647  11.841   4.944  1.1348  0.3335 -0.0336
  332MOL0     H43795   5.695  11.928   5.093 -2.2618 -0.2429  1.5911
  332MOL0     H43796   5.444  11.882   5.172 -1.6372  0.6352 -0.9667
  332MOL0     H43797   5.490  12.019   5.058 -1.7770  0.7781 -0.8247
  332MOL0     H43798   5.294  11.865   5.016 -0.3750 -2.2558  0.9041
  332MOL0     H43799   5.407  11.747   4.960 -3.9304  0.4020 -3.8394
  332MOL0     H43800   5.497  11.963   4.830 -0.1114 -1.2595 -0.2457
  332MOL0     H43801   5.334  12.032   4.861 -2.4429 -1.4264 -0.7003
  332MOL0     H43802   5.388  11.769   4.722 -1.6061 -1.3420  1.3539
  332MOL0     H43803   5.229  11.831   4.782 -0.2465  1.2415 -0.4864
  332MOL0     H43804   5.286  11.862   4.522  1.0680  2.5175 -2.0754
  332MOL0     H43805   5.384  11.991   4.588  1.0699 -2.1408 -1.3102
  332MOL0     H43806   6.051  11.902   4.968  1.1198  2.8198  1.6602
  332MOL0     H43807   6.303  11.864   4.958  0.2501 -1.4788 -0.8109
  332MOL0     H43808   6.701  11.755   5.105 -1.4343 -0.9709 -0.9391
  332MOL0     H43809   6.921  11.699   5.190  0.7368 -0.9823  0.5747
  332MOL0     H43810   8.742  11.350   5.312  0.8033  2.2749 -0.3916
  332MOL0     H43811   8.973  11.370   5.266 -1.2721 -2.0762 -0.8673
  332MOL0     H43812   9.530  11.156   5.556 -2.6018  0.4020  1.0313
  332MOL0     H43813   9.741  11.197   5.455 -1.9421 -0.7431  1.4745
  332MOL0     H43814   9.934  11.207   5.281  4.6972  1.4413 -0.2016
  332MOL0     H43815   9.904  11.360   5.375  1.2548  1.5318 -0.5471
  332MOL0     H43816  10.004  11.377   5.093 -1.6527  1.0934 -0.8668
  332MOL0     H43817  10.002  11.497   5.230 -0.9154  0.1637 -1.5121
  332MOL0     H43818  10.169  11.256   5.233  1.9778  0.3412  0.1387
  332MOL0     H43819  10.136  11.356   5.370 -1.1917 -1.7105  0.0803
  332MOL0     H43820  10.255  11.457   5.103  1.2094 -0.6125 -1.0955
  332MOL0     H43821  10.214  11.546   5.261 -1.3977 -1.7814  1.8078
  332MOL0     H43822  10.590  11.339   5.294 -0.9681 -0.5854  4.7912
  332MOL0     H43823   9.540  11.382   5.120  0.0907 -0.1240 -0.8726
  332MOL0     H43824   9.333  11.302   5.216 -0.5528  0.1577 -0.1833
  333MOL0     O43825   3.673   3.420   7.987  0.8543  0.6210 -0.1773
  333MOL0     C43826   3.703   3.522   8.056  0.7845 -0.2204 -0.3585
  333MOL0     O43827   3.635   3.560   8.166 -0.1740  0.7107  0.0681
  333MOL0     C43828   3.527   3.486   8.210  0.6564 -0.9278 -0.9409
  333MOL0     C43829   3.527   3.454   8.347 -0.0328 -0.3238  0.4667
  333MOL0     C43830   3.417   3.396   8.410  0.6697 -0.9099  0.1908
  333MOL0     C43831   3.306   3.360   8.345  0.8154 -0.5720  0.3292
  333MOL0     O43832   3.201   3.314   8.416  0.0963  0.5025  0.3369
  333MOL0     C43833   3.092   3.262   8.350 -0.4611 -0.0453  0.2468
  333MOL0     C43834   2.989   3.373   8.320 -0.2028 -0.1044 -0.0373
  333MOL0     C43835   2.853   3.312   8.271 -0.4164 -0.9258 -0.2013
  333MOL0     C43836   2.742   3.416   8.251 -0.5127 -0.5642 -0.2018
  333MOL0     C43837   2.630   3.364   8.158  1.2698 -0.2498 -0.3088
  333MOL0     C43838   2.560   3.240   8.212  0.7430 -0.2672 -0.0157
  333MOL0     C43839   2.451   3.201   8.112 -0.0385  0.7174 -0.1276
  333MOL0     C43840   2.367   3.089   8.160  0.6044  0.7388 -0.2154
  333MOL0     N43841   2.259   3.060   8.060 -0.5349 -0.0544  0.0367
  333MOL0     C43842   2.163   3.159   8.023 -0.6567 -0.1440 -0.6678
  333MOL0     C43843   2.083   3.085   7.940  0.5968 -0.3100 -0.7315
  333MOL0     C43844   1.950   3.125   7.875  0.3657  0.2049 -0.7053
  333MOL0     C43845   1.834   3.028   7.921  0.0381 -0.4781  1.1599
  333MOL0     C43846   1.717   3.066   7.839 -0.2973 -0.0717  0.6699
  333MOL0     C43847   1.599   2.993   7.900 -0.6969  0.4549  0.4969
  333MOL0     O43848   1.491   3.024   7.805  0.1460 -0.4747 -0.1602
  333MOL0     C43849   1.371   2.968   7.843 -0.5556  0.1712  0.2692
  333MOL0     C43850   1.321   2.982   7.969 -0.3721 -0.0384 -0.3191
  333MOL0     C43851   1.191   2.936   7.994 -0.3691  0.5438  0.1107
  333MOL0     C43852   1.108   2.871   7.892 -0.0453 -0.3759 -0.5477
  333MOL0     C43853   0.972   2.840   7.939 -1.0835  1.1250  0.8570
  333MOL0     O43854   0.907   2.926   8.019  0.5134  0.2540  0.4859
  333MOL0     C43855   0.764   2.925   8.048  0.1233  0.2282 -0.0932
  333MOL0     C43856   0.704   3.027   8.121 -0.1357 -0.4802  0.0941
  333MOL0     C43857   0.567   3.046   8.121 -0.1670 -0.6456 -0.1796
  333MOL0     C43858   0.481   2.964   8.057 -0.4068  0.8089  0.6164
  333MOL0     O43859   0.353   3.002   8.056 -0.2379 -0.4271  0.4526
  333MOL0     C43860   0.248   2.908   8.055 -0.6618  0.7533 -0.2379
  333MOL0     C43861   0.120   2.973   8.078 -0.7014 -0.0040 -0.4220
  333MOL0     C43862   0.011   2.866   8.043 -0.1184  0.1181  0.1097
  333MOL0     C43863  -0.127   2.921   8.077 -0.2384 -0.1259 -0.3366
  333MOL0     C43864  -0.233   2.822   8.036  0.4175  0.2721 -0.0885
  333MOL0     C43865  -0.214   2.688   8.103  0.5524 -0.3551  0.7336
  333MOL0     C43866  -0.345   2.606   8.098  1.1635  0.0341 -0.3973
  333MOL0     C43867  -0.350   2.477   8.178  0.2727  0.3338 -0.7698
  333MOL0    Cl43868  -0.213   2.363   8.122 -0.1170  0.0259  0.3290
  333MOL0     C43869   0.535   2.846   7.998  0.4193 -0.2608  0.9257
  333MOL0     C43870   0.672   2.831   7.998  0.4213  0.5979 -0.9111
  333MOL0     O43871   0.929   2.731   7.903 -0.2924  0.2088  0.8036
  333MOL0     C43872   1.171   2.844   7.769  0.8061 -0.4461 -0.2074
  333MOL0     C43873   1.299   2.894   7.745  0.8982  0.6274 -0.0309
  333MOL0     N43874   2.133   2.949   7.936 -0.2155 -1.0431 -0.4551
  333MOL0     N43875   2.237   2.935   8.010 -0.0711 -0.7362  0.1742
  333MOL0     C43876   3.309   3.374   8.205  0.2883  0.0921 -0.8973
  333MOL0     C43877   3.414   3.449   8.142  0.5598 -0.4608 -0.4167
  333MOL0     C43878   3.812   3.613   7.994  0.6307 -0.1478 -0.1499
  333MOL0     C43879   3.837   3.744   8.044 -0.0434  0.5024  1.0788
  333MOL0     C43880   3.935   3.825   7.981 -0.0076 -1.3853  0.5446
  333MOL0     C43881   4.008   3.780   7.873  0.3373 -0.0516  0.0747
  333MOL0     O43882   4.112   3.858   7.823  0.5161 -0.2877 -1.2424
  333MOL0     C43883   4.243   3.796   7.818 -0.0413  0.5867  0.1745
  333MOL0     C43884   4.350   3.890   7.870  0.8408  0.0929 -0.1281
  333MOL0     C43885   4.438   3.958   7.757 -0.9412  0.4412 -1.1489
  333MOL0     C43886   4.525   4.071   7.818  0.6202  0.1763  1.6490
  333MOL0     C43887   4.642   4.027   7.888 -0.3525 -0.4807  0.1240
  333MOL0     C43888   4.733   3.990   7.952  0.2259  0.4939  0.2968
  333MOL0     C43889   3.980   3.652   7.822  0.9305  0.0699 -0.2388
  333MOL0     C43890   3.892   3.566   7.884  0.1107  0.2352 -0.7776
  333MOL0     H43891   3.618   3.488   8.396  0.4109  0.0882 -0.6149
  333MOL0     H43892   3.419   3.376   8.517 -1.1025  2.6713  1.0287
  333MOL0     H43893   3.047   3.194   8.422  1.1421  0.6241  1.9564
  333MOL0     H43894   3.125   3.196   8.269 -0.3137  0.1167  0.1711
  333MOL0     H43895   3.033   3.435   8.241  1.5091 -3.1004 -1.6164
  333MOL0     H43896   2.966   3.433   8.409 -0.5062  2.3766 -1.6807
  333MOL0     H43897   2.816   3.246   8.351  0.0066  0.5478  1.2736
  333MOL0     H43898   2.860   3.252   8.180 -1.0732 -1.2779 -0.0312
  333MOL0     H43899   2.698   3.428   8.350 -2.7842  1.7813 -1.3548
  333MOL0     H43900   2.785   3.509   8.213 -0.7680 -1.3351 -2.5718
  333MOL0     H43901   2.677   3.332   8.064  0.7313 -1.4734 -0.1850
  333MOL0     H43902   2.563   3.448   8.141 -1.6939 -2.5429 -0.9238
  333MOL0     H43903   2.518   3.274   8.307 -0.3450  1.4963 -1.0691
  333MOL0     H43904   2.618   3.149   8.230 -0.4608 -1.8034 -3.1352
  333MOL0     H43905   2.391   3.291   8.096 -0.2804  0.6160  0.1908
  333MOL0     H43906   2.503   3.172   8.021  1.4795  0.8341  0.6652
  333MOL0     H43907   2.336   3.136   8.254  0.5214  0.6257 -0.1843
  333MOL0     H43908   2.430   3.002   8.183 -0.2608  0.4640  1.2654
  333MOL0     H43909   2.166   3.264   8.050 -1.7516 -0.3248  0.2250
  333MOL0     H43910   1.961   3.124   7.767 -0.0870  3.8595 -0.9219
  333MOL0     H43911   1.939   3.229   7.906 -0.2927 -0.1537  0.3462
  333MOL0     H43912   1.818   3.026   8.029  0.4450 -2.6053  1.2204
  333MOL0     H43913   1.868   2.930   7.888  0.0211  0.5959 -2.4315
  333MOL0     H43914   1.712   3.175   7.828 -2.9540  0.2695  3.8728
  333MOL0     H43915   1.723   3.027   7.737  0.0004  3.8607 -1.0190
  333MOL0     H43916   1.586   3.014   8.006 -1.0680 -2.5915  1.1697
  333MOL0     H43917   1.608   2.884   7.895 -1.3015  0.3417  1.7169
  333MOL0     H43918   1.387   3.027   8.042  2.9979 -0.7577 -2.6895
  333MOL0     H43919   1.149   2.933   8.094  0.0805  0.3987  0.2979
  333MOL0     H43920   0.774   3.107   8.144  0.3960  0.0247 -2.8335
  333MOL0     H43921   0.518   3.142   8.140 -2.1703 -0.7619 -3.8606
  333MOL0     H43922   0.253   2.823   8.124 -0.6935  0.6114 -0.4102
  333MOL0     H43923   0.244   2.857   7.958 -2.4720 -1.5448  0.9238
  333MOL0     H43924   0.112   3.060   8.012  1.8144 -0.6990 -1.7533
  333MOL0     H43925   0.100   2.994   8.184 -0.9319 -1.8701 -0.0591
  333MOL0     H43926   0.035   2.770   8.090  3.8757  1.0283  0.2821
  333MOL0     H43927   0.017   2.831   7.939  1.5919 -1.6338  0.7247
  333MOL0     H43928  -0.128   2.950   8.183  1.2673  1.7247 -0.7605
  333MOL0     H43929  -0.130   3.017   8.024 -1.6166 -0.3322 -0.6812
  333MOL0     H43930  -0.228   2.815   7.927 -1.5693  2.1336 -0.3923
  333MOL0     H43931  -0.331   2.869   8.055 -1.3475 -2.4047 -1.9478
  333MOL0     H43932  -0.164   2.694   8.200  0.7089  1.6277  0.5668
  333MOL0     H43933  -0.148   2.633   8.036  0.6376  1.3614 -0.6653
  333MOL0     H43934  -0.425   2.665   8.144 -0.3316  0.0590 -2.8468
  333MOL0     H43935  -0.379   2.590   7.996  0.9156 -0.9389 -0.1763
  333MOL0     H43936  -0.454   2.444   8.164 -0.8673  2.4226  1.8045
  333MOL0     H43937  -0.351   2.502   8.284  0.6144  0.3298 -0.7656
  333MOL0     H43938   0.470   2.774   7.948 -2.0739  1.5476  1.3828
  333MOL0     H43939   0.710   2.736   7.961 -2.1317 -1.2586  0.7950
  333MOL0     H43940   1.125   2.783   7.692  1.3430 -1.5025  0.2873
  333MOL0     H43941   1.352   2.879   7.652 -0.7750  0.3077 -0.9610
  333MOL0     H43942   3.218   3.353   8.150 -2.1999  0.8554  2.5909
  333MOL0     H43943   3.405   3.470   8.036  3.8139  0.2236 -0.6561
  333MOL0     H43944   3.774   3.771   8.128 -2.8181  2.7736 -1.4941
  333MOL0     H43945   3.951   3.929   8.006  1.6702 -1.1119 -1.3790
  333MOL0     H43946   4.276   3.763   7.719  2.0517  0.7789  0.7609
  333MOL0     H43947   4.258   3.704   7.876  1.4256  2.1629  2.4589
  333MOL0     H43948   4.310   3.955   7.948 -0.8289 -2.0053  0.8593
  333MOL0     H43949   4.418   3.834   7.934  0.1035 -2.6686 -1.5935
  333MOL0     H43950   4.379   4.006   7.678  0.6152 -0.1494 -2.7339
  333MOL0     H43951   4.506   3.890   7.705  1.7093  1.4502  0.7679
  333MOL0     H43952   4.565   4.111   7.725  1.6676  0.8787  2.3769
  333MOL0     H43953   4.473   4.147   7.879 -1.4500 -0.8555  1.2605
  333MOL0     H43954   4.821   3.949   7.997  0.5824  1.0022  0.0744
  333MOL0     H43955   4.040   3.610   7.742  0.6619 -2.9620  1.0346
  333MOL0     H43956   3.878   3.465   7.847 -0.5942 -1.0915  2.6941
  334MOL0     O43957   6.905  10.840   4.717  0.7446  0.6727  0.3507
  334MOL0     C43958   6.911  10.908   4.816 -0.0093 -0.4201  0.0476
  334MOL0     O43959   6.857  10.882   4.937 -0.7731  0.4505 -0.8224
  334MOL0     C43960   6.734  10.813   4.946 -0.8065  0.0960  0.2770
  334MOL0     C43961   6.691  10.712   4.857 -0.5228  0.5824 -0.4318
  334MOL0     C43962   6.571  10.645   4.889 -0.3403  0.1027  0.9070
  334MOL0     C43963   6.490  10.680   4.999 -0.5800 -0.2632  0.6272
  334MOL0     O43964   6.376  10.626   5.033  0.5075  0.5228  0.2256
  334MOL0     C43965   6.297  10.535   4.948  0.4239 -0.5322 -0.0941
  334MOL0     C43966   6.147  10.545   4.986 -0.3075 -0.3138  0.6714
  334MOL0     C43967   6.113  10.524   5.137  1.1904 -0.2837 -0.0915
  334MOL0     C43968   5.970  10.574   5.162 -0.8594 -0.8417  0.4933
  334MOL0     C43969   5.941  10.548   5.313 -0.3340  0.3266  0.7709
  334MOL0     C43970   5.798  10.611   5.345  0.2692  0.8576 -0.5362
  334MOL0     C43971   5.687  10.519   5.310 -0.0878  0.0312  0.6171
  334MOL0     C43972   5.563  10.586   5.367 -0.1921  0.2647 -0.4321
  334MOL0     N43973   5.454  10.482   5.373 -0.2556  0.9594  0.2812
  334MOL0     C43974   5.377  10.457   5.488  0.4871 -0.4175  0.2214
  334MOL0     C43975   5.297  10.356   5.449 -0.5622  0.4526 -0.2770
  334MOL0     C43976   5.190  10.297   5.537  0.0892  0.3749  0.5568
  334MOL0     C43977   5.054  10.364   5.504 -0.0201  1.0308 -0.5203
  334MOL0     C43978   4.967  10.318   5.633  0.0956 -0.1642  0.2103
  334MOL0     C43979   4.823  10.353   5.597 -0.0473  0.7005  0.8144
  334MOL0     O43980   4.774  10.299   5.472  0.1846 -0.1224  0.1179
  334MOL0     C43981   4.639  10.306   5.461 -0.6988  1.6244  0.7150
  334MOL0     C43982   4.600  10.338   5.327 -0.4414 -0.1623  0.4334
  334MOL0     C43983   4.464  10.339   5.290  0.0970  0.5789 -0.4670
  334MOL0     C43984   4.366  10.322   5.383  0.2523  0.0437 -0.1551
  334MOL0     C43985   4.225  10.324   5.351  0.5540 -0.4795  1.1833
  334MOL0     O43986   4.137  10.297   5.456 -0.3133  0.3553 -0.0770
  334MOL0     C43987   4.003  10.274   5.427 -0.3517  0.4801 -0.3175
  334MOL0     C43988   3.954  10.209   5.315 -1.0769 -0.1691 -0.3750
  334MOL0     C43989   3.811  10.192   5.306 -0.5055  0.2238 -0.8878
  334MOL0     C43990   3.712  10.242   5.390 -0.3138 -0.3988  0.1245
  334MOL0     O43991   3.574  10.244   5.359 -0.0131  0.2560  0.2656
  334MOL0     C43992   3.486  10.337   5.411  0.1820 -0.3172  0.0865
  334MOL0     C43993   3.335  10.321   5.367  0.4091 -1.1545 -0.4048
  334MOL0     C43994   3.312  10.378   5.230 -0.4743  0.3468  0.1285
  334MOL0     C43995   3.175  10.345   5.181 -0.1849  0.4119  0.1337
  334MOL0     C43996   3.159  10.406   5.042  0.2450  0.4183  0.1276
  334MOL0     C43997   3.040  10.340   4.970 -1.1557  0.7983 -0.0043
  334MOL0     C43998   3.017  10.406   4.834  0.7532 -1.2812  0.2596
  334MOL0     C43999   2.887  10.355   4.762  0.4917 -0.3300  0.3742
  334MOL0    Cl44000   2.769  10.482   4.807  0.0153  0.2519 -0.0395
  334MOL0     C44001   3.776  10.316   5.496 -0.6084  0.5334 -0.0848
  334MOL0     C44002   3.912  10.326   5.521  0.2474  0.3293 -0.6484
  334MOL0     O44003   4.198  10.364   5.239  0.0041  0.1855  0.0854
  334MOL0     C44004   4.410  10.293   5.516  0.7127  0.6103 -0.6949
  334MOL0     C44005   4.539  10.296   5.559 -0.5449 -0.2229  0.3330
  334MOL0     N44006   5.304  10.337   5.312 -0.1466  0.4291  0.6715
  334MOL0     N44007   5.411  10.400   5.270 -0.1059  0.2806 -0.0937
  334MOL0     C44008   6.542  10.774   5.082  0.0555 -0.7338  0.7619
  334MOL0     C44009   6.661  10.839   5.058 -0.1966 -0.8193  0.3121
  334MOL0     C44010   7.002  11.023   4.801  0.9365 -0.6853 -0.3654
  334MOL0     C44011   7.058  11.097   4.915  0.7913  0.3100 -0.1793
  334MOL0     C44012   7.150  11.203   4.886  1.0143  0.6165 -0.4608
  334MOL0     C44013   7.200  11.228   4.758 -0.2226 -0.4761 -0.2042
  334MOL0     O44014   7.310  11.312   4.753 -0.0084 -0.2587 -0.1661
  334MOL0     C44015   7.375  11.333   4.627 -0.7059  0.5337  0.3389
  334MOL0     C44016   7.480  11.443   4.650  0.1413  0.1834  0.7120
  334MOL0     C44017   7.584  11.410   4.758  0.6249 -0.0987 -0.1098
  334MOL0     C44018   7.707  11.499   4.758 -0.4413 -0.6054  0.6677
  334MOL0     C44019   7.805  11.462   4.865  1.1540 -0.0043 -0.4833
  334MOL0     C44020   7.879  11.432   4.962 -0.9377 -0.7379 -0.1805
  334MOL0     C44021   7.142  11.163   4.655 -0.0041  0.6529  0.3141
  334MOL0     C44022   7.036  11.072   4.674 -0.1401 -0.5576  0.0694
  334MOL0     H44023   6.753  10.682   4.773 -0.4316  0.4236 -0.3067
  334MOL0     H44024   6.525  10.578   4.817 -0.3555  1.6993 -0.6209
  334MOL0     H44025   6.332  10.432   4.956 -1.6533 -1.2941 -0.1204
  334MOL0     H44026   6.301  10.560   4.841 -0.3099 -0.2322 -0.0588
  334MOL0     H44027   6.086  10.479   4.924 -1.6686  1.1724  0.3758
  334MOL0     H44028   6.118  10.645   4.952  0.4170  0.0488  1.0831
  334MOL0     H44029   6.179  10.594   5.188 -1.1954  1.7490  0.3779
  334MOL0     H44030   6.132  10.422   5.171  1.6441 -0.2501 -0.2406
  334MOL0     H44031   5.964  10.680   5.133  0.3226 -1.4731 -2.3404
  334MOL0     H44032   5.898  10.525   5.095 -2.7599  1.2041  0.9027
  334MOL0     H44033   6.017  10.597   5.375 -0.3011  0.5201  0.5800
  334MOL0     H44034   5.942  10.442   5.337  0.7672  0.5567  1.9016
  334MOL0     H44035   5.789  10.704   5.289  1.3047  0.9362 -0.5900
  334MOL0     H44036   5.789  10.627   5.453 -3.9607  0.7351 -0.6981
  334MOL0     H44037   5.684  10.495   5.204  0.1504  1.8705  0.1606
  334MOL0     H44038   5.695  10.424   5.363  0.2526 -0.2061  0.1426
  334MOL0     H44039   5.527  10.666   5.302 -2.6281 -0.0379  0.4650
  334MOL0     H44040   5.581  10.638   5.461 -0.9888 -2.3854  1.2901
  334MOL0     H44041   5.383  10.508   5.584  2.2696 -0.1391  0.0019
  334MOL0     H44042   5.222  10.312   5.641  1.3874 -0.6085  0.3258
  334MOL0     H44043   5.197  10.191   5.509  4.4169  1.0835 -1.9356
  334MOL0     H44044   5.007  10.328   5.412 -3.0238  0.6509  1.0153
  334MOL0     H44045   5.067  10.472   5.498  1.8514  0.7535 -2.4997
  334MOL0     H44046   4.978  10.213   5.659 -1.6930 -0.5625 -0.5331
  334MOL0     H44047   5.001  10.380   5.718 -1.1933  2.3871 -1.0175
  334MOL0     H44048   4.816  10.462   5.585 -1.2543  0.9221  3.0611
  334MOL0     H44049   4.764  10.328   5.685  0.0398 -3.7704 -0.1544
  334MOL0     H44050   4.671  10.351   5.246  0.7756 -1.5568  1.2333
  334MOL0     H44051   4.433  10.358   5.188  0.1003  2.0720 -0.2159
  334MOL0     H44052   4.022  10.180   5.236 -0.8403 -1.8988  0.4319
  334MOL0     H44053   3.784  10.154   5.208  2.3844 -1.0528 -1.2843
  334MOL0     H44054   3.507  10.442   5.391  0.1682 -0.0727  1.2677
  334MOL0     H44055   3.494  10.329   5.520  0.1541  1.5760  0.2548
  334MOL0     H44056   3.269  10.373   5.437  0.1737  0.4357 -1.7470
  334MOL0     H44057   3.308  10.215   5.369  1.0655 -1.3172  0.6598
  334MOL0     H44058   3.397  10.350   5.166  0.5023 -1.5093  2.1106
  334MOL0     H44059   3.332  10.486   5.231 -2.0550  0.6939 -1.1024
  334MOL0     H44060   3.172  10.235   5.178 -1.0215  0.4181  0.4370
  334MOL0     H44061   3.102  10.372   5.257 -0.3638  0.2146  0.0330
  334MOL0     H44062   3.244  10.394   4.974 -1.2425 -2.0991 -1.4270
  334MOL0     H44063   3.140  10.513   5.055  1.2257  0.6975 -0.6150
  334MOL0     H44064   2.948  10.343   5.030 -0.1876 -0.4272  1.6353
  334MOL0     H44065   3.056  10.232   4.964  0.6642  1.0121  0.6028
  334MOL0     H44066   3.014  10.516   4.837 -0.1622 -1.2999  0.6476
  334MOL0     H44067   3.094  10.371   4.766  1.0540 -2.0836  0.9918
  334MOL0     H44068   2.853  10.260   4.804 -1.0978  1.4155  3.3687
  334MOL0     H44069   2.898  10.348   4.653 -1.2192  2.6988 -0.1111
  334MOL0     H44070   3.722  10.358   5.581  1.5459 -1.5222  2.4751
  334MOL0     H44071   3.943  10.375   5.614  0.9208 -2.2468  0.5691
  334MOL0     H44072   4.333  10.273   5.590 -0.1167  3.0716 -0.8033
  334MOL0     H44073   4.560  10.275   5.664  1.0461  1.5568  0.4296
  334MOL0     H44074   6.482  10.815   5.163 -0.9468 -1.1139  0.2318
  334MOL0     H44075   6.712  10.898   5.134 -3.2911  1.0922  1.0987
  334MOL0     H44076   7.041  11.069   5.018  0.6026  0.1431 -0.2546
  334MOL0     H44077   7.165  11.266   4.973 -2.1855 -0.9456  1.3829
  334MOL0     H44078   7.314  11.363   4.542  0.2378  0.6885 -0.3000
  334MOL0     H44079   7.430  11.241   4.608  0.8517  1.9369 -2.4585
  334MOL0     H44080   7.541  11.452   4.560  1.0101 -0.9977  1.1646
  334MOL0     H44081   7.431  11.539   4.670 -2.6603 -1.3741  1.8328
  334MOL0     H44082   7.630  11.312   4.741  3.1641  0.9428  0.3213
  334MOL0     H44083   7.535  11.410   4.856 -0.8535 -0.8223 -0.8097
  334MOL0     H44084   7.755  11.498   4.660 -2.4688  0.6360 -0.4096
  334MOL0     H44085   7.690  11.607   4.763  2.4162  0.3350 -3.8601
  334MOL0     H44086   7.947  11.414   5.043  0.1885 -1.9369 -1.3471
  334MOL0     H44087   7.172  11.183   4.553  0.7871  1.1446  0.6323
  334MOL0     H44088   7.004  11.023   4.583  3.2583 -2.0729 -0.4447
  335MOL0     O44089   6.298  11.166  10.540  0.0954 -0.2005  0.1665
  335MOL0     C44090   6.359  11.262  10.588 -0.2748  0.7883 -0.8421
  335MOL0     O44091   6.307  11.377  10.627 -1.0262 -0.3178  0.2049
  335MOL0     C44092   6.178  11.401  10.594  0.8961  0.2152 -0.1952
  335MOL0     C44093   6.124  11.401  10.468  0.1351 -1.1289  0.2720
  335MOL0     C44094   5.991  11.445  10.446 -0.1036  0.5158 -0.1828
  335MOL0     C44095   5.913  11.466  10.560  0.4923 -0.4886  0.0379
  335MOL0     O44096   5.782  11.478  10.528  0.1224  0.0832  0.2379
  335MOL0     C44097   5.690  11.530  10.616 -0.8301 -0.2790 -0.1251
  335MOL0     C44098   5.555  11.546  10.544  0.1328 -0.1895  0.2433
  335MOL0     C44099   5.484  11.411  10.520 -1.1143  0.3092 -0.8680
  335MOL0     C44100   5.334  11.423  10.499  0.2669 -0.1314 -0.4970
  335MOL0     C44101   5.273  11.302  10.433  0.2198 -0.3529  0.7555
  335MOL0     C44102   5.280  11.177  10.518  0.1044  0.1046  0.4689
  335MOL0     C44103   5.173  11.082  10.475 -0.4012 -0.8924 -0.1446
  335MOL0     C44104   5.178  10.947  10.543 -0.4676  0.6602 -0.4165
  335MOL0     N44105   5.061  10.864  10.507  0.2381 -0.0410  0.4465
  335MOL0     C44106   5.037  10.807  10.388 -0.0924  0.2819  0.0623
  335MOL0     C44107   4.915  10.740  10.404  0.0022  0.9816 -0.5611
  335MOL0     C44108   4.845  10.681  10.283  1.1211 -0.4385 -0.0144
  335MOL0     C44109   4.696  10.648  10.309 -0.8441 -0.0088  0.3063
  335MOL0     C44110   4.620  10.613  10.180 -0.4666  0.7045  0.3626
  335MOL0     C44111   4.472  10.566  10.211 -0.0833  0.1559  0.4890
  335MOL0     O44112   4.392  10.548  10.095  0.8853  0.9011  0.0152
  335MOL0     C44113   4.262  10.489  10.105 -0.8653 -0.1817 -0.1867
  335MOL0     C44114   4.191  10.495   9.985  0.0197 -0.3217 -0.0919
  335MOL0     C44115   4.060  10.450   9.992 -0.0200 -0.5328 -0.1928
  335MOL0     C44116   3.994  10.399  10.105 -0.2839 -0.7455 -0.3829
  335MOL0     C44117   3.844  10.368  10.111  0.0311  0.4071  0.4281
  335MOL0     O44118   3.773  10.445  10.024 -0.3180  0.3328 -0.1127
  335MOL0     C44119   3.637  10.466  10.039  0.3525 -0.0010 -0.0160
  335MOL0     C44120   3.541  10.368   9.999 -0.0062 -1.0782  0.5888
  335MOL0     C44121   3.404  10.406   9.999  0.1134 -0.2715  0.0157
  335MOL0     C44122   3.361  10.539  10.036 -1.2635 -0.0778 -0.0741
  335MOL0     O44123   3.230  10.584  10.041  0.1381  0.0924 -0.1408
  335MOL0     C44124   3.119  10.492  10.051 -0.1378  0.2200 -0.6006
  335MOL0     C44125   2.984  10.566  10.077 -0.3505 -0.4501  0.5518
  335MOL0     C44126   2.872  10.464  10.067  0.5420  0.1862 -0.4843
  335MOL0     C44127   2.734  10.536  10.086  0.7986 -0.1926  0.9429
  335MOL0     C44128   2.624  10.430  10.102 -0.2894 -0.4445  0.3756
  335MOL0     C44129   2.487  10.508  10.125  0.4623  0.5264  0.7404
  335MOL0     C44130   2.378  10.398  10.135  0.5487 -0.5433  0.6303
  335MOL0     C44131   2.248  10.431  10.220 -0.1870  0.3209 -0.1945
  335MOL0    Cl44132   2.171  10.557  10.123 -0.2290  0.0902  0.1602
  335MOL0     C44133   3.463  10.623  10.102  0.4322  0.4603  0.2045
  335MOL0     C44134   3.594  10.589  10.083 -0.8115  0.3000  0.3789
  335MOL0     O44135   3.802  10.285  10.195 -0.4553 -0.2673  0.0041
  335MOL0     C44136   4.075  10.399  10.217  1.4649 -0.6401  0.1628
  335MOL0     C44137   4.202  10.451  10.223  0.1123 -1.0388 -0.3858
  335MOL0     N44138   4.868  10.748  10.532 -0.6372 -0.1525  0.1705
  335MOL0     N44139   4.953  10.827  10.590 -0.3215  0.3175  0.0517
  335MOL0     C44140   5.968  11.474  10.688  0.8720 -0.4371  0.3725
  335MOL0     C44141   6.096  11.452  10.698 -0.2962  1.1209  0.6614
  335MOL0     C44142   6.505  11.233  10.610 -1.4637 -0.8931 -0.4004
  335MOL0     C44143   6.568  11.109  10.588  0.8740 -0.8376  0.2570
  335MOL0     C44144   6.707  11.109  10.577 -0.4153 -0.6616  0.0471
  335MOL0     C44145   6.779  11.221  10.604 -0.5807  0.2352 -0.2185
  335MOL0     O44146   6.918  11.234  10.607 -0.2800 -0.2926  0.4821
  335MOL0     C44147   7.001  11.142  10.526  0.7634  0.3268 -0.5056
  335MOL0     C44148   7.145  11.169  10.544  0.1978 -0.6434  0.4601
  335MOL0     C44149   7.200  11.243  10.416  0.5057 -0.9826 -0.4628
  335MOL0     C44150   7.339  11.285  10.443  0.1798  0.3262 -0.1831
  335MOL0     C44151   7.392  11.339  10.314  0.4214  0.6453  0.1351
  335MOL0     C44152   7.426  11.398  10.212 -0.3933  0.7042 -0.0028
  335MOL0     C44153   6.720  11.342  10.629  0.3488 -0.2235 -0.3927
  335MOL0     C44154   6.583  11.350  10.641 -0.2173 -0.5690  0.1240
  335MOL0     H44155   6.181  11.379  10.378 -1.8687  0.9179 -1.6329
  335MOL0     H44156   5.951  11.438  10.346  1.6536 -0.6200 -0.8522
  335MOL0     H44157   5.722  11.628  10.653  2.7705 -1.9603  1.6178
  335MOL0     H44158   5.688  11.460  10.700 -0.5760 -1.5920 -1.1791
  335MOL0     H44159   5.566  11.601  10.450  1.4808  1.5422  1.3556
  335MOL0     H44160   5.478  11.599  10.600 -0.2715  0.4732 -0.8934
  335MOL0     H44161   5.502  11.344  10.604 -0.5982  0.1617 -1.0911
  335MOL0     H44162   5.533  11.363  10.435  0.0067  1.4991 -0.9289
  335MOL0     H44163   5.289  11.436  10.598  1.9934 -0.1946  0.3248
  335MOL0     H44164   5.325  11.511  10.434  3.3573  1.2423  0.7343
  335MOL0     H44165   5.333  11.293  10.343  2.8072  0.6326  2.2641
  335MOL0     H44166   5.169  11.324  10.407  0.1868 -0.6044  0.6716
  335MOL0     H44167   5.252  11.209  10.619 -2.8603  3.6226 -1.2106
  335MOL0     H44168   5.371  11.117  10.515 -0.5601 -0.8799 -0.4156
  335MOL0     H44169   5.076  11.122  10.505 -0.7382 -1.8172  0.0268
  335MOL0     H44170   5.177  11.068  10.366  3.1711 -0.5086 -0.2041
  335MOL0     H44171   5.191  10.961  10.651 -0.7275 -0.2599 -0.2641
  335MOL0     H44172   5.268  10.900  10.504 -0.6088 -0.0812  0.1362
  335MOL0     H44173   5.096  10.812  10.298 -0.6555  1.9531 -0.2544
  335MOL0     H44174   4.893  10.593  10.239 -0.0988 -0.4307 -1.4741
  335MOL0     H44175   4.849  10.764  10.211  0.2268 -1.6127 -1.4755
  335MOL0     H44176   4.650  10.743  10.339  0.1346  0.0640  1.6754
  335MOL0     H44177   4.680  10.564  10.377  1.6427 -0.1778  0.7654
  335MOL0     H44178   4.625  10.688  10.101 -1.1170  1.0897  0.6740
  335MOL0     H44179   4.674  10.524  10.145 -0.1927  0.6377  0.9365
  335MOL0     H44180   4.430  10.623  10.294  0.9435 -1.4423  2.1906
  335MOL0     H44181   4.478  10.467  10.258 -0.7550 -0.5560 -0.8524
  335MOL0     H44182   4.213  10.540   9.889 -1.0500 -1.3449 -0.8557
  335MOL0     H44183   4.005  10.476   9.902 -0.7376 -0.7840  0.1646
  335MOL0     H44184   3.584  10.272   9.974  0.7089 -0.8357  0.8653
  335MOL0     H44185   3.324  10.337   9.972  1.7252 -1.9235 -0.7833
  335MOL0     H44186   3.143  10.434  10.140  2.2646  3.1122  0.8576
  335MOL0     H44187   3.119  10.428   9.962 -0.6764 -0.2819 -0.2449
  335MOL0     H44188   2.975  10.650  10.008  1.4287 -0.7064 -0.0356
  335MOL0     H44189   2.988  10.619  10.173 -1.8807  0.6918  0.0432
  335MOL0     H44190   2.885  10.385  10.141  2.1796 -0.9310 -1.8863
  335MOL0     H44191   2.872  10.405   9.975  1.8403 -2.5891  1.1870
  335MOL0     H44192   2.738  10.606  10.171  3.2512  1.8952 -0.7268
  335MOL0     H44193   2.704  10.594   9.998  0.5892 -1.7771 -0.0627
  335MOL0     H44194   2.646  10.366  10.188 -0.6256 -1.0552  0.0107
  335MOL0     H44195   2.621  10.379  10.006 -0.1916 -0.9453  0.6371
  335MOL0     H44196   2.457  10.578  10.047  0.2700  1.8743  1.9848
  335MOL0     H44197   2.496  10.564  10.218 -4.5474  0.1164  1.7279
  335MOL0     H44198   2.352  10.386  10.030 -0.7453  1.7235  0.6320
  335MOL0     H44199   2.431  10.307  10.166  1.4181  0.1478  1.2428
  335MOL0     H44200   2.277  10.468  10.318 -3.2843  0.7222  0.6503
  335MOL0     H44201   2.188  10.340  10.231  2.2973 -1.1556  2.5241
  335MOL0     H44202   3.426  10.709  10.157 -2.0514 -0.3478 -0.0548
  335MOL0     H44203   3.663  10.668  10.110 -0.0081  0.5892 -2.2606
  335MOL0     H44204   4.042  10.372  10.316 -2.8507 -0.3440 -0.9891
  335MOL0     H44205   4.248  10.466  10.320  0.7197 -0.1201 -0.7956
  335MOL0     H44206   5.909  11.491  10.778  1.2591  1.1840  0.3428
  335MOL0     H44207   6.154  11.473  10.787 -0.6808  0.3499  1.1090
  335MOL0     H44208   6.510  11.017  10.582 -0.5404 -0.0804  1.6256
  335MOL0     H44209   6.761  11.015  10.574 -1.4200 -1.2418 -2.4345
  335MOL0     H44210   6.973  11.129  10.421 -0.5872 -0.8385 -0.0335
  335MOL0     H44211   6.985  11.048  10.579  1.0545  1.0054  0.8117
  335MOL0     H44212   7.160  11.225  10.637 -0.8264  0.6633 -0.1435
  335MOL0     H44213   7.195  11.072  10.555  2.4259  0.5786  1.8683
  335MOL0     H44214   7.145  11.336  10.399  0.7509 -0.5332  1.0252
  335MOL0     H44215   7.187  11.171  10.335 -0.3052 -0.5388 -0.7395
  335MOL0     H44216   7.324  11.367  10.514 -1.4345  2.0466 -2.3471
  335MOL0     H44217   7.397  11.203  10.486 -0.5251  0.3089  0.7738
  335MOL0     H44218   7.465  11.450  10.127 -2.4724 -0.6724 -1.9425
  335MOL0     H44219   6.782  11.429  10.644 -0.4775  0.8418 -2.6772
  335MOL0     H44220   6.533  11.438  10.682  1.4674 -0.3332  1.7709
  336MOL0     O44221   0.382   0.100   5.914 -0.2649 -0.6694 -0.2910
  336MOL0     C44222   0.366   0.001   5.845  1.0966 -0.2497 -0.0352
  336MOL0     O44223   0.240  -0.046   5.807 -0.4749  0.1614 -0.0591
  336MOL0     C44224   0.127  -0.024   5.884 -0.2005 -0.3310 -0.7172
  336MOL0     C44225   0.121   0.025   6.020  0.3940  0.5894  0.5714
  336MOL0     C44226   0.003   0.031   6.095 -0.4131  0.1026  0.1465
  336MOL0     C44227  -0.112  -0.022   6.037 -0.1661 -0.2294  0.4346
  336MOL0     O44228  -0.234  -0.041   6.098 -0.5572 -0.1250 -0.5957
  336MOL0     C44229  -0.235  -0.058   6.241  0.6763  0.4677  0.0519
  336MOL0     C44230  -0.141  -0.180   6.286 -0.4205  0.6486 -0.9646
  336MOL0     C44231  -0.140  -0.213   6.437 -0.3323  0.7453 -0.6279
  336MOL0     C44232  -0.274  -0.242   6.497  0.7176  0.9159 -1.2844
  336MOL0     C44233  -0.337  -0.374   6.442 -0.0897  0.6121  0.5429
  336MOL0     C44234  -0.487  -0.410   6.496 -0.2402 -1.0526  0.0705
  336MOL0     C44235  -0.475  -0.454   6.642  0.0837  0.6171 -0.5395
  336MOL0     C44236  -0.612  -0.518   6.693 -0.6355  0.2128  0.1217
  336MOL0     N44237  -0.644  -0.631   6.612 -0.2383 -0.4994 -0.5094
  336MOL0     C44238  -0.759  -0.643   6.538 -0.1443  0.0750  0.0632
  336MOL0     C44239  -0.756  -0.779   6.511 -0.3393  1.3272 -0.4448
  336MOL0     C44240  -0.868  -0.854   6.449 -0.6910  0.3317  0.2882
  336MOL0     C44241  -0.988  -0.848   6.540  0.3506  0.8614  0.1995
  336MOL0     C44242  -0.959  -0.912   6.681  0.5001  0.7320 -0.4446
  336MOL0     C44243  -1.076  -0.897   6.779  0.1571  0.3661 -0.1392
  336MOL0     O44244  -1.119  -0.765   6.802 -0.6734 -0.5940 -0.2216
  336MOL0     C44245  -1.033  -0.668   6.858  0.9416  0.1456  0.3709
  336MOL0     C44246  -1.075  -0.540   6.818 -0.8610  0.4649  0.3694
  336MOL0     C44247  -0.999  -0.423   6.858 -0.7648  0.2444 -0.7498
  336MOL0     C44248  -0.879  -0.445   6.937  0.3210 -0.7587  0.2651
  336MOL0     C44249  -0.799  -0.330   6.986  0.0506  0.2762  0.6536
  336MOL0     O44250  -0.679  -0.367   7.021 -0.1751 -0.3542 -0.1387
  336MOL0     C44251  -0.581  -0.269   7.001  0.2070  0.4934  0.3372
  336MOL0     C44252  -0.493  -0.256   7.108 -0.3988 -0.1135  0.6819
  336MOL0     C44253  -0.390  -0.161   7.100  0.2658 -0.6881 -0.5213
  336MOL0     C44254  -0.366  -0.082   6.983 -0.4807 -0.2058 -0.2725
  336MOL0     O44255  -0.240  -0.017   6.978  0.3819  0.4548  0.5392
  336MOL0     C44256  -0.202   0.032   6.843  0.8588  0.2504 -1.3586
  336MOL0     C44257  -0.059   0.082   6.866 -0.8652 -0.3304 -0.3838
  336MOL0     C44258  -0.061   0.214   6.947 -0.4952  0.1951  0.5226
  336MOL0     C44259   0.080   0.253   6.986  0.9463 -0.8212  0.0020
  336MOL0     C44260   0.101   0.406   6.995 -0.4488  0.6477 -0.0018
  336MOL0     C44261   0.040   0.485   6.883 -0.7542  0.0218 -0.6875
  336MOL0     C44262   0.099   0.622   6.857  0.1243 -0.5903  0.2347
  336MOL0     C44263   0.217   0.628   6.770  0.0229 -0.5272  0.2535
  336MOL0    Cl44264   0.368   0.671   6.878  0.2054  0.2847 -0.2036
  336MOL0     C44265  -0.459  -0.105   6.877 -0.6509  0.3337 -0.1454
  336MOL0     C44266  -0.565  -0.191   6.888 -1.0509 -0.2803  0.8184
  336MOL0     O44267  -0.841  -0.221   6.971  0.4037 -0.8524 -0.1827
  336MOL0     C44268  -0.845  -0.574   6.978  0.8961  0.0800 -0.3037
  336MOL0     C44269  -0.927  -0.680   6.944  0.3437 -0.4803  0.7795
  336MOL0     N44270  -0.640  -0.839   6.568  0.5283 -0.4113  0.5793
  336MOL0     N44271  -0.580  -0.749   6.630  0.5841  0.1902 -0.4758
  336MOL0     C44272  -0.111  -0.073   5.911  0.2684  0.6737 -0.7458
  336MOL0     C44273   0.009  -0.070   5.830  1.3001 -0.1518 -0.3094
  336MOL0     C44274   0.484  -0.069   5.788 -0.2451 -0.0910 -0.7115
  336MOL0     C44275   0.466  -0.186   5.718 -0.6375 -0.8662 -0.4588
  336MOL0     C44276   0.565  -0.262   5.669 -0.6763  0.4154  0.5508
  336MOL0     C44277   0.693  -0.224   5.688 -0.7609 -0.4691  0.9911
  336MOL0     O44278   0.793  -0.315   5.645  0.3871 -0.2773 -0.3367
  336MOL0     C44279   0.930  -0.272   5.643 -0.5061 -1.1456 -0.2468
  336MOL0     C44280   1.002  -0.382   5.568  0.6856  0.7732  0.7194
  336MOL0     C44281   1.151  -0.357   5.554 -0.7730  0.1080 -0.0370
  336MOL0     C44282   1.234  -0.460   5.485 -0.8163  0.1945  0.2629
  336MOL0     C44283   1.173  -0.491   5.355  0.4277 -0.1555  0.5368
  336MOL0     C44284   1.129  -0.524   5.248 -0.0623  0.6299  0.1100
  336MOL0     C44285   0.719  -0.105   5.748  0.2948 -0.1662 -0.2041
  336MOL0     C44286   0.618  -0.024   5.804  0.3636 -0.1049  0.7713
  336MOL0     H44287   0.216   0.042   6.070  1.4756 -1.8343 -0.5145
  336MOL0     H44288   0.013   0.066   6.197  0.1192 -1.0141  0.4989
  336MOL0     H44289  -0.339  -0.076   6.270  0.7308  1.3728  0.8705
  336MOL0     H44290  -0.204   0.037   6.285 -0.7186  1.3717 -0.8496
  336MOL0     H44291  -0.037  -0.152   6.264 -0.0166  0.3727  0.5082
  336MOL0     H44292  -0.150  -0.275   6.232  0.9663 -1.0502  1.5973
  336MOL0     H44293  -0.092  -0.132   6.493 -0.3616 -0.2112  0.8428
  336MOL0     H44294  -0.078  -0.302   6.452  0.2821  0.5841 -3.5174
  336MOL0     H44295  -0.255  -0.251   6.604  1.0458 -1.0786 -1.4773
  336MOL0     H44296  -0.337  -0.154   6.478  1.3282  1.2261 -1.9290
  336MOL0     H44297  -0.271  -0.456   6.473 -1.4957 -0.6601  0.3501
  336MOL0     H44298  -0.343  -0.369   6.333  0.1713  0.3982  0.5176
  336MOL0     H44299  -0.527  -0.489   6.432  1.6692 -3.1199  1.2853
  336MOL0     H44300  -0.536  -0.313   6.494  1.6057  0.1219  3.4626
  336MOL0     H44301  -0.406  -0.538   6.648 -0.7462  0.0196  1.9234
  336MOL0     H44302  -0.435  -0.377   6.709  2.4458 -1.0898  0.1457
  336MOL0     H44303  -0.699  -0.452   6.685 -1.6204 -1.0607 -0.1527
  336MOL0     H44304  -0.608  -0.542   6.800  0.6573  0.4071  0.1282
  336MOL0     H44305  -0.834  -0.579   6.492  2.1580  1.2687 -2.2562
  336MOL0     H44306  -0.839  -0.959   6.435  1.7493  0.9902  0.0242
  336MOL0     H44307  -0.903  -0.808   6.357 -0.7645 -2.0128 -0.9289
  336MOL0     H44308  -1.063  -0.907   6.486  2.7365 -1.4142 -0.8383
  336MOL0     H44309  -1.022  -0.744   6.545  3.4547  2.0745 -1.0967
  336MOL0     H44310  -0.949  -1.021   6.667 -2.7783  0.2613  0.1771
  336MOL0     H44311  -0.877  -0.856   6.727 -0.4789  0.2692  2.0312
  336MOL0     H44312  -1.055  -0.942   6.877 -1.2667  1.3820  0.6719
  336MOL0     H44313  -1.160  -0.958   6.743  1.9142 -2.4988  0.2911
  336MOL0     H44314  -1.159  -0.511   6.756  1.5038  1.5971 -2.5526
  336MOL0     H44315  -1.021  -0.322   6.827  1.0259  0.6027 -0.9798
  336MOL0     H44316  -0.505  -0.313   7.200  1.4439 -3.9418 -1.1912
  336MOL0     H44317  -0.332  -0.151   7.191  1.5754  1.5746 -1.5238
  336MOL0     H44318  -0.269   0.107   6.801  2.6901  0.8209 -3.4425
  336MOL0     H44319  -0.199  -0.053   6.775 -1.1917  0.2154 -1.4595
  336MOL0     H44320  -0.017   0.108   6.768 -2.6824  0.9055 -0.8809
  336MOL0     H44321   0.011   0.015   6.916  1.8831  0.8586 -2.3891
  336MOL0     H44322  -0.112   0.210   7.044  1.2699 -0.9987  1.4470
  336MOL0     H44323  -0.113   0.284   6.881  0.3333  0.6741  0.3683
  336MOL0     H44324   0.100   0.204   7.081  2.3968 -2.8958 -1.2964
  336MOL0     H44325   0.153   0.223   6.910  2.1674 -0.3186  0.9445
  336MOL0     H44326   0.210   0.415   7.000 -0.0174 -2.3639 -1.7138
  336MOL0     H44327   0.066   0.450   7.089  1.3929  0.5817  0.7589
  336MOL0     H44328  -0.069   0.493   6.893 -0.7583 -1.6231  0.9437
  336MOL0     H44329   0.056   0.424   6.794  1.8393 -4.6886  2.5792
  336MOL0     H44330   0.014   0.677   6.817 -0.9813 -1.0263  1.8681
  336MOL0     H44331   0.131   0.663   6.954 -0.4451 -0.5971  0.4288
  336MOL0     H44332   0.208   0.717   6.707 -2.8995 -1.2035 -0.4211
  336MOL0     H44333   0.235   0.540   6.706  0.2452 -0.5681  0.3710
  336MOL0     H44334  -0.458  -0.055   6.781  0.4975  2.7781  1.0256
  336MOL0     H44335  -0.624  -0.208   6.799  2.7418 -0.9222 -1.7978
  336MOL0     H44336  -0.765  -0.591   7.049 -0.2822 -3.6069  0.3364
  336MOL0     H44337  -0.893  -0.777   6.980 -0.1336 -0.7354  0.5489
  336MOL0     H44338  -0.203  -0.107   5.865  0.1648  1.8804 -1.4860
  336MOL0     H44339   0.013  -0.112   5.730  2.4226  0.6845 -0.6246
  336MOL0     H44340   0.369  -0.233   5.707  0.1748 -2.0961 -3.1825
  336MOL0     H44341   0.540  -0.356   5.620 -0.5071  1.4302 -1.6249
  336MOL0     H44342   0.975  -0.262   5.742 -0.6496 -1.5420 -0.1409
  336MOL0     H44343   0.941  -0.180   5.585 -0.7183 -1.4086 -0.7126
  336MOL0     H44344   0.993  -0.472   5.630 -3.3032  0.0943 -0.5288
  336MOL0     H44345   0.954  -0.405   5.473 -2.1469 -2.0387  2.5885
  336MOL0     H44346   1.204  -0.332   5.647 -2.1869  3.9767 -0.0728
  336MOL0     H44347   1.160  -0.263   5.498  1.4491 -1.8755 -3.3397
  336MOL0     H44348   1.341  -0.439   5.472 -0.6768 -0.1819  0.7902
  336MOL0     H44349   1.241  -0.549   5.548 -0.6639 -1.2227 -1.6675
  336MOL0     H44350   1.096  -0.545   5.149 -1.2910  0.3398  0.5550
  336MOL0     H44351   0.820  -0.066   5.753 -0.0202  0.5169  1.1285
  336MOL0     H44352   0.650   0.069   5.850  0.9054  0.5055 -0.7908
  337MOL0     O44353   7.410   2.849   6.176  0.2831 -0.0697 -0.1263
  337MOL0     C44354   7.419   2.754   6.099  0.8042  1.0129  0.8829
  337MOL0     O44355   7.312   2.680   6.059  0.3488  0.6040 -0.2160
  337MOL0     C44356   7.185   2.713   6.110 -0.0757 -0.3779  0.1285
  337MOL0     C44357   7.087   2.612   6.106 -0.1337 -0.2545  0.2898
  337MOL0     C44358   6.953   2.626   6.147 -0.5653  0.2985 -0.0224
  337MOL0     C44359   6.909   2.748   6.192  0.2882 -0.0685  0.4866
  337MOL0     O44360   6.782   2.764   6.231 -0.2337  0.9382  0.6486
  337MOL0     C44361   6.737   2.690   6.345  1.1785 -0.3103 -0.6168
  337MOL0     C44362   6.794   2.741   6.477  0.3371  0.7991  0.1795
  337MOL0     C44363   6.809   2.893   6.473  0.0584  0.2907  0.1438
  337MOL0     C44364   6.685   2.973   6.415  0.3752  0.5136  0.2688
  337MOL0     C44365   6.554   2.951   6.487  0.1530 -0.2648 -0.7091
  337MOL0     C44366   6.429   2.961   6.402  0.1322 -0.0830  0.0470
  337MOL0     C44367   6.298   2.936   6.481  0.1368 -0.3052  0.1865
  337MOL0     C44368   6.161   2.948   6.404 -0.1988 -0.1857  0.9708
  337MOL0     N44369   6.051   2.912   6.503 -0.1920  0.3238 -0.1253
  337MOL0     C44370   5.990   3.000   6.593 -0.0231 -0.1092 -0.1047
  337MOL0     C44371   5.889   2.928   6.649  0.6963 -0.7077  0.1296
  337MOL0     C44372   5.786   2.975   6.748 -0.6176  0.0915  0.1397
  337MOL0     C44373   5.645   2.948   6.700  1.0928 -0.0579 -0.2638
  337MOL0     C44374   5.549   2.988   6.819 -0.2304 -0.7212 -0.1797
  337MOL0     C44375   5.397   2.984   6.790  0.8875  0.0784 -0.2916
  337MOL0     O44376   5.360   3.081   6.683 -0.0408 -0.3136  0.3324
  337MOL0     C44377   5.227   3.119   6.668 -1.1077  0.1307 -0.2409
  337MOL0     C44378   5.117   3.053   6.724 -0.2259  0.3047 -0.2324
  337MOL0     C44379   4.979   3.099   6.701  0.0304 -0.4356 -0.2932
  337MOL0     C44380   4.959   3.210   6.610  0.2332 -0.1139 -0.1727
  337MOL0     C44381   4.826   3.279   6.591 -0.4839  0.0442 -0.7989
  337MOL0     O44382   4.729   3.219   6.670  0.5111 -0.4358 -0.8396
  337MOL0     C44383   4.612   3.284   6.695  1.4140  0.5208  0.1881
  337MOL0     C44384   4.588   3.424   6.706  0.2604  0.1051 -0.0479
  337MOL0     C44385   4.468   3.480   6.744  0.3369  0.4936 -0.6664
  337MOL0     C44386   4.358   3.389   6.749  0.2328  0.0555  1.2676
  337MOL0     O44387   4.230   3.423   6.783 -0.6536 -0.1404  0.6743
  337MOL0     C44388   4.197   3.556   6.744  0.1971  0.5268 -0.3144
  337MOL0     C44389   4.044   3.575   6.751  0.0249 -0.3970 -0.4272
  337MOL0     C44390   3.998   3.566   6.898  0.1309 -0.0518 -0.9689
  337MOL0     C44391   3.844   3.553   6.911  0.0910 -0.0205  0.3392
  337MOL0     C44392   3.807   3.526   7.053  0.3786 -0.1153 -0.1616
  337MOL0     C44393   3.657   3.490   7.076  0.3476 -0.5813 -0.1209
  337MOL0     C44394   3.563   3.590   7.012  0.3603  0.6536  0.6198
  337MOL0     C44395   3.425   3.534   6.974  0.0152  0.4025 -0.3233
  337MOL0    Cl44396   3.441   3.377   6.886  0.1475 -0.0007 -0.0275
  337MOL0     C44397   4.372   3.252   6.719 -0.2824  0.6043 -0.4691
  337MOL0     C44398   4.498   3.194   6.691 -0.4044 -0.0909  0.1251
  337MOL0     O44399   4.813   3.378   6.521  0.2353 -1.1235  0.2763
  337MOL0     C44400   5.080   3.255   6.542  0.3472 -0.1726  0.0217
  337MOL0     C44401   5.200   3.205   6.567 -0.1578 -0.4804 -0.5560
  337MOL0     N44402   5.899   2.799   6.613 -0.4083 -0.7412 -0.0705
  337MOL0     N44403   5.996   2.789   6.523  0.3317 -0.1139 -0.0459
  337MOL0     C44404   6.993   2.857   6.164 -0.7481 -0.3683 -0.3708
  337MOL0     C44405   7.135   2.839   6.130 -0.2102 -0.2000  0.4619
  337MOL0     C44406   7.543   2.717   6.042 -0.4728 -0.7935 -0.3114
  337MOL0     C44407   7.549   2.612   5.952 -0.1452  0.3680 -0.8222
  337MOL0     C44408   7.672   2.574   5.890  0.4336 -0.2683 -0.5752
  337MOL0     C44409   7.785   2.649   5.929 -0.9046 -0.0313  0.2254
  337MOL0     O44410   7.897   2.622   5.858 -0.0915 -0.3887 -0.2237
  337MOL0     C44411   8.018   2.681   5.889 -0.2584 -0.2829 -0.1108
  337MOL0     C44412   8.127   2.656   5.787 -0.7759  0.6797 -0.1844
  337MOL0     C44413   8.240   2.758   5.767 -0.2789  0.2193  0.4969
  337MOL0     C44414   8.365   2.703   5.704 -0.5162  0.3870  0.6926
  337MOL0     C44415   8.439   2.627   5.800  0.4623  0.2246  0.0826
  337MOL0     C44416   8.511   2.570   5.884  0.3894 -0.0941 -0.1359
  337MOL0     C44417   7.785   2.755   6.016  0.6580 -0.7213  0.6955
  337MOL0     C44418   7.663   2.791   6.070 -0.0857 -0.1541 -0.0767
  337MOL0     H44419   7.123   2.516   6.068 -0.2122  0.5624 -2.0575
  337MOL0     H44420   6.885   2.541   6.149 -1.4237  0.9815  0.6309
  337MOL0     H44421   6.761   2.583   6.336 -1.9231 -1.2286  0.7248
  337MOL0     H44422   6.629   2.694   6.365  1.0603 -0.4274 -1.2155
  337MOL0     H44423   6.891   2.695   6.501  0.4672  0.6888 -0.5496
  337MOL0     H44424   6.718   2.709   6.549 -2.7225 -0.3924 -3.2637
  337MOL0     H44425   6.905   2.913   6.426  0.0653  0.6215  0.2957
  337MOL0     H44426   6.821   2.932   6.575  0.1144  0.2487  0.1531
  337MOL0     H44427   6.712   3.078   6.403  3.0306 -0.0551  0.7142
  337MOL0     H44428   6.664   2.942   6.312  0.7946  0.4195  0.2124
  337MOL0     H44429   6.555   3.028   6.565  0.1339 -1.6643  0.7140
  337MOL0     H44430   6.552   2.853   6.535  1.5690  0.8465  1.8167
  337MOL0     H44431   6.444   2.890   6.320 -3.8013  1.0263 -1.8727
  337MOL0     H44432   6.431   3.056   6.348 -2.2900 -1.4496 -2.7094
  337MOL0     H44433   6.297   2.836   6.527 -1.0536 -0.8471 -0.9627
  337MOL0     H44434   6.288   3.018   6.553 -2.5093  1.8494 -2.3844
  337MOL0     H44435   6.174   2.875   6.324  3.1674  1.8940 -0.5806
  337MOL0     H44436   6.133   3.045   6.361  1.6389 -0.4235 -0.8816
  337MOL0     H44437   6.013   3.105   6.608  1.9856 -0.6960  1.3873
  337MOL0     H44438   5.807   3.081   6.764  0.5186  0.5569 -3.4618
  337MOL0     H44439   5.809   2.927   6.844  1.9765  2.9627  1.1163
  337MOL0     H44440   5.629   2.845   6.666  0.3213 -0.4594  1.1933
  337MOL0     H44441   5.620   3.003   6.609 -1.0159  0.6529  0.6559
  337MOL0     H44442   5.565   2.916   6.899  2.4383 -0.2121 -0.1519
  337MOL0     H44443   5.565   3.092   6.850 -1.0196 -0.2122 -1.3776
  337MOL0     H44444   5.338   2.995   6.882  1.1291 -2.6327  0.2608
  337MOL0     H44445   5.366   2.885   6.757 -1.8139  0.2277  1.4496
  337MOL0     H44446   5.136   2.970   6.791 -0.3915  0.0466 -0.5020
  337MOL0     H44447   4.899   3.050   6.756  0.5262 -3.0127 -1.6902
  337MOL0     H44448   4.679   3.483   6.697  0.5105 -0.2276  0.3043
  337MOL0     H44449   4.465   3.584   6.775 -1.4664  0.0644  0.7688
  337MOL0     H44450   4.233   3.576   6.643  2.0579 -1.7900 -0.1775
  337MOL0     H44451   4.257   3.625   6.804  0.6203 -0.1790  0.0778
  337MOL0     H44452   4.008   3.488   6.695  1.2250 -0.7797 -0.6341
  337MOL0     H44453   4.006   3.668   6.708 -2.7280 -1.2203  0.0336
  337MOL0     H44454   4.039   3.648   6.958  1.0422 -1.4246  0.3844
  337MOL0     H44455   4.045   3.481   6.949 -2.7336 -0.1893  1.7007
  337MOL0     H44456   3.810   3.651   6.875 -1.2631 -0.4401  0.4168
  337MOL0     H44457   3.809   3.477   6.840  0.4663  0.7262 -0.6768
  337MOL0     H44458   3.828   3.607   7.124 -3.4638  0.0353  1.0543
  337MOL0     H44459   3.868   3.444   7.093  1.4266 -0.0054 -1.4856
  337MOL0     H44460   3.635   3.489   7.183 -0.4618  0.3784 -0.2563
  337MOL0     H44461   3.637   3.389   7.040  0.0857 -0.8139  0.6530
  337MOL0     H44462   3.553   3.681   7.073  0.9380 -0.8603  3.1266
  337MOL0     H44463   3.595   3.626   6.914 -0.1645 -0.4218  0.0414
  337MOL0     H44464   3.359   3.598   6.915  0.0538 -0.6323 -1.5143
  337MOL0     H44465   3.360   3.516   7.061 -0.6480  0.4806 -0.7921
  337MOL0     H44466   4.279   3.197   6.713  0.4416 -0.6339 -0.6873
  337MOL0     H44467   4.515   3.096   6.647 -1.7811  0.2257 -1.2004
  337MOL0     H44468   5.083   3.337   6.471 -1.4112 -1.4613 -1.6464
  337MOL0     H44469   5.285   3.237   6.508 -0.6672  0.3188 -0.8788
  337MOL0     H44470   6.947   2.955   6.165  1.0382  0.5264 -0.2407
  337MOL0     H44471   7.201   2.923   6.114 -0.6315  0.2272  0.9728
  337MOL0     H44472   7.460   2.554   5.930 -0.4383  0.3641  0.3132
  337MOL0     H44473   7.668   2.490   5.822 -1.6702  0.2385 -1.1350
  337MOL0     H44474   8.037   2.661   5.995 -1.7201  0.2466  0.2801
  337MOL0     H44475   8.002   2.787   5.868 -1.0479 -0.7368 -2.0513
  337MOL0     H44476   8.169   2.564   5.828  0.9526  0.5092 -2.2050
  337MOL0     H44477   8.088   2.640   5.686 -1.1726  1.5944 -0.1913
  337MOL0     H44478   8.260   2.796   5.867 -0.3523 -1.1824  1.0759
  337MOL0     H44479   8.198   2.836   5.703 -0.8060 -2.0585 -2.1713
  337MOL0     H44480   8.337   2.654   5.611 -0.1791  2.1516 -0.3913
  337MOL0     H44481   8.432   2.783   5.671 -0.7169  0.0151 -0.6865
  337MOL0     H44482   8.568   2.503   5.944  2.2444 -0.6240 -2.3812
  337MOL0     H44483   7.868   2.823   6.028  0.8034 -0.9519  0.9836
  337MOL0     H44484   7.661   2.878   6.135 -1.2676 -0.4075  0.2390
  338MOL0     O44485   7.713   4.627  10.354 -0.7580  0.1111  0.3012
  338MOL0     C44486   7.784   4.707  10.289 -0.1389  0.0496 -0.3270
  338MOL0     O44487   7.808   4.700  10.156 -0.5105 -0.4817  0.2484
  338MOL0     C44488   7.748   4.600  10.085  0.2536  0.1602 -0.0268
  338MOL0     C44489   7.796   4.470  10.118  0.2229 -0.0778 -0.2986
  338MOL0     C44490   7.745   4.361  10.057 -0.1303  0.4514  0.3019
  338MOL0     C44491   7.638   4.377   9.970  0.1911  0.9101  0.4805
  338MOL0     O44492   7.588   4.257   9.917 -0.8242  0.3476  0.2250
  338MOL0     C44493   7.533   4.259   9.790 -0.5179 -0.1366  0.4636
  338MOL0     C44494   7.448   4.135   9.760  0.2396  0.3572  1.0646
  338MOL0     C44495   7.349   4.103   9.875  0.5139  0.2343 -0.4318
  338MOL0     C44496   7.247   4.003   9.829  0.3302 -0.3579  0.0632
  338MOL0     C44497   7.152   3.966   9.946  0.0604 -0.3808  0.1985
  338MOL0     C44498   7.026   3.903   9.897 -0.6937  0.4560 -1.5254
  338MOL0     C44499   6.915   3.894  10.004  0.3370 -0.5625  0.2463
  338MOL0     C44500   6.838   4.020  10.033  0.2248  0.1989 -0.0945
  338MOL0     N44501   6.820   4.035  10.180 -0.0859 -0.1439 -0.7304
  338MOL0     C44502   6.922   4.055  10.275  0.0559 -0.8130 -0.5663
  338MOL0     C44503   6.850   4.082  10.385  0.5248 -1.0727 -0.6670
  338MOL0     C44504   6.904   4.121  10.524 -0.1616 -0.5858 -0.7283
  338MOL0     C44505   6.797   4.110  10.627  0.5139  0.3647 -0.2169
  338MOL0     C44506   6.821   4.167  10.762 -0.2936 -0.1653  0.8662
  338MOL0     C44507   6.907   4.291  10.760  0.5337  0.1907 -0.2094
  338MOL0     O44508   6.897   4.355  10.893 -0.0971  0.9092  0.7467
  338MOL0     C44509   6.998   4.336  10.987  0.3621 -0.1703  0.7057
  338MOL0     C44510   7.038   4.454  11.049  0.5686 -1.0275 -0.3112
  338MOL0     C44511   7.134   4.448  11.158  0.5801 -0.2435  0.2569
  338MOL0     C44512   7.190   4.325  11.189  0.4588 -0.9711 -0.0330
  338MOL0     C44513   7.289   4.323  11.300 -0.5479  0.3455 -0.0245
  338MOL0     O44514   7.362   4.209  11.300  1.0836 -0.1949  0.0841
  338MOL0     C44515   7.465   4.175  11.381 -0.6931 -0.3192  0.0550
  338MOL0     C44516   7.510   4.244  11.494  0.3711 -1.0870  0.1210
  338MOL0     C44517   7.601   4.189  11.583  0.1519 -0.0186  0.1662
  338MOL0     C44518   7.667   4.071  11.557  0.4707  0.1188  1.2634
  338MOL0     O44519   7.752   4.023  11.648  0.1892 -0.1187  0.1990
  338MOL0     C44520   7.804   3.886  11.659 -0.0245 -0.9886  0.9243
  338MOL0     C44521   7.700   3.790  11.695  1.1066  0.2001 -0.0179
  338MOL0     C44522   7.773   3.655  11.727  0.6122  0.6673  0.0529
  338MOL0     C44523   7.682   3.531  11.733  0.1013 -0.6602 -0.6938
  338MOL0     C44524   7.577   3.534  11.845  0.3635  0.2631  0.3456
  338MOL0     C44525   7.519   3.391  11.883 -0.1026  0.5128  0.6770
  338MOL0     C44526   7.455   3.338  11.755 -0.1413  0.2426  0.2181
  338MOL0     C44527   7.318   3.253  11.790  0.3489 -0.5854  0.1142
  338MOL0    Cl44528   7.197   3.367  11.869  0.1438 -0.0169 -0.5210
  338MOL0     C44529   7.618   3.996  11.446  0.1653  0.0385  0.3468
  338MOL0     C44530   7.524   4.054  11.356  0.0659 -1.0440  0.1830
  338MOL0     O44531   7.305   4.427  11.369  0.3902 -0.3406 -0.0845
  338MOL0     C44532   7.146   4.209  11.118 -1.2241 -0.2868  0.9225
  338MOL0     C44533   7.058   4.210  11.016  1.0472  0.0724  0.6675
  338MOL0     N44534   6.716   4.056  10.355  0.5833 -0.9478 -0.2829
  338MOL0     N44535   6.706   4.030  10.233  0.3533  0.3148 -0.3429
  338MOL0     C44536   7.597   4.513   9.943  1.2734  0.0437  0.3257
  338MOL0     C44537   7.648   4.624   9.999 -0.0713 -1.0098  0.4233
  338MOL0     C44538   7.844   4.812  10.367 -0.5916 -0.0249  0.9736
  338MOL0     C44539   7.936   4.902  10.310 -0.0488  0.4230 -0.4423
  338MOL0     C44540   7.990   5.007  10.382 -0.2669  0.4945  0.3737
  338MOL0     C44541   7.950   5.032  10.520 -0.1071 -0.1007  1.1064
  338MOL0     O44542   7.988   5.133  10.602  0.4688 -0.4886  0.9685
  338MOL0     C44543   8.052   5.245  10.549 -0.1430 -0.7644  0.7908
  338MOL0     C44544   8.085   5.334  10.662 -0.4602 -0.1135 -0.2775
  338MOL0     C44545   8.232   5.299  10.705  0.5543 -0.0699  0.2278
  338MOL0     C44546   8.330   5.393  10.632 -0.1527  0.5565 -0.4241
  338MOL0     C44547   8.468   5.346  10.669 -0.6235 -0.5897  0.5394
  338MOL0     C44548   8.577   5.300  10.689  0.4062 -0.2473 -0.5925
  338MOL0     C44549   7.856   4.948  10.571 -0.6589  0.3381 -0.1839
  338MOL0     C44550   7.804   4.840  10.496 -1.6029  0.2152 -0.2061
  338MOL0     H44551   7.868   4.452  10.197 -0.1830 -1.2841 -0.1874
  338MOL0     H44552   7.791   4.265  10.077  2.5235  1.8858  1.6267
  338MOL0     H44553   7.617   4.257   9.719  0.0234 -3.2943  1.0164
  338MOL0     H44554   7.474   4.349   9.773 -1.1880 -0.5954  0.3457
  338MOL0     H44555   7.523   4.056   9.747 -0.6342 -0.3722  0.3850
  338MOL0     H44556   7.396   4.150   9.666  0.9235  2.4374  0.9524
  338MOL0     H44557   7.291   4.192   9.901 -1.3332 -0.5349 -1.7257
  338MOL0     H44558   7.398   4.072   9.969  0.4906  1.5089  0.0138
  338MOL0     H44559   7.188   4.054   9.752 -1.6474 -0.6229  1.3403
  338MOL0     H44560   7.301   3.913   9.798 -0.5238 -0.4112 -1.3766
  338MOL0     H44561   7.120   4.057   9.997 -0.9636 -0.0658 -0.9833
  338MOL0     H44562   7.205   3.901  10.016  3.3318 -0.0038 -1.7387
  338MOL0     H44563   7.056   3.805   9.861 -0.8834 -0.4225  0.5601
  338MOL0     H44564   6.972   3.949   9.814 -2.8371 -0.4810 -0.7364
  338MOL0     H44565   6.843   3.819   9.969 -1.0995  1.0410 -0.3606
  338MOL0     H44566   6.952   3.857  10.100 -2.1628 -2.0927  0.7119
  338MOL0     H44567   6.739   4.018   9.988  0.6211  2.3473 -1.1993
  338MOL0     H44568   6.883   4.114   9.998 -1.7292  1.6705  1.1366
  338MOL0     H44569   7.030   4.057  10.264  0.4102  2.9612  1.7210
  338MOL0     H44570   6.941   4.224  10.519  2.2992 -1.3104  0.4982
  338MOL0     H44571   6.983   4.047  10.540 -0.0204 -1.1589 -3.5788
  338MOL0     H44572   6.771   4.004  10.630  3.9355 -0.8085 -3.5031
  338MOL0     H44573   6.710   4.161  10.583  1.4678  0.9773 -1.4594
  338MOL0     H44574   6.722   4.199  10.796  0.0840 -0.0202  1.8914
  338MOL0     H44575   6.853   4.093  10.836  0.2240  1.1231  1.9778
  338MOL0     H44576   6.878   4.367  10.686  1.7321 -0.1708 -1.0914
  338MOL0     H44577   7.008   4.257  10.736 -0.7854 -0.7696 -5.8577
  338MOL0     H44578   6.985   4.546  11.028  2.8381  0.9363  1.8734
  338MOL0     H44579   7.172   4.540  11.204  1.9946 -1.7324  2.2683
  338MOL0     H44580   7.475   4.342  11.525 -0.4233 -0.6329 -2.0191
  338MOL0     H44581   7.632   4.248  11.669  3.5844 -1.5894  0.1612
  338MOL0     H44582   7.884   3.901  11.732  2.1481  2.4256 -1.8471
  338MOL0     H44583   7.863   3.863  11.569  2.1292  2.1640  1.3844
  338MOL0     H44584   7.620   3.789  11.620 -1.3835  1.3811  2.4333
  338MOL0     H44585   7.647   3.808  11.789 -2.6985 -1.6908 -1.6042
  338MOL0     H44586   7.829   3.670  11.820  1.5391  0.9409 -0.5347
  338MOL0     H44587   7.854   3.629  11.658  0.0151  0.0891 -0.4490
  338MOL0     H44588   7.623   3.519  11.642 -1.1084  2.0599 -0.3863
  338MOL0     H44589   7.756   3.452  11.749  3.2314  1.8979 -1.4631
  338MOL0     H44590   7.498   3.597  11.801 -0.7083 -1.7873 -0.8168
  338MOL0     H44591   7.623   3.577  11.934 -0.0176 -2.1429  1.7728
  338MOL0     H44592   7.447   3.404  11.965  0.0639  0.8837  0.7636
  338MOL0     H44593   7.601   3.325  11.912  0.0332  0.4600  0.1773
  338MOL0     H44594   7.433   3.420  11.686 -2.1103 -0.7486 -0.4206
  338MOL0     H44595   7.527   3.267  11.715 -0.7208 -0.7188  0.8430
  338MOL0     H44596   7.336   3.176  11.865 -0.0918 -0.5761  0.2274
  338MOL0     H44597   7.289   3.205  11.696  0.6034 -3.9912  1.6422
  338MOL0     H44598   7.653   3.897  11.419 -1.6594  0.2124 -3.3339
  338MOL0     H44599   7.470   4.000  11.279 -4.2823  1.8433  0.8275
  338MOL0     H44600   7.185   4.112  11.147  0.7335  0.9450  2.7763
  338MOL0     H44601   7.038   4.119  10.960 -0.3726 -2.4502  4.8161
  338MOL0     H44602   7.514   4.534   9.876  1.4206  0.0714  0.1537
  338MOL0     H44603   7.623   4.724   9.964 -0.6971 -1.6717 -1.1328
  338MOL0     H44604   7.965   4.862  10.214 -0.5804 -5.5393  1.4578
  338MOL0     H44605   8.076   5.053  10.334 -0.9732  1.0848 -0.3624
  338MOL0     H44606   7.987   5.303  10.483  1.3245  0.2220  0.1543
  338MOL0     H44607   8.138   5.217  10.488 -0.5816  0.3734 -0.3980
  338MOL0     H44608   8.080   5.440  10.636  0.4058  0.6800  2.4812
  338MOL0     H44609   8.019   5.313  10.746 -2.0802 -0.7205 -1.6463
  338MOL0     H44610   8.255   5.197  10.673  0.2064  0.1825 -0.9078
  338MOL0     H44611   8.239   5.314  10.813 -0.4596 -0.7921  0.4148
  338MOL0     H44612   8.310   5.382  10.525  0.2137  1.1967 -0.5669
  338MOL0     H44613   8.320   5.499  10.655 -2.7334  0.0776  1.0036
  338MOL0     H44614   8.661   5.235  10.704 -0.8407 -2.0897 -1.2194
  338MOL0     H44615   7.826   4.964  10.674 -1.6044 -0.1256 -0.3765
  338MOL0     H44616   7.730   4.770  10.532 -2.7393  0.5349 -1.7890
  339MOL0     O44617   7.228   3.354   1.925 -0.6928 -0.3610  0.0887
  339MOL0     C44618   7.306   3.410   2.007  0.4670  0.3381 -0.2790
  339MOL0     O44619   7.264   3.493   2.109  0.5931  0.2407  0.4855
  339MOL0     C44620   7.131   3.514   2.123 -0.4195 -0.6856  0.5288
  339MOL0     C44621   7.049   3.577   2.025 -0.2540 -0.5866 -0.2981
  339MOL0     C44622   6.920   3.606   2.053 -0.5087 -0.8240  0.1456
  339MOL0     C44623   6.858   3.594   2.174 -0.1932  0.3309 -0.6026
  339MOL0     O44624   6.739   3.656   2.185 -0.0366 -0.6626  0.1115
  339MOL0     C44625   6.697   3.679   2.316 -0.3547 -0.1115  0.1476
  339MOL0     C44626   6.623   3.552   2.365  0.5438 -0.1709  1.2696
  339MOL0     C44627   6.542   3.559   2.499  0.0417 -0.6599 -0.0503
  339MOL0     C44628   6.469   3.695   2.519  0.4040  0.9172  0.5881
  339MOL0     C44629   6.388   3.685   2.642 -0.6065  0.2378 -0.2939
  339MOL0     C44630   6.317   3.824   2.669  0.0742  1.3893 -0.1372
  339MOL0     C44631   6.306   3.869   2.813  0.4838  0.2851  0.1810
  339MOL0     C44632   6.165   3.908   2.863  0.2231  0.2633  0.1272
  339MOL0     N44633   6.104   4.009   2.780 -0.2420  0.1236 -0.6792
  339MOL0     C44634   6.158   4.119   2.723 -0.0057  0.2800 -0.1814
  339MOL0     C44635   6.057   4.179   2.659 -0.4967 -0.4149 -0.9214
  339MOL0     C44636   6.074   4.313   2.585  0.2028 -0.2966 -0.1077
  339MOL0     C44637   5.962   4.423   2.581 -0.0230 -0.4708  0.4374
  339MOL0     C44638   5.839   4.375   2.496 -0.1765  0.5957  0.2609
  339MOL0     C44639   5.848   4.429   2.351  0.2730 -0.2626 -0.1012
  339MOL0     O44640   5.866   4.570   2.342 -0.3397 -0.3200 -0.3432
  339MOL0     C44641   5.759   4.651   2.344 -0.3236  0.1257  1.1606
  339MOL0     C44642   5.624   4.612   2.350  0.4071  0.1715  0.2570
  339MOL0     C44643   5.517   4.705   2.349 -0.3653 -0.4510  0.9649
  339MOL0     C44644   5.546   4.840   2.335  0.4917  0.5591  1.0684
  339MOL0     C44645   5.438   4.942   2.323 -0.2960 -0.2634  0.4578
  339MOL0     O44646   5.475   5.071   2.364  0.1257  0.6343 -0.7361
  339MOL0     C44647   5.385   5.181   2.336 -0.3968  1.0158  1.0613
  339MOL0     C44648   5.405   5.253   2.221 -0.2914  1.1472  0.5828
  339MOL0     C44649   5.327   5.367   2.210 -0.7195  0.6695  1.0617
  339MOL0     C44650   5.244   5.413   2.311  0.3192 -0.6130  0.3633
  339MOL0     O44651   5.163   5.528   2.312 -0.4739 -0.2417  0.0791
  339MOL0     C44652   5.238   5.644   2.287 -0.2604 -0.3932  0.3514
  339MOL0     C44653   5.338   5.681   2.393 -1.2560  0.1432  0.9120
  339MOL0     C44654   5.415   5.808   2.365 -0.1020  1.0771  0.2456
  339MOL0     C44655   5.460   5.821   2.220 -0.0619 -0.3673  0.0381
  339MOL0     C44656   5.527   5.964   2.211 -0.0213  0.1277 -0.3419
  339MOL0     C44657   5.675   5.937   2.261 -0.0190  0.4309  0.3268
  339MOL0     C44658   5.774   6.045   2.207  0.5456  0.5186  0.8471
  339MOL0     C44659   5.916   6.049   2.254  0.0724 -0.1420  0.0510
  339MOL0    Cl44660   6.002   5.889   2.233 -0.3228  0.3149 -0.5151
  339MOL0     C44661   5.230   5.332   2.419 -0.4150 -0.3301 -1.0605
  339MOL0     C44662   5.296   5.212   2.440  0.5597  0.7732  0.4042
  339MOL0     O44663   5.331   4.907   2.286 -0.2302 -0.2158 -0.0078
  339MOL0     C44664   5.675   4.871   2.323  0.1258 -0.1195 -0.8627
  339MOL0     C44665   5.780   4.785   2.325  0.7309  0.2206  0.1299
  339MOL0     N44666   5.937   4.114   2.683  0.5507  0.3952 -0.0464
  339MOL0     N44667   5.974   4.012   2.759  0.1191 -1.1136 -0.2203
  339MOL0     C44668   6.941   3.544   2.277  0.4668  0.1392  0.0028
  339MOL0     C44669   7.071   3.496   2.256 -0.3509  0.2820  0.4185
  339MOL0     C44670   7.450   3.387   2.006  0.2184  0.2572 -1.0733
  339MOL0     C44671   7.536   3.438   2.109 -0.3228  0.1502 -0.2266
  339MOL0     C44672   7.674   3.409   2.103 -0.0257  0.9129  0.1605
  339MOL0     C44673   7.730   3.327   2.001 -0.4014 -0.0037 -0.2722
  339MOL0     O44674   7.863   3.296   1.986  0.1994 -0.8786  0.4640
  339MOL0     C44675   7.964   3.366   2.059  0.0419  0.3438 -0.8781
  339MOL0     C44676   8.083   3.396   1.960  1.0127 -0.1762  0.1283
  339MOL0     C44677   8.162   3.269   1.916  0.1855 -0.1742 -0.3179
  339MOL0     C44678   8.300   3.271   1.977 -0.1975 -0.5044 -0.0569
  339MOL0     C44679   8.393   3.370   1.917 -0.0006  0.4793  0.3555
  339MOL0     C44680   8.483   3.439   1.874  0.0648  0.4514  0.9387
  339MOL0     C44681   7.646   3.283   1.901 -0.4419 -0.6429 -0.4361
  339MOL0     C44682   7.504   3.311   1.910  0.2841  0.7330  0.1859
  339MOL0     H44683   7.091   3.607   1.929 -2.7639  2.9065 -0.5103
  339MOL0     H44684   6.862   3.650   1.973 -1.7047 -1.1705  0.8009
  339MOL0     H44685   6.626   3.763   2.322 -2.4050 -1.7621  0.0565
  339MOL0     H44686   6.781   3.710   2.378  0.9123 -1.1574 -0.9911
  339MOL0     H44687   6.692   3.467   2.370  1.1256  0.0850 -1.3890
  339MOL0     H44688   6.554   3.525   2.284  0.5955 -2.8866  2.0117
  339MOL0     H44689   6.615   3.543   2.579 -0.1399 -0.0226  0.2446
  339MOL0     H44690   6.474   3.475   2.484  1.1435 -1.2153 -2.4526
  339MOL0     H44691   6.537   3.780   2.533  2.0702  0.4813 -3.5635
  339MOL0     H44692   6.398   3.709   2.437  0.8287  2.0241  0.3930
  339MOL0     H44693   6.441   3.654   2.732 -2.7283  0.2232  1.0150
  339MOL0     H44694   6.304   3.616   2.629 -1.5985  1.0871  1.3070
  339MOL0     H44695   6.215   3.816   2.629 -0.2311 -0.1273  0.8580
  339MOL0     H44696   6.361   3.916   2.629  0.2230  1.2005 -0.4068
  339MOL0     H44697   6.348   3.801   2.887 -1.1023  1.3475  2.1649
  339MOL0     H44698   6.374   3.954   2.828  1.0640  0.1396 -1.3601
  339MOL0     H44699   6.160   3.937   2.968 -0.6713 -1.1103  0.4863
  339MOL0     H44700   6.099   3.822   2.859 -1.0719  1.2608 -0.8115
  339MOL0     H44701   6.263   4.147   2.718 -0.0526  0.7556  1.0864
  339MOL0     H44702   6.085   4.284   2.480  3.5075  1.1181 -0.2648
  339MOL0     H44703   6.171   4.357   2.612 -0.3708  0.4373  0.8346
  339MOL0     H44704   6.001   4.520   2.547  2.5048 -1.5309  0.0497
  339MOL0     H44705   5.924   4.435   2.683  0.3979 -2.4242  0.8573
  339MOL0     H44706   5.812   4.269   2.491 -1.9328  1.0331 -0.2647
  339MOL0     H44707   5.753   4.423   2.543 -2.5383 -2.2509 -0.8438
  339MOL0     H44708   5.766   4.376   2.300 -2.3260  1.3920  2.0910
  339MOL0     H44709   5.932   4.372   2.308 -1.5575 -4.5692  1.4047
  339MOL0     H44710   5.590   4.509   2.353 -0.9485  0.6077  2.1188
  339MOL0     H44711   5.415   4.669   2.353  0.4421 -3.0565 -0.3017
  339MOL0     H44712   5.458   5.216   2.134 -0.2028  0.7499  0.8055
  339MOL0     H44713   5.346   5.429   2.124 -0.2428 -0.8075  0.0589
  339MOL0     H44714   5.186   5.740   2.283  1.2856  0.5116 -4.1019
  339MOL0     H44715   5.277   5.647   2.185  0.7262  2.9637  0.7204
  339MOL0     H44716   5.412   5.600   2.390 -0.1701  1.1158 -0.3611
  339MOL0     H44717   5.285   5.689   2.488 -1.5985  2.7152  0.5863
  339MOL0     H44718   5.499   5.836   2.429  1.3438  4.0125 -2.6858
  339MOL0     H44719   5.348   5.891   2.388  0.9443  1.4949  1.9582
  339MOL0     H44720   5.527   5.744   2.182  0.8206 -0.1792  1.1523
  339MOL0     H44721   5.374   5.816   2.151 -0.2257 -1.0474  0.2906
  339MOL0     H44722   5.483   6.040   2.275  0.8520 -0.4204  0.9580
  339MOL0     H44723   5.525   6.001   2.108  1.2977 -0.6548 -0.6891
  339MOL0     H44724   5.708   5.836   2.236  1.7674  0.4480  2.3683
  339MOL0     H44725   5.687   5.949   2.369 -0.3144  1.7713  0.2354
  339MOL0     H44726   5.787   6.026   2.100  0.0104  0.9965  0.6938
  339MOL0     H44727   5.714   6.136   2.216 -0.2878 -0.1822  2.8983
  339MOL0     H44728   5.914   6.080   2.359 -0.2913 -0.7644  0.2320
  339MOL0     H44729   5.979   6.122   2.203 -0.4688  0.7847  0.6712
  339MOL0     H44730   5.184   5.372   2.509  1.3246  0.8553 -0.6460
  339MOL0     H44731   5.289   5.172   2.541  3.9767  1.8705  1.2394
  339MOL0     H44732   5.692   4.978   2.314 -3.1465  0.6326  0.5876
  339MOL0     H44733   5.885   4.813   2.317  0.5745  1.0369  0.7833
  339MOL0     H44734   6.909   3.523   2.378  1.4742  3.0247  1.0270
  339MOL0     H44735   7.134   3.459   2.336 -0.7865  0.4601  0.8474
  339MOL0     H44736   7.500   3.516   2.174  0.7819  1.4201 -1.0921
  339MOL0     H44737   7.740   3.463   2.171  1.2528 -1.3172  0.7681
  339MOL0     H44738   7.985   3.296   2.140 -1.0486  1.2124  0.1876
  339MOL0     H44739   7.935   3.457   2.113  1.1373 -0.5389  1.2821
  339MOL0     H44740   8.034   3.432   1.869  3.1038  1.3919 -0.4500
  339MOL0     H44741   8.148   3.479   1.991 -1.0522  0.8604  1.9620
  339MOL0     H44742   8.159   3.265   1.807  1.6826  0.5898 -0.4005
  339MOL0     H44743   8.116   3.179   1.958  0.9154 -0.2887  0.2505
  339MOL0     H44744   8.289   3.292   2.084  2.6237  0.5595  0.1173
  339MOL0     H44745   8.330   3.168   1.956 -0.5453 -0.6349  0.0823
  339MOL0     H44746   8.553   3.513   1.842  0.1588 -0.4677 -1.1864
  339MOL0     H44747   7.689   3.222   1.823 -0.5665 -2.7404  1.0413
  339MOL0     H44748   7.444   3.276   1.827 -2.1103  2.0196  1.2790
  340MOL0     O44749   0.351   2.803   0.719 -0.3863  0.7812  0.1370
  340MOL0     C44750   0.359   2.688   0.766  0.5198  0.1849  0.6674
  340MOL0     O44751   0.262   2.594   0.770  0.4911 -0.5980 -0.5002
  340MOL0     C44752   0.131   2.616   0.725 -0.5005 -0.3110 -0.4118
  340MOL0     C44753   0.065   2.742   0.739 -0.0021  0.1756 -0.0283
  340MOL0     C44754  -0.068   2.764   0.696  0.1276 -0.7137  0.0376
  340MOL0     C44755  -0.135   2.655   0.639  1.5252 -0.7657  0.6553
  340MOL0     O44756  -0.261   2.662   0.587 -0.2522 -0.0087 -0.3233
  340MOL0     C44757  -0.345   2.769   0.616 -0.4275  0.7590 -0.3796
  340MOL0     C44758  -0.486   2.744   0.565 -0.4058  0.0337 -0.0670
  340MOL0     C44759  -0.573   2.864   0.573 -0.3494 -0.1705  0.0171
  340MOL0     C44760  -0.720   2.861   0.541 -0.2201  0.5810  0.4854
  340MOL0     C44761  -0.749   2.847   0.390 -0.6139 -0.6286  0.1006
  340MOL0     C44762  -0.863   2.940   0.340  0.4944  0.2741  0.9853
  340MOL0     C44763  -0.999   2.937   0.417 -0.2651  0.3883  0.9498
  340MOL0     C44764  -1.098   3.041   0.360  0.0945  0.0627 -0.7200
  340MOL0     N44765  -1.228   3.031   0.422  0.2246  0.2884 -0.3931
  340MOL0     C44766  -1.260   3.101   0.537  0.3988  0.0366  0.6955
  340MOL0     C44767  -1.386   3.060   0.567  0.4424  0.5279  0.8328
  340MOL0     C44768  -1.458   3.102   0.690  0.5117 -0.7241 -0.0184
  340MOL0     C44769  -1.590   3.172   0.657  0.1982 -0.1989 -1.1394
  340MOL0     C44770  -1.666   3.207   0.782 -0.6851 -0.5988 -0.0471
  340MOL0     C44771  -1.796   3.279   0.747  0.0586  0.4329  0.4637
  340MOL0     O44772  -1.852   3.345   0.859 -0.8869 -1.0539 -0.1229
  340MOL0     C44773  -1.980   3.392   0.858  0.6980  0.2051  0.4341
  340MOL0     C44774  -2.039   3.424   0.980 -0.3517 -0.0125 -0.3773
  340MOL0     C44775  -2.177   3.440   0.995  0.4365  0.7440  0.2177
  340MOL0     C44776  -2.257   3.442   0.884  0.9089  0.2425  0.1919
  340MOL0     C44777  -2.403   3.451   0.914 -0.5629 -0.3124  0.5073
  340MOL0     O44778  -2.486   3.422   0.802  0.0550 -0.1044  0.1914
  340MOL0     C44779  -2.621   3.458   0.804  0.1626  0.7525  0.5147
  340MOL0     C44780  -2.673   3.569   0.859 -0.4394  0.1649 -0.0948
  340MOL0     C44781  -2.813   3.594   0.856  0.8093  0.9186  1.5698
  340MOL0     C44782  -2.896   3.500   0.786  0.9045  0.0749  0.7880
  340MOL0     O44783  -3.036   3.511   0.777  0.0916 -0.3915  0.5493
  340MOL0     C44784  -3.089   3.621   0.847  1.0411  0.7145  0.5004
  340MOL0     C44785  -3.247   3.614   0.826 -1.2414 -0.1682  0.6091
  340MOL0     C44786  -3.328   3.505   0.897  0.1260  0.8502  0.5276
  340MOL0     C44787  -3.287   3.354   0.848 -0.0935  1.1648 -0.2693
  340MOL0     C44788  -3.388   3.260   0.912 -0.5724  0.3454  0.1700
  340MOL0     C44789  -3.334   3.115   0.879  0.9010 -1.5545  0.2243
  340MOL0     C44790  -3.432   3.007   0.885  0.4259  0.2327  0.5536
  340MOL0     C44791  -3.370   2.862   0.928  0.2840 -0.0041  0.0718
  340MOL0    Cl44792  -3.230   2.799   0.830  0.2559  0.1859  0.2250
  340MOL0     C44793  -2.841   3.404   0.720 -0.0937  0.4027 -1.0016
  340MOL0     C44794  -2.704   3.373   0.736 -0.0837 -0.2794  1.1253
  340MOL0     O44795  -2.441   3.479   1.022  0.0643 -0.1607  0.3900
  340MOL0     C44796  -2.201   3.431   0.753 -0.3098 -0.1165  0.0481
  340MOL0     C44797  -2.065   3.392   0.741  0.0296 -0.0186  0.0811
  340MOL0     N44798  -1.425   2.972   0.465  0.0909 -0.3485  0.4611
  340MOL0     N44799  -1.333   2.960   0.375  0.4849 -0.5004 -0.5934
  340MOL0     C44800  -0.073   2.531   0.627 -0.4758 -0.4738  0.2513
  340MOL0     C44801   0.061   2.510   0.666 -0.1715 -0.9094  0.7970
  340MOL0     C44802   0.492   2.657   0.823  1.1796 -0.3060  0.5654
  340MOL0     C44803   0.593   2.749   0.832 -0.0630 -0.9233  0.4338
  340MOL0     C44804   0.714   2.713   0.895 -0.9374 -0.0752  0.6707
  340MOL0     C44805   0.730   2.579   0.945 -0.5460 -1.1851  0.3386
  340MOL0     O44806   0.845   2.534   1.000  0.2538 -0.1011 -0.0899
  340MOL0     C44807   0.958   2.627   1.002  0.5135  0.8691 -0.2973
  340MOL0     C44808   1.085   2.554   1.045  0.2291 -0.1464 -0.4751
  340MOL0     C44809   1.124   2.475   0.917 -0.3803  0.2069  0.1323
  340MOL0     C44810   1.256   2.395   0.931 -0.0075  0.5442 -0.1565
  340MOL0     C44811   1.252   2.296   1.039  0.0856  0.4043  0.1910
  340MOL0     C44812   1.239   2.214   1.130 -0.5112  0.4350  0.9507
  340MOL0     C44813   0.627   2.489   0.934  0.1044 -0.9862 -0.3528
  340MOL0     C44814   0.507   2.523   0.872  0.6089  0.9444  0.8787
  340MOL0     H44815   0.107   2.829   0.789 -1.0356  0.0091  1.1803
  340MOL0     H44816  -0.115   2.860   0.707  2.2917  0.9985 -3.8102
  340MOL0     H44817  -0.305   2.855   0.561  1.6355  0.8072  1.0766
  340MOL0     H44818  -0.349   2.800   0.721 -4.1473  0.9745 -0.4526
  340MOL0     H44819  -0.530   2.656   0.613  2.2186 -0.5616  1.4514
  340MOL0     H44820  -0.480   2.720   0.459  0.1797 -1.2959  0.2396
  340MOL0     H44821  -0.537   2.944   0.507 -0.6047 -1.9578 -2.4387
  340MOL0     H44822  -0.560   2.903   0.674  2.8281 -0.1430 -0.2866
  340MOL0     H44823  -0.772   2.781   0.595 -2.4361  0.5550 -1.5344
  340MOL0     H44824  -0.749   2.961   0.576  0.7159  1.4903 -1.2271
  340MOL0     H44825  -0.763   2.740   0.367 -0.8522 -0.3234 -1.2941
  340MOL0     H44826  -0.660   2.877   0.334 -2.9554  3.7690 -1.7558
  340MOL0     H44827  -0.886   2.916   0.235 -1.2388 -1.0166  1.6083
  340MOL0     H44828  -0.833   3.045   0.338 -3.3368  1.5459 -0.7911
  340MOL0     H44829  -1.042   2.837   0.410 -2.3573  1.3332 -0.4661
  340MOL0     H44830  -0.983   2.969   0.521 -0.0388  1.1852  0.6791
  340MOL0     H44831  -1.107   3.018   0.253  0.5101 -4.8177  0.0675
  340MOL0     H44832  -1.056   3.141   0.374  0.5006 -0.0838 -0.8925
  340MOL0     H44833  -1.208   3.176   0.595 -0.9403  1.3043  0.3147
  340MOL0     H44834  -1.395   3.167   0.751 -0.9016 -1.1165  1.9383
  340MOL0     H44835  -1.484   3.018   0.754  0.1008 -1.1420 -0.7158
  340MOL0     H44836  -1.642   3.090   0.607  1.9296 -1.0227 -1.6390
  340MOL0     H44837  -1.580   3.267   0.603 -2.1379 -0.4531 -2.1682
  340MOL0     H44838  -1.679   3.122   0.849  0.2299  0.6835  1.8607
  340MOL0     H44839  -1.613   3.289   0.831 -1.6576  0.6218 -0.9707
  340MOL0     H44840  -1.874   3.210   0.713 -0.5623  1.7576 -0.9584
  340MOL0     H44841  -1.782   3.350   0.666 -2.2986  2.6258  1.8182
  340MOL0     H44842  -1.972   3.429   1.065  0.3304  2.3796 -0.9762
  340MOL0     H44843  -2.212   3.456   1.096  2.1738  4.3208  0.4109
  340MOL0     H44844  -2.610   3.638   0.916  2.2648 -0.7868 -1.7360
  340MOL0     H44845  -2.856   3.684   0.898 -0.8814  0.4793  0.8533
  340MOL0     H44846  -3.052   3.718   0.812  1.6826 -0.3195 -1.8158
  340MOL0     H44847  -3.082   3.619   0.956 -1.7494 -0.0247  0.7470
  340MOL0     H44848  -3.265   3.600   0.719  1.0004  0.3342  0.1243
  340MOL0     H44849  -3.284   3.712   0.859 -0.8808 -0.2550  1.2862
  340MOL0     H44850  -3.427   3.539   0.864  0.1387  0.3775 -0.0369
  340MOL0     H44851  -3.326   3.505   1.006 -0.1770 -4.2765  0.7789
  340MOL0     H44852  -3.265   3.355   0.741  2.9151 -1.0332  0.2038
  340MOL0     H44853  -3.193   3.332   0.899 -1.5912 -1.3038  1.6269
  340MOL0     H44854  -3.484   3.292   0.870  0.2496  2.0310 -0.5101
  340MOL0     H44855  -3.408   3.292   1.015 -0.2533  1.2535 -0.0379
  340MOL0     H44856  -3.250   3.104   0.947  2.4080  3.1479 -0.4686
  340MOL0     H44857  -3.294   3.116   0.777 -1.3190 -0.8990 -0.7146
  340MOL0     H44858  -3.521   3.035   0.941 -0.1031  3.2228 -1.5175
  340MOL0     H44859  -3.466   2.986   0.783 -1.0420 -2.3750  1.4844
  340MOL0     H44860  -3.448   2.785   0.922  0.2267  0.1475 -2.3210
  340MOL0     H44861  -3.333   2.882   1.029  1.3856  0.0480 -0.3270
  340MOL0     H44862  -2.906   3.339   0.662 -0.7456  0.9303 -0.8845
  340MOL0     H44863  -2.667   3.281   0.692  0.0713 -0.5525  1.8195
  340MOL0     H44864  -2.259   3.429   0.662  1.1295  0.1733 -0.9136
  340MOL0     H44865  -2.026   3.376   0.641  1.3783  0.9004  0.4304
  340MOL0     H44866  -0.109   2.443   0.576  2.1542  0.3159 -3.3226
  340MOL0     H44867   0.097   2.412   0.639 -2.4689 -0.3223 -6.5392
  340MOL0     H44868   0.579   2.850   0.796 -1.9974 -0.7812  1.4373
  340MOL0     H44869   0.795   2.784   0.899  0.2390 -1.3624  0.5449
  340MOL0     H44870   0.938   2.699   1.081 -0.0355  0.0053  0.3727
  340MOL0     H44871   0.977   2.682   0.910  3.3235 -1.4187 -1.2533
  340MOL0     H44872   1.158   2.632   1.069  0.2703  0.9511 -3.6921
  340MOL0     H44873   1.081   2.497   1.138  3.6245 -1.4945 -0.9773
  340MOL0     H44874   1.144   2.544   0.835  2.2405 -0.2210  0.3392
  340MOL0     H44875   1.045   2.410   0.878 -0.3502  0.6500 -0.6948
  340MOL0     H44876   1.293   2.343   0.842  0.2555  1.0253 -0.3285
  340MOL0     H44877   1.325   2.475   0.957 -2.4563  2.1751  1.8032
  340MOL0     H44878   1.224   2.150   1.215  0.5849 -2.3765 -0.8209
  340MOL0     H44879   0.625   2.394   0.984  1.9589 -0.2961  1.1748
  340MOL0     H44880   0.423   2.455   0.867  0.5644  1.0668 -0.9058
  341MOL0     O44881   5.896   0.242   6.997  0.8578  0.2764 -0.3364
  341MOL0     C44882   5.931   0.162   6.910 -0.4814 -0.6166 -0.5430
  341MOL0     O44883   5.852   0.093   6.819  0.1278  0.1398  0.5126
  341MOL0     C44884   5.733   0.146   6.771  0.6596  0.9288 -0.0022
  341MOL0     C44885   5.642   0.052   6.715  0.1416  0.1408 -1.1668
  341MOL0     C44886   5.516   0.087   6.666 -0.8321 -0.4039  0.4693
  341MOL0     C44887   5.480   0.217   6.676  0.3667 -0.2734  0.1569
  341MOL0     O44888   5.351   0.245   6.643  0.0200  0.3783 -0.1078
  341MOL0     C44889   5.270   0.261   6.755  0.2671 -0.3054  0.0427
  341MOL0     C44890   5.125   0.284   6.723  0.2159  0.2790  0.2406
  341MOL0     C44891   5.074   0.180   6.628  0.8534  0.3131  0.1323
  341MOL0     C44892   5.079   0.043   6.684 -0.5268 -0.3833  0.7516
  341MOL0     C44893   4.983  -0.044   6.581 -0.8321 -0.2579  0.7153
  341MOL0     C44894   5.013  -0.192   6.610  0.3948 -0.7733 -0.0392
  341MOL0     C44895   4.925  -0.232   6.727 -0.4417 -1.2893  0.3449
  341MOL0     C44896   4.934  -0.384   6.736  0.6036  0.2835 -0.3753
  341MOL0     N44897   4.836  -0.443   6.832  0.0193 -0.1621  0.3652
  341MOL0     C44898   4.708  -0.483   6.802 -1.2170 -0.4230  0.5741
  341MOL0     C44899   4.668  -0.560   6.904 -0.9680 -0.6573  0.5508
  341MOL0     C44900   4.535  -0.634   6.904 -0.1664  0.1482  0.9497
  341MOL0     C44901   4.408  -0.547   6.886  0.3435  0.1910  0.5781
  341MOL0     C44902   4.291  -0.640   6.923  0.0773  1.2249 -0.3240
  341MOL0     C44903   4.152  -0.573   6.933 -1.0492  0.2082 -0.0871
  341MOL0     O44904   4.098  -0.531   6.803 -0.0016  0.1539  0.1208
  341MOL0     C44905   3.971  -0.552   6.782 -0.3213 -0.3431 -0.6189
  341MOL0     C44906   3.934  -0.581   6.654  0.4895 -0.4770  0.3549
  341MOL0     C44907   3.800  -0.609   6.630 -0.2867  0.9733 -0.6420
  341MOL0     C44908   3.699  -0.609   6.728 -0.1018  0.8669 -0.4304
  341MOL0     C44909   3.559  -0.616   6.699 -0.1747  0.3392 -0.5135
  341MOL0     O44910   3.470  -0.589   6.797 -0.6001 -0.7300  0.1989
  341MOL0     C44911   3.341  -0.572   6.766  0.2344 -0.5173  0.6718
  341MOL0     C44912   3.247  -0.631   6.848 -0.1653  0.4418 -0.2577
  341MOL0     C44913   3.112  -0.628   6.827  0.6434 -0.4114  0.0145
  341MOL0     C44914   3.064  -0.558   6.715  1.3267 -0.3871  0.3532
  341MOL0     O44915   2.929  -0.543   6.701  0.1761  0.0796 -0.8214
  341MOL0     C44916   2.879  -0.484   6.577 -1.2493 -0.1258 -0.2716
  341MOL0     C44917   2.734  -0.512   6.571  0.2331 -0.4725  0.0015
  341MOL0     C44918   2.704  -0.651   6.610 -0.7444 -0.1139  0.0159
  341MOL0     C44919   2.549  -0.677   6.587 -0.1733  0.6814 -0.0685
  341MOL0     C44920   2.450  -0.588   6.665 -0.6125  0.6440 -0.7254
  341MOL0     C44921   2.325  -0.660   6.700 -0.0800  0.1863  0.0500
  341MOL0     C44922   2.195  -0.576   6.690 -0.1605 -0.6894  1.0847
  341MOL0     C44923   2.078  -0.639   6.764 -0.1274  0.0726  0.3533
  341MOL0    Cl44924   2.114  -0.654   6.931  0.0037 -0.1037 -0.1677
  341MOL0     C44925   3.153  -0.500   6.635 -1.4909 -0.5555  0.2210
  341MOL0     C44926   3.293  -0.497   6.659  0.2600 -0.2504 -0.0848
  341MOL0     O44927   3.528  -0.652   6.584  0.0376  0.7670 -0.1250
  341MOL0     C44928   3.743  -0.576   6.857 -0.2160 -0.4086 -0.1631
  341MOL0     C44929   3.874  -0.541   6.882  0.5002  0.8646  0.2329
  341MOL0     N44930   4.764  -0.550   7.003  1.0157  0.1937  0.0529
  341MOL0     N44931   4.862  -0.476   6.963 -0.5234 -0.2906 -0.4500
  341MOL0     C44932   5.564   0.313   6.733 -0.1562  0.0320 -0.3102
  341MOL0     C44933   5.691   0.282   6.772  0.3560 -0.3287  0.6092
  341MOL0     C44934   6.074   0.140   6.901  0.3361 -0.4323  0.3172
  341MOL0     C44935   6.169   0.190   6.993  0.3321 -0.3021 -0.1983
  341MOL0     C44936   6.307   0.156   6.976  0.0269 -0.0926  0.1494
  341MOL0     C44937   6.352   0.078   6.864  0.0083  0.0425 -0.4458
  341MOL0     O44938   6.488   0.039   6.858 -0.5722 -0.1941 -0.0249
  341MOL0     C44939   6.547  -0.038   6.752 -0.2294  0.4558 -0.6764
  341MOL0     C44940   6.699  -0.044   6.772 -0.3108  0.0879 -0.2980
  341MOL0     C44941   6.758   0.097   6.736 -0.1053 -0.0967  0.2693
  341MOL0     C44942   6.909   0.125   6.759 -0.0944 -0.3900 -0.7465
  341MOL0     C44943   6.969   0.221   6.669  0.2834 -0.2399 -0.4908
  341MOL0     C44944   7.020   0.298   6.596 -0.8366  0.0582 -0.0638
  341MOL0     C44945   6.259   0.051   6.765 -0.9147  0.0473 -0.2518
  341MOL0     C44946   6.128   0.075   6.788  0.2617 -1.0192 -0.5854
  341MOL0     H44947   5.684  -0.048   6.703  3.1357  0.9231  1.3303
  341MOL0     H44948   5.447   0.016   6.621 -0.0125  0.9259 -3.2809
  341MOL0     H44949   5.297   0.359   6.796 -0.3109  1.3779 -3.2372
  341MOL0     H44950   5.279   0.174   6.822 -0.7193 -1.4714 -1.2814
  341MOL0     H44951   5.118   0.385   6.681  2.6582  0.9166  1.2231
  341MOL0     H44952   5.072   0.280   6.818  0.3210 -2.1943  0.2396
  341MOL0     H44953   5.131   0.191   6.535 -1.1545  0.4818 -1.1499
  341MOL0     H44954   4.967   0.196   6.613  0.8079 -0.1946 -0.0787
  341MOL0     H44955   5.181   0.004   6.677 -0.0953  0.4879  1.9138
  341MOL0     H44956   5.046   0.033   6.788  1.8668 -0.9125  1.5258
  341MOL0     H44957   5.003  -0.019   6.477 -0.5029  1.7232  1.2188
  341MOL0     H44958   4.880  -0.013   6.600 -0.5174  0.9361  0.5459
  341MOL0     H44959   5.117  -0.205   6.640 -0.5439  1.8432  5.8506
  341MOL0     H44960   4.986  -0.242   6.516 -0.9907  3.5636 -2.2251
  341MOL0     H44961   4.963  -0.189   6.821  0.8206  1.6462 -1.3808
  341MOL0     H44962   4.827  -0.190   6.704  0.7777  1.3686 -0.4134
  341MOL0     H44963   5.038  -0.407   6.762  0.3313 -0.3855  0.1559
  341MOL0     H44964   4.915  -0.430   6.639  0.6308  1.9721 -1.2153
  341MOL0     H44965   4.650  -0.460   6.714 -0.5306 -0.0776  0.2037
  341MOL0     H44966   4.530  -0.693   6.996 -1.6825  0.2951  0.9867
  341MOL0     H44967   4.545  -0.698   6.817  2.9660  2.6797 -0.7601
  341MOL0     H44968   4.397  -0.525   6.779 -3.0570  1.8186  1.1264
  341MOL0     H44969   4.419  -0.457   6.946 -1.4104 -0.0246  1.3023
  341MOL0     H44970   4.295  -0.724   6.852  3.6405 -0.0278  1.1166
  341MOL0     H44971   4.308  -0.684   7.021  1.4387 -2.6694 -2.1095
  341MOL0     H44972   4.154  -0.483   6.995  1.4393 -1.4143  2.4157
  341MOL0     H44973   4.089  -0.650   6.979 -0.5130 -2.2556 -3.1423
  341MOL0     H44974   4.009  -0.579   6.576 -0.9500 -2.3832 -1.1643
  341MOL0     H44975   3.765  -0.625   6.528 -0.6074 -2.4286 -0.1125
  341MOL0     H44976   3.276  -0.690   6.934  0.2732 -2.6618 -2.3651
  341MOL0     H44977   3.044  -0.665   6.904 -0.3750  2.2085  0.4584
  341MOL0     H44978   2.919  -0.541   6.492 -1.1761  0.2251 -0.4761
  341MOL0     H44979   2.903  -0.380   6.555  0.7686  0.1232  2.4551
  341MOL0     H44980   2.689  -0.482   6.476 -2.1207  0.7607  1.4061
  341MOL0     H44981   2.683  -0.449   6.645 -0.2580 -1.2383  0.3302
  341MOL0     H44982   2.721  -0.678   6.714  0.3105  0.2684 -0.0438
  341MOL0     H44983   2.758  -0.721   6.546  0.3986  1.4185 -0.7632
  341MOL0     H44984   2.534  -0.661   6.480  1.6771 -1.9929 -0.8531
  341MOL0     H44985   2.532  -0.783   6.608 -2.8415  0.8417 -1.0291
  341MOL0     H44986   2.434  -0.490   6.619 -1.1614  0.9270  0.0468
  341MOL0     H44987   2.498  -0.560   6.759  0.3099 -2.7764 -0.0309
  341MOL0     H44988   2.330  -0.701   6.801 -2.6190 -0.6664 -0.1055
  341MOL0     H44989   2.309  -0.747   6.635  0.8905  0.4903 -0.6262
  341MOL0     H44990   2.216  -0.472   6.718 -0.5216 -0.4978  0.6656
  341MOL0     H44991   2.168  -0.582   6.584 -1.7080  1.0428  1.3289
  341MOL0     H44992   2.056  -0.739   6.726  1.3346 -0.2088  0.2137
  341MOL0     H44993   1.989  -0.576   6.749  0.6020  1.1376  0.3825
  341MOL0     H44994   3.128  -0.426   6.560 -1.2805  1.7608  2.3003
  341MOL0     H44995   3.360  -0.449   6.588 -0.3783  0.9571  0.1064
  341MOL0     H44996   3.666  -0.560   6.932  0.3906 -2.1299  0.8818
  341MOL0     H44997   3.896  -0.523   6.987  1.2515 -0.9638  0.4127
  341MOL0     H44998   5.534   0.415   6.753  0.9753  0.5112 -0.9842
  341MOL0     H44999   5.754   0.365   6.801 -0.6742  0.0406  1.8713
  341MOL0     H45000   6.144   0.230   7.090  0.8219  0.3709 -0.3447
  341MOL0     H45001   6.380   0.205   7.040 -1.2123  3.7991 -1.0825
  341MOL0     H45002   6.526   0.003   6.653 -4.1287 -2.0964 -1.1433
  341MOL0     H45003   6.502  -0.138   6.756 -0.4298  0.5487 -0.5734
  341MOL0     H45004   6.726  -0.064   6.876  3.3835 -1.3975 -1.3772
  341MOL0     H45005   6.753  -0.123   6.719 -0.6602 -0.5003  0.2085
  341MOL0     H45006   6.696   0.162   6.799 -0.3442 -1.2025  1.2317
  341MOL0     H45007   6.736   0.114   6.630 -0.9342 -1.7020  0.1390
  341MOL0     H45008   6.923   0.139   6.866 -0.6595  0.3366 -0.7584
  341MOL0     H45009   6.967   0.034   6.743  0.9884 -0.0785  1.1718
  341MOL0     H45010   7.065   0.375   6.536  0.9748  1.6243  2.9914
  341MOL0     H45011   6.285  -0.001   6.673  0.9775  0.3144  0.1096
  341MOL0     H45012   6.048   0.048   6.720  0.1647  0.7780 -1.2257
  342MOL0     O45013  10.182   4.053   9.621 -0.8009 -0.4774 -0.5508
  342MOL0     C45014  10.254   4.155   9.615  0.4036  0.8959  0.4174
  342MOL0     O45015  10.214   4.280   9.643 -0.9992  0.0451  0.2860
  342MOL0     C45016  10.109   4.304   9.723  0.8166  0.2043 -0.0723
  342MOL0     C45017   9.997   4.363   9.669 -0.7604 -0.0999  0.2350
  342MOL0     C45018   9.878   4.382   9.743  0.0319  0.3529 -0.1096
  342MOL0     C45019   9.865   4.352   9.877  0.6940 -0.1875 -0.5766
  342MOL0     O45020   9.745   4.384   9.941 -0.0785 -0.3717  1.1120
  342MOL0     C45021   9.717   4.344  10.070  0.0933 -0.2042 -0.1715
  342MOL0     C45022   9.558   4.342  10.096  0.3781  1.0874  0.6675
  342MOL0     C45023   9.524   4.433  10.199  0.0012 -0.0962  0.1460
  342MOL0     C45024   9.367   4.426  10.224 -0.7521 -0.6437 -0.4361
  342MOL0     C45025   9.317   4.313  10.304  1.0527  0.0710  0.3589
  342MOL0     C45026   9.203   4.359  10.393 -0.3231 -0.1552  0.6039
  342MOL0     C45027   9.088   4.260  10.378  0.1368 -1.0375 -0.6102
  342MOL0     C45028   9.011   4.279  10.245  0.5883 -0.3635 -0.0944
  342MOL0     N45029   8.981   4.149  10.197  0.3435  0.0708  0.1638
  342MOL0     C45030   8.913   4.042  10.264 -0.1351  0.5152  0.6556
  342MOL0     C45031   8.909   3.940  10.169 -0.3230 -0.6272  0.9563
  342MOL0     C45032   8.848   3.807  10.187  0.8498  0.0911  0.1489
  342MOL0     C45033   8.746   3.768  10.082  0.4176  0.1529 -0.7123
  342MOL0     C45034   8.668   3.647  10.133  0.3484  0.9850 -0.1109
  342MOL0     C45035   8.553   3.614  10.039  0.8786  0.9843  0.3182
  342MOL0     O45036   8.499   3.480  10.067  0.1403 -0.0540  0.0685
  342MOL0     C45037   8.430   3.452  10.177  0.4489 -0.0334  0.8322
  342MOL0     C45038   8.382   3.542  10.274  0.0494  0.4465 -0.6911
  342MOL0     C45039   8.303   3.490  10.380 -0.4255 -0.5648  0.8492
  342MOL0     C45040   8.265   3.358  10.380  0.0274  0.0565  0.0448
  342MOL0     C45041   8.211   3.288  10.500 -0.0281 -0.6136 -0.1410
  342MOL0     O45042   8.127   3.184  10.475  0.2099  0.0008 -0.4582
  342MOL0     C45043   8.065   3.113  10.581 -0.0498 -0.8853  1.1561
  342MOL0     C45044   8.018   2.983  10.547 -0.0098 -0.2075  0.1712
  342MOL0     C45045   7.952   2.910  10.643  0.1105  0.3281 -1.2191
  342MOL0     C45046   7.915   2.968  10.764  0.0577 -0.1524 -0.3129
  342MOL0     O45047   7.835   2.905  10.856  0.2459 -0.2351 -0.6110
  342MOL0     C45048   7.771   2.782  10.826 -0.2997  0.7242 -0.2459
  342MOL0     C45049   7.697   2.745  10.962 -0.6757  0.3218 -1.0325
  342MOL0     C45050   7.757   2.794  11.098 -0.7593 -0.2637 -0.6065
  342MOL0     C45051   7.709   2.722  11.225 -0.0227 -0.3923 -0.2568
  342MOL0     C45052   7.582   2.782  11.281  0.3237 -0.1067  0.9219
  342MOL0     C45053   7.555   2.725  11.419  0.3758 -0.6348 -0.5943
  342MOL0     C45054   7.643   2.786  11.529  0.0885  0.1479  0.6799
  342MOL0     C45055   7.596   2.766  11.673 -0.2345  0.9339  0.2332
  342MOL0    Cl45056   7.721   2.799  11.789 -0.4919 -0.0390 -0.0984
  342MOL0     C45057   7.955   3.097  10.795  0.3991 -0.9082 -0.1738
  342MOL0     C45058   8.029   3.170  10.706 -0.1475  0.3401 -0.5682
  342MOL0     O45059   8.250   3.321  10.614 -0.2700  0.7562  0.8714
  342MOL0     C45060   8.293   3.278  10.274  0.4363  0.4738 -0.3767
  342MOL0     C45061   8.377   3.322  10.176 -0.3351  0.4860 -0.2665
  342MOL0     N45062   8.969   3.987  10.052 -0.0791  0.8086 -0.5633
  342MOL0     N45063   9.018   4.100  10.081  0.7103 -0.8946  0.5005
  342MOL0     C45064   9.983   4.305   9.939  0.7878 -0.6731 -0.1143
  342MOL0     C45065  10.101   4.275   9.863  0.6082 -0.3208  0.6091
  342MOL0     C45066  10.395   4.125   9.576 -0.2749 -0.3678 -0.0573
  342MOL0     C45067  10.426   4.004   9.506  0.3929 -0.7386 -0.1474
  342MOL0     C45068  10.559   3.973   9.475 -0.1342  0.4963 -0.1870
  342MOL0     C45069  10.659   4.068   9.507 -0.3265  0.1937 -0.1894
  342MOL0     O45070  10.793   4.057   9.465  0.4000 -0.1406  0.3100
  342MOL0     C45071  10.840   3.924   9.435 -0.3429 -0.4202 -0.6509
  342MOL0     C45072  10.998   3.915   9.443 -0.3584  0.1510  0.3545
  342MOL0     C45073  11.043   3.789   9.388 -0.6010  0.2346  0.5137
  342MOL0     C45074  11.198   3.779   9.369 -0.5441  0.0561  0.1314
  342MOL0     C45075  11.245   3.654   9.309  0.4777  0.6282 -0.6809
  342MOL0     C45076  11.284   3.555   9.241 -0.5668 -0.3451 -0.8798
  342MOL0     C45077  10.630   4.193   9.552 -0.7469 -0.0510 -0.1447
  342MOL0     C45078  10.500   4.228   9.587  0.4372  0.6158  0.1925
  342MOL0     H45079  10.017   4.406   9.571 -1.4651 -0.2933  0.0010
  342MOL0     H45080   9.800   4.435   9.690 -0.5068  0.5135  0.8245
  342MOL0     H45081   9.772   4.400  10.146 -2.1098 -2.1937  3.1693
  342MOL0     H45082   9.756   4.243  10.086 -0.5979 -0.6326 -1.0862
  342MOL0     H45083   9.528   4.242  10.127 -1.0434  0.6586 -1.8228
  342MOL0     H45084   9.500   4.355  10.004 -2.6985  0.0647  2.3369
  342MOL0     H45085   9.552   4.534  10.169  0.7916  0.4847  2.6217
  342MOL0     H45086   9.579   4.416  10.292  1.6114  5.7423  0.6483
  342MOL0     H45087   9.345   4.515  10.283 -1.0835 -0.9328 -0.1209
  342MOL0     H45088   9.313   4.432  10.128  0.3090  1.5606 -0.9783
  342MOL0     H45089   9.389   4.270  10.374  0.7107 -1.1808 -0.0391
  342MOL0     H45090   9.299   4.233  10.232 -0.6277  1.6391 -1.0852
  342MOL0     H45091   9.174   4.460  10.365  1.0386 -0.4581 -2.2299
  342MOL0     H45092   9.245   4.350  10.494  0.9272 -0.8085  0.0493
  342MOL0     H45093   9.119   4.155  10.376  0.5182 -0.9559  0.3335
  342MOL0     H45094   9.021   4.288  10.460  0.6130  2.3502 -1.2552
  342MOL0     H45095   9.067   4.327  10.165 -3.1174  2.4434 -1.3220
  342MOL0     H45096   8.921   4.336  10.269  0.0140 -2.5325  3.7711
  342MOL0     H45097   8.866   4.034  10.361 -1.4595 -1.5443 -0.0993
  342MOL0     H45098   8.803   3.814  10.287  1.4940  0.5770  0.4115
  342MOL0     H45099   8.921   3.727  10.203  1.5501  0.3317 -1.6356
  342MOL0     H45100   8.792   3.737   9.988 -2.4625 -1.0239 -1.8553
  342MOL0     H45101   8.681   3.855  10.070  0.4385  0.5756  1.7187
  342MOL0     H45102   8.742   3.568  10.146 -1.2572 -0.8433 -1.4273
  342MOL0     H45103   8.620   3.668  10.229 -0.8543  1.4929 -0.8011
  342MOL0     H45104   8.582   3.613   9.933  2.2592  0.2286  0.6739
  342MOL0     H45105   8.477   3.691  10.051 -1.2743 -0.8630 -0.7882
  342MOL0     H45106   8.406   3.648  10.273 -2.8204  1.2046  0.0022
  342MOL0     H45107   8.270   3.565  10.452  0.9580 -0.5884  1.5530
  342MOL0     H45108   8.016   2.948  10.444  0.3201 -2.5782  0.9159
  342MOL0     H45109   7.923   2.807  10.628  1.2536 -0.3112  0.6990
  342MOL0     H45110   7.850   2.710  10.804 -0.3582  0.5184  0.1949
  342MOL0     H45111   7.693   2.785  10.749 -1.8406  0.6020  1.2328
  342MOL0     H45112   7.684   2.637  10.955  1.7171 -0.3431  2.2520
  342MOL0     H45113   7.593   2.780  10.964 -0.5162  1.0532  2.5249
  342MOL0     H45114   7.745   2.902  11.107  1.3339  0.2120 -2.6371
  342MOL0     H45115   7.865   2.774  11.093 -0.3510  1.3613  0.6384
  342MOL0     H45116   7.706   2.614  11.205  2.0777 -1.1513  2.8571
  342MOL0     H45117   7.779   2.739  11.308 -2.2055 -0.2991  1.6576
  342MOL0     H45118   7.514   2.754  11.200  0.3654 -0.5212  1.0276
  342MOL0     H45119   7.579   2.890  11.293  0.2026 -0.1025  0.8584
  342MOL0     H45120   7.578   2.619  11.433  2.6325 -0.0155  0.8604
  342MOL0     H45121   7.449   2.728  11.444  0.6877 -1.6693  0.9474
  342MOL0     H45122   7.739   2.735  11.527  0.0193  0.0361 -0.2635
  342MOL0     H45123   7.650   2.893  11.508  0.2765  0.1331  0.6655
  342MOL0     H45124   7.553   2.667  11.690 -1.7681  1.7860  1.7494
  342MOL0     H45125   7.517   2.839  11.696  1.1754  2.0621  1.7684
  342MOL0     H45126   7.928   3.140  10.891 -2.4863  0.1387 -1.3269
  342MOL0     H45127   8.061   3.270  10.730  1.2497 -0.3968  0.7875
  342MOL0     H45128   8.265   3.173  10.274  3.2986 -0.4246 -2.7185
  342MOL0     H45129   8.398   3.249  10.098 -0.5643  0.1606 -0.0252
  342MOL0     H45130   9.986   4.278  10.044  0.2882 -4.8068 -0.9986
  342MOL0     H45131  10.187   4.240   9.919  0.7276  0.1949  0.7569
  342MOL0     H45132  10.345   3.935   9.488  0.8475 -1.8458  1.7542
  342MOL0     H45133  10.588   3.880   9.426  0.2944  1.2399 -1.3701
  342MOL0     H45134  10.806   3.909   9.332  0.5493 -1.0034 -0.8774
  342MOL0     H45135  10.801   3.846   9.502  1.1853 -0.1358  0.6210
  342MOL0     H45136  11.044   4.001   9.394 -1.2183  0.1671 -0.4453
  342MOL0     H45137  11.029   3.912   9.548  0.1968  3.3355  0.3933
  342MOL0     H45138  11.008   3.776   9.286 -0.2099  0.7113  0.3150
  342MOL0     H45139  11.022   3.699   9.447  0.4976  0.6601  1.6192
  342MOL0     H45140  11.222   3.866   9.307 -1.9497  0.5804  0.2842
  342MOL0     H45141  11.245   3.788   9.468 -1.2963  0.2460  0.4828
  342MOL0     H45142  11.319   3.464   9.197  0.2553 -1.5836  2.0927
  342MOL0     H45143  10.709   4.268   9.560  0.7050 -1.5139 -0.1474
  342MOL0     H45144  10.473   4.329   9.616 -0.5838 -0.1434  1.9651
  343MOL0     O45145   7.009   5.341   0.308 -0.2393  0.2885 -1.1338
  343MOL0     C45146   7.051   5.326   0.423 -0.2979  1.2279 -0.1729
  343MOL0     O45147   6.987   5.268   0.521 -0.5731 -0.6086 -0.6722
  343MOL0     C45148   6.852   5.234   0.516 -0.0357 -0.0710  0.3773
  343MOL0     C45149   6.761   5.338   0.513 -0.9845 -0.0168  0.4023
  343MOL0     C45150   6.630   5.317   0.500 -0.6645 -0.5298 -0.2631
  343MOL0     C45151   6.579   5.191   0.485  0.7561  0.9415  0.6018
  343MOL0     O45152   6.443   5.179   0.467 -0.7428 -0.3497  0.4482
  343MOL0     C45153   6.390   5.043   0.473 -0.6415  0.0240 -0.5667
  343MOL0     C45154   6.244   5.027   0.437 -0.9184  0.8196 -0.2397
  343MOL0     C45155   6.148   5.122   0.496  0.6610 -0.3513  0.2556
  343MOL0     C45156   6.004   5.070   0.461 -1.1807 -1.2679 -0.4374
  343MOL0     C45157   5.907   5.190   0.465 -0.4015 -0.7731  0.0029
  343MOL0     C45158   5.772   5.151   0.393  0.9823  0.1160 -0.1859
  343MOL0     C45159   5.676   5.054   0.476 -0.0912  0.6124  0.5768
  343MOL0     C45160   5.601   5.127   0.584  0.3462  0.9467  0.6698
  343MOL0     N45161   5.484   5.205   0.530  0.3595  0.5768  0.3318
  343MOL0     C45162   5.398   5.281   0.617  0.2815  1.0849 -0.1656
  343MOL0     C45163   5.284   5.304   0.543 -0.8995  0.6030 -0.0067
  343MOL0     C45164   5.159   5.380   0.579  0.8255 -0.1862  0.5494
  343MOL0     C45165   5.026   5.311   0.551 -0.3576 -0.4131  0.1457
  343MOL0     C45166   4.978   5.339   0.413  0.5261  0.0325  0.7305
  343MOL0     C45167   4.821   5.352   0.409 -0.8320 -0.3367 -0.0304
  343MOL0     O45168   4.771   5.230   0.453 -0.1652  0.3171  0.0031
  343MOL0     C45169   4.653   5.197   0.398 -0.4770  0.5140  0.6855
  343MOL0     C45170   4.563   5.290   0.348  0.4828 -0.8219 -0.2073
  343MOL0     C45171   4.449   5.243   0.279  0.2612 -1.0768  0.0994
  343MOL0     C45172   4.421   5.110   0.243 -0.4809  0.5266 -0.3394
  343MOL0     C45173   4.301   5.074   0.157 -0.7874  0.6745  0.1265
  343MOL0     O45174   4.224   5.180   0.118  0.5608 -0.5274 -0.3819
  343MOL0     C45175   4.108   5.153   0.048  0.2585 -0.3310 -0.0961
  343MOL0     C45176   4.125   5.120  -0.080 -0.3469  0.2595 -1.1176
  343MOL0     C45177   4.020   5.104  -0.163  0.1059  0.0804  0.4695
  343MOL0     C45178   3.888   5.126  -0.121 -0.1109  0.4560  0.3835
  343MOL0     O45179   3.787   5.122  -0.216 -0.3150  0.3758  0.2780
  343MOL0     C45180   3.667   5.183  -0.183 -0.0569  0.6992 -0.9269
  343MOL0     C45181   3.581   5.209  -0.304 -0.1737  0.3762 -0.0920
  343MOL0     C45182   3.529   5.083  -0.374 -0.4807 -0.0139  0.0429
  343MOL0     C45183   3.430   4.991  -0.298 -0.1136 -1.5193 -0.3655
  343MOL0     C45184   3.338   4.884  -0.368 -0.2162  0.5197 -0.4319
  343MOL0     C45185   3.286   4.915  -0.512  0.2278  0.1037  0.8514
  343MOL0     C45186   3.195   4.803  -0.552  0.4703  0.6976 -1.0002
  343MOL0     C45187   3.173   4.807  -0.703  0.8200 -0.2807  0.4462
  343MOL0    Cl45188   3.321   4.766  -0.782 -0.2736  0.0867  0.2355
  343MOL0     C45189   3.864   5.154   0.018 -0.0298 -0.0612 -0.3740
  343MOL0     C45190   3.980   5.172   0.100 -0.3917 -0.0085  0.3519
  343MOL0     O45191   4.285   4.954   0.130 -0.2915  0.1712  0.1467
  343MOL0     C45192   4.510   5.017   0.303  1.1866 -0.4819  0.0650
  343MOL0     C45193   4.619   5.058   0.380 -0.3182 -0.2924 -0.6067
  343MOL0     N45194   5.310   5.255   0.420  0.3713 -0.0988 -0.0265
  343MOL0     N45195   5.435   5.224   0.409  0.6213  0.5826 -0.1787
  343MOL0     C45196   6.674   5.083   0.495  0.5253  0.1807 -0.0010
  343MOL0     C45197   6.810   5.104   0.523 -0.4428  1.0341 -0.1722
  343MOL0     C45198   7.186   5.381   0.451 -0.0025 -0.1664 -1.0441
  343MOL0     C45199   7.214   5.516   0.408  0.0909  0.1137  0.0392
  343MOL0     C45200   7.341   5.572   0.420 -0.2692  0.0061  0.3829
  343MOL0     C45201   7.445   5.498   0.476  0.2073  0.2144  1.4084
  343MOL0     O45202   7.569   5.544   0.465  0.0173  0.1496  0.1669
  343MOL0     C45203   7.650   5.529   0.580  0.6637  0.7728  0.1560
  343MOL0     C45204   7.783   5.597   0.548  0.1335 -0.5700 -0.3871
  343MOL0     C45205   7.756   5.753   0.513 -0.3728  0.4340 -0.6784
  343MOL0     C45206   7.878   5.835   0.479  0.4619  0.4150 -0.3562
  343MOL0     C45207   7.961   5.874   0.587 -0.0612  0.4603 -0.5473
  343MOL0     C45208   8.026   5.903   0.681  1.1267 -1.0857  0.4415
  343MOL0     C45209   7.411   5.372   0.527  0.5516  0.1593  0.3519
  343MOL0     C45210   7.281   5.318   0.519 -0.1963  0.3595 -0.1355
  343MOL0     H45211   6.804   5.436   0.527  0.7329 -0.6701 -0.1021
  343MOL0     H45212   6.560   5.398   0.481  1.2012  0.8672 -1.5536
  343MOL0     H45213   6.405   4.996   0.571 -3.0436  0.5875  0.1346
  343MOL0     H45214   6.441   4.984   0.396  0.0386 -0.1654  0.0143
  343MOL0     H45215   6.211   4.931   0.477 -1.0281  0.6927 -0.6373
  343MOL0     H45216   6.235   5.043   0.329 -2.9642  1.7163  0.0209
  343MOL0     H45217   6.157   5.222   0.452 -1.5397 -0.7588 -1.2733
  343MOL0     H45218   6.166   5.120   0.604  1.0644  1.1021  0.2403
  343MOL0     H45219   6.013   5.023   0.362  3.2215  1.3223 -1.4961
  343MOL0     H45220   5.969   4.988   0.525  1.9967 -3.1906 -0.9548
  343MOL0     H45221   5.950   5.273   0.408  0.3583 -0.0582  1.5495
  343MOL0     H45222   5.895   5.223   0.568  1.5454 -0.5595  0.2039
  343MOL0     H45223   5.795   5.094   0.303  4.5126 -2.4306  2.0440
  343MOL0     H45224   5.719   5.244   0.371  2.4088  1.7742  2.7392
  343MOL0     H45225   5.615   4.995   0.407  0.9498  1.3685 -1.0500
  343MOL0     H45226   5.739   4.982   0.528  0.0042 -1.7501 -2.5232
  343MOL0     H45227   5.665   5.206   0.625  1.4976  2.0924 -2.9312
  343MOL0     H45228   5.573   5.061   0.667 -0.6842  3.0073  2.0597
  343MOL0     H45229   5.422   5.314   0.718 -3.2404  0.1113  1.1515
  343MOL0     H45230   5.160   5.470   0.516  0.3226  0.2089  1.0929
  343MOL0     H45231   5.165   5.411   0.684 -2.5304  2.6433  0.0870
  343MOL0     H45232   4.954   5.354   0.621 -1.4451  0.3376 -1.3845
  343MOL0     H45233   5.038   5.205   0.574  0.4909  0.2185  2.9651
  343MOL0     H45234   5.014   5.433   0.371  1.8618  1.0416  3.8332
  343MOL0     H45235   5.003   5.259   0.342  2.6963 -0.8638  2.3912
  343MOL0     H45236   4.791   5.370   0.305 -1.2713  2.4768  0.5030
  343MOL0     H45237   4.793   5.433   0.477  3.8318  1.0495  0.5786
  343MOL0     H45238   4.562   5.397   0.364 -0.7432 -0.8184 -0.1777
  343MOL0     H45239   4.384   5.321   0.241 -0.2467 -0.4820  2.0887
  343MOL0     H45240   4.225   5.109  -0.120 -0.0900  0.3494 -0.5056
  343MOL0     H45241   4.029   5.061  -0.263 -3.9455 -2.6418  1.0194
  343MOL0     H45242   3.695   5.278  -0.136  3.8515 -0.9849  0.5174
  343MOL0     H45243   3.610   5.125  -0.111  0.8593 -1.4972 -1.8755
  343MOL0     H45244   3.649   5.250  -0.379  0.8282  0.1473  0.6647
  343MOL0     H45245   3.502   5.283  -0.287 -0.6966 -0.0762 -0.5162
  343MOL0     H45246   3.616   5.025  -0.406  0.0299  0.9334 -0.3201
  343MOL0     H45247   3.474   5.124  -0.459  3.4498  3.1383 -1.2828
  343MOL0     H45248   3.494   4.940  -0.225 -0.0135  0.9063  1.3818
  343MOL0     H45249   3.364   5.054  -0.237  0.6409 -1.1841  0.1247
  343MOL0     H45250   3.251   4.878  -0.302  0.7600 -0.0143  0.8293
  343MOL0     H45251   3.382   4.784  -0.370  2.4744  1.6098  0.1188
  343MOL0     H45252   3.370   4.919  -0.581 -0.3475 -3.0305 -0.2006
  343MOL0     H45253   3.228   5.008  -0.514 -0.1163 -0.1232 -0.5321
  343MOL0     H45254   3.228   4.703  -0.522 -2.3382 -0.1903 -0.5753
  343MOL0     H45255   3.102   4.818  -0.497 -1.3988  1.4779 -4.1037
  343MOL0     H45256   3.147   4.909  -0.732 -0.7604 -1.3713 -2.3231
  343MOL0     H45257   3.097   4.734  -0.731  1.3029 -1.3094  1.7687
  343MOL0     H45258   3.768   5.170   0.067 -0.0827 -2.0720  0.2523
  343MOL0     H45259   3.974   5.208   0.202  1.1590 -0.4330  0.6254
  343MOL0     H45260   4.478   4.916   0.279 -0.6241  0.1565 -0.3881
  343MOL0     H45261   4.693   4.983   0.407  2.1211  1.7297 -1.2354
  343MOL0     H45262   6.632   4.985   0.474 -1.2938  0.5177  1.8110
  343MOL0     H45263   6.881   5.022   0.523  0.4489  1.7966 -0.5295
  343MOL0     H45264   7.145   5.577   0.351  0.6870  0.1677 -0.6350
  343MOL0     H45265   7.351   5.669   0.373 -0.3009 -0.3345 -0.3430
  343MOL0     H45266   7.665   5.424   0.604  2.0075  0.4171 -1.9279
  343MOL0     H45267   7.597   5.577   0.663  1.9359  0.8047  0.9702
  343MOL0     H45268   7.846   5.597   0.637  1.2908  2.3677 -1.1006
  343MOL0     H45269   7.826   5.543   0.463  2.8245 -1.2701  1.2945
  343MOL0     H45270   7.698   5.810   0.586  2.9232  0.8800  1.8560
  343MOL0     H45271   7.698   5.751   0.420 -0.8577 -0.3256 -0.3649
  343MOL0     H45272   7.935   5.786   0.400  0.2395 -0.0337 -0.2411
  343MOL0     H45273   7.844   5.929   0.435 -0.2309  2.1369  3.4002
  343MOL0     H45274   8.092   5.928   0.761 -0.1426  0.6675  0.9828
  343MOL0     H45275   7.476   5.305   0.582 -1.1422 -1.2845  0.7092
  343MOL0     H45276   7.265   5.217   0.555 -2.0913  1.2370  1.6675
  344MOL0     O45277   6.202   0.123   5.522  0.4836 -0.3222 -0.3762
  344MOL0     C45278   6.262   0.071   5.427 -0.0736  0.6406 -0.7936
  344MOL0     O45279   6.206   0.034   5.307 -0.6301  0.3022 -0.2654
  344MOL0     C45280   6.075   0.052   5.267 -0.8259 -0.6005 -0.7256
  344MOL0     C45281   5.958   0.061   5.358  0.1742 -0.7737  0.7410
  344MOL0     C45282   5.830   0.080   5.299  0.0729 -0.6106  1.0492
  344MOL0     C45283   5.815   0.079   5.153 -0.1435 -0.2401  0.3241
  344MOL0     O45284   5.695   0.088   5.079 -0.0012  0.0400  0.1680
  344MOL0     C45285   5.578   0.043   5.146  0.7593  0.1531 -0.5228
  344MOL0     C45286   5.467   0.034   5.048 -0.2995  0.1922  0.1409
  344MOL0     C45287   5.503  -0.070   4.935 -0.6487  0.3454 -0.4467
  344MOL0     C45288   5.421  -0.052   4.807  0.5051 -0.4803  0.3068
  344MOL0     C45289   5.405   0.090   4.745 -0.5684 -0.0878 -0.7402
  344MOL0     C45290   5.541   0.119   4.688 -0.9023  1.2138  0.5873
  344MOL0     C45291   5.536   0.248   4.608 -0.1391  0.0988 -0.1386
  344MOL0     C45292   5.672   0.287   4.552 -0.0895  0.4148 -0.0983
  344MOL0     N45293   5.685   0.437   4.554  0.5667  0.1520 -0.5099
  344MOL0     C45294   5.802   0.507   4.566 -0.3977  0.4157 -0.1105
  344MOL0     C45295   5.770   0.634   4.542  0.0090 -0.0017  0.3329
  344MOL0     C45296   5.877   0.733   4.520  0.1809 -0.2299  0.1880
  344MOL0     C45297   5.974   0.735   4.636  0.1865  0.5888 -0.2878
  344MOL0     C45298   6.074   0.841   4.608 -0.0885 -0.4600  0.6885
  344MOL0     C45299   6.172   0.879   4.726 -0.2943 -0.4548 -0.4448
  344MOL0     O45300   6.226   1.005   4.695 -0.5718 -0.7047  0.3369
  344MOL0     C45301   6.362   1.020   4.674 -1.2635  0.7187 -0.5550
  344MOL0     C45302   6.431   1.113   4.749 -0.2499  0.7937  0.5080
  344MOL0     C45303   6.568   1.122   4.748 -0.7578 -0.6654  0.0966
  344MOL0     C45304   6.644   1.042   4.668 -0.2571 -0.2547  0.2299
  344MOL0     C45305   6.792   1.061   4.667 -0.3412 -0.5365 -0.1375
  344MOL0     O45306   6.844   1.168   4.731 -0.6553  0.7742 -0.2496
  344MOL0     C45307   6.975   1.201   4.762  0.2656 -0.4918 -0.9576
  344MOL0     C45308   6.994   1.334   4.813  1.0536  0.5689  0.1296
  344MOL0     C45309   7.118   1.371   4.865  0.0683  0.0708  0.4076
  344MOL0     C45310   7.229   1.291   4.844  0.3185  0.0051  0.4689
  344MOL0     O45311   7.351   1.333   4.887 -0.4761  0.6782  0.0073
  344MOL0     C45312   7.379   1.473   4.892  0.0132 -0.2857 -0.0691
  344MOL0     C45313   7.528   1.489   4.893 -0.5550  0.1669 -0.0923
  344MOL0     C45314   7.583   1.439   4.762 -0.1445  0.5232 -0.4775
  344MOL0     C45315   7.732   1.428   4.783  0.3802 -0.0821 -0.4671
  344MOL0     C45316   7.792   1.343   4.667 -0.1045 -0.0132 -0.2272
  344MOL0     C45317   7.935   1.315   4.689 -0.1208 -0.5082 -0.1253
  344MOL0     C45318   7.997   1.277   4.552  1.1977 -0.0271 -1.3622
  344MOL0     C45319   8.138   1.250   4.582 -1.3187  0.2182 -0.4577
  344MOL0    Cl45320   8.212   1.175   4.436 -0.3593  0.3725 -0.4289
  344MOL0     C45321   7.207   1.162   4.803 -0.4417 -0.8776  0.8819
  344MOL0     C45322   7.089   1.122   4.746 -0.1242  0.6019 -0.4027
  344MOL0     O45323   6.857   0.982   4.605  0.2670  0.6781 -0.3643
  344MOL0     C45324   6.581   0.957   4.582  0.6715 -0.1676  0.1220
  344MOL0     C45325   6.445   0.940   4.589 -0.4647 -0.7217 -0.0605
  344MOL0     N45326   5.643   0.640   4.507  0.2901  0.0188 -0.0409
  344MOL0     N45327   5.590   0.522   4.517 -0.2501  0.4530  0.3709
  344MOL0     C45328   5.932   0.078   5.077  0.3329 -1.1649 -0.0287
  344MOL0     C45329   6.057   0.068   5.133  0.0729 -0.0879 -0.4617
  344MOL0     C45330   6.398   0.021   5.461  0.3764 -0.1406 -0.2578
  344MOL0     C45331   6.475  -0.047   5.371  0.7853  0.8344  0.2414
  344MOL0     C45332   6.609  -0.078   5.405 -0.5251 -0.0334  0.0852
  344MOL0     C45333   6.667  -0.036   5.527  0.3325 -0.6279  0.1417
  344MOL0     O45334   6.804  -0.070   5.540  0.2132  0.0255 -0.2058
  344MOL0     C45335   6.879  -0.016   5.652  0.1536  0.5414  0.3734
  344MOL0     C45336   6.994   0.064   5.615 -0.2789 -0.9474 -0.6585
  344MOL0     C45337   7.117  -0.005   5.538  0.3052 -1.0160  0.6635
  344MOL0     C45338   7.189  -0.104   5.621 -0.2581 -0.2987 -0.2542
  344MOL0     C45339   7.281  -0.188   5.538  0.6030 -0.1355 -1.5587
  344MOL0     C45340   7.357  -0.266   5.474  1.3164 -0.0282  0.0906
  344MOL0     C45341   6.583   0.013   5.618 -0.0925 -0.5360 -0.7163
  344MOL0     C45342   6.450   0.049   5.585  0.0640 -0.7681  0.3119
  344MOL0     H45343   5.971   0.069   5.465  1.4663 -1.7189  0.6748
  344MOL0     H45344   5.744   0.074   5.365 -1.1467 -0.6355 -0.4952
  344MOL0     H45345   5.558   0.122   5.220 -1.7330 -0.4850 -0.4364
  344MOL0     H45346   5.588  -0.054   5.195  2.3870 -0.8063 -2.6350
  344MOL0     H45347   5.461   0.137   5.014  3.3242  0.6360  0.4918
  344MOL0     H45348   5.375   0.007   5.101  0.1498 -1.2836  0.2257
  344MOL0     H45349   5.482  -0.165   4.985 -3.8960  0.1492 -1.9070
  344MOL0     H45350   5.607  -0.066   4.903  0.8186 -2.3996  3.2827
  344MOL0     H45351   5.455  -0.125   4.733  1.5034  0.4237 -0.1520
  344MOL0     H45352   5.318  -0.072   4.838 -0.0878  1.3017 -0.3662
  344MOL0     H45353   5.384   0.169   4.818  3.0566  0.7174 -0.3944
  344MOL0     H45354   5.324   0.103   4.672 -0.0688 -0.1307 -1.3063
  344MOL0     H45355   5.572   0.043   4.615  0.8301  0.2965  2.1946
  344MOL0     H45356   5.623   0.123   4.760  0.0358  0.3984 -0.4056
  344MOL0     H45357   5.457   0.235   4.533 -1.9781  0.3733  1.6737
  344MOL0     H45358   5.506   0.328   4.677 -0.3846 -0.9378  0.9856
  344MOL0     H45359   5.687   0.256   4.448 -2.0633 -0.6988 -0.0919
  344MOL0     H45360   5.751   0.239   4.611 -1.9620 -2.3210  0.3704
  344MOL0     H45361   5.905   0.477   4.586 -0.7057 -1.9509 -1.7205
  344MOL0     H45362   5.835   0.834   4.517  0.5871 -0.0709 -0.3290
  344MOL0     H45363   5.925   0.703   4.427  0.6968 -1.4073  0.8208
  344MOL0     H45364   6.029   0.641   4.636 -0.2718  0.3171 -0.6212
  344MOL0     H45365   5.920   0.756   4.729  0.2318  2.6223 -0.6584
  344MOL0     H45366   6.121   0.806   4.516 -0.5334  0.6449  0.0269
  344MOL0     H45367   6.023   0.936   4.592 -0.2380 -0.3439  1.7685
  344MOL0     H45368   6.242   0.796   4.735 -1.1135 -1.0043  1.3862
  344MOL0     H45369   6.113   0.889   4.818 -0.1086  0.0413 -0.3733
  344MOL0     H45370   6.367   1.177   4.809 -1.2866 -0.3110  0.6254
  344MOL0     H45371   6.616   1.208   4.794  0.8593 -0.0842 -2.4549
  344MOL0     H45372   6.905   1.394   4.831 -0.0692 -1.4037  1.3950
  344MOL0     H45373   7.120   1.473   4.904 -1.1113  0.1176  0.3852
  344MOL0     H45374   7.328   1.501   4.985 -1.0603 -2.9996  0.2569
  344MOL0     H45375   7.346   1.527   4.803 -2.2226  0.1766  0.9620
  344MOL0     H45376   7.574   1.426   4.970 -0.6974 -1.9106 -1.6468
  344MOL0     H45377   7.548   1.597   4.895 -3.0476  0.6962 -0.4417
  344MOL0     H45378   7.553   1.490   4.670 -0.9696 -1.2372 -1.2449
  344MOL0     H45379   7.541   1.338   4.757 -0.0804  0.5039 -0.6302
  344MOL0     H45380   7.778   1.526   4.800  0.2744  0.2445 -1.8944
  344MOL0     H45381   7.746   1.373   4.877  1.8532  0.3946 -0.3706
  344MOL0     H45382   7.770   1.397   4.575 -1.1780 -0.9433 -0.5527
  344MOL0     H45383   7.740   1.247   4.656 -4.5849  2.1443 -0.4015
  344MOL0     H45384   7.930   1.229   4.756 -2.1917 -1.4526 -1.3947
  344MOL0     H45385   7.982   1.407   4.725  1.2297 -1.5437  0.8671
  344MOL0     H45386   7.942   1.202   4.495  0.2052  0.9951 -1.7951
  344MOL0     H45387   7.995   1.367   4.489  0.1504  0.4040 -0.7380
  344MOL0     H45388   8.149   1.177   4.662 -1.2889 -2.3443 -2.6609
  344MOL0     H45389   8.190   1.342   4.609  0.4413 -1.0961  0.8965
  344MOL0     H45390   7.291   1.094   4.814  0.1284 -0.7648 -2.0225
  344MOL0     H45391   7.077   1.020   4.710 -2.4804  0.3008  1.0233
  344MOL0     H45392   6.633   0.886   4.518 -1.6495 -5.2429  3.1868
  344MOL0     H45393   6.402   0.866   4.523 -0.2019  1.2943 -2.6644
  344MOL0     H45394   5.914   0.073   4.970 -0.8239  2.7153 -0.1563
  344MOL0     H45395   6.149   0.078   5.076  1.4258  0.0899  1.6409
  344MOL0     H45396   6.432  -0.072   5.275  0.7988  0.5967  0.2961
  344MOL0     H45397   6.669  -0.133   5.333 -0.2759 -3.0419  2.3830
  344MOL0     H45398   6.909  -0.101   5.714 -0.3160 -0.5086 -0.7761
  344MOL0     H45399   6.810   0.045   5.711 -0.5799 -0.5145  0.6557
  344MOL0     H45400   6.947   0.138   5.550 -3.1389  0.5904  2.8194
  344MOL0     H45401   7.023   0.121   5.703 -3.4488  1.9008 -1.2510
  344MOL0     H45402   7.189   0.064   5.493 -0.0679 -2.3867 -2.3112
  344MOL0     H45403   7.074  -0.054   5.450 -2.4647  0.9760  0.7800
  344MOL0     H45404   7.240  -0.056   5.705 -0.1328 -1.1722  0.1811
  344MOL0     H45405   7.116  -0.173   5.664  1.8475 -2.9306 -0.6094
  344MOL0     H45406   7.421  -0.340   5.430  3.3186  1.0009  1.1822
  344MOL0     H45407   6.619   0.035   5.718 -2.2568 -2.1170  0.4861
  344MOL0     H45408   6.393   0.101   5.661  1.0324 -0.4946  0.8688
  345MOL0     O45409   6.366   9.935   6.139  0.1760  0.6348  0.5382
  345MOL0     C45410   6.364   9.953   6.020  0.8730  0.4154  0.3393
  345MOL0     O45411   6.247   9.960   5.946 -0.6644  0.0406  0.0533
  345MOL0     C45412   6.128   9.896   5.974  0.1465  0.5122 -0.8231
  345MOL0     C45413   6.014   9.952   5.927 -0.8884 -0.0765 -1.3733
  345MOL0     C45414   5.897   9.875   5.931  0.2460 -0.0303  0.2623
  345MOL0     C45415   5.894   9.752   5.986  0.1636 -0.2060  0.1217
  345MOL0     O45416   5.772   9.688   5.971  0.3316 -0.6188  0.4800
  345MOL0     C45417   5.742   9.571   6.053 -0.0895  0.4407 -0.2355
  345MOL0     C45418   5.584   9.577   6.048 -0.2108 -0.1554 -0.3011
  345MOL0     C45419   5.542   9.480   6.156 -0.1738  0.7105 -0.0531
  345MOL0     C45420   5.391   9.490   6.182 -0.2024  0.5411  0.2239
  345MOL0     C45421   5.340   9.628   6.230 -0.6836  0.7894  0.6809
  345MOL0     C45422   5.205   9.625   6.297  0.2905 -0.2074  0.1481
  345MOL0     C45423   5.093   9.572   6.207 -0.8167  0.0710  0.0169
  345MOL0     C45424   4.956   9.573   6.272  0.9253  0.2273  1.1355
  345MOL0     N45425   4.863   9.504   6.191 -0.3666  0.6308 -0.5889
  345MOL0     C45426   4.833   9.370   6.201  0.1140  0.7954  0.1751
  345MOL0     C45427   4.757   9.344   6.087  0.8026 -0.6451 -0.2001
  345MOL0     C45428   4.693   9.206   6.061 -1.0838 -0.1499 -0.4861
  345MOL0     C45429   4.564   9.213   6.125  0.8942  0.6340 -0.3274
  345MOL0     C45430   4.476   9.103   6.070  0.0921 -0.8164  0.5896
  345MOL0     C45431   4.338   9.092   6.140 -0.5438 -0.4833 -1.1019
  345MOL0     O45432   4.237   9.181   6.097  0.2595  0.0173  0.5350
  345MOL0     C45433   4.113   9.129   6.121 -0.1783 -0.6368 -0.6982
  345MOL0     C45434   4.034   9.116   6.015 -0.5016 -0.6532 -0.1693
  345MOL0     C45435   3.902   9.067   6.035 -0.6069 -0.3764  0.3096
  345MOL0     C45436   3.860   9.021   6.161  0.8108 -0.2967  1.5983
  345MOL0     C45437   3.712   8.978   6.168 -0.7643 -0.0020  0.7185
  345MOL0     O45438   3.628   8.973   6.051 -0.0400  0.4202 -0.5154
  345MOL0     C45439   3.526   8.884   6.040 -0.2136  1.0972 -0.1698
  345MOL0     C45440   3.532   8.744   6.066  0.5541  0.5074  0.1427
  345MOL0     C45441   3.423   8.670   6.030  0.3604 -0.2885  0.0447
  345MOL0     C45442   3.304   8.724   5.984 -0.5123  0.0552  0.2477
  345MOL0     O45443   3.195   8.640   5.966  0.6954 -0.4648  0.1713
  345MOL0     C45444   3.064   8.679   6.012 -0.1225 -0.4718  0.0101
  345MOL0     C45445   2.958   8.584   5.945  0.1194  0.1486 -0.0067
  345MOL0     C45446   2.810   8.637   5.966 -0.2628 -0.1475  0.9753
  345MOL0     C45447   2.741   8.602   5.839 -0.6330  0.6296  0.7850
  345MOL0     C45448   2.600   8.619   5.858  0.2895  0.1156 -0.6160
  345MOL0     C45449   2.525   8.567   5.735 -0.3987  0.1230 -0.0042
  345MOL0     C45450   2.377   8.534   5.770  0.1436 -0.1566  0.7390
  345MOL0     C45451   2.306   8.487   5.636 -0.1642 -0.1433  0.6691
  345MOL0    Cl45452   2.141   8.508   5.665  0.3030 -0.1887  0.1894
  345MOL0     C45453   3.300   8.859   5.980 -0.6631  0.1889  0.7398
  345MOL0     C45454   3.412   8.940   5.996  0.4075 -0.3192  0.6841
  345MOL0     O45455   3.687   8.925   6.272  0.3261 -0.5609  0.4377
  345MOL0     C45456   3.953   9.025   6.265 -0.5712  0.6796 -0.2007
  345MOL0     C45457   4.085   9.085   6.251  0.0551  0.8307 -0.3011
  345MOL0     N45458   4.739   9.461   6.015  0.0515  0.1724  0.1969
  345MOL0     N45459   4.800   9.553   6.078  0.3364 -0.1585 -0.4916
  345MOL0     C45460   6.007   9.703   6.037 -0.2641 -0.3202 -0.0505
  345MOL0     C45461   6.128   9.766   6.030 -0.8735  0.2430 -0.5988
  345MOL0     C45462   6.485   9.997   5.952  0.6827 -0.4559  0.1443
  345MOL0     C45463   6.613   9.945   5.991  0.1227  0.2463  0.0398
  345MOL0     C45464   6.735   9.982   5.926 -0.8943 -0.9285 -0.0860
  345MOL0     C45465   6.718  10.084   5.828  0.1918 -0.7455 -0.2412
  345MOL0     O45466   6.831  10.117   5.758 -0.3123  0.5439  0.0112
  345MOL0     C45467   6.845  10.244   5.710 -0.1297  0.0528  0.1049
  345MOL0     C45468   6.995  10.274   5.713  0.1134 -0.7914  1.1632
  345MOL0     C45469   7.084  10.197   5.612  1.0280 -0.0949  0.2567
  345MOL0     C45470   7.190  10.119   5.685  0.3808  0.0553  0.9684
  345MOL0     C45471   7.286  10.210   5.738 -0.8209 -0.3871 -0.1654
  345MOL0     C45472   7.368  10.282   5.789 -0.5191  0.2338 -0.5438
  345MOL0     C45473   6.595  10.148   5.803  0.4610  0.0632  0.0140
  345MOL0     C45474   6.479  10.098   5.855 -0.0576 -0.2344  0.0408
  345MOL0     H45475   6.017  10.051   5.884  1.7025 -0.4769 -2.2770
  345MOL0     H45476   5.804   9.920   5.896  0.2948  1.1391  1.5486
  345MOL0     H45477   5.781   9.580   6.155  2.5917  1.3079 -1.2491
  345MOL0     H45478   5.773   9.473   6.018 -0.9271 -0.2113  0.7951
  345MOL0     H45479   5.552   9.530   5.955 -1.3042 -2.1766  1.0221
  345MOL0     H45480   5.543   9.679   6.052 -0.4784 -0.1855 -1.7080
  345MOL0     H45481   5.593   9.509   6.248  2.6913  0.8883 -1.6046
  345MOL0     H45482   5.567   9.378   6.127 -0.2602  0.5996  0.2685
  345MOL0     H45483   5.335   9.456   6.095 -1.0836  0.6100  0.7589
  345MOL0     H45484   5.370   9.417   6.261  0.5293  1.5011  1.3427
  345MOL0     H45485   5.337   9.696   6.144 -3.2879 -1.6131 -1.3263
  345MOL0     H45486   5.410   9.667   6.304 -1.4657  1.1854  1.2256
  345MOL0     H45487   5.179   9.729   6.316  2.4173  0.6808 -1.4384
  345MOL0     H45488   5.212   9.571   6.392  2.5598 -3.2011 -1.5314
  345MOL0     H45489   5.087   9.630   6.114 -1.1366  3.1311  1.7973
  345MOL0     H45490   5.112   9.465   6.197  0.4043  0.0364  2.1486
  345MOL0     H45491   4.910   9.672   6.274 -4.1273 -1.6958 -1.5606
  345MOL0     H45492   4.952   9.528   6.372 -0.1586  0.2969  1.1278
  345MOL0     H45493   4.875   9.301   6.274 -1.8550 -1.0614 -0.3552
  345MOL0     H45494   4.755   9.131   6.111  1.1269  1.9921  0.2033
  345MOL0     H45495   4.694   9.198   5.952 -2.1139  0.4144 -0.5501
  345MOL0     H45496   4.508   9.305   6.105  0.7788  0.2514 -1.8410
  345MOL0     H45497   4.567   9.199   6.234  1.4974 -0.5635 -0.4870
  345MOL0     H45498   4.453   9.113   5.964 -0.8948 -1.0671  0.7671
  345MOL0     H45499   4.525   9.006   6.081 -0.0868 -0.7130  2.7994
  345MOL0     H45500   4.351   9.113   6.246 -0.9708 -3.1857 -0.4543
  345MOL0     H45501   4.311   8.987   6.124  1.5267 -1.3217  0.4655
  345MOL0     H45502   4.069   9.126   5.912 -0.2801 -0.2493 -0.0564
  345MOL0     H45503   3.825   9.073   5.959 -0.0676 -0.8720 -0.2934
  345MOL0     H45504   3.626   8.695   6.092 -0.6605 -1.6540  0.6239
  345MOL0     H45505   3.430   8.562   6.039  0.8932 -0.2863 -0.3007
  345MOL0     H45506   3.040   8.781   5.982  1.5394 -0.5449 -1.7450
  345MOL0     H45507   3.047   8.670   6.120 -0.4835  0.4969  0.0358
  345MOL0     H45508   2.972   8.486   5.993  2.2692  0.6100  0.4049
  345MOL0     H45509   2.974   8.570   5.838 -0.5780 -2.3514  0.1370
  345MOL0     H45510   2.811   8.746   5.973 -0.0293 -0.2228  2.3902
  345MOL0     H45511   2.772   8.599   6.062 -1.2466  2.9336  1.9367
  345MOL0     H45512   2.782   8.652   5.751  1.7079 -2.1967  0.1249
  345MOL0     H45513   2.762   8.498   5.812  2.7276  1.1047  1.1152
  345MOL0     H45514   2.579   8.725   5.877  3.4516  0.3971  2.1471
  345MOL0     H45515   2.565   8.561   5.943  0.3050 -1.1436 -1.4474
  345MOL0     H45516   2.577   8.475   5.707  0.0610 -0.1055  1.4740
  345MOL0     H45517   2.540   8.640   5.655  3.4676  2.0979  2.2202
  345MOL0     H45518   2.371   8.465   5.854  1.5982  1.1943  2.0036
  345MOL0     H45519   2.326   8.628   5.796  1.6565  1.2111 -0.9444
  345MOL0     H45520   2.333   8.382   5.620 -0.8333  0.1878 -3.6808
  345MOL0     H45521   2.334   8.553   5.554  0.9943 -2.3774 -0.8387
  345MOL0     H45522   3.207   8.905   5.949  1.3250  2.5488 -2.3947
  345MOL0     H45523   3.389   9.045   5.978 -1.8342 -0.6732  1.2086
  345MOL0     H45524   3.937   8.978   6.361 -0.3205 -2.6992 -1.6718
  345MOL0     H45525   4.150   9.089   6.338 -1.2197  0.1817  0.7167
  345MOL0     H45526   5.993   9.615   6.099  0.4782 -0.4055  0.0139
  345MOL0     H45527   6.218   9.712   6.061 -1.2121  0.1495  0.2287
  345MOL0     H45528   6.620   9.871   6.070  0.2557 -1.0122 -1.1327
  345MOL0     H45529   6.835   9.955   5.956 -0.5718 -1.8562 -1.8808
  345MOL0     H45530   6.792  10.317   5.771 -1.9936 -1.2140  0.0906
  345MOL0     H45531   6.798  10.249   5.611  0.5993 -0.7630 -0.3036
  345MOL0     H45532   7.008  10.382   5.705 -0.0909 -0.8477 -0.2806
  345MOL0     H45533   7.036  10.257   5.812 -1.9087 -1.6148  1.9215
  345MOL0     H45534   7.129  10.265   5.539  1.1129 -2.7806 -2.3510
  345MOL0     H45535   7.026  10.123   5.557  0.1678 -0.9960  2.2746
  345MOL0     H45536   7.145  10.059   5.765 -3.0800  1.9523  0.6813
  345MOL0     H45537   7.223  10.045   5.613  0.4545 -1.9250  2.9392
  345MOL0     H45538   7.446  10.345   5.827  1.1544 -0.6580 -2.3395
  345MOL0     H45539   6.577  10.232   5.736  0.8057 -1.6465 -2.3397
  345MOL0     H45540   6.393  10.134   5.799  1.3189  1.6596 -0.9925
  346MOL0     O45541   3.849   8.987   3.751  0.5027 -0.0878 -0.0546
  346MOL0     C45542   3.894   9.041   3.853 -1.0287  0.2338  0.0067
  346MOL0     O45543   3.825   9.090   3.965 -0.6203 -0.2012 -0.4545
  346MOL0     C45544   3.698   9.047   3.976 -0.1809 -0.7572  0.6980
  346MOL0     C45545   3.601   9.056   3.879 -0.0104  0.3346 -1.2782
  346MOL0     C45546   3.466   9.020   3.905 -0.2241  0.4807 -0.0915
  346MOL0     C45547   3.438   8.972   4.034  0.5393 -0.1384  0.0085
  346MOL0     O45548   3.314   8.934   4.067  0.7775  0.7012  0.7418
  346MOL0     C45549   3.206   8.950   3.968  0.7465 -0.6442  0.1485
  346MOL0     C45550   3.090   8.901   4.044  0.5504  0.2838  0.7658
  346MOL0     C45551   2.974   8.856   3.955  0.1522 -0.1740  0.2274
  346MOL0     C45552   3.007   8.723   3.889 -0.4593  0.1472  0.6220
  346MOL0     C45553   2.887   8.672   3.821  1.6320 -0.0856 -0.4541
  346MOL0     C45554   2.911   8.537   3.759 -0.4059 -0.0008 -1.1203
  346MOL0     C45555   2.785   8.463   3.719  0.1293  0.4006 -0.3423
  346MOL0     C45556   2.731   8.523   3.586  1.2199  0.1630  0.2651
  346MOL0     N45557   2.830   8.554   3.480 -0.3475 -0.7794  0.0082
  346MOL0     C45558   2.904   8.474   3.397 -0.7518 -0.1351 -0.5027
  346MOL0     C45559   2.984   8.553   3.322 -0.3749 -0.3922 -0.5468
  346MOL0     C45560   3.102   8.509   3.227  0.7334 -0.1173 -0.1991
  346MOL0     C45561   3.093   8.546   3.075  0.1930 -0.5757 -0.1603
  346MOL0     C45562   2.960   8.489   3.023 -1.2334 -0.0393  0.6804
  346MOL0     C45563   2.948   8.535   2.866 -0.2728 -0.5392 -0.4013
  346MOL0     O45564   3.037   8.473   2.773  0.4181 -0.1322  0.2859
  346MOL0     C45565   2.998   8.348   2.724 -0.6725  0.1524 -0.0775
  346MOL0     C45566   2.890   8.260   2.762  0.3352 -0.5778 -0.6165
  346MOL0     C45567   2.867   8.134   2.703  0.0173 -0.2777 -0.4156
  346MOL0     C45568   2.957   8.087   2.612 -0.6859  0.5979 -0.1024
  346MOL0     C45569   2.944   7.946   2.564  0.0635  0.1280  0.2686
  346MOL0     O45570   2.838   7.878   2.614 -0.1320 -0.5603  0.5093
  346MOL0     C45571   2.811   7.749   2.589 -0.6630  0.4021  0.2147
  346MOL0     C45572   2.908   7.647   2.549 -0.4532 -0.2356  0.1835
  346MOL0     C45573   2.873   7.508   2.534  0.6243 -0.6402 -0.3801
  346MOL0     C45574   2.746   7.468   2.577  0.0381 -0.6272  0.4788
  346MOL0     O45575   2.730   7.328   2.571  0.0837 -0.4615 -0.4770
  346MOL0     C45576   2.602   7.274   2.628 -0.6403  0.8036  0.4178
  346MOL0     C45577   2.587   7.130   2.578  0.3682  0.1613  0.2664
  346MOL0     C45578   2.448   7.080   2.592  0.7492  0.2930  0.1552
  346MOL0     C45579   2.371   7.126   2.470  0.0199 -0.1910  0.3321
  346MOL0     C45580   2.217   7.087   2.499 -0.4658  0.3955  0.0894
  346MOL0     C45581   2.127   7.171   2.409 -0.1894 -0.2728  0.3457
  346MOL0     C45582   2.079   7.087   2.291  0.8117  0.4285 -0.2029
  346MOL0     C45583   1.992   6.961   2.331  0.3960  0.0918  0.0267
  346MOL0    Cl45584   1.897   6.921   2.181  0.1684 -0.5081 -0.0267
  346MOL0     C45585   2.656   7.560   2.622  0.6356 -0.0867 -0.8169
  346MOL0     C45586   2.690   7.703   2.628  0.2203 -0.2338  0.1002
  346MOL0     O45587   3.018   7.917   2.469  0.1783 -0.2062  0.1877
  346MOL0     C45588   3.059   8.175   2.568  0.6085 -0.2221  0.8995
  346MOL0     C45589   3.078   8.302   2.622  0.1433  0.0250 -0.5450
  346MOL0     N45590   2.971   8.679   3.377  0.3090 -0.5313  0.0956
  346MOL0     N45591   2.874   8.681   3.460 -0.1593 -0.8787 -0.2244
  346MOL0     C45592   3.535   8.977   4.133  0.3890  0.6017  0.4832
  346MOL0     C45593   3.664   9.012   4.108 -0.1022  0.4776  0.2093
  346MOL0     C45594   4.043   9.087   3.848  0.3679  0.1245  0.3970
  346MOL0     C45595   4.127   9.069   3.736  0.2423  0.0116 -0.1322
  346MOL0     C45596   4.255   9.115   3.743 -0.5243 -0.0241 -0.1352
  346MOL0     C45597   4.306   9.187   3.855  0.4827  1.2074 -0.1087
  346MOL0     O45598   4.438   9.232   3.855 -0.7323 -0.3474 -0.2934
  346MOL0     C45599   4.520   9.165   3.956 -0.8999  1.3187  0.4930
  346MOL0     C45600   4.609   9.264   4.021  0.3484 -0.1330  0.5951
  346MOL0     C45601   4.729   9.201   4.085 -0.1717  0.2281 -0.6226
  346MOL0     C45602   4.824   9.308   4.131  0.2978 -0.0758  1.0520
  346MOL0     C45603   4.933   9.252   4.208  0.1784 -0.0344  0.7601
  346MOL0     C45604   5.019   9.208   4.286  0.1198  0.0905 -0.1614
  346MOL0     C45605   4.224   9.218   3.956 -0.7434  0.0603  0.1471
  346MOL0     C45606   4.094   9.165   3.954 -0.5603 -0.1223 -0.1472
  346MOL0     H45607   3.627   9.089   3.779  0.8298 -1.1802 -1.5952
  346MOL0     H45608   3.390   9.024   3.827 -1.7042 -1.2582  1.1943
  346MOL0     H45609   3.222   8.883   3.882 -2.6438 -0.9325 -0.3765
  346MOL0     H45610   3.184   9.050   3.931  0.8934 -0.5290  0.3714
  346MOL0     H45611   3.062   8.983   4.111  0.4575  0.3592  0.6363
  346MOL0     H45612   3.117   8.825   4.119  0.4771 -0.7433 -0.2173
  346MOL0     H45613   2.957   8.937   3.883  2.1959 -1.5394 -1.9396
  346MOL0     H45614   2.883   8.850   4.016 -1.3602  1.1932 -1.7285
  346MOL0     H45615   3.094   8.727   3.823 -0.8226 -1.6397 -0.0125
  346MOL0     H45616   3.033   8.656   3.971  1.9010  1.2598  0.8836
  346MOL0     H45617   2.846   8.747   3.752  0.1330  1.9666  2.4485
  346MOL0     H45618   2.815   8.666   3.902  1.7632  3.3406  0.0898
  346MOL0     H45619   2.964   8.471   3.829  0.6241  0.9499 -0.9731
  346MOL0     H45620   2.981   8.550   3.676 -0.7638  2.2990 -1.1056
  346MOL0     H45621   2.789   8.356   3.700 -0.3575  0.0930  1.1455
  346MOL0     H45622   2.707   8.462   3.797  1.0400  0.2852  0.5848
  346MOL0     H45623   2.677   8.616   3.605  0.9314  0.2599 -0.9817
  346MOL0     H45624   2.651   8.459   3.547 -0.2381  2.1055 -0.0935
  346MOL0     H45625   2.886   8.367   3.391 -0.9559 -0.1725  0.5923
  346MOL0     H45626   3.117   8.401   3.236  1.3418 -0.1069 -0.9995
  346MOL0     H45627   3.194   8.556   3.261 -0.7886  1.5976  1.8216
  346MOL0     H45628   3.172   8.492   3.021 -1.7562 -0.8410 -2.9643
  346MOL0     H45629   3.104   8.654   3.062  0.2650 -0.7008 -1.2606
  346MOL0     H45630   2.954   8.380   3.033  0.8855 -0.2107  0.4869
  346MOL0     H45631   2.876   8.531   3.079 -1.7102 -0.5513  0.3588
  346MOL0     H45632   2.966   8.642   2.851  3.2042 -0.7276  1.2648
  346MOL0     H45633   2.848   8.505   2.837 -0.9242  0.0189  1.1418
  346MOL0     H45634   2.831   8.298   2.845  2.5050 -1.7934  1.5839
  346MOL0     H45635   2.791   8.070   2.747  0.5795  0.2117  1.3832
  346MOL0     H45636   3.009   7.679   2.527 -0.6882  0.2804 -0.1577
  346MOL0     H45637   2.952   7.444   2.495 -0.1611 -0.4380 -2.4345
  346MOL0     H45638   2.526   7.333   2.576 -1.9272 -1.6323 -0.6218
  346MOL0     H45639   2.591   7.280   2.737  1.9636  1.3451  0.7246
  346MOL0     H45640   2.648   7.062   2.639 -0.7368  2.3199  4.1083
  346MOL0     H45641   2.619   7.121   2.474 -0.3720  3.2427 -0.3291
  346MOL0     H45642   2.395   7.120   2.679 -1.7343  0.8239 -1.5207
  346MOL0     H45643   2.449   6.971   2.591  1.4728  0.2955 -0.4529
  346MOL0     H45644   2.383   7.233   2.452  3.1221 -0.4141  0.4918
  346MOL0     H45645   2.398   7.066   2.382 -0.7798  0.1038 -0.1237
  346MOL0     H45646   2.187   7.109   2.601  0.2393  0.7659  0.2208
  346MOL0     H45647   2.206   6.978   2.490  0.8828  0.1923  0.7283
  346MOL0     H45648   2.178   7.261   2.375  2.1393 -0.8286  2.1403
  346MOL0     H45649   2.039   7.204   2.465  0.7465  0.8201  1.1858
  346MOL0     H45650   2.016   7.147   2.225 -1.9285  0.1360  1.9554
  346MOL0     H45651   2.166   7.053   2.235 -1.0890 -1.5993 -2.1558
  346MOL0     H45652   1.914   6.995   2.399  1.2977  2.4861 -0.0390
  346MOL0     H45653   2.057   6.878   2.361  0.5469 -0.8409 -2.5764
  346MOL0     H45654   2.554   7.545   2.657  1.4562  0.7459  2.2333
  346MOL0     H45655   2.632   7.782   2.672  2.5897  2.2815 -0.9695
  346MOL0     H45656   3.123   8.151   2.483 -0.4353 -1.9815  0.5648
  346MOL0     H45657   3.153   8.376   2.596  0.2867  0.8883  2.0735
  346MOL0     H45658   3.493   8.952   4.230 -0.9930 -1.4184 -0.5716
  346MOL0     H45659   3.737   9.033   4.186  2.3306 -0.8855 -1.5572
  346MOL0     H45660   4.084   9.009   3.657 -0.2570 -1.0106  0.8731
  346MOL0     H45661   4.326   9.100   3.663  1.5671  0.1812  1.5941
  346MOL0     H45662   4.581   9.095   3.899  0.7659  1.3288  2.1721
  346MOL0     H45663   4.460   9.121   4.036 -0.9587  0.4782 -0.0014
  346MOL0     H45664   4.643   9.331   3.941 -0.6807  0.4421  0.6204
  346MOL0     H45665   4.560   9.328   4.095 -1.1783  0.6649 -1.0231
  346MOL0     H45666   4.777   9.136   4.011  0.6764 -0.9740  0.9226
  346MOL0     H45667   4.706   9.138   4.171  2.3287  1.8356  1.3436
  346MOL0     H45668   4.854   9.357   4.038 -0.4388  0.4423  1.0761
  346MOL0     H45669   4.754   9.371   4.186  0.2076 -1.4352  2.5345
  346MOL0     H45670   5.089   9.182   4.362 -0.3289  0.7651  0.4942
  346MOL0     H45671   4.254   9.286   4.035  0.7005  1.3347 -1.4129
  346MOL0     H45672   4.030   9.179   4.041 -1.0694 -0.2912 -0.4861
  347MOL0     O45673   3.864   9.348  10.212 -0.1363 -0.6872  1.0444
  347MOL0     C45674   3.846   9.427  10.306 -0.8092  0.5537 -0.9956
  347MOL0     O45675   3.726   9.464  10.362  0.0014  0.3108  1.2016
  347MOL0     C45676   3.614   9.386  10.334  0.4758 -0.5741 -0.5077
  347MOL0     C45677   3.494   9.452  10.303  0.1169  0.0304 -0.1484
  347MOL0     C45678   3.387   9.375  10.288 -0.0120 -0.1473 -0.2619
  347MOL0     C45679   3.385   9.236  10.297 -0.3233 -0.9176  0.0464
  347MOL0     O45680   3.260   9.173  10.289 -0.0353 -0.5400  0.9191
  347MOL0     C45681   3.242   9.032  10.275  0.0755  0.6042  0.3332
  347MOL0     C45682   3.109   9.019  10.199  0.5605 -0.3639  0.4129
  347MOL0     C45683   3.102   8.879  10.134  0.8066  0.1131 -0.4742
  347MOL0     C45684   3.043   8.788  10.243  0.1517  0.5328  0.5667
  347MOL0     C45685   3.146   8.684  10.283 -0.2976 -0.1437  0.2422
  347MOL0     C45686   3.110   8.602  10.406  0.0411 -0.4931 -0.0864
  347MOL0     C45687   3.214   8.494  10.448  0.5566 -0.7520 -1.1026
  347MOL0     C45688   3.351   8.562  10.481  0.1439 -0.2183 -0.7822
  347MOL0     N45689   3.344   8.679  10.561  0.2470 -0.5031 -0.8033
  347MOL0     C45690   3.300   8.682  10.700  0.5504 -0.1988  0.1776
  347MOL0     C45691   3.332   8.810  10.740  0.1295  0.1397  0.8929
  347MOL0     C45692   3.301   8.878  10.870  0.3813  0.1965  1.1841
  347MOL0     C45693   3.292   8.779  10.990 -0.4526 -0.9443 -0.3535
  347MOL0     C45694   3.422   8.700  11.017 -0.6592 -0.2661 -0.8091
  347MOL0     C45695   3.547   8.791  11.038 -0.1582 -0.3445  0.5870
  347MOL0     O45696   3.530   8.850  11.173  0.3945  0.5765  0.3071
  347MOL0     C45697   3.607   8.960  11.187  0.0478 -1.1876 -0.1108
  347MOL0     C45698   3.542   9.079  11.208  0.6236  0.5821 -0.7081
  347MOL0     C45699   3.614   9.202  11.216 -0.2307  0.5930  0.9591
  347MOL0     C45700   3.749   9.202  11.224  0.9111  0.3755  0.1219
  347MOL0     C45701   3.825   9.331  11.250  0.0884 -0.1371 -0.9672
  347MOL0     O45702   3.954   9.318  11.299  0.2046 -0.1473 -0.7658
  347MOL0     C45703   4.024   9.436  11.331 -0.0798 -0.4482  0.0690
  347MOL0     C45704   4.057   9.522  11.223 -1.1305  0.8141 -0.3701
  347MOL0     C45705   4.125   9.643  11.244  0.8931  0.1441 -0.5828
  347MOL0     C45706   4.153   9.683  11.377  0.7759  0.3283 -0.6628
  347MOL0     O45707   4.223   9.797  11.412  0.7549  0.6388  0.0849
  347MOL0     C45708   4.298   9.878  11.322 -0.7982  0.1820 -0.4479
  347MOL0     C45709   4.416   9.932  11.397  0.5158  0.0432  0.3011
  347MOL0     C45710   4.381  10.034  11.510  0.5186 -0.5717  0.6618
  347MOL0     C45711   4.508  10.087  11.595  0.9264  0.2585  0.4484
  347MOL0     C45712   4.459  10.148  11.727  0.1447  0.8894  0.2966
  347MOL0     C45713   4.571  10.170  11.824 -0.1061  0.4683  0.4276
  347MOL0     C45714   4.513  10.200  11.964  0.4015  0.0506  1.1330
  347MOL0     C45715   4.626  10.260  12.055  0.5173  0.7595 -0.9322
  347MOL0    Cl45716   4.546  10.307  12.207  0.2178  0.0227  0.3769
  347MOL0     C45717   4.124   9.592  11.485  0.1771  0.4873  0.1571
  347MOL0     C45718   4.057   9.478  11.462 -0.4841  0.4578  0.0028
  347MOL0     O45719   3.764   9.440  11.239  0.6250 -0.0634  0.1177
  347MOL0     C45720   3.817   9.077  11.206 -0.6247 -0.5145 -0.9617
  347MOL0     C45721   3.750   8.958  11.198  0.0099  0.1677  0.2034
  347MOL0     N45722   3.376   8.876  10.625  0.1753 -0.5359  0.5475
  347MOL0     N45723   3.387   8.804  10.517  0.4301 -0.5110 -0.8206
  347MOL0     C45724   3.509   9.167  10.311  0.0236 -0.4056 -0.4965
  347MOL0     C45725   3.623   9.247  10.338  0.3812  0.0389 -0.4265
  347MOL0     C45726   3.965   9.510  10.344  0.0482 -0.2479 -1.3192
  347MOL0     C45727   4.051   9.562  10.244  0.1233  0.2714 -0.0929
  347MOL0     C45728   4.165   9.647  10.277  0.1738  0.6120  1.0075
  347MOL0     C45729   4.196   9.663  10.410 -0.3043 -0.0195  0.2439
  347MOL0     O45730   4.318   9.723  10.430  0.1516 -0.2142 -0.0704
  347MOL0     C45731   4.355   9.765  10.559  0.5685 -0.4148 -0.5558
  347MOL0     C45732   4.424   9.656  10.627  0.4743  0.3222 -0.4295
  347MOL0     C45733   4.556   9.623  10.561 -0.8280 -1.2493  0.0430
  347MOL0     C45734   4.653   9.544  10.648  0.4496 -0.3816 -0.1327
  347MOL0     C45735   4.717   9.622  10.760 -0.5693 -0.3166 -0.6345
  347MOL0     C45736   4.775   9.682  10.849  0.8662  0.0125 -0.9328
  347MOL0     C45737   4.112   9.611  10.507  0.0503  0.4213  0.0219
  347MOL0     C45738   3.991   9.542  10.478 -0.4941 -0.0774 -0.1643
  347MOL0     H45739   3.502   9.560  10.312  1.5339  0.1380 -1.9929
  347MOL0     H45740   3.292   9.424  10.273 -0.8050 -1.5971 -0.0955
  347MOL0     H45741   3.240   8.978  10.370 -1.0288  3.2574  1.9263
  347MOL0     H45742   3.321   8.995  10.208 -2.1485 -0.4228 -1.8623
  347MOL0     H45743   3.108   9.092  10.118 -0.8576 -0.3266  0.4342
  347MOL0     H45744   3.026   9.051  10.262  2.4737 -0.0938  2.9702
  347MOL0     H45745   3.190   8.851  10.076  1.0058 -1.7710  0.6445
  347MOL0     H45746   3.022   8.881  10.060 -0.2429  1.6538  0.6373
  347MOL0     H45747   3.004   8.849  10.325 -2.0142  2.3966 -1.6691
  347MOL0     H45748   2.950   8.742  10.206  1.8929 -0.7814 -2.5723
  347MOL0     H45749   3.235   8.737  10.319  0.5269 -0.6032 -1.0303
  347MOL0     H45750   3.182   8.629  10.195  1.9515  1.4663  0.0726
  347MOL0     H45751   3.014   8.551  10.398 -0.4448  0.6985 -3.0608
  347MOL0     H45752   3.096   8.673  10.489 -0.4070  1.8119 -2.0386
  347MOL0     H45753   3.173   8.449  10.539 -0.8700  3.0379  0.3366
  347MOL0     H45754   3.229   8.414  10.374 -1.4840 -2.0418 -0.2352
  347MOL0     H45755   3.401   8.575  10.385 -2.2736  1.0439 -1.9659
  347MOL0     H45756   3.409   8.496  10.546  0.7488 -2.2968 -3.2724
  347MOL0     H45757   3.241   8.616  10.763  1.2452  0.9133  2.0947
  347MOL0     H45758   3.202   8.923  10.855 -1.5841 -2.5580  4.4353
  347MOL0     H45759   3.364   8.966  10.888  2.6965 -1.2241  0.2951
  347MOL0     H45760   3.208   8.709  10.982  0.3322 -1.9730  0.0387
  347MOL0     H45761   3.274   8.839  11.080 -0.7413 -0.4535 -0.7388
  347MOL0     H45762   3.404   8.632  11.101 -1.1613 -0.9574 -1.4560
  347MOL0     H45763   3.447   8.635  10.932 -0.2974  1.3749 -2.0185
  347MOL0     H45764   3.551   8.866  10.959  2.6344  1.3766  2.1955
  347MOL0     H45765   3.635   8.726  11.033  1.7355  1.9592  1.7189
  347MOL0     H45766   3.434   9.093  11.213  0.7667  2.6167 -2.2614
  347MOL0     H45767   3.544   9.285  11.220  1.3188  2.3617 -3.0406
  347MOL0     H45768   4.031   9.497  11.121 -0.8231  0.9142 -0.4748
  347MOL0     H45769   4.143   9.696  11.151  1.0385  0.0147 -0.6282
  347MOL0     H45770   4.227   9.956  11.295 -1.7368  0.3546  2.2593
  347MOL0     H45771   4.341   9.821  11.239 -1.4097 -1.3963  0.2854
  347MOL0     H45772   4.481   9.988  11.329  1.5245  1.3977  2.3071
  347MOL0     H45773   4.474   9.857  11.451 -0.1680  1.3364  2.9738
  347MOL0     H45774   4.307   9.987  11.575 -0.2480  0.1815  0.3620
  347MOL0     H45775   4.334  10.126  11.473 -0.0114 -1.1728 -0.2098
  347MOL0     H45776   4.577  10.005  11.616  0.2509 -1.2784 -2.6822
  347MOL0     H45777   4.556  10.170  11.542 -0.3922  3.1598  3.4269
  347MOL0     H45778   4.392  10.075  11.774  0.4677  1.6901  2.1175
  347MOL0     H45779   4.406  10.242  11.711 -1.9963  0.0124  1.7234
  347MOL0     H45780   4.621  10.262  11.793  0.2708  0.1042 -0.0604
  347MOL0     H45781   4.637  10.082  11.821 -1.8298 -0.8436 -0.3446
  347MOL0     H45782   4.434  10.274  11.947  1.6595  1.2339  0.1774
  347MOL0     H45783   4.471  10.112  12.014  1.8126 -1.2287  0.1208
  347MOL0     H45784   4.708  10.323  12.018  3.3113 -2.4418 -0.6734
  347MOL0     H45785   4.678  10.169  12.084 -0.2779  0.8495  0.8931
  347MOL0     H45786   4.155   9.622  11.585  1.6282  0.5870 -0.3078
  347MOL0     H45787   4.041   9.423  11.553  3.5419  2.1933  2.0176
  347MOL0     H45788   3.925   9.073  11.213 -0.4992 -0.6273 -2.5533
  347MOL0     H45789   3.798   8.862  11.181 -1.1577 -0.9922  2.9535
  347MOL0     H45790   3.515   9.059  10.310  1.2470 -0.3662  0.5767
  347MOL0     H45791   3.715   9.212  10.383  0.8150  4.2600  2.5229
  347MOL0     H45792   4.010   9.545  10.145 -3.1296 -3.6730  1.6372
  347MOL0     H45793   4.221   9.682  10.191 -0.7387  0.4089  0.3136
  347MOL0     H45794   4.265   9.789  10.617  0.2840 -0.0424 -1.1366
  347MOL0     H45795   4.415   9.857  10.556 -1.1831  0.7965 -0.2584
  347MOL0     H45796   4.442   9.684  10.731  1.2372  1.2675 -0.8090
  347MOL0     H45797   4.356   9.570  10.616  0.2911  0.3674  0.3447
  347MOL0     H45798   4.598   9.722  10.538  2.7077 -3.0726 -2.3377
  347MOL0     H45799   4.553   9.569  10.466  1.9501  1.2078 -1.6177
  347MOL0     H45800   4.601   9.458  10.691 -4.0634  2.0590 -0.1015
  347MOL0     H45801   4.736   9.515  10.584  1.2677 -1.1390  1.2310
  347MOL0     H45802   4.818   9.746  10.924 -2.0824  0.7585  0.2879
  347MOL0     H45803   4.138   9.629  10.611 -0.1669 -0.7454  0.2982
  347MOL0     H45804   3.928   9.512  10.560 -0.2332 -3.3991 -1.0458
  348MOL0     O45805   7.151   7.258   2.181  0.0892  0.1473  0.2218
  348MOL0     C45806   7.161   7.364   2.114  0.6690 -0.5756  0.1091
  348MOL0     O45807   7.253   7.389   2.016  0.1863  0.4757  0.0063
  348MOL0     C45808   7.371   7.319   2.018  0.4079 -0.0609 -0.0535
  348MOL0     C45809   7.490   7.388   2.021 -0.2455  0.4184 -1.2987
  348MOL0     C45810   7.619   7.323   2.026  0.5361  0.2471  0.1635
  348MOL0     C45811   7.613   7.183   2.014 -0.2693  0.1267  0.6147
  348MOL0     O45812   7.728   7.105   1.993 -0.2938  0.1367  0.5429
  348MOL0     C45813   7.866   7.152   2.025  0.3377  0.6116  0.3556
  348MOL0     C45814   7.927   7.214   1.901 -0.3335  0.7118 -0.3929
  348MOL0     C45815   8.050   7.137   1.847 -0.4795  0.0532 -0.3500
  348MOL0     C45816   8.029   6.989   1.842  0.6114  0.0838 -0.4757
  348MOL0     C45817   8.095   6.919   1.724  0.5754 -0.3936  0.2272
  348MOL0     C45818   8.030   6.788   1.691  0.0793 -0.2213 -0.0010
  348MOL0     C45819   8.104   6.707   1.584 -0.2814 -0.7935  0.1102
  348MOL0     C45820   8.017   6.587   1.546  0.2668 -0.1483  0.0625
  348MOL0     N45821   7.889   6.608   1.489  0.2761 -0.8668 -0.2566
  348MOL0     C45822   7.791   6.514   1.490 -0.9760  0.1701 -0.3919
  348MOL0     C45823   7.680   6.564   1.428 -0.0476  0.1773  0.9134
  348MOL0     C45824   7.551   6.489   1.406 -0.8011  0.1092  0.7634
  348MOL0     C45825   7.516   6.460   1.254 -0.4621 -0.9981  0.4316
  348MOL0     C45826   7.485   6.588   1.174 -0.5230  0.8594 -0.5599
  348MOL0     C45827   7.339   6.629   1.184 -0.3400 -0.1145 -0.2697
  348MOL0     O45828   7.239   6.529   1.166 -0.1464  0.1779  0.2288
  348MOL0     C45829   7.112   6.567   1.164  0.0767  0.2645  0.1855
  348MOL0     C45830   7.063   6.696   1.147  0.4264 -0.3672  0.0264
  348MOL0     C45831   6.923   6.727   1.151  0.2340 -0.3351 -1.4002
  348MOL0     C45832   6.827   6.625   1.156  0.2638  0.3991  0.7420
  348MOL0     C45833   6.680   6.643   1.161  0.1794 -0.3687 -0.1606
  348MOL0     O45834   6.640   6.771   1.165 -0.1096 -0.1855  0.1853
  348MOL0     C45835   6.506   6.799   1.178  0.2686  0.2977 -0.0633
  348MOL0     C45836   6.441   6.872   1.078 -0.3618  0.7598  0.4283
  348MOL0     C45837   6.301   6.906   1.086 -0.8443 -0.1571 -0.6589
  348MOL0     C45838   6.225   6.869   1.200 -0.7130 -0.2417  0.3660
  348MOL0     O45839   6.097   6.902   1.221  0.0096 -0.2256 -0.3957
  348MOL0     C45840   6.033   7.010   1.155  0.3260  0.1563  0.4423
  348MOL0     C45841   6.070   7.152   1.188  0.3541 -0.5812 -0.3759
  348MOL0     C45842   6.101   7.189   1.335  0.3907  0.2591  1.1027
  348MOL0     C45843   5.974   7.153   1.422  0.2395 -0.6200 -0.1986
  348MOL0     C45844   5.984   7.199   1.568  0.5360 -0.5062  0.0932
  348MOL0     C45845   5.977   7.352   1.573  0.5123 -0.4319 -0.2304
  348MOL0     C45846   5.906   7.375   1.714 -0.6996  0.0715 -0.6322
  348MOL0     C45847   5.919   7.524   1.750  0.0092 -0.1434 -0.3067
  348MOL0    Cl45848   5.862   7.562   1.921 -0.3652 -0.0600  0.0308
  348MOL0     C45849   6.290   6.796   1.295  0.5471 -0.7438 -0.2147
  348MOL0     C45850   6.429   6.772   1.295  0.6134 -0.2096 -0.2530
  348MOL0     O45851   6.605   6.544   1.175  0.1761 -0.2456 -0.5680
  348MOL0     C45852   6.881   6.498   1.157  0.9412  0.2669  1.0083
  348MOL0     C45853   7.020   6.466   1.158  0.1949  0.1084  1.1642
  348MOL0     N45854   7.718   6.690   1.396 -0.9975  0.3648 -0.7231
  348MOL0     N45855   7.839   6.719   1.437 -0.0212  0.0594 -0.2579
  348MOL0     C45856   7.490   7.107   2.002  0.5387  0.4772 -0.9814
  348MOL0     C45857   7.372   7.182   2.005  0.5569  0.9517  0.9224
  348MOL0     C45858   7.060   7.464   2.143 -0.1369 -0.2618  0.0044
  348MOL0     C45859   7.080   7.599   2.101 -0.1407  0.4028  1.1550
  348MOL0     C45860   6.984   7.701   2.105 -0.2138 -1.1105 -0.7341
  348MOL0     C45861   6.859   7.668   2.162 -0.8558  0.1860 -0.6909
  348MOL0     O45862   6.758   7.762   2.183 -0.1110 -0.0706  0.1549
  348MOL0     C45863   6.771   7.897   2.123  1.0719  1.0628 -0.6668
  348MOL0     C45864   6.648   7.984   2.156 -0.0764  0.5131  0.5949
  348MOL0     C45865   6.669   8.126   2.116  0.8957 -0.4645 -0.5769
  348MOL0     C45866   6.577   8.218   2.209  0.1607  0.4282 -0.0666
  348MOL0     C45867   6.640   8.238   2.343 -0.2000 -0.0190  0.0634
  348MOL0     C45868   6.679   8.276   2.450 -0.3194  0.5561 -0.2157
  348MOL0     C45869   6.843   7.544   2.220 -0.0169 -0.2735  0.4471
  348MOL0     C45870   6.939   7.444   2.208 -0.0878  0.2955 -0.1098
  348MOL0     H45871   7.497   7.496   2.020 -2.9574  0.6659 -0.6943
  348MOL0     H45872   7.711   7.380   2.022  0.5831  0.1375 -0.3612
  348MOL0     H45873   7.930   7.074   2.069 -1.4945 -0.9435  0.3643
  348MOL0     H45874   7.844   7.213   2.113  0.4194 -0.7462  1.3549
  348MOL0     H45875   7.949   7.319   1.923 -0.1797  0.5509  0.2466
  348MOL0     H45876   7.849   7.212   1.824 -2.9345 -2.0877  2.0679
  348MOL0     H45877   8.144   7.156   1.898  0.3790  0.7505 -2.1223
  348MOL0     H45878   8.063   7.179   1.747  4.3464  0.1835  0.1050
  348MOL0     H45879   8.060   6.939   1.934 -1.5343 -1.8125 -0.6981
  348MOL0     H45880   7.921   6.978   1.829  0.3600 -1.7894  2.3643
  348MOL0     H45881   8.196   6.897   1.760  1.0012  2.0512  0.7571
  348MOL0     H45882   8.097   6.989   1.640 -1.4597  2.0486  2.0350
  348MOL0     H45883   7.925   6.794   1.661 -0.2061  1.2758  1.1788
  348MOL0     H45884   8.038   6.729   1.783  1.2152  0.5371  0.3993
  348MOL0     H45885   8.121   6.772   1.497 -0.1431  0.1821  0.8536
  348MOL0     H45886   8.198   6.668   1.624 -0.1731  2.5253  3.6493
  348MOL0     H45887   8.019   6.527   1.637  5.4342 -1.5275 -0.6789
  348MOL0     H45888   8.066   6.519   1.476  0.2588 -2.4733  2.2186
  348MOL0     H45889   7.799   6.416   1.534  2.0793  0.7083  0.4538
  348MOL0     H45890   7.464   6.530   1.459 -1.1077  0.8577 -0.2981
  348MOL0     H45891   7.567   6.392   1.455 -0.3922  0.3463  1.1091
  348MOL0     H45892   7.428   6.396   1.253 -1.1568 -0.0623 -0.1268
  348MOL0     H45893   7.610   6.417   1.218  0.1034  0.7905 -0.3806
  348MOL0     H45894   7.557   6.665   1.203 -0.7475  0.7172  0.4378
  348MOL0     H45895   7.504   6.557   1.071  0.4924  1.3502 -0.5336
  348MOL0     H45896   7.327   6.700   1.102 -1.2237 -0.6287 -0.5992
  348MOL0     H45897   7.317   6.678   1.279 -1.6507 -3.1911  1.1846
  348MOL0     H45898   7.134   6.779   1.145 -0.2279  0.3010  2.1510
  348MOL0     H45899   6.897   6.832   1.148 -0.8716 -0.5930 -1.2891
  348MOL0     H45900   6.501   6.898   0.991 -1.6697 -2.5397 -1.6364
  348MOL0     H45901   6.257   6.959   1.001  0.0913 -0.9797 -1.6941
  348MOL0     H45902   5.932   7.005   1.198  1.5655 -1.9022  3.4628
  348MOL0     H45903   6.003   6.989   1.052 -1.6665  3.3491  0.2332
  348MOL0     H45904   5.985   7.214   1.157 -0.8699 -2.8606 -1.8422
  348MOL0     H45905   6.159   7.182   1.131 -0.3274  2.3073 -0.0733
  348MOL0     H45906   6.110   7.298   1.346 -3.3175  0.8106 -0.0895
  348MOL0     H45907   6.189   7.141   1.380 -0.4002 -0.9261  1.4115
  348MOL0     H45908   5.886   7.189   1.369  0.6198 -3.3309 -2.8715
  348MOL0     H45909   5.965   7.045   1.411 -0.1929 -0.6065  0.0208
  348MOL0     H45910   6.070   7.150   1.614  1.4592 -1.7803 -2.8104
  348MOL0     H45911   5.892   7.161   1.612 -0.4316 -1.1650 -2.3664
  348MOL0     H45912   5.917   7.399   1.495 -0.3393 -0.0777  0.6290
  348MOL0     H45913   6.080   7.390   1.562  1.1878 -2.6978 -3.0457
  348MOL0     H45914   5.807   7.329   1.708 -1.3315  1.4626 -1.3080
  348MOL0     H45915   5.965   7.317   1.787  1.3550 -2.5779 -4.0680
  348MOL0     H45916   5.880   7.581   1.665  1.9496 -1.7556 -2.4141
  348MOL0     H45917   6.026   7.548   1.757  0.3916 -1.9732  0.8127
  348MOL0     H45918   6.236   6.770   1.385  1.0546  1.8696  0.9471
  348MOL0     H45919   6.467   6.740   1.392 -0.7551  0.8748  0.6941
  348MOL0     H45920   6.811   6.415   1.169 -0.1603  1.1214  0.6718
  348MOL0     H45921   7.044   6.360   1.156 -0.0265  0.0655  0.5481
  348MOL0     H45922   7.480   6.999   2.002 -2.1167  0.5725  2.1559
  348MOL0     H45923   7.276   7.135   1.986 -0.1013  2.9303 -1.1958
  348MOL0     H45924   7.171   7.623   2.048 -1.1168 -1.0784 -1.3610
  348MOL0     H45925   7.011   7.792   2.051  0.0163 -1.9066 -2.0257
  348MOL0     H45926   6.787   7.898   2.015 -0.2930  2.0166 -0.8932
  348MOL0     H45927   6.854   7.948   2.173 -0.4839  0.4098  2.9118
  348MOL0     H45928   6.558   7.945   2.107  0.8806 -0.5905 -0.3352
  348MOL0     H45929   6.623   7.964   2.260 -2.4925  1.7015  0.3206
  348MOL0     H45930   6.649   8.144   2.010 -2.0995  0.4111  0.0425
  348MOL0     H45931   6.774   8.150   2.132  1.1963 -1.9916 -0.0341
  348MOL0     H45932   6.563   8.314   2.159 -3.0841  0.1616  0.0812
  348MOL0     H45933   6.480   8.168   2.218 -0.2872  1.5434  1.7051
  348MOL0     H45934   6.726   8.336   2.526  0.1771  2.4428 -1.9267
  348MOL0     H45935   6.746   7.523   2.263 -1.3883  2.3587 -1.1146
  348MOL0     H45936   6.914   7.352   2.259  1.8342 -1.1134 -1.5803
  349MOL0     O45937   6.426   7.091   5.575  0.4769  0.5079  0.0022
  349MOL0     C45938   6.439   6.967   5.590  0.1706 -0.8656 -0.1152
  349MOL0     O45939   6.360   6.871   5.535 -0.7335  0.1459 -0.3629
  349MOL0     C45940   6.234   6.888   5.491  0.8310 -0.1968  0.8354
  349MOL0     C45941   6.171   7.009   5.458  0.1307 -0.4503 -0.6460
  349MOL0     C45942   6.042   7.014   5.404  0.5384 -0.0545 -0.3567
  349MOL0     C45943   5.967   6.890   5.402  0.2108 -0.5763  0.2826
  349MOL0     O45944   5.838   6.869   5.359 -1.1982  0.1828  0.6282
  349MOL0     C45945   5.779   6.964   5.268  0.1818  0.4329  0.3518
  349MOL0     C45946   5.698   7.077   5.334 -0.4487  0.5480  0.1024
  349MOL0     C45947   5.576   7.020   5.419 -0.2475 -0.4061  0.2297
  349MOL0     C45948   5.484   6.936   5.332 -0.3782  0.3828  0.5984
  349MOL0     C45949   5.370   6.890   5.425  0.2149 -0.4582  0.7094
  349MOL0     C45950   5.239   6.877   5.353 -0.0336  0.1156  0.2007
  349MOL0     C45951   5.211   6.733   5.297 -0.3548  0.4647 -1.0879
  349MOL0     C45952   5.103   6.733   5.185 -0.4189  0.2595  0.7798
  349MOL0     N45953   4.972   6.784   5.227 -0.3023 -0.3778 -0.7293
  349MOL0     C45954   4.947   6.917   5.250 -0.3686 -0.3234  0.0484
  349MOL0     C45955   4.821   6.924   5.287 -0.0272  0.7130  0.2945
  349MOL0     C45956   4.734   7.047   5.322  0.4846 -0.8394 -0.4969
  349MOL0     C45957   4.601   7.062   5.247 -0.0806  0.4632  0.7966
  349MOL0     C45958   4.541   7.201   5.303 -0.7760  1.5807 -0.0340
  349MOL0     C45959   4.397   7.221   5.269 -0.1574 -0.0144 -0.6480
  349MOL0     O45960   4.311   7.130   5.330  0.9251 -0.2328  0.1143
  349MOL0     C45961   4.169   7.146   5.316 -1.0407 -0.2350 -0.8609
  349MOL0     C45962   4.095   7.044   5.372  0.2226  0.5010 -0.2808
  349MOL0     C45963   3.959   7.045   5.352 -0.1560  1.4052 -0.1864
  349MOL0     C45964   3.894   7.149   5.283 -0.4397 -0.1371  0.4989
  349MOL0     C45965   3.752   7.154   5.251 -0.2908 -0.5418 -0.6455
  349MOL0     O45966   3.723   7.188   5.126  0.0905  0.0870  0.2961
  349MOL0     C45967   3.593   7.184   5.085 -0.0078 -0.7522  0.3580
  349MOL0     C45968   3.546   7.083   4.995 -0.5634 -1.1530  0.0422
  349MOL0     C45969   3.413   7.080   4.944 -0.7242  0.1325 -0.2733
  349MOL0     C45970   3.327   7.184   4.996 -0.1495  0.4090  1.1475
  349MOL0     O45971   3.195   7.195   4.945 -0.1719 -0.2978 -0.1813
  349MOL0     C45972   3.115   7.076   4.917 -0.4316 -0.1214  0.2458
  349MOL0     C45973   2.971   7.122   4.918 -0.4530 -0.2295  0.4828
  349MOL0     C45974   2.878   7.006   4.908 -0.2722  0.3105 -0.2890
  349MOL0     C45975   2.743   7.023   4.984  0.0979 -0.4463 -0.3459
  349MOL0     C45976   2.632   6.926   4.959  0.0803 -0.0585  0.2748
  349MOL0     C45977   2.512   6.995   5.029  0.4449  0.6137 -0.4438
  349MOL0     C45978   2.381   6.940   4.975 -0.0163 -0.7741 -1.0371
  349MOL0     C45979   2.256   7.003   5.042 -0.8247 -0.2400  1.0327
  349MOL0    Cl45980   2.128   6.886   4.987  0.3368 -0.1571  0.0286
  349MOL0     C45981   3.377   7.277   5.084  0.2044 -0.6994 -0.4815
  349MOL0     C45982   3.500   7.269   5.139 -0.1618  0.3435  0.0438
  349MOL0     O45983   3.674   7.130   5.341 -0.7812  0.4756  0.3452
  349MOL0     C45984   3.973   7.242   5.221 -1.1315  0.5395  0.3429
  349MOL0     C45985   4.109   7.250   5.242 -0.1282  0.3294  0.5346
  349MOL0     N45986   4.765   6.797   5.286  0.3911  0.1616 -0.4875
  349MOL0     N45987   4.858   6.713   5.243 -0.3182  0.4065 -0.4237
  349MOL0     C45988   6.028   6.766   5.441 -0.3031  0.4714 -0.1115
  349MOL0     C45989   6.165   6.771   5.489  0.7666  0.6157 -0.1031
  349MOL0     C45990   6.559   6.923   5.666  0.3844 -0.0584  0.2440
  349MOL0     C45991   6.654   7.011   5.730  0.0253  0.3841  0.4213
  349MOL0     C45992   6.773   6.961   5.784 -0.6899  0.4241 -0.5330
  349MOL0     C45993   6.801   6.820   5.773  0.2745 -0.5118 -0.0459
  349MOL0     O45994   6.911   6.780   5.848  0.0343  0.2889 -0.2839
  349MOL0     C45995   6.929   6.635   5.858  0.2102 -1.3233 -0.7240
  349MOL0     C45996   7.071   6.609   5.902  0.5682  0.0358  0.0661
  349MOL0     C45997   7.073   6.467   5.970  0.5967 -0.1650 -0.0182
  349MOL0     C45998   7.189   6.462   6.056  0.1109  0.2040 -0.8452
  349MOL0     C45999   7.310   6.446   5.979 -0.7748  0.6194 -0.4568
  349MOL0     C46000   7.402   6.433   5.904 -1.2022 -0.2113 -1.2495
  349MOL0     C46001   6.712   6.733   5.707 -0.8496 -0.0202  0.7436
  349MOL0     C46002   6.588   6.787   5.663 -0.7064 -0.2190  0.4041
  349MOL0     H46003   6.228   7.102   5.452 -1.1930  0.4935  0.7669
  349MOL0     H46004   6.004   7.110   5.370  0.4624 -0.5541 -1.7035
  349MOL0     H46005   5.716   6.912   5.195  0.3953  1.4380 -0.5780
  349MOL0     H46006   5.865   7.005   5.213 -1.1334  0.5528 -1.7598
  349MOL0     H46007   5.651   7.142   5.260  0.4690  0.5296 -0.5180
  349MOL0     H46008   5.758   7.145   5.394  2.9401 -1.0423 -1.2122
  349MOL0     H46009   5.518   7.098   5.469  1.1681  0.2032  0.9869
  349MOL0     H46010   5.607   6.948   5.496  0.3856 -1.2135 -0.7526
  349MOL0     H46011   5.455   6.994   5.244  0.4878  1.9632  1.3252
  349MOL0     H46012   5.536   6.850   5.287  1.9683  3.3640 -3.0322
  349MOL0     H46013   5.342   6.966   5.499 -2.6873 -1.0282  0.3494
  349MOL0     H46014   5.404   6.802   5.480 -0.5023 -0.0416  1.8691
  349MOL0     H46015   5.226   6.946   5.270 -4.0963  0.3648  0.8376
  349MOL0     H46016   5.153   6.900   5.417  0.7482 -0.4693  1.5146
  349MOL0     H46017   5.302   6.695   5.250  1.6879  0.5806  2.4088
  349MOL0     H46018   5.180   6.659   5.372 -0.2158 -1.3120 -2.6942
  349MOL0     H46019   5.089   6.633   5.144 -0.6387  0.3818  0.5541
  349MOL0     H46020   5.143   6.793   5.103  0.7170 -1.0989  0.2973
  349MOL0     H46021   5.016   7.000   5.256 -0.5731 -0.2610  3.0227
  349MOL0     H46022   4.794   7.138   5.308 -1.6912  0.8054  0.2743
  349MOL0     H46023   4.713   7.034   5.428  0.7235 -0.0273 -0.3383
  349MOL0     H46024   4.543   6.975   5.281  2.1097 -1.1106  0.7276
  349MOL0     H46025   4.610   7.049   5.139  1.4469  0.3477  0.9102
  349MOL0     H46026   4.568   7.218   5.408 -0.5822  2.4364 -0.2056
  349MOL0     H46027   4.609   7.268   5.248 -0.0665 -1.6351 -3.4300
  349MOL0     H46028   4.382   7.204   5.162  0.4909 -0.2491 -0.7081
  349MOL0     H46029   4.367   7.324   5.287  0.4697 -0.2168  1.9923
  349MOL0     H46030   4.144   6.967   5.430  0.6151  0.6875 -0.3571
  349MOL0     H46031   3.900   6.964   5.394  0.2040 -0.1935 -2.5594
  349MOL0     H46032   3.618   7.004   4.972  1.1415  0.2771  0.2190
  349MOL0     H46033   3.375   7.004   4.876 -0.7997  0.7662 -0.9483
  349MOL0     H46034   3.134   7.003   4.996 -0.6539 -0.2229  0.2054
  349MOL0     H46035   3.142   7.030   4.822  0.6982 -0.0387  0.5160
  349MOL0     H46036   2.970   7.179   4.825  3.3880 -0.5816  0.0558
  349MOL0     H46037   2.960   7.193   5.001  1.1385  1.6449 -0.8170
  349MOL0     H46038   2.923   6.914   4.945  1.2540  0.8968 -0.6047
  349MOL0     H46039   2.852   6.982   4.804  0.8066  0.6680 -0.6562
  349MOL0     H46040   2.768   7.008   5.089 -0.8897  1.2339  0.1677
  349MOL0     H46041   2.716   7.126   4.960 -0.1304 -0.0324  1.5622
  349MOL0     H46042   2.663   6.832   5.005  3.3742  1.0074  0.4749
  349MOL0     H46043   2.615   6.911   4.852 -1.0057 -4.9149  0.9114
  349MOL0     H46044   2.507   7.104   5.043 -1.2415  0.4847  0.2761
  349MOL0     H46045   2.512   6.953   5.130 -4.2449  3.5661  1.1261
  349MOL0     H46046   2.372   6.950   4.867 -1.0423 -0.6189 -0.9506
  349MOL0     H46047   2.377   6.834   5.000 -1.0351 -0.5371 -0.0493
  349MOL0     H46048   2.228   7.102   5.006  1.4026  0.5835  1.3824
  349MOL0     H46049   2.270   6.999   5.150  1.5344  0.4229  0.8180
  349MOL0     H46050   3.325   7.369   5.110 -0.1767 -1.0346 -0.0383
  349MOL0     H46051   3.520   7.336   5.222  0.2622  1.8393 -1.2220
  349MOL0     H46052   3.925   7.319   5.161 -0.5509  0.0261 -0.8099
  349MOL0     H46053   4.166   7.330   5.196  0.6592 -0.5249 -0.0117
  349MOL0     H46054   5.981   6.669   5.440  1.0340 -0.3989 -5.4771
  349MOL0     H46055   6.214   6.679   5.518  0.4179  0.0909 -1.1239
  349MOL0     H46056   6.629   7.116   5.730 -1.4996  0.0815 -1.5650
  349MOL0     H46057   6.843   7.020   5.843 -1.1669 -1.5438  2.1910
  349MOL0     H46058   6.911   6.590   5.760 -3.0640  1.7404 -1.7202
  349MOL0     H46059   6.855   6.593   5.926  0.7460  0.1478  0.8458
  349MOL0     H46060   7.140   6.611   5.817 -0.1099  3.0880 -0.5594
  349MOL0     H46061   7.105   6.685   5.972 -0.6750  0.6821  0.0067
  349MOL0     H46062   7.088   6.390   5.894  0.2383 -0.2275 -0.0256
  349MOL0     H46063   6.977   6.452   6.020 -0.2669 -0.5633 -1.7159
  349MOL0     H46064   7.190   6.551   6.120 -2.9467  0.1280 -0.5437
  349MOL0     H46065   7.173   6.377   6.123  2.0967  1.4710  1.3988
  349MOL0     H46066   7.489   6.419   5.843  0.1934 -2.3502  1.0818
  349MOL0     H46067   6.725   6.627   5.686 -1.0652 -0.6309  3.4419
  349MOL0     H46068   6.525   6.710   5.619  1.8289 -1.4149 -1.4571
  350MOL0     O46069  10.012   4.517   1.325  0.6557 -0.0517 -0.4967
  350MOL0     C46070  10.008   4.424   1.242  0.0802 -0.0038 -1.3155
  350MOL0     O46071   9.902   4.339   1.227 -0.7406  0.6024 -0.5970
  350MOL0     C46072   9.807   4.348   1.331  0.2064  0.6378  0.6336
  350MOL0     C46073   9.705   4.442   1.307 -1.2073 -0.2019 -0.9292
  350MOL0     C46074   9.599   4.447   1.393  0.1729  0.1307  0.2160
  350MOL0     C46075   9.585   4.355   1.498  0.2276  0.5067 -0.5563
  350MOL0     O46076   9.472   4.341   1.570  0.4263  0.1702 -0.5023
  350MOL0     C46077   9.360   4.299   1.490  0.6526  0.9782  0.1255
  350MOL0     C46078   9.241   4.292   1.583 -0.2337 -0.4573 -0.1007
  350MOL0     C46079   9.107   4.257   1.515 -0.0268  0.2983 -0.0315
  350MOL0     C46080   8.989   4.276   1.609  0.4783 -0.8688 -0.3161
  350MOL0     C46081   8.861   4.242   1.534  0.4592 -1.0238 -0.9227
  350MOL0     C46082   8.751   4.281   1.629 -0.9923 -0.1604 -0.0508
  350MOL0     C46083   8.614   4.226   1.581 -0.0905  0.8575  0.5851
  350MOL0     C46084   8.502   4.266   1.668 -0.0105 -0.3022  0.7049
  350MOL0     N46085   8.377   4.198   1.629 -0.3644 -0.4419  0.2060
  350MOL0     C46086   8.257   4.222   1.694 -0.2537  0.1745 -0.9220
  350MOL0     C46087   8.166   4.141   1.627  0.6357 -0.1760  0.4675
  350MOL0     C46088   8.018   4.112   1.673 -0.0520  0.1716  0.8044
  350MOL0     C46089   7.929   4.046   1.564 -0.3792 -0.3549  0.2639
  350MOL0     C46090   7.790   4.021   1.631  0.0920  0.9284 -0.6865
  350MOL0     C46091   7.682   3.949   1.545  0.1319  0.1840  0.1918
  350MOL0     O46092   7.665   4.018   1.412 -0.3659  0.7802 -0.2181
  350MOL0     C46093   7.549   3.986   1.336 -0.4029  0.0408  0.1168
  350MOL0     C46094   7.539   4.051   1.218  0.3519 -0.0949  1.2675
  350MOL0     C46095   7.418   4.040   1.148 -0.6981 -0.5872 -0.4863
  350MOL0     C46096   7.312   3.962   1.190  0.5210 -0.4499  0.2689
  350MOL0     C46097   7.178   3.944   1.115  0.1043 -0.3421 -0.0765
  350MOL0     O46098   7.076   3.883   1.184 -0.0736  0.4212 -0.3828
  350MOL0     C46099   6.954   3.881   1.121  0.6256 -0.2112 -1.0073
  350MOL0     C46100   6.880   3.762   1.133  0.0427 -0.4553 -0.2977
  350MOL0     C46101   6.746   3.764   1.090 -0.4215 -0.4476  0.3594
  350MOL0     C46102   6.678   3.874   1.038 -0.3588 -0.1407 -0.1929
  350MOL0     O46103   6.552   3.880   0.992  0.4390 -0.0510 -0.5281
  350MOL0     C46104   6.482   3.764   0.989  0.9780 -0.5643 -0.3875
  350MOL0     C46105   6.528   3.671   0.876  0.0308  0.4259 -0.0873
  350MOL0     C46106   6.507   3.725   0.727 -0.4632  0.4973 -0.5067
  350MOL0     C46107   6.367   3.781   0.693  1.6207 -0.5256  0.2901
  350MOL0     C46108   6.359   3.802   0.541  0.0145  0.5147  0.1192
  350MOL0     C46109   6.267   3.921   0.504  0.3396 -0.4850 -0.0440
  350MOL0     C46110   6.270   3.932   0.344  0.4311 -0.5638 -0.3879
  350MOL0     C46111   6.155   3.860   0.295  0.5901 -0.3229 -0.2017
  350MOL0    Cl46112   6.135   3.891   0.125 -0.2088  0.3719 -0.3946
  350MOL0     C46113   6.753   3.988   1.035  0.6450 -0.5378  0.6873
  350MOL0     C46114   6.891   3.997   1.073  0.3656  0.4507  0.9949
  350MOL0     O46115   7.173   4.017   1.014 -0.3382 -0.2181  0.7359
  350MOL0     C46116   7.322   3.907   1.313  0.3290  0.1177  0.2726
  350MOL0     C46117   7.442   3.904   1.381  0.0562  1.3527  0.6030
  350MOL0     N46118   8.223   4.089   1.521  0.3556  0.5546  0.8462
  350MOL0     N46119   8.344   4.113   1.522  0.0072 -0.6420  1.3539
  350MOL0     C46120   9.698   4.270   1.525  0.0221  0.0902 -0.4801
  350MOL0     C46121   9.811   4.268   1.440  0.4340 -0.5683  0.8954
  350MOL0     C46122  10.128   4.404   1.164 -0.2822  0.0989 -0.3197
  350MOL0     C46123  10.127   4.315   1.054 -0.4139  0.6243  0.2838
  350MOL0     C46124  10.236   4.303   0.974 -0.6096 -0.5904  0.1454
  350MOL0     C46125  10.353   4.375   0.997 -0.5540  0.0289 -0.3820
  350MOL0     O46126  10.456   4.349   0.902 -0.4291 -0.4914 -0.5882
  350MOL0     C46127  10.578   4.422   0.914  1.1186 -0.4181  0.5150
  350MOL0     C46128  10.663   4.363   1.014 -0.5314  0.1822 -0.1417
  350MOL0     C46129  10.759   4.264   0.964  0.7431 -0.7644  0.9392
  350MOL0     C46130  10.824   4.172   1.068 -0.0180  0.2420  0.9657
  350MOL0     C46131  10.911   4.086   0.986 -0.2945 -0.0434 -0.9905
  350MOL0     C46132  10.990   4.013   0.925  0.5534 -0.0792  0.0467
  350MOL0     C46133  10.358   4.461   1.105 -0.7712  0.1570  0.9940
  350MOL0     C46134  10.247   4.483   1.183  0.2901  0.4804  1.2149
  350MOL0     H46135   9.719   4.502   1.218 -0.5395 -0.3308 -0.9166
  350MOL0     H46136   9.519   4.514   1.365 -0.3978  0.7456  3.0120
  350MOL0     H46137   9.374   4.194   1.463 -0.7506  0.5622  0.9316
  350MOL0     H46138   9.339   4.365   1.405 -0.9417  2.7713  1.7933
  350MOL0     H46139   9.223   4.394   1.620  3.1823 -0.6281  2.5761
  350MOL0     H46140   9.262   4.240   1.677  0.8618  0.0114 -0.0783
  350MOL0     H46141   9.106   4.154   1.479  0.1201  1.0959 -2.4630
  350MOL0     H46142   9.091   4.316   1.424 -1.8817  0.3370  0.2741
  350MOL0     H46143   9.002   4.209   1.695  1.0611 -1.9316 -1.1990
  350MOL0     H46144   8.989   4.375   1.655 -1.2241 -1.6074  1.3929
  350MOL0     H46145   8.862   4.136   1.506  1.5147 -0.6814 -2.2538
  350MOL0     H46146   8.843   4.290   1.437  3.9646 -0.2206 -1.2801
  350MOL0     H46147   8.737   4.389   1.640  0.8922  0.3175 -1.6938
  350MOL0     H46148   8.765   4.232   1.726 -1.9434  0.3638  0.3610
  350MOL0     H46149   8.598   4.250   1.475  1.8231  0.7232  0.2435
  350MOL0     H46150   8.615   4.118   1.594 -1.8377  0.6944 -0.3312
  350MOL0     H46151   8.491   4.374   1.656 -1.6765 -0.6708 -1.7410
  350MOL0     H46152   8.526   4.238   1.771  3.4438  1.6329  0.5961
  350MOL0     H46153   8.237   4.277   1.785  0.6679 -1.3456  0.2415
  350MOL0     H46154   7.980   4.212   1.699 -3.4647 -0.8545  0.2016
  350MOL0     H46155   8.021   4.047   1.761  0.6016 -0.2121  0.5013
  350MOL0     H46156   7.972   3.949   1.539  1.8937  0.6722  0.0123
  350MOL0     H46157   7.921   4.118   1.481  1.3506  0.3683  0.6826
  350MOL0     H46158   7.815   3.958   1.717 -2.1059  2.7285  1.3911
  350MOL0     H46159   7.744   4.107   1.681 -1.5907 -0.9406  1.1642
  350MOL0     H46160   7.589   3.943   1.603 -1.7661 -0.1554 -2.6813
  350MOL0     H46161   7.709   3.845   1.520 -0.9004 -1.5252  5.0453
  350MOL0     H46162   7.630   4.100   1.185  0.1338 -0.7024 -0.3210
  350MOL0     H46163   7.418   4.084   1.048  1.0873 -0.0826 -0.2983
  350MOL0     H46164   6.930   3.671   1.164  0.6415 -0.5647 -1.5026
  350MOL0     H46165   6.698   3.666   1.096  0.4604 -0.9087  0.1129
  350MOL0     H46166   6.375   3.789   0.981  1.2510  0.4436 -1.0430
  350MOL0     H46167   6.488   3.713   1.085  0.9018 -0.9134 -0.5691
  350MOL0     H46168   6.482   3.573   0.890 -2.1681  1.4897  0.6267
  350MOL0     H46169   6.636   3.652   0.879 -0.2597 -1.5736 -0.9277
  350MOL0     H46170   6.518   3.638   0.661  1.4951  0.2908  0.0507
  350MOL0     H46171   6.578   3.805   0.707  1.2039 -0.5168  1.0720
  350MOL0     H46172   6.283   3.722   0.731  1.8845  0.1087  1.9241
  350MOL0     H46173   6.360   3.883   0.730  0.8733  1.4220 -4.4675
  350MOL0     H46174   6.321   3.711   0.494  0.3220 -0.1442  1.1218
  350MOL0     H46175   6.463   3.824   0.512  0.0008  1.1044  0.5088
  350MOL0     H46176   6.310   4.012   0.548 -1.9272  0.6204  0.0094
  350MOL0     H46177   6.169   3.903   0.550  0.5269  0.7968  0.9176
  350MOL0     H46178   6.254   4.036   0.314  0.6881 -0.0976  1.0266
  350MOL0     H46179   6.365   3.894   0.303  0.8386 -1.3897  1.2481
  350MOL0     H46180   6.061   3.894   0.339 -1.4825 -2.8531 -2.3100
  350MOL0     H46181   6.163   3.753   0.315 -1.9042 -0.0994  2.7131
  350MOL0     H46182   6.702   4.075   0.995 -0.9205 -0.6096  2.3993
  350MOL0     H46183   6.932   4.096   1.057 -1.2015  1.3752  2.3598
  350MOL0     H46184   7.235   3.860   1.358  1.2213 -1.3293  0.5789
  350MOL0     H46185   7.447   3.858   1.479 -1.8264  1.2791  0.6958
  350MOL0     H46186   9.692   4.200   1.608  1.1109 -4.2474 -3.6883
  350MOL0     H46187   9.891   4.198   1.461  3.2130  2.6546  1.8610
  350MOL0     H46188  10.039   4.255   1.032 -0.1498 -0.5712  2.1823
  350MOL0     H46189  10.244   4.234   0.891 -0.6917 -1.5812  0.9471
  350MOL0     H46190  10.561   4.527   0.939 -1.2647 -0.8975  1.1221
  350MOL0     H46191  10.627   4.436   0.817  1.9565  1.9530  1.2097
  350MOL0     H46192  10.715   4.448   1.060  1.3748 -1.2962  0.5846
  350MOL0     H46193  10.598   4.316   1.088 -0.0293 -0.3496 -0.0269
  350MOL0     H46194  10.841   4.310   0.909 -1.1357  0.3355 -1.1092
  350MOL0     H46195  10.704   4.210   0.886 -2.0577  1.8802  0.8738
  350MOL0     H46196  10.885   4.232   1.136 -2.6775  1.8590  2.1114
  350MOL0     H46197  10.747   4.113   1.119  1.1086 -1.8064  0.4250
  350MOL0     H46198  11.072   3.951   0.896  0.5518  1.2205 -3.1386
  350MOL0     H46199  10.451   4.508   1.135 -0.5493  0.0991  0.4116
  350MOL0     H46200  10.239   4.548   1.269 -0.1524 -1.3851  2.6499
  351MOL0     O46201   1.695   2.440   7.406 -0.1407  0.0318 -0.1512
  351MOL0     C46202   1.682   2.318   7.375 -0.4796 -0.6659 -0.0351
  351MOL0     O46203   1.786   2.235   7.360  0.0146 -0.3353  0.4134
  351MOL0     C46204   1.911   2.292   7.364  0.3683  0.1377  0.1719
  351MOL0     C46205   1.980   2.299   7.248 -0.0806 -0.0615 -0.1984
  351MOL0     C46206   2.119   2.336   7.263 -0.2946 -0.0294  0.1533
  351MOL0     C46207   2.175   2.370   7.385 -0.0090  1.0145 -0.2283
  351MOL0     O46208   2.301   2.430   7.405 -0.3347 -0.4153  0.5541
  351MOL0     C46209   2.409   2.415   7.312  0.4275  0.0342 -0.5475
  351MOL0     C46210   2.546   2.467   7.365  0.0647 -0.5962 -0.1187
  351MOL0     C46211   2.597   2.388   7.490 -0.6708  1.1480  0.3980
  351MOL0     C46212   2.751   2.409   7.526  0.3948 -0.5577  0.3814
  351MOL0     C46213   2.795   2.294   7.616  0.2472 -0.0567 -0.2743
  351MOL0     C46214   2.758   2.317   7.764 -0.2540  0.3365 -0.3709
  351MOL0     C46215   2.834   2.217   7.859  0.2660  0.6193 -0.3096
  351MOL0     C46216   2.881   2.275   7.999 -1.1136  0.3523 -0.2437
  351MOL0     N46217   2.768   2.352   8.058  0.0771  0.6610  0.9961
  351MOL0     C46218   2.647   2.298   8.113 -1.0537  0.6184  0.5838
  351MOL0     C46219   2.585   2.411   8.153  0.8012 -0.4245  1.2489
  351MOL0     C46220   2.469   2.413   8.247 -1.0681 -0.4438  0.8673
  351MOL0     C46221   2.339   2.384   8.181  1.0515 -0.3228  0.3192
  351MOL0     C46222   2.295   2.494   8.080 -0.9237  0.0153  0.3259
  351MOL0     C46223   2.148   2.463   8.045  0.6331 -0.4591 -0.5405
  351MOL0     O46224   2.104   2.568   7.965 -0.6580 -0.3903 -0.3024
  351MOL0     C46225   1.977   2.552   7.924 -0.1739 -0.3850  0.4843
  351MOL0     C46226   1.918   2.662   7.868 -0.1600 -0.3132  0.5708
  351MOL0     C46227   1.785   2.662   7.830  0.6565 -0.2016  0.7739
  351MOL0     C46228   1.692   2.556   7.845 -0.0624 -0.9702 -0.0539
  351MOL0     C46229   1.553   2.569   7.806  0.2304  0.0976  0.4870
  351MOL0     O46230   1.483   2.455   7.833 -0.3581  0.2329 -0.0890
  351MOL0     C46231   1.353   2.449   7.789  0.2071  0.1562  0.4677
  351MOL0     C46232   1.321   2.455   7.653  0.1774 -0.6781  0.3082
  351MOL0     C46233   1.195   2.454   7.611  0.1536 -0.1766  1.5307
  351MOL0     C46234   1.095   2.442   7.701 -0.0805  0.0762  0.0796
  351MOL0     O46235   0.972   2.428   7.653  0.0436  0.2526  0.3612
  351MOL0     C46236   0.870   2.406   7.744  0.5898 -0.4497 -0.3337
  351MOL0     C46237   0.739   2.412   7.664  0.3261  0.2313 -0.1913
  351MOL0     C46238   0.624   2.375   7.751  0.4932  0.7910 -0.6155
  351MOL0     C46239   0.515   2.331   7.663  1.2863 -0.3050 -0.6475
  351MOL0     C46240   0.385   2.307   7.741 -0.0814 -1.1268  0.3448
  351MOL0     C46241   0.279   2.259   7.643  0.5448  0.4247  1.0887
  351MOL0     C46242   0.133   2.244   7.708  0.3860 -0.3148  0.3128
  351MOL0     C46243   0.023   2.244   7.597  0.1677  0.2151  0.1357
  351MOL0    Cl46244  -0.131   2.206   7.663  0.3282  0.8645  0.0790
  351MOL0     C46245   1.132   2.411   7.841  0.2444 -0.6949  0.3607
  351MOL0     C46246   1.259   2.427   7.887  0.2224  0.0753 -0.2392
  351MOL0     O46247   1.513   2.667   7.745  0.0645 -0.5929  0.6280
  351MOL0     C46248   1.752   2.442   7.902 -1.2677  1.1912 -0.0143
  351MOL0     C46249   1.891   2.441   7.940  0.0590  0.3528 -0.7030
  351MOL0     N46250   2.659   2.521   8.125  0.3719  0.0487  0.1435
  351MOL0     N46251   2.776   2.487   8.085  0.7352 -0.4721 -0.2864
  351MOL0     C46252   2.108   2.351   7.498  0.5701  0.5515  0.1523
  351MOL0     C46253   1.976   2.303   7.492  0.6749  0.4914  0.1966
  351MOL0     C46254   1.550   2.265   7.355  0.8724  0.9734  0.0093
  351MOL0     C46255   1.523   2.125   7.355 -0.4091  0.4259 -0.9150
  351MOL0     C46256   1.394   2.076   7.358 -0.9833  0.3353 -0.5628
  351MOL0     C46257   1.285   2.154   7.334  0.4941 -1.1952  0.4492
  351MOL0     O46258   1.152   2.101   7.334  0.1878 -0.1086 -0.6641
  351MOL0     C46259   1.045   2.196   7.365  0.0289  0.6373  0.1303
  351MOL0     C46260   0.920   2.115   7.344 -0.4580 -0.5533  0.0335
  351MOL0     C46261   0.911   2.060   7.204  0.1877 -0.2930 -0.6541
  351MOL0     C46262   0.773   2.036   7.143  0.7115 -0.0005  1.1019
  351MOL0     C46263   0.705   1.936   7.231  0.2712  1.0436 -0.3280
  351MOL0     C46264   0.642   1.849   7.295 -0.6710  0.3235  0.1445
  351MOL0     C46265   1.313   2.290   7.324 -0.2089 -0.5492  1.1130
  351MOL0     C46266   1.438   2.344   7.343  0.0021  0.5124 -0.3182
  351MOL0     H46267   1.950   2.271   7.147 -1.1110 -0.3948  0.1855
  351MOL0     H46268   2.175   2.353   7.171 -2.8991 -0.1362 -1.5593
  351MOL0     H46269   2.391   2.477   7.224  2.3612  0.8905 -0.3947
  351MOL0     H46270   2.415   2.309   7.284  0.1772  0.0067 -0.5010
  351MOL0     H46271   2.529   2.568   7.404  2.3706  0.4747 -1.6610
  351MOL0     H46272   2.621   2.467   7.286 -0.6487 -0.1182 -0.8060
  351MOL0     H46273   2.583   2.283   7.462 -0.6686  1.2374  0.0504
  351MOL0     H46274   2.530   2.397   7.576  0.5293  1.4640  1.3299
  351MOL0     H46275   2.816   2.404   7.438  0.6569 -0.8527  0.5877
  351MOL0     H46276   2.763   2.509   7.568 -2.3983 -0.7336  1.8099
  351MOL0     H46277   2.904   2.290   7.620  0.4288  2.7651 -0.1975
  351MOL0     H46278   2.742   2.206   7.579 -2.3340  1.2688 -0.0374
  351MOL0     H46279   2.651   2.305   7.783 -0.1241  2.7878  2.7720
  351MOL0     H46280   2.780   2.419   7.798  1.0073 -0.3478  0.9740
  351MOL0     H46281   2.770   2.128   7.868  2.4372 -0.9017  0.7483
  351MOL0     H46282   2.925   2.184   7.807  1.3320 -0.8758  2.3222
  351MOL0     H46283   2.965   2.345   7.988 -1.0615  0.6112  1.5313
  351MOL0     H46284   2.892   2.199   8.077 -3.6126 -1.4422 -1.4916
  351MOL0     H46285   2.635   2.196   8.150 -0.3520  0.0179 -0.7695
  351MOL0     H46286   2.464   2.510   8.297 -3.1324  0.7437 -1.4142
  351MOL0     H46287   2.496   2.336   8.320  0.0219 -1.5082 -0.5831
  351MOL0     H46288   2.265   2.391   8.262  0.2971  1.6621 -0.4634
  351MOL0     H46289   2.333   2.284   8.137  0.2232 -0.3832  0.5482
  351MOL0     H46290   2.303   2.594   8.123  3.2239  0.3714 -0.8809
  351MOL0     H46291   2.356   2.500   7.989 -0.1595 -0.9791  0.7477
  351MOL0     H46292   2.087   2.440   8.133  2.4679  0.1559  0.9798
  351MOL0     H46293   2.158   2.374   7.982  3.6881  0.6972 -1.8808
  351MOL0     H46294   1.985   2.745   7.850  2.1902 -1.4116  3.4659
  351MOL0     H46295   1.755   2.747   7.770  0.3374 -2.1344 -1.9641
  351MOL0     H46296   1.400   2.467   7.579  0.0624  1.5896  0.4895
  351MOL0     H46297   1.170   2.462   7.505 -2.6685  0.3203  2.1478
  351MOL0     H46298   0.859   2.467   7.835  3.9094 -0.3735  0.1336
  351MOL0     H46299   0.885   2.299   7.761  2.9682 -0.4842 -2.1386
  351MOL0     H46300   0.754   2.344   7.580  1.0424  2.3644 -1.8718
  351MOL0     H46301   0.728   2.511   7.618  1.8122  1.3560  1.7081
  351MOL0     H46302   0.604   2.468   7.804 -0.5706  0.4109 -0.3395
  351MOL0     H46303   0.644   2.296   7.823 -1.0257 -0.0352 -1.0498
  351MOL0     H46304   0.497   2.407   7.586  0.8952  1.1133  0.7799
  351MOL0     H46305   0.552   2.244   7.609  0.1638 -0.9290 -0.4342
  351MOL0     H46306   0.358   2.394   7.801  2.0393 -0.4723  0.4348
  351MOL0     H46307   0.415   2.222   7.804  0.8553 -1.1987 -0.1854
  351MOL0     H46308   0.303   2.157   7.609  3.0953  0.9794  1.0282
  351MOL0     H46309   0.268   2.321   7.554 -0.9936 -4.7777 -2.8965
  351MOL0     H46310   0.131   2.151   7.765 -1.0784 -2.9423 -3.6077
  351MOL0     H46311   0.115   2.327   7.777  1.1935  0.7223 -0.6832
  351MOL0     H46312   0.048   2.168   7.523 -0.9404  1.2000 -1.3128
  351MOL0     H46313   0.010   2.342   7.551 -1.1052 -0.9637 -2.1927
  351MOL0     H46314   1.049   2.401   7.911  1.9335 -0.6338  2.4889
  351MOL0     H46315   1.276   2.438   7.993 -1.6206 -0.4638  0.1519
  351MOL0     H46316   1.695   2.351   7.914  0.5059  0.1578  1.1238
  351MOL0     H46317   1.936   2.349   7.978  1.9473  0.4594 -2.5454
  351MOL0     H46318   2.164   2.355   7.591  4.1234 -1.1335 -1.7111
  351MOL0     H46319   1.912   2.286   7.578 -1.3579  0.1710 -1.2887
  351MOL0     H46320   1.608   2.062   7.376 -0.2568  0.8841 -0.1359
  351MOL0     H46321   1.398   1.972   7.387 -0.5415  1.0827  2.3842
  351MOL0     H46322   1.033   2.285   7.303 -1.3250 -0.9180 -1.9973
  351MOL0     H46323   1.037   2.232   7.467 -4.1952  0.8540 -0.1243
  351MOL0     H46324   0.911   2.039   7.421 -1.6640  3.1465  3.9444
  351MOL0     H46325   0.836   2.183   7.363  0.2271 -0.3767  2.8004
  351MOL0     H46326   0.952   1.959   7.203 -3.6969 -2.0650 -0.6146
  351MOL0     H46327   0.964   2.120   7.130  2.3747 -3.2830 -1.6892
  351MOL0     H46328   0.716   2.129   7.146 -1.6008 -1.2988  0.0205
  351MOL0     H46329   0.764   2.012   7.036  0.8828  0.7793  0.9095
  351MOL0     H46330   0.590   1.762   7.330 -1.4689  0.0927 -1.4877
  351MOL0     H46331   1.237   2.368   7.318  1.3771  1.0989  1.4726
  351MOL0     H46332   1.460   2.449   7.361  0.2523  0.3973  0.0519
  352MOL0     O46333   9.704   6.182   3.882  0.8912 -0.0950  0.5309
  352MOL0     C46334   9.781   6.084   3.876 -0.0295 -0.3236  0.0118
  352MOL0     O46335   9.758   5.953   3.915 -0.5787  0.0330  0.3037
  352MOL0     C46336   9.634   5.928   3.962 -0.2498 -0.6208 -0.0410
  352MOL0     C46337   9.614   5.927   4.100 -0.4692 -0.4545  0.2117
  352MOL0     C46338   9.483   5.904   4.148  0.9160 -0.1912  0.3716
  352MOL0     C46339   9.374   5.885   4.058 -0.1368  0.0554 -0.2141
  352MOL0     O46340   9.251   5.870   4.120 -0.2271  0.2731  0.4988
  352MOL0     C46341   9.134   5.870   4.035  0.4798 -0.5795 -0.1837
  352MOL0     C46342   9.013   5.916   4.117 -0.7691  0.2087  0.0837
  352MOL0     C46343   8.880   5.909   4.040 -0.3671 -0.6326 -0.1927
  352MOL0     C46344   8.875   5.990   3.904 -0.2598  0.2244  0.1911
  352MOL0     C46345   8.731   6.001   3.854 -0.6781  0.4005 -0.2151
  352MOL0     C46346   8.715   6.083   3.733  0.1097 -0.3355  0.4541
  352MOL0     C46347   8.560   6.080   3.689 -0.5622 -0.3529  0.1028
  352MOL0     C46348   8.541   6.185   3.577 -0.1039  0.3920 -0.5080
  352MOL0     N46349   8.423   6.165   3.503 -0.1209  0.9540  0.0121
  352MOL0     C46350   8.303   6.183   3.560 -0.1882 -0.8208 -0.2539
  352MOL0     C46351   8.220   6.149   3.454  0.2999 -1.3588 -0.5313
  352MOL0     C46352   8.075   6.165   3.441 -0.4657 -0.1593 -0.2323
  352MOL0     C46353   8.001   6.060   3.528 -0.1562  0.0706 -0.6879
  352MOL0     C46354   8.030   5.923   3.463 -0.1466 -0.5644  0.4842
  352MOL0     C46355   7.979   5.801   3.546 -0.4463  0.2609 -0.3962
  352MOL0     O46356   7.840   5.806   3.592  0.0171 -0.0481  0.3129
  352MOL0     C46357   7.762   5.706   3.558 -0.7727  0.0175  0.4863
  352MOL0     C46358   7.728   5.680   3.422  0.3666 -0.2789 -0.3796
  352MOL0     C46359   7.631   5.581   3.390  0.3840  0.0967 -0.8805
  352MOL0     C46360   7.572   5.503   3.489  0.4964  0.4902 -0.7098
  352MOL0     C46361   7.478   5.405   3.445  1.3218 -0.3403  0.6364
  352MOL0     O46362   7.499   5.355   3.320 -0.0973  0.3853  0.3718
  352MOL0     C46363   7.415   5.253   3.286 -0.1533  0.6406  0.0659
  352MOL0     C46364   7.307   5.275   3.194  0.2641 -0.1391  0.6028
  352MOL0     C46365   7.238   5.158   3.142  0.1286 -0.1337  0.2614
  352MOL0     C46366   7.272   5.027   3.183  0.0829  0.5456  0.0427
  352MOL0     O46367   7.196   4.917   3.159 -0.6554  0.5743  0.7208
  352MOL0     C46368   7.063   4.927   3.095 -0.4912 -0.3029  0.4305
  352MOL0     C46369   7.077   4.970   2.946  0.0818  0.2116 -0.6753
  352MOL0     C46370   7.113   4.848   2.852  0.0237  0.3403 -0.1878
  352MOL0     C46371   7.148   4.897   2.707  0.3659  0.0664  0.2598
  352MOL0     C46372   7.156   4.783   2.610  1.1316 -0.7983  0.4597
  352MOL0     C46373   7.144   4.833   2.472 -0.6809 -0.4031  0.0259
  352MOL0     C46374   7.163   4.732   2.356 -0.2845 -0.9186 -0.3328
  352MOL0     C46375   7.100   4.785   2.230  0.3321  0.7655 -0.5221
  352MOL0    Cl46376   6.921   4.804   2.245  0.3496 -0.1894  0.0480
  352MOL0     C46377   7.387   5.004   3.266 -0.3400 -0.5865  1.0014
  352MOL0     C46378   7.457   5.115   3.312 -0.5294  0.1096  1.2011
  352MOL0     O46379   7.384   5.373   3.519  0.3297  0.1592 -0.4836
  352MOL0     C46380   7.610   5.533   3.619  0.2667 -0.5669 -0.7615
  352MOL0     C46381   7.694   5.640   3.657 -0.1928  0.4783  1.0072
  352MOL0     N46382   8.287   6.121   3.340  0.3619 -0.8121 -0.2709
  352MOL0     N46383   8.412   6.125   3.373 -0.7167 -0.5533 -0.6719
  352MOL0     C46384   9.400   5.878   3.917 -0.3083  0.1280 -0.5162
  352MOL0     C46385   9.531   5.891   3.874 -0.5276  0.2416  0.1912
  352MOL0     C46386   9.917   6.115   3.824 -0.2047  0.2966  0.4805
  352MOL0     C46387   9.959   6.241   3.771  0.0443 -0.1176 -0.6443
  352MOL0     C46388  10.091   6.273   3.747 -0.6325 -0.3564 -0.1262
  352MOL0     C46389  10.187   6.170   3.756  0.0003  0.1122 -0.0871
  352MOL0     O46390  10.315   6.209   3.711  0.1790  0.1387 -0.2828
  352MOL0     C46391  10.411   6.107   3.719 -0.3856  0.3534  0.5179
  352MOL0     C46392  10.545   6.168   3.674 -0.2265 -0.8484 -0.4124
  352MOL0     C46393  10.664   6.086   3.717  0.4658 -1.2978 -0.1922
  352MOL0     C46394  10.680   5.948   3.657  0.5923 -0.4627 -0.2479
  352MOL0     C46395  10.816   5.898   3.682 -0.0950  0.8074 -1.2398
  352MOL0     C46396  10.934   5.867   3.689  0.9290  0.0185 -0.2207
  352MOL0     C46397  10.154   6.043   3.810 -0.3094 -0.3754 -0.3006
  352MOL0     C46398  10.022   6.015   3.845 -1.2825 -1.1478  0.4787
  352MOL0     H46399   9.691   5.932   4.177 -1.0692  0.2960  0.7839
  352MOL0     H46400   9.472   5.911   4.256  1.4123  1.5010  0.3540
  352MOL0     H46401   9.107   5.769   4.004 -1.2208  0.0574 -0.8450
  352MOL0     H46402   9.142   5.936   3.949 -0.0995  1.3140  1.1391
  352MOL0     H46403   9.039   6.020   4.137  0.7273  0.1893 -1.4893
  352MOL0     H46404   9.018   5.864   4.213  2.1502  0.6836  0.2856
  352MOL0     H46405   8.799   5.963   4.092  0.6669  1.0412 -0.2359
  352MOL0     H46406   8.846   5.806   4.025 -1.0265 -0.4736  0.1343
  352MOL0     H46407   8.912   6.090   3.931  3.6088 -0.4832 -1.7660
  352MOL0     H46408   8.943   5.943   3.832  0.7356 -2.1884  2.5201
  352MOL0     H46409   8.660   6.025   3.933  2.6487 -1.7351  3.8058
  352MOL0     H46410   8.706   5.898   3.828 -1.0585  0.6994 -1.0900
  352MOL0     H46411   8.774   6.058   3.644 -0.5945  1.2700 -0.5226
  352MOL0     H46412   8.743   6.188   3.750  2.8027 -0.1920 -3.4202
  352MOL0     H46413   8.528   5.980   3.657 -0.1510 -0.8720  1.2689
  352MOL0     H46414   8.501   6.106   3.777 -0.3823  1.1033 -0.1884
  352MOL0     H46415   8.628   6.170   3.512  0.6484 -3.8836  1.1437
  352MOL0     H46416   8.542   6.289   3.611  2.6541  0.6403 -1.1077
  352MOL0     H46417   8.278   6.209   3.662  0.3426  0.2579 -0.3911
  352MOL0     H46418   8.045   6.158   3.336 -1.1461  1.2877 -0.1639
  352MOL0     H46419   8.051   6.264   3.480  1.9498  0.6769 -0.6909
  352MOL0     H46420   7.896   6.089   3.531  0.3573  2.0447  0.4804
  352MOL0     H46421   8.046   6.058   3.628 -0.6137  1.7281 -0.4204
  352MOL0     H46422   7.971   5.928   3.371  0.5603 -0.3206  0.0306
  352MOL0     H46423   8.135   5.897   3.445 -0.1629 -0.1748 -0.2147
  352MOL0     H46424   8.044   5.780   3.632  0.8912  2.3381 -0.8178
  352MOL0     H46425   7.993   5.721   3.472  1.7680  1.1682 -1.0475
  352MOL0     H46426   7.777   5.744   3.350  1.2909 -1.5497 -0.9200
  352MOL0     H46427   7.605   5.566   3.286 -0.3459  0.7864 -0.8079
  352MOL0     H46428   7.270   5.375   3.176 -0.5481 -0.4433  0.5209
  352MOL0     H46429   7.142   5.189   3.104 -0.2111 -1.4826 -0.0413
  352MOL0     H46430   7.002   4.994   3.156  0.1395  1.0728 -0.4056
  352MOL0     H46431   7.014   4.829   3.091  1.9612 -1.6480  1.5844
  352MOL0     H46432   7.156   5.043   2.926  0.8997 -0.3251  0.4992
  352MOL0     H46433   6.979   5.009   2.918  0.6433  1.1382 -1.4077
  352MOL0     H46434   7.029   4.779   2.850  0.3397 -0.4103  3.8041
  352MOL0     H46435   7.195   4.791   2.897 -1.1660 -1.7666 -0.5504
  352MOL0     H46436   7.077   4.972   2.669  1.8524  1.1617 -0.4445
  352MOL0     H46437   7.250   4.934   2.698  1.3386 -2.4418  0.3552
  352MOL0     H46438   7.067   4.723   2.631 -0.0305  1.9300  4.2422
  352MOL0     H46439   7.251   4.733   2.630  0.1077 -1.8332  3.2557
  352MOL0     H46440   7.220   4.912   2.467 -0.7768 -0.3056  0.0827
  352MOL0     H46441   7.045   4.880   2.464 -2.5432 -3.5327  2.5322
  352MOL0     H46442   7.272   4.719   2.350  0.1299  2.3095 -1.5613
  352MOL0     H46443   7.115   4.643   2.396  2.2267 -1.3217  2.1324
  352MOL0     H46444   7.109   4.723   2.141 -3.0222  0.0204 -0.4494
  352MOL0     H46445   7.151   4.881   2.216 -1.1959  1.8326  0.8990
  352MOL0     H46446   7.408   4.905   3.307 -1.1314 -0.6942  1.1625
  352MOL0     H46447   7.537   5.093   3.382  0.8882  0.4896 -0.2279
  352MOL0     H46448   7.566   5.462   3.688  0.6588 -0.9769 -0.9287
  352MOL0     H46449   7.693   5.662   3.764  0.9945  1.0812  0.9117
  352MOL0     H46450   9.327   5.847   3.843 -0.8492 -1.5929  0.6574
  352MOL0     H46451   9.549   5.901   3.767  0.8040 -0.8637  0.2905
  352MOL0     H46452   9.884   6.319   3.759 -1.3900 -0.4149  4.2306
  352MOL0     H46453  10.120   6.363   3.694  1.8006  0.0149  1.6966
  352MOL0     H46454  10.384   6.023   3.654  0.0600 -0.4539  1.3568
  352MOL0     H46455  10.409   6.067   3.821 -2.4385 -2.3222 -0.4351
  352MOL0     H46456  10.541   6.184   3.566 -0.6713  3.5294  0.0612
  352MOL0     H46457  10.566   6.264   3.722  0.3979 -0.2923 -1.7573
  352MOL0     H46458  10.679   6.076   3.825 -0.5448  0.0318  0.0851
  352MOL0     H46459  10.747   6.146   3.679 -1.7726  1.8061 -0.4649
  352MOL0     H46460  10.606   5.874   3.690 -1.7592  1.1085 -1.7023
  352MOL0     H46461  10.676   5.960   3.549  4.9554  0.9970 -0.4324
  352MOL0     H46462  11.036   5.845   3.713  1.0534  0.6595 -0.1401
  352MOL0     H46463  10.226   5.962   3.808 -0.0241 -0.1647 -3.5789
  352MOL0     H46464   9.990   5.922   3.892 -2.1953 -1.2313 -0.2780
  353MOL0     O46465   7.704  10.431   8.827 -0.3345  0.0077 -0.5700
  353MOL0     C46466   7.769  10.515   8.772 -0.1156 -0.0880  0.0100
  353MOL0     O46467   7.718  10.606   8.686 -0.1972  0.5535 -0.3760
  353MOL0     C46468   7.577  10.627   8.697 -0.4021 -0.7483 -1.2115
  353MOL0     C46469   7.490  10.569   8.609  0.2370 -0.4729 -0.2993
  353MOL0     C46470   7.349  10.582   8.630 -0.7413  0.2349  0.2333
  353MOL0     C46471   7.299  10.648   8.736  0.0927  0.7010 -0.1869
  353MOL0     O46472   7.169  10.656   8.771 -0.0565  0.3727 -0.2584
  353MOL0     C46473   7.074  10.560   8.717  0.8337 -1.3271 -1.1964
  353MOL0     C46474   7.030  10.465   8.825  0.2864  0.0851  0.3546
  353MOL0     C46475   7.134  10.379   8.888  0.1523 -0.3542  0.2346
  353MOL0     C46476   7.081  10.287   8.997  0.3939 -0.3353  0.2620
  353MOL0     C46477   6.990  10.179   8.926 -0.3504 -0.5487  0.0436
  353MOL0     C46478   6.919  10.108   9.041  0.7965 -0.1653  0.1759
  353MOL0     C46479   6.769  10.151   9.076 -0.0941  0.2277 -0.1485
  353MOL0     C46480   6.670  10.075   8.985  1.0000  0.2170 -0.0517
  353MOL0     N46481   6.533  10.112   9.008 -0.2141  0.1351  0.0326
  353MOL0     C46482   6.454  10.079   9.108 -0.9868  0.6645 -0.2846
  353MOL0     C46483   6.332  10.123   9.069 -0.6589 -0.3823  0.0793
  353MOL0     C46484   6.202  10.128   9.152 -0.6078  0.0967 -0.5200
  353MOL0     C46485   6.075  10.114   9.075  0.6159 -0.5347 -0.3971
  353MOL0     C46486   5.957  10.142   9.171 -0.2305  0.2551 -0.3127
  353MOL0     C46487   5.823  10.169   9.103 -0.2014  0.4093 -0.2838
  353MOL0     O46488   5.717  10.137   9.189  0.6476  0.5558 -0.0114
  353MOL0     C46489   5.593  10.118   9.126 -0.1864  1.0317 -0.4689
  353MOL0     C46490   5.512  10.042   9.203  1.2544 -0.7318 -0.2575
  353MOL0     C46491   5.390  10.016   9.150  0.0363 -0.2080 -0.6838
  353MOL0     C46492   5.336  10.072   9.026 -0.1026 -0.9141 -0.3541
  353MOL0     C46493   5.209  10.035   8.971  0.8644  0.2395  0.7082
  353MOL0     O46494   5.142  10.119   8.887 -0.2393  0.1239 -0.1006
  353MOL0     C46495   5.028  10.079   8.832  0.1760 -0.4943  0.2289
  353MOL0     C46496   4.996  10.142   8.702 -0.0886 -0.3165 -0.1619
  353MOL0     C46497   4.884  10.096   8.624 -0.1871 -0.3033  0.5706
  353MOL0     C46498   4.798   9.990   8.680 -0.7521 -0.4995 -0.4896
  353MOL0     O46499   4.685   9.944   8.629  0.5209  0.5869 -1.1864
  353MOL0     C46500   4.645   9.956   8.493 -0.9331  0.1643  0.5840
  353MOL0     C46501   4.732   9.866   8.398 -0.0174  1.1027  0.0566
  353MOL0     C46502   4.716   9.708   8.413 -0.1420  0.0566 -0.2455
  353MOL0     C46503   4.573   9.664   8.369  0.1599 -0.0591  0.2133
  353MOL0     C46504   4.531   9.530   8.419  0.5888 -0.1264 -0.1664
  353MOL0     C46505   4.530   9.513   8.571  0.1628  0.1626  0.1903
  353MOL0     C46506   4.438   9.618   8.640 -0.7485  0.3334 -0.2266
  353MOL0     C46507   4.413   9.572   8.790  0.7339  0.2190 -0.1511
  353MOL0    Cl46508   4.547   9.563   8.897 -0.0639  0.1114  0.1385
  353MOL0     C46509   4.828   9.952   8.814  0.1037  0.4084 -0.1916
  353MOL0     C46510   4.934   9.988   8.887 -1.0086 -0.1283 -0.2894
  353MOL0     O46511   5.158   9.936   9.022  0.1135  0.1927  0.2805
  353MOL0     C46512   5.424  10.155   8.957 -0.4323 -0.5039  0.1661
  353MOL0     C46513   5.551  10.181   9.011 -0.2329  0.4656  0.0496
  353MOL0     N46514   6.335  10.168   8.945  0.0804 -0.2174  0.4195
  353MOL0     N46515   6.458  10.147   8.908 -0.6903 -0.0568  0.0571
  353MOL0     C46516   7.386  10.727   8.815  0.5285  0.4996 -0.2594
  353MOL0     C46517   7.525  10.717   8.792 -0.2341  0.0567 -0.3169
  353MOL0     C46518   7.915  10.536   8.806  0.5657  0.1071 -0.1458
  353MOL0     C46519   7.963  10.486   8.929 -0.7341  0.0433 -0.7607
  353MOL0     C46520   8.097  10.499   8.972  0.1105  0.3346  0.3095
  353MOL0     C46521   8.183  10.577   8.889 -0.0028 -0.2248 -0.3512
  353MOL0     O46522   8.314  10.600   8.908  0.0460  0.3673 -0.4130
  353MOL0     C46523   8.382  10.544   9.021 -0.8293  0.8470  0.0659
  353MOL0     C46524   8.526  10.598   9.034  0.4124 -0.0324 -0.4347
  353MOL0     C46525   8.630  10.545   8.939  0.4404 -0.1316  0.2585
  353MOL0     C46526   8.710  10.416   8.982  0.5725 -0.8002 -0.1779
  353MOL0     C46527   8.797  10.371   8.868  0.0793  0.1816 -0.2975
  353MOL0     C46528   8.859  10.333   8.772 -1.1866 -0.5899  0.0353
  353MOL0     C46529   8.135  10.618   8.771 -0.7070 -0.0206  0.5218
  353MOL0     C46530   8.009  10.598   8.725 -0.4752  0.0555 -0.0423
  353MOL0     H46531   7.518  10.510   8.522  0.5166  1.9563 -1.9623
  353MOL0     H46532   7.289  10.512   8.574 -0.3055  0.0340  0.0101
  353MOL0     H46533   7.111  10.489   8.642  0.6481  0.1097 -2.6890
  353MOL0     H46534   6.991  10.620   8.679  0.6148 -0.8244  0.0373
  353MOL0     H46535   6.963  10.406   8.762  1.9081 -0.0080 -1.3889
  353MOL0     H46536   6.968  10.503   8.906 -0.4177  2.0709 -1.0383
  353MOL0     H46537   7.223  10.433   8.922  0.4219  0.0893 -1.1160
  353MOL0     H46538   7.178  10.316   8.810 -2.5926 -2.6342  0.3657
  353MOL0     H46539   7.159  10.237   9.056 -1.6813 -1.1609  2.4533
  353MOL0     H46540   7.021  10.346   9.067  0.0968 -0.1908 -0.1136
  353MOL0     H46541   7.046  10.105   8.868 -2.4868 -0.2647 -2.5991
  353MOL0     H46542   6.913  10.224   8.862  0.7106  1.6289  0.1876
  353MOL0     H46543   6.982  10.110   9.130 -0.0113  1.1144  0.7435
  353MOL0     H46544   6.917  10.002   9.013  4.6868 -0.1425 -0.7657
  353MOL0     H46545   6.747  10.119   9.178 -0.3734 -0.8647 -0.5385
  353MOL0     H46546   6.757  10.260   9.067  0.5298  0.2791 -0.3842
  353MOL0     H46547   6.675   9.970   9.015  0.8919  0.0317 -0.6608
  353MOL0     H46548   6.698  10.075   8.879  0.2132 -2.2075 -0.3226
  353MOL0     H46549   6.479  10.026   9.199 -1.1229  2.0518  0.5967
  353MOL0     H46550   6.196  10.221   9.209 -0.0140 -1.0531  1.5085
  353MOL0     H46551   6.209  10.052   9.230 -5.0215 -1.2183 -1.1178
  353MOL0     H46552   6.061  10.014   9.033 -4.5546 -0.1784 -0.1188
  353MOL0     H46553   6.084  10.197   9.004  0.3806 -1.4143 -1.4792
  353MOL0     H46554   5.952  10.052   9.232  0.6145  0.4435  0.0534
  353MOL0     H46555   5.975  10.222   9.244 -1.6079  0.2721  0.0276
  353MOL0     H46556   5.818  10.105   9.014 -0.1707  4.0890 -3.2149
  353MOL0     H46557   5.819  10.276   9.083  1.2507  0.1400 -2.3904
  353MOL0     H46558   5.540   9.995   9.297  1.0325 -0.0863  0.1380
  353MOL0     H46559   5.337   9.949   9.217 -0.7365  2.0541  1.1494
  353MOL0     H46560   5.056  10.227   8.672 -0.6671  0.0032 -0.4494
  353MOL0     H46561   4.869  10.144   8.528 -1.0628  0.3674  1.0286
  353MOL0     H46562   4.659  10.061   8.463  0.4740 -0.2089 -0.1517
  353MOL0     H46563   4.538   9.943   8.475 -0.8248 -0.6423  0.4903
  353MOL0     H46564   4.834   9.898   8.422 -0.0656 -0.7327  3.3460
  353MOL0     H46565   4.699   9.893   8.298  0.4335  0.6839 -0.2100
  353MOL0     H46566   4.736   9.676   8.516  1.2632 -1.5516 -0.9812
  353MOL0     H46567   4.791   9.650   8.358  0.7198  0.1706  0.7631
  353MOL0     H46568   4.496   9.737   8.394 -3.4903 -2.9421 -1.5568
  353MOL0     H46569   4.575   9.664   8.259 -1.9266 -0.5011  0.1313
  353MOL0     H46570   4.598   9.457   8.373 -0.3625 -1.0022 -0.2048
  353MOL0     H46571   4.425   9.514   8.393 -0.7259  2.9484  2.6362
  353MOL0     H46572   4.632   9.496   8.606  0.9085 -2.1996 -2.7207
  353MOL0     H46573   4.486   9.415   8.589  1.8206 -0.6599 -0.0390
  353MOL0     H46574   4.471   9.722   8.643  0.1855  0.0183  0.8047
  353MOL0     H46575   4.345   9.617   8.581  0.0223  2.3215 -1.5782
  353MOL0     H46576   4.348   9.484   8.799  0.4142  0.2886 -1.6026
  353MOL0     H46577   4.357   9.659   8.827  1.0825  1.3698 -2.2007
  353MOL0     H46578   4.768   9.877   8.866  1.4424  0.7416  1.9529
  353MOL0     H46579   4.939   9.942   8.986  1.1644 -1.5920 -0.9880
  353MOL0     H46580   5.409  10.200   8.860  3.5477  1.2539  0.1795
  353MOL0     H46581   5.623  10.239   8.955  0.4609  1.1892  1.6142
  353MOL0     H46582   7.350  10.779   8.903  0.2417  0.7421 -0.5148
  353MOL0     H46583   7.597  10.779   8.846 -1.5777  2.2700 -0.9158
  353MOL0     H46584   7.894  10.429   8.991 -1.5893 -1.0753 -2.6502
  353MOL0     H46585   8.140  10.467   9.066  0.4745  1.6201  0.6019
  353MOL0     H46586   8.400  10.436   9.025  1.0590  1.1569  1.9007
  353MOL0     H46587   8.321  10.575   9.106 -2.4519  3.2249 -1.8273
  353MOL0     H46588   8.523  10.705   9.009 -3.0623 -0.0486 -0.5573
  353MOL0     H46589   8.562  10.582   9.136 -0.5076 -0.8206 -0.2249
  353MOL0     H46590   8.703  10.623   8.913  1.1474 -0.5923  0.8105
  353MOL0     H46591   8.573  10.530   8.847 -1.6060  1.0995  1.2580
  353MOL0     H46592   8.764  10.438   9.074  0.2654  2.0701 -0.5804
  353MOL0     H46593   8.640  10.333   8.997 -1.0458  0.6484  0.7004
  353MOL0     H46594   8.928  10.321   8.691  0.1940 -0.1140  1.0974
  353MOL0     H46595   8.210  10.652   8.700 -0.7965 -1.0245 -0.0740
  353MOL0     H46596   7.985  10.630   8.624  0.7896  0.0540 -0.3673
  354MOL0     O46597   0.358   6.718   4.196 -0.2698  0.2420  0.7208
  354MOL0     C46598   0.388   6.640   4.287  0.3112 -0.1718  0.3754
  354MOL0     O46599   0.297   6.550   4.342 -0.3584  0.0211  0.0767
  354MOL0     C46600   0.168   6.538   4.300 -0.3616  0.2979 -0.2716
  354MOL0     C46601   0.084   6.631   4.240 -0.8235 -0.9322  0.6060
  354MOL0     C46602  -0.043   6.601   4.196  0.0656  0.5789  0.2021
  354MOL0     C46603  -0.094   6.473   4.205 -0.3511 -0.8899  0.4948
  354MOL0     O46604  -0.214   6.428   4.158 -0.0381 -0.0720 -0.2994
  354MOL0     C46605  -0.314   6.444   4.261 -0.2731  0.1862  0.9025
  354MOL0     C46606  -0.455   6.496   4.217 -0.8280  0.0993  0.4266
  354MOL0     C46607  -0.558   6.509   4.325  0.4797  0.8965  0.2061
  354MOL0     C46608  -0.669   6.591   4.262  0.0187 -0.3471  0.3521
  354MOL0     C46609  -0.783   6.617   4.360 -0.4879 -0.2226  0.2057
  354MOL0     C46610  -0.835   6.485   4.425  0.0907  0.1782  0.0652
  354MOL0     C46611  -0.972   6.516   4.500 -0.0792 -0.7207 -0.0604
  354MOL0     C46612  -0.960   6.578   4.637 -0.1389 -0.7559 -0.6372
  354MOL0     N46613  -1.098   6.597   4.695 -0.3911  0.0306 -0.0745
  354MOL0     C46614  -1.194   6.695   4.675  0.4180 -0.2685  0.4489
  354MOL0     C46615  -1.304   6.644   4.741  1.4815  0.9381 -0.7192
  354MOL0     C46616  -1.443   6.693   4.774  0.7506  0.6300 -0.1154
  354MOL0     C46617  -1.437   6.802   4.885 -0.5032  0.3418 -0.3047
  354MOL0     C46618  -1.574   6.867   4.904 -0.3078 -1.0029 -0.4922
  354MOL0     C46619  -1.665   6.788   4.999  0.3122 -0.9652  0.8154
  354MOL0     O46620  -1.749   6.885   5.055  0.7770  0.8777 -0.0782
  354MOL0     C46621  -1.843   6.838   5.146  0.0236 -0.0494 -0.0705
  354MOL0     C46622  -1.815   6.815   5.276 -0.5125  0.8518 -0.6018
  354MOL0     C46623  -1.907   6.766   5.367 -0.5557 -0.0467  0.2555
  354MOL0     C46624  -2.033   6.732   5.323 -0.0361 -0.2187  0.6919
  354MOL0     C46625  -2.147   6.677   5.404  0.7498 -0.9661 -0.0946
  354MOL0     O46626  -2.250   6.620   5.328 -0.0018 -0.1227  0.3585
  354MOL0     C46627  -2.336   6.553   5.407  0.2858 -0.0128  0.3914
  354MOL0     C46628  -2.466   6.595   5.416 -0.5177 -0.2846 -0.3342
  354MOL0     C46629  -2.562   6.522   5.486 -0.2335  0.0621 -0.3934
  354MOL0     C46630  -2.523   6.403   5.558  0.2166 -0.3054  0.4297
  354MOL0     O46631  -2.624   6.331   5.617  0.7466  0.7783 -0.1914
  354MOL0     C46632  -2.664   6.222   5.535  0.1418 -0.4116 -0.2362
  354MOL0     C46633  -2.806   6.251   5.480 -0.3023  0.0437 -0.1893
  354MOL0     C46634  -2.908   6.326   5.568 -0.0271 -0.9608 -0.3924
  354MOL0     C46635  -3.052   6.315   5.515 -0.4351  0.1065  0.1167
  354MOL0     C46636  -3.152   6.323   5.629 -0.0922 -0.8215  0.4424
  354MOL0     C46637  -3.292   6.263   5.588  0.4863 -0.0330  0.4512
  354MOL0     C46638  -3.398   6.252   5.692 -0.1951  0.1237 -0.5429
  354MOL0     C46639  -3.539   6.234   5.637  0.0378 -0.5289 -0.6301
  354MOL0    Cl46640  -3.592   6.377   5.540  0.0704 -0.2121 -0.2721
  354MOL0     C46641  -2.391   6.357   5.544  0.0348 -0.6751 -0.2319
  354MOL0     C46642  -2.296   6.432   5.476  0.1196  0.3457  0.6139
  354MOL0     O46643  -2.136   6.689   5.529 -0.3998 -1.0005  0.3263
  354MOL0     C46644  -2.063   6.754   5.189  0.4054 -0.8084 -0.8170
  354MOL0     C46645  -1.970   6.805   5.102 -0.3449 -0.3295 -0.1563
  354MOL0     N46646  -1.260   6.523   4.798 -0.5094  0.7025 -0.4351
  354MOL0     N46647  -1.140   6.498   4.767  0.1564  0.2614 -0.1889
  354MOL0     C46648  -0.013   6.379   4.267 -0.5047  0.0922 -0.4699
  354MOL0     C46649   0.111   6.407   4.318  0.1255 -0.1823 -0.3477
  354MOL0     C46650   0.521   6.648   4.353 -0.2621  0.4944  0.2394
  354MOL0     C46651   0.616   6.744   4.307 -0.0003  0.1419 -0.2707
  354MOL0     C46652   0.737   6.759   4.379 -1.0580 -0.2217 -0.4680
  354MOL0     C46653   0.762   6.670   4.487 -0.3769  0.4429 -0.1839
  354MOL0     O46654   0.878   6.654   4.558  0.1166 -0.7705  0.2025
  354MOL0     C46655   0.945   6.777   4.593  0.1083 -0.7484  0.2040
  354MOL0     C46656   1.074   6.722   4.646  0.2924 -0.3207  0.0624
  354MOL0     C46657   1.145   6.825   4.741  0.6596  0.7156  0.3745
  354MOL0     C46658   1.267   6.779   4.808 -0.5492 -0.0430 -0.3815
  354MOL0     C46659   1.361   6.700   4.720 -0.3887  0.0190 -0.1066
  354MOL0     C46660   1.436   6.618   4.663  0.9629 -0.0217  0.3650
  354MOL0     C46661   0.664   6.580   4.522 -0.3345 -0.4141  0.0317
  354MOL0     C46662   0.551   6.561   4.456 -0.1345 -0.6021  0.2626
  354MOL0     H46663   0.128   6.729   4.228  1.8735 -2.0031  1.1466
  354MOL0     H46664  -0.102   6.674   4.141  1.1325  1.1393 -0.2296
  354MOL0     H46665  -0.278   6.505   4.345 -1.2756  0.3443  1.2256
  354MOL0     H46666  -0.309   6.347   4.310 -0.3532  0.4715  1.4948
  354MOL0     H46667  -0.486   6.420   4.145  0.9144  0.0805 -0.3417
  354MOL0     H46668  -0.441   6.593   4.169  1.5332 -0.1138  0.5763
  354MOL0     H46669  -0.515   6.562   4.410  0.6754 -1.8130  1.8849
  354MOL0     H46670  -0.589   6.411   4.361 -0.7861 -0.0400 -3.0164
  354MOL0     H46671  -0.636   6.692   4.234  0.4030 -0.6795 -0.4270
  354MOL0     H46672  -0.712   6.529   4.182 -0.2409 -1.0184  1.0059
  354MOL0     H46673  -0.870   6.662   4.312  1.1053  0.4159 -2.2470
  354MOL0     H46674  -0.751   6.687   4.438 -0.2272 -1.2099  1.0079
  354MOL0     H46675  -0.753   6.450   4.488  0.5479  2.0852  0.5864
  354MOL0     H46676  -0.847   6.421   4.336 -0.2912  1.4781 -0.8531
  354MOL0     H46677  -1.028   6.587   4.438 -2.0901 -0.8868  1.4482
  354MOL0     H46678  -1.030   6.424   4.512 -0.0372 -0.5094  2.3290
  354MOL0     H46679  -0.910   6.675   4.634  1.9854 -1.8336 -2.0498
  354MOL0     H46680  -0.908   6.505   4.700  2.2563  1.0005 -0.4669
  354MOL0     H46681  -1.196   6.796   4.636 -2.5342 -0.1408  0.7098
  354MOL0     H46682  -1.517   6.617   4.798  1.3485  0.5338  1.5381
  354MOL0     H46683  -1.474   6.734   4.677 -2.6810 -1.0827  0.1187
  354MOL0     H46684  -1.361   6.878   4.862 -0.2474 -0.1662 -1.1548
  354MOL0     H46685  -1.401   6.739   4.967  1.7826  0.8102 -0.8895
  354MOL0     H46686  -1.558   6.964   4.951 -2.7129 -0.5129 -0.5416
  354MOL0     H46687  -1.625   6.885   4.808 -3.7946 -1.6352  1.0664
  354MOL0     H46688  -1.603   6.734   5.072 -0.1458 -1.4920  0.8202
  354MOL0     H46689  -1.732   6.718   4.948 -1.2857  0.9893  0.1218
  354MOL0     H46690  -1.713   6.846   5.296 -0.5969  0.3243  0.8001
  354MOL0     H46691  -1.873   6.755   5.470 -0.1329  0.2334  0.1509
  354MOL0     H46692  -2.492   6.695   5.383 -1.6064 -0.2743  0.5057
  354MOL0     H46693  -2.663   6.559   5.498 -0.2115  0.2752 -0.8393
  354MOL0     H46694  -2.685   6.134   5.597 -1.9816  0.1794 -0.0485
  354MOL0     H46695  -2.604   6.190   5.450  0.6931 -0.5909  0.2089
  354MOL0     H46696  -2.852   6.152   5.473 -0.5862  0.0805  0.9470
  354MOL0     H46697  -2.794   6.314   5.392 -2.2635  1.4284  0.4476
  354MOL0     H46698  -2.876   6.431   5.577  2.3934 -1.7880  2.2079
  354MOL0     H46699  -2.904   6.287   5.670  0.6100 -1.1786 -0.4985
  354MOL0     H46700  -3.068   6.391   5.438  0.5643  0.0695 -0.1390
  354MOL0     H46701  -3.066   6.218   5.465  3.1092  0.7106 -2.4070
  354MOL0     H46702  -3.159   6.427   5.659  2.9136 -0.4556  0.1153
  354MOL0     H46703  -3.113   6.267   5.715  3.7409 -1.8811 -1.7352
  354MOL0     H46704  -3.272   6.161   5.553  0.4185 -0.9482  2.8675
  354MOL0     H46705  -3.323   6.329   5.506  1.7897  1.2354  0.9336
  354MOL0     H46706  -3.387   6.158   5.748 -1.6074  0.4692  0.3614
  354MOL0     H46707  -3.407   6.341   5.755  0.9842  0.1119 -0.3291
  354MOL0     H46708  -3.604   6.217   5.724 -1.0213  1.2776 -1.0333
  354MOL0     H46709  -3.555   6.151   5.567  1.8397 -1.2523 -0.2408
  354MOL0     H46710  -2.353   6.262   5.580  0.9916 -0.0083  0.5496
  354MOL0     H46711  -2.193   6.400   5.474  1.1747  3.4066 -2.3153
  354MOL0     H46712  -2.163   6.741   5.149  0.6744 -1.6214 -1.2453
  354MOL0     H46713  -1.986   6.810   4.995  1.6560  0.7946 -0.4407
  354MOL0     H46714  -0.044   6.276   4.280  0.0934 -0.0478 -0.1143
  354MOL0     H46715   0.182   6.338   4.363 -0.3654  0.5851  1.7084
  354MOL0     H46716   0.606   6.812   4.224  3.2041 -3.3362 -3.9467
  354MOL0     H46717   0.815   6.827   4.348  0.8626 -0.2779  3.5944
  354MOL0     H46718   0.885   6.813   4.677  2.5673  0.8601  1.3747
  354MOL0     H46719   0.955   6.857   4.520 -1.3289 -1.0356 -0.3313
  354MOL0     H46720   1.074   6.624   4.695 -0.8197 -0.5864 -0.4450
  354MOL0     H46721   1.140   6.697   4.563 -0.2903 -1.1647 -0.1592
  354MOL0     H46722   1.074   6.866   4.814  0.3276 -2.3045  1.9102
  354MOL0     H46723   1.167   6.910   4.677  1.0058  0.4454  0.1320
  354MOL0     H46724   1.323   6.868   4.840 -2.1667 -0.1636  3.3551
  354MOL0     H46725   1.247   6.732   4.905 -1.3679  1.4510  0.2112
  354MOL0     H46726   1.495   6.541   4.617 -0.2423 -0.4383 -0.5471
  354MOL0     H46727   0.699   6.515   4.602  2.6783 -0.0410 -0.8484
  354MOL0     H46728   0.492   6.475   4.487 -1.0137  0.2872  1.1003
  355MOL0     O46729   3.922   5.089   0.805 -0.2376 -0.2884 -0.6128
  355MOL0     C46730   3.932   5.213   0.801  0.1947 -0.9283 -0.6789
  355MOL0     O46731   3.839   5.305   0.758  0.4757  0.2224  0.1944
  355MOL0     C46732   3.756   5.259   0.656 -0.2166 -0.3074  0.0639
  355MOL0     C46733   3.800   5.245   0.522 -0.0162  0.1766  0.4857
  355MOL0     C46734   3.714   5.178   0.432  0.4589  0.0928 -0.0796
  355MOL0     C46735   3.590   5.121   0.477 -0.4434 -0.0752  0.0298
  355MOL0     O46736   3.517   5.041   0.394  0.0707 -0.0536 -0.7247
  355MOL0     C46737   3.593   4.994   0.283  0.9111  0.4428  0.7404
  355MOL0     C46738   3.528   4.868   0.217  0.2695 -0.1198 -0.5669
  355MOL0     C46739   3.380   4.883   0.199 -0.1285  0.8740 -0.2071
  355MOL0     C46740   3.329   5.005   0.131  0.2293 -0.3136  0.8889
  355MOL0     C46741   3.192   4.980   0.052  0.2637 -0.0464  0.2075
  355MOL0     C46742   3.083   4.954   0.155 -0.2876  0.2500 -0.4924
  355MOL0     C46743   2.940   4.974   0.098 -0.4389 -0.5578  1.0018
  355MOL0     C46744   2.840   4.914   0.194 -0.7265 -0.6343 -0.0371
  355MOL0     N46745   2.704   4.938   0.140 -0.8133  0.3578  0.1554
  355MOL0     C46746   2.616   4.838   0.092 -1.3403 -0.8524  0.5434
  355MOL0     C46747   2.501   4.903   0.066 -0.3893 -0.6899 -0.7621
  355MOL0     C46748   2.376   4.846   0.004 -0.1226 -0.3139 -0.6115
  355MOL0     C46749   2.267   4.938   0.033  0.3297 -0.1223  1.1639
  355MOL0     C46750   2.129   4.883   0.021  0.5328 -0.5449 -0.2089
  355MOL0     C46751   2.108   4.810  -0.108  0.4749 -0.7419  0.1663
  355MOL0     O46752   1.989   4.738  -0.127  0.3529 -0.3055 -0.9726
  355MOL0     C46753   1.870   4.803  -0.148  0.3496 -0.3097 -0.0287
  355MOL0     C46754   1.748   4.749  -0.113 -0.7947 -0.3306 -0.0442
  355MOL0     C46755   1.624   4.799  -0.160 -0.5756  0.7055 -0.1676
  355MOL0     C46756   1.622   4.904  -0.245  0.0525 -0.0233 -0.3437
  355MOL0     C46757   1.491   4.965  -0.295 -1.0693  0.0951 -0.6607
  355MOL0     O46758   1.392   4.875  -0.284 -0.4887  0.0933 -0.6226
  355MOL0     C46759   1.263   4.907  -0.305 -0.0351  1.2632 -0.1285
  355MOL0     C46760   1.214   5.013  -0.385 -0.2304  0.8191 -0.3709
  355MOL0     C46761   1.083   5.058  -0.395  0.0422  0.7865 -0.7537
  355MOL0     C46762   0.981   4.979  -0.332  0.1349  0.3601 -0.1036
  355MOL0     O46763   0.849   4.984  -0.349 -0.6635  0.5389  0.1546
  355MOL0     C46764   0.798   5.110  -0.396 -0.6392  0.2912  0.6903
  355MOL0     C46765   0.646   5.124  -0.406 -0.1069  0.4204  0.2320
  355MOL0     C46766   0.592   5.153  -0.265  0.5667  1.1848 -0.3784
  355MOL0     C46767   0.568   5.021  -0.189  0.3021  0.3498  0.0646
  355MOL0     C46768   0.471   5.028  -0.071  0.6157  0.0213 -0.8321
  355MOL0     C46769   0.329   5.027  -0.126  0.3706  1.1465  0.5094
  355MOL0     C46770   0.240   5.064  -0.011  0.3241 -0.3834  0.5595
  355MOL0     C46771   0.101   5.080  -0.074  0.7822  0.1058 -1.0842
  355MOL0    Cl46772   0.092   5.195  -0.209 -0.1649 -0.1505 -0.4258
  355MOL0     C46773   1.027   4.859  -0.262 -0.2777  0.5553  0.2506
  355MOL0     C46774   1.164   4.834  -0.238 -0.1780  0.3344 -0.2716
  355MOL0     O46775   1.485   5.080  -0.324  0.5121  0.0292 -0.0677
  355MOL0     C46776   1.745   4.965  -0.284  1.0915 -0.3288  0.5348
  355MOL0     C46777   1.861   4.923  -0.225 -0.8381 -1.0563  0.1541
  355MOL0     N46778   2.518   5.034   0.117  0.2820  1.0432 -0.1462
  355MOL0     N46779   2.633   5.055   0.157 -0.0504  0.0891 -0.2057
  355MOL0     C46780   3.541   5.141   0.606 -0.0884  0.1054 -0.0643
  355MOL0     C46781   3.627   5.223   0.687 -0.0423 -0.5779 -0.2518
  355MOL0     C46782   4.067   5.260   0.852 -0.8172 -0.3984 -1.1077
  355MOL0     C46783   4.170   5.181   0.908  0.1574  0.1015 -0.1523
  355MOL0     C46784   4.282   5.237   0.971 -0.9729  0.7386  0.2413
  355MOL0     C46785   4.289   5.379   0.982 -0.6112  0.7635 -0.4021
  355MOL0     O46786   4.392   5.443   1.046  0.5582 -0.0875 -0.6055
  355MOL0     C46787   4.517   5.388   1.023 -0.3218  0.7022  0.6698
  355MOL0     C46788   4.623   5.492   1.073 -0.2621 -0.3938 -0.5775
  355MOL0     C46789   4.757   5.428   1.104 -0.0057  0.2472 -0.3248
  355MOL0     C46790   4.857   5.532   1.161 -0.3906  0.5700  0.9852
  355MOL0     C46791   4.842   5.549   1.305  0.6898  0.4398  0.2915
  355MOL0     C46792   4.812   5.552   1.420  0.2998 -0.4847 -0.7517
  355MOL0     C46793   4.194   5.463   0.919  0.6012 -0.1331 -0.2075
  355MOL0     C46794   4.084   5.404   0.850 -0.6460  0.0916  0.2064
  355MOL0     H46795   3.901   5.273   0.493 -0.6341  0.1945 -1.8091
  355MOL0     H46796   3.750   5.163   0.330 -0.4459  1.1665 -0.5867
  355MOL0     H46797   3.697   4.973   0.309  0.9072  0.8048  1.0624
  355MOL0     H46798   3.596   5.067   0.202 -0.1078 -1.5621 -1.1977
  355MOL0     H46799   3.559   4.778   0.271 -0.3779  0.0946  0.1889
  355MOL0     H46800   3.564   4.858   0.114 -2.2733 -0.4228 -1.4834
  355MOL0     H46801   3.333   4.885   0.298  0.0802  2.0604 -0.1124
  355MOL0     H46802   3.344   4.796   0.144 -0.4646  1.1495 -0.4344
  355MOL0     H46803   3.323   5.086   0.205  1.2260 -1.3843  2.1974
  355MOL0     H46804   3.405   5.036   0.058 -0.7832  1.3899  0.5008
  355MOL0     H46805   3.202   4.896  -0.018 -0.5027 -0.4421  0.5634
  355MOL0     H46806   3.159   5.073   0.006 -0.8110 -0.3151  0.4055
  355MOL0     H46807   3.091   5.014   0.246 -1.5862  2.3952 -1.6835
  355MOL0     H46808   3.095   4.849   0.181  0.2412 -0.7630 -4.1566
  355MOL0     H46809   2.921   5.082   0.086 -2.2978 -1.1568 -3.8598
  355MOL0     H46810   2.924   4.931  -0.001  0.5096  1.4006 -0.0640
  355MOL0     H46811   2.844   4.965   0.291 -1.3615 -0.5149 -0.0716
  355MOL0     H46812   2.864   4.808   0.207 -0.1845 -0.4285  0.6726
  355MOL0     H46813   2.646   4.735   0.077  0.3017 -0.2018 -0.7895
  355MOL0     H46814   2.358   4.750   0.054  1.4140 -0.9180 -1.1307
  355MOL0     H46815   2.381   4.828  -0.104  0.2571 -4.7017 -0.0524
  355MOL0     H46816   2.283   5.019  -0.039  0.2625 -0.0812  1.1954
  355MOL0     H46817   2.268   4.974   0.136 -0.4839  2.3926  0.3662
  355MOL0     H46818   2.111   4.816   0.106 -4.1006 -1.5177 -1.6268
  355MOL0     H46819   2.060   4.968   0.026  1.5324  0.7650 -4.4246
  355MOL0     H46820   2.183   4.731  -0.118 -0.6472 -1.6501 -1.5341
  355MOL0     H46821   2.123   4.882  -0.189  1.7266 -0.2974  0.7627
  355MOL0     H46822   1.750   4.666  -0.043 -1.8366  0.6723  1.2317
  355MOL0     H46823   1.533   4.751  -0.124  0.1713 -0.9233 -0.3775
  355MOL0     H46824   1.296   5.060  -0.438  1.2727 -0.9346  0.2702
  355MOL0     H46825   1.060   5.140  -0.462 -0.9605  1.1036 -0.0483
  355MOL0     H46826   0.848   5.125  -0.492  1.9993 -0.3900  1.8843
  355MOL0     H46827   0.839   5.187  -0.330  0.5848 -0.2324  0.5513
  355MOL0     H46828   0.608   5.033  -0.453  1.3172  1.7200 -3.8705
  355MOL0     H46829   0.618   5.213  -0.465 -0.3716 -0.7281 -1.4607
  355MOL0     H46830   0.496   5.206  -0.272  0.3860  0.9839  0.4095
  355MOL0     H46831   0.668   5.215  -0.218  0.9205  1.6547 -1.5534
  355MOL0     H46832   0.536   4.943  -0.259  0.1277  1.0385 -0.6419
  355MOL0     H46833   0.665   4.998  -0.143  2.4367  2.4569 -2.9706
  355MOL0     H46834   0.493   5.115  -0.009 -0.9673 -0.2542  0.1716
  355MOL0     H46835   0.483   4.938  -0.010  1.7059  1.1335  0.6694
  355MOL0     H46836   0.301   4.927  -0.161 -1.5834  1.6950  0.3255
  355MOL0     H46837   0.333   5.097  -0.211  1.1035  0.1788 -0.2674
  355MOL0     H46838   0.232   4.992   0.071  3.1339  2.0622  3.2161
  355MOL0     H46839   0.271   5.162   0.026 -0.3243 -0.9238  2.6642
  355MOL0     H46840   0.033   5.120   0.001  0.8228 -1.7106 -0.0080
  355MOL0     H46841   0.053   4.986  -0.103 -0.8526 -0.8114  3.6402
  355MOL0     H46842   0.959   4.785  -0.223  2.2890 -0.2921  3.5764
  355MOL0     H46843   1.190   4.757  -0.166 -0.2174 -1.0363 -1.6770
  355MOL0     H46844   1.740   5.056  -0.344 -2.8851 -0.7683 -0.0432
  355MOL0     H46845   1.948   4.987  -0.237 -1.5999  0.4735  2.1346
  355MOL0     H46846   3.453   5.087   0.638  2.6540 -3.9966  1.3629
  355MOL0     H46847   3.587   5.243   0.786  0.1577  0.5343 -0.3859
  355MOL0     H46848   4.153   5.075   0.897  0.5981  0.2817 -3.4204
  355MOL0     H46849   4.356   5.172   1.015 -4.1576 -2.3475  1.5312
  355MOL0     H46850   4.545   5.365   0.920 -0.6966  1.9867  0.2737
  355MOL0     H46851   4.531   5.298   1.084 -0.7832 -0.6706 -1.1563
  355MOL0     H46852   4.633   5.563   0.991  2.0914 -0.2122 -0.1776
  355MOL0     H46853   4.586   5.548   1.159  0.5330  0.5117 -0.8082
  355MOL0     H46854   4.799   5.380   1.015  2.3541 -0.3631  1.0334
  355MOL0     H46855   4.736   5.351   1.179 -0.7322  1.2475  0.5342
  355MOL0     H46856   4.952   5.485   1.133 -1.1009  0.8846 -2.3935
  355MOL0     H46857   4.840   5.628   1.113  2.3269  0.1828 -1.0043
  355MOL0     H46858   4.775   5.563   1.520 -1.8336  1.3055 -1.6395
  355MOL0     H46859   4.207   5.568   0.941 -0.8781 -0.3920  2.3488
  355MOL0     H46860   4.007   5.470   0.810  0.3129  0.7367 -0.6276
  356MOL0     O46861   7.538   9.570  10.617  0.1131 -0.0891 -0.1588
  356MOL0     C46862   7.571   9.683  10.584 -0.6819  1.0865 -0.6721
  356MOL0     O46863   7.487   9.780  10.525 -0.6580  0.4861 -0.2231
  356MOL0     C46864   7.358   9.752  10.506  0.1280  0.2833  0.0145
  356MOL0     C46865   7.277   9.738  10.621 -0.7571 -0.7144 -0.5324
  356MOL0     C46866   7.140   9.715  10.618  0.4700  0.3721  0.1259
  356MOL0     C46867   7.079   9.699  10.491  0.3843  0.0725  0.3725
  356MOL0     O46868   6.946   9.659  10.493 -0.7815 -0.3810 -0.3690
  356MOL0     C46869   6.883   9.613  10.372 -0.4287  0.6973  0.8442
  356MOL0     C46870   6.808   9.729  10.314  0.8131  0.3254 -0.2854
  356MOL0     C46871   6.708   9.669  10.205 -0.1089 -0.6924 -0.2015
  356MOL0     C46872   6.607   9.780  10.180 -0.4981 -0.9092  0.2167
  356MOL0     C46873   6.497   9.732  10.074 -0.1474 -0.4610  0.5068
  356MOL0     C46874   6.401   9.842  10.042  0.1454  0.3040 -0.2969
  356MOL0     C46875   6.318   9.815   9.919  0.3808 -0.1293 -0.2893
  356MOL0     C46876   6.231   9.683   9.931  0.1016 -0.7120  0.6571
  356MOL0     N46877   6.110   9.699  10.008  0.6158 -0.5384 -0.3474
  356MOL0     C46878   5.997   9.757   9.964  0.1758 -0.3818 -0.8007
  356MOL0     C46879   5.912   9.757  10.070 -0.9581 -0.3005  0.5865
  356MOL0     C46880   5.779   9.819  10.068  0.7715  0.2140  0.0117
  356MOL0     C46881   5.670   9.743   9.988  0.2488  0.5266 -0.5853
  356MOL0     C46882   5.535   9.802  10.034  0.2664  0.0076 -0.3176
  356MOL0     C46883   5.431   9.772   9.920 -0.2065 -1.2526 -0.7937
  356MOL0     O46884   5.436   9.633   9.883  0.9535  0.4593 -0.1649
  356MOL0     C46885   5.315   9.576   9.847 -0.0156 -0.2360  0.4335
  356MOL0     C46886   5.301   9.440   9.872  0.5299 -0.2781 -1.0743
  356MOL0     C46887   5.183   9.370   9.852  0.3360  0.2797  0.5349
  356MOL0     C46888   5.076   9.440   9.789 -0.9932  0.7209  0.0267
  356MOL0     C46889   4.957   9.360   9.753  0.9963 -0.1968  0.2207
  356MOL0     O46890   4.857   9.433   9.692  0.0395  0.2789 -0.9313
  356MOL0     C46891   4.729   9.389   9.690 -0.2815  0.5503 -0.9675
  356MOL0     C46892   4.668   9.282   9.771  0.3228 -0.3524  0.2027
  356MOL0     C46893   4.528   9.255   9.760  0.3728 -1.0260  0.0223
  356MOL0     C46894   4.447   9.323   9.665  0.5218  0.2825 -0.8474
  356MOL0     O46895   4.319   9.298   9.646 -0.0251 -0.0344 -0.2954
  356MOL0     C46896   4.240   9.245   9.763 -0.1846  0.5034  0.3848
  356MOL0     C46897   4.097   9.293   9.710 -0.5466 -0.5810  0.1702
  356MOL0     C46898   3.991   9.287   9.818 -0.3150  0.2447 -0.2089
  356MOL0     C46899   3.847   9.309   9.772 -0.2584 -0.0906 -0.1096
  356MOL0     C46900   3.745   9.271   9.873  0.7178 -0.8552 -0.0709
  356MOL0     C46901   3.610   9.330   9.823 -0.6076  0.2883 -0.5089
  356MOL0     C46902   3.502   9.295   9.924  0.1945  0.3317 -0.2334
  356MOL0     C46903   3.378   9.377   9.906  0.2533  0.0005 -0.4128
  356MOL0    Cl46904   3.402   9.550   9.905  0.4056 -0.0581 -0.2445
  356MOL0     C46905   4.508   9.424   9.593 -0.1064 -0.4969  0.0098
  356MOL0     C46906   4.643   9.455   9.599  0.3021 -0.1243  0.1665
  356MOL0     O46907   4.953   9.243   9.786 -0.0770  0.0324 -0.1379
  356MOL0     C46908   5.092   9.572   9.756 -0.1690  0.2787  0.1741
  356MOL0     C46909   5.209   9.637   9.788  0.5991 -0.5057  0.2178
  356MOL0     N46910   5.979   9.708  10.179  0.3781 -0.6105 -0.6482
  356MOL0     N46911   6.099   9.669  10.144  0.0557  0.1549  0.6466
  356MOL0     C46912   7.160   9.717  10.377  0.4033 -0.3620 -0.4653
  356MOL0     C46913   7.298   9.744  10.384  1.1999 -0.2347  0.3109
  356MOL0     C46914   7.716   9.709  10.608 -0.4581 -0.0957  0.0034
  356MOL0     C46915   7.787   9.807  10.538 -0.2726  1.4681 -0.2177
  356MOL0     C46916   7.920   9.842  10.562  0.1096  0.1779 -0.0487
  356MOL0     C46917   7.990   9.768  10.654 -0.2941  0.2098 -0.0735
  356MOL0     O46918   8.123   9.810  10.666 -0.6101 -0.2784 -0.2469
  356MOL0     C46919   8.212   9.728  10.747  0.3481 -0.0393 -0.8086
  356MOL0     C46920   8.176   9.727  10.895 -0.3738 -0.6021 -0.7518
  356MOL0     C46921   8.152   9.869  10.953  1.5840  0.7795  0.0736
  356MOL0     C46922   8.265   9.964  10.922 -0.0759  0.5044 -0.8942
  356MOL0     C46923   8.400   9.914  10.951 -0.2906  0.2735  0.4048
  356MOL0     C46924   8.515   9.881  10.982 -0.2543 -0.3349  0.8643
  356MOL0     C46925   7.930   9.660  10.718  0.0541  0.7749 -0.1718
  356MOL0     C46926   7.793   9.629  10.699  1.2408 -0.4485  0.6489
  356MOL0     H46927   7.329   9.744  10.716 -1.5658  2.6342 -0.1710
  356MOL0     H46928   7.100   9.685  10.714 -1.1414  1.1933 -0.2468
  356MOL0     H46929   6.810   9.538  10.404 -0.4643 -1.0153 -2.7578
  356MOL0     H46930   6.958   9.577  10.301  0.7833  1.5341  1.6633
  356MOL0     H46931   6.868   9.806  10.265 -2.1172  1.8628 -1.7397
  356MOL0     H46932   6.753   9.774  10.397  0.3704 -0.8072  0.0479
  356MOL0     H46933   6.649   9.580  10.230 -1.6623  0.0518 -1.0435
  356MOL0     H46934   6.763   9.637  10.116  0.6370  1.7483 -0.7000
  356MOL0     H46935   6.548   9.797  10.271  1.1590 -1.5014  1.4438
  356MOL0     H46936   6.656   9.874  10.153  1.2746 -1.4499  1.4175
  356MOL0     H46937   6.457   9.637  10.112  3.3489 -2.4142 -0.3305
  356MOL0     H46938   6.537   9.706   9.976  2.3608  2.9216  0.4656
  356MOL0     H46939   6.451   9.938  10.034  0.7050  0.5033  3.4761
  356MOL0     H46940   6.330   9.848  10.126 -0.5878 -1.0687 -0.7804
  356MOL0     H46941   6.257   9.906   9.914  2.1463  1.2918  1.8179
  356MOL0     H46942   6.378   9.814   9.828  0.9748 -3.6791  0.0109
  356MOL0     H46943   6.290   9.603   9.976 -0.3369 -0.9201  0.8660
  356MOL0     H46944   6.198   9.657   9.830 -0.9520 -1.8769  1.2721
  356MOL0     H46945   5.975   9.809   9.871  1.1743  0.9512 -0.3257
  356MOL0     H46946   5.794   9.918  10.025 -3.4048 -0.1574 -2.8958
  356MOL0     H46947   5.749   9.825  10.173 -0.3196  0.3598 -0.2986
  356MOL0     H46948   5.666   9.637  10.016  2.8994  0.6209  0.4113
  356MOL0     H46949   5.683   9.754   9.880 -3.0555  1.3291 -1.0204
  356MOL0     H46950   5.505   9.746  10.123 -0.5869  1.2731  0.2064
  356MOL0     H46951   5.538   9.910  10.047 -1.2936  0.6501 -3.9825
  356MOL0     H46952   5.451   9.850   9.845 -1.1329 -0.3731 -0.1574
  356MOL0     H46953   5.334   9.808   9.957  0.8288  1.8907 -0.7821
  356MOL0     H46954   5.392   9.394   9.909  1.1361  2.1460  0.7283
  356MOL0     H46955   5.173   9.270   9.891 -0.5826  0.0437 -0.2591
  356MOL0     H46956   4.730   9.221   9.837 -0.4024 -0.5336  0.7335
  356MOL0     H46957   4.469   9.191   9.826 -0.7995 -0.7780 -0.7471
  356MOL0     H46958   4.265   9.299   9.855 -1.4500 -0.1985  1.1811
  356MOL0     H46959   4.250   9.136   9.775  0.7871  0.6171  0.6553
  356MOL0     H46960   4.077   9.225   9.627  0.3769  1.4771 -1.8619
  356MOL0     H46961   4.099   9.397   9.675 -0.9078  0.7909  3.8063
  356MOL0     H46962   4.019   9.354   9.900 -3.4677 -0.0756  1.2618
  356MOL0     H46963   3.999   9.185   9.856 -0.3332  0.6290  0.8740
  356MOL0     H46964   3.841   9.414   9.745 -1.0759 -0.9133 -3.6227
  356MOL0     H46965   3.829   9.254   9.679 -0.4399 -0.9940  0.4407
  356MOL0     H46966   3.778   9.303   9.972 -0.3301 -2.0467  0.6942
  356MOL0     H46967   3.743   9.163   9.888  0.2951 -0.6718  1.3827
  356MOL0     H46968   3.591   9.305   9.719 -1.2049  2.1666 -0.8706
  356MOL0     H46969   3.612   9.439   9.817 -2.5063  0.2892 -2.2060
  356MOL0     H46970   3.479   9.188   9.931  0.0569  0.2546 -1.5515
  356MOL0     H46971   3.533   9.318  10.026  0.0546  0.0512 -0.1273
  356MOL0     H46972   3.302   9.350   9.980 -0.3731 -3.1116 -2.0400
  356MOL0     H46973   3.340   9.366   9.804  1.6975  1.3504 -1.1465
  356MOL0     H46974   4.448   9.492   9.534 -0.3416 -1.6856 -1.1783
  356MOL0     H46975   4.683   9.532   9.533 -2.6432  0.8409 -0.6677
  356MOL0     H46976   5.009   9.610   9.699 -0.0593 -0.9099 -0.8237
  356MOL0     H46977   5.204   9.741   9.756  1.5590 -0.5940 -0.2461
  356MOL0     H46978   7.125   9.706  10.275  1.5014 -0.2083 -0.8763
  356MOL0     H46979   7.352   9.765  10.293 -0.8571 -4.4141 -2.1715
  356MOL0     H46980   7.726   9.863  10.468 -1.5777 -0.1273 -0.4079
  356MOL0     H46981   7.963   9.919  10.500 -2.8112  2.0870  0.1072
  356MOL0     H46982   8.314   9.764  10.731  0.1530 -0.6281 -3.9277
  356MOL0     H46983   8.226   9.626  10.710  0.0408 -0.4430  0.1378
  356MOL0     H46984   8.096   9.658  10.922 -1.0150 -0.1207 -1.3847
  356MOL0     H46985   8.259   9.688  10.955 -0.9667 -2.6583 -1.1775
  356MOL0     H46986   8.147   9.873  11.062 -2.1578  1.2238  0.0118
  356MOL0     H46987   8.055   9.910  10.922  1.0139 -0.3774  0.2810
  356MOL0     H46988   8.248   9.988  10.817 -0.2904 -0.5155 -1.0956
  356MOL0     H46989   8.259  10.057  10.979 -1.0049  1.1378 -1.9925
  356MOL0     H46990   8.618   9.853  10.987 -0.2923 -1.2148 -1.7999
  356MOL0     H46991   7.974   9.588  10.787 -1.7446 -1.6056 -1.3669
  356MOL0     H46992   7.745   9.548  10.753 -0.4010 -1.8757 -2.7106
  357MOL0     O46993   9.355   5.155   0.727  0.3948 -0.3924 -0.0299
  357MOL0     C46994   9.399   5.197   0.833 -0.3347  0.0674  0.7745
  357MOL0     O46995   9.332   5.261   0.937  0.0659 -0.0526  0.0882
  357MOL0     C46996   9.191   5.290   0.939  0.7425 -0.9827 -0.0932
  357MOL0     C46997   9.148   5.337   1.068 -0.2397  0.3343  0.6645
  357MOL0     C46998   9.017   5.388   1.086 -0.4661  0.1780  0.6189
  357MOL0     C46999   8.931   5.387   0.979  0.5394 -0.4432  1.0379
  357MOL0     O47000   8.795   5.413   0.988  0.2242  0.0907 -0.6790
  357MOL0     C47001   8.735   5.353   1.104  0.5100 -0.1700 -0.0843
  357MOL0     C47002   8.592   5.310   1.060 -0.4132 -0.1605  0.2569
  357MOL0     C47003   8.604   5.206   0.943  0.2392  0.2542 -0.6033
  357MOL0     C47004   8.466   5.157   0.898  0.4130  0.3881  0.1421
  357MOL0     C47005   8.467   5.116   0.745 -0.1018 -0.3249  0.1794
  357MOL0     C47006   8.349   5.028   0.704 -0.1530 -0.3161  0.4336
  357MOL0     C47007   8.357   5.005   0.550 -0.1184 -0.5460  0.0406
  357MOL0     C47008   8.303   5.120   0.456  0.7864 -0.0909 -0.0420
  357MOL0     N47009   8.296   5.073   0.312  0.3495 -0.1120  0.3072
  357MOL0     C47010   8.180   5.019   0.258 -0.4322 -0.9530 -0.0720
  357MOL0     C47011   8.214   4.985   0.137  0.1530  0.4137  0.5138
  357MOL0     C47012   8.126   4.926   0.026  0.4011 -0.9941 -0.5153
  357MOL0     C47013   7.997   5.015  -0.001 -0.2235  0.3780  0.5487
  357MOL0     C47014   7.904   4.974  -0.114 -1.0713  0.2116  0.0693
  357MOL0     C47015   7.912   5.053  -0.245 -0.2701  0.1427 -0.1102
  357MOL0     O47016   7.870   5.185  -0.211  0.0132  0.1482  0.5209
  357MOL0     C47017   7.771   5.252  -0.279  0.4372 -0.8119  0.5921
  357MOL0     C47018   7.721   5.359  -0.209 -0.6152  0.6398 -0.6392
  357MOL0     C47019   7.617   5.437  -0.269 -0.2678 -0.5357 -0.3544
  357MOL0     C47020   7.560   5.406  -0.395  1.3953 -1.1913  0.3178
  357MOL0     C47021   7.452   5.486  -0.452  0.4271  0.3945 -0.2971
  357MOL0     O47022   7.431   5.468  -0.581 -0.7963 -0.0270  0.0068
  357MOL0     C47023   7.325   5.495  -0.661 -0.8451 -0.0874 -0.0974
  357MOL0     C47024   7.189   5.508  -0.619 -0.2076  0.1278 -0.3704
  357MOL0     C47025   7.087   5.528  -0.711  0.2409 -0.6460  0.8138
  357MOL0     C47026   7.115   5.518  -0.851 -0.0238  0.1739 -0.1140
  357MOL0     O47027   7.016   5.540  -0.945 -1.1020 -0.2369  0.6398
  357MOL0     C47028   6.984   5.450  -1.058 -0.4466 -0.1668 -0.2386
  357MOL0     C47029   6.862   5.369  -1.012  0.1637 -0.4048 -1.0231
  357MOL0     C47030   6.733   5.449  -1.008 -0.4437 -0.3059  0.4742
  357MOL0     C47031   6.624   5.344  -0.982 -0.6264 -0.0966 -0.2864
  357MOL0     C47032   6.483   5.410  -0.974 -0.2076  0.7262  0.1848
  357MOL0     C47033   6.364   5.306  -0.974 -1.0342  0.8317  0.3008
  357MOL0     C47034   6.356   5.222  -1.106 -0.0857 -1.2948 -0.2605
  357MOL0     C47035   6.223   5.145  -1.118  0.5515 -0.3118  0.5760
  357MOL0    Cl47036   6.223   5.043  -1.264 -0.1391  0.2458  0.2089
  357MOL0     C47037   7.240   5.484  -0.892  0.6691 -0.6193 -0.0699
  357MOL0     C47038   7.350   5.487  -0.799 -0.3998  0.5688 -0.5874
  357MOL0     O47039   7.378   5.557  -0.373 -1.1008 -0.7396 -0.2934
  357MOL0     C47040   7.613   5.303  -0.469 -0.2595  0.0393  0.5087
  357MOL0     C47041   7.717   5.227  -0.408  1.1820  0.1498  0.3411
  357MOL0     N47042   8.345   5.018   0.116 -0.7505 -0.2748  0.4376
  357MOL0     N47043   8.392   5.086   0.218 -0.3665  0.2366 -0.5738
  357MOL0     C47044   8.968   5.337   0.853 -0.0422  0.3641  0.1137
  357MOL0     C47045   9.102   5.300   0.832 -0.0313  0.0700 -0.1185
  357MOL0     C47046   9.541   5.187   0.845 -0.3655 -0.8338 -0.0285
  357MOL0     C47047   9.617   5.098   0.763 -0.3024 -0.3392 -0.5001
  357MOL0     C47048   9.752   5.092   0.783 -0.2069 -0.6507 -0.5339
  357MOL0     C47049   9.818   5.169   0.880 -0.7549  0.5517 -0.6364
  357MOL0     O47050   9.954   5.164   0.898  0.0421 -0.6344  0.0191
  357MOL0     C47051  10.036   5.123   0.787  0.0007  0.8036 -0.3143
  357MOL0     C47052  10.185   5.148   0.821  0.4887 -0.1589  0.4333
  357MOL0     C47053  10.232   5.288   0.798 -1.0017  0.1591 -0.5975
  357MOL0     C47054  10.376   5.307   0.871 -0.7470  0.7056  1.0696
  357MOL0     C47055  10.447   5.431   0.850  0.2769 -1.3568  0.1751
  357MOL0     C47056  10.521   5.532   0.846 -0.0148  0.3618  0.0452
  357MOL0     C47057   9.740   5.256   0.956 -0.9593 -0.8575 -0.6914
  357MOL0     C47058   9.603   5.253   0.948 -0.2939  0.2022 -0.4271
  357MOL0     H47059   9.220   5.335   1.149  2.7772  3.0925 -1.6905
  357MOL0     H47060   8.997   5.420   1.187  0.6388  2.5192  0.1637
  357MOL0     H47061   8.740   5.431   1.181  3.3627  1.2459 -1.5368
  357MOL0     H47062   8.795   5.265   1.124  0.9998 -0.4563 -2.4616
  357MOL0     H47063   8.542   5.403   1.031  4.2520  1.9426 -2.2500
  357MOL0     H47064   8.543   5.261   1.145 -2.1971 -0.3444 -0.8351
  357MOL0     H47065   8.667   5.123   0.976  2.1593  1.0846 -2.0068
  357MOL0     H47066   8.655   5.261   0.863 -0.6190 -0.8021 -1.9142
  357MOL0     H47067   8.444   5.066   0.955 -0.9523 -0.6475 -1.9446
  357MOL0     H47068   8.402   5.236   0.938  3.9057  2.4410  2.2104
  357MOL0     H47069   8.559   5.065   0.716 -1.1675 -1.0700 -2.2012
  357MOL0     H47070   8.475   5.206   0.682 -0.1425 -0.1010  0.4903
  357MOL0     H47071   8.262   5.086   0.734 -0.1579  0.6741 -1.3581
  357MOL0     H47072   8.369   4.929   0.745  0.9680  0.1681  1.1204
  357MOL0     H47073   8.463   4.989   0.528  0.3196 -0.8153  2.0882
  357MOL0     H47074   8.298   4.917   0.522 -1.4929 -0.6088  2.7608
  357MOL0     H47075   8.355   5.216   0.454 -0.3030  0.5836  1.7583
  357MOL0     H47076   8.202   5.145   0.492  0.1183 -3.0043  0.3921
  357MOL0     H47077   8.087   5.005   0.313 -2.6718 -0.2881 -3.3755
  357MOL0     H47078   8.098   4.823   0.049 -0.1562 -0.4411  1.4643
  357MOL0     H47079   8.183   4.936  -0.067 -1.2165  1.6769 -1.3437
  357MOL0     H47080   8.019   5.121  -0.013  0.6786  0.0871 -0.6415
  357MOL0     H47081   7.941   5.021   0.092  1.8435 -1.7463  2.0666
  357MOL0     H47082   7.915   4.867  -0.135  1.2928 -0.0608  2.2012
  357MOL0     H47083   7.800   4.983  -0.082 -1.1692  0.0919 -0.2150
  357MOL0     H47084   7.845   5.001  -0.314  0.4196 -1.8389  0.6277
  357MOL0     H47085   8.015   5.047  -0.284  0.0312 -0.5554  0.7561
  357MOL0     H47086   7.765   5.375  -0.111 -1.1356 -2.6043  0.2172
  357MOL0     H47087   7.574   5.516  -0.208 -0.4035  0.3721 -1.5900
  357MOL0     H47088   7.159   5.516  -0.515 -1.0610 -1.2711 -0.4786
  357MOL0     H47089   6.983   5.521  -0.683  0.6883 -0.5550  2.5895
  357MOL0     H47090   7.066   5.380  -1.078 -1.6193 -0.7957 -3.4279
  357MOL0     H47091   6.962   5.514  -1.144  0.9617 -0.5173 -0.8914
  357MOL0     H47092   6.885   5.333  -0.911 -1.3514 -0.1761 -0.5792
  357MOL0     H47093   6.847   5.279  -1.073 -1.1651  0.0703 -1.4073
  357MOL0     H47094   6.726   5.488  -1.110  0.6792 -0.2119  0.4282
  357MOL0     H47095   6.718   5.523  -0.930 -1.3514  1.9862 -1.7306
  357MOL0     H47096   6.625   5.264  -1.056 -2.1688  1.7132 -2.4038
  357MOL0     H47097   6.649   5.312  -0.880  3.0271  2.0781 -0.3544
  357MOL0     H47098   6.469   5.479  -1.058  0.8310 -0.3306 -0.8983
  357MOL0     H47099   6.475   5.471  -0.884 -3.9375 -2.3471  2.2363
  357MOL0     H47100   6.273   5.367  -0.973 -0.9182  1.2535 -3.0899
  357MOL0     H47101   6.364   5.237  -0.889 -0.4308  0.0738 -0.3051
  357MOL0     H47102   6.390   5.291  -1.185  4.9874 -1.3640  1.4830
  357MOL0     H47103   6.433   5.144  -1.099  1.4471  0.3362  3.3452
  357MOL0     H47104   6.129   5.200  -1.125  0.5022 -0.5331 -0.6523
  357MOL0     H47105   6.212   5.078  -1.032 -3.4645  0.5741  0.9822
  357MOL0     H47106   7.260   5.462  -0.996 -1.1769 -0.7803 -0.4341
  357MOL0     H47107   7.448   5.446  -0.824 -1.3611 -1.7030 -0.9053
  357MOL0     H47108   7.573   5.273  -0.566 -3.3517  1.6160  1.1714
  357MOL0     H47109   7.741   5.139  -0.466 -2.9932 -2.1533  1.7001
  357MOL0     H47110   8.898   5.338   0.771 -0.1749  0.2765  0.2251
  357MOL0     H47111   9.141   5.277   0.734 -0.0523  0.7300 -0.2830
  357MOL0     H47112   9.577   5.035   0.684  1.4859 -1.6349 -0.4281
  357MOL0     H47113   9.809   5.024   0.720  2.2180  3.1436 -2.8542
  357MOL0     H47114  10.014   5.167   0.689  0.6330  0.1188 -0.7833
  357MOL0     H47115  10.023   5.015   0.774 -1.1287  0.9304 -0.3833
  357MOL0     H47116  10.205   5.109   0.922  2.0376  4.0541  2.0049
  357MOL0     H47117  10.238   5.082   0.753  0.5302 -0.7382  1.0134
  357MOL0     H47118  10.160   5.362   0.834 -0.3823 -0.0591  1.2216
  357MOL0     H47119  10.239   5.315   0.693 -2.2521  1.1333 -0.4501
  357MOL0     H47120  10.351   5.308   0.978 -1.2925  3.1725  0.9843
  357MOL0     H47121  10.446   5.229   0.841  0.8569  0.9488  3.8641
  357MOL0     H47122  10.583   5.619   0.838 -0.9083  1.0715  0.6460
  357MOL0     H47123   9.797   5.322   1.020  0.5619 -0.7302 -2.1045
  357MOL0     H47124   9.541   5.312   1.015 -1.4717  2.5943 -3.3806
  358MOL0     O47125   8.302   2.683   3.372  0.0644  0.3815 -0.8621
  358MOL0     C47126   8.303   2.612   3.268  0.6079 -0.0053 -0.3102
  358MOL0     O47127   8.195   2.556   3.204 -0.2794  0.4356  0.9521
  358MOL0     C47128   8.078   2.561   3.278  0.1573  0.1979  0.0814
  358MOL0     C47129   8.028   2.448   3.340  0.1251 -0.7383 -0.1908
  358MOL0     C47130   7.918   2.447   3.435  0.1374 -0.0001  0.4267
  358MOL0     C47131   7.875   2.568   3.481 -0.5523 -0.2188 -0.2255
  358MOL0     O47132   7.788   2.572   3.586  0.0469  0.1519  0.1664
  358MOL0     C47133   7.739   2.694   3.634  0.3753 -0.6262 -0.6308
  358MOL0     C47134   7.664   2.696   3.777 -0.6766  0.4832  0.4612
  358MOL0     C47135   7.650   2.837   3.826 -0.1261  0.3367  0.0634
  358MOL0     C47136   7.585   2.851   3.962 -0.1315 -0.5051 -0.0485
  358MOL0     C47137   7.598   2.999   4.014  0.7774 -0.4902 -0.1134
  358MOL0     C47138   7.538   3.119   3.934 -0.1845 -0.3271  0.9092
  358MOL0     C47139   7.387   3.132   3.955  0.1845 -0.4302 -0.4949
  358MOL0     C47140   7.325   3.246   3.858  0.0394  0.2563  0.4586
  358MOL0     N47141   7.188   3.272   3.920  0.9280  0.4382 -0.1894
  358MOL0     C47142   7.152   3.343   4.035  0.1751 -0.4367 -0.2344
  358MOL0     C47143   7.014   3.330   4.033 -0.1534 -0.0290 -0.3722
  358MOL0     C47144   6.918   3.395   4.123 -0.2002  0.8642  0.2116
  358MOL0     C47145   6.844   3.287   4.212  0.1573 -0.1094 -0.0413
  358MOL0     C47146   6.729   3.211   4.139 -0.2345  0.0174  0.1195
  358MOL0     C47147   6.683   3.089   4.222  0.4897 -0.3192 -0.3717
  358MOL0     O47148   6.640   3.135   4.356  0.0515 -0.5019  0.6230
  358MOL0     C47149   6.505   3.111   4.371 -0.3185  0.2029  0.7102
  358MOL0     C47150   6.461   3.013   4.460  0.0589 -0.7947 -0.2899
  358MOL0     C47151   6.327   2.990   4.474 -0.2200 -1.4702 -0.1790
  358MOL0     C47152   6.230   3.067   4.401 -0.0996  0.8644  0.4215
  358MOL0     C47153   6.083   3.040   4.422  0.4338 -0.1154 -0.8426
  358MOL0     O47154   5.999   3.101   4.334 -0.1000 -0.6408 -0.4212
  358MOL0     C47155   5.863   3.080   4.349 -1.0827  0.2842  0.2082
  358MOL0     C47156   5.798   2.953   4.330 -0.1656 -0.4452 -0.0819
  358MOL0     C47157   5.662   2.955   4.307 -0.2308 -0.8778  0.2692
  358MOL0     C47158   5.579   3.069   4.297  0.4503 -0.2356  0.0662
  358MOL0     O47159   5.444   3.053   4.268  0.1715 -0.2322 -0.0579
  358MOL0     C47160   5.362   3.150   4.345 -0.6775 -0.4321 -0.3809
  358MOL0     C47161   5.217   3.092   4.368 -0.0808  0.2378  0.0492
  358MOL0     C47162   5.150   3.147   4.497 -0.0510 -1.3078 -0.7406
  358MOL0     C47163   5.007   3.078   4.513 -0.1864 -0.0533  0.2230
  358MOL0     C47164   4.903   3.140   4.419  0.8975 -0.7076 -0.5938
  358MOL0     C47165   4.757   3.103   4.450  1.5297  0.4280 -0.1106
  358MOL0     C47166   4.702   3.129   4.597  0.0328 -0.6883 -0.9528
  358MOL0     C47167   4.549   3.100   4.611 -0.5137  0.3532 -0.5926
  358MOL0    Cl47168   4.523   2.933   4.545  0.1593  0.0243  0.1521
  358MOL0     C47169   5.649   3.196   4.317 -0.4179 -0.3976  0.9336
  358MOL0     C47170   5.793   3.197   4.332  0.4823  0.1510  0.0694
  358MOL0     O47171   6.050   2.960   4.509  0.2826  0.5302 -0.0827
  358MOL0     C47172   6.272   3.160   4.309  0.1658 -0.3655  0.4440
  358MOL0     C47173   6.414   3.179   4.282 -0.0460 -0.9279  0.3211
  358MOL0     N47174   6.974   3.273   3.917 -0.2075 -0.1489 -0.0934
  358MOL0     N47175   7.075   3.254   3.848 -0.0315  0.6790  0.3756
  358MOL0     C47176   7.912   2.675   3.404 -0.2527 -0.6826 -0.8327
  358MOL0     C47177   8.003   2.675   3.297 -0.2537  0.9760  0.1772
  358MOL0     C47178   8.430   2.588   3.198 -0.6259  0.3175  0.5651
  358MOL0     C47179   8.453   2.484   3.111  0.8276 -0.7763  0.3717
  358MOL0     C47180   8.576   2.462   3.044  0.3895 -0.2789  0.4964
  358MOL0     C47181   8.677   2.546   3.073 -1.2558  0.3688 -0.9444
  358MOL0     O47182   8.801   2.550   3.022 -0.1787  0.0823  0.6261
  358MOL0     C47183   8.857   2.420   3.006 -0.1553  0.5634 -0.2495
  358MOL0     C47184   9.004   2.432   2.984 -0.4924  0.3335 -0.1616
  358MOL0     C47185   9.075   2.288   2.957 -0.5232 -0.1065  0.0127
  358MOL0     C47186   9.223   2.307   2.956 -0.5163 -0.5210 -0.0247
  358MOL0     C47187   9.267   2.357   2.830  0.3442 -0.1047  0.2917
  358MOL0     C47188   9.294   2.380   2.716  0.2640 -0.8400  0.3907
  358MOL0     C47189   8.659   2.644   3.176 -0.9601 -0.6241  0.3779
  358MOL0     C47190   8.539   2.672   3.227 -0.2364  0.0026 -0.1412
  358MOL0     H47191   8.074   2.355   3.308 -0.8415 -1.5961  0.8271
  358MOL0     H47192   7.890   2.357   3.489 -0.0622 -0.1754  0.0385
  358MOL0     H47193   7.674   2.741   3.559  0.6803 -2.4542 -2.1352
  358MOL0     H47194   7.828   2.754   3.654 -1.3861  1.6075  1.0506
  358MOL0     H47195   7.729   2.649   3.851 -1.2414  1.9153  1.9199
  358MOL0     H47196   7.569   2.642   3.771  0.2893 -1.1444 -2.1524
  358MOL0     H47197   7.591   2.891   3.751 -2.6294 -4.6770 -1.9940
  358MOL0     H47198   7.750   2.883   3.824  0.2821 -0.5151  0.5614
  358MOL0     H47199   7.481   2.818   3.950 -0.6788  0.8249  0.8356
  358MOL0     H47200   7.638   2.785   4.032  1.8427  1.1761  0.1113
  358MOL0     H47201   7.706   3.016   4.025  0.9533 -0.9610 -1.0280
  358MOL0     H47202   7.546   2.991   4.110 -0.3565 -3.5353 -0.8585
  358MOL0     H47203   7.556   3.097   3.828  0.9023 -0.6947  1.1505
  358MOL0     H47204   7.590   3.212   3.958  1.3200 -0.8620 -0.1081
  358MOL0     H47205   7.343   3.034   3.937 -1.2709  0.3230 -1.2333
  358MOL0     H47206   7.350   3.167   4.052 -2.0930 -0.9782 -1.0952
  358MOL0     H47207   7.326   3.201   3.758 -0.4626  1.1220  0.0512
  358MOL0     H47208   7.372   3.345   3.855 -0.4356  0.4808  0.2417
  358MOL0     H47209   7.217   3.376   4.115 -0.3620 -0.1059  0.0618
  358MOL0     H47210   6.856   3.467   4.070 -0.5448  1.5001  1.4501
  358MOL0     H47211   6.975   3.457   4.193 -0.9763  1.3632  0.4163
  358MOL0     H47212   6.793   3.325   4.301 -2.2613  0.9508 -1.7615
  358MOL0     H47213   6.919   3.217   4.252  0.6015  1.4322  2.0117
  358MOL0     H47214   6.639   3.268   4.115 -0.5030 -0.8561 -1.0496
  358MOL0     H47215   6.771   3.180   4.043  1.2299 -0.0933  0.7658
  358MOL0     H47216   6.755   3.007   4.235  0.5509  0.1131  2.7323
  358MOL0     H47217   6.609   3.043   4.156  3.2876 -2.3557 -2.3356
  358MOL0     H47218   6.539   2.953   4.505  2.2480  0.1987 -2.4957
  358MOL0     H47219   6.292   2.924   4.553  0.5821  0.5949  2.0353
  358MOL0     H47220   5.845   2.855   4.323  0.0558 -0.3254 -0.3129
  358MOL0     H47221   5.609   2.862   4.288 -0.8489  0.1129 -3.6517
  358MOL0     H47222   5.374   3.248   4.299  3.2942  0.6064  2.3760
  358MOL0     H47223   5.405   3.160   4.444  0.3774  1.5258 -1.0012
  358MOL0     H47224   5.241   2.986   4.378  0.0089 -0.0585 -2.5160
  358MOL0     H47225   5.156   3.102   4.278  2.0184  0.3428 -1.4379
  358MOL0     H47226   5.148   3.257   4.494  1.1419 -1.2735 -1.0397
  358MOL0     H47227   5.212   3.127   4.585  0.4522  1.9120 -0.2183
  358MOL0     H47228   5.003   2.970   4.493 -2.0728 -0.1161  0.7548
  358MOL0     H47229   4.970   3.088   4.616  1.0849 -1.7412  0.8951
  358MOL0     H47230   4.931   3.138   4.313 -1.1440  1.6888 -1.2905
  358MOL0     H47231   4.911   3.247   4.444 -0.8159 -0.8842  0.8778
  358MOL0     H47232   4.742   3.001   4.414 -2.0903  1.0789 -0.9151
  358MOL0     H47233   4.687   3.164   4.392  1.7279  1.7658  1.0112
  358MOL0     H47234   4.761   3.066   4.663  2.0802  1.1138 -0.9506
  358MOL0     H47235   4.726   3.231   4.630 -1.0532 -0.6472 -0.2079
  358MOL0     H47236   4.492   3.173   4.553  0.8821 -0.0949 -2.6504
  358MOL0     H47237   4.518   3.115   4.715 -0.5522 -0.8844 -0.4119
  358MOL0     H47238   5.602   3.292   4.298  0.9740  0.2870  0.8427
  358MOL0     H47239   5.851   3.287   4.314 -0.1431  0.5093 -0.2053
  358MOL0     H47240   6.197   3.206   4.246  1.5784  1.7679  0.2389
  358MOL0     H47241   6.447   3.253   4.209 -2.2846 -2.5552 -2.5307
  358MOL0     H47242   7.866   2.773   3.418  1.8692  0.5329 -1.8400
  358MOL0     H47243   8.034   2.770   3.254  0.0900  1.3022  1.1290
  358MOL0     H47244   8.372   2.420   3.077 -0.4530  1.9982 -2.3494
  358MOL0     H47245   8.575   2.384   2.968  1.8801  0.3462 -0.2015
  358MOL0     H47246   8.815   2.380   2.913  1.4793  1.0440 -1.2162
  358MOL0     H47247   8.828   2.361   3.094 -2.2207 -1.5906 -2.2199
  358MOL0     H47248   9.011   2.499   2.898 -2.7741 -1.1698 -1.6365
  358MOL0     H47249   9.058   2.477   3.068  0.2981  1.5533 -1.2857
  358MOL0     H47250   9.032   2.241   2.868  0.5410 -1.2884  0.0974
  358MOL0     H47251   9.056   2.208   3.029  0.9176 -0.6763 -0.2207
  358MOL0     H47252   9.259   2.367   3.039 -0.3094  0.9505 -1.1412
  358MOL0     H47253   9.265   2.207   2.973  0.8100  0.0083 -0.0686
  358MOL0     H47254   9.325   2.403   2.616  0.3722 -0.1530  0.5749
  358MOL0     H47255   8.747   2.709   3.179 -1.3152 -0.1465  0.5467
  358MOL0     H47256   8.528   2.746   3.305  3.2305  0.3421  0.1858
  359MOL0     O47257   1.306   6.078   8.162  0.0862  0.6465 -0.3613
  359MOL0     C47258   1.345   6.010   8.067 -0.8049  0.1902  0.0725
  359MOL0     O47259   1.262   5.960   7.967  0.6714  0.1280  0.3862
  359MOL0     C47260   1.126   5.977   7.986 -0.2710  0.1087  0.4471
  359MOL0     C47261   1.038   5.879   8.021 -0.5468  0.2453 -0.6609
  359MOL0     C47262   0.905   5.906   8.047  0.2922  0.1143  0.6967
  359MOL0     C47263   0.856   6.031   8.030  0.7192  1.0514  0.4049
  359MOL0     O47264   0.723   6.048   8.052 -0.3376 -0.8009  0.5725
  359MOL0     C47265   0.645   6.117   7.947 -0.0654 -0.5915  0.8614
  359MOL0     C47266   0.498   6.088   7.976 -0.4352  0.2942  0.3808
  359MOL0     C47267   0.399   6.144   7.877 -0.5322  0.3778  1.0462
  359MOL0     C47268   0.254   6.113   7.899  0.3839  0.2789  0.1105
  359MOL0     C47269   0.170   6.171   7.780 -0.1493 -0.6916  0.2034
  359MOL0     C47270   0.020   6.141   7.801  1.2754 -0.1382  0.1750
  359MOL0     C47271  -0.062   6.149   7.668 -0.0326 -0.2173  0.9751
  359MOL0     C47272  -0.052   6.282   7.601  0.6552  0.3933  0.5695
  359MOL0     N47273  -0.159   6.322   7.514 -1.0054  0.4692 -0.2055
  359MOL0     C47274  -0.202   6.242   7.411 -0.2913  0.1103 -0.4830
  359MOL0     C47275  -0.304   6.311   7.361 -0.7321 -0.1910  0.4139
  359MOL0     C47276  -0.378   6.305   7.229  0.6244  0.0128  0.0200
  359MOL0     C47277  -0.534   6.317   7.238  0.1484 -0.1949 -0.2368
  359MOL0     C47278  -0.615   6.308   7.103  0.4906 -1.0950  0.4214
  359MOL0     C47279  -0.755   6.382   7.094 -0.0629 -0.4891 -0.2883
  359MOL0     O47280  -0.830   6.356   7.214 -0.1324 -0.5146  0.4242
  359MOL0     C47281  -0.947   6.423   7.240 -0.4192  1.0999  0.7172
  359MOL0     C47282  -0.993   6.421   7.370  0.1692  0.7508 -0.9864
  359MOL0     C47283  -1.115   6.485   7.405  0.3995  0.0331 -0.0007
  359MOL0     C47284  -1.196   6.544   7.300  0.1279 -0.0674 -0.5069
  359MOL0     C47285  -1.323   6.603   7.332  0.7256  0.5172  0.8571
  359MOL0     O47286  -1.402   6.635   7.223 -0.2933 -0.3895 -0.2175
  359MOL0     C47287  -1.521   6.692   7.258  0.5834 -0.4107 -0.0128
  359MOL0     C47288  -1.616   6.626   7.340 -0.2671  0.2219 -0.2851
  359MOL0     C47289  -1.733   6.691   7.376  0.0082  0.3302  0.7052
  359MOL0     C47290  -1.756   6.821   7.325  0.4899 -0.1843 -0.8776
  359MOL0     O47291  -1.860   6.898   7.359  0.5607 -0.3907  0.2176
  359MOL0     C47292  -1.983   6.833   7.326  0.4781 -0.1382  0.7392
  359MOL0     C47293  -2.087   6.944   7.360 -0.4674  0.3843 -0.2885
  359MOL0     C47294  -2.220   6.885   7.331  0.4319 -0.0411  0.5990
  359MOL0     C47295  -2.327   6.987   7.326  0.0821  0.8870 -0.8294
  359MOL0     C47296  -2.462   6.918   7.284  0.4952  0.1538  0.4338
  359MOL0     C47297  -2.559   7.033   7.254  0.3135  0.2058  0.6562
  359MOL0     C47298  -2.688   6.970   7.207  0.8292 -0.2020 -0.1903
  359MOL0     C47299  -2.797   7.074   7.219  0.1805 -0.5714 -0.0232
  359MOL0    Cl47300  -2.945   6.992   7.150 -0.3036  0.2431  0.2007
  359MOL0     C47301  -1.666   6.884   7.241  0.7514  0.1196  0.1620
  359MOL0     C47302  -1.551   6.822   7.204 -0.2875  1.1468  0.0565
  359MOL0     O47303  -1.359   6.617   7.449 -0.1006 -0.4503  0.8995
  359MOL0     C47304  -1.140   6.548   7.167  0.0612  0.7209 -0.7390
  359MOL0     C47305  -1.015   6.484   7.135  0.4911 -1.2974 -0.2763
  359MOL0     N47306  -0.319   6.430   7.433  0.4237 -0.2854  0.4726
  359MOL0     N47307  -0.227   6.437   7.523  0.6857 -0.2509 -0.5852
  359MOL0     C47308   0.935   6.137   8.000 -0.4006  0.1028 -0.0377
  359MOL0     C47309   1.071   6.110   7.977 -0.2671 -0.6184  0.2542
  359MOL0     C47310   1.490   5.976   8.058 -0.5305 -0.0361  0.1291
  359MOL0     C47311   1.582   6.005   8.167  1.4228  0.9394  0.9255
  359MOL0     C47312   1.716   5.994   8.152  0.8336 -0.0759 -0.1078
  359MOL0     C47313   1.770   5.972   8.028  0.4190  0.3688  0.7960
  359MOL0     O47314   1.904   5.975   7.994 -0.2181 -0.5601  0.1400
  359MOL0     C47315   2.002   6.042   8.080  0.3168  0.0426  0.0456
  359MOL0     C47316   1.994   6.194   8.069 -0.0353 -0.4135 -0.0918
  359MOL0     C47317   2.008   6.243   7.921  0.8248  0.2596  0.2831
  359MOL0     C47318   1.995   6.381   7.885 -1.1943  0.1143  0.0590
  359MOL0     C47319   2.120   6.461   7.934  0.1782 -0.8870  0.3961
  359MOL0     C47320   2.219   6.516   7.965 -0.2924 -0.1695 -0.9364
  359MOL0     C47321   1.688   5.942   7.921  0.9489 -0.5647 -0.1592
  359MOL0     C47322   1.552   5.944   7.931  0.0428 -0.5979 -0.9033
  359MOL0     H47323   1.070   5.778   8.041  1.7904  0.4060 -3.0168
  359MOL0     H47324   0.844   5.824   8.083 -0.8728  1.3015  1.5117
  359MOL0     H47325   0.685   6.090   7.849  0.2723 -0.2381  0.8991
  359MOL0     H47326   0.648   6.223   7.973 -1.4925 -0.3552  0.1567
  359MOL0     H47327   0.480   6.129   8.076  0.5662  3.1045 -0.4922
  359MOL0     H47328   0.487   5.979   7.970 -2.1232  0.4223  0.6255
  359MOL0     H47329   0.436   6.104   7.782  0.0654  1.0164  0.9932
  359MOL0     H47330   0.408   6.253   7.864  3.6070 -0.0327 -1.4161
  359MOL0     H47331   0.250   6.004   7.895  1.0095  0.0529  3.2311
  359MOL0     H47332   0.213   6.161   7.988 -1.6715  0.0946 -0.6852
  359MOL0     H47333   0.204   6.135   7.682 -1.8655  0.9745 -1.0766
  359MOL0     H47334   0.185   6.279   7.773 -0.3418 -0.6881 -0.1582
  359MOL0     H47335  -0.039   6.208   7.864  0.0972  0.4678 -1.4972
  359MOL0     H47336   0.022   6.037   7.834  0.8626 -1.1139 -2.5812
  359MOL0     H47337  -0.041   6.066   7.599 -0.2893 -0.4249  1.1420
  359MOL0     H47338  -0.166   6.124   7.693 -0.0933  0.0381  0.9803
  359MOL0     H47339   0.032   6.283   7.531  2.0372 -0.2233  2.1816
  359MOL0     H47340  -0.033   6.353   7.682  0.8206 -0.4445  1.2760
  359MOL0     H47341  -0.172   6.144   7.374  0.4176 -0.2157  0.8889
  359MOL0     H47342  -0.359   6.206   7.188 -1.9705 -1.9014  2.9848
  359MOL0     H47343  -0.352   6.380   7.154  2.0647 -1.7974 -1.3861
  359MOL0     H47344  -0.568   6.412   7.280 -3.0922 -0.0242 -2.8625
  359MOL0     H47345  -0.558   6.241   7.312  1.2274  2.0080  2.5673
  359MOL0     H47346  -0.552   6.332   7.016 -0.6868 -0.1980 -0.2026
  359MOL0     H47347  -0.643   6.202   7.095 -0.4387 -0.8702  0.6042
  359MOL0     H47348  -0.810   6.344   7.008 -1.3109 -0.1126  0.3139
  359MOL0     H47349  -0.750   6.490   7.077 -1.4705 -0.0891  1.5198
  359MOL0     H47350  -0.932   6.374   7.447 -0.2654 -1.2009 -1.7780
  359MOL0     H47351  -1.149   6.501   7.506 -2.5803 -2.4876 -0.4527
  359MOL0     H47352  -1.581   6.531   7.378 -1.1209  0.3025  0.7404
  359MOL0     H47353  -1.807   6.647   7.443 -1.0517 -0.4995 -0.9267
  359MOL0     H47354  -2.002   6.743   7.384 -0.4108 -0.4398 -0.0079
  359MOL0     H47355  -1.984   6.809   7.220 -1.0154 -1.1325  0.9550
  359MOL0     H47356  -2.066   7.034   7.302 -0.7338  1.2665  0.9663
  359MOL0     H47357  -2.077   6.973   7.465  2.2100 -1.9430  0.2363
  359MOL0     H47358  -2.240   6.808   7.407 -0.5987 -1.0866 -0.6837
  359MOL0     H47359  -2.223   6.833   7.235 -1.6026  2.2495 -0.6797
  359MOL0     H47360  -2.346   7.031   7.424  0.8767 -1.6946  0.5753
  359MOL0     H47361  -2.288   7.060   7.254  1.1081 -1.7499 -3.1592
  359MOL0     H47362  -2.496   6.863   7.372  0.5987 -0.0738  0.3303
  359MOL0     H47363  -2.453   6.848   7.201  0.9779 -0.9191  1.3654
  359MOL0     H47364  -2.513   7.094   7.175 -0.6975 -0.6874 -0.6670
  359MOL0     H47365  -2.571   7.100   7.340 -0.7398 -0.0729  0.7363
  359MOL0     H47366  -2.681   6.930   7.105  1.5097  3.1515 -1.5789
  359MOL0     H47367  -2.726   6.882   7.261 -1.8146 -0.6437 -2.5413
  359MOL0     H47368  -2.764   7.165   7.168  2.4584 -0.5542  1.3000
  359MOL0     H47369  -2.815   7.105   7.322  1.1438  1.3666 -0.3882
  359MOL0     H47370  -1.696   6.978   7.196  0.8999 -0.5861 -1.5185
  359MOL0     H47371  -1.475   6.873   7.146 -0.2604  2.4324  1.1592
  359MOL0     H47372  -1.186   6.601   7.083 -3.6134 -2.0174 -0.7064
  359MOL0     H47373  -0.985   6.487   7.031  0.0778  1.5217 -0.3844
  359MOL0     H47374   0.905   6.241   8.001  0.8348  0.4967 -1.1182
  359MOL0     H47375   1.138   6.191   7.950  0.2542 -1.6939 -1.8589
  359MOL0     H47376   1.536   6.046   8.256  2.4236 -0.4905  2.1471
  359MOL0     H47377   1.792   6.021   8.224  2.1780  1.7364 -2.1060
  359MOL0     H47378   2.105   6.013   8.057 -0.1150 -0.1416 -1.7978
  359MOL0     H47379   1.989   6.014   8.185  1.0579  3.2474  1.1222
  359MOL0     H47380   1.901   6.228   8.117  0.7425 -0.4438  1.5131
  359MOL0     H47381   2.074   6.244   8.125  0.3468 -2.3934  1.2319
  359MOL0     H47382   1.930   6.191   7.864  2.8319 -0.1804 -2.2749
  359MOL0     H47383   2.105   6.202   7.889  0.7267 -1.6286  2.2222
  359MOL0     H47384   1.983   6.387   7.776  0.4194  0.6994 -0.1100
  359MOL0     H47385   1.905   6.431   7.921 -0.1401  1.7435  0.5073
  359MOL0     H47386   2.296   6.582   7.997 -0.8727  1.6838 -3.0819
  359MOL0     H47387   1.726   5.921   7.821 -0.3844  1.3582 -1.1424
  359MOL0     H47388   1.488   5.940   7.844 -1.3668 -0.8713  0.1089
  360MOL0     O47389   6.826   6.190   4.516 -0.9257  0.2907  0.6399
  360MOL0     C47390   6.882   6.178   4.621  0.8722  0.0360 -0.1497
  360MOL0     O47391   6.856   6.088   4.714  0.3188  0.4048 -0.5588
  360MOL0     C47392   6.734   6.019   4.698  0.3902  0.2131 -0.1395
  360MOL0     C47393   6.616   6.090   4.688  0.5568  0.2773 -0.7729
  360MOL0     C47394   6.492   6.024   4.678 -0.4378  0.6352 -0.0887
  360MOL0     C47395   6.487   5.884   4.661 -0.4825 -0.0931 -0.4573
  360MOL0     O47396   6.367   5.826   4.658 -0.6193 -0.3112  0.2215
  360MOL0     C47397   6.347   5.683   4.631 -0.1341  1.0782  0.3654
  360MOL0     C47398   6.193   5.656   4.633  0.8161 -0.0197 -0.0408
  360MOL0     C47399   6.164   5.502   4.593 -0.3590  0.1799  0.4645
  360MOL0     C47400   6.022   5.463   4.548 -0.0336  0.2768 -0.8628
  360MOL0     C47401   5.992   5.314   4.557 -0.6880 -0.1423  0.3802
  360MOL0     C47402   5.844   5.286   4.516  0.1025  0.0855 -0.4373
  360MOL0     C47403   5.840   5.134   4.498 -1.0321 -0.0473  1.4244
  360MOL0     C47404   5.707   5.079   4.534  0.2891 -0.4577 -0.0859
  360MOL0     N47405   5.599   5.136   4.459 -0.4687 -0.0272  0.2811
  360MOL0     C47406   5.571   5.083   4.334  0.1604  0.1148  0.2504
  360MOL0     C47407   5.445   5.124   4.304  0.3799  0.1084 -0.0175
  360MOL0     C47408   5.371   5.109   4.173  1.0088  0.3340  0.0048
  360MOL0     C47409   5.389   4.973   4.110  0.7928 -0.6976  0.5221
  360MOL0     C47410   5.254   4.910   4.072 -0.1586  0.5477  1.1144
  360MOL0     C47411   5.195   4.960   3.946  0.0715 -0.0779 -0.2382
  360MOL0     O47412   5.050   4.940   3.925  0.0771  0.3237  0.6375
  360MOL0     C47413   5.000   4.816   3.886 -0.7201 -0.6503  0.1512
  360MOL0     C47414   5.071   4.689   3.881  0.6129  0.1390  0.7385
  360MOL0     C47415   5.006   4.566   3.855 -0.1747 -0.7144  0.0415
  360MOL0     C47416   4.872   4.573   3.821 -0.1831  0.4627  0.3748
  360MOL0     C47417   4.800   4.450   3.766 -0.5209  0.8474  0.5030
  360MOL0     O47418   4.667   4.460   3.745  0.8630  0.0733 -0.2559
  360MOL0     C47419   4.595   4.360   3.680 -0.7597 -0.0558  0.0942
  360MOL0     C47420   4.611   4.220   3.697  0.3337  0.3465 -0.3057
  360MOL0     C47421   4.514   4.131   3.639 -0.6753 -0.1691 -0.9874
  360MOL0     C47422   4.417   4.185   3.556 -0.0380  0.4946 -0.2103
  360MOL0     O47423   4.328   4.101   3.506 -0.3370  0.1091 -0.4342
  360MOL0     C47424   4.350   4.060   3.372 -0.1291  0.8024  0.2301
  360MOL0     C47425   4.256   3.951   3.312  0.2077  0.2060  0.6186
  360MOL0     C47426   4.219   3.837   3.399 -0.5111 -0.4647 -1.4893
  360MOL0     C47427   4.123   3.749   3.309 -0.3927  0.0912  0.6376
  360MOL0     C47428   4.087   3.616   3.374  0.6681  0.3794  0.0503
  360MOL0     C47429   3.989   3.527   3.297 -0.6538  0.1586  0.2411
  360MOL0     C47430   3.858   3.600   3.252 -0.0065 -0.4672  0.3417
  360MOL0     C47431   3.756   3.487   3.213  0.3623  0.7828  0.5439
  360MOL0    Cl47432   3.825   3.452   3.045 -0.1961  0.0543  0.0171
  360MOL0     C47433   4.410   4.323   3.535  0.1579 -0.6822 -0.6967
  360MOL0     C47434   4.493   4.407   3.606 -0.2020 -0.6499 -0.0051
  360MOL0     O47435   4.870   4.345   3.746 -0.5039 -0.3576  0.1664
  360MOL0     C47436   4.804   4.693   3.820  0.4389  0.0058 -0.7341
  360MOL0     C47437   4.865   4.811   3.857  0.5529  0.0316  0.1628
  360MOL0     N47438   5.395   5.171   4.421 -0.4490 -0.5824 -1.0870
  360MOL0     N47439   5.486   5.178   4.515  0.3998 -0.2733 -0.7523
  360MOL0     C47440   6.615   5.812   4.665 -0.4622  0.7737  0.4985
  360MOL0     C47441   6.737   5.879   4.697  0.2319  0.6801  0.2953
  360MOL0     C47442   6.986   6.273   4.671 -0.2754 -0.5822 -0.1195
  360MOL0     C47443   7.051   6.351   4.579  0.0809 -0.3398 -0.3640
  360MOL0     C47444   7.155   6.433   4.611  0.2593  0.0472 -0.5818
  360MOL0     C47445   7.205   6.446   4.739  0.2396  0.1261 -1.1004
  360MOL0     O47446   7.317   6.519   4.750  0.3099 -0.1704 -0.1002
  360MOL0     C47447   7.357   6.543   4.885  0.0502  0.3933 -0.6976
  360MOL0     C47448   7.475   6.632   4.890 -0.2838  0.0032 -0.1281
  360MOL0     C47449   7.435   6.771   4.847  0.4605 -0.2106  1.3061
  360MOL0     C47450   7.498   6.882   4.925 -0.0341  0.0144  0.4695
  360MOL0     C47451   7.498   7.014   4.849  0.1635  0.0365  0.0841
  360MOL0     C47452   7.495   7.119   4.795  1.1237  0.4013  0.3748
  360MOL0     C47453   7.126   6.376   4.838 -0.0308  0.2817 -0.1137
  360MOL0     C47454   7.022   6.280   4.801  0.1495 -0.6544  0.3715
  360MOL0     H47455   6.615   6.197   4.702 -3.0021  0.2415  0.2636
  360MOL0     H47456   6.399   6.076   4.694  0.3740  2.3080 -0.5783
  360MOL0     H47457   6.388   5.612   4.704  0.3264  0.4448 -0.4991
  360MOL0     H47458   6.398   5.662   4.537 -0.5680 -0.2267  0.4043
  360MOL0     H47459   6.140   5.718   4.560 -1.9060  1.3935  2.9193
  360MOL0     H47460   6.146   5.677   4.729  0.4820  1.7181 -0.5563
  360MOL0     H47461   6.199   5.454   4.685  1.8180 -0.9291 -0.8413
  360MOL0     H47462   6.233   5.466   4.517 -0.6747 -1.5789  0.9685
  360MOL0     H47463   5.953   5.522   4.609  2.9484  2.6168  0.5438
  360MOL0     H47464   6.004   5.510   4.451  0.7520  2.8103  0.1144
  360MOL0     H47465   6.022   5.288   4.659  0.2048  1.0897  0.4519
  360MOL0     H47466   6.061   5.272   4.483  0.3973  2.9814 -0.5258
  360MOL0     H47467   5.822   5.334   4.420 -1.5963  0.1825 -0.0355
  360MOL0     H47468   5.782   5.318   4.600 -3.6310 -3.6209 -1.4152
  360MOL0     H47469   5.845   5.114   4.391  1.2275 -1.1291  1.6769
  360MOL0     H47470   5.921   5.081   4.549 -1.9793 -0.1474  2.8917
  360MOL0     H47471   5.689   5.100   4.640  1.4266 -1.9890  0.4527
  360MOL0     H47472   5.708   4.970   4.523 -1.0948 -0.4908  0.0334
  360MOL0     H47473   5.650   5.039   4.275 -0.2481 -1.8755  1.1340
  360MOL0     H47474   5.407   5.182   4.101 -2.5246  0.6194 -1.6997
  360MOL0     H47475   5.263   5.125   4.186  0.8893 -0.3551 -0.0886
  360MOL0     H47476   5.450   4.905   4.170  3.4960 -0.1336 -1.4093
  360MOL0     H47477   5.455   4.988   4.025  3.0094  3.4854  2.7048
  360MOL0     H47478   5.265   4.802   4.064 -0.3841  0.6952 -2.3857
  360MOL0     H47479   5.177   4.912   4.151 -2.6532 -1.0915 -1.1262
  360MOL0     H47480   5.247   4.917   3.859  0.7606 -0.2485  0.2478
  360MOL0     H47481   5.220   5.066   3.941  0.9577 -0.2670 -0.1426
  360MOL0     H47482   5.177   4.701   3.901  1.0849 -3.6969  1.2868
  360MOL0     H47483   5.051   4.467   3.852  3.1513  0.7146 -1.0374
  360MOL0     H47484   4.675   4.179   3.774 -2.5813 -1.1863  1.5194
  360MOL0     H47485   4.524   4.024   3.658  0.3799 -0.2213 -1.7326
  360MOL0     H47486   4.446   4.008   3.362 -1.1078 -1.0520  0.0816
  360MOL0     H47487   4.330   4.146   3.308 -0.4248 -0.0205 -0.8064
  360MOL0     H47488   4.300   3.907   3.223 -1.0149  0.9818 -0.4121
  360MOL0     H47489   4.162   3.991   3.271  1.7410  0.8154 -2.6690
  360MOL0     H47490   4.175   3.875   3.492  0.9419  0.1793 -1.0246
  360MOL0     H47491   4.307   3.779   3.430 -0.9805 -0.0708  0.7805
  360MOL0     H47492   4.022   3.787   3.291 -2.0852 -2.6794  3.2798
  360MOL0     H47493   4.169   3.729   3.211  3.1724 -0.8265  2.3386
  360MOL0     H47494   4.055   3.625   3.478  1.4348  1.8316  0.1806
  360MOL0     H47495   4.179   3.558   3.387  0.3621  0.5597  4.5071
  360MOL0     H47496   3.956   3.444   3.360 -0.7492 -0.2361 -0.3300
  360MOL0     H47497   4.043   3.487   3.211 -1.4233 -0.8140  0.1994
  360MOL0     H47498   3.818   3.648   3.342  1.1644 -0.8473  1.0804
  360MOL0     H47499   3.881   3.672   3.173  0.8328 -1.0116  0.0736
  360MOL0     H47500   3.652   3.518   3.203 -0.8719 -3.3467 -1.8974
  360MOL0     H47501   3.751   3.406   3.286 -4.6166 -0.9533 -1.2920
  360MOL0     H47502   4.344   4.385   3.475 -1.6419 -1.8416  0.0071
  360MOL0     H47503   4.475   4.514   3.611  3.2727  0.0519  0.1382
  360MOL0     H47504   4.703   4.702   3.781  0.3588 -2.2421 -1.1807
  360MOL0     H47505   4.803   4.900   3.859 -0.7059 -0.8074 -0.6985
  360MOL0     H47506   6.622   5.703   4.665 -1.6801  0.6479  2.5546
  360MOL0     H47507   6.829   5.828   4.723  0.7551  2.4829  2.2576
  360MOL0     H47508   7.029   6.349   4.473  1.3393 -2.9970 -0.6487
  360MOL0     H47509   7.207   6.489   4.533 -2.9809 -0.7845 -3.5712
  360MOL0     H47510   7.375   6.446   4.931  1.7618  1.0982  0.2108
  360MOL0     H47511   7.275   6.585   4.945  0.1228  0.9336 -0.9705
  360MOL0     H47512   7.522   6.633   4.989 -2.0835  3.7102  0.8576
  360MOL0     H47513   7.548   6.586   4.823  1.0289 -0.3843  1.4997
  360MOL0     H47514   7.331   6.793   4.870 -0.5521  0.0003 -2.7795
  360MOL0     H47515   7.444   6.785   4.739  0.2275  0.1446  1.3316
  360MOL0     H47516   7.442   6.889   5.018  1.0778 -0.2920  1.1756
  360MOL0     H47517   7.602   6.860   4.949  0.9692  2.3175 -1.3760
  360MOL0     H47518   7.491   7.212   4.742  1.8782  0.9320  1.2225
  360MOL0     H47519   7.149   6.374   4.944 -1.9739 -5.5745  0.5950
  360MOL0     H47520   6.982   6.210   4.874 -2.3733  1.9495  1.7527
  361MOL0     O47521   5.453   8.083   2.436  0.7561  0.0153  0.6438
  361MOL0     C47522   5.535   8.147   2.363  0.7176  0.2011 -0.0735
  361MOL0     O47523   5.496   8.218   2.255 -0.9268  0.1855 -0.8741
  361MOL0     C47524   5.375   8.228   2.210  0.5170 -1.2644 -0.0948
  361MOL0     C47525   5.285   8.123   2.203 -0.3888 -0.2254  0.0758
  361MOL0     C47526   5.161   8.155   2.138  0.5943 -0.1293  0.3549
  361MOL0     C47527   5.133   8.282   2.085  0.4908 -0.9028  0.4413
  361MOL0     O47528   5.018   8.314   2.016 -0.5326 -0.0779 -0.0041
  361MOL0     C47529   4.895   8.270   2.061 -0.3286  0.3675 -0.4034
  361MOL0     C47530   4.776   8.358   2.012  0.0676 -0.1852 -0.7299
  361MOL0     C47531   4.641   8.310   2.080 -0.1210 -0.4051  0.6427
  361MOL0     C47532   4.532   8.405   2.042 -0.6202 -0.6523  0.4423
  361MOL0     C47533   4.389   8.374   2.092 -0.1074 -0.9247  0.1054
  361MOL0     C47534   4.332   8.252   2.023 -0.9048 -0.0907  0.8960
  361MOL0     C47535   4.184   8.249   2.002  0.6049  0.1190 -0.3790
  361MOL0     C47536   4.136   8.130   1.915  0.3104 -0.2302 -0.6158
  361MOL0     N47537   3.990   8.139   1.886  0.4437 -0.3171  0.4173
  361MOL0     C47538   3.902   8.132   1.991 -0.4854 -0.0881  0.4414
  361MOL0     C47539   3.782   8.153   1.924 -0.6098  0.5905 -0.8021
  361MOL0     C47540   3.648   8.152   1.990 -0.3061 -0.2827  1.7458
  361MOL0     C47541   3.590   8.006   2.016 -0.0172  0.1092  0.2674
  361MOL0     C47542   3.547   7.934   1.888 -0.4705  0.0289 -0.0583
  361MOL0     C47543   3.528   7.780   1.905  0.1645 -0.4563  0.2381
  361MOL0     O47544   3.463   7.725   1.787 -0.4311  0.8355  0.6698
  361MOL0     C47545   3.404   7.600   1.803  0.5369 -0.6220 -0.2533
  361MOL0     C47546   3.395   7.530   1.923  0.3268  0.1510 -0.4531
  361MOL0     C47547   3.329   7.402   1.929  0.1550  0.8366  0.5254
  361MOL0     C47548   3.268   7.347   1.816  0.3479  0.6969 -1.2136
  361MOL0     C47549   3.184   7.223   1.826  0.3890 -0.0801 -0.3770
  361MOL0     O47550   3.113   7.182   1.713 -0.0707 -0.4606 -0.2180
  361MOL0     C47551   3.037   7.065   1.723  0.1191 -0.5694  0.8517
  361MOL0     C47552   3.018   6.986   1.603  0.4719 -0.5062 -0.2936
  361MOL0     C47553   2.918   6.886   1.602 -0.4698 -0.0209 -0.4924
  361MOL0     C47554   2.845   6.849   1.714  0.5529 -0.6095  0.5205
  361MOL0     O47555   2.747   6.759   1.703  0.5705 -0.2605 -0.2417
  361MOL0     C47556   2.610   6.793   1.734 -0.0571 -0.5681 -0.4535
  361MOL0     C47557   2.532   6.863   1.621 -0.4826  0.8427 -1.2291
  361MOL0     C47558   2.393   6.903   1.684 -0.3384 -0.1134 -0.5392
  361MOL0     C47559   2.337   7.002   1.582 -1.2342 -0.0251 -0.9293
  361MOL0     C47560   2.219   7.073   1.621  0.2118  0.0424 -0.4703
  361MOL0     C47561   2.176   7.170   1.509  0.8808 -0.7746 -0.0007
  361MOL0     C47562   2.281   7.282   1.477 -0.2729  0.1500 -0.2527
  361MOL0     C47563   2.218   7.390   1.391  0.7096 -0.0968  0.1886
  361MOL0    Cl47564   2.151   7.522   1.495  0.3720  0.3139 -0.5397
  361MOL0     C47565   2.869   6.924   1.828 -1.0138  0.4289  0.4675
  361MOL0     C47566   2.968   7.025   1.838 -0.2265  0.6065  0.7913
  361MOL0     O47567   3.198   7.163   1.933 -0.5814  0.0858  0.9125
  361MOL0     C47568   3.273   7.425   1.702  0.8275  0.8152 -0.0205
  361MOL0     C47569   3.342   7.541   1.696  0.2029 -0.4740  0.1097
  361MOL0     N47570   3.805   8.183   1.785  0.0019 -0.0239 -0.5538
  361MOL0     N47571   3.931   8.171   1.776  0.4932  0.1709  0.3670
  361MOL0     C47572   5.225   8.383   2.102  0.5894 -0.6040  0.2795
  361MOL0     C47573   5.347   8.359   2.168  0.6877  0.8120 -0.4729
  361MOL0     C47574   5.674   8.138   2.412  0.7516 -0.6144  0.3172
  361MOL0     C47575   5.713   8.041   2.506  0.1650  0.6989  0.3334
  361MOL0     C47576   5.841   8.040   2.562 -0.2767  0.2026  0.7898
  361MOL0     C47577   5.934   8.142   2.518  0.5258 -0.3919  0.2816
  361MOL0     O47578   6.064   8.172   2.557  0.0866  0.2365 -0.2410
  361MOL0     C47579   6.148   8.060   2.600 -0.2690  0.3612 -0.0100
  361MOL0     C47580   6.178   7.940   2.497 -0.6047 -0.0395 -0.2029
  361MOL0     C47581   6.214   7.805   2.580 -0.0553 -0.3673 -0.2688
  361MOL0     C47582   6.327   7.815   2.683 -0.2594  0.0362 -0.0173
  361MOL0     C47583   6.454   7.822   2.611  0.2919  0.0300  0.4348
  361MOL0     C47584   6.567   7.835   2.565  0.8541 -0.2045 -0.3588
  361MOL0     C47585   5.899   8.239   2.428  0.1958  0.3368 -0.5698
  361MOL0     C47586   5.767   8.241   2.375  0.2593  0.5855 -0.2870
  361MOL0     H47587   5.309   8.023   2.239  0.9392  0.9867  2.8454
  361MOL0     H47588   5.082   8.084   2.115  0.2596 -0.0665  1.2761
  361MOL0     H47589   4.896   8.252   2.169  2.8719 -3.2919 -0.8279
  361MOL0     H47590   4.887   8.172   2.013  0.5902  0.5316 -0.9041
  361MOL0     H47591   4.760   8.360   1.904 -0.2727  0.5225 -0.6728
  361MOL0     H47592   4.801   8.461   2.041 -0.8049 -1.1636  4.5678
  361MOL0     H47593   4.646   8.304   2.190 -1.5357 -0.5196  0.7217
  361MOL0     H47594   4.620   8.207   2.048  2.3565 -1.1280  1.1478
  361MOL0     H47595   4.550   8.505   2.082  0.6935  0.1547 -1.9591
  361MOL0     H47596   4.517   8.410   1.934 -1.3129  0.9944  0.5763
  361MOL0     H47597   4.326   8.459   2.066  1.7447  1.0051  1.6252
  361MOL0     H47598   4.381   8.370   2.201 -2.5187 -0.3334  0.0048
  361MOL0     H47599   4.362   8.162   2.077  0.9683 -0.7194 -1.0340
  361MOL0     H47600   4.374   8.252   1.922  2.1394 -0.4860  2.0778
  361MOL0     H47601   4.135   8.243   2.100  0.4523  1.0958 -0.3807
  361MOL0     H47602   4.142   8.339   1.955 -1.1451 -0.8683 -0.8168
  361MOL0     H47603   4.146   8.038   1.973 -1.6956  1.5387  2.9106
  361MOL0     H47604   4.191   8.133   1.821 -0.1302  2.2313 -0.8768
  361MOL0     H47605   3.928   8.113   2.094  0.7681  1.0237  0.3582
  361MOL0     H47606   3.580   8.207   1.923  2.0233 -0.0272 -0.5584
  361MOL0     H47607   3.644   8.206   2.085 -0.4558 -0.4331  1.8262
  361MOL0     H47608   3.513   8.011   2.093 -1.5439 -1.3568 -1.0593
  361MOL0     H47609   3.670   7.949   2.064 -1.4212 -2.7492 -0.4998
  361MOL0     H47610   3.458   7.979   1.841 -1.5945 -0.5480  1.4367
  361MOL0     H47611   3.629   7.945   1.816 -0.1409 -2.0676 -0.0814
  361MOL0     H47612   3.461   7.771   1.991 -0.6381  0.7270 -0.2235
  361MOL0     H47613   3.621   7.732   1.934 -1.3573 -2.0461  2.8921
  361MOL0     H47614   3.432   7.568   2.018 -0.4694 -0.6211  0.1798
  361MOL0     H47615   3.328   7.346   2.021  1.0203 -2.2448 -1.2089
  361MOL0     H47616   3.061   7.021   1.510  1.6050  1.3711  0.8804
  361MOL0     H47617   2.887   6.844   1.507 -0.7798  1.4380 -1.0733
  361MOL0     H47618   2.605   6.856   1.824  0.0447 -2.3237  0.8233
  361MOL0     H47619   2.556   6.705   1.769 -1.6554  0.0119 -1.3469
  361MOL0     H47620   2.504   6.787   1.547 -3.8029 -0.3055  1.0001
  361MOL0     H47621   2.599   6.939   1.578  2.0586 -0.9130 -0.6450
  361MOL0     H47622   2.413   6.938   1.786  3.6320 -0.8248 -0.8905
  361MOL0     H47623   2.319   6.823   1.687 -0.9937  0.4891 -0.2802
  361MOL0     H47624   2.416   7.077   1.572 -0.6414  0.0149  2.6252
  361MOL0     H47625   2.335   6.952   1.485  3.4924  0.2123 -1.3904
  361MOL0     H47626   2.259   7.133   1.703  2.5837 -1.8825 -0.0808
  361MOL0     H47627   2.135   7.011   1.655  1.7218 -2.4605 -1.0339
  361MOL0     H47628   2.084   7.210   1.552  0.6680 -1.5575  0.2826
  361MOL0     H47629   2.133   7.123   1.420  0.3251 -2.6102  1.2049
  361MOL0     H47630   2.314   7.335   1.566 -1.9082  1.3202 -0.3038
  361MOL0     H47631   2.370   7.233   1.436 -1.1899 -0.7200 -1.2898
  361MOL0     H47632   2.142   7.352   1.324 -1.4849  0.8652  1.9863
  361MOL0     H47633   2.292   7.440   1.327 -1.9452  1.8546 -1.5562
  361MOL0     H47634   2.818   6.901   1.921  0.4352 -1.3203  0.8901
  361MOL0     H47635   2.989   7.074   1.933  1.5734  0.9138  0.2646
  361MOL0     H47636   3.227   7.389   1.611  0.3402  0.7181  0.2561
  361MOL0     H47637   3.341   7.600   1.605 -0.7777 -1.5064 -0.5714
  361MOL0     H47638   5.200   8.484   2.072  0.6953 -0.1409  1.6806
  361MOL0     H47639   5.421   8.438   2.168  2.3128 -0.6277  0.8073
  361MOL0     H47640   5.645   7.965   2.545  1.5751  0.2278  1.9939
  361MOL0     H47641   5.879   7.970   2.636 -0.0367 -2.1729 -1.4220
  361MOL0     H47642   6.098   8.026   2.691 -0.4950  1.4318  0.2792
  361MOL0     H47643   6.242   8.108   2.627 -1.5760  1.9882  1.9482
  361MOL0     H47644   6.093   7.924   2.431 -0.2212 -0.4636 -0.6015
  361MOL0     H47645   6.265   7.963   2.436 -1.4470 -0.6994 -1.6892
  361MOL0     H47646   6.243   7.727   2.509  1.0645  0.0338 -0.2668
  361MOL0     H47647   6.131   7.765   2.639  2.0564 -1.1253  2.4197
  361MOL0     H47648   6.319   7.907   2.742  1.3981 -0.3958  0.9570
  361MOL0     H47649   6.330   7.728   2.750  3.6590 -2.0187 -2.4277
  361MOL0     H47650   6.669   7.848   2.536  0.6396  1.7949 -0.3528
  361MOL0     H47651   5.964   8.318   2.393 -0.3798  1.3356  0.5698
  361MOL0     H47652   5.726   8.315   2.307 -3.9426 -1.2966 -0.1316
  362MOL0     O47653   2.703   5.236   7.427 -0.6442  0.5737 -0.0702
  362MOL0     C47654   2.801   5.208   7.500 -0.4503  0.4271 -0.7267
  362MOL0     O47655   2.806   5.108   7.593  0.6234  0.2804 -0.2167
  362MOL0     C47656   2.714   5.013   7.577 -0.3240  1.0147 -0.5622
  362MOL0     C47657   2.701   4.937   7.461 -0.0517 -0.5324  0.1340
  362MOL0     C47658   2.608   4.829   7.450  0.6213  0.3623 -0.3109
  362MOL0     C47659   2.512   4.806   7.558 -0.6775 -0.0764 -0.2670
  362MOL0     O47660   2.412   4.717   7.550 -0.1902 -0.6309 -0.0980
  362MOL0     C47661   2.275   4.764   7.533 -0.8690  0.4270 -0.5213
  362MOL0     C47662   2.195   4.693   7.627  0.4530  0.2183  0.1742
  362MOL0     C47663   2.049   4.718   7.606 -0.7776 -0.0440  0.3712
  362MOL0     C47664   1.947   4.643   7.686  0.4106  0.7767  0.0246
  362MOL0     C47665   1.809   4.705   7.679  0.8653  0.3882 -0.2990
  362MOL0     C47666   1.717   4.669   7.793  0.4738  0.6627 -0.3456
  362MOL0     C47667   1.686   4.520   7.824 -0.0360 -0.6549 -0.0134
  362MOL0     C47668   1.642   4.442   7.700  0.1082 -0.8730 -0.0477
  362MOL0     N47669   1.512   4.494   7.642  0.4945 -0.0178 -0.3045
  362MOL0     C47670   1.483   4.602   7.550 -0.2235  0.0394 -0.3240
  362MOL0     C47671   1.345   4.582   7.540  0.3036 -0.1765 -0.0399
  362MOL0     C47672   1.253   4.651   7.439 -0.7336 -0.0414  0.5440
  362MOL0     C47673   1.208   4.559   7.331  0.5507 -0.4195 -0.3095
  362MOL0     C47674   1.120   4.641   7.229  0.3251 -0.6003  1.0395
  362MOL0     C47675   0.975   4.652   7.289  0.1495 -0.1277  0.0010
  362MOL0     O47676   0.913   4.764   7.238  1.1543  0.4198 -0.1837
  362MOL0     C47677   0.772   4.774   7.244 -0.3083 -0.6512 -0.3983
  362MOL0     C47678   0.717   4.876   7.176  0.1315 -0.6692  0.5266
  362MOL0     C47679   0.584   4.909   7.152  0.7556  0.7083  0.1580
  362MOL0     C47680   0.494   4.822   7.221  0.6160 -0.3949 -0.4440
  362MOL0     C47681   0.351   4.859   7.237  0.2498 -0.1198  0.0069
  362MOL0     O47682   0.322   4.965   7.166 -0.1392 -0.6875  0.0646
  362MOL0     C47683   0.198   5.023   7.160  0.3489  0.4266  0.7524
  362MOL0     C47684   0.165   5.122   7.254  0.3798  0.1727  0.1605
  362MOL0     C47685   0.037   5.182   7.245 -0.4285  0.3316 -0.5116
  362MOL0     C47686  -0.049   5.146   7.146  0.1623 -0.2562 -0.3959
  362MOL0     O47687  -0.170   5.209   7.142 -0.1899 -0.4764  0.1048
  362MOL0     C47688  -0.187   5.304   7.030 -0.2168 -0.0747  0.1213
  362MOL0     C47689  -0.303   5.262   6.946 -0.3451 -0.5626 -1.3388
  362MOL0     C47690  -0.309   5.319   6.809  0.1904 -1.1969  0.4274
  362MOL0     C47691  -0.328   5.471   6.806  0.4640 -0.2646  0.6182
  362MOL0     C47692  -0.311   5.535   6.663 -0.0718  0.7007 -0.8412
  362MOL0     C47693  -0.293   5.683   6.689 -0.8441 -0.2812  0.0388
  362MOL0     C47694  -0.302   5.759   6.554  0.5326 -0.1327  0.9464
  362MOL0     C47695  -0.305   5.908   6.587  0.1416 -0.0677  0.1769
  362MOL0    Cl47696  -0.298   6.014   6.438 -0.2134 -0.5345  0.1770
  362MOL0     C47697  -0.018   5.050   7.047 -0.9840  0.1511  0.0115
  362MOL0     C47698   0.108   4.985   7.063 -0.3596 -0.0915 -0.1016
  362MOL0     O47699   0.282   4.790   7.309  0.6405 -0.2779  0.0476
  362MOL0     C47700   0.546   4.712   7.303  0.1932 -0.1399 -0.0192
  362MOL0     C47701   0.688   4.685   7.309 -0.5600 -0.1935  0.0826
  362MOL0     N47702   1.304   4.500   7.645  0.7547  0.5523 -0.0582
  362MOL0     N47703   1.400   4.451   7.708 -0.3598  0.5372 -0.5838
  362MOL0     C47704   2.524   4.890   7.670  0.0031  0.5171 -1.1693
  362MOL0     C47705   2.620   4.983   7.674 -0.0065 -0.1611 -0.6258
  362MOL0     C47706   2.928   5.294   7.508  0.0170 -0.6602 -0.0679
  362MOL0     C47707   2.951   5.406   7.425  0.3219  0.2189 -0.0779
  362MOL0     C47708   3.058   5.495   7.450  0.1820  0.3084 -0.4946
  362MOL0     C47709   3.157   5.472   7.545 -0.2250 -0.3058  0.9621
  362MOL0     O47710   3.257   5.565   7.537  0.1555 -0.1252  0.7371
  362MOL0     C47711   3.377   5.548   7.610 -0.6452 -0.1548  0.2162
  362MOL0     C47712   3.476   5.439   7.560 -0.5211  0.3356 -0.8761
  362MOL0     C47713   3.508   5.456   7.410 -0.7274  0.4131  0.4714
  362MOL0     C47714   3.619   5.569   7.390  0.5626  0.2228 -0.6166
  362MOL0     C47715   3.621   5.576   7.240 -0.3644 -0.6071  0.3014
  362MOL0     C47716   3.633   5.600   7.120 -0.0260  0.7239  0.3316
  362MOL0     C47717   3.137   5.355   7.632 -1.1547  0.7700 -0.0130
  362MOL0     C47718   3.028   5.268   7.608  0.0301 -0.2990 -0.2220
  362MOL0     H47719   2.769   4.948   7.377  0.0361  1.0811  0.3960
  362MOL0     H47720   2.610   4.761   7.366 -0.4391 -4.5175  3.1578
  362MOL0     H47721   2.230   4.758   7.434  4.3972  0.8331 -3.3186
  362MOL0     H47722   2.271   4.873   7.540  2.5067  0.7226 -1.1808
  362MOL0     H47723   2.215   4.712   7.733 -3.0019  0.7675  0.8443
  362MOL0     H47724   2.209   4.586   7.614  0.4431 -0.0574  2.1145
  362MOL0     H47725   2.031   4.676   7.506 -3.5766  2.0784 -0.1493
  362MOL0     H47726   2.019   4.823   7.600 -1.7838 -0.3540 -0.2229
  362MOL0     H47727   1.945   4.535   7.671 -0.5157  0.3489  2.6829
  362MOL0     H47728   1.990   4.648   7.786  3.4587  3.4532 -1.2246
  362MOL0     H47729   1.762   4.666   7.588  0.9527 -2.2493  0.6966
  362MOL0     H47730   1.815   4.814   7.669  0.5893  0.4766  0.4300
  362MOL0     H47731   1.619   4.714   7.776  0.9920  1.9026 -0.2378
  362MOL0     H47732   1.751   4.712   7.888  1.4388  0.3846 -0.5512
  362MOL0     H47733   1.770   4.475   7.878 -1.5979 -2.1953  1.2517
  362MOL0     H47734   1.603   4.520   7.895 -0.3610 -2.1293 -0.3535
  362MOL0     H47735   1.631   4.342   7.742  0.2767 -0.0402  2.0963
  362MOL0     H47736   1.728   4.440   7.632  0.7243 -3.2011  0.7192
  362MOL0     H47737   1.552   4.662   7.492  0.4080  0.8107  1.1608
  362MOL0     H47738   1.308   4.733   7.390 -0.2620 -1.6187 -1.7399
  362MOL0     H47739   1.167   4.703   7.483 -1.0244  1.7474 -1.8824
  362MOL0     H47740   1.151   4.483   7.385  0.0203  0.4269  0.3524
  362MOL0     H47741   1.289   4.502   7.285  0.1351  0.5475 -2.3571
  362MOL0     H47742   1.167   4.739   7.212 -0.9798  0.4556  3.1990
  362MOL0     H47743   1.099   4.588   7.135 -3.0543 -1.2564  2.0362
  362MOL0     H47744   0.976   4.666   7.398 -1.8503 -0.8954  0.1487
  362MOL0     H47745   0.921   4.558   7.278  0.5164 -0.2238 -1.0262
  362MOL0     H47746   0.773   4.953   7.124 -1.9478  1.7796  1.6712
  362MOL0     H47747   0.557   5.000   7.099 -1.0767  0.6268  0.8881
  362MOL0     H47748   0.241   5.142   7.328  1.2566 -0.9121 -0.4197
  362MOL0     H47749   0.004   5.260   7.314  2.9876  1.5543 -0.0612
  362MOL0     H47750  -0.104   5.298   6.960 -1.1297  0.5517 -1.0391
  362MOL0     H47751  -0.197   5.408   7.064  1.1452  0.4331 -0.9370
  362MOL0     H47752  -0.392   5.302   6.998 -0.4696  1.6508 -3.0749
  362MOL0     H47753  -0.295   5.153   6.943  1.9362 -0.5151  0.5287
  362MOL0     H47754  -0.389   5.264   6.759  0.7152 -1.8859  0.3390
  362MOL0     H47755  -0.224   5.279   6.754 -1.8852 -2.5986 -1.9874
  362MOL0     H47756  -0.422   5.502   6.852  0.6833 -1.7348  2.1343
  362MOL0     H47757  -0.250   5.509   6.872  0.3531 -1.6755  1.6054
  362MOL0     H47758  -0.406   5.514   6.614  0.2466 -1.9184 -0.4776
  362MOL0     H47759  -0.234   5.492   6.598 -0.4913 -0.6286 -0.4787
  362MOL0     H47760  -0.191   5.702   6.724 -1.1096  1.7400 -0.1485
  362MOL0     H47761  -0.357   5.722   6.770  1.7246  0.3653  1.8780
  362MOL0     H47762  -0.212   5.737   6.495  0.3023 -1.6315  1.1041
  362MOL0     H47763  -0.385   5.724   6.490 -0.8390  3.3868  0.5885
  362MOL0     H47764  -0.224   5.941   6.653  0.8687 -1.4954  0.0528
  362MOL0     H47765  -0.396   5.929   6.644  0.9547  0.8276  1.1769
  362MOL0     H47766  -0.080   5.027   6.961 -2.2809 -2.9997  1.6355
  362MOL0     H47767   0.145   4.907   6.997 -0.1733 -1.5441  1.6433
  362MOL0     H47768   0.478   4.660   7.370 -2.3442 -1.1409 -3.1444
  362MOL0     H47769   0.729   4.605   7.370  0.2521  0.0459 -0.1360
  362MOL0     H47770   2.451   4.886   7.750  0.2460 -0.4458 -0.9867
  362MOL0     H47771   2.623   5.050   7.759  0.5829 -0.3222 -0.5115
  362MOL0     H47772   2.872   5.425   7.353 -0.2628 -3.1250 -0.4735
  362MOL0     H47773   3.071   5.581   7.385 -0.6555  1.7642  1.1910
  362MOL0     H47774   3.348   5.521   7.711 -0.7582 -0.0959  0.2006
  362MOL0     H47775   3.427   5.645   7.601 -1.3753  0.1495 -0.8557
  362MOL0     H47776   3.567   5.434   7.620 -0.2824  0.2731 -1.2395
  362MOL0     H47777   3.421   5.347   7.578 -1.7947  1.0418 -1.0626
  362MOL0     H47778   3.413   5.491   7.368  1.0412  2.8980 -1.7584
  362MOL0     H47779   3.542   5.364   7.361  0.1099  1.5344 -1.1539
  362MOL0     H47780   3.579   5.657   7.440 -1.1087 -0.5754 -0.4671
  362MOL0     H47781   3.717   5.551   7.434  0.3608 -1.3317 -0.7360
  362MOL0     H47782   3.631   5.627   7.016  0.2540 -0.0640  0.1132
  362MOL0     H47783   3.205   5.329   7.712 -1.9938 -1.1773  0.1229
  362MOL0     H47784   3.009   5.201   7.691  2.4573  0.0884  0.7570
  363MOL0     O47785   1.723   7.698   1.180  0.1375  0.2553  0.0993
  363MOL0     C47786   1.812   7.614   1.189 -0.2948  0.1757 -0.2306
  363MOL0     O47787   1.810   7.490   1.259  0.3493  0.0173  0.1613
  363MOL0     C47788   1.691   7.441   1.302 -0.2262 -0.2564  0.3934
  363MOL0     C47789   1.578   7.441   1.220 -0.2620  0.4239  0.0428
  363MOL0     C47790   1.451   7.405   1.270 -0.3342 -0.1333  0.9235
  363MOL0     C47791   1.440   7.363   1.402 -1.1602 -0.0882 -0.0285
  363MOL0     O47792   1.326   7.304   1.452  0.3449  0.5202  0.5037
  363MOL0     C47793   1.277   7.354   1.577  0.0081  0.4552 -0.1520
  363MOL0     C47794   1.140   7.283   1.602 -0.7941  0.2462 -0.3143
  363MOL0     C47795   1.033   7.333   1.509 -0.0482 -0.0683 -0.1776
  363MOL0     C47796   0.918   7.233   1.507 -0.4687 -0.5019 -0.7372
  363MOL0     C47797   0.838   7.232   1.639  0.0638  0.2701  0.2479
  363MOL0     C47798   0.733   7.126   1.626  0.0115  0.1926  0.4634
  363MOL0     C47799   0.668   7.104   1.758  0.4107  1.3588 -0.4064
  363MOL0     C47800   0.555   7.001   1.725 -0.5095 -0.4702  0.3116
  363MOL0     N47801   0.427   7.056   1.773  0.1878  0.1955  0.1622
  363MOL0     C47802   0.406   7.080   1.909  0.3226 -0.1608  0.5002
  363MOL0     C47803   0.286   7.137   1.910  0.1652  0.4142 -0.5750
  363MOL0     C47804   0.212   7.187   2.036 -0.2367  0.1686  0.1163
  363MOL0     C47805   0.112   7.291   1.996  0.9121 -0.5447 -0.0773
  363MOL0     C47806   0.020   7.335   2.105  0.2444 -0.3076  0.4673
  363MOL0     C47807  -0.072   7.443   2.052  0.9555  0.6273  0.4749
  363MOL0     O47808  -0.168   7.462   2.155 -0.0634 -0.3740  0.4516
  363MOL0     C47809  -0.285   7.395   2.139 -0.1868 -0.9810 -0.1987
  363MOL0     C47810  -0.381   7.456   2.057  0.5373 -0.6097  0.5406
  363MOL0     C47811  -0.509   7.396   2.050  0.5498 -0.7992  0.8317
  363MOL0     C47812  -0.538   7.280   2.121  0.5014 -0.7592  1.0442
  363MOL0     C47813  -0.672   7.223   2.115 -0.4047  0.2214  1.0019
  363MOL0     O47814  -0.742   7.235   1.999 -1.3819  0.3594  0.4584
  363MOL0     C47815  -0.875   7.205   2.004  0.5082  0.0934  0.0312
  363MOL0     C47816  -0.965   7.292   2.067  0.2368 -0.1442  0.7592
  363MOL0     C47817  -1.103   7.262   2.064  0.5096 -0.9063  0.0111
  363MOL0     C47818  -1.148   7.134   2.010  0.2103  0.5053 -0.1275
  363MOL0     O47819  -1.282   7.110   2.001 -0.4374 -0.1202 -0.8507
  363MOL0     C47820  -1.321   7.021   1.901 -0.5633 -0.3738 -0.0829
  363MOL0     C47821  -1.467   7.045   1.882  0.7015 -0.1662 -0.5756
  363MOL0     C47822  -1.500   7.153   1.773 -0.2110 -0.4579 -0.3689
  363MOL0     C47823  -1.651   7.178   1.747 -0.3777  0.0616  0.0509
  363MOL0     C47824  -1.672   7.300   1.655  0.6131  0.0100  0.4222
  363MOL0     C47825  -1.575   7.311   1.536  0.7262  0.7640 -0.9607
  363MOL0     C47826  -1.617   7.420   1.434 -0.2508 -1.1270  0.4565
  363MOL0     C47827  -1.527   7.408   1.309  0.8613  1.2035 -0.3266
  363MOL0    Cl47828  -1.372   7.502   1.337  0.1966  0.1045 -0.1622
  363MOL0     C47829  -1.051   7.053   1.961  0.6199  0.4402  1.4691
  363MOL0     C47830  -0.916   7.078   1.957 -0.0271  1.3047 -0.0003
  363MOL0     O47831  -0.711   7.168   2.214 -0.1135 -0.3456 -0.2453
  363MOL0     C47832  -0.443   7.229   2.207  0.3500 -1.1596 -0.3448
  363MOL0     C47833  -0.316   7.281   2.209 -1.2528  0.3806 -0.4450
  363MOL0     N47834   0.235   7.143   1.778  0.5098  0.1019 -0.2007
  363MOL0     N47835   0.315   7.087   1.698 -1.0416  0.3545 -0.2480
  363MOL0     C47836   1.560   7.345   1.486 -0.1858 -0.2158  0.7733
  363MOL0     C47837   1.686   7.376   1.431  0.9441  0.7074 -0.5525
  363MOL0     C47838   1.936   7.636   1.123 -0.2166 -0.0246 -0.4836
  363MOL0     C47839   1.992   7.764   1.101  0.5813  0.1734 -0.1831
  363MOL0     C47840   2.116   7.790   1.049 -0.3476 -0.4431 -0.0520
  363MOL0     C47841   2.192   7.686   1.007 -0.0648  0.5652  0.6933
  363MOL0     O47842   2.310   7.720   0.947 -0.7988  0.5091  0.3928
  363MOL0     C47843   2.401   7.611   0.914  0.3514  0.4391  0.9688
  363MOL0     C47844   2.525   7.675   0.842  0.1490  0.5906 -0.0346
  363MOL0     C47845   2.572   7.803   0.910  0.9935 -0.2832  0.6629
  363MOL0     C47846   2.644   7.768   1.045 -0.7574  0.0724  0.1273
  363MOL0     C47847   2.773   7.705   1.009  0.5715 -0.0637  0.5472
  363MOL0     C47848   2.883   7.661   0.975 -0.0944  0.5025 -0.0572
  363MOL0     C47849   2.148   7.556   1.037 -0.2924  0.4798 -0.0496
  363MOL0     C47850   2.028   7.531   1.097  0.6265  0.4019  0.2043
  363MOL0     H47851   1.580   7.483   1.120  4.1682 -0.1298 -0.2937
  363MOL0     H47852   1.362   7.408   1.208  1.2537 -4.0961 -2.0289
  363MOL0     H47853   1.266   7.462   1.566 -1.9173  0.4596  1.2584
  363MOL0     H47854   1.353   7.333   1.652  1.8458  3.1098 -1.1295
  363MOL0     H47855   1.118   7.316   1.704 -0.8835  1.3947 -0.6833
  363MOL0     H47856   1.155   7.175   1.597 -1.7084 -0.0791  2.2969
  363MOL0     H47857   1.076   7.338   1.408 -3.5951 -0.0938 -1.8251
  363MOL0     H47858   0.996   7.434   1.528 -0.5259 -0.2344 -0.2221
  363MOL0     H47859   0.853   7.269   1.427 -2.3366 -1.5429  0.2362
  363MOL0     H47860   0.959   7.135   1.480 -1.5801 -1.2387  0.1217
  363MOL0     H47861   0.801   7.334   1.647 -1.7647 -0.4832  2.5306
  363MOL0     H47862   0.912   7.213   1.717  1.8755 -0.3672 -1.5248
  363MOL0     H47863   0.778   7.030   1.599  0.3900  0.2034  1.0386
  363MOL0     H47864   0.665   7.167   1.551 -0.5534 -1.2591  0.1442
  363MOL0     H47865   0.736   7.068   1.836  0.2455  3.2612  0.6840
  363MOL0     H47866   0.628   7.199   1.794 -1.3139  1.0938 -1.4755
  363MOL0     H47867   0.578   6.915   1.789  0.1731  1.0843  2.2474
  363MOL0     H47868   0.538   6.968   1.622 -1.5390  2.6525 -0.6367
  363MOL0     H47869   0.470   7.059   1.994  2.2078  2.6627 -0.1015
  363MOL0     H47870   0.271   7.233   2.116 -2.3030 -1.6862  2.9062
  363MOL0     H47871   0.162   7.106   2.089 -0.0667  1.1426  1.8348
  363MOL0     H47872   0.056   7.243   1.916 -2.0084  1.3993  0.6487
  363MOL0     H47873   0.165   7.381   1.964 -0.5058  0.5136  0.4635
  363MOL0     H47874  -0.042   7.246   2.125 -0.7698  0.4402  0.7593
  363MOL0     H47875   0.076   7.376   2.189  0.0776  2.6783 -0.7730
  363MOL0     H47876  -0.115   7.408   1.958  0.5752  0.8636  0.5589
  363MOL0     H47877  -0.010   7.532   2.041  1.5642  0.2922  1.1244
  363MOL0     H47878  -0.361   7.544   1.997 -3.1778 -0.2528 -0.4653
  363MOL0     H47879  -0.582   7.442   1.984  1.3544 -0.7836 -0.0737
  363MOL0     H47880  -0.929   7.383   2.114  3.9011 -0.3243 -1.3829
  363MOL0     H47881  -1.178   7.331   2.102  1.2554 -1.1367  2.0162
  363MOL0     H47882  -1.307   6.918   1.936  1.4806 -0.9009 -2.2073
  363MOL0     H47883  -1.265   7.036   1.809  1.2308 -1.7351  0.7319
  363MOL0     H47884  -1.511   7.061   1.981 -0.7185 -2.1236 -0.8271
  363MOL0     H47885  -1.514   6.953   1.844  1.8779 -1.9739  2.0363
  363MOL0     H47886  -1.446   7.113   1.687  4.6590  0.9020  1.6999
  363MOL0     H47887  -1.442   7.245   1.783 -1.8229  0.6180 -0.6012
  363MOL0     H47888  -1.680   7.083   1.702  0.4850 -0.4388  0.5080
  363MOL0     H47889  -1.711   7.184   1.838 -0.4194 -0.4658  0.0625
  363MOL0     H47890  -1.652   7.392   1.711  1.6283 -0.1301  0.3048
  363MOL0     H47891  -1.778   7.299   1.627  0.5634  2.2830  0.3327
  363MOL0     H47892  -1.557   7.214   1.488 -1.3992 -0.0310 -0.2626
  363MOL0     H47893  -1.483   7.343   1.586  0.4791  1.5248 -0.9795
  363MOL0     H47894  -1.723   7.405   1.409 -0.4410 -1.7384  1.5729
  363MOL0     H47895  -1.600   7.513   1.488 -0.4297 -1.7591  1.6367
  363MOL0     H47896  -1.578   7.453   1.223 -0.1885 -0.0292 -0.3953
  363MOL0     H47897  -1.512   7.300   1.297 -3.5247  0.0913  1.8345
  363MOL0     H47898  -1.078   6.959   1.913  0.4206  0.4825  1.4960
  363MOL0     H47899  -0.841   7.008   1.920  1.3349  2.5945  0.2132
  363MOL0     H47900  -0.475   7.142   2.264 -2.4899  0.1510  0.2430
  363MOL0     H47901  -0.237   7.233   2.265  0.1867 -0.7615 -3.2515
  363MOL0     H47902   1.542   7.305   1.585  0.2612 -2.9816 -0.1604
  363MOL0     H47903   1.779   7.371   1.487  0.1604 -0.7109  0.7056
  363MOL0     H47904   1.933   7.853   1.121  0.6892 -0.3275  2.7311
  363MOL0     H47905   2.152   7.892   1.038 -2.7480  0.3061 -1.5469
  363MOL0     H47906   2.353   7.540   0.846  1.9305 -2.0830  2.3554
  363MOL0     H47907   2.425   7.547   0.999  0.5988 -2.0994 -0.8778
  363MOL0     H47908   2.601   7.599   0.825 -1.3202 -0.6500 -1.3932
  363MOL0     H47909   2.492   7.701   0.741 -1.9152  2.7752  1.0916
  363MOL0     H47910   2.485   7.868   0.926  0.4688 -0.9314  0.4789
  363MOL0     H47911   2.624   7.863   0.835  0.5567  0.6857  1.1160
  363MOL0     H47912   2.667   7.852   1.111  0.1609  1.0231 -1.3396
  363MOL0     H47913   2.583   7.697   1.102  0.8534 -2.0374 -0.6424
  363MOL0     H47914   2.978   7.629   0.937 -1.1588 -2.3898 -0.5640
  363MOL0     H47915   2.202   7.466   1.010 -1.9109 -0.2376 -1.0240
  363MOL0     H47916   1.985   7.432   1.112 -1.3392  0.9200 -1.5194
  364MOL0     O47917   1.983   0.388   8.148  1.0798 -0.4923  0.3599
  364MOL0     C47918   1.882   0.324   8.188 -0.5060 -0.0944  0.8868
  364MOL0     O47919   1.763   0.377   8.225 -0.1944 -0.0909  0.2207
  364MOL0     C47920   1.752   0.508   8.198 -0.0516 -0.2838  0.1357
  364MOL0     C47921   1.760   0.596   8.304  0.3596 -0.3199 -0.5181
  364MOL0     C47922   1.729   0.734   8.288 -0.3659  0.3779 -0.4440
  364MOL0     C47923   1.695   0.786   8.167 -0.0650 -0.7860  0.3186
  364MOL0     O47924   1.681   0.920   8.172  0.5026  0.7111  0.4580
  364MOL0     C47925   1.679   0.989   8.045  0.0364 -0.2954 -0.8185
  364MOL0     C47926   1.644   1.140   8.075 -0.2436 -0.0384 -0.3104
  364MOL0     C47927   1.506   1.151   8.138 -0.5239 -0.0467 -0.7167
  364MOL0     C47928   1.412   1.174   8.015 -0.1804  0.5666 -1.1959
  364MOL0     C47929   1.270   1.133   8.063 -1.3019 -0.0255  0.7270
  364MOL0     C47930   1.173   1.161   7.952 -0.3536 -0.6559 -0.4809
  364MOL0     C47931   1.032   1.181   8.016  0.2481  0.1399 -0.1532
  364MOL0     C47932   0.921   1.202   7.912 -0.1040 -0.0462  0.0332
  364MOL0     N47933   0.796   1.180   7.992 -0.1139  0.3690  1.2222
  364MOL0     C47934   0.731   1.061   8.032 -0.1429 -0.3991 -0.3446
  364MOL0     C47935   0.607   1.096   8.074  0.6263  0.6838  0.1921
  364MOL0     C47936   0.518   0.993   8.143  0.3143  0.0640 -0.0541
  364MOL0     C47937   0.370   1.033   8.136  0.2840  0.1663  0.1371
  364MOL0     C47938   0.278   0.938   8.212 -0.4641  0.4361 -0.8382
  364MOL0     C47939   0.131   0.965   8.228  0.3046 -0.3886  0.7577
  364MOL0     O47940   0.080   0.993   8.093 -0.3637  0.7308 -0.3150
  364MOL0     C47941  -0.062   1.006   8.085 -1.1642 -0.8080  0.1267
  364MOL0     C47942  -0.145   0.984   8.182  0.0409 -0.8632  0.0171
  364MOL0     C47943  -0.288   1.006   8.171 -0.9626  0.1368  0.1618
  364MOL0     C47944  -0.341   1.048   8.046 -0.3588  0.0397  1.5084
  364MOL0     C47945  -0.490   1.045   8.026 -0.1938  0.0905  1.0075
  364MOL0     O47946  -0.522   1.058   7.891 -0.4499 -0.1838 -0.0034
  364MOL0     C47947  -0.649   1.055   7.849 -1.7939  0.6136  1.2543
  364MOL0     C47948  -0.658   1.006   7.715  0.0790  0.3075 -1.0835
  364MOL0     C47949  -0.788   1.009   7.661 -0.0879  0.4461  0.0105
  364MOL0     C47950  -0.902   1.043   7.729  0.7657 -1.3559 -0.0476
  364MOL0     O47951  -1.020   1.023   7.659 -0.0430  0.1658  0.1143
  364MOL0     C47952  -1.142   0.984   7.733  0.6667 -0.8998 -0.7924
  364MOL0     C47953  -1.268   1.004   7.646 -0.4049  0.1744 -0.1998
  364MOL0     C47954  -1.387   0.963   7.719  0.8862 -0.0876 -0.0949
  364MOL0     C47955  -1.511   1.028   7.654  0.0551  0.1781 -0.3727
  364MOL0     C47956  -1.635   0.977   7.727 -0.8414 -0.6186 -0.4482
  364MOL0     C47957  -1.757   1.014   7.637  0.3604 -0.5813  0.1721
  364MOL0     C47958  -1.893   0.967   7.702 -1.0294 -0.3743  0.3485
  364MOL0     C47959  -1.932   1.040   7.827  0.3150  0.1650 -0.6277
  364MOL0    Cl47960  -1.983   1.203   7.783  0.3900  0.0691 -0.2292
  364MOL0     C47961  -0.890   1.088   7.863  0.2214 -0.5135  0.4426
  364MOL0     C47962  -0.764   1.093   7.920  0.8477  0.0243 -0.1595
  364MOL0     O47963  -0.557   1.006   8.115 -0.1272 -0.1872  0.8645
  364MOL0     C47964  -0.242   1.072   7.949 -0.4026 -0.1743  0.2250
  364MOL0     C47965  -0.103   1.057   7.967  0.1625 -0.0776  0.2733
  364MOL0     N47966   0.586   1.231   8.049 -0.2884 -0.3722 -0.5412
  364MOL0     N47967   0.701   1.277   8.013  0.6009 -0.0582  0.0540
  364MOL0     C47968   1.687   0.699   8.063 -0.2027 -0.1079  0.8290
  364MOL0     C47969   1.707   0.558   8.078  0.5200 -0.3743 -0.1147
  364MOL0     C47970   1.882   0.176   8.183 -0.1461  0.8083  0.0958
  364MOL0     C47971   1.962   0.103   8.089  1.0022 -0.5527 -0.0803
  364MOL0     C47972   1.961  -0.032   8.077  0.3012  0.1733  0.2356
  364MOL0     C47973   1.863  -0.108   8.146 -0.2476 -0.1410  0.0397
  364MOL0     O47974   1.845  -0.247   8.126 -0.1070 -0.4319  0.5435
  364MOL0     C47975   1.937  -0.317   8.049  0.1577  0.9398 -1.0956
  364MOL0     C47976   1.887  -0.332   7.902  0.4230 -0.1421 -0.2760
  364MOL0     C47977   1.774  -0.436   7.881  0.2154 -0.4094 -0.7682
  364MOL0     C47978   1.768  -0.495   7.736  0.2204 -0.6654 -0.5132
  364MOL0     C47979   1.632  -0.535   7.711  0.5036 -0.1712 -1.0219
  364MOL0     C47980   1.516  -0.557   7.677 -0.3780 -0.5291 -1.2697
  364MOL0     C47981   1.768  -0.031   8.222 -0.0275  0.6433  0.3701
  364MOL0     C47982   1.781   0.104   8.247  0.6458 -0.1599  0.3628
  364MOL0     H47983   1.799   0.571   8.402  0.6609  0.0447 -0.5413
  364MOL0     H47984   1.726   0.807   8.368  0.9086  0.2993 -0.2979
  364MOL0     H47985   1.601   0.955   7.977 -2.3545  3.1861 -0.0578
  364MOL0     H47986   1.780   0.976   8.005  0.1567 -1.4704 -0.2064
  364MOL0     H47987   1.645   1.198   7.983 -0.3180  1.1058  0.3942
  364MOL0     H47988   1.725   1.168   8.143 -2.0224  0.1161  1.8660
  364MOL0     H47989   1.498   1.242   8.197 -1.6354  0.7576 -2.0386
  364MOL0     H47990   1.472   1.067   8.199 -3.0642  2.0549  0.9948
  364MOL0     H47991   1.415   1.283   8.003 -0.6169  0.5075 -1.8486
  364MOL0     H47992   1.446   1.119   7.927  1.1257 -1.1342  0.2946
  364MOL0     H47993   1.241   1.187   8.154 -0.8894 -2.4934  2.4565
  364MOL0     H47994   1.265   1.025   8.081 -1.1820 -0.0007  0.9128
  364MOL0     H47995   1.177   1.069   7.894  0.4504 -0.9737  0.0474
  364MOL0     H47996   1.203   1.244   7.888  1.3323  0.6252  1.7968
  364MOL0     H47997   1.002   1.097   8.079 -1.5409  3.1194  3.3655
  364MOL0     H47998   1.031   1.274   8.075 -0.6255  2.4118 -3.4369
  364MOL0     H47999   0.929   1.126   7.834  1.7468  1.7816 -1.6835
  364MOL0     H48000   0.930   1.295   7.856  2.9969 -1.9633 -3.0337
  364MOL0     H48001   0.771   0.963   8.056  1.1937  0.5693  1.6416
  364MOL0     H48002   0.548   0.992   8.248 -1.9794  1.0366  0.6596
  364MOL0     H48003   0.528   0.888   8.112 -1.5189 -0.8571  2.1971
  364MOL0     H48004   0.333   1.039   8.033 -0.9149 -1.3007  0.4417
  364MOL0     H48005   0.356   1.129   8.188  0.6935 -0.6428  1.7870
  364MOL0     H48006   0.303   0.846   8.158 -0.0388  0.5392 -0.8224
  364MOL0     H48007   0.317   0.918   8.313  0.1853  0.0842 -1.1518
  364MOL0     H48008   0.110   1.054   8.288 -0.0884 -0.0181  0.0830
  364MOL0     H48009   0.082   0.878   8.274 -1.5193  0.2286  0.0817
  364MOL0     H48010  -0.114   0.952   8.281 -1.1639  0.2380  0.7834
  364MOL0     H48011  -0.348   0.959   8.249 -1.0674 -0.3708 -0.2189
  364MOL0     H48012  -0.573   0.970   7.658  0.6358  1.0699 -0.7524
  364MOL0     H48013  -0.790   0.964   7.563  2.3897  1.0056 -0.3698
  364MOL0     H48014  -1.151   1.039   7.827 -0.8154 -1.7310 -0.4359
  364MOL0     H48015  -1.132   0.877   7.750 -2.3465 -1.3582 -1.4742
  364MOL0     H48016  -1.260   0.943   7.556 -0.1106 -2.7373  1.6843
  364MOL0     H48017  -1.263   1.109   7.614 -0.6097  0.8172  1.7221
  364MOL0     H48018  -1.387   0.994   7.824 -0.4372  0.5091 -0.2477
  364MOL0     H48019  -1.395   0.854   7.727  0.7954  0.0579  3.2260
  364MOL0     H48020  -1.523   1.136   7.661  1.6386  0.2947  1.9420
  364MOL0     H48021  -1.517   0.990   7.552  0.6970 -2.4652  0.4962
  364MOL0     H48022  -1.637   1.022   7.826  1.5250 -1.1739 -0.0754
  364MOL0     H48023  -1.634   0.869   7.749 -1.7544  0.0191  3.4269
  364MOL0     H48024  -1.753   0.976   7.534 -2.1481  1.5231 -0.8207
  364MOL0     H48025  -1.761   1.122   7.621  0.3984 -1.0474 -4.1927
  364MOL0     H48026  -1.963   0.975   7.619  0.2595 -2.0591 -0.9849
  364MOL0     H48027  -1.881   0.862   7.729 -2.4593 -0.6702 -0.1260
  364MOL0     H48028  -1.849   1.043   7.898  0.1379  0.3887 -0.4239
  364MOL0     H48029  -2.001   0.984   7.891 -0.3592 -0.5822 -1.9561
  364MOL0     H48030  -0.980   1.116   7.918  0.5450  0.3870  0.5198
  364MOL0     H48031  -0.754   1.140   8.017 -0.6436 -0.8831  0.4692
  364MOL0     H48032  -0.277   1.102   7.851 -0.8082  1.8221  0.9220
  364MOL0     H48033  -0.033   1.090   7.892 -0.0847 -0.7735 -0.2733
  364MOL0     H48034   1.665   0.723   7.959  1.6664  1.5530  0.7713
  364MOL0     H48035   1.695   0.482   8.001 -0.2442 -2.0062  1.5670
  364MOL0     H48036   2.023   0.155   8.016  0.1070 -0.5912 -0.8762
  364MOL0     H48037   2.022  -0.096   8.014 -0.5549 -2.4527  1.8864
  364MOL0     H48038   1.928  -0.417   8.092 -0.2526  0.8461 -1.3927
  364MOL0     H48039   2.038  -0.283   8.074 -0.3554 -0.7776  4.8437
  364MOL0     H48040   1.860  -0.232   7.867 -1.8436  1.3733  4.7956
  364MOL0     H48041   1.975  -0.376   7.855  1.0056  1.8067 -1.1124
  364MOL0     H48042   1.674  -0.394   7.899  0.9784  1.8967 -1.5650
  364MOL0     H48043   1.791  -0.521   7.948  1.6337  0.2355 -0.2781
  364MOL0     H48044   1.791  -0.419   7.661  2.2900  0.2197  0.9220
  364MOL0     H48045   1.844  -0.574   7.733 -0.8368 -1.7252 -0.4490
  364MOL0     H48046   1.416  -0.551   7.639 -1.1778  2.5666  0.8983
  364MOL0     H48047   1.686  -0.082   8.272  1.6111  1.7381  4.6498
  364MOL0     H48048   1.717   0.159   8.315  0.0569  0.1357 -0.4163
  365MOL0     O48049   0.506   5.713   7.860  0.5934 -0.0492  0.1855
  365MOL0     C48050   0.466   5.605   7.889 -0.3453  0.5614  0.1308
  365MOL0     O48051   0.536   5.520   7.968  1.0226  0.1936 -0.0879
  365MOL0     C48052   0.670   5.534   8.004  0.2424 -0.1012  0.4802
  365MOL0     C48053   0.767   5.601   7.921 -0.5087  0.0594 -0.4629
  365MOL0     C48054   0.903   5.595   7.947  0.0896 -0.2334 -1.1539
  365MOL0     C48055   0.941   5.523   8.064 -1.3342 -0.2079  0.3130
  365MOL0     O48056   1.072   5.540   8.101 -0.2464 -0.4351 -0.9092
  365MOL0     C48057   1.112   5.566   8.234 -0.1035  0.0385 -0.9413
  365MOL0     C48058   1.258   5.608   8.228  0.0730  0.0386 -0.0566
  365MOL0     C48059   1.338   5.486   8.193 -0.2369  0.3569 -0.7191
  365MOL0     C48060   1.487   5.524   8.163 -0.0655  0.0520 -0.1099
  365MOL0     C48061   1.569   5.588   8.278  0.5662 -0.2999 -1.4920
  365MOL0     C48062   1.713   5.594   8.238  0.6472  0.1907  0.6736
  365MOL0     C48063   1.794   5.682   8.343 -0.1298  0.3796 -0.4177
  365MOL0     C48064   1.944   5.661   8.305 -0.0567 -0.0533 -0.2765
  365MOL0     N48065   2.034   5.744   8.391 -0.3466  0.1330  0.2538
  365MOL0     C48066   2.158   5.777   8.357 -1.0213 -0.1633  0.1081
  365MOL0     C48067   2.216   5.828   8.463  0.3964 -0.1040  0.4254
  365MOL0     C48068   2.350   5.884   8.461 -0.4503  0.1875 -0.1687
  365MOL0     C48069   2.456   5.783   8.440 -0.4737 -0.6864 -0.2591
  365MOL0     C48070   2.456   5.682   8.553 -0.5375 -0.3210 -0.3934
  365MOL0     C48071   2.362   5.564   8.540  1.0891 -0.0180 -0.6045
  365MOL0     O48072   2.337   5.528   8.404  0.5110  0.3546  0.3583
  365MOL0     C48073   2.218   5.454   8.374 -0.1240 -0.1947 -0.4982
  365MOL0     C48074   2.189   5.407   8.244 -0.5766 -0.5809  0.0068
  365MOL0     C48075   2.095   5.309   8.221  0.1213  0.6436  0.0718
  365MOL0     C48076   2.018   5.249   8.317 -0.3381  0.3379 -0.3326
  365MOL0     C48077   1.913   5.144   8.287 -0.4596 -0.7760  0.0522
  365MOL0     O48078   1.817   5.139   8.386 -0.9872 -0.8547  0.6952
  365MOL0     C48079   1.692   5.076   8.378  0.5168 -0.4458  0.5303
  365MOL0     C48080   1.647   5.018   8.492 -0.2877  0.2520  0.0590
  365MOL0     C48081   1.527   4.935   8.492  0.5577 -0.5893 -0.1571
  365MOL0     C48082   1.445   4.938   8.375 -0.3451 -0.5051 -0.6979
  365MOL0     O48083   1.326   4.868   8.353  0.0649 -0.5827  0.4727
  365MOL0     C48084   1.282   4.786   8.471 -0.6026  0.0333 -0.0028
  365MOL0     C48085   1.147   4.727   8.450  1.0345  0.4363 -0.3307
  365MOL0     C48086   1.090   4.639   8.569 -0.4855 -0.9574 -0.1493
  365MOL0     C48087   0.950   4.602   8.549 -0.1929  0.6695 -1.5622
  365MOL0     C48088   0.897   4.551   8.682  0.3330 -0.6658 -1.0102
  365MOL0     C48089   0.757   4.498   8.677 -0.2703  0.2371  0.2041
  365MOL0     C48090   0.731   4.355   8.635  0.5451 -0.4073  0.3261
  365MOL0     C48091   0.584   4.331   8.628 -0.0718  0.1392 -0.0428
  365MOL0    Cl48092   0.508   4.363   8.786 -0.2412 -0.0524 -0.2511
  365MOL0     C48093   1.487   5.007   8.267  1.0469 -0.0385 -0.0730
  365MOL0     C48094   1.611   5.068   8.263  0.4299  0.2499 -0.0109
  365MOL0     O48095   1.906   5.108   8.174  0.2451 -0.5139  0.0308
  365MOL0     C48096   2.034   5.303   8.447 -1.3988 -0.0266  0.2578
  365MOL0     C48097   2.132   5.396   8.475 -0.0012  0.6286  0.5871
  365MOL0     N48098   2.120   5.834   8.553  0.5844 -0.6527  0.0236
  365MOL0     N48099   2.006   5.791   8.523 -1.2900  0.9813 -0.6297
  365MOL0     C48100   0.846   5.465   8.151  0.3894  0.6051  0.4052
  365MOL0     C48101   0.710   5.463   8.108 -0.2943  0.8351  0.3180
  365MOL0     C48102   0.335   5.558   7.850 -0.2114  0.3652  0.3760
  365MOL0     C48103   0.297   5.426   7.869 -0.1047 -0.1874 -0.2014
  365MOL0     C48104   0.167   5.383   7.832  0.4773  0.3349 -0.5642
  365MOL0     C48105   0.090   5.458   7.741 -0.5224  0.3873 -1.4038
  365MOL0     O48106  -0.023   5.402   7.694  0.5837  0.1795  0.6121
  365MOL0     C48107  -0.105   5.475   7.596 -0.5468 -0.0591  0.3124
  365MOL0     C48108  -0.210   5.378   7.534 -0.8652 -1.2251  0.0062
  365MOL0     C48109  -0.297   5.453   7.437 -0.2281  0.8277  0.1128
  365MOL0     C48110  -0.405   5.358   7.383  0.3577  0.2800 -0.7078
  365MOL0     C48111  -0.482   5.426   7.284  0.7137  0.2654 -0.1703
  365MOL0     C48112  -0.540   5.479   7.186 -0.3072  0.0353  0.3055
  365MOL0     C48113   0.126   5.599   7.729  0.9072  0.0788  0.7579
  365MOL0     C48114   0.246   5.648   7.783  0.1137 -0.8394 -1.1734
  365MOL0     H48115   0.741   5.661   7.834 -3.8382 -0.8582 -0.2445
  365MOL0     H48116   0.984   5.628   7.882  2.9372 -1.9996  1.2242
  365MOL0     H48117   1.101   5.483   8.304  0.2727  1.4757  0.8988
  365MOL0     H48118   1.050   5.646   8.276  1.3598  1.6048 -1.6259
  365MOL0     H48119   1.286   5.654   8.323  0.5106  0.0564 -0.1907
  365MOL0     H48120   1.262   5.681   8.147 -1.9454  0.8775  0.5291
  365MOL0     H48121   1.289   5.445   8.104  0.9588  1.4000 -1.9034
  365MOL0     H48122   1.341   5.408   8.269 -5.2077 -0.5256 -1.0637
  365MOL0     H48123   1.541   5.430   8.145  1.4892  0.2643  2.8116
  365MOL0     H48124   1.501   5.587   8.076  0.0092  2.0421  1.2816
  365MOL0     H48125   1.568   5.529   8.371  1.7190 -1.2615 -2.0625
  365MOL0     H48126   1.526   5.687   8.295  0.7036 -0.3417 -0.8425
  365MOL0     H48127   1.708   5.642   8.140 -3.6730 -0.0877  0.5627
  365MOL0     H48128   1.759   5.495   8.239 -1.1881 -0.7071  0.4112
  365MOL0     H48129   1.772   5.788   8.335 -0.4985  0.4233  0.8764
  365MOL0     H48130   1.772   5.636   8.441  1.3728 -2.8855 -1.4685
  365MOL0     H48131   1.966   5.680   8.200  2.6446 -0.1689  0.1951
  365MOL0     H48132   1.965   5.554   8.300  2.7088  0.4821 -3.5832
  365MOL0     H48133   2.208   5.746   8.267  0.8037  0.3632  0.9049
  365MOL0     H48134   2.368   5.939   8.554 -0.2485  0.4491 -0.3626
  365MOL0     H48135   2.364   5.947   8.373  3.8284 -3.1188 -2.2541
  365MOL0     H48136   2.551   5.836   8.441 -0.1868 -1.1915  0.1536
  365MOL0     H48137   2.449   5.744   8.339  2.7617  2.4382 -1.9184
  365MOL0     H48138   2.553   5.634   8.564 -1.0623 -0.9755  1.7754
  365MOL0     H48139   2.440   5.729   8.650  2.5077 -2.5940  1.3824
  365MOL0     H48140   2.269   5.607   8.579  1.5320  0.5008 -0.1004
  365MOL0     H48141   2.381   5.477   8.604 -2.9766 -2.1461 -1.9567
  365MOL0     H48142   2.245   5.445   8.159  0.7431  2.2406  1.9837
  365MOL0     H48143   2.073   5.276   8.120  1.5764 -3.5562  0.9410
  365MOL0     H48144   1.698   5.020   8.588 -2.8394 -3.7143  1.8130
  365MOL0     H48145   1.502   4.897   8.590  2.3187 -0.0808  0.5499
  365MOL0     H48146   1.290   4.846   8.563 -1.5474 -0.3390  0.3312
  365MOL0     H48147   1.348   4.699   8.469 -1.3477 -0.6170 -4.1626
  365MOL0     H48148   1.156   4.664   8.361  0.3874 -1.7462  1.0750
  365MOL0     H48149   1.078   4.809   8.429 -2.0602 -0.9315  3.3425
  365MOL0     H48150   1.097   4.703   8.657  0.8500  3.6530 -3.2212
  365MOL0     H48151   1.150   4.547   8.566 -1.0282 -1.5424  3.4199
  365MOL0     H48152   0.896   4.692   8.521  1.3267  1.5150 -1.8521
  365MOL0     H48153   0.951   4.533   8.464 -1.8077  3.3314 -3.8834
  365MOL0     H48154   0.886   4.641   8.744  0.5795  0.0626 -2.0040
  365MOL0     H48155   0.958   4.475   8.731  1.2362  0.1844 -0.7893
  365MOL0     H48156   0.704   4.567   8.611 -0.9625 -0.0374  0.4610
  365MOL0     H48157   0.715   4.514   8.777 -2.8265 -3.2130 -0.1048
  365MOL0     H48158   0.779   4.343   8.537 -2.0541  0.5680 -1.1658
  365MOL0     H48159   0.778   4.287   8.707  0.0027  0.6808  1.7452
  365MOL0     H48160   0.580   4.227   8.596  2.0247 -0.2920  0.9603
  365MOL0     H48161   0.543   4.391   8.546  0.1866  0.0402 -0.2454
  365MOL0     H48162   1.425   5.003   8.177  0.6949  1.6528  0.0598
  365MOL0     H48163   1.657   5.112   8.176  0.0783  0.9912  0.1705
  365MOL0     H48164   1.969   5.263   8.523 -3.0579 -1.8122 -1.9678
  365MOL0     H48165   2.136   5.433   8.577  1.0480 -1.8105  1.4987
  365MOL0     H48166   0.878   5.409   8.238  0.3931 -0.4226 -0.2398
  365MOL0     H48167   0.634   5.404   8.159 -1.0300 -1.5973 -3.2790
  365MOL0     H48168   0.367   5.347   7.893 -0.6714 -0.8803 -0.7869
  365MOL0     H48169   0.140   5.280   7.851  2.9362 -0.7012 -2.2479
  365MOL0     H48170  -0.043   5.492   7.507 -1.3374 -0.4000 -0.3192
  365MOL0     H48171  -0.150   5.566   7.636  0.5285  0.4223  0.4661
  365MOL0     H48172  -0.164   5.301   7.472  0.6026 -0.0270 -0.4478
  365MOL0     H48173  -0.265   5.341   7.622 -0.2535 -1.1856  0.4134
  365MOL0     H48174  -0.235   5.486   7.353 -2.8992  1.9661 -1.5655
  365MOL0     H48175  -0.350   5.540   7.477  1.0144  1.2353  0.9457
  365MOL0     H48176  -0.369   5.263   7.342  1.1732  1.1495 -2.1132
  365MOL0     H48177  -0.474   5.345   7.467 -1.4064  0.8291 -2.0199
  365MOL0     H48178  -0.603   5.513   7.106 -0.6060  0.6648  0.7991
  365MOL0     H48179   0.069   5.656   7.656  3.3733  0.2459 -1.1477
  365MOL0     H48180   0.274   5.751   7.767  0.6668 -0.7768  0.0468
  366MOL0     O48181   8.716   5.765   6.095  0.0022  0.2131  0.0656
  366MOL0     C48182   8.806   5.843   6.109 -0.4366  0.2809 -0.3909
  366MOL0     O48183   8.807   5.982   6.070  0.0260  0.7254 -0.0693
  366MOL0     C48184   8.689   6.037   6.038 -0.4703  0.0215  0.7561
  366MOL0     C48185   8.688   6.147   5.951 -1.3748  1.1725 -0.0923
  366MOL0     C48186   8.588   6.235   5.928 -0.0846  0.4798  0.2539
  366MOL0     C48187   8.477   6.222   6.012 -0.4883  0.4418  0.1764
  366MOL0     O48188   8.379   6.320   5.994 -0.4219 -0.1205 -0.3052
  366MOL0     C48189   8.252   6.310   6.063  0.3548 -0.5011 -0.0552
  366MOL0     C48190   8.163   6.420   6.006 -0.8163 -0.0442 -0.3835
  366MOL0     C48191   8.014   6.393   6.048 -0.8590  0.6761  0.5472
  366MOL0     C48192   7.926   6.518   6.034  0.4795  0.0877  0.3011
  366MOL0     C48193   7.776   6.510   6.066  0.3913  0.5593 -0.3525
  366MOL0     C48194   7.754   6.424   6.189 -0.3094  0.8061  1.0595
  366MOL0     C48195   7.612   6.447   6.243  0.1051  0.3281 -0.2150
  366MOL0     C48196   7.600   6.359   6.378 -0.1663 -0.4371  0.5303
  366MOL0     N48197   7.488   6.401   6.464 -0.1842  0.1626 -0.3697
  366MOL0     C48198   7.359   6.417   6.420  0.5712 -0.0540 -0.0067
  366MOL0     C48199   7.275   6.417   6.528  0.5090  0.0706  1.3718
  366MOL0     C48200   7.122   6.424   6.516 -0.4185 -0.5719 -0.1549
  366MOL0     C48201   7.064   6.550   6.441  0.2122 -0.1467  0.1864
  366MOL0     C48202   6.944   6.504   6.356 -0.4071  0.7219 -0.3129
  366MOL0     C48203   6.884   6.619   6.286  0.8286 -0.3724  0.2294
  366MOL0     O48204   6.765   6.566   6.234  0.1008  0.3773 -0.4871
  366MOL0     C48205   6.683   6.652   6.164 -0.0088 -0.0378 -0.0792
  366MOL0     C48206   6.710   6.785   6.126  1.5916 -0.1795 -0.8092
  366MOL0     C48207   6.602   6.870   6.075 -0.4754  0.9851 -0.4880
  366MOL0     C48208   6.475   6.822   6.065 -0.0864  0.1019  0.1468
  366MOL0     C48209   6.371   6.912   6.006 -0.3201 -0.7829 -0.9731
  366MOL0     O48210   6.300   6.869   5.901  0.5516 -0.2878 -0.6819
  366MOL0     C48211   6.194   6.945   5.857  0.2931 -0.1458  0.6871
  366MOL0     C48212   6.080   6.871   5.841  0.4909 -0.4606  1.0202
  366MOL0     C48213   5.960   6.935   5.789 -0.1286  0.4857 -0.6446
  366MOL0     C48214   5.971   7.070   5.753  0.5199  0.7859 -0.8365
  366MOL0     O48215   5.865   7.123   5.683  0.3557 -0.0020  0.0163
  366MOL0     C48216   5.763   7.202   5.747 -0.1196  0.9788  0.3084
  366MOL0     C48217   5.656   7.112   5.797  0.7892  0.3433 -0.6333
  366MOL0     C48218   5.532   7.185   5.840 -0.4067  0.5081  0.4968
  366MOL0     C48219   5.440   7.223   5.720 -0.9447 -0.0085 -0.8166
  366MOL0     C48220   5.344   7.334   5.762  0.6588  0.3681  0.0472
  366MOL0     C48221   5.243   7.270   5.864  0.6485 -0.0111  0.5562
  366MOL0     C48222   5.127   7.369   5.889  0.0101  0.6881  0.4821
  366MOL0     C48223   5.017   7.281   5.948 -0.3487 -0.1473 -0.9475
  366MOL0    Cl48224   4.887   7.377   6.009  0.5880  0.2996 -0.3858
  366MOL0     C48225   6.089   7.144   5.765  0.0273  0.0338  0.3898
  366MOL0     C48226   6.195   7.084   5.815 -0.1849  0.2103  0.3580
  366MOL0     O48227   6.347   7.019   6.070  0.3240  0.9790 -0.4230
  366MOL0     C48228   6.455   6.683   6.088 -0.1845 -0.3248  0.0012
  366MOL0     C48229   6.562   6.601   6.130  0.0677 -1.0002 -1.1572
  366MOL0     N48230   7.356   6.403   6.639  0.6322 -0.0002  0.0189
  366MOL0     N48231   7.484   6.394   6.599  0.1022  0.9117 -0.6311
  366MOL0     C48232   8.476   6.123   6.118  0.1782 -0.0821 -0.8705
  366MOL0     C48233   8.581   6.030   6.127  0.4829 -0.9956  0.3931
  366MOL0     C48234   8.936   5.790   6.165  0.9278  0.7735 -0.3119
  366MOL0     C48235   9.054   5.865   6.143 -0.4122 -0.2873  0.7010
  366MOL0     C48236   9.178   5.814   6.185 -0.0368 -0.3288 -0.0749
  366MOL0     C48237   9.194   5.700   6.250  0.0249 -0.0501  0.1352
  366MOL0     O48238   9.314   5.668   6.300 -0.5775 -0.3936 -0.0832
  366MOL0     C48239   9.363   5.536   6.275 -0.6082  0.1257  0.3008
  366MOL0     C48240   9.510   5.509   6.323  0.0411  0.3268  0.1364
  366MOL0     C48241   9.611   5.608   6.281 -0.3870  0.4275 -0.1534
  366MOL0     C48242   9.754   5.575   6.322 -1.0348 -0.1761 -0.1535
  366MOL0     C48243   9.854   5.664   6.248  0.9346  0.0584 -0.4026
  366MOL0     C48244   9.929   5.751   6.197 -0.2218 -0.3222 -0.0748
  366MOL0     C48245   9.079   5.624   6.284  0.0188 -0.1833 -0.0428
  366MOL0     C48246   8.958   5.667   6.233  0.3822  0.5694 -0.2098
  366MOL0     H48247   8.782   6.161   5.898 -1.0176  0.5371  0.3580
  366MOL0     H48248   8.599   6.311   5.851 -0.2283  1.0895  0.8316
  366MOL0     H48249   8.277   6.331   6.167  0.5212 -1.6691  0.1521
  366MOL0     H48250   8.205   6.212   6.051 -2.7055  0.8189  0.1505
  366MOL0     H48251   8.181   6.430   5.899 -1.8577  2.8310 -0.3841
  366MOL0     H48252   8.200   6.519   6.035 -1.0194  0.0799 -0.5448
  366MOL0     H48253   8.013   6.370   6.155  0.0039 -0.7065  0.2881
  366MOL0     H48254   7.971   6.319   5.980 -1.7322  2.5255 -1.0111
  366MOL0     H48255   7.964   6.586   6.111  3.4184  0.2665 -1.1619
  366MOL0     H48256   7.954   6.563   5.938  2.8319 -1.1405  0.3292
  366MOL0     H48257   7.718   6.459   5.989 -0.4941 -1.9661  1.8131
  366MOL0     H48258   7.730   6.608   6.070  1.2475  0.9617 -0.0678
  366MOL0     H48259   7.831   6.450   6.263 -1.0867 -1.2224  2.6747
  366MOL0     H48260   7.749   6.317   6.168 -0.8196  1.3471 -1.9130
  366MOL0     H48261   7.590   6.553   6.259  2.9583  1.5221 -2.9926
  366MOL0     H48262   7.538   6.411   6.171  0.9440 -0.3407 -0.7623
  366MOL0     H48263   7.692   6.353   6.436 -1.5571  2.8209  3.4468
  366MOL0     H48264   7.570   6.259   6.346 -0.4818 -0.3065  0.4084
  366MOL0     H48265   7.328   6.415   6.316  0.7828  0.3396 -0.0778
  366MOL0     H48266   7.078   6.420   6.615  0.3754 -1.4087  0.1779
  366MOL0     H48267   7.100   6.334   6.457  1.1874 -0.0239 -1.6991
  366MOL0     H48268   7.137   6.590   6.370 -0.5571 -1.3174 -1.3288
  366MOL0     H48269   7.038   6.616   6.524  1.0857 -1.7194  1.7806
  366MOL0     H48270   6.977   6.440   6.273  1.7399 -1.8368  2.3290
  366MOL0     H48271   6.869   6.449   6.413 -0.5791 -0.1906 -1.3893
  366MOL0     H48272   6.959   6.658   6.217  0.6737 -1.0148 -0.3130
  366MOL0     H48273   6.867   6.701   6.356  0.8680 -1.4181  1.4843
  366MOL0     H48274   6.809   6.826   6.142  0.9511  0.3737  2.6623
  366MOL0     H48275   6.626   6.974   6.056 -0.2240  0.8504 -0.9313
  366MOL0     H48276   6.084   6.769   5.877  2.2212 -0.2853  1.4318
  366MOL0     H48277   5.872   6.876   5.768  0.1035  0.1011 -0.5532
  366MOL0     H48278   5.729   7.273   5.671 -0.7238 -3.4911 -4.1386
  366MOL0     H48279   5.802   7.249   5.838  2.2943 -1.6085  0.7569
  366MOL0     H48280   5.697   7.054   5.880  4.2954 -1.2915 -3.2664
  366MOL0     H48281   5.624   7.045   5.717 -0.5058 -3.0531  2.4577
  366MOL0     H48282   5.570   7.273   5.894 -1.5508  1.3330 -0.0005
  366MOL0     H48283   5.483   7.111   5.902  1.2332  0.3373  1.6468
  366MOL0     H48284   5.507   7.254   5.639  0.6625  1.0283  0.8112
  366MOL0     H48285   5.388   7.133   5.688  0.4303 -0.8509 -0.7808
  366MOL0     H48286   5.286   7.365   5.675  1.1356 -1.3229 -0.9310
  366MOL0     H48287   5.387   7.426   5.804  1.6665 -0.8054  1.7340
  366MOL0     H48288   5.304   7.252   5.953  1.3892 -0.8069 -0.0941
  366MOL0     H48289   5.202   7.180   5.818 -3.8344  3.4373 -3.1500
  366MOL0     H48290   5.154   7.435   5.972  1.0619 -0.5695  1.1663
  366MOL0     H48291   5.099   7.426   5.800  0.8640  2.0948  1.0854
  366MOL0     H48292   5.060   7.228   6.033 -3.1999  0.7671  1.2049
  366MOL0     H48293   4.980   7.217   5.867 -2.3780 -0.2982  0.0258
  366MOL0     H48294   6.097   7.245   5.726  1.1865 -0.7314 -1.4704
  366MOL0     H48295   6.283   7.147   5.802 -0.4025  0.6903  1.1425
  366MOL0     H48296   6.359   6.632   6.079  0.6967 -1.8593 -1.3142
  366MOL0     H48297   6.547   6.497   6.156  0.6523 -0.6696  0.6467
  366MOL0     H48298   8.397   6.126   6.193  0.6203 -3.9801 -0.0178
  366MOL0     H48299   8.585   5.960   6.210  0.3013 -1.8224 -0.2797
  366MOL0     H48300   9.058   5.962   6.095  3.0711 -0.3197  0.6838
  366MOL0     H48301   9.270   5.867   6.169 -0.6375  1.2406  1.3998
  366MOL0     H48302   9.355   5.517   6.168  0.5889 -3.2635  0.6822
  366MOL0     H48303   9.301   5.452   6.308  0.7262 -1.9324 -2.0746
  366MOL0     H48304   9.489   5.513   6.430 -0.3192  0.8520  0.0454
  366MOL0     H48305   9.537   5.406   6.297 -0.0542 -0.3226  2.4214
  366MOL0     H48306   9.592   5.706   6.325 -2.6429 -0.5034  1.0834
  366MOL0     H48307   9.593   5.612   6.173  0.4157  1.5238 -0.2652
  366MOL0     H48308   9.771   5.584   6.430 -0.0701 -2.4297 -0.0573
  366MOL0     H48309   9.779   5.470   6.302  1.8725  0.1671  1.1253
  366MOL0     H48310   9.996   5.821   6.151 -0.3952  1.1821  1.8249
  366MOL0     H48311   9.076   5.532   6.342 -2.0494  0.1933  0.5323
  366MOL0     H48312   8.868   5.609   6.251  0.2330  0.3421 -1.5384
  367MOL0     O48313   3.242   3.511   2.497  0.4022 -0.0173 -0.5123
  367MOL0     C48314   3.299   3.494   2.604 -0.5608  0.2314 -0.5455
  367MOL0     O48315   3.240   3.471   2.723 -0.0769 -0.3536  0.5496
  367MOL0     C48316   3.106   3.471   2.720  0.1311  0.2385 -0.1475
  367MOL0     C48317   3.034   3.589   2.739  0.8324  0.2721 -0.8025
  367MOL0     C48318   2.895   3.597   2.729  1.1393  0.8117 -0.0218
  367MOL0     C48319   2.824   3.478   2.699 -0.3482 -0.1544  0.9537
  367MOL0     O48320   2.690   3.492   2.675  0.0969 -0.6951 -0.4737
  367MOL0     C48321   2.615   3.388   2.621  1.1662  0.1837  0.0206
  367MOL0     C48322   2.470   3.438   2.604  0.3456  0.1827  0.4403
  367MOL0     C48323   2.455   3.566   2.512 -0.5748 -0.7953  0.3105
  367MOL0     C48324   2.310   3.586   2.490  0.5791  0.8263 -0.1959
  367MOL0     C48325   2.271   3.696   2.391 -0.6779  0.1351 -0.3286
  367MOL0     C48326   2.263   3.825   2.476  0.0593 -0.2280 -0.5485
  367MOL0     C48327   2.261   3.953   2.387 -0.5448 -0.0917 -0.2724
  367MOL0     C48328   2.263   4.078   2.477 -0.0891  0.7010  0.2851
  367MOL0     N48329   2.146   4.094   2.556  0.1964 -0.5089 -0.8030
  367MOL0     C48330   2.034   4.177   2.520 -0.0476  0.3953  0.1285
  367MOL0     C48331   1.967   4.193   2.634  0.3560 -1.0070 -0.8581
  367MOL0     C48332   1.845   4.283   2.654 -0.4225 -1.0425 -0.4071
  367MOL0     C48333   1.869   4.429   2.607  0.1451  0.3788  0.4974
  367MOL0     C48334   1.772   4.523   2.672 -0.0145 -0.3810 -0.8364
  367MOL0     C48335   1.636   4.522   2.629  0.6487  0.3959  0.0147
  367MOL0     O48336   1.556   4.615   2.705  0.7461  0.3051  0.4648
  367MOL0     C48337   1.418   4.606   2.680 -0.1486 -0.9143 -0.2362
  367MOL0     C48338   1.345   4.500   2.622 -0.1010  0.7805 -0.1362
  367MOL0     C48339   1.204   4.518   2.600 -0.7412 -0.2312  0.9105
  367MOL0     C48340   1.141   4.638   2.636  0.0591 -0.2306  0.2454
  367MOL0     C48341   0.997   4.657   2.598 -0.0865 -1.1565  0.1288
  367MOL0     O48342   0.953   4.788   2.617  0.1429 -0.1723 -0.8653
  367MOL0     C48343   0.825   4.827   2.581  1.0092 -0.4676  0.0823
  367MOL0     C48344   0.742   4.769   2.484 -0.2070  0.0045  0.5373
  367MOL0     C48345   0.623   4.825   2.470  1.1208  0.3935 -0.4575
  367MOL0     C48346   0.575   4.932   2.542  0.2966 -0.3899  0.0791
  367MOL0     O48347   0.451   4.989   2.535  1.0135  0.8758  0.0040
  367MOL0     C48348   0.341   4.895   2.507  0.0994  0.1985 -0.4847
  367MOL0     C48349   0.210   4.966   2.534 -0.6453  0.0146  0.5665
  367MOL0     C48350   0.090   4.888   2.465  0.4656  0.0854  0.1759
  367MOL0     C48351  -0.033   4.977   2.454 -0.0237 -0.0755 -0.6884
  367MOL0     C48352  -0.158   4.901   2.402 -0.5626 -1.0153  0.4137
  367MOL0     C48353  -0.282   4.995   2.367 -0.1902  0.3040 -0.6814
  367MOL0     C48354  -0.394   4.909   2.346  0.0593  0.5946 -0.2214
  367MOL0     C48355  -0.514   5.002   2.315 -0.0303  0.1807 -0.1928
  367MOL0    Cl48356  -0.670   4.926   2.262 -0.1401  0.2425  0.1110
  367MOL0     C48357   0.658   4.994   2.634 -0.1688 -0.4244  0.1845
  367MOL0     C48358   0.785   4.950   2.641 -0.2004  0.1781  0.0194
  367MOL0     O48359   0.933   4.566   2.556 -0.6774  0.3198  0.2504
  367MOL0     C48360   1.218   4.746   2.695  0.0557 -0.1453 -0.2418
  367MOL0     C48361   1.351   4.718   2.720 -0.9376 -0.1299  0.3960
  367MOL0     N48362   2.033   4.128   2.737 -0.5684 -0.1083  0.0259
  367MOL0     N48363   2.135   4.067   2.689  0.1124  0.5158 -0.5951
  367MOL0     C48364   2.898   3.360   2.677  0.5958  0.1030 -0.1562
  367MOL0     C48365   3.038   3.353   2.684 -0.5778 -0.2175  0.5103
  367MOL0     C48366   3.444   3.495   2.607 -0.1421 -0.2213  0.1404
  367MOL0     C48367   3.512   3.459   2.721 -1.1443  0.1876  0.4293
  367MOL0     C48368   3.651   3.458   2.713 -0.3787 -0.0573  0.2112
  367MOL0     C48369   3.722   3.494   2.601 -0.8351  0.3768 -0.9471
  367MOL0     O48370   3.854   3.521   2.588  0.2627  0.1309 -0.6589
  367MOL0     C48371   3.944   3.489   2.701 -0.3695  0.3260  0.0332
  367MOL0     C48372   4.095   3.506   2.672 -0.4873  0.0851  0.2206
  367MOL0     C48373   4.174   3.424   2.774  0.1827 -0.1919  0.5800
  367MOL0     C48374   4.208   3.505   2.897  0.3486  0.0090 -0.2434
  367MOL0     C48375   4.269   3.424   2.996 -0.0848 -0.8948  0.2514
  367MOL0     C48376   4.321   3.343   3.069 -0.4291 -0.0372 -0.2175
  367MOL0     C48377   3.656   3.525   2.489  0.1556 -0.3515 -0.2971
  367MOL0     C48378   3.515   3.518   2.494 -0.2908  0.9731  0.3273
  367MOL0     H48379   3.100   3.675   2.746  0.3139  0.8472 -2.4058
  367MOL0     H48380   2.838   3.686   2.756  1.5439  1.1146 -0.1574
  367MOL0     H48381   2.618   3.302   2.687  0.0907  0.5616  0.5852
  367MOL0     H48382   2.653   3.369   2.520  1.0303 -0.9210  0.1724
  367MOL0     H48383   2.430   3.458   2.704  3.2005  3.2266  1.1583
  367MOL0     H48384   2.427   3.354   2.548 -0.6635  1.2363 -0.4303
  367MOL0     H48385   2.518   3.543   2.425 -3.2564  0.2506 -2.0629
  367MOL0     H48386   2.503   3.653   2.558 -1.1396  0.4376 -1.3208
  367MOL0     H48387   2.263   3.493   2.456  2.8098  0.2383 -1.9130
  367MOL0     H48388   2.257   3.606   2.584  1.1802  0.4342  0.2313
  367MOL0     H48389   2.182   3.680   2.329 -0.3963  2.3498 -1.4042
  367MOL0     H48390   2.353   3.719   2.322 -0.8464  3.3702  0.3682
  367MOL0     H48391   2.348   3.832   2.544  0.5939  1.1401 -1.3095
  367MOL0     H48392   2.169   3.811   2.530  0.8436 -1.8547  0.4832
  367MOL0     H48393   2.346   3.947   2.319 -1.5963 -3.7411 -1.5037
  367MOL0     H48394   2.169   3.947   2.328 -2.5726  0.9014  2.5732
  367MOL0     H48395   2.282   4.168   2.418 -0.0940 -0.1933 -1.1391
  367MOL0     H48396   2.343   4.062   2.550 -1.0316  0.0643  1.2113
  367MOL0     H48397   2.018   4.215   2.419 -0.8921  0.5434  0.3121
  367MOL0     H48398   1.822   4.285   2.761 -1.1948 -2.0680 -0.5369
  367MOL0     H48399   1.767   4.236   2.593 -0.1913 -1.5020 -0.3530
  367MOL0     H48400   1.871   4.437   2.498  1.4350 -1.4408  0.3566
  367MOL0     H48401   1.965   4.456   2.650 -0.1361  2.1840  0.1103
  367MOL0     H48402   1.781   4.516   2.781  0.8406 -1.3125 -0.9473
  367MOL0     H48403   1.819   4.621   2.659  2.5705 -1.2552  0.9444
  367MOL0     H48404   1.600   4.419   2.641  1.6207 -0.1915 -1.7762
  367MOL0     H48405   1.623   4.547   2.523  0.4966  1.1250  0.1991
  367MOL0     H48406   1.390   4.407   2.586 -0.4829 -0.6578  2.8398
  367MOL0     H48407   1.157   4.431   2.557  0.5323 -0.9668  0.9372
  367MOL0     H48408   0.758   4.675   2.432 -1.6495  0.0303  0.0119
  367MOL0     H48409   0.559   4.785   2.392  0.0132 -0.7405  0.9815
  367MOL0     H48410   0.342   4.807   2.572  0.5821  2.2841  2.5377
  367MOL0     H48411   0.338   4.871   2.400 -1.6723  2.5070 -1.0283
  367MOL0     H48412   0.214   5.060   2.477  1.4054 -0.6185 -0.4488
  367MOL0     H48413   0.177   4.978   2.638 -4.9679 -4.8407  0.1130
  367MOL0     H48414   0.059   4.800   2.522 -1.0503  2.1602  2.7876
  367MOL0     H48415   0.112   4.858   2.362 -1.2125  2.6178 -1.0082
  367MOL0     H48416  -0.058   5.005   2.556 -1.3711  0.5799 -1.1762
  367MOL0     H48417  -0.015   5.070   2.400  0.1762  0.0219 -0.4561
  367MOL0     H48418  -0.198   4.826   2.471  0.9839 -0.6853  1.7434
  367MOL0     H48419  -0.132   4.859   2.304  3.2722  0.5562  0.5859
  367MOL0     H48420  -0.260   5.050   2.275  1.2689  0.4795 -0.2484
  367MOL0     H48421  -0.297   5.065   2.449  3.3760  1.3997 -0.7745
  367MOL0     H48422  -0.385   4.840   2.261 -3.6222 -1.1891  0.6181
  367MOL0     H48423  -0.412   4.844   2.432 -1.6230  1.0411 -0.1946
  367MOL0     H48424  -0.486   5.073   2.236  0.4337 -0.1368 -0.3141
  367MOL0     H48425  -0.526   5.059   2.407 -0.4237 -1.7795  1.0159
  367MOL0     H48426   0.631   5.087   2.682  1.4563 -0.0369  0.3958
  367MOL0     H48427   0.855   4.987   2.715  0.9152 -1.9457  0.1105
  367MOL0     H48428   1.173   4.825   2.753 -1.0440 -2.5541  2.4477
  367MOL0     H48429   1.413   4.786   2.779  1.3762 -0.7903 -1.1446
  367MOL0     H48430   2.847   3.267   2.656 -0.3923  0.5932  0.0048
  367MOL0     H48431   3.084   3.256   2.665  0.7510  0.0743  2.0898
  367MOL0     H48432   3.468   3.432   2.816 -1.9437  1.8097  0.5422
  367MOL0     H48433   3.699   3.460   2.811 -0.5908  2.0101  0.3160
  367MOL0     H48434   3.926   3.384   2.725 -2.8052  0.1495 -2.1072
  367MOL0     H48435   3.911   3.533   2.795 -0.5880  0.0325  0.0949
  367MOL0     H48436   4.124   3.466   2.574  0.9257 -2.1027  1.4496
  367MOL0     H48437   4.122   3.612   2.667  3.4276 -0.5592  3.1684
  367MOL0     H48438   4.275   3.405   2.737  0.4293  1.1985  0.4733
  367MOL0     H48439   4.130   3.326   2.795 -2.3125  1.2783  2.9075
  367MOL0     H48440   4.273   3.589   2.871 -0.1745  0.2929 -0.6470
  367MOL0     H48441   4.113   3.544   2.935  2.4232  3.3746  1.9853
  367MOL0     H48442   4.378   3.278   3.132  2.4668  2.4033 -0.1494
  367MOL0     H48443   3.708   3.558   2.400 -2.0212  2.8217 -0.6074
  367MOL0     H48444   3.470   3.544   2.398 -0.3251 -2.9159 -0.8651
  368MOL0     O48445   7.979   8.543   2.130 -0.7665 -0.6616 -0.4234
  368MOL0     C48446   8.007   8.645   2.194  0.5081 -0.1754  0.3840
  368MOL0     O48447   8.137   8.682   2.232 -0.0248 -0.3936 -0.4271
  368MOL0     C48448   8.247   8.625   2.191 -0.0727 -0.2514  0.2370
  368MOL0     C48449   8.345   8.613   2.296  0.0828 -0.4148  0.7120
  368MOL0     C48450   8.467   8.545   2.271  0.1619  0.2624 -0.2871
  368MOL0     C48451   8.486   8.477   2.146 -0.2309 -0.2480 -0.1074
  368MOL0     O48452   8.604   8.416   2.134  0.4407  0.2307  0.1021
  368MOL0     C48453   8.640   8.355   2.008 -0.5639 -0.2320 -0.0386
  368MOL0     C48454   8.780   8.295   2.022  0.2555 -0.7280  0.5964
  368MOL0     C48455   8.810   8.196   1.904 -0.3290 -0.0970 -0.2578
  368MOL0     C48456   8.954   8.143   1.896  0.4324  0.8430 -0.4542
  368MOL0     C48457   8.996   8.102   1.756  0.7713 -0.2670 -0.7101
  368MOL0     C48458   9.132   8.025   1.751  0.5151 -0.9547  0.4361
  368MOL0     C48459   9.180   7.995   1.605 -0.8717  0.2206 -0.0668
  368MOL0     C48460   9.104   7.880   1.536 -0.4557  0.0958 -0.1680
  368MOL0     N48461   9.165   7.873   1.405 -0.5183 -0.1930  0.5082
  368MOL0     C48462   9.293   7.820   1.389  0.0776  0.2135  0.5312
  368MOL0     C48463   9.305   7.811   1.257 -0.3371  0.2426 -0.0172
  368MOL0     C48464   9.419   7.741   1.195  1.1200 -1.1802 -0.2963
  368MOL0     C48465   9.374   7.682   1.061  0.5867  0.1788 -0.2655
  368MOL0     C48466   9.479   7.602   0.993  0.5030  0.6605  0.3752
  368MOL0     C48467   9.446   7.546   0.856  0.4468 -0.1924 -1.1081
  368MOL0     O48468   9.439   7.657   0.765 -1.0600 -0.9645 -0.3800
  368MOL0     C48469   9.321   7.696   0.713 -0.3567 -0.3191 -0.2947
  368MOL0     C48470   9.198   7.666   0.767 -0.6821  0.0904 -0.2551
  368MOL0     C48471   9.079   7.716   0.707  0.1697  0.3560  0.6405
  368MOL0     C48472   9.086   7.798   0.592 -0.0619 -1.4876 -0.7329
  368MOL0     C48473   8.964   7.850   0.533 -0.6938 -0.2536 -0.3304
  368MOL0     O48474   8.852   7.787   0.574  0.0586 -0.0206 -0.0622
  368MOL0     C48475   8.730   7.812   0.514  0.1850 -0.4682 -0.2952
  368MOL0     C48476   8.672   7.938   0.507  0.2528  0.1257 -0.0175
  368MOL0     C48477   8.543   7.953   0.459 -0.7891  0.4396 -0.2726
  368MOL0     C48478   8.460   7.853   0.434 -0.5827 -0.2378 -0.1491
  368MOL0     O48479   8.326   7.883   0.407 -0.3557  0.5968  0.2136
  368MOL0     C48480   8.231   7.778   0.387  0.2105  0.4326  0.4437
  368MOL0     C48481   8.103   7.861   0.377  0.9487 -1.0056  0.6482
  368MOL0     C48482   7.980   7.781   0.323 -0.2835  0.3487 -0.2943
  368MOL0     C48483   7.866   7.870   0.277  0.5741  0.4511  0.2235
  368MOL0     C48484   7.737   7.790   0.227 -0.6181 -0.3011 -0.6054
  368MOL0     C48485   7.668   7.703   0.334  0.0914  0.1650 -0.5369
  368MOL0     C48486   7.532   7.674   0.291 -0.1334  0.6131 -0.1577
  368MOL0     C48487   7.456   7.589   0.394 -0.5040 -0.9041  0.4559
  368MOL0    Cl48488   7.285   7.574   0.361 -0.4420 -0.2564 -0.2148
  368MOL0     C48489   8.508   7.723   0.452  0.1684  0.3491  0.1719
  368MOL0     C48490   8.649   7.702   0.488 -0.4155  0.1388 -0.2299
  368MOL0     O48491   8.968   7.943   0.455  0.6691 -0.8212  0.3546
  368MOL0     C48492   9.218   7.827   0.539 -0.3801  0.4207 -0.1887
  368MOL0     C48493   9.329   7.779   0.603 -0.5286 -0.6158  0.4943
  368MOL0     N48494   9.189   7.863   1.196  0.5247  0.3988 -0.0557
  368MOL0     N48495   9.107   7.901   1.290  0.3076  0.2724  0.5163
  368MOL0     C48496   8.384   8.490   2.048  0.2246  0.0267 -0.1222
  368MOL0     C48497   8.262   8.555   2.073  0.2374 -0.8045  0.7017
  368MOL0     C48498   7.907   8.752   2.230 -0.5661 -0.2272  0.6271
  368MOL0     C48499   7.772   8.735   2.197  0.2230 -0.6247  0.5793
  368MOL0     C48500   7.678   8.840   2.211  0.0150 -0.0820 -0.3088
  368MOL0     C48501   7.729   8.963   2.276  0.1967 -0.1429 -0.9914
  368MOL0     O48502   7.642   9.062   2.318 -0.2899 -0.1992 -0.3920
  368MOL0     C48503   7.523   9.081   2.245 -0.3639 -0.0976 -0.3686
  368MOL0     C48504   7.414   9.142   2.337 -0.4128 -0.4463  0.5625
  368MOL0     C48505   7.289   9.171   2.258  0.7492  1.3032  0.2026
  368MOL0     C48506   7.220   9.039   2.216 -0.5904  0.2265 -0.1836
  368MOL0     C48507   7.195   8.940   2.323  0.5769 -0.5208  0.6471
  368MOL0     C48508   7.177   8.848   2.406 -0.4639 -0.0896 -0.4986
  368MOL0     C48509   7.862   8.967   2.322  0.4669 -0.5325  0.4601
  368MOL0     C48510   7.957   8.870   2.291  0.2682  0.8553  0.1206
  368MOL0     H48511   8.324   8.669   2.386  1.6908 -1.9458  2.1200
  368MOL0     H48512   8.540   8.537   2.352 -0.1969 -0.5782 -0.0353
  368MOL0     H48513   8.618   8.422   1.925  0.3451  1.1326  0.7766
  368MOL0     H48514   8.568   8.273   1.995  1.1191 -1.9344  0.9430
  368MOL0     H48515   8.791   8.235   2.113 -5.3096 -0.5794  1.7089
  368MOL0     H48516   8.848   8.380   2.033  1.0399 -1.3132  0.4445
  368MOL0     H48517   8.783   8.231   1.804  0.7430 -1.0513 -0.9156
  368MOL0     H48518   8.749   8.107   1.923 -4.4428  2.3490 -0.9380
  368MOL0     H48519   9.022   8.220   1.932  1.4148 -0.2510  0.1058
  368MOL0     H48520   8.959   8.056   1.963 -2.1478  0.8442 -0.1227
  368MOL0     H48521   9.002   8.196   1.700 -3.0881  0.6169  0.0854
  368MOL0     H48522   8.914   8.052   1.704 -1.2814  0.1558  1.9374
  368MOL0     H48523   9.110   7.936   1.809  1.8691 -1.8627 -0.3964
  368MOL0     H48524   9.208   8.084   1.803  0.6641  0.6201 -1.4300
  368MOL0     H48525   9.172   8.092   1.554  0.9735  1.0917  1.1602
  368MOL0     H48526   9.286   7.969   1.600 -0.7637  0.5568  0.3848
  368MOL0     H48527   8.996   7.894   1.533 -0.2693  1.6194 -0.6557
  368MOL0     H48528   9.118   7.786   1.590 -1.6005 -0.1542 -0.2906
  368MOL0     H48529   9.362   7.790   1.467 -1.1784  0.5044  1.7785
  368MOL0     H48530   9.456   7.665   1.264  1.9573 -1.0104 -0.5415
  368MOL0     H48531   9.491   7.824   1.187 -1.7937  1.9018  2.3122
  368MOL0     H48532   9.337   7.760   0.994 -0.4717 -0.7797 -0.8212
  368MOL0     H48533   9.285   7.621   1.073  2.6007 -2.6958  1.1944
  368MOL0     H48534   9.570   7.660   0.972  0.3790  0.0108 -2.3536
  368MOL0     H48535   9.509   7.519   1.057 -0.7953 -1.1144 -1.1865
  368MOL0     H48536   9.352   7.491   0.844 -0.5859  0.3140  3.0189
  368MOL0     H48537   9.523   7.474   0.831  0.7154 -0.1408 -0.4419
  368MOL0     H48538   9.181   7.604   0.854 -0.6703 -1.1587 -1.1259
  368MOL0     H48539   8.989   7.684   0.759  0.9739  1.8492  3.0999
  368MOL0     H48540   8.715   8.035   0.530 -0.0744  1.2564 -3.5498
  368MOL0     H48541   8.514   8.058   0.458 -0.2616  0.5877 -0.4298
  368MOL0     H48542   8.237   7.713   0.475 -0.8333  0.7132  0.7393
  368MOL0     H48543   8.237   7.711   0.300 -1.6325 -0.5606  1.0141
  368MOL0     H48544   8.128   7.936   0.302 -2.1232  1.1623  1.6126
  368MOL0     H48545   8.080   7.911   0.471 -1.0662  1.5853 -1.0940
  368MOL0     H48546   7.935   7.718   0.400 -0.5780  1.8508  0.8032
  368MOL0     H48547   8.020   7.713   0.247 -1.9265 -0.2689 -0.6541
  368MOL0     H48548   7.838   7.935   0.361  1.0217 -0.0497  0.7650
  368MOL0     H48549   7.902   7.933   0.195  0.4991  0.6549  0.3477
  368MOL0     H48550   7.770   7.729   0.142  2.2638  1.0680 -0.5831
  368MOL0     H48551   7.675   7.870   0.186  0.7136  0.5474 -1.0129
  368MOL0     H48552   7.666   7.764   0.426 -3.5327  1.3847 -1.2563
  368MOL0     H48553   7.730   7.616   0.355  1.0725  0.9433 -0.0805
  368MOL0     H48554   7.487   7.773   0.281 -3.6126 -0.8325 -0.3316
  368MOL0     H48555   7.528   7.630   0.191 -1.3438  0.0388  0.1186
  368MOL0     H48556   7.464   7.626   0.497  2.1322  1.1527 -0.3584
  368MOL0     H48557   7.503   7.491   0.407 -0.2318 -0.6046  1.8560
  368MOL0     H48558   8.442   7.642   0.421 -2.0575  2.5836 -1.3819
  368MOL0     H48559   8.688   7.600   0.491  0.7760  0.5980  1.0382
  368MOL0     H48560   9.241   7.887   0.452  1.3536  5.1734  3.0673
  368MOL0     H48561   9.429   7.810   0.574  0.3870 -2.4279  1.5360
  368MOL0     H48562   8.405   8.463   1.945  1.9260  1.7422 -0.2824
  368MOL0     H48563   8.184   8.545   1.999  0.0908 -0.6160  0.8292
  368MOL0     H48564   7.751   8.645   2.140  1.5045  0.7548 -2.2958
  368MOL0     H48565   7.583   8.828   2.159 -0.0638  2.4518 -0.9051
  368MOL0     H48566   7.485   8.986   2.207  0.5469 -1.5848  2.1608
  368MOL0     H48567   7.559   9.143   2.162 -0.6178 -0.6228 -0.8683
  368MOL0     H48568   7.396   9.074   2.420 -3.1399  1.0814  1.3746
  368MOL0     H48569   7.444   9.240   2.375  1.5468 -1.4468  1.7318
  368MOL0     H48570   7.307   9.220   2.161  0.0074  1.5056  0.1665
  368MOL0     H48571   7.218   9.232   2.313  1.3952  1.4203  0.9219
  368MOL0     H48572   7.126   9.067   2.169 -0.4808 -0.8139 -1.0463
  368MOL0     H48573   7.287   9.000   2.139  1.5980  0.4602  1.5017
  368MOL0     H48574   7.164   8.767   2.475  1.1513 -0.2287 -0.3159
  368MOL0     H48575   7.886   9.063   2.366  2.0901 -0.9513  0.5586
  368MOL0     H48576   8.061   8.888   2.315  0.5618 -0.2106 -0.2863
  369MOL0     O48577  10.645   6.979   5.583  0.4994 -0.3278 -0.1460
  369MOL0     C48578  10.683   6.896   5.664  0.2796  0.8020  0.1607
  369MOL0     O48579  10.595   6.820   5.739  0.6041  0.5379  0.2806
  369MOL0     C48580  10.469   6.854   5.713  1.1860 -0.3619  0.2283
  369MOL0     C48581  10.409   6.937   5.807 -0.8070  0.3470 -0.0248
  369MOL0     C48582  10.271   6.962   5.814  1.0157  0.6560 -0.1562
  369MOL0     C48583  10.182   6.903   5.718 -0.3047  0.2141  0.5951
  369MOL0     O48584  10.043   6.912   5.717  0.1914  0.4328 -0.5258
  369MOL0     C48585   9.984   6.981   5.826  0.9751  0.5097  0.6982
  369MOL0     C48586   9.833   7.001   5.797 -0.0555  0.5272 -0.2342
  369MOL0     C48587   9.746   7.030   5.919 -0.3261  0.2405  0.4082
  369MOL0     C48588   9.600   7.009   5.884 -0.1561 -0.6716  0.3100
  369MOL0     C48589   9.509   7.006   6.002  0.2992 -0.5344  0.3939
  369MOL0     C48590   9.366   7.031   5.956  0.1315 -0.0790 -1.2947
  369MOL0     C48591   9.311   6.921   5.863 -0.1333 -0.7984  0.3945
  369MOL0     C48592   9.171   6.969   5.820  0.3497  0.0991 -0.5276
  369MOL0     N48593   9.063   6.889   5.884 -0.3024  0.3702 -0.5643
  369MOL0     C48594   9.013   6.769   5.838 -0.1836  0.4468 -0.2323
  369MOL0     C48595   8.912   6.743   5.924 -1.1872  0.8787 -0.1340
  369MOL0     C48596   8.813   6.632   5.911  0.4773  0.0757 -0.1936
  369MOL0     C48597   8.732   6.652   5.786  0.3692 -0.2000 -0.0521
  369MOL0     C48598   8.647   6.791   5.773 -0.6477 -0.8708 -0.4503
  369MOL0     C48599   8.524   6.781   5.855  1.0462 -0.3961 -1.1472
  369MOL0     O48600   8.441   6.903   5.844 -0.0704 -0.1067  0.4543
  369MOL0     C48601   8.339   6.909   5.922  0.1494 -0.4068 -0.4857
  369MOL0     C48602   8.210   6.879   5.863  0.2202 -0.2826  0.7231
  369MOL0     C48603   8.098   6.868   5.947  0.7626 -0.5461 -1.2007
  369MOL0     C48604   8.101   6.903   6.081  0.4194 -0.1476 -0.8062
  369MOL0     C48605   7.982   6.872   6.166 -0.5091 -0.5120 -0.0303
  369MOL0     O48606   8.004   6.875   6.302 -0.1461 -0.7617  0.2462
  369MOL0     C48607   7.893   6.874   6.381 -0.0360 -0.1464 -0.4634
  369MOL0     C48608   7.805   6.767   6.382  0.5974  0.4530  0.0650
  369MOL0     C48609   7.699   6.780   6.471  0.7869  0.7417 -0.0808
  369MOL0     C48610   7.686   6.879   6.563 -0.8175  0.5006  0.1640
  369MOL0     O48611   7.602   6.875   6.674  0.1020 -0.5794  0.3832
  369MOL0     C48612   7.513   6.764   6.697 -0.2741  0.2516  0.2685
  369MOL0     C48613   7.434   6.794   6.835  0.8986 -0.5960  0.2766
  369MOL0     C48614   7.326   6.688   6.863 -0.2854  0.8561  0.3131
  369MOL0     C48615   7.261   6.720   7.000  0.2193  0.2454  0.9533
  369MOL0     C48616   7.155   6.623   7.039 -0.2853  0.1081  1.2312
  369MOL0     C48617   7.033   6.627   6.948 -0.4384 -0.3598  0.4277
  369MOL0     C48618   6.990   6.770   6.917 -0.8735 -0.1781 -0.6297
  369MOL0     C48619   6.843   6.767   6.871 -0.2453  0.3801  0.4147
  369MOL0    Cl48620   6.834   6.656   6.738  0.2201 -0.1956  0.5900
  369MOL0     C48621   7.783   6.979   6.566 -0.0373  0.8971 -0.2116
  369MOL0     C48622   7.879   6.982   6.467 -0.2925  0.0292  0.1228
  369MOL0     O48623   7.876   6.847   6.117  0.1778 -0.6023  0.4568
  369MOL0     C48624   8.220   6.954   6.136  0.2659 -0.7610  0.4739
  369MOL0     C48625   8.343   6.944   6.055  0.4789  0.3300 -0.2500
  369MOL0     N48626   8.916   6.831   6.034  0.5027 -0.3783 -1.0443
  369MOL0     N48627   9.002   6.923   6.008 -0.5483  0.7013  0.3739
  369MOL0     C48628  10.247   6.831   5.616  0.0638  1.0506  0.5240
  369MOL0     C48629  10.388   6.799   5.617 -0.4448 -0.2099  0.4656
  369MOL0     C48630  10.830   6.889   5.688 -0.9500  0.3610  0.1963
  369MOL0     C48631  10.926   6.915   5.591 -0.3005  0.1687 -0.5101
  369MOL0     C48632  11.055   6.925   5.630 -1.0693 -0.0160  0.2289
  369MOL0     C48633  11.109   6.902   5.764  0.8358  0.1680  0.6992
  369MOL0     O48634  11.245   6.898   5.782  0.2878 -0.5478  0.8746
  369MOL0     C48635  11.291   6.867   5.917 -0.1619  1.0797  0.9054
  369MOL0     C48636  11.294   6.716   5.939  0.6153  0.0848  0.1284
  369MOL0     C48637  11.336   6.676   6.079 -0.3514 -0.4068  0.2695
  369MOL0     C48638  11.476   6.732   6.108  0.1451  0.2194 -0.6009
  369MOL0     C48639  11.541   6.641   6.204 -0.7496 -0.2373  0.3442
  369MOL0     C48640  11.597   6.557   6.272 -0.0623  1.2985 -0.0043
  369MOL0     C48641  11.008   6.875   5.856  0.6816 -0.7028 -0.1205
  369MOL0     C48642  10.875   6.866   5.816 -0.2174  0.4961  0.5389
  369MOL0     H48643  10.472   6.982   5.883 -0.3054  1.5881 -1.1439
  369MOL0     H48644  10.238   7.023   5.897  1.9694  0.7448  0.1729
  369MOL0     H48645  10.033   7.078   5.841  0.9996  0.1344  3.8222
  369MOL0     H48646   9.988   6.924   5.919  2.3113  2.2861  1.8107
  369MOL0     H48647   9.792   6.906   5.760  0.3825 -0.6853  2.2081
  369MOL0     H48648   9.824   7.068   5.711 -1.3187  0.4034 -0.2227
  369MOL0     H48649   9.757   7.131   5.959 -1.2853  1.3212 -1.8288
  369MOL0     H48650   9.784   6.968   6.001  1.9279  1.6860  0.5233
  369MOL0     H48651   9.568   7.086   5.812  0.2986  0.8280  1.6513
  369MOL0     H48652   9.592   6.911   5.835  1.6229 -0.7547  0.0873
  369MOL0     H48653   9.550   7.075   6.077  0.3105 -0.0157 -0.0883
  369MOL0     H48654   9.503   6.903   6.037 -2.2110 -0.8319 -0.7272
  369MOL0     H48655   9.372   7.131   5.911  0.3723  0.5474  0.0457
  369MOL0     H48656   9.307   7.029   6.048 -0.6212 -2.5136 -1.7741
  369MOL0     H48657   9.373   6.897   5.776 -1.3312  1.3074 -1.1250
  369MOL0     H48658   9.301   6.827   5.917 -1.7667  0.7001  2.9059
  369MOL0     H48659   9.161   6.961   5.711 -0.7798 -1.8121 -0.3371
  369MOL0     H48660   9.157   7.072   5.852 -0.1342 -0.6403  1.8248
  369MOL0     H48661   9.027   6.716   5.744  1.6375  0.0614  0.2194
  369MOL0     H48662   8.737   6.616   5.988  0.5167  0.2657 -0.1129
  369MOL0     H48663   8.865   6.536   5.898 -0.4627 -0.7656  1.8055
  369MOL0     H48664   8.668   6.564   5.772 -0.0893 -0.5719  3.5348
  369MOL0     H48665   8.796   6.654   5.698 -0.7910  1.3840 -0.9127
  369MOL0     H48666   8.714   6.872   5.803  1.5269 -2.6404 -0.2668
  369MOL0     H48667   8.622   6.812   5.668 -1.5324 -0.2425 -0.1314
  369MOL0     H48668   8.559   6.774   5.959 -0.2563  1.5825 -0.5148
  369MOL0     H48669   8.466   6.692   5.830 -0.7521  0.8982 -1.7940
  369MOL0     H48670   8.195   6.861   5.757  1.6692 -2.9420  0.8907
  369MOL0     H48671   8.009   6.832   5.897  1.2939 -2.0152 -1.1404
  369MOL0     H48672   7.811   6.675   6.326 -1.8767 -1.4295  2.6169
  369MOL0     H48673   7.634   6.693   6.472  0.8879  0.5823 -2.3550
  369MOL0     H48674   7.571   6.673   6.709 -0.7714 -0.2215 -0.7901
  369MOL0     H48675   7.446   6.753   6.611  0.5105  0.9468 -0.4433
  369MOL0     H48676   7.377   6.883   6.808 -0.0025 -1.7784 -1.9061
  369MOL0     H48677   7.495   6.811   6.925  0.9600  1.2012 -0.0601
  369MOL0     H48678   7.375   6.590   6.868  3.1912  2.4991  0.8923
  369MOL0     H48679   7.249   6.675   6.785 -1.8358  3.5989  1.2594
  369MOL0     H48680   7.345   6.712   7.070  1.2246 -1.5942 -0.3950
  369MOL0     H48681   7.226   6.822   7.016 -0.5783 -0.2620  2.6997
  369MOL0     H48682   7.129   6.653   7.140  0.0179 -1.1313  1.6976
  369MOL0     H48683   7.203   6.524   7.034 -0.6307 -0.0489  0.8821
  369MOL0     H48684   6.948   6.565   6.975  0.1905 -2.7447 -2.5462
  369MOL0     H48685   7.067   6.590   6.851 -1.6537 -0.1996 -0.0689
  369MOL0     H48686   7.014   6.834   7.002  1.7694 -0.8510 -0.7698
  369MOL0     H48687   7.042   6.816   6.833 -4.0394  2.2151 -1.4627
  369MOL0     H48688   6.806   6.866   6.843  0.0866  0.0396 -1.4075
  369MOL0     H48689   6.773   6.721   6.942  1.6301 -0.5743  1.7325
  369MOL0     H48690   7.766   7.057   6.639 -0.7372  0.0430  0.5493
  369MOL0     H48691   7.952   7.062   6.476  0.3597 -0.7559  2.5329
  369MOL0     H48692   8.213   6.990   6.238 -3.4739  4.0710 -1.1236
  369MOL0     H48693   8.440   6.972   6.095 -0.2629 -1.6403  3.3449
  369MOL0     H48694  10.186   6.776   5.546  0.8789 -2.2494  2.1799
  369MOL0     H48695  10.439   6.731   5.549 -2.4466  1.0516 -2.5425
  369MOL0     H48696  10.901   6.918   5.485 -2.1664 -3.5229 -0.3297
  369MOL0     H48697  11.121   6.946   5.547 -1.7153  1.8381  0.1394
  369MOL0     H48698  11.231   6.924   5.989 -0.7679  0.6903  0.7117
  369MOL0     H48699  11.388   6.916   5.935 -0.0273 -0.1112  4.1902
  369MOL0     H48700  11.193   6.678   5.923  1.5587 -2.1019 -1.1716
  369MOL0     H48701  11.352   6.667   5.860 -1.9863  1.0986 -2.6058
  369MOL0     H48702  11.332   6.567   6.083 -0.3350 -0.4579 -0.7900
  369MOL0     H48703  11.264   6.713   6.154  0.5099 -0.3538  1.0950
  369MOL0     H48704  11.541   6.732   6.019  0.3864 -0.5900 -0.4274
  369MOL0     H48705  11.463   6.833   6.149  1.7494 -0.0687  0.7309
  369MOL0     H48706  11.634   6.483   6.340 -0.4661  0.3752 -0.7747
  369MOL0     H48707  11.022   6.866   5.963 -2.7434 -0.8812  0.4239
  369MOL0     H48708  10.805   6.854   5.899 -1.3278  2.4164 -0.0457
  370MOL0     O48709  10.387   1.929   2.642  0.1127  0.2532 -0.2900
  370MOL0     C48710  10.379   2.040   2.593  0.3983 -0.6731 -0.3718
  370MOL0     O48711  10.267   2.119   2.593  0.8712 -0.3003  0.2585
  370MOL0     C48712  10.148   2.075   2.631  0.1655 -0.4343  0.1140
  370MOL0     C48713  10.096   1.949   2.595 -0.4438  0.0679  0.2137
  370MOL0     C48714   9.965   1.910   2.631 -0.1799  0.5645 -0.2390
  370MOL0     C48715   9.881   2.000   2.703 -0.4443  0.1746  0.8185
  370MOL0     O48716   9.753   1.973   2.733 -0.6331 -0.1408  0.5990
  370MOL0     C48717   9.654   2.074   2.777  0.3036  0.7319  0.1499
  370MOL0     C48718   9.514   2.021   2.764 -0.7324  0.5694 -0.1553
  370MOL0     C48719   9.447   2.075   2.642  0.7641  0.0223  0.4047
  370MOL0     C48720   9.312   2.012   2.635 -0.7179 -0.4111  0.3702
  370MOL0     C48721   9.233   2.074   2.520  1.2229 -0.0264  0.4425
  370MOL0     C48722   9.086   2.074   2.545  0.7010 -0.1244 -0.0967
  370MOL0     C48723   9.015   1.936   2.573 -0.1208 -0.8995  0.4469
  370MOL0     C48724   8.865   1.952   2.583  0.8810 -0.0565 -0.0939
  370MOL0     N48725   8.812   2.073   2.647 -0.3418  0.2682  0.0676
  370MOL0     C48726   8.808   2.196   2.586 -0.4021  0.4159 -0.6309
  370MOL0     C48727   8.722   2.270   2.662 -0.5000 -0.5683 -0.2076
  370MOL0     C48728   8.683   2.415   2.644 -0.6401 -0.1595  0.6952
  370MOL0     C48729   8.600   2.436   2.522 -0.3272  0.1960 -0.1609
  370MOL0     C48730   8.464   2.361   2.534 -0.2442  0.5614  0.4724
  370MOL0     C48731   8.390   2.372   2.398  1.1527 -0.3685  0.7032
  370MOL0     O48732   8.262   2.293   2.381  0.3013 -0.7034  0.2735
  370MOL0     C48733   8.140   2.330   2.433  0.4702  0.2186  0.7623
  370MOL0     C48734   8.120   2.442   2.509  0.2626 -0.3763 -0.3116
  370MOL0     C48735   8.001   2.473   2.569  0.5753 -0.1190 -0.3499
  370MOL0     C48736   7.897   2.379   2.560  0.1374  0.7574  0.8446
  370MOL0     C48737   7.766   2.401   2.619  0.5377 -0.4288  0.4290
  370MOL0     O48738   7.665   2.313   2.595  0.0016  0.0059  0.1079
  370MOL0     C48739   7.551   2.337   2.661 -0.1629 -0.8643 -0.4167
  370MOL0     C48740   7.440   2.368   2.583  0.7465  0.4741 -0.4045
  370MOL0     C48741   7.319   2.379   2.654 -0.1340 -0.3119  0.0550
  370MOL0     C48742   7.303   2.355   2.792 -0.5177  0.9878 -0.4492
  370MOL0     O48743   7.192   2.377   2.874  0.0564  0.1033 -0.4142
  370MOL0     C48744   7.091   2.461   2.817  0.0368 -0.1617 -0.0430
  370MOL0     C48745   6.966   2.447   2.905 -0.8004  0.1739 -0.1323
  370MOL0     C48746   6.857   2.548   2.860  0.5852 -0.0068  0.5632
  370MOL0     C48747   6.716   2.517   2.918  0.0650  0.0301 -0.2350
  370MOL0     C48748   6.640   2.396   2.848 -0.3426 -0.6516 -0.6649
  370MOL0     C48749   6.597   2.430   2.713  0.4702 -0.2327  0.0586
  370MOL0     C48750   6.567   2.300   2.634  0.8943 -0.3855  0.2133
  370MOL0     C48751   6.501   2.335   2.504  0.2000 -0.5941  0.3638
  370MOL0    Cl48752   6.589   2.434   2.398 -0.3891 -0.1836  0.0381
  370MOL0     C48753   7.420   2.326   2.861 -0.3578  0.4321  0.3641
  370MOL0     C48754   7.543   2.308   2.803 -0.1478 -0.2324  0.0435
  370MOL0     O48755   7.758   2.500   2.688  0.1366  0.2895  0.4271
  370MOL0     C48756   7.905   2.271   2.469  0.3051 -0.6386 -0.7165
  370MOL0     C48757   8.032   2.247   2.411  0.0547 -0.6489  0.5110
  370MOL0     N48758   8.682   2.191   2.771 -0.2934 -0.4885  1.0588
  370MOL0     N48759   8.738   2.076   2.759  0.8711 -0.7925  0.8303
  370MOL0     C48760   9.945   2.119   2.746 -0.2383  0.5642  0.0479
  370MOL0     C48761  10.076   2.161   2.713  0.0406  0.6090 -0.0013
  370MOL0     C48762  10.495   2.114   2.533  0.6905 -0.2075  0.1630
  370MOL0     C48763  10.600   2.041   2.468 -0.4901 -0.5793 -0.0644
  370MOL0     C48764  10.714   2.112   2.425  1.1698 -0.1325  0.3368
  370MOL0     C48765  10.711   2.253   2.411  0.9788  0.6326 -0.2357
  370MOL0     O48766  10.817   2.310   2.345 -0.0220  0.3066 -0.1434
  370MOL0     C48767  10.827   2.448   2.318 -0.6776  0.1456  0.1230
  370MOL0     C48768  10.887   2.516   2.439 -0.8190  0.2774  0.2772
  370MOL0     C48769  11.007   2.447   2.509 -0.3097  0.3851  0.9704
  370MOL0     C48770  11.135   2.452   2.420 -0.6980  0.0225 -0.4635
  370MOL0     C48771  11.186   2.585   2.425  0.4233  0.4257  0.1159
  370MOL0     C48772  11.216   2.693   2.440 -0.0440 -0.3173 -0.5879
  370MOL0     C48773  10.597   2.318   2.447  0.2991  0.0383 -0.9269
  370MOL0     C48774  10.494   2.247   2.509 -0.3701 -0.0366 -0.2624
  370MOL0     H48775  10.157   1.875   2.543 -1.8172 -0.4825 -0.6766
  370MOL0     H48776   9.918   1.813   2.616 -2.0860  1.2530  0.9380
  370MOL0     H48777   9.671   2.174   2.736 -2.6572  1.2501 -0.0052
  370MOL0     H48778   9.654   2.080   2.886 -2.5303 -2.7304  0.5236
  370MOL0     H48779   9.459   2.064   2.848 -1.3110  2.7732 -1.5691
  370MOL0     H48780   9.507   1.912   2.770 -1.9008  0.7049  2.1542
  370MOL0     H48781   9.507   2.049   2.554  1.3769 -4.6687  1.9097
  370MOL0     H48782   9.435   2.184   2.651  3.8151  0.4495  0.4853
  370MOL0     H48783   9.321   1.904   2.623 -2.9998 -0.6462  0.3408
  370MOL0     H48784   9.248   2.041   2.719 -1.9391  2.5075 -1.3840
  370MOL0     H48785   9.262   2.044   2.419  0.9932  2.1824 -0.3218
  370MOL0     H48786   9.252   2.180   2.538  0.1852  0.9106 -3.1065
  370MOL0     H48787   9.038   2.115   2.456 -0.0943  0.3490  0.5318
  370MOL0     H48788   9.065   2.151   2.621  0.8265  0.0432 -0.2314
  370MOL0     H48789   9.035   1.858   2.499  0.2848  0.7067 -1.2136
  370MOL0     H48790   9.051   1.904   2.671  1.6478 -0.5419 -0.0372
  370MOL0     H48791   8.825   1.866   2.638  1.2406 -1.1533 -1.5007
  370MOL0     H48792   8.819   1.955   2.484  0.4501  0.5044  0.1113
  370MOL0     H48793   8.864   2.215   2.495  3.3239  0.1842  1.4527
  370MOL0     H48794   8.778   2.469   2.640  0.2726 -1.6831 -3.5149
  370MOL0     H48795   8.639   2.453   2.737 -0.8396  0.8860  0.1811
  370MOL0     H48796   8.663   2.395   2.443 -0.3932  0.4773 -0.3631
  370MOL0     H48797   8.588   2.544   2.506  1.1240  0.4886  0.6075
  370MOL0     H48798   8.485   2.255   2.552 -0.1688 -0.0439 -2.5642
  370MOL0     H48799   8.399   2.416   2.602 -1.3670  0.2086 -0.2848
  370MOL0     H48800   8.457   2.329   2.322 -1.5458 -1.8363 -1.0240
  370MOL0     H48801   8.360   2.470   2.361 -3.8122 -1.7764  0.3099
  370MOL0     H48802   8.202   2.512   2.521 -0.4956  0.6388 -0.9294
  370MOL0     H48803   7.987   2.560   2.633  1.8655 -1.4677  1.8938
  370MOL0     H48804   7.428   2.375   2.475 -1.6358  3.4983 -0.0609
  370MOL0     H48805   7.224   2.396   2.604  0.6577 -2.1696 -2.2800
  370MOL0     H48806   7.059   2.424   2.719  3.4539 -1.2894 -0.9018
  370MOL0     H48807   7.124   2.565   2.812  0.5254 -0.2362  1.2319
  370MOL0     H48808   7.002   2.468   3.006  2.0163  2.7157 -1.5197
  370MOL0     H48809   6.929   2.346   2.886  1.5051 -0.6711 -0.4293
  370MOL0     H48810   6.848   2.533   2.752 -0.5877 -0.0181  0.6457
  370MOL0     H48811   6.880   2.654   2.877  1.8268  0.2638 -2.1894
  370MOL0     H48812   6.723   2.500   3.026 -0.7887  0.7322 -0.0636
  370MOL0     H48813   6.659   2.608   2.900  0.2895  1.1470  3.8548
  370MOL0     H48814   6.546   2.372   2.897 -0.0640 -1.0273 -0.3011
  370MOL0     H48815   6.704   2.307   2.847 -2.5169 -2.3021 -0.2660
  370MOL0     H48816   6.675   2.482   2.657  0.1808  0.3359  0.1730
  370MOL0     H48817   6.514   2.501   2.721  2.5931  2.5511 -1.2137
  370MOL0     H48818   6.664   2.252   2.617  0.7970 -1.5444  2.5311
  370MOL0     H48819   6.510   2.227   2.692  0.8209  0.3300  1.0629
  370MOL0     H48820   6.417   2.397   2.536  0.5894  1.4605 -2.2735
  370MOL0     H48821   6.473   2.242   2.455  2.3962  0.1776 -2.6323
  370MOL0     H48822   7.404   2.317   2.968 -0.7473 -0.4872  0.2391
  370MOL0     H48823   7.628   2.278   2.864 -1.9930 -3.6649  1.2142
  370MOL0     H48824   7.819   2.207   2.451 -0.8766  0.3372  1.1406
  370MOL0     H48825   8.058   2.159   2.352 -0.1184 -0.5865  0.3408
  370MOL0     H48826   9.888   2.184   2.812 -1.9805  2.5607 -3.1439
  370MOL0     H48827  10.125   2.241   2.768  1.0431 -3.2492  5.5695
  370MOL0     H48828  10.590   1.933   2.467 -0.7643 -0.5767  1.2760
  370MOL0     H48829  10.803   2.057   2.395  1.8683  0.1436  1.7745
  370MOL0     H48830  10.730   2.493   2.295 -1.3661 -0.5596  1.4668
  370MOL0     H48831  10.885   2.457   2.226 -2.5736 -0.0919 -1.1462
  370MOL0     H48832  10.919   2.617   2.414 -1.0908  1.2155  3.2830
  370MOL0     H48833  10.806   2.524   2.513 -1.3511 -1.0351 -0.1301
  370MOL0     H48834  10.972   2.347   2.537 -0.2331  0.0544 -0.0701
  370MOL0     H48835  11.031   2.497   2.604  0.6998 -0.2488  1.0658
  370MOL0     H48836  11.207   2.385   2.469 -1.3426 -1.0512 -0.9615
  370MOL0     H48837  11.119   2.418   2.317 -1.7280  0.7418 -0.5532
  370MOL0     H48838  11.242   2.794   2.461 -0.0574 -0.7104  1.5421
  370MOL0     H48839  10.577   2.424   2.434  1.0072  0.1737 -0.9507
  370MOL0     H48840  10.410   2.308   2.541 -0.1857  0.0979 -0.0296
  371MOL0     O48841   6.206   8.014   9.641 -0.3968 -0.5010  0.3479
  371MOL0     C48842   6.258   7.992   9.748  0.7001  0.1737 -0.5507
  371MOL0     O48843   6.217   8.055   9.863  0.6283  0.0566  1.9193
  371MOL0     C48844   6.086   8.089   9.877  0.8370  1.1981  0.1158
  371MOL0     C48845   6.066   8.200   9.955  0.6129  0.3623  0.4176
  371MOL0     C48846   5.935   8.252   9.974  0.4968  0.3135 -0.7601
  371MOL0     C48847   5.827   8.201   9.906 -0.2946  0.3112  1.5646
  371MOL0     O48848   5.709   8.258   9.940  0.3215 -0.1663  0.7168
  371MOL0     C48849   5.585   8.192   9.912 -0.3926 -0.0849  0.1681
  371MOL0     C48850   5.542   8.222   9.771  0.0575  0.2240 -0.6307
  371MOL0     C48851   5.493   8.367   9.758  0.6715 -0.4354 -0.2662
  371MOL0     C48852   5.422   8.391   9.623 -0.4140 -0.3810 -0.2840
  371MOL0     C48853   5.515   8.369   9.505  0.2437  0.8964 -0.3850
  371MOL0     C48854   5.452   8.439   9.387  0.2833 -0.0565  0.5264
  371MOL0     C48855   5.530   8.405   9.264 -0.8436  0.2483  0.8471
  371MOL0     C48856   5.537   8.513   9.158 -1.1545  0.0407  0.7007
  371MOL0     N48857   5.395   8.542   9.121  0.4947  0.2582 -0.0947
  371MOL0     C48858   5.332   8.656   9.158 -0.3732 -0.0639 -0.3018
  371MOL0     C48859   5.203   8.641   9.114  0.2174 -0.3980 -0.8255
  371MOL0     C48860   5.100   8.747   9.139  0.3372 -0.2024 -0.7007
  371MOL0     C48861   4.962   8.681   9.124  0.5671 -0.1994  0.2867
  371MOL0     C48862   4.845   8.779   9.174 -0.2403  0.4024 -0.5446
  371MOL0     C48863   4.722   8.693   9.208 -0.6564 -0.7155 -0.4244
  371MOL0     O48864   4.673   8.652   9.088 -0.3104 -0.1499 -0.4066
  371MOL0     C48865   4.532   8.632   9.083 -0.1085  0.2035  0.3088
  371MOL0     C48866   4.484   8.626   8.951  0.4875 -0.7200 -0.4056
  371MOL0     C48867   4.344   8.633   8.930 -0.5219  0.8137  0.2652
  371MOL0     C48868   4.247   8.627   9.035 -0.0192 -0.6755  0.6384
  371MOL0     C48869   4.100   8.626   9.006  0.1918  0.3394 -0.0914
  371MOL0     O48870   4.022   8.620   9.114  0.1278 -0.1538  0.2271
  371MOL0     C48871   3.886   8.659   9.105 -0.9424  1.0268 -0.0581
  371MOL0     C48872   3.823   8.722   9.000  0.0847  0.7480 -0.1969
  371MOL0     C48873   3.687   8.750   9.003  0.1358  0.6847 -0.1085
  371MOL0     C48874   3.616   8.732   9.117 -0.1156 -0.3393 -0.6586
  371MOL0     O48875   3.484   8.775   9.148 -0.8243  0.2800  0.2283
  371MOL0     C48876   3.393   8.810   9.043 -0.5358 -0.0700 -0.2749
  371MOL0     C48877   3.259   8.753   9.069  0.0977  0.1667 -0.3957
  371MOL0     C48878   3.201   8.820   9.193 -0.1287  0.9412  0.9167
  371MOL0     C48879   3.058   8.785   9.220  1.1380  0.2483  0.0477
  371MOL0     C48880   3.013   8.816   9.364  0.1500 -0.2151 -0.0215
  371MOL0     C48881   2.869   8.791   9.407  0.3454 -0.1336  0.6485
  371MOL0     C48882   2.770   8.899   9.349  0.3346 -0.0458 -0.6000
  371MOL0     C48883   2.770   9.042   9.411  1.5778 -0.2635 -0.1620
  371MOL0    Cl48884   2.594   9.115   9.405 -0.0879 -0.3427 -0.1680
  371MOL0     C48885   3.678   8.676   9.232  1.0675  1.6614  0.4106
  371MOL0     C48886   3.813   8.635   9.218 -0.1817 -0.6146 -0.3742
  371MOL0     O48887   4.067   8.606   8.885  0.0075 -1.0488 -0.1445
  371MOL0     C48888   4.299   8.624   9.164 -0.2616  0.4127 -0.6022
  371MOL0     C48889   4.438   8.633   9.186  0.1758 -0.1514  0.9073
  371MOL0     N48890   5.195   8.531   9.040  0.5115 -0.4981  0.2428
  371MOL0     N48891   5.303   8.473   9.052 -0.1055  0.4352  0.8070
  371MOL0     C48892   5.849   8.092   9.816  0.6057 -0.7649  0.1873
  371MOL0     C48893   5.972   8.026   9.819 -0.3070  0.3292  0.3732
  371MOL0     C48894   6.393   7.921   9.756  0.4920 -0.3415 -0.1038
  371MOL0     C48895   6.434   7.845   9.647 -0.2098 -0.2596 -0.1431
  371MOL0     C48896   6.548   7.757   9.666  0.3937 -0.4366 -1.0796
  371MOL0     C48897   6.628   7.766   9.782 -0.6773  0.2716 -0.9715
  371MOL0     O48898   6.749   7.701   9.783  0.1294 -0.1365  0.5532
  371MOL0     C48899   6.853   7.713   9.876  0.3670  0.3207 -0.3628
  371MOL0     C48900   6.922   7.850   9.844 -0.6493  0.1435  0.4888
  371MOL0     C48901   7.030   7.870   9.954  0.0795 -0.1829 -0.5145
  371MOL0     C48902   7.159   7.793   9.921  0.6005  0.1800 -0.4261
  371MOL0     C48903   7.162   7.663   9.987  0.1790 -0.1299  0.2812
  371MOL0     C48904   7.159   7.558  10.046  0.0209 -0.0374 -0.9553
  371MOL0     C48905   6.591   7.850   9.888 -0.2303 -0.0977 -0.0699
  371MOL0     C48906   6.472   7.921   9.875  0.2825 -0.4080  0.0053
  371MOL0     H48907   6.154   8.238  10.004  0.4590 -1.1577  1.9475
  371MOL0     H48908   5.909   8.344  10.026  1.0133 -0.5354  1.0511
  371MOL0     H48909   5.510   8.237   9.977 -2.2543 -2.3697 -0.2394
  371MOL0     H48910   5.587   8.086   9.940  1.1310 -0.1700 -0.1847
  371MOL0     H48911   5.465   8.148   9.747 -1.3375  1.6594 -0.6976
  371MOL0     H48912   5.622   8.205   9.699  1.2858  1.2819  0.4295
  371MOL0     H48913   5.579   8.431   9.780  0.6035 -0.8760  1.5185
  371MOL0     H48914   5.426   8.385   9.843 -4.0200 -3.7105 -2.8172
  371MOL0     H48915   5.331   8.332   9.620 -0.9622  0.3406  1.2335
  371MOL0     H48916   5.383   8.493   9.613 -1.3797 -0.7153 -0.0082
  371MOL0     H48917   5.531   8.263   9.483 -1.1834  0.4848  0.3856
  371MOL0     H48918   5.609   8.422   9.520  0.1982  1.1958 -1.1234
  371MOL0     H48919   5.435   8.547   9.394  0.1052  0.1424 -1.9335
  371MOL0     H48920   5.350   8.399   9.382 -0.6150  1.2553  4.6181
  371MOL0     H48921   5.630   8.368   9.289  0.9716  1.4737 -3.6472
  371MOL0     H48922   5.487   8.313   9.223  0.9456 -1.3713  2.3929
  371MOL0     H48923   5.603   8.483   9.076  1.6926  1.7470  2.2210
  371MOL0     H48924   5.577   8.603   9.206  1.3200 -2.5465  3.9240
  371MOL0     H48925   5.379   8.734   9.217  2.0939 -0.7179 -1.2989
  371MOL0     H48926   5.115   8.816   9.055 -2.8970 -1.5658 -2.5968
  371MOL0     H48927   5.101   8.786   9.241  0.0887  1.6888 -1.3794
  371MOL0     H48928   4.957   8.587   9.181  1.4318  0.1090  0.8836
  371MOL0     H48929   4.942   8.662   9.019  0.3531 -1.8886  0.6064
  371MOL0     H48930   4.863   8.841   9.262  0.0443  0.8430 -0.9069
  371MOL0     H48931   4.814   8.844   9.091  0.5633 -1.6077 -2.5155
  371MOL0     H48932   4.651   8.749   9.269 -0.0567  0.3270 -0.6590
  371MOL0     H48933   4.759   8.602   9.258  0.4734  0.6425  1.3386
  371MOL0     H48934   4.551   8.652   8.869  2.7860  0.3786  1.6805
  371MOL0     H48935   4.310   8.658   8.830  1.4167 -0.0928 -0.6758
  371MOL0     H48936   3.871   8.754   8.909  0.7002 -0.0487 -0.1567
  371MOL0     H48937   3.650   8.804   8.916  0.9764  2.2019  0.4399
  371MOL0     H48938   3.427   8.781   8.943 -0.5545 -0.5287 -0.1516
  371MOL0     H48939   3.378   8.918   9.041 -0.6211 -0.0900 -1.3272
  371MOL0     H48940   3.254   8.645   9.052 -1.9757  0.4239 -1.8207
  371MOL0     H48941   3.190   8.790   8.992 -0.4271  3.6566  1.5118
  371MOL0     H48942   3.203   8.928   9.178  3.2331  0.7495 -1.0891
  371MOL0     H48943   3.273   8.806   9.275  0.8627  1.1305  0.1037
  371MOL0     H48944   2.999   8.836   9.143  1.1721 -3.7706 -3.0011
  371MOL0     H48945   3.043   8.677   9.205  0.0179  0.4253 -0.2170
  371MOL0     H48946   3.029   8.924   9.375  0.3826 -0.1254 -1.1441
  371MOL0     H48947   3.077   8.761   9.434 -1.3434  1.6942  3.1062
  371MOL0     H48948   2.870   8.766   9.514  1.1479 -3.7063 -0.0468
  371MOL0     H48949   2.855   8.695   9.357 -2.0036  0.6993 -0.4143
  371MOL0     H48950   2.790   8.910   9.243 -0.2941 -3.0325 -1.1362
  371MOL0     H48951   2.674   8.849   9.367 -0.0426  1.1272  0.9255
  371MOL0     H48952   2.836   9.101   9.347 -1.0142  2.4783 -0.5176
  371MOL0     H48953   2.811   9.036   9.512 -0.3847 -4.5607  0.6121
  371MOL0     H48954   3.620   8.677   9.324 -2.7480  1.8579 -1.7756
  371MOL0     H48955   3.854   8.583   9.304 -2.3316 -2.8219 -0.5621
  371MOL0     H48956   4.242   8.611   9.256 -2.1268 -0.7272 -1.8481
  371MOL0     H48957   4.465   8.619   9.290  0.4454  0.1911  0.8855
  371MOL0     H48958   5.774   8.047   9.753 -0.6518 -0.0064  1.0960
  371MOL0     H48959   5.976   7.935   9.759 -0.4619 -0.8914  2.1373
  371MOL0     H48960   6.377   7.837   9.555 -0.4646  0.3837 -0.0454
  371MOL0     H48961   6.584   7.684   9.593  1.2122 -0.4399 -0.6857
  371MOL0     H48962   6.913   7.622   9.870 -0.3367 -0.0392 -3.5131
  371MOL0     H48963   6.825   7.721   9.981 -1.6426 -0.7948 -0.7729
  371MOL0     H48964   6.970   7.857   9.746 -0.7371  0.1456  0.4458
  371MOL0     H48965   6.855   7.937   9.846 -1.5015 -0.4892 -0.0655
  371MOL0     H48966   6.983   7.842  10.049  0.7252 -3.5763 -1.0617
  371MOL0     H48967   7.051   7.977   9.958 -0.3543 -0.1385  1.4537
  371MOL0     H48968   7.175   7.780   9.813  0.7637 -0.3918 -0.3345
  371MOL0     H48969   7.236   7.857   9.965 -1.7100  2.7477  0.1458
  371MOL0     H48970   7.171   7.461  10.090  1.1710  0.5781  0.1449
  371MOL0     H48971   6.652   7.850   9.977  1.2146  0.5151 -1.0241
  371MOL0     H48972   6.439   7.975   9.964  0.9406 -2.2805  1.4517
  372MOL0     O48973  10.984   8.270   9.338  0.9856 -1.0646 -0.0333
  372MOL0     C48974  10.932   8.188   9.397  0.4377  0.4883  0.3563
  372MOL0     O48975  11.008   8.086   9.454 -0.8089  0.2319  0.4227
  372MOL0     C48976  11.143   8.063   9.424  0.2950 -0.0424  0.0731
  372MOL0     C48977  11.211   8.105   9.311  0.2568  0.0137 -0.6842
  372MOL0     C48978  11.350   8.077   9.298  0.2148  0.3394 -0.5190
  372MOL0     C48979  11.416   7.997   9.402  0.7236  0.0542  0.3066
  372MOL0     O48980  11.538   7.943   9.408 -0.6260  0.7499  0.4575
  372MOL0     C48981  11.641   7.978   9.306 -0.2313 -0.5205  0.2750
  372MOL0     C48982  11.772   8.012   9.375 -0.9552 -0.5535  0.7056
  372MOL0     C48983  11.865   8.070   9.265  0.4408  0.0208  0.9822
  372MOL0     C48984  11.990   8.142   9.318 -0.2330 -0.1678 -0.1166
  372MOL0     C48985  12.086   8.205   9.213  1.5614 -0.4909  0.4226
  372MOL0     C48986  12.218   8.241   9.276  0.1833 -0.0473  0.9542
  372MOL0     C48987  12.206   8.333   9.397  0.0111  0.2484  0.4003
  372MOL0     C48988  12.337   8.406   9.407 -0.8718  0.3227 -1.3120
  372MOL0     N48989  12.449   8.313   9.415 -0.8934 -0.3865 -1.1050
  372MOL0     C48990  12.497   8.265   9.532  0.3984  0.4969 -0.6616
  372MOL0     C48991  12.623   8.228   9.515 -0.9203 -0.8946  0.7017
  372MOL0     C48992  12.720   8.174   9.626  0.3744 -0.0114  0.6892
  372MOL0     C48993  12.654   8.090   9.740  0.0129  0.0120 -0.9200
  372MOL0     C48994  12.766   8.049   9.842  0.6847 -0.2166  1.1476
  372MOL0     C48995  12.713   7.942   9.939  0.3716 -0.3451 -0.0215
  372MOL0     O48996  12.609   8.007  10.018 -0.0747  0.1844  0.2439
  372MOL0     C48997  12.560   7.940  10.134 -0.7739 -0.5416  0.6686
  372MOL0     C48998  12.610   7.818  10.174  0.4743 -1.3359  0.2169
  372MOL0     C48999  12.545   7.765  10.285 -0.1146  0.1251  0.7391
  372MOL0     C49000  12.430   7.818  10.350 -0.0633  1.3701 -0.5652
  372MOL0     C49001  12.352   7.741  10.449 -0.4066  0.5988 -0.3940
  372MOL0     O49002  12.243   7.801  10.499  0.5394 -0.3217  0.1308
  372MOL0     C49003  12.184   7.737  10.600 -1.0308 -0.2203 -0.4805
  372MOL0     C49004  12.218   7.780  10.730 -0.4510 -0.2006  0.0443
  372MOL0     C49005  12.140   7.739  10.843 -0.5591  0.3861 -0.0803
  372MOL0     C49006  12.045   7.634  10.827 -0.1411 -0.0454 -0.1373
  372MOL0     O49007  11.970   7.583  10.928 -0.3875  0.1092  0.4049
  372MOL0     C49008  11.917   7.676  11.022 -0.7348 -0.0711 -0.4582
  372MOL0     C49009  11.772   7.704  10.989 -0.8860  0.2027  0.0241
  372MOL0     C49010  11.673   7.585  10.986  0.8350 -0.0192 -0.1487
  372MOL0     C49011  11.525   7.626  10.967 -0.4109  0.3061 -0.0228
  372MOL0     C49012  11.428   7.506  10.947  0.0616 -0.5594  1.0599
  372MOL0     C49013  11.284   7.559  10.962 -0.0925 -0.6984 -0.0235
  372MOL0     C49014  11.164   7.456  10.953 -0.7213  0.2311 -0.3603
  372MOL0     C49015  11.029   7.534  10.955  0.2387  0.0393  0.0077
  372MOL0    Cl49016  10.898   7.416  10.895 -0.2686 -0.4258 -0.0386
  372MOL0     C49017  12.010   7.594  10.697  0.2152  0.2669 -0.4124
  372MOL0     C49018  12.078   7.645  10.585  0.6702  0.4047  0.3476
  372MOL0     O49019  12.396   7.630  10.484  0.8486 -1.2515  0.0965
  372MOL0     C49020  12.389   7.944  10.304  0.1504  1.2696 -0.1079
  372MOL0     C49021  12.454   8.008  10.193 -0.3201 -0.2159 -0.2527
  372MOL0     N49022  12.658   8.270   9.384 -0.6556 -0.1864 -0.4351
  372MOL0     N49023  12.553   8.322   9.326  0.2620  0.1176  0.2666
  372MOL0     C49024  11.342   7.968   9.516 -0.2900 -0.5574  0.0527
  372MOL0     C49025  11.207   8.002   9.529 -0.0985  0.7093 -0.1426
  372MOL0     C49026  10.789   8.197   9.431  0.5373 -0.4483 -0.1112
  372MOL0     C49027  10.743   8.103   9.528 -0.5441  0.1597 -1.0734
  372MOL0     C49028  10.606   8.101   9.580 -0.4927  0.0131 -0.5053
  372MOL0     C49029  10.512   8.191   9.538 -0.0619 -0.7519 -0.1714
  372MOL0     O49030  10.384   8.183   9.595 -0.6444  0.2963 -0.2344
  372MOL0     C49031  10.275   8.193   9.501  0.7633  0.4087 -0.2000
  372MOL0     C49032  10.173   8.068   9.516  0.0831 -0.7257  0.4044
  372MOL0     C49033  10.088   8.079   9.646  0.3636  0.1779 -0.8517
  372MOL0     C49034   9.975   8.176   9.644 -0.1124  0.2191 -0.3034
  372MOL0     C49035   9.858   8.129   9.573 -0.4362 -0.4177  0.1968
  372MOL0     C49036   9.747   8.107   9.518  0.4339  0.9935  0.1829
  372MOL0     C49037  10.558   8.293   9.447  0.7979  0.1794  0.8616
  372MOL0     C49038  10.693   8.290   9.391 -0.0424 -1.0908 -0.3810
  372MOL0     H49039  11.153   8.151   9.231 -1.2790 -3.2883 -1.6546
  372MOL0     H49040  11.405   8.090   9.205  1.6091 -4.6606 -0.7105
  372MOL0     H49041  11.600   8.072   9.267 -0.8137  0.2966  2.6718
  372MOL0     H49042  11.651   7.905   9.226 -1.2674 -1.3234  0.8574
  372MOL0     H49043  11.812   7.927   9.430  1.8011  0.1668 -0.0202
  372MOL0     H49044  11.739   8.100   9.431 -1.3476  1.6295 -2.6811
  372MOL0     H49045  11.807   8.138   9.203  1.0844 -0.2308  0.0912
  372MOL0     H49046  11.892   7.986   9.201 -2.4338 -0.0331 -0.3037
  372MOL0     H49047  11.952   8.217   9.387 -1.6427 -1.8956  1.0787
  372MOL0     H49048  12.044   8.063   9.370 -0.1084  0.1485  0.2368
  372MOL0     H49049  12.040   8.290   9.162  1.5529  0.9029  2.6080
  372MOL0     H49050  12.103   8.134   9.132 -1.2882  0.6988 -1.3704
  372MOL0     H49051  12.277   8.282   9.193  1.6466  0.8376  2.3732
  372MOL0     H49052  12.268   8.150   9.310  3.7943  1.3144 -0.2210
  372MOL0     H49053  12.121   8.401   9.394  0.5276  0.9922  1.8262
  372MOL0     H49054  12.182   8.272   9.485 -4.7204  0.1062 -0.7157
  372MOL0     H49055  12.338   8.468   9.497 -1.0784 -1.1714 -0.2560
  372MOL0     H49056  12.344   8.467   9.317 -2.8866  0.3973 -1.4594
  372MOL0     H49057  12.448   8.264   9.629 -1.4170 -1.4656 -1.4987
  372MOL0     H49058  12.786   8.254   9.659  2.5203 -0.3130 -2.4546
  372MOL0     H49059  12.793   8.101   9.588  1.7596  0.8376  1.6551
  372MOL0     H49060  12.598   8.002   9.710 -2.1352  0.0939  2.3535
  372MOL0     H49061  12.579   8.151   9.792  0.1183 -0.0087 -0.7425
  372MOL0     H49062  12.853   8.011   9.787  0.6086  0.9159  0.1968
  372MOL0     H49063  12.804   8.129   9.907 -0.2917  1.5315 -0.3447
  372MOL0     H49064  12.791   7.906  10.006  1.8654  2.4328 -0.1329
  372MOL0     H49065  12.679   7.855   9.882  3.9558 -0.9440 -1.5237
  372MOL0     H49066  12.687   7.762  10.124 -0.6608 -1.7731 -1.1108
  372MOL0     H49067  12.583   7.668  10.314 -0.4282  0.6677  3.1952
  372MOL0     H49068  12.306   7.843  10.738 -0.1300 -0.4753 -1.1493
  372MOL0     H49069  12.179   7.776  10.937 -0.6393  1.9536 -0.6158
  372MOL0     H49070  11.978   7.764  11.041 -1.1277 -0.2406  1.8719
  372MOL0     H49071  11.930   7.617  11.114  0.5356 -0.5766 -0.9366
  372MOL0     H49072  11.759   7.753  10.892 -3.5770 -1.6055 -0.6422
  372MOL0     H49073  11.733   7.766  11.071 -0.3379 -0.5738  0.8951
  372MOL0     H49074  11.686   7.546  11.087  3.2172  0.8906 -0.0299
  372MOL0     H49075  11.703   7.502  10.920 -0.5380 -0.1353 -0.6726
  372MOL0     H49076  11.502   7.671  11.064  0.4216 -1.6525  1.1394
  372MOL0     H49077  11.518   7.694  10.881  1.1991 -1.4162 -1.6187
  372MOL0     H49078  11.442   7.428  11.022  0.9534 -0.2819  1.1943
  372MOL0     H49079  11.458   7.470  10.847  2.0649  0.4290  1.2516
  372MOL0     H49080  11.267   7.640  10.891  0.0571  0.8686  1.6537
  372MOL0     H49081  11.273   7.603  11.061  0.2806 -0.5165 -0.0635
  372MOL0     H49082  11.156   7.410  10.854 -2.8091 -0.8915  0.2722
  372MOL0     H49083  11.178   7.370  11.019  4.6697 -0.8451 -2.3675
  372MOL0     H49084  11.034   7.624  10.893 -1.5763  0.5553  0.5551
  372MOL0     H49085  10.996   7.561  11.055  1.1459 -0.5846  0.4872
  372MOL0     H49086  11.920   7.534  10.682 -2.1525  3.3351  0.4863
  372MOL0     H49087  12.042   7.612  10.488  1.1414  0.2152  0.2294
  372MOL0     H49088  12.292   7.983  10.335 -1.4650 -2.6272  0.2347
  372MOL0     H49089  12.422   8.103  10.151  1.9157 -0.6980 -3.3567
  372MOL0     H49090  11.388   7.920   9.602  0.1397 -0.2378  0.0015
  372MOL0     H49091  11.162   7.984   9.626 -2.3930 -1.3418 -1.4798
  372MOL0     H49092  10.804   8.025   9.572 -2.8228 -1.6904 -0.9998
  372MOL0     H49093  10.569   8.020   9.642 -2.9926  0.5121 -1.2335
  372MOL0     H49094  10.310   8.173   9.399  0.3791  0.1670 -0.2841
  372MOL0     H49095  10.217   8.285   9.491 -2.3627 -1.3943  0.0834
  372MOL0     H49096  10.102   8.061   9.433 -1.1500  2.5874  1.0513
  372MOL0     H49097  10.217   7.968   9.509 -0.8645 -1.1541  0.4769
  372MOL0     H49098  10.161   8.107   9.722 -0.3639 -0.1399 -0.0317
  372MOL0     H49099  10.049   7.980   9.672  1.8233  0.4746  3.0598
  372MOL0     H49100   9.938   8.187   9.746 -2.0059  2.2349 -1.1282
  372MOL0     H49101   9.999   8.280   9.623 -1.0047  0.5622  0.3029
  372MOL0     H49102   9.658   8.100   9.459  2.4207  2.7621 -3.3739
  372MOL0     H49103  10.478   8.356   9.410  0.8674  0.0417  0.4762
  372MOL0     H49104  10.722   8.356   9.309 -1.2067 -0.6841 -0.4825
  373MOL0     O49105   7.778   8.460   9.310 -0.0856  0.5165 -0.0497
  373MOL0     C49106   7.768   8.400   9.199 -0.0727  0.5330 -0.0924
  373MOL0     O49107   7.650   8.347   9.142 -1.0018  0.0220  0.4285
  373MOL0     C49108   7.554   8.305   9.232 -0.4153  0.3640  0.2379
  373MOL0     C49109   7.569   8.268   9.364  0.0854  0.2141 -0.2356
  373MOL0     C49110   7.461   8.269   9.451  0.4531  1.1293  0.8399
  373MOL0     C49111   7.333   8.275   9.402 -0.5204 -0.1878 -0.6728
  373MOL0     O49112   7.238   8.270   9.495 -0.1871  0.0212  0.1077
  373MOL0     C49113   7.154   8.159   9.477  0.1320  0.3243 -0.1675
  373MOL0     C49114   7.065   8.144   9.588  0.1620  0.0090 -0.5862
  373MOL0     C49115   6.941   8.235   9.571  0.8470  1.0336 -1.0358
  373MOL0     C49116   6.828   8.206   9.661 -0.4889 -0.8532 -0.6581
  373MOL0     C49117   6.696   8.276   9.614 -0.3293 -0.8151  0.3115
  373MOL0     C49118   6.599   8.296   9.724  0.0659 -0.3419 -0.5485
  373MOL0     C49119   6.467   8.346   9.656  0.3473 -0.3011 -0.9204
  373MOL0     C49120   6.362   8.365   9.768 -0.2001  0.3718 -0.4089
  373MOL0     N49121   6.230   8.422   9.710 -0.4347 -0.0579  0.2628
  373MOL0     C49122   6.136   8.348   9.653  0.2904  0.8360 -0.5308
  373MOL0     C49123   6.031   8.425   9.655 -0.8645 -0.2148 -0.4911
  373MOL0     C49124   5.893   8.399   9.595  0.7163  0.5619  0.4524
  373MOL0     C49125   5.882   8.303   9.479  0.3962 -0.8663 -0.5568
  373MOL0     C49126   5.925   8.365   9.341  0.8394  0.2855  0.3304
  373MOL0     C49127   6.072   8.366   9.303  0.3103  0.3452 -0.5293
  373MOL0     O49128   6.125   8.237   9.334 -0.4746 -0.2222  0.1805
  373MOL0     C49129   6.261   8.230   9.318  0.0906  0.2326  0.4818
  373MOL0     C49130   6.338   8.313   9.230 -0.9754 -0.3906  0.1258
  373MOL0     C49131   6.478   8.305   9.221  0.5712  0.5315 -0.3118
  373MOL0     C49132   6.542   8.202   9.282 -0.2685  0.0739 -0.1014
  373MOL0     C49133   6.687   8.181   9.269 -1.5365 -0.5508 -0.2565
  373MOL0     O49134   6.733   8.046   9.296  0.8601  0.1832 -0.3523
  373MOL0     C49135   6.858   7.999   9.264 -0.2984 -0.0386  0.7044
  373MOL0     C49136   6.905   7.881   9.328  0.3915 -1.1866  0.1939
  373MOL0     C49137   7.026   7.829   9.297 -0.2621  0.1574  0.7992
  373MOL0     C49138   7.115   7.904   9.218 -1.2670  0.7518  0.4527
  373MOL0     O49139   7.246   7.854   9.208 -0.0697 -0.1994 -0.3136
  373MOL0     C49140   7.361   7.938   9.207  0.2095  0.3223  0.5483
  373MOL0     C49141   7.482   7.856   9.182 -0.7913 -0.6883  0.0964
  373MOL0     C49142   7.601   7.951   9.172 -0.4330  0.8991  0.3529
  373MOL0     C49143   7.737   7.890   9.124 -1.2457 -0.3052  0.3947
  373MOL0     C49144   7.844   7.978   9.173  0.5265 -0.6940 -0.1440
  373MOL0     C49145   7.977   7.914   9.153  0.2608 -0.2135  0.5347
  373MOL0     C49146   8.086   7.979   9.222 -0.3810 -0.5520  0.2822
  373MOL0     C49147   8.154   8.091   9.149  0.7077  0.9187 -0.4844
  373MOL0    Cl49148   8.293   8.146   9.243  0.0480 -0.2513 -0.2924
  373MOL0     C49149   7.070   8.013   9.145 -0.4070 -0.4469  0.1954
  373MOL0     C49150   6.937   8.059   9.161 -0.6954  0.1361 -0.7718
  373MOL0     O49151   6.761   8.281   9.241  0.0848  0.6661 -0.1894
  373MOL0     C49152   6.469   8.105   9.356  1.4680 -0.6136  0.3700
  373MOL0     C49153   6.328   8.120   9.369 -0.4477  0.3226 -0.3372
  373MOL0     N49154   6.058   8.547   9.724 -0.4014  0.8330 -0.2022
  373MOL0     N49155   6.180   8.543   9.757  0.3292 -0.9069 -0.3582
  373MOL0     C49156   7.312   8.290   9.266  0.7310  0.2894  0.2962
  373MOL0     C49157   7.423   8.303   9.181  0.4153 -0.1543 -0.2140
  373MOL0     C49158   7.886   8.407   9.113  0.0287  0.6109 -0.0186
  373MOL0     C49159   7.891   8.347   8.983 -0.5224 -0.2504  0.2684
  373MOL0     C49160   8.012   8.339   8.913  0.5648 -0.4897  0.4956
  373MOL0     C49161   8.128   8.387   8.971  0.0471  0.5185  0.2073
  373MOL0     O49162   8.244   8.366   8.899  0.4591 -0.6010  0.1775
  373MOL0     C49163   8.320   8.483   8.871  0.7160 -0.1581  0.2834
  373MOL0     C49164   8.446   8.500   8.960  0.0648 -0.6560  0.4638
  373MOL0     C49165   8.544   8.376   8.965  0.0189  0.0531  0.7998
  373MOL0     C49166   8.619   8.372   9.097 -0.7400  0.9098 -0.0401
  373MOL0     C49167   8.711   8.253   9.118  0.2787 -0.1718 -0.2460
  373MOL0     C49168   8.790   8.156   9.118  0.1124 -0.1243  0.2021
  373MOL0     C49169   8.121   8.441   9.101  0.0881  0.1104 -0.9005
  373MOL0     C49170   8.004   8.466   9.171  0.2494  0.8577 -0.5501
  373MOL0     H49171   7.662   8.263   9.420 -0.8904  1.8294  1.6859
  373MOL0     H49172   7.461   8.279   9.559  1.3361  1.9479  0.7742
  373MOL0     H49173   7.217   8.073   9.452  2.4312  1.6172  0.7986
  373MOL0     H49174   7.094   8.169   9.386  0.2739 -0.4495 -0.3480
  373MOL0     H49175   7.123   8.171   9.677  0.3972 -1.7085 -0.1822
  373MOL0     H49176   7.031   8.040   9.591 -2.1646  0.7335 -0.0659
  373MOL0     H49177   6.914   8.230   9.465  3.0437 -4.7346 -1.6790
  373MOL0     H49178   6.982   8.332   9.601  0.7400  0.9158 -0.4980
  373MOL0     H49179   6.827   8.098   9.676  5.7218 -1.1073  0.6164
  373MOL0     H49180   6.854   8.259   9.753  0.8032 -0.6705 -1.1046
  373MOL0     H49181   6.651   8.231   9.525  0.0659 -0.4812 -0.0621
  373MOL0     H49182   6.723   8.373   9.571  1.3907 -0.3660  2.2138
  373MOL0     H49183   6.634   8.359   9.807  2.6585 -2.2977 -0.0399
  373MOL0     H49184   6.572   8.199   9.767 -1.5112  0.3130  0.0227
  373MOL0     H49185   6.477   8.449   9.620  3.4172  0.2486  1.1239
  373MOL0     H49186   6.433   8.282   9.574  0.4839 -1.0735 -0.3812
  373MOL0     H49187   6.407   8.424   9.848  1.4270  0.7659 -1.5611
  373MOL0     H49188   6.348   8.268   9.817 -1.2317  0.8063  0.1788
  373MOL0     H49189   6.142   8.250   9.609  2.2237  1.0152 -0.7504
  373MOL0     H49190   5.850   8.495   9.565 -1.2792 -1.0419 -2.3218
  373MOL0     H49191   5.844   8.359   9.685  4.0110  1.0223  2.6314
  373MOL0     H49192   5.778   8.271   9.467 -0.2843 -0.8259  3.7736
  373MOL0     H49193   5.943   8.214   9.498  0.2286 -1.0863 -1.0340
  373MOL0     H49194   5.870   8.310   9.264 -0.2225  0.8330  0.6726
  373MOL0     H49195   5.888   8.468   9.341 -0.7024 -0.1897  2.5107
  373MOL0     H49196   6.127   8.434   9.368 -1.7065 -1.6837  3.7584
  373MOL0     H49197   6.072   8.382   9.195 -2.4018  1.7473 -0.3958
  373MOL0     H49198   6.291   8.396   9.179 -0.8685  0.2269  1.0079
  373MOL0     H49199   6.535   8.381   9.169 -0.0176  1.0767 -0.1891
  373MOL0     H49200   6.844   7.824   9.398 -0.4425 -1.9363 -1.1127
  373MOL0     H49201   7.053   7.729   9.328 -0.0479  0.1945  0.7389
  373MOL0     H49202   7.373   8.005   9.293  0.4992  3.0461 -1.4952
  373MOL0     H49203   7.350   8.004   9.121  0.1889  0.0619  0.3495
  373MOL0     H49204   7.474   7.797   9.090 -0.2636 -2.3938  1.0999
  373MOL0     H49205   7.495   7.789   9.267  2.5510  1.2464  1.2930
  373MOL0     H49206   7.619   8.000   9.268 -0.3887  0.5902  0.5055
  373MOL0     H49207   7.584   8.029   9.098 -0.8802 -0.8975 -1.5091
  373MOL0     H49208   7.746   7.784   9.150  0.7658 -0.2398  0.0825
  373MOL0     H49209   7.741   7.893   9.015  0.9326  1.2005  0.4661
  373MOL0     H49210   7.836   8.006   9.278  0.0717 -1.0607 -0.0791
  373MOL0     H49211   7.844   8.066   9.108  3.1866 -2.0454 -2.1896
  373MOL0     H49212   7.993   7.912   9.045 -2.7689  0.6691 -0.0293
  373MOL0     H49213   7.965   7.813   9.191 -0.9319  0.2521  1.4479
  373MOL0     H49214   8.048   8.008   9.321  0.7380 -0.7699  0.7825
  373MOL0     H49215   8.156   7.897   9.239 -0.7000 -0.9162 -0.1180
  373MOL0     H49216   8.085   8.176   9.158  2.5854  2.3279  1.9822
  373MOL0     H49217   8.183   8.074   9.045  2.4070  0.6467 -0.0012
  373MOL0     H49218   7.135   8.069   9.078  3.0213 -4.2611 -0.0688
  373MOL0     H49219   6.904   8.152   9.116 -0.5735  0.1552 -0.8225
  373MOL0     H49220   6.517   8.011   9.382 -0.5854 -1.2207  2.1988
  373MOL0     H49221   6.271   8.038   9.410 -0.6839  0.5997 -0.1038
  373MOL0     H49222   7.210   8.297   9.230  1.6554 -1.1735 -2.9131
  373MOL0     H49223   7.396   8.329   9.079 -1.5779 -1.5676 -0.1138
  373MOL0     H49224   7.804   8.315   8.928 -0.0135  3.5081 -3.1512
  373MOL0     H49225   8.013   8.320   8.806 -0.3414  2.8437 -0.2162
  373MOL0     H49226   8.263   8.576   8.878  3.3043  1.5984 -0.6705
  373MOL0     H49227   8.343   8.478   8.765  0.6311 -2.7663  0.3372
  373MOL0     H49228   8.508   8.588   8.943 -1.3624  0.6191  1.6810
  373MOL0     H49229   8.414   8.514   9.063 -1.1897 -1.9488  0.2821
  373MOL0     H49230   8.619   8.380   8.885 -2.2982 -1.7350 -1.6807
  373MOL0     H49231   8.476   8.292   8.944 -2.7657  2.4564 -0.5293
  373MOL0     H49232   8.682   8.461   9.102  1.6842 -0.6717 -0.5649
  373MOL0     H49233   8.546   8.392   9.176 -0.8841  3.3547 -0.7087
  373MOL0     H49234   8.864   8.078   9.121 -0.0735 -0.2727  1.3492
  373MOL0     H49235   8.206   8.480   9.156 -1.3541  2.0506  0.0463
  373MOL0     H49236   8.009   8.519   9.265  1.3437  1.2455 -0.8092
  374MOL0     O49237   5.835   4.800   4.336 -0.2976  0.5632 -0.6518
  374MOL0     C49238   5.870   4.707   4.405 -0.0403 -0.6518 -0.3301
  374MOL0     O49239   5.796   4.605   4.439  0.6821  0.4435 -0.4931
  374MOL0     C49240   5.662   4.598   4.399 -0.2191 -0.0086 -0.2471
  374MOL0     C49241   5.578   4.532   4.489 -0.1518  1.3155  0.2260
  374MOL0     C49242   5.443   4.515   4.456 -0.3114  0.5867  0.3441
  374MOL0     C49243   5.388   4.552   4.329 -0.1580 -0.1539 -0.7014
  374MOL0     O49244   5.261   4.526   4.287 -0.2529 -0.5166 -0.0580
  374MOL0     C49245   5.161   4.534   4.384  0.3638  0.2284 -0.4550
  374MOL0     C49246   5.016   4.510   4.335 -0.3855 -0.1934  0.9400
  374MOL0     C49247   4.971   4.596   4.220  0.0969  0.3286 -0.0461
  374MOL0     C49248   4.814   4.603   4.220 -0.6436 -0.5604 -0.0742
  374MOL0     C49249   4.768   4.459   4.180  0.3038 -0.1015 -0.5665
  374MOL0     C49250   4.620   4.464   4.142  0.5890  0.2341 -0.1134
  374MOL0     C49251   4.570   4.328   4.087  0.4810 -0.7360 -0.0509
  374MOL0     C49252   4.411   4.326   4.081 -0.3919 -0.6688 -1.0171
  374MOL0     N49253   4.375   4.193   4.029 -0.7122 -0.1966  0.1719
  374MOL0     C49254   4.331   4.162   3.903  0.3433  0.6413 -0.2256
  374MOL0     C49255   4.332   4.019   3.902  0.1515 -0.9275 -0.7126
  374MOL0     C49256   4.288   3.932   3.788 -0.4910 -0.1039  0.1329
  374MOL0     C49257   4.232   3.794   3.839  0.4214 -0.1966  0.4571
  374MOL0     C49258   4.093   3.808   3.900 -0.1233  0.6192  0.2287
  374MOL0     C49259   3.974   3.806   3.792  0.1916  0.7247 -0.5259
  374MOL0     O49260   3.842   3.835   3.855 -0.3627 -0.3117  0.0226
  374MOL0     C49261   3.733   3.853   3.774 -0.2676 -0.2613 -0.3194
  374MOL0     C49262   3.649   3.963   3.793 -0.1869  0.2055 -1.3589
  374MOL0     C49263   3.531   3.992   3.722  0.7390  0.4210 -1.0390
  374MOL0     C49264   3.484   3.896   3.631 -0.2612 -0.4989  0.0248
  374MOL0     C49265   3.365   3.930   3.545 -0.1814 -0.0639 -0.0808
  374MOL0     O49266   3.281   3.830   3.506  0.1383  0.6531 -0.3779
  374MOL0     C49267   3.155   3.870   3.457  0.0685  0.6907 -0.1996
  374MOL0     C49268   3.114   3.820   3.334  0.0175 -0.1684  0.2085
  374MOL0     C49269   2.985   3.850   3.283 -0.3983  0.0300 -0.3020
  374MOL0     C49270   2.891   3.911   3.364  0.6116 -0.0937 -0.6289
  374MOL0     O49271   2.763   3.925   3.325  0.2877  0.4987 -1.1036
  374MOL0     C49272   2.728   4.047   3.249  0.8591  0.4479  0.5322
  374MOL0     C49273   2.631   4.134   3.327  0.5475  0.7616 -0.6987
  374MOL0     C49274   2.497   4.062   3.321  0.9427 -0.5493  1.2471
  374MOL0     C49275   2.385   4.163   3.372 -0.7268  0.6040  0.0908
  374MOL0     C49276   2.412   4.208   3.518  0.5289  0.3369 -0.5515
  374MOL0     C49277   2.438   4.096   3.617  1.1474 -0.6591 -0.0374
  374MOL0     C49278   2.409   4.137   3.757  0.1419 -0.0035 -0.2276
  374MOL0     C49279   2.471   4.048   3.859  0.6948 -0.1155  0.2031
  374MOL0    Cl49280   2.637   4.093   3.906 -0.2157 -0.0693  0.0369
  374MOL0     C49281   2.932   3.953   3.496  0.7767  0.5604 -0.4548
  374MOL0     C49282   3.062   3.936   3.537  0.2612 -0.4192  0.6188
  374MOL0     O49283   3.347   4.056   3.534  0.3959 -0.2843  0.5347
  374MOL0     C49284   3.568   3.777   3.609  0.4067 -0.1620 -0.0583
  374MOL0     C49285   3.687   3.754   3.684  0.1844  0.5237  0.1441
  374MOL0     N49286   4.377   3.972   4.021 -0.1955 -0.3443  0.1094
  374MOL0     N49287   4.400   4.077   4.100  0.2787  0.0577  0.2070
  374MOL0     C49288   5.475   4.619   4.244 -1.4344  0.4267  0.8286
  374MOL0     C49289   5.613   4.641   4.274 -0.3294 -0.5660 -0.3428
  374MOL0     C49290   6.015   4.703   4.440  0.2184  0.4625 -0.3584
  374MOL0     C49291   6.072   4.586   4.487 -0.0483 -0.2918 -0.8034
  374MOL0     C49292   6.205   4.577   4.527 -0.1643 -0.3851 -0.6113
  374MOL0     C49293   6.296   4.682   4.510  0.2967 -1.1239  0.2327
  374MOL0     O49294   6.428   4.693   4.542  0.3917 -0.4397  0.0512
  374MOL0     C49295   6.491   4.573   4.582  0.6390 -0.7550 -0.4535
  374MOL0     C49296   6.631   4.614   4.633  0.4309 -0.5447 -0.2814
  374MOL0     C49297   6.706   4.493   4.680  0.3381  0.3834  0.5727
  374MOL0     C49298   6.856   4.522   4.698  0.5629  0.9216  0.0476
  374MOL0     C49299   6.908   4.412   4.781  0.2449 -0.4176  0.0974
  374MOL0     C49300   6.949   4.330   4.859  0.3541 -0.2283  0.0933
  374MOL0     C49301   6.244   4.794   4.445  0.8450 -0.3668  0.1061
  374MOL0     C49302   6.108   4.801   4.407 -0.7506 -1.0454 -0.5459
  374MOL0     H49303   5.618   4.503   4.585  0.1493  0.0374 -0.2670
  374MOL0     H49304   5.381   4.465   4.529 -0.0448 -0.4648 -0.1393
  374MOL0     H49305   5.180   4.628   4.438  2.9414 -1.1241  1.2218
  374MOL0     H49306   5.185   4.454   4.454  0.2745 -0.0619 -0.7565
  374MOL0     H49307   4.946   4.528   4.417 -4.0004  1.6530 -2.2092
  374MOL0     H49308   5.021   4.403   4.311  0.5870  0.0630 -0.0637
  374MOL0     H49309   5.015   4.546   4.133  0.5929 -0.0619  0.4244
  374MOL0     H49310   5.019   4.693   4.237 -0.0936  0.3114  0.5961
  374MOL0     H49311   4.765   4.642   4.309  0.5495  0.6768  0.0751
  374MOL0     H49312   4.781   4.672   4.141 -2.6579 -1.0116  0.3427
  374MOL0     H49313   4.785   4.386   4.260  1.8044 -0.9698 -1.6079
  374MOL0     H49314   4.834   4.426   4.099 -0.4022 -1.0695 -0.7599
  374MOL0     H49315   4.598   4.535   4.062 -1.3576 -1.3251 -1.0479
  374MOL0     H49316   4.561   4.499   4.227  1.5420  1.7448 -0.0320
  374MOL0     H49317   4.604   4.314   3.984  0.5258  2.2341 -0.5303
  374MOL0     H49318   4.601   4.252   4.159 -0.3188  1.2662  2.5757
  374MOL0     H49319   4.382   4.407   4.014  0.7315 -0.8191 -1.7110
  374MOL0     H49320   4.364   4.328   4.180  1.0517  1.5942 -0.2984
  374MOL0     H49321   4.292   4.224   3.823 -0.2811  2.7962  1.6200
  374MOL0     H49322   4.373   3.900   3.728 -0.0936 -0.7546  1.0234
  374MOL0     H49323   4.224   3.989   3.720 -0.6500 -0.3463  0.0778
  374MOL0     H49324   4.305   3.755   3.909  0.2134 -0.4581  0.5269
  374MOL0     H49325   4.213   3.720   3.760  1.7050  0.2199 -0.2763
  374MOL0     H49326   4.066   3.733   3.975  0.0816  0.0331 -0.2892
  374MOL0     H49327   4.095   3.900   3.959  2.8499 -0.4549  2.0086
  374MOL0     H49328   3.967   3.712   3.737  0.0043  0.9516 -0.8960
  374MOL0     H49329   3.989   3.888   3.721  1.6972  1.8040  0.9613
  374MOL0     H49330   3.676   4.032   3.872  0.6658 -2.4236  0.8235
  374MOL0     H49331   3.473   4.082   3.739 -1.5682 -1.2673  0.7697
  374MOL0     H49332   3.185   3.760   3.278  0.6695  1.7191 -1.0681
  374MOL0     H49333   2.963   3.808   3.186  0.0232  1.8254 -1.2176
  374MOL0     H49334   2.687   4.004   3.157 -0.3832 -1.8210  2.0552
  374MOL0     H49335   2.819   4.104   3.227  1.0446  0.1817  0.6018
  374MOL0     H49336   2.627   4.235   3.284 -0.9707  1.2148  0.4035
  374MOL0     H49337   2.669   4.139   3.429  2.1749 -1.0802 -1.1591
  374MOL0     H49338   2.503   3.966   3.374  0.6991 -1.3723 -0.1871
  374MOL0     H49339   2.472   4.035   3.219 -0.3375 -0.5526  1.5458
  374MOL0     H49340   2.389   4.248   3.304  0.5703  2.3265  2.2049
  374MOL0     H49341   2.286   4.115   3.368 -0.6551  0.5178 -1.0123
  374MOL0     H49342   2.332   4.277   3.548  0.0365 -1.4688  2.9769
  374MOL0     H49343   2.504   4.267   3.525  1.6981 -1.5595  1.9314
  374MOL0     H49344   2.539   4.058   3.600  0.8785 -1.1546 -0.5490
  374MOL0     H49345   2.366   4.017   3.595 -0.8196  0.4684  1.8987
  374MOL0     H49346   2.430   4.244   3.767 -0.2690  0.0533  0.0755
  374MOL0     H49347   2.301   4.128   3.771  0.3001 -0.5973  0.6571
  374MOL0     H49348   2.459   3.943   3.830  0.5060  0.2892 -1.2851
  374MOL0     H49349   2.416   4.040   3.953  0.3318 -0.3704 -0.0263
  374MOL0     H49350   2.860   3.990   3.568  1.3223  0.9729 -0.1101
  374MOL0     H49351   3.078   3.973   3.637  2.5019  0.2918  0.0525
  374MOL0     H49352   3.541   3.705   3.532  0.0658 -0.3006  0.1837
  374MOL0     H49353   3.740   3.659   3.676  0.4329  0.7523 -1.0246
  374MOL0     H49354   5.438   4.642   4.145  0.3662 -3.3819 -0.9180
  374MOL0     H49355   5.687   4.683   4.206 -2.9464  2.8851 -1.3291
  374MOL0     H49356   6.003   4.502   4.494 -1.8045  1.2155  1.1735
  374MOL0     H49357   6.249   4.483   4.561 -2.7954 -1.2255  0.8150
  374MOL0     H49358   6.495   4.505   4.496  1.3954 -0.0306 -1.0064
  374MOL0     H49359   6.439   4.526   4.665  0.3255 -1.1125 -0.8502
  374MOL0     H49360   6.693   4.656   4.553 -1.2463  0.3201 -1.1767
  374MOL0     H49361   6.625   4.687   4.715 -0.0836  2.2755 -2.6447
  374MOL0     H49362   6.711   4.407   4.612 -0.1228 -0.4165  1.5323
  374MOL0     H49363   6.656   4.460   4.771  3.8449  0.1749  2.6025
  374MOL0     H49364   6.913   4.513   4.605  0.8295  0.5779  0.2417
  374MOL0     H49365   6.883   4.612   4.754 -1.6671  0.3876  2.1609
  374MOL0     H49366   6.994   4.268   4.934  1.2496  0.0931 -0.1683
  374MOL0     H49367   6.308   4.874   4.408  0.0004 -0.6356 -2.0945
  374MOL0     H49368   6.086   4.896   4.359 -0.3716  1.6396  4.0576
  375MOL0     O49369   6.121   8.742   0.954 -0.6667 -0.1322  0.4400
  375MOL0     C49370   6.190   8.655   1.005  0.2980  0.4224 -0.6200
  375MOL0     O49371   6.141   8.549   1.093 -1.0206 -0.2913  0.2684
  375MOL0     C49372   6.012   8.554   1.148  0.5213  0.8381 -1.1238
  375MOL0     C49373   5.994   8.494   1.273  0.5754  0.1841  0.6616
  375MOL0     C49374   5.863   8.474   1.330  0.8109 -0.5309  0.8284
  375MOL0     C49375   5.754   8.518   1.263 -0.9788 -0.2128 -0.1841
  375MOL0     O49376   5.638   8.502   1.326  0.0538  0.3639 -0.9541
  375MOL0     C49377   5.524   8.479   1.247 -0.3700  0.3021 -0.9355
  375MOL0     C49378   5.422   8.412   1.330  0.9102  0.6492  0.8094
  375MOL0     C49379   5.300   8.387   1.250  0.1048 -0.4310 -0.8904
  375MOL0     C49380   5.196   8.295   1.314 -0.1074  0.5271  0.0591
  375MOL0     C49381   5.089   8.258   1.207 -0.8145  0.5236  0.1668
  375MOL0     C49382   4.965   8.201   1.268  0.0322 -0.1204  0.4953
  375MOL0     C49383   4.872   8.144   1.164 -0.9057 -0.1563 -0.5010
  375MOL0     C49384   4.741   8.102   1.239 -0.0346  0.2778 -0.6212
  375MOL0     N49385   4.628   8.073   1.145  0.6347  0.3732  0.5394
  375MOL0     C49386   4.585   7.945   1.119 -0.1028  0.1510  0.1013
  375MOL0     C49387   4.469   7.971   1.043  0.9087  0.5224  0.0805
  375MOL0     C49388   4.391   7.863   0.985 -0.9086  0.4125  0.3590
  375MOL0     C49389   4.238   7.872   0.995 -0.4257 -0.0888 -0.1381
  375MOL0     C49390   4.195   7.731   0.987  0.1665  0.8343  0.0524
  375MOL0     C49391   4.037   7.716   0.981 -0.2002  0.4383  0.5278
  375MOL0     O49392   3.987   7.718   0.849  0.2647 -0.6859  0.2206
  375MOL0     C49393   3.860   7.765   0.831 -0.3481  0.4502 -0.5841
  375MOL0     C49394   3.806   7.881   0.896  1.1403  1.1949  0.2430
  375MOL0     C49395   3.670   7.909   0.895  0.1563 -0.5601 -0.3860
  375MOL0     C49396   3.584   7.833   0.819  0.1583  1.4961 -0.2391
  375MOL0     C49397   3.438   7.864   0.814  0.0477  0.3142  0.1541
  375MOL0     O49398   3.382   7.903   0.933  0.7197  0.2655 -0.3403
  375MOL0     C49399   3.268   7.969   0.944  0.8092  0.5307 -0.4997
  375MOL0     C49400   3.143   7.921   0.899 -0.2095  0.0867  0.4240
  375MOL0     C49401   3.028   7.994   0.925 -0.9700 -0.0711  0.4197
  375MOL0     C49402   3.036   8.125   0.991 -0.0890  1.0162 -0.6521
  375MOL0     O49403   2.929   8.207   1.012  0.2221 -0.1527  0.1891
  375MOL0     C49404   2.798   8.156   0.987 -0.0894  0.5180  0.2132
  375MOL0     C49405   2.698   8.263   1.022  1.0435  0.7077 -0.2040
  375MOL0     C49406   2.562   8.197   1.039 -0.0211 -0.0637  1.0987
  375MOL0     C49407   2.484   8.172   0.908 -1.2370  0.4911  0.1476
  375MOL0     C49408   2.341   8.116   0.939 -0.7552 -0.3903 -0.3352
  375MOL0     C49409   2.275   8.060   0.820  0.1947  0.4819 -0.3398
  375MOL0     C49410   2.282   8.137   0.690  0.0283  0.8005  1.1010
  375MOL0     C49411   2.210   8.063   0.587 -0.6060  0.3452  0.0460
  375MOL0    Cl49412   2.246   8.148   0.432  0.0120  0.8683  0.4706
  375MOL0     C49413   3.159   8.157   1.049 -0.7842  0.2604 -0.8038
  375MOL0     C49414   3.275   8.085   1.028  0.1035  0.6070 -0.4568
  375MOL0     O49415   3.378   7.859   0.705  0.7207 -0.0062 -0.3295
  375MOL0     C49416   3.638   7.722   0.748 -0.4881  0.1007 -0.8198
  375MOL0     C49417   3.771   7.685   0.753  0.0304 -0.6076  0.1288
  375MOL0     N49418   4.441   8.105   1.038 -0.5315 -0.4269  0.0753
  375MOL0     N49419   4.538   8.164   1.108 -0.3110  0.2573  0.2735
  375MOL0     C49420   5.772   8.599   1.152  0.2786  0.0948 -0.4037
  375MOL0     C49421   5.904   8.621   1.099  0.0755  0.8940 -0.6704
  375MOL0     C49422   6.325   8.637   0.967 -0.5171  0.2252  0.0347
  375MOL0     C49423   6.375   8.718   0.859 -0.0758  0.1072 -0.9300
  375MOL0     C49424   6.514   8.708   0.827 -0.0453  0.2843  0.3511
  375MOL0     C49425   6.597   8.612   0.882 -0.7426  0.0696  0.5492
  375MOL0     O49426   6.730   8.593   0.850 -0.3975 -0.1083  0.3980
  375MOL0     C49427   6.764   8.628   0.713  0.2920  0.4395 -0.6619
  375MOL0     C49428   6.875   8.542   0.659  0.5303  0.4759 -0.0053
  375MOL0     C49429   6.910   8.607   0.520  0.6649  0.1114 -0.2717
  375MOL0     C49430   7.011   8.514   0.464 -0.4556  0.0785  0.5584
  375MOL0     C49431   6.959   8.386   0.422  0.8445  1.0149 -0.7036
  375MOL0     C49432   6.911   8.290   0.366  0.1420  0.2237  0.0265
  375MOL0     C49433   6.544   8.531   0.989  0.6976 -0.6205  0.3776
  375MOL0     C49434   6.410   8.543   1.027  0.0644  0.4203 -0.3510
  375MOL0     H49435   6.077   8.458   1.333 -1.2046 -1.7306  2.1019
  375MOL0     H49436   5.856   8.412   1.419  3.4932 -1.4317  0.4738
  375MOL0     H49437   5.554   8.414   1.164  0.7672  0.7078 -0.8618
  375MOL0     H49438   5.475   8.566   1.204 -0.0567  0.0554 -1.8202
  375MOL0     H49439   5.402   8.467   1.423 -0.5130 -1.6916  1.9854
  375MOL0     H49440   5.452   8.314   1.367 -2.4243 -1.6484 -1.9410
  375MOL0     H49441   5.344   8.331   1.167 -0.1312  0.2682 -1.5014
  375MOL0     H49442   5.256   8.485   1.227  0.4486  0.9450  3.3269
  375MOL0     H49443   5.224   8.193   1.344 -0.7634  0.3848  0.2095
  375MOL0     H49444   5.145   8.347   1.395  0.2000  0.5485  0.2398
  375MOL0     H49445   5.134   8.181   1.143  0.3417  1.1089  0.2462
  375MOL0     H49446   5.063   8.346   1.148 -0.9580  0.7632  0.5847
  375MOL0     H49447   4.915   8.288   1.311 -1.8555 -0.8105 -0.2082
  375MOL0     H49448   4.984   8.119   1.338 -1.5907 -0.4775  0.5567
  375MOL0     H49449   4.858   8.223   1.091 -0.6463  0.6898  0.3447
  375MOL0     H49450   4.919   8.064   1.105  1.9741  0.6844  0.4840
  375MOL0     H49451   4.713   8.184   1.305 -3.1954 -2.1283  1.3191
  375MOL0     H49452   4.768   8.016   1.300  2.2647  2.4904  1.7628
  375MOL0     H49453   4.644   7.861   1.155 -0.1170  1.7849  4.7034
  375MOL0     H49454   4.428   7.769   1.028 -1.6863 -0.5309 -0.9474
  375MOL0     H49455   4.419   7.846   0.881 -0.5069  0.3979  0.4676
  375MOL0     H49456   4.200   7.934   0.913  1.0485  0.8408 -0.1487
  375MOL0     H49457   4.208   7.909   1.094 -0.5100  2.9196 -1.1724
  375MOL0     H49458   4.231   7.684   0.895  0.8988  0.4056  0.5505
  375MOL0     H49459   4.233   7.677   1.074 -0.2172 -1.6489 -1.2280
  375MOL0     H49460   3.992   7.785   1.054  1.4991  1.8345  0.3114
  375MOL0     H49461   4.014   7.614   1.016 -1.0019  0.0311 -1.1070
  375MOL0     H49462   3.854   7.949   0.965  1.0101  0.0280  1.5212
  375MOL0     H49463   3.624   7.997   0.940 -3.7837 -1.7411 -1.7207
  375MOL0     H49464   3.148   7.829   0.842 -1.5081  0.2947 -0.0551
  375MOL0     H49465   2.931   7.957   0.892 -0.4482  0.5452 -1.9913
  375MOL0     H49466   2.791   8.064   1.047 -0.0918  0.0525 -0.4898
  375MOL0     H49467   2.786   8.133   0.881  0.6231  1.9011 -0.1855
  375MOL0     H49468   2.706   8.343   0.948  1.9310  0.7854 -0.0407
  375MOL0     H49469   2.718   8.306   1.120  1.6512  0.9123 -0.4107
  375MOL0     H49470   2.492   8.268   1.083  0.8084  0.9605  0.7889
  375MOL0     H49471   2.568   8.110   1.105 -1.3251 -2.8984 -2.1594
  375MOL0     H49472   2.466   8.261   0.846 -0.4823  0.2927 -0.3725
  375MOL0     H49473   2.542   8.102   0.848 -4.4173 -0.6829 -1.7389
  375MOL0     H49474   2.276   8.191   0.984  3.2838  3.8777 -0.8185
  375MOL0     H49475   2.355   8.044   1.020  2.0198  2.4751  1.9676
  375MOL0     H49476   2.174   8.033   0.850  0.0654  1.7442  0.4306
  375MOL0     H49477   2.319   7.961   0.801  0.0964  0.3194  0.2697
  375MOL0     H49478   2.237   8.237   0.688  1.2256  1.3686  1.1461
  375MOL0     H49479   2.386   8.148   0.658 -0.0221 -1.7856 -0.1776
  375MOL0     H49480   2.107   8.074   0.624  1.3313  3.5728  5.6718
  375MOL0     H49481   2.230   7.956   0.582 -0.5469  0.3372  0.4830
  375MOL0     H49482   3.160   8.251   1.103 -1.9409  0.5939 -1.3458
  375MOL0     H49483   3.372   8.108   1.070  0.7616 -0.2962 -1.4285
  375MOL0     H49484   3.578   7.666   0.677 -0.6950 -0.0221 -0.5510
  375MOL0     H49485   3.798   7.596   0.696 -2.8262 -2.1616  1.0010
  375MOL0     H49486   5.697   8.659   1.102  0.3180  2.3816  2.0520
  375MOL0     H49487   5.921   8.688   1.015  1.7887 -0.0211 -1.1008
  375MOL0     H49488   6.316   8.778   0.791  1.8543 -0.2755 -3.0936
  375MOL0     H49489   6.540   8.775   0.745  1.1797  1.0536  1.3485
  375MOL0     H49490   6.795   8.733   0.716  2.8305 -0.2438 -0.9468
  375MOL0     H49491   6.679   8.619   0.645  0.0087  1.9293 -0.5465
  375MOL0     H49492   6.965   8.544   0.722  1.4275 -1.2173 -1.1444
  375MOL0     H49493   6.837   8.440   0.657 -1.6275  1.1278  2.5978
  375MOL0     H49494   6.948   8.710   0.527  0.3519  0.5039 -3.2562
  375MOL0     H49495   6.824   8.602   0.453  1.1299  2.7282 -1.1835
  375MOL0     H49496   7.055   8.555   0.373 -0.3611 -2.3857 -0.5949
  375MOL0     H49497   7.087   8.486   0.537  0.8091 -3.5189 -1.8553
  375MOL0     H49498   6.871   8.206   0.312  0.0296 -0.1548  0.6897
  375MOL0     H49499   6.615   8.459   1.027 -1.0033 -1.4559  2.1227
  375MOL0     H49500   6.362   8.482   1.103 -0.0949  0.1561 -0.6589
  376MOL0     O49501  11.264   8.258  10.641  0.6026 -0.3421 -0.4091
  376MOL0     C49502  11.298   8.283  10.762  1.3752  0.5081  0.3641
  376MOL0     O49503  11.203   8.293  10.871 -0.7256  0.3730 -0.6346
  376MOL0     C49504  11.071   8.282  10.849  1.0182 -0.1078 -0.3460
  376MOL0     C49505  10.998   8.167  10.820 -0.4099  0.1280  0.2210
  376MOL0     C49506  10.855   8.169  10.800 -0.3798 -0.4179  0.5648
  376MOL0     C49507  10.783   8.285  10.827 -0.1559  0.4597 -0.1944
  376MOL0     O49508  10.644   8.299  10.806  0.0386 -0.3275 -0.5053
  376MOL0     C49509  10.567   8.172  10.807  0.1262  0.5894 -0.0432
  376MOL0     C49510  10.419   8.193  10.776  0.9083  0.5131  0.0519
  376MOL0     C49511  10.347   8.297  10.865 -0.3692  0.0982  0.7242
  376MOL0     C49512  10.199   8.312  10.825 -0.4816 -0.3057  0.0278
  376MOL0     C49513  10.119   8.418  10.905  0.4826 -0.1662 -0.5863
  376MOL0     C49514   9.971   8.394  10.898  0.1958  0.1364 -0.0445
  376MOL0     C49515   9.885   8.503  10.963  0.4410 -0.3785  0.3581
  376MOL0     C49516   9.735   8.495  10.926  0.6244 -0.7685  0.7498
  376MOL0     N49517   9.670   8.617  10.978  0.7508 -0.0673  0.2698
  376MOL0     C49518   9.615   8.639  11.104  0.3309  1.3747 -0.4542
  376MOL0     C49519   9.561   8.764  11.094 -0.4595  0.0116 -0.0688
  376MOL0     C49520   9.484   8.836  11.203 -0.2166  0.1405  0.8266
  376MOL0     C49521   9.340   8.777  11.198 -0.2621  0.0844 -0.4905
  376MOL0     C49522   9.255   8.830  11.306  0.1426  0.3178  0.6025
  376MOL0     C49523   9.257   8.985  11.343 -0.4586 -0.6873 -0.0656
  376MOL0     O49524   9.173   9.069  11.266  0.6901 -0.0630  0.6738
  376MOL0     C49525   9.034   9.084  11.292 -0.3863  0.3188  0.3961
  376MOL0     C49526   8.960   9.022  11.389  0.5327 -0.7985  0.5503
  376MOL0     C49527   8.821   9.030  11.397 -0.7524  1.0626  0.0498
  376MOL0     C49528   8.754   9.112  11.303  0.2445 -0.2070 -0.1896
  376MOL0     C49529   8.611   9.143  11.327 -0.9684  0.3596 -0.4356
  376MOL0     O49530   8.569   9.096  11.450 -0.2399 -0.0293  0.2624
  376MOL0     C49531   8.445   9.121  11.502 -0.4875  0.0145  0.1057
  376MOL0     C49532   8.385   9.021  11.577 -0.1512  0.7747 -0.6143
  376MOL0     C49533   8.257   9.053  11.634 -0.7772  0.0633 -0.0402
  376MOL0     C49534   8.193   9.175  11.613  0.6123  0.2270 -0.0180
  376MOL0     O49535   8.079   9.219  11.676 -0.2555  0.3785 -0.5933
  376MOL0     C49536   8.009   9.126  11.762 -1.2294  0.4736  1.1298
  376MOL0     C49537   7.902   9.206  11.837  0.2527  0.1043 -0.4670
  376MOL0     C49538   7.795   9.239  11.739  0.1654 -0.7221 -0.7734
  376MOL0     C49539   7.661   9.283  11.800 -0.0561  0.1983 -0.4943
  376MOL0     C49540   7.635   9.427  11.758 -0.1595 -0.1160  0.6325
  376MOL0     C49541   7.530   9.515  11.820 -0.8333  0.8329 -0.0149
  376MOL0     C49542   7.407   9.431  11.846 -0.1003 -0.0984 -0.4212
  376MOL0     C49543   7.328   9.417  11.714 -0.5110  1.0736 -0.4348
  376MOL0    Cl49544   7.270   9.583  11.660  0.8890 -0.0028  0.2032
  376MOL0     C49545   8.260   9.273  11.538 -0.0125 -0.3847 -0.8119
  376MOL0     C49546   8.382   9.246  11.477 -0.4522 -0.1443  1.0352
  376MOL0     O49547   8.549   9.191  11.231  0.7243  0.1104 -0.0341
  376MOL0     C49548   8.825   9.180  11.203  0.9384  0.0007  0.4998
  376MOL0     C49549   8.964   9.158  11.196  0.3751 -0.0568  0.1445
  376MOL0     N49550   9.580   8.808  10.963  0.2682  0.8495  0.7698
  376MOL0     N49551   9.659   8.731  10.898  0.4739 -0.4460 -0.1142
  376MOL0     C49552  10.864   8.396  10.857 -0.1322 -0.2187 -0.2470
  376MOL0     C49553  11.000   8.396  10.868 -0.5184  0.2493  0.4195
  376MOL0     C49554  11.440   8.312  10.790  0.1971 -0.6096  0.2735
  376MOL0     C49555  11.537   8.296  10.695  0.7580  0.7960 -0.7697
  376MOL0     C49556  11.668   8.304  10.728 -0.0686  0.0672 -0.4118
  376MOL0     C49557  11.706   8.348  10.856 -0.3030 -0.3086  0.2454
  376MOL0     O49558  11.838   8.370  10.860 -0.2576  0.2735  0.1518
  376MOL0     C49559  11.897   8.361  10.987 -0.2715  0.0186 -0.3033
  376MOL0     C49560  12.053   8.352  10.967  0.2789 -0.0510 -0.3510
  376MOL0     C49561  12.108   8.205  10.951 -0.3343 -0.7590 -1.2657
  376MOL0     C49562  12.054   8.135  10.831  0.6026  0.1755  0.0050
  376MOL0     C49563  12.102   8.197  10.712 -0.2145 -0.8752  1.3002
  376MOL0     C49564  12.147   8.249  10.615 -0.4593 -0.1269  0.5573
  376MOL0     C49565  11.612   8.361  10.949 -0.0656 -0.0633 -0.5183
  376MOL0     C49566  11.478   8.337  10.921  0.4774 -0.5086 -0.2813
  376MOL0     H49567  11.035   8.067  10.798 -0.6205 -0.4845  2.4088
  376MOL0     H49568  10.802   8.081  10.764  0.4784 -0.6096 -0.2530
  376MOL0     H49569  10.572   8.126  10.906 -2.5498  1.0691  0.3724
  376MOL0     H49570  10.610   8.094  10.743 -0.6649  1.1618 -1.2967
  376MOL0     H49571  10.359   8.101  10.774 -3.1287  2.9050  0.5910
  376MOL0     H49572  10.412   8.231  10.673 -0.8793 -2.5209 -1.0970
  376MOL0     H49573  10.405   8.389  10.852 -0.3955  0.3445  2.1892
  376MOL0     H49574  10.346   8.280  10.973 -0.5637 -1.1457  0.5377
  376MOL0     H49575  10.176   8.329  10.719 -1.2689  4.3561  0.7327
  376MOL0     H49576  10.158   8.212  10.838 -0.4405 -0.5412 -1.4372
  376MOL0     H49577  10.146   8.518  10.869  0.0411  1.5882  3.3958
  376MOL0     H49578  10.147   8.427  11.010 -2.5716  2.5822  0.1922
  376MOL0     H49579   9.931   8.303  10.944 -1.5768  1.6496  1.6140
  376MOL0     H49580   9.942   8.401  10.792 -2.6069  0.6064  0.6646
  376MOL0     H49581   9.902   8.516  11.070  3.8636 -0.5473 -0.0316
  376MOL0     H49582   9.916   8.600  10.921 -0.0326 -0.8699 -1.1881
  376MOL0     H49583   9.694   8.405  10.973 -1.3749 -0.1395  0.3084
  376MOL0     H49584   9.723   8.479  10.819 -2.3501 -0.5309  0.9755
  376MOL0     H49585   9.616   8.575  11.191  1.6047  1.9608 -0.0220
  376MOL0     H49586   9.476   8.941  11.174  0.2152 -0.2576 -0.8763
  376MOL0     H49587   9.525   8.833  11.304  3.0688  0.5490 -0.3798
  376MOL0     H49588   9.337   8.668  11.210 -0.4705  0.1698  0.3351
  376MOL0     H49589   9.302   8.806  11.100 -0.6797 -0.3120 -0.4496
  376MOL0     H49590   9.152   8.814  11.272  0.8925  0.0852 -1.7328
  376MOL0     H49591   9.268   8.776  11.400  0.3940 -0.4139  0.1569
  376MOL0     H49592   9.358   9.024  11.327 -0.0916 -0.1173  2.9482
  376MOL0     H49593   9.231   8.989  11.450 -1.1843  0.8538 -0.2820
  376MOL0     H49594   9.012   8.955  11.457 -1.7333 -2.1597  1.0551
  376MOL0     H49595   8.783   8.970  11.479 -0.1897 -3.1817 -2.5022
  376MOL0     H49596   8.439   8.931  11.603 -1.4163 -0.0561 -0.7265
  376MOL0     H49597   8.204   8.977  11.690 -0.8159  1.5950  2.1142
  376MOL0     H49598   8.086   9.088  11.830  1.5992  0.0886 -2.0071
  376MOL0     H49599   7.982   9.033  11.711  1.9578 -0.1474  0.3320
  376MOL0     H49600   7.942   9.289  11.897 -1.1140 -1.4678  2.8952
  376MOL0     H49601   7.860   9.144  11.918 -4.0845  2.5762 -0.4915
  376MOL0     H49602   7.780   9.156  11.669 -1.2015  0.5690 -2.0984
  376MOL0     H49603   7.835   9.314  11.670 -0.3887 -0.1840 -0.5147
  376MOL0     H49604   7.573   9.233  11.759 -1.1552  0.8803  0.9228
  376MOL0     H49605   7.659   9.271  11.908  1.1190  1.1267 -0.3404
  376MOL0     H49606   7.618   9.428  11.650  0.6825  0.5594  0.4943
  376MOL0     H49607   7.730   9.479  11.776 -0.3528  0.6417 -0.4434
  376MOL0     H49608   7.511   9.599  11.753  0.1669  2.8717  2.1325
  376MOL0     H49609   7.567   9.555  11.915 -0.7212 -1.0519  0.7779
  376MOL0     H49610   7.429   9.331  11.885  0.5615 -0.1619 -0.9267
  376MOL0     H49611   7.345   9.486  11.918 -2.5752 -0.8976 -1.7988
  376MOL0     H49612   7.253   9.339  11.728  1.0062 -0.6565 -1.5366
  376MOL0     H49613   7.406   9.391  11.641  1.1135  1.9757  0.9014
  376MOL0     H49614   8.217   9.372  11.531 -1.1994 -0.8947 -1.0589
  376MOL0     H49615   8.428   9.326  11.421  0.2193 -0.5590  0.9852
  376MOL0     H49616   8.774   9.245  11.133  0.7520  0.9047  1.4426
  376MOL0     H49617   9.024   9.206  11.120  1.1779 -2.3742 -0.7616
  376MOL0     H49618  10.816   8.492  10.879 -3.2149 -0.7193 -3.7584
  376MOL0     H49619  11.054   8.485  10.898 -1.0343 -0.2023  2.8532
  376MOL0     H49620  11.513   8.266  10.593 -1.2478 -1.5338  0.2931
  376MOL0     H49621  11.735   8.285  10.645  0.7204  0.1109  0.2067
  376MOL0     H49622  11.859   8.276  11.045 -3.2521  1.6851  0.4197
  376MOL0     H49623  11.872   8.446  11.052 -2.3547 -0.4325 -0.4505
  376MOL0     H49624  12.080   8.413  10.880  0.6998 -0.3610 -0.4418
  376MOL0     H49625  12.095   8.421  11.040 -2.3675  0.7967  0.5038
  376MOL0     H49626  12.068   8.150  11.037 -1.6955 -1.0542 -2.0525
  376MOL0     H49627  12.217   8.212  10.951 -0.2390 -1.6969  0.3168
  376MOL0     H49628  12.087   8.030  10.825  1.4975  0.5018 -0.9773
  376MOL0     H49629  11.944   8.132  10.830  0.5830 -2.9363 -0.3451
  376MOL0     H49630  12.170   8.311  10.531 -1.4950 -2.5441 -1.6667
  376MOL0     H49631  11.636   8.386  11.052  0.8770  3.0246 -1.4043
  376MOL0     H49632  11.406   8.330  11.002 -0.7351 -1.9066 -1.4156
  377MOL0     O49633   2.084   5.120   5.139  1.1262  0.2049  0.2295
  377MOL0     C49634   2.121   5.079   5.029 -0.7163 -0.0245 -0.4172
  377MOL0     O49635   2.056   5.076   4.913 -0.7216 -0.2854  0.2258
  377MOL0     C49636   1.927   5.130   4.909  0.0252  0.6289  0.1739
  377MOL0     C49637   1.817   5.090   4.990  0.4718  0.4958  1.1482
  377MOL0     C49638   1.697   5.152   4.971  0.6827 -0.7596  0.1079
  377MOL0     C49639   1.675   5.245   4.871 -0.5889  0.1051  0.0174
  377MOL0     O49640   1.555   5.307   4.832  0.1228  0.2625  0.2546
  377MOL0     C49641   1.445   5.295   4.930 -0.3627 -1.0160 -0.3719
  377MOL0     C49642   1.327   5.387   4.885 -0.5479  0.0171  0.2551
  377MOL0     C49643   1.255   5.311   4.780  0.7363  0.7443  0.2266
  377MOL0     C49644   1.111   5.371   4.751  0.5432  0.2223 -0.1727
  377MOL0     C49645   1.120   5.513   4.714 -0.4009  0.2021  0.2439
  377MOL0     C49646   0.992   5.575   4.662  0.4021 -0.7070  0.7162
  377MOL0     C49647   0.924   5.500   4.537 -0.9051  0.0591  0.4716
  377MOL0     C49648   0.866   5.617   4.441 -0.3324  0.6334 -0.7566
  377MOL0     N49649   0.780   5.566   4.347 -0.2532  0.4651  0.7567
  377MOL0     C49650   0.663   5.631   4.304 -0.0966 -0.7573  0.3728
  377MOL0     C49651   0.597   5.548   4.224  0.7475  0.9019 -0.2637
  377MOL0     C49652   0.454   5.554   4.143 -0.7040  0.3713  0.0665
  377MOL0     C49653   0.438   5.440   4.036  0.2249 -0.9272 -1.0227
  377MOL0     C49654   0.369   5.319   4.105 -0.1704 -0.3992  1.2084
  377MOL0     C49655   0.328   5.209   4.002 -0.8173  0.1307 -0.5586
  377MOL0     O49656   0.263   5.262   3.893 -0.1467 -0.5439 -0.5246
  377MOL0     C49657   0.135   5.305   3.904  0.8332  0.7350  0.2798
  377MOL0     C49658   0.047   5.247   3.998  0.6610  0.1061 -0.3488
  377MOL0     C49659  -0.084   5.295   4.010 -0.1226  0.6385 -0.4277
  377MOL0     C49660  -0.123   5.401   3.933  0.2472 -0.2044  0.4465
  377MOL0     C49661  -0.264   5.445   3.929 -1.0382  0.0148 -0.6586
  377MOL0     O49662  -0.310   5.531   3.834 -0.1363  0.5181  0.4015
  377MOL0     C49663  -0.437   5.571   3.853 -0.1109 -0.1094 -0.6812
  377MOL0     C49664  -0.473   5.663   3.958  0.2491 -0.2390  0.4378
  377MOL0     C49665  -0.613   5.684   3.987 -0.5065  0.1583  0.2834
  377MOL0     C49666  -0.722   5.619   3.924 -1.2463  0.1519  0.3287
  377MOL0     O49667  -0.855   5.652   3.960 -1.1593  0.5120  0.0659
  377MOL0     C49668  -0.954   5.583   3.885  0.4078  0.2734 -0.8387
  377MOL0     C49669  -1.099   5.622   3.910  0.1368  0.4667  0.6846
  377MOL0     C49670  -1.146   5.578   4.046 -0.2095  0.5315 -0.1496
  377MOL0     C49671  -1.296   5.617   4.078  0.9772  0.7381  0.3275
  377MOL0     C49672  -1.392   5.525   3.983 -0.0809  0.2760 -0.4140
  377MOL0     C49673  -1.537   5.556   4.023  0.3221 -0.6051  0.3522
  377MOL0     C49674  -1.638   5.469   3.950  0.6518 -0.1859  0.1913
  377MOL0     C49675  -1.784   5.497   4.001  0.3854  0.2734  0.3035
  377MOL0    Cl49676  -1.815   5.402   4.157  0.4197 -0.7609  0.2610
  377MOL0     C49677  -0.674   5.525   3.825  0.1925  0.0389 -0.4160
  377MOL0     C49678  -0.545   5.499   3.797 -0.6021 -0.2268 -0.2748
  377MOL0     O49679  -0.329   5.409   4.030 -0.1585 -0.1634 -0.5256
  377MOL0     C49680  -0.031   5.461   3.839  0.6757  0.3854 -0.0913
  377MOL0     C49681   0.099   5.416   3.827 -0.1429  0.1457  1.0517
  377MOL0     N49682   0.671   5.427   4.219 -0.2713 -0.1182 -0.4045
  377MOL0     N49683   0.777   5.441   4.287  0.0710  0.4721 -0.0347
  377MOL0     C49684   1.779   5.281   4.780  0.0110 -0.4873 -0.0704
  377MOL0     C49685   1.901   5.218   4.801 -0.1004  0.2703  0.2254
  377MOL0     C49686   2.264   5.034   5.031  0.3366  0.0110  0.6620
  377MOL0     C49687   2.335   5.035   4.900  1.4183  0.0906  0.2808
  377MOL0     C49688   2.465   5.004   4.895 -0.1343  0.3747 -0.2073
  377MOL0     C49689   2.539   4.978   5.012  0.9336 -0.2723  0.2245
  377MOL0     O49690   2.675   4.949   5.011  0.0098  0.0904 -1.2879
  377MOL0     C49691   2.761   4.978   4.894  1.0566  0.2531 -0.5038
  377MOL0     C49692   2.905   4.936   4.925  0.7529  0.0546 -0.7308
  377MOL0     C49693   3.014   4.950   4.817  0.3828  1.0383  0.1824
  377MOL0     C49694   3.144   4.864   4.862  0.1964  0.4706  0.7199
  377MOL0     C49695   3.221   4.927   4.971  0.1011 -0.3254  0.4156
  377MOL0     C49696   3.277   4.971   5.069  0.1125 -0.1237 -0.1034
  377MOL0     C49697   2.475   4.976   5.131  0.1434 -0.2948  0.3259
  377MOL0     C49698   2.336   5.006   5.144  0.8263  0.0167  0.0949
  377MOL0     H49699   1.843   5.034   5.079  2.7689  1.5435  1.2119
  377MOL0     H49700   1.618   5.117   5.038 -0.6325 -1.2368 -1.6065
  377MOL0     H49701   1.475   5.329   5.029 -1.3461 -1.9011  0.2512
  377MOL0     H49702   1.419   5.189   4.942  1.5804 -1.2627  2.5932
  377MOL0     H49703   1.376   5.477   4.847  0.0654 -0.2347  0.4487
  377MOL0     H49704   1.263   5.411   4.970  0.9831 -0.4958  1.6029
  377MOL0     H49705   1.249   5.206   4.810  2.5102  0.8358  1.0147
  377MOL0     H49706   1.303   5.308   4.682  1.7127 -0.3706  0.7128
  377MOL0     H49707   1.069   5.306   4.674 -0.7084 -0.5461  1.1066
  377MOL0     H49708   1.045   5.360   4.838  2.4524 -0.9672  1.2184
  377MOL0     H49709   1.202   5.520   4.642 -0.7138  2.4094  0.0333
  377MOL0     H49710   1.152   5.570   4.801 -1.0948 -0.1211  0.7152
  377MOL0     H49711   1.015   5.680   4.643 -1.0125 -0.5974 -0.5580
  377MOL0     H49712   0.919   5.573   4.743 -0.9714  1.3745 -0.3884
  377MOL0     H49713   0.998   5.444   4.478 -2.1064 -0.6154 -0.4536
  377MOL0     H49714   0.849   5.428   4.572 -1.9051  1.1174  0.5475
  377MOL0     H49715   0.959   5.664   4.407  1.5524 -2.4683 -0.2238
  377MOL0     H49716   0.817   5.693   4.503  1.2183 -0.4044  1.9031
  377MOL0     H49717   0.639   5.729   4.343 -0.2034 -0.9893  0.9048
  377MOL0     H49718   0.435   5.654   4.102 -0.1374  0.2500 -0.5082
  377MOL0     H49719   0.367   5.538   4.208  0.0988 -2.2914  0.6068
  377MOL0     H49720   0.541   5.422   4.005  1.2129 -1.9457  2.3731
  377MOL0     H49721   0.380   5.472   3.949  2.7933 -0.5166 -2.6964
  377MOL0     H49722   0.434   5.275   4.181  0.9119 -0.6898  0.1484
  377MOL0     H49723   0.277   5.352   4.156 -2.2257  1.3446 -3.0884
  377MOL0     H49724   0.283   5.126   4.057 -0.3871 -0.9219 -1.7276
  377MOL0     H49725   0.426   5.176   3.965 -1.3126 -0.1069 -1.6971
  377MOL0     H49726   0.082   5.162   4.056  0.7870  0.3618 -0.0490
  377MOL0     H49727  -0.142   5.247   4.088  0.1451 -0.6862 -1.0266
  377MOL0     H49728  -0.408   5.715   4.027 -3.2929 -1.0095  4.8644
  377MOL0     H49729  -0.622   5.751   4.073  1.3930  0.2511  0.4613
  377MOL0     H49730  -0.953   5.475   3.898  0.9193  0.4096  0.4371
  377MOL0     H49731  -0.931   5.612   3.782  1.4993  2.8544  0.0463
  377MOL0     H49732  -1.155   5.564   3.837  2.1286  2.0372 -2.3369
  377MOL0     H49733  -1.114   5.730   3.898 -1.0739  0.4528  1.8678
  377MOL0     H49734  -1.086   5.623   4.126  1.3976  0.4677 -1.2587
  377MOL0     H49735  -1.143   5.469   4.054  1.5761  0.6754  2.7742
  377MOL0     H49736  -1.319   5.584   4.179 -1.4880  2.5058  0.4301
  377MOL0     H49737  -1.311   5.724   4.060  3.1339  1.3875  1.9517
  377MOL0     H49738  -1.370   5.419   3.996  0.6264  0.2127 -1.8792
  377MOL0     H49739  -1.372   5.561   3.881  1.0324 -0.1537 -0.3625
  377MOL0     H49740  -1.557   5.659   3.993  0.3597 -0.2814  1.3908
  377MOL0     H49741  -1.556   5.540   4.130 -4.4381  2.4665  0.2599
  377MOL0     H49742  -1.639   5.494   3.843 -1.8596  0.3228  0.2585
  377MOL0     H49743  -1.613   5.364   3.963 -0.0153 -0.2805  0.7817
  377MOL0     H49744  -1.848   5.455   3.923 -0.3682  2.1803 -0.1763
  377MOL0     H49745  -1.797   5.605   4.018 -0.3278  0.2813 -0.2390
  377MOL0     H49746  -0.745   5.472   3.762  0.6709  2.8684 -3.6541
  377MOL0     H49747  -0.509   5.418   3.735  2.9444 -0.8521  2.2616
  377MOL0     H49748  -0.067   5.536   3.769  1.9439  3.1006  1.9238
  377MOL0     H49749   0.169   5.463   3.759 -0.6147 -1.7037 -0.8171
  377MOL0     H49750   1.759   5.356   4.705 -1.5906  0.4813  1.2349
  377MOL0     H49751   1.991   5.239   4.744 -0.0341 -0.7228 -0.0646
  377MOL0     H49752   2.285   5.062   4.808 -0.5518 -3.6196  0.0967
  377MOL0     H49753   2.513   5.004   4.797  2.4851  0.1527  0.9904
  377MOL0     H49754   2.753   5.082   4.859 -0.8446 -0.0682 -1.1325
  377MOL0     H49755   2.725   4.920   4.809  3.1176 -1.9347  0.0110
  377MOL0     H49756   2.951   4.987   5.010 -3.9096  2.0328  0.9105
  377MOL0     H49757   2.892   4.832   4.956 -0.5230  0.2562 -0.5499
  377MOL0     H49758   3.040   5.055   4.800  0.1693  0.8716 -1.3188
  377MOL0     H49759   2.974   4.906   4.725 -2.1590  2.5033  0.4891
  377MOL0     H49760   3.113   4.765   4.899  0.4030  0.0497 -0.1885
  377MOL0     H49761   3.195   4.837   4.769 -2.1157  2.7397 -1.3583
  377MOL0     H49762   3.345   4.996   5.148 -1.0903  3.9961 -0.1447
  377MOL0     H49763   2.543   4.958   5.214  1.1561  1.0552 -0.1604
  377MOL0     H49764   2.297   5.014   5.245 -0.2844  2.6958 -0.4636
  378MOL0     O49765   8.778   0.598   3.977 -0.4589 -0.5103 -0.5729
  378MOL0     C49766   8.799   0.517   4.068  0.4128 -0.4211  1.1430
  378MOL0     O49767   8.726   0.510   4.183  0.5167 -1.1888  0.1636
  378MOL0     C49768   8.612   0.590   4.184 -0.2025 -0.2393  0.0629
  378MOL0     C49769   8.617   0.732   4.171  1.3679  0.3918 -0.8791
  378MOL0     C49770   8.501   0.811   4.157  0.1284  0.9236  0.3915
  378MOL0     C49771   8.374   0.745   4.168  0.2514  0.0437 -0.4285
  378MOL0     O49772   8.255   0.808   4.159  0.7216  0.7308 -0.6178
  378MOL0     C49773   8.228   0.943   4.115  0.4331  0.1087 -0.2819
  378MOL0     C49774   8.193   0.927   3.969  0.2636 -0.2803 -0.1690
  378MOL0     C49775   8.183   1.065   3.896 -0.3639  0.4909  0.2802
  378MOL0     C49776   8.149   1.059   3.744 -0.4202 -0.2751  0.1121
  378MOL0     C49777   7.995   1.067   3.717 -0.0007 -0.4041  0.5930
  378MOL0     C49778   7.918   1.198   3.761 -0.5997 -0.6154  0.2557
  378MOL0     C49779   7.962   1.334   3.698  0.2794 -0.7088 -0.2027
  378MOL0     C49780   8.002   1.323   3.552  0.0915  0.2489  0.4182
  378MOL0     N49781   7.892   1.311   3.457  0.1235  0.1415 -0.7315
  378MOL0     C49782   7.817   1.418   3.416 -0.2772  0.8020 -0.3903
  378MOL0     C49783   7.730   1.371   3.322 -0.1028 -0.0239  0.7546
  378MOL0     C49784   7.618   1.456   3.258 -1.0001 -0.1430  1.0280
  378MOL0     C49785   7.476   1.400   3.265 -0.2374 -0.6448  0.3088
  378MOL0     C49786   7.441   1.372   3.411 -0.3376 -0.0957 -0.4876
  378MOL0     C49787   7.300   1.306   3.420 -0.3827 -0.1255 -0.0286
  378MOL0     O49788   7.211   1.415   3.446  0.6476  0.4083 -0.4917
  378MOL0     C49789   7.082   1.390   3.499 -0.8261 -0.6158  0.5105
  378MOL0     C49790   7.005   1.274   3.492  0.2721 -0.6517 -0.4826
  378MOL0     C49791   6.879   1.264   3.546  0.4304 -0.5630 -0.4236
  378MOL0     C49792   6.821   1.373   3.603 -0.0122  0.5896  0.5364
  378MOL0     C49793   6.676   1.373   3.637  0.3160 -1.1631  0.8082
  378MOL0     O49794   6.606   1.266   3.595 -0.1782 -0.1355 -0.7792
  378MOL0     C49795   6.472   1.253   3.614 -0.0651  0.2954 -0.2212
  378MOL0     C49796   6.421   1.270   3.743  0.3032 -0.3325  0.1189
  378MOL0     C49797   6.285   1.235   3.760 -0.3232 -0.3809 -0.1962
  378MOL0     C49798   6.192   1.203   3.661  0.0323 -0.5122 -0.6868
  378MOL0     O49799   6.062   1.185   3.704  0.3028 -0.9858 -0.0581
  378MOL0     C49800   5.998   1.073   3.643 -0.1883 -0.2480 -0.1580
  378MOL0     C49801   5.880   1.013   3.726  0.7149  0.7955  0.6603
  378MOL0     C49802   5.744   1.036   3.672  0.2305 -0.6708 -0.5121
  378MOL0     C49803   5.730   1.182   3.656 -0.7603 -0.6328 -0.2239
  378MOL0     C49804   5.603   1.218   3.574 -0.6934  0.0118  0.8530
  378MOL0     C49805   5.499   1.271   3.671 -0.4047  0.0431  0.4617
  378MOL0     C49806   5.369   1.311   3.605 -0.4118  0.6466  0.4032
  378MOL0     C49807   5.291   1.211   3.522  0.1282  0.1763 -0.0736
  378MOL0    Cl49808   5.156   1.287   3.425 -0.3652 -0.4696  0.8208
  378MOL0     C49809   6.234   1.193   3.532 -0.1594 -0.4534  0.0381
  378MOL0     C49810   6.379   1.211   3.508  0.0015 -0.4955  0.4051
  378MOL0     O49811   6.626   1.469   3.695 -0.3477 -0.3766 -0.5748
  378MOL0     C49812   6.906   1.481   3.627 -0.1168 -0.1881  0.2677
  378MOL0     C49813   7.031   1.497   3.571 -0.1948 -0.3391 -0.0621
  378MOL0     N49814   7.755   1.231   3.311  0.5868 -0.2602  0.5033
  378MOL0     N49815   7.847   1.200   3.397 -0.0722 -0.0071 -0.3053
  378MOL0     C49816   8.368   0.609   4.173  0.5282  0.2531  0.3616
  378MOL0     C49817   8.482   0.530   4.190 -0.8762  0.1462 -1.1195
  378MOL0     C49818   8.935   0.447   4.074  0.4565  0.0605 -0.1721
  378MOL0     C49819   9.029   0.466   3.974  0.0534  0.2061  0.2924
  378MOL0     C49820   9.155   0.406   3.990 -1.1814 -1.0849  0.8435
  378MOL0     C49821   9.192   0.333   4.100  0.0170 -0.3823  0.3987
  378MOL0     O49822   9.318   0.281   4.096  0.4322  0.6485  0.1191
  378MOL0     C49823   9.372   0.203   4.201 -0.4400 -0.3219  0.7069
  378MOL0     C49824   9.517   0.171   4.156 -0.8925 -0.2185 -0.3273
  378MOL0     C49825   9.614   0.288   4.164 -0.2780  0.4557 -0.0694
  378MOL0     C49826   9.734   0.262   4.076  0.2104 -0.3301  0.1397
  378MOL0     C49827   9.813   0.156   4.132  0.7070  0.5114 -0.5175
  378MOL0     C49828   9.878   0.060   4.177  0.0423 -0.1318  0.7544
  378MOL0     C49829   9.096   0.319   4.197 -0.3057 -0.0783  0.2369
  378MOL0     C49830   8.969   0.369   4.190  0.3569 -1.1923  0.4330
  378MOL0     H49831   8.706   0.778   4.130 -0.7175  3.0994 -2.7190
  378MOL0     H49832   8.505   0.910   4.111 -1.2232  0.1465 -1.5059
  378MOL0     H49833   8.318   1.003   4.132 -0.6674  1.7629 -0.0763
  378MOL0     H49834   8.141   0.989   4.163 -1.8623 -2.7632 -1.3851
  378MOL0     H49835   8.093   0.882   3.963  0.4536 -1.6092  3.7283
  378MOL0     H49836   8.273   0.873   3.918  1.2190  0.4270  0.5290
  378MOL0     H49837   8.283   1.109   3.904  1.5542 -2.9296 -2.1202
  378MOL0     H49838   8.112   1.127   3.952 -0.8703  1.8844 -1.7846
  378MOL0     H49839   8.198   1.142   3.693 -0.9148  0.4082  0.7355
  378MOL0     H49840   8.182   0.964   3.700  1.1134  0.7625 -1.0611
  378MOL0     H49841   7.941   0.987   3.768 -0.4261 -2.0712 -2.3150
  378MOL0     H49842   7.970   1.053   3.612  1.5461 -0.8902  0.2631
  378MOL0     H49843   7.933   1.201   3.869  0.2481 -0.2618  0.1375
  378MOL0     H49844   7.812   1.182   3.740  0.1903 -2.0604 -3.2766
  378MOL0     H49845   7.884   1.409   3.701  0.9839  0.0276  0.2182
  378MOL0     H49846   8.050   1.372   3.751  1.2280 -2.1054 -0.7084
  378MOL0     H49847   8.069   1.238   3.531  2.2262  1.7546  0.7846
  378MOL0     H49848   8.054   1.413   3.518  2.8922 -0.0819  3.3563
  378MOL0     H49849   7.819   1.518   3.460  0.4666  1.3167 -1.5632
  378MOL0     H49850   7.643   1.463   3.152 -1.0125 -0.3463  1.0110
  378MOL0     H49851   7.618   1.555   3.305 -1.7198 -0.3574  1.5070
  378MOL0     H49852   7.477   1.312   3.200  0.2294 -0.4734  0.0775
  378MOL0     H49853   7.414   1.478   3.219 -0.0346 -2.0339 -2.5544
  378MOL0     H49854   7.516   1.305   3.454 -0.3172  0.7263  0.8398
  378MOL0     H49855   7.440   1.456   3.481 -0.6228  0.4129 -1.0946
  378MOL0     H49856   7.294   1.234   3.503 -2.7161 -1.1493 -0.9935
  378MOL0     H49857   7.273   1.244   3.334 -1.2458 -3.2696  2.3086
  378MOL0     H49858   7.052   1.198   3.430  0.1171  0.5274 -2.1306
  378MOL0     H49859   6.827   1.170   3.529 -1.7181  0.4467  0.1040
  378MOL0     H49860   6.483   1.300   3.827  0.4392  2.0342 -0.7478
  378MOL0     H49861   6.256   1.253   3.863 -0.6247 -1.5715 -0.0576
  378MOL0     H49862   6.074   0.995   3.630 -0.4392 -0.3482 -1.0490
  378MOL0     H49863   5.975   1.091   3.538  0.5420  1.4594 -0.0461
  378MOL0     H49864   5.865   1.064   3.822 -0.6098  0.0105  0.9034
  378MOL0     H49865   5.896   0.905   3.740  0.8062  0.1277 -3.3827
  378MOL0     H49866   5.667   0.984   3.730  0.2827 -3.1986 -2.5008
  378MOL0     H49867   5.747   0.984   3.575 -0.1646  0.0755 -0.9372
  378MOL0     H49868   5.733   1.234   3.753 -1.3052  0.2072 -0.6506
  378MOL0     H49869   5.814   1.223   3.598  1.4391 -2.4037  1.4797
  378MOL0     H49870   5.575   1.131   3.515  1.3083  0.8820 -1.5624
  378MOL0     H49871   5.614   1.302   3.505 -1.4974  0.8655  1.7408
  378MOL0     H49872   5.536   1.351   3.736  0.5101  1.2503 -1.4685
  378MOL0     H49873   5.477   1.191   3.743 -0.4797 -0.0314  0.3580
  378MOL0     H49874   5.310   1.346   3.690  1.7526 -0.2773  2.3973
  378MOL0     H49875   5.388   1.392   3.533  4.3546 -1.9924 -1.8176
  378MOL0     H49876   5.258   1.135   3.594  2.0005  0.0438  0.7147
  378MOL0     H49877   5.360   1.167   3.449  0.5944  2.4012 -1.0402
  378MOL0     H49878   6.170   1.168   3.448 -0.1265  2.7777 -1.0822
  378MOL0     H49879   6.427   1.191   3.413 -1.5299  1.7742 -0.9574
  378MOL0     H49880   6.855   1.568   3.668 -0.0474  1.1706 -2.3647
  378MOL0     H49881   7.080   1.593   3.577 -1.1458  0.2802 -1.5186
  378MOL0     H49882   8.273   0.556   4.164  0.8206 -0.3270  0.6737
  378MOL0     H49883   8.470   0.424   4.176  1.8618 -0.2483 -1.1635
  378MOL0     H49884   9.012   0.512   3.878  0.3160  3.8441  1.8486
  378MOL0     H49885   9.230   0.408   3.912 -0.2919 -0.4448  1.7010
  378MOL0     H49886   9.311   0.114   4.219  3.1099 -2.7589  1.5719
  378MOL0     H49887   9.384   0.269   4.288 -1.1218  2.4262 -1.1617
  378MOL0     H49888   9.559   0.089   4.215  0.7969  0.2573 -0.8079
  378MOL0     H49889   9.522   0.146   4.050  2.2191  0.6468 -0.4793
  378MOL0     H49890   9.644   0.295   4.269  3.4160  2.1600 -1.0752
  378MOL0     H49891   9.573   0.384   4.129  1.5157  1.2045 -0.1940
  378MOL0     H49892   9.709   0.243   3.971 -3.2728  0.3681  0.7417
  378MOL0     H49893   9.792   0.355   4.082 -0.4322  0.1422 -0.7456
  378MOL0     H49894   9.923  -0.027   4.219  0.0185 -0.6384 -0.2258
  378MOL0     H49895   9.118   0.274   4.293  1.8745  2.1146  0.8504
  378MOL0     H49896   8.897   0.369   4.272 -0.0742 -0.0052  0.0832
  379MOL0     O49897   5.159   8.735   1.858  0.9038 -0.3195 -0.1759
  379MOL0     C49898   5.221   8.787   1.769 -0.1816  0.4586  0.0882
  379MOL0     O49899   5.174   8.786   1.637  0.2835  0.6540  0.4387
  379MOL0     C49900   5.059   8.727   1.593  0.5974  0.6881 -0.2505
  379MOL0     C49901   4.934   8.758   1.638  0.4590 -0.6798  0.0186
  379MOL0     C49902   4.827   8.707   1.570 -0.3631 -0.0642  0.3443
  379MOL0     C49903   4.837   8.635   1.447 -0.1739 -0.3077  0.2900
  379MOL0     O49904   4.724   8.593   1.381  0.9235 -0.3487 -0.1125
  379MOL0     C49905   4.595   8.568   1.440 -0.3441  0.2243  0.1886
  379MOL0     C49906   4.513   8.463   1.366  0.3339 -0.1515 -0.3599
  379MOL0     C49907   4.378   8.434   1.436 -1.0831  1.1343 -0.1860
  379MOL0     C49908   4.310   8.329   1.356 -0.9345 -0.5571  0.2693
  379MOL0     C49909   4.183   8.276   1.414 -0.3520 -0.5715 -0.3620
  379MOL0     C49910   4.125   8.157   1.334 -0.1940 -0.0354 -0.5403
  379MOL0     C49911   3.974   8.136   1.357  0.6306 -0.7907 -0.1906
  379MOL0     C49912   3.932   7.990   1.346  0.3511 -0.3631 -0.1570
  379MOL0     N49913   3.787   7.985   1.337  0.1476 -0.4733  0.2287
  379MOL0     C49914   3.691   8.050   1.424  0.8973 -1.0387 -0.0875
  379MOL0     C49915   3.567   8.014   1.363 -0.8915 -0.3212  0.0372
  379MOL0     C49916   3.434   8.049   1.414  0.6521 -0.1795 -0.9291
  379MOL0     C49917   3.359   7.933   1.467  0.3978 -0.4578 -1.0488
  379MOL0     C49918   3.226   7.980   1.538  0.3582  1.0856 -0.3196
  379MOL0     C49919   3.189   7.887   1.650 -0.5656  0.3405 -0.7667
  379MOL0     O49920   3.245   7.960   1.766  0.9010  0.2102 -0.1792
  379MOL0     C49921   3.161   8.031   1.849 -0.9341  0.0754  0.2717
  379MOL0     C49922   3.040   8.072   1.804 -0.5134 -0.3796 -0.1797
  379MOL0     C49923   2.946   8.151   1.886 -0.1422  0.0688  0.5583
  379MOL0     C49924   2.976   8.172   2.024 -0.2872 -0.3900  0.4140
  379MOL0     C49925   2.873   8.236   2.114 -0.2197 -0.2764 -0.0277
  379MOL0     O49926   2.888   8.189   2.247  0.4858  0.2748  0.0114
  379MOL0     C49927   2.780   8.202   2.333 -0.1010  0.4836  0.1294
  379MOL0     C49928   2.767   8.304   2.425 -0.0217 -0.0053 -0.5439
  379MOL0     C49929   2.656   8.307   2.521 -0.0486 -0.8233 -0.1092
  379MOL0     C49930   2.559   8.208   2.507  0.9642 -0.5009 -0.0589
  379MOL0     O49931   2.444   8.199   2.587 -0.3374  0.3585  0.0522
  379MOL0     C49932   2.490   8.154   2.719  0.9807 -0.3937  0.5365
  379MOL0     C49933   2.381   8.177   2.817 -0.5105 -0.1232 -0.2808
  379MOL0     C49934   2.255   8.098   2.777  0.4050  0.0970  0.2988
  379MOL0     C49935   2.274   7.947   2.808 -0.6609  0.2877  0.3402
  379MOL0     C49936   2.177   7.858   2.726  0.1202  0.0150  0.1910
  379MOL0     C49937   2.024   7.887   2.738  0.0396  0.4743 -0.0068
  379MOL0     C49938   1.985   7.848   2.883 -0.0857  0.8430 -0.5298
  379MOL0     C49939   1.833   7.820   2.888  0.3585 -0.1033  0.6452
  379MOL0    Cl49940   1.771   7.769   3.051  0.2920 -0.2091  0.2239
  379MOL0     C49941   2.570   8.111   2.404  0.8781 -1.1770 -0.1487
  379MOL0     C49942   2.682   8.103   2.329  0.7886 -0.1057  0.2967
  379MOL0     O49943   2.783   8.310   2.074 -0.4122 -0.0162  0.1585
  379MOL0     C49944   3.101   8.131   2.067 -0.9849 -0.0332  0.9264
  379MOL0     C49945   3.197   8.059   1.985  0.0463  0.3470 -0.5940
  379MOL0     N49946   3.588   7.923   1.262 -0.4573  0.0971 -0.3828
  379MOL0     N49947   3.718   7.908   1.249  0.1431 -0.4472  0.9184
  379MOL0     C49948   4.964   8.600   1.403  0.2657  0.3482  0.0284
  379MOL0     C49949   5.073   8.649   1.476 -0.1136  0.2073  0.5154
  379MOL0     C49950   5.343   8.877   1.795  0.5650  0.6027 -0.9999
  379MOL0     C49951   5.392   8.973   1.704  0.1634  0.2041  0.2653
  379MOL0     C49952   5.505   9.045   1.733 -1.1378 -0.6552 -0.4875
  379MOL0     C49953   5.581   9.030   1.845  0.8165 -0.0940  0.5103
  379MOL0     O49954   5.697   9.096   1.844  0.1646  0.4885 -0.5214
  379MOL0     C49955   5.805   9.068   1.932  0.1685 -0.3044  0.0037
  379MOL0     C49956   5.787   9.134   2.073  1.0252 -0.2410  0.1303
  379MOL0     C49957   5.727   9.273   2.068  1.1066 -0.2686 -0.3694
  379MOL0     C49958   5.783   9.377   1.972 -0.1633 -0.2091 -0.4597
  379MOL0     C49959   5.927   9.378   1.966 -0.5178  0.2201  0.3393
  379MOL0     C49960   6.048   9.381   1.949  0.1271  0.1642  0.1201
  379MOL0     C49961   5.532   8.940   1.946  0.1248 -0.0049 -0.5381
  379MOL0     C49962   5.418   8.872   1.918  0.4465 -0.0855 -0.6336
  379MOL0     H49963   4.918   8.810   1.732 -2.4880 -2.9100  0.8819
  379MOL0     H49964   4.725   8.717   1.607 -0.0866 -0.2745  1.1942
  379MOL0     H49965   4.540   8.658   1.410 -0.4328  0.3428  0.6996
  379MOL0     H49966   4.599   8.552   1.548 -1.0583  0.1286  0.2107
  379MOL0     H49967   4.569   8.370   1.369  0.9705  0.2427  0.4202
  379MOL0     H49968   4.498   8.488   1.260 -0.0751 -0.8255 -0.4614
  379MOL0     H49969   4.320   8.527   1.428 -1.4530  0.9103 -0.1402
  379MOL0     H49970   4.386   8.411   1.542 -1.9239  0.0192 -0.3577
  379MOL0     H49971   4.286   8.364   1.255 -3.1643 -1.2319  0.5142
  379MOL0     H49972   4.373   8.240   1.350  0.6793  0.6296 -2.0936
  379MOL0     H49973   4.110   8.357   1.412  1.2944  0.9419 -1.3180
  379MOL0     H49974   4.208   8.247   1.516  1.3490 -0.6957 -0.7960
  379MOL0     H49975   4.187   8.071   1.362  0.9827  1.5023  1.8352
  379MOL0     H49976   4.144   8.171   1.227 -1.7834  1.3721 -0.6766
  379MOL0     H49977   3.951   8.173   1.457  0.5067 -0.1543 -0.4539
  379MOL0     H49978   3.919   8.197   1.286  0.8574 -1.2575 -0.7763
  379MOL0     H49979   3.960   7.931   1.433 -1.0280  0.9462  1.2456
  379MOL0     H49980   3.971   7.941   1.256  3.6613 -1.0065  1.4733
  379MOL0     H49981   3.705   8.118   1.507 -3.7965  2.7123 -1.8871
  379MOL0     H49982   3.369   8.088   1.336 -0.0658 -1.7684 -1.1655
  379MOL0     H49983   3.450   8.124   1.492  1.9038 -1.3993  0.0511
  379MOL0     H49984   3.423   7.875   1.533 -0.8790  0.3400  1.0113
  379MOL0     H49985   3.323   7.879   1.379 -0.1651  3.1575 -3.2511
  379MOL0     H49986   3.238   8.084   1.569 -0.6944  0.9713  0.5025
  379MOL0     H49987   3.143   7.982   1.467 -1.9233 -1.1155  2.0780
  379MOL0     H49988   3.235   7.789   1.636 -3.4951 -1.0189 -1.6195
  379MOL0     H49989   3.082   7.864   1.656 -0.2769 -0.8506  0.3002
  379MOL0     H49990   3.017   8.057   1.699  0.5700 -5.1205  0.0289
  379MOL0     H49991   2.854   8.186   1.840  1.2839 -0.0336 -2.6563
  379MOL0     H49992   2.838   8.385   2.420  0.0719  0.0158  0.7646
  379MOL0     H49993   2.638   8.389   2.590  3.5190 -0.0918  0.1164
  379MOL0     H49994   2.573   8.214   2.756 -0.0068  0.9000  0.7157
  379MOL0     H49995   2.524   8.050   2.713  0.7094 -0.5234  1.1666
  379MOL0     H49996   2.364   8.285   2.819 -1.6597 -0.3012  1.8127
  379MOL0     H49997   2.424   8.141   2.911  0.5485  1.4612 -0.1070
  379MOL0     H49998   2.239   8.113   2.670 -0.4935  1.2275  0.5699
  379MOL0     H49999   2.177   8.148   2.835  1.4086  0.3317  1.5036
  379MOL0     H50000   2.377   7.918   2.788 -0.2768  0.8754  1.3665
  379MOL0     H50001   2.268   7.921   2.914 -1.4300 -1.1828 -0.0390
  379MOL0     H50002   2.196   7.754   2.751 -2.0965 -0.3383  0.6705
  379MOL0     H50003   2.197   7.876   2.620 -2.6668  0.1166 -0.4134
  379MOL0     H50004   1.975   7.818   2.669  2.9581 -0.5491 -1.2315
  379MOL0     H50005   1.994   7.991   2.723 -0.6101  0.1763 -0.8584
  379MOL0     H50006   2.040   7.759   2.914 -1.4582 -1.7294 -4.5492
  379MOL0     H50007   2.010   7.922   2.960  1.7991 -0.0813 -0.1922
  379MOL0     H50008   1.800   7.750   2.811 -0.7925  2.9868 -1.8608
  379MOL0     H50009   1.775   7.907   2.857  1.1187  0.6139  1.1952
  379MOL0     H50010   2.490   8.041   2.384 -0.6729 -0.3310  2.5719
  379MOL0     H50011   2.675   8.020   2.260 -1.5264  1.2865 -1.2972
  379MOL0     H50012   3.120   8.171   2.166  0.5670  1.6801 -0.0044
  379MOL0     H50013   3.284   8.026   2.040 -0.4695 -0.8477 -0.4474
  379MOL0     H50014   5.003   8.550   1.315  4.2667 -2.9374  3.2638
  379MOL0     H50015   5.168   8.626   1.428  0.2052  0.2352  1.1297
  379MOL0     H50016   5.347   8.990   1.606  1.9208 -0.5684 -0.7083
  379MOL0     H50017   5.549   9.113   1.661  1.9578 -0.7784  1.1322
  379MOL0     H50018   5.897   9.104   1.886  0.7179  1.8117  2.5283
  379MOL0     H50019   5.808   8.960   1.953  2.5471 -0.8936 -2.6964
  379MOL0     H50020   5.728   9.070   2.140  3.2038 -1.2822  1.1661
  379MOL0     H50021   5.884   9.142   2.125 -0.2876  2.2495  2.4809
  379MOL0     H50022   5.728   9.317   2.168 -0.3090 -1.4105  0.1858
  379MOL0     H50023   5.620   9.258   2.048  0.5549  0.9013  1.5173
  379MOL0     H50024   5.744   9.365   1.871  2.6008  3.3802 -2.1721
  379MOL0     H50025   5.756   9.480   1.998 -2.3341 -0.6137 -0.9716
  379MOL0     H50026   6.154   9.382   1.934  0.2119 -1.6501  0.4100
  379MOL0     H50027   5.592   8.921   2.034  2.3768  1.0714 -1.7460
  379MOL0     H50028   5.380   8.799   1.988 -1.8386  1.0554 -0.6096
  380MOL0     O50029   4.883   6.664   6.811 -0.0440  0.0093  0.1314
  380MOL0     C50030   4.950   6.628   6.913 -0.4674 -0.0945  0.2330
  380MOL0     O50031   4.905   6.582   7.030 -0.1514  1.3114 -0.3935
  380MOL0     C50032   4.779   6.528   7.050  0.0136  0.5382  0.0478
  380MOL0     C50033   4.676   6.518   6.958  0.0509  0.0975  0.4480
  380MOL0     C50034   4.545   6.476   6.988  0.2171 -0.8455 -0.1646
  380MOL0     C50035   4.529   6.435   7.123  0.3514  0.4913 -0.2271
  380MOL0     O50036   4.399   6.395   7.153  0.2873  0.1474  0.4459
  380MOL0     C50037   4.379   6.325   7.279  0.1764 -0.0649  0.6941
  380MOL0     C50038   4.266   6.224   7.266 -0.3189 -0.5472 -0.0393
  380MOL0     C50039   4.128   6.293   7.274 -0.7355  0.0566 -0.0623
  380MOL0     C50040   4.113   6.355   7.418 -0.0136  0.5721 -0.4455
  380MOL0     C50041   3.981   6.436   7.420 -0.2340 -0.4612  0.4157
  380MOL0     C50042   3.967   6.531   7.545  0.6294 -0.2464  0.2172
  380MOL0     C50043   3.830   6.599   7.536 -0.4767 -0.5111  0.0127
  380MOL0     C50044   3.807   6.668   7.673 -0.0086 -0.3013  0.7675
  380MOL0     N50045   3.666   6.716   7.676  0.7664 -0.0808 -0.1650
  380MOL0     C50046   3.561   6.622   7.672 -0.6816  0.0492  0.1214
  380MOL0     C50047   3.454   6.695   7.640  0.5447 -0.6329  0.0258
  380MOL0     C50048   3.308   6.649   7.650  0.9810  0.1393 -0.1323
  380MOL0     C50049   3.210   6.762   7.691  0.0207 -0.3825  0.5346
  380MOL0     C50050   3.062   6.721   7.723 -0.9687  0.4057  0.5520
  380MOL0     C50051   2.972   6.828   7.744 -0.9260 -0.2433  0.7150
  380MOL0     O50052   2.856   6.754   7.780 -0.2458 -0.0043 -0.3105
  380MOL0     C50053   2.730   6.805   7.770 -0.8809 -0.4581 -0.1518
  380MOL0     C50054   2.704   6.946   7.746 -0.0098  0.4433  0.1861
  380MOL0     C50055   2.571   6.979   7.723  0.3663  0.3771 -0.2801
  380MOL0     C50056   2.468   6.887   7.738  0.2120 -0.0101  0.5837
  380MOL0     C50057   2.326   6.910   7.719 -0.3363 -0.3643  0.2903
  380MOL0     O50058   2.239   6.811   7.761 -0.2316 -0.1337  0.3888
  380MOL0     C50059   2.107   6.838   7.750  0.3005  0.6874 -0.6169
  380MOL0     C50060   2.041   6.955   7.786 -0.2434  0.1364 -0.0987
  380MOL0     C50061   1.903   6.956   7.790  0.4538  0.1039 -0.7480
  380MOL0     C50062   1.832   6.852   7.724  0.1527  0.6755 -0.6282
  380MOL0     O50063   1.691   6.859   7.719  0.2468 -0.2784  0.9660
  380MOL0     C50064   1.632   6.865   7.848  0.5985 -0.0505  0.1574
  380MOL0     C50065   1.487   6.824   7.850 -0.4360  0.6534  0.0657
  380MOL0     C50066   1.413   6.850   7.713 -0.0192 -0.3035 -1.2136
  380MOL0     C50067   1.273   6.794   7.707  1.0474 -0.6750  0.4963
  380MOL0     C50068   1.193   6.854   7.581 -0.2268 -0.2272 -1.4619
  380MOL0     C50069   1.065   6.788   7.563 -1.0600  0.1918  0.2513
  380MOL0     C50070   1.010   6.806   7.421  0.5975  0.7476 -0.2030
  380MOL0     C50071   0.883   6.732   7.406 -0.3852  0.2565 -0.3866
  380MOL0    Cl50072   0.762   6.781   7.519  0.0731 -0.1429  0.1424
  380MOL0     C50073   1.898   6.737   7.689  0.7409  0.1388  0.2609
  380MOL0     C50074   2.037   6.726   7.710  0.7194 -0.4066  0.0315
  380MOL0     O50075   2.293   7.018   7.674  0.0852 -0.1837 -0.6506
  380MOL0     C50076   2.505   6.751   7.770  0.3518 -0.3160 -0.0566
  380MOL0     C50077   2.631   6.717   7.788 -0.0094 -0.1824  0.3851
  380MOL0     N50078   3.496   6.821   7.605  0.5056  1.1772  0.0712
  380MOL0     N50079   3.621   6.837   7.636  0.7615 -1.0778  0.3001
  380MOL0     C50080   4.633   6.445   7.216  0.1816  0.4711 -0.2055
  380MOL0     C50081   4.752   6.490   7.177 -0.6011  0.0600  0.3722
  380MOL0     C50082   5.093   6.669   6.904  0.1690  0.2968  0.3402
  380MOL0     C50083   5.185   6.617   6.999  0.1351  0.4200 -0.1249
  380MOL0     C50084   5.323   6.656   7.002  0.5624  0.6914  0.1115
  380MOL0     C50085   5.364   6.749   6.911  0.0907  0.3542  0.1342
  380MOL0     O50086   5.490   6.792   6.887 -0.8097  0.2225  0.0115
  380MOL0     C50087   5.602   6.718   6.947  0.6006  0.2572 -0.7360
  380MOL0     C50088   5.699   6.818   7.020 -0.3280  0.6603 -0.3531
  380MOL0     C50089   5.840   6.762   7.066  0.6297  0.0603  0.6332
  380MOL0     C50090   5.826   6.624   7.133 -0.2277 -0.0913  0.2640
  380MOL0     C50091   5.951   6.586   7.193  0.2981  0.9159  0.1857
  380MOL0     C50092   6.064   6.563   7.243  0.3178 -0.4452 -0.7693
  380MOL0     C50093   5.271   6.801   6.819  0.6336 -0.9576 -0.4777
  380MOL0     C50094   5.134   6.768   6.810  0.4912  0.9493 -0.8076
  380MOL0     H50095   4.677   6.553   6.855 -1.9239 -0.3826  0.2210
  380MOL0     H50096   4.458   6.476   6.923  1.1682  0.9579 -1.5372
  380MOL0     H50097   4.380   6.395   7.363  0.3714 -1.1306  1.6013
  380MOL0     H50098   4.468   6.264   7.299  1.8626  1.8473 -0.4791
  380MOL0     H50099   4.270   6.148   7.344  1.3321 -2.1126 -1.5744
  380MOL0     H50100   4.260   6.182   7.165 -0.2053  0.7707 -0.6257
  380MOL0     H50101   4.057   6.211   7.262  0.5635 -1.5927  2.6216
  380MOL0     H50102   4.132   6.371   7.198  1.8198  2.2566  2.1352
  380MOL0     H50103   4.106   6.280   7.497  0.7503 -1.9520 -2.5954
  380MOL0     H50104   4.196   6.420   7.448 -0.2271  0.1821  1.0368
  380MOL0     H50105   3.897   6.368   7.407  0.0217 -0.2002 -3.7654
  380MOL0     H50106   3.978   6.506   7.336  0.6761  0.6426  1.2654
  380MOL0     H50107   4.045   6.607   7.548 -0.2667  0.7513 -0.6787
  380MOL0     H50108   3.976   6.473   7.637  0.2033  2.0837  1.8246
  380MOL0     H50109   3.826   6.667   7.450 -2.1656 -0.5362  0.0426
  380MOL0     H50110   3.756   6.518   7.531 -2.8014  1.5136 -0.2944
  380MOL0     H50111   3.868   6.756   7.691 -0.3878 -0.0885  1.0375
  380MOL0     H50112   3.824   6.598   7.755 -0.5412 -3.0242 -1.3051
  380MOL0     H50113   3.567   6.515   7.683  1.8366  0.0127 -0.9051
  380MOL0     H50114   3.299   6.556   7.705  2.0373 -1.7712 -2.9425
  380MOL0     H50115   3.275   6.618   7.550 -1.6426 -0.4840  0.8670
  380MOL0     H50116   3.215   6.832   7.607  2.7775 -0.5186  0.5134
  380MOL0     H50117   3.252   6.804   7.783 -0.9711 -2.3170  1.9430
  380MOL0     H50118   3.047   6.656   7.636  1.7006 -2.9227  2.2987
  380MOL0     H50119   3.066   6.662   7.815  1.5608  1.6172  1.3273
  380MOL0     H50120   2.958   6.884   7.651  2.5782 -1.3346 -0.6202
  380MOL0     H50121   3.016   6.891   7.823  0.0323  0.1594 -0.1255
  380MOL0     H50122   2.782   7.020   7.756  1.8209 -1.5420  1.2202
  380MOL0     H50123   2.549   7.083   7.700  0.3562  0.0737 -1.7753
  380MOL0     H50124   2.082   7.048   7.825 -1.8764 -1.0238  5.1854
  380MOL0     H50125   1.857   7.053   7.807  0.5788  0.4901 -2.3835
  380MOL0     H50126   1.627   6.967   7.887 -0.3091 -0.8403  2.2568
  380MOL0     H50127   1.683   6.811   7.928 -3.5779  0.1884  3.3047
  380MOL0     H50128   1.435   6.879   7.929  0.1921  1.3013  0.0372
  380MOL0     H50129   1.483   6.717   7.871 -1.5547  0.6085 -0.3011
  380MOL0     H50130   1.468   6.809   7.627 -1.7462 -1.0167 -2.0227
  380MOL0     H50131   1.401   6.958   7.695 -3.6747  0.1104  2.5272
  380MOL0     H50132   1.292   6.686   7.712  2.1723 -0.6351 -1.6829
  380MOL0     H50133   1.216   6.822   7.796  0.8275  2.9653 -0.6089
  380MOL0     H50134   1.253   6.838   7.491 -0.7995 -0.7723 -1.7539
  380MOL0     H50135   1.188   6.963   7.586  1.4180 -0.1007 -1.8944
  380MOL0     H50136   0.996   6.830   7.637  0.7251  1.3513  1.3443
  380MOL0     H50137   1.071   6.681   7.586 -2.2062  0.6788  3.1785
  380MOL0     H50138   0.988   6.911   7.403  0.3505  0.6221 -0.6391
  380MOL0     H50139   1.084   6.767   7.350 -0.0475 -0.9928  0.0368
  380MOL0     H50140   0.907   6.625   7.410  0.9571  0.5637  1.8423
  380MOL0     H50141   0.850   6.754   7.304 -1.4633  0.6102  0.0156
  380MOL0     H50142   1.843   6.653   7.649  0.9570 -0.2466  0.7543
  380MOL0     H50143   2.102   6.640   7.695  0.4888 -0.9759  1.9872
  380MOL0     H50144   2.432   6.671   7.778 -1.0984  1.0887  1.5948
  380MOL0     H50145   2.661   6.614   7.801  4.1108  0.9374  1.3182
  380MOL0     H50146   4.605   6.411   7.316 -0.8053 -1.1752 -1.0032
  380MOL0     H50147   4.837   6.499   7.243  0.0773 -0.1756 -0.4636
  380MOL0     H50148   5.154   6.542   7.072  3.4757  0.4894  1.5460
  380MOL0     H50149   5.385   6.604   7.074  2.0926 -0.6315 -2.0072
  380MOL0     H50150   5.658   6.667   6.869  0.7094 -1.6968  0.5460
  380MOL0     H50151   5.572   6.642   7.020  4.7100  0.9923  2.0313
  380MOL0     H50152   5.718   6.909   6.962  0.5361  1.0432  0.5018
  380MOL0     H50153   5.640   6.849   7.107 -0.5327 -0.5336 -0.0514
  380MOL0     H50154   5.887   6.835   7.133 -0.3276  0.1322  1.2477
  380MOL0     H50155   5.906   6.765   6.978 -1.4222  3.4600 -0.9962
  380MOL0     H50156   5.759   6.624   7.219  0.9930 -1.8558  1.2912
  380MOL0     H50157   5.802   6.546   7.059  0.5247  1.5403 -1.7985
  380MOL0     H50158   6.145   6.532   7.305  0.8629 -3.4068 -2.7113
  380MOL0     H50159   5.300   6.887   6.759  0.3753 -0.3995  0.1827
  380MOL0     H50160   5.063   6.820   6.746  0.2273  0.5253 -0.8632
  381MOL0     O50161   7.557  11.231   8.879 -0.5117  0.4964  0.0107
  381MOL0     C50162   7.599  11.137   8.947 -0.8746  0.3386 -0.2839
  381MOL0     O50163   7.517  11.056   9.018  0.1518  0.1538 -0.3960
  381MOL0     C50164   7.389  11.096   9.013  0.4232  0.1583 -0.2504
  381MOL0     C50165   7.308  11.039   8.907  0.0747  0.3724 -0.2273
  381MOL0     C50166   7.170  11.052   8.909  0.0813  0.7866 -0.0987
  381MOL0     C50167   7.108  11.134   9.000 -0.3446  0.2230 -0.0647
  381MOL0     O50168   6.971  11.160   9.017 -0.3135 -0.3025 -0.4818
  381MOL0     C50169   6.888  11.049   9.023 -0.4115 -0.5135 -0.2178
  381MOL0     C50170   6.745  11.108   9.038  0.7530  0.5593 -0.1767
  381MOL0     C50171   6.657  10.988   9.077  0.5557  0.4018  0.5038
  381MOL0     C50172   6.510  11.032   9.095  0.3287 -0.6084 -0.5120
  381MOL0     C50173   6.410  10.920   9.121  0.8864 -0.1616  0.3061
  381MOL0     C50174   6.436  10.820   9.232  0.0051 -0.3749 -0.0585
  381MOL0     C50175   6.311  10.761   9.300  0.2259 -0.3419  0.2359
  381MOL0     C50176   6.203  10.713   9.203 -0.1551  0.6265 -0.9411
  381MOL0     N50177   6.111  10.629   9.273 -0.0518  0.3045  0.3964
  381MOL0     C50178   6.004  10.674   9.343 -1.1837  0.0777 -0.1613
  381MOL0     C50179   5.923  10.560   9.356  0.1375 -1.4588 -0.0485
  381MOL0     C50180   5.775  10.567   9.393  0.0861  0.3953  0.3912
  381MOL0     C50181   5.674  10.500   9.299  0.0615  0.9549 -0.1217
  381MOL0     C50182   5.534  10.509   9.349 -0.6309 -0.0466  0.3944
  381MOL0     C50183   5.425  10.482   9.242 -0.7055  0.2205  0.1474
  381MOL0     O50184   5.301  10.481   9.315  0.2688 -0.1198 -1.0543
  381MOL0     C50185   5.187  10.440   9.242  0.7781 -0.5091 -0.8546
  381MOL0     C50186   5.179  10.416   9.106 -0.2254 -0.8263  0.2346
  381MOL0     C50187   5.059  10.397   9.037  0.8013  0.5486 -0.1175
  381MOL0     C50188   4.937  10.392   9.107 -0.0174  0.1391 -0.1464
  381MOL0     C50189   4.806  10.365   9.050  0.0142 -0.6014 -0.4119
  381MOL0     O50190   4.690  10.368   9.128  0.1443 -0.4059  0.1362
  381MOL0     C50191   4.576  10.298   9.084 -0.4089  0.1823  0.0876
  381MOL0     C50192   4.570  10.195   8.992 -0.7103 -0.9686 -0.4820
  381MOL0     C50193   4.453  10.133   8.948  0.0801 -0.7443 -0.6847
  381MOL0     C50194   4.331  10.168   9.008  0.6230 -0.8193 -0.7092
  381MOL0     O50195   4.210  10.122   8.973 -0.3137 -0.4494 -0.1686
  381MOL0     C50196   4.200   9.977   8.959 -0.0282 -0.4506  0.2792
  381MOL0     C50197   4.089   9.910   9.033 -0.1623  0.3532 -0.7172
  381MOL0     C50198   4.099   9.935   9.185  0.1383  0.4459  0.4061
  381MOL0     C50199   3.968   9.950   9.260  1.1470  0.0063  0.4163
  381MOL0     C50200   3.914  10.094   9.230 -0.8456  1.2199 -0.0454
  381MOL0     C50201   3.802  10.132   9.323  0.1769 -0.4391  0.0045
  381MOL0     C50202   3.668  10.047   9.301  0.1305  0.3892  0.1302
  381MOL0     C50203   3.548  10.125   9.335  0.1357 -0.3301 -0.3084
  381MOL0    Cl50204   3.397  10.038   9.327 -0.1807  0.3519 -0.1566
  381MOL0     C50205   4.329  10.276   9.095  0.3080 -1.0686 -0.8102
  381MOL0     C50206   4.452  10.334   9.132  0.4683 -0.4679  1.2919
  381MOL0     O50207   4.811  10.339   8.927  0.0524  0.4622 -0.0353
  381MOL0     C50208   4.945  10.399   9.246  0.0451  0.9480 -0.4633
  381MOL0     C50209   5.070  10.423   9.316 -0.7526 -1.0602  0.1942
  381MOL0     N50210   5.979  10.455   9.282  0.3616 -0.2317  1.0185
  381MOL0     N50211   6.089  10.506   9.232  0.4440  0.1043  0.7598
  381MOL0     C50212   7.184  11.210   9.091  0.0534 -0.0249 -0.1397
  381MOL0     C50213   7.321  11.177   9.108  0.5962 -0.3758  0.2842
  381MOL0     C50214   7.745  11.116   8.956  0.1694  0.0495  1.0432
  381MOL0     C50215   7.836  11.204   8.884  0.6990  0.3044  0.5502
  381MOL0     C50216   7.978  11.187   8.892 -0.0239  0.1944 -0.6014
  381MOL0     C50217   8.031  11.096   8.984 -0.8002 -0.5483 -0.2671
  381MOL0     O50218   8.166  11.096   8.994 -0.5579 -0.0062  0.4380
  381MOL0     C50219   8.227  10.995   9.073 -0.8768 -0.1683 -1.0564
  381MOL0     C50220   8.370  10.997   9.031  0.4153 -0.6388 -0.0202
  381MOL0     C50221   8.446  11.107   9.105  0.5271  0.3427 -0.1393
  381MOL0     C50222   8.591  11.100   9.058 -0.0658  0.1460 -0.4511
  381MOL0     C50223   8.664  10.986   9.112 -1.1497  0.6663  0.6170
  381MOL0     C50224   8.736  10.889   9.145  0.0723 -0.7250  0.7169
  381MOL0     C50225   7.949  11.004   9.048 -0.1954 -0.0389 -0.1432
  381MOL0     C50226   7.807  11.022   9.036  0.7365  0.5595 -0.1440
  381MOL0     H50227   7.353  10.977   8.830 -2.8097 -2.0696 -0.1139
  381MOL0     H50228   7.105  10.999   8.841 -0.9212  0.9187  0.7287
  381MOL0     H50229   6.910  10.993   9.113  1.9385  0.9822  0.2155
  381MOL0     H50230   6.882  10.987   8.933  0.5985  1.6392 -1.8891
  381MOL0     H50231   6.723  11.148   8.939  1.4767  0.3017 -0.4547
  381MOL0     H50232   6.729  11.184   9.115 -0.7766 -1.5969  1.7641
  381MOL0     H50233   6.699  10.945   9.169  0.8791 -0.7137 -0.1415
  381MOL0     H50234   6.656  10.909   9.002 -1.8509  1.5890 -0.8025
  381MOL0     H50235   6.499  11.108   9.173 -0.9772 -1.0404 -0.2523
  381MOL0     H50236   6.483  11.087   9.005 -3.1941  0.9678  1.3219
  381MOL0     H50237   6.401  10.862   9.029 -1.5803 -2.2083  1.7215
  381MOL0     H50238   6.312  10.967   9.135  1.0888 -0.1574  1.7809
  381MOL0     H50239   6.493  10.860   9.316  0.9223 -2.0759  0.1754
  381MOL0     H50240   6.493  10.738   9.187 -0.5418 -0.0021 -1.4633
  381MOL0     H50241   6.338  10.679   9.367 -3.6448 -1.5390  0.5821
  381MOL0     H50242   6.267  10.837   9.365  0.6151  1.5230 -1.5728
  381MOL0     H50243   6.243  10.658   9.118 -1.2688 -0.0488 -1.0510
  381MOL0     H50244   6.156  10.805   9.168  0.8294  1.4362 -0.1938
  381MOL0     H50245   5.969  10.774   9.366 -1.6271  0.4206 -2.1702
  381MOL0     H50246   5.736  10.668   9.406 -2.5149 -0.4513 -0.2070
  381MOL0     H50247   5.767  10.518   9.491 -1.2807 -0.5865 -0.1759
  381MOL0     H50248   5.692  10.395   9.274 -0.6581  1.3016 -2.2904
  381MOL0     H50249   5.681  10.551   9.203  1.6664  2.3247  0.6744
  381MOL0     H50250   5.513  10.436   9.428 -0.3770  0.7479  1.2038
  381MOL0     H50251   5.518  10.607   9.393 -0.5948  2.4126 -4.4027
  381MOL0     H50252   5.446  10.386   9.196  2.8351  0.8663  0.1155
  381MOL0     H50253   5.442  10.562   9.170 -0.1039 -0.1727 -0.1516
  381MOL0     H50254   5.250  10.436   9.026 -1.5087  2.0182 -0.3416
  381MOL0     H50255   5.059  10.373   8.931 -2.1785 -1.3215  0.2117
  381MOL0     H50256   4.650  10.170   8.923 -0.3214 -1.6749  0.2209
  381MOL0     H50257   4.449  10.069   8.860 -2.7232 -0.5720 -0.7572
  381MOL0     H50258   4.297   9.927   8.966  1.2118  1.6427 -0.9341
  381MOL0     H50259   4.183   9.964   8.851 -2.5548  2.5345  0.1763
  381MOL0     H50260   4.089   9.804   9.006 -0.1172  0.0066  0.5548
  381MOL0     H50261   3.995   9.955   8.999 -1.5335 -1.6608  0.2498
  381MOL0     H50262   4.170  10.018   9.194  1.8072 -0.9829  1.1426
  381MOL0     H50263   4.152   9.844   9.216  0.2708  0.4399  0.1617
  381MOL0     H50264   3.900   9.876   9.217  1.4949  1.1262 -2.2288
  381MOL0     H50265   3.985   9.933   9.367  2.2775 -2.5869 -0.1070
  381MOL0     H50266   3.885  10.096   9.124  0.7850 -1.1699 -0.6173
  381MOL0     H50267   3.990  10.170   9.246 -0.8930  0.5875  4.3548
  381MOL0     H50268   3.776  10.236   9.303  1.1362 -0.0227  0.8441
  381MOL0     H50269   3.830  10.129   9.429  1.9495  0.3265 -0.4080
  381MOL0     H50270   3.661  10.021   9.195  2.5294 -0.2481  0.0628
  381MOL0     H50271   3.665   9.963   9.371 -1.0769 -0.4547 -0.8743
  381MOL0     H50272   3.542  10.206   9.262  6.2852  0.8044 -0.1273
  381MOL0     H50273   3.558  10.173   9.433 -0.7085  2.8337 -1.6768
  381MOL0     H50274   4.243  10.314   9.149 -0.2119 -1.6522 -1.2060
  381MOL0     H50275   4.458  10.426   9.188  4.0532  0.5688 -0.5663
  381MOL0     H50276   4.850  10.407   9.298 -0.8989  0.6754 -2.0994
  381MOL0     H50277   5.069  10.432   9.424  1.9671  1.5930  0.1181
  381MOL0     H50278   7.123  11.277   9.150  0.2395  0.3308 -0.3456
  381MOL0     H50279   7.374  11.222   9.191  1.0879  0.5536 -0.5108
  381MOL0     H50280   7.805  11.289   8.825 -2.6559 -2.7902 -2.7060
  381MOL0     H50281   8.041  11.264   8.847 -0.3407  1.0450  0.3686
  381MOL0     H50282   8.182  10.897   9.056  0.0923 -0.8520  0.1955
  381MOL0     H50283   8.209  11.012   9.180 -1.5723  0.4444 -1.2567
  381MOL0     H50284   8.406  10.896   9.054 -2.0351 -1.3605  0.9210
  381MOL0     H50285   8.382  11.019   8.925 -0.3963  3.4079  0.5650
  381MOL0     H50286   8.434  11.103   9.214 -0.2413 -0.3852 -0.2323
  381MOL0     H50287   8.414  11.202   9.063  2.8755  1.8315  1.2163
  381MOL0     H50288   8.596  11.096   8.949  0.7969 -1.0258 -0.3882
  381MOL0     H50289   8.651  11.187   9.084  0.0214  0.2863 -1.1158
  381MOL0     H50290   8.793  10.809   9.187  2.1641  1.1010  1.5288
  381MOL0     H50291   7.988  10.925   9.111  2.0573  2.2038  1.4732
  381MOL0     H50292   7.757  10.952   9.102  2.4805 -2.2859 -1.6006
  382MOL0     O50293   0.673   9.241   9.667  0.1750  0.7024  0.1441
  382MOL0     C50294   0.735   9.348   9.677  0.2686 -1.2089  0.7111
  382MOL0     O50295   0.688   9.474   9.720  0.4092 -0.5696 -0.2935
  382MOL0     C50296   0.557   9.481   9.766 -0.8240  1.1519 -0.4623
  382MOL0     C50297   0.486   9.590   9.723  0.6905  0.2454  0.3527
  382MOL0     C50298   0.349   9.601   9.755 -0.5092  0.5481  0.1926
  382MOL0     C50299   0.294   9.513   9.840 -0.0275  0.0230 -0.0084
  382MOL0     O50300   0.161   9.532   9.881 -0.5471  0.8172  0.7304
  382MOL0     C50301   0.067   9.428   9.851 -0.5438  0.1687 -0.0264
  382MOL0     C50302  -0.068   9.450   9.923  0.1382  0.1312  0.9379
  382MOL0     C50303  -0.041   9.442  10.076 -0.0473  0.3891  0.1060
  382MOL0     C50304  -0.173   9.440  10.159 -0.1090 -0.4631 -1.2203
  382MOL0     C50305  -0.150   9.393  10.304  0.1391 -0.6235 -0.8083
  382MOL0     C50306  -0.291   9.357  10.363  0.2416  0.4825 -0.4300
  382MOL0     C50307  -0.295   9.354  10.516 -0.4207 -0.1532  0.8978
  382MOL0     C50308  -0.439   9.306  10.551 -0.3339 -0.7830 -0.4173
  382MOL0     N50309  -0.523   9.432  10.544 -0.2997 -0.1642 -0.1157
  382MOL0     C50310  -0.528   9.527  10.649 -0.6441  0.4089 -0.3003
  382MOL0     C50311  -0.635   9.602  10.621  0.3334  0.0658 -0.5430
  382MOL0     C50312  -0.701   9.713  10.707  0.0802 -0.2752 -0.2422
  382MOL0     C50313  -0.714   9.670  10.846  0.7959 -0.4780 -0.0832
  382MOL0     C50314  -0.846   9.738  10.914  0.2311 -0.3831  1.1614
  382MOL0     C50315  -0.967   9.651  10.896  0.4232 -0.1301  0.6057
  382MOL0     O50316  -1.079   9.742  10.912  0.0127 -0.5034 -0.0907
  382MOL0     C50317  -1.207   9.700  10.913 -0.3161  0.6083  0.6559
  382MOL0     C50318  -1.302   9.799  10.923  0.8398  0.7612 -0.0765
  382MOL0     C50319  -1.445   9.768  10.932 -0.0480  0.5366  0.2710
  382MOL0     C50320  -1.489   9.634  10.927  0.1543  0.4441  0.0575
  382MOL0     C50321  -1.624   9.598  10.927 -0.2784  0.2933  0.2188
  382MOL0     O50322  -1.709   9.673  11.000  0.7117 -0.4597  0.4237
  382MOL0     C50323  -1.848   9.667  10.998  0.4786  1.4828  0.7337
  382MOL0     C50324  -1.926   9.789  11.011  0.0870 -0.1001 -0.3544
  382MOL0     C50325  -2.068   9.788  11.034 -0.1691  0.1580 -0.1802
  382MOL0     C50326  -2.134   9.664  11.024  0.6507 -0.3172  0.1681
  382MOL0     O50327  -2.265   9.657  11.054  0.1205 -0.1400  0.7050
  382MOL0     C50328  -2.317   9.658  11.186 -0.3214 -0.0387 -0.5966
  382MOL0     C50329  -2.477   9.669  11.196 -0.9231  0.6403 -0.6840
  382MOL0     C50330  -2.534   9.636  11.343  0.7782  0.0615  0.7921
  382MOL0     C50331  -2.687   9.664  11.363 -0.1366  0.1216  0.1581
  382MOL0     C50332  -2.781   9.613  11.252 -0.4560 -0.0768 -0.3907
  382MOL0     C50333  -2.916   9.682  11.257  0.4769  0.8235 -0.5244
  382MOL0     C50334  -3.025   9.610  11.346 -1.2351  0.6503  0.8806
  382MOL0     C50335  -3.151   9.672  11.321 -0.6357 -0.0680 -0.0689
  382MOL0    Cl50336  -3.289   9.600  11.407  0.1594  0.1567  0.1483
  382MOL0     C50337  -2.067   9.549  10.976 -0.1321 -0.1807 -0.5104
  382MOL0     C50338  -1.920   9.543  10.975  0.2122 -0.1651  0.0440
  382MOL0     O50339  -1.657   9.514  10.843 -0.0217  0.2796 -0.5166
  382MOL0     C50340  -1.381   9.532  10.927 -0.5935 -0.7931 -0.3000
  382MOL0     C50341  -1.240   9.561  10.908  0.0554 -0.3058 -1.0372
  382MOL0     N50342  -0.701   9.542  10.513  0.7953 -0.0512  0.1048
  382MOL0     N50343  -0.634   9.449  10.466 -0.5032  0.3349 -0.4378
  382MOL0     C50344   0.371   9.408   9.890  0.6980  0.5450 -0.4291
  382MOL0     C50345   0.502   9.387   9.851 -0.6434 -0.0237  0.3059
  382MOL0     C50346   0.881   9.350   9.634 -0.1824 -0.7618 -0.4731
  382MOL0     C50347   0.956   9.471   9.644  0.6173  0.4142  0.9153
  382MOL0     C50348   1.090   9.465   9.605 -1.4382 -1.3327 -0.0561
  382MOL0     C50349   1.157   9.351   9.562 -0.6003 -0.1709 -0.4154
  382MOL0     O50350   1.285   9.373   9.522 -0.3569 -0.7140  0.3503
  382MOL0     C50351   1.362   9.254   9.476  0.3239  0.3565  0.4161
  382MOL0     C50352   1.495   9.312   9.414 -0.2034  0.1933 -0.2561
  382MOL0     C50353   1.593   9.355   9.528  0.1490 -0.0069  0.7312
  382MOL0     C50354   1.717   9.433   9.482  0.2411 -0.2432  0.1620
  382MOL0     C50355   1.756   9.379   9.359  0.4626 -0.1341  0.1175
  382MOL0     C50356   1.796   9.338   9.248 -0.2532  0.1421  1.1837
  382MOL0     C50357   1.087   9.235   9.554 -0.6336 -0.2523 -0.6590
  382MOL0     C50358   0.949   9.231   9.581 -0.6499 -0.6178 -0.6515
  382MOL0     H50359   0.533   9.656   9.650 -1.2857  0.3284 -0.9086
  382MOL0     H50360   0.286   9.671   9.702 -0.4855  0.3611 -0.0840
  382MOL0     H50361   0.096   9.326   9.877  2.1555  0.3011 -2.0636
  382MOL0     H50362   0.059   9.422   9.742  0.6660 -2.1900 -0.0459
  382MOL0     H50363  -0.149   9.381   9.899 -0.8877  1.6600 -0.1840
  382MOL0     H50364  -0.092   9.555   9.903 -0.4828  0.2353  2.0922
  382MOL0     H50365   0.014   9.527  10.118 -1.0456  0.0210  2.3290
  382MOL0     H50366   0.000   9.344  10.102 -1.4134 -0.2274  0.0683
  382MOL0     H50367  -0.230   9.534  10.161  1.4831  0.5423 -1.0513
  382MOL0     H50368  -0.249   9.373  10.119  2.6077 -2.6836 -2.9605
  382MOL0     H50369  -0.098   9.472  10.358 -2.2507  1.6661 -1.6256
  382MOL0     H50370  -0.087   9.303  10.306  1.4979  0.2604 -1.8687
  382MOL0     H50371  -0.314   9.259  10.319  2.3403 -0.8635  1.2489
  382MOL0     H50372  -0.359   9.436  10.329  0.2708 -0.2277 -2.2420
  382MOL0     H50373  -0.217   9.286  10.552  1.8032  0.0342 -2.9681
  382MOL0     H50374  -0.284   9.455  10.555 -3.5312  0.2814  0.8913
  382MOL0     H50375  -0.449   9.273  10.654 -1.4721  0.7753  0.0221
  382MOL0     H50376  -0.468   9.230  10.478 -4.1123  0.7034 -0.6922
  382MOL0     H50377  -0.455   9.542  10.728 -4.7619  1.5036  3.7646
  382MOL0     H50378  -0.805   9.728  10.675 -1.3757  0.4591  4.1407
  382MOL0     H50379  -0.641   9.805  10.702  2.3905 -1.7531 -0.9161
  382MOL0     H50380  -0.625   9.702  10.901  1.4674 -2.9283  0.3506
  382MOL0     H50381  -0.730   9.564  10.866 -0.7242  0.0238  1.6834
  382MOL0     H50382  -0.819   9.756  11.019  5.0354  3.8624 -0.3439
  382MOL0     H50383  -0.859   9.839  10.872  0.2990 -0.8207  0.0552
  382MOL0     H50384  -0.966   9.574  10.974 -2.3254  2.1473  3.1824
  382MOL0     H50385  -0.971   9.605  10.797 -1.6374  0.9544  0.1392
  382MOL0     H50386  -1.271   9.903  10.922  1.2517  0.6402 -1.6432
  382MOL0     H50387  -1.507   9.856  10.915  2.1222  1.8698 -1.2455
  382MOL0     H50388  -1.872   9.883  11.012  1.5178 -0.9118  0.5662
  382MOL0     H50389  -2.122   9.880  11.056 -0.4271 -0.7310  3.4084
  382MOL0     H50390  -2.275   9.736  11.250 -0.3592 -0.9740  0.6174
  382MOL0     H50391  -2.291   9.564  11.236 -1.2136  0.8328  1.6433
  382MOL0     H50392  -2.522   9.605  11.120  2.1034  0.2427 -2.2831
  382MOL0     H50393  -2.512   9.771  11.175 -4.1385 -0.2843 -0.4249
  382MOL0     H50394  -2.475   9.694  11.414  0.5237  2.4302 -0.8043
  382MOL0     H50395  -2.510   9.530  11.357  2.7860  0.2788 -0.5262
  382MOL0     H50396  -2.716   9.635  11.464 -1.9813 -1.7596 -0.8425
  382MOL0     H50397  -2.702   9.772  11.354 -0.1593 -0.0499 -2.7632
  382MOL0     H50398  -2.801   9.506  11.264 -0.4167 -0.3085 -2.1224
  382MOL0     H50399  -2.738   9.633  11.153  0.3038  0.4786  0.0495
  382MOL0     H50400  -2.961   9.668  11.159  0.1529 -0.8066 -0.1833
  382MOL0     H50401  -2.899   9.788  11.276  0.0388  0.6520  0.9981
  382MOL0     H50402  -3.039   9.510  11.305 -0.9261  1.8498 -2.3769
  382MOL0     H50403  -3.000   9.613  11.453 -0.3050  1.6858  0.6505
  382MOL0     H50404  -3.176   9.666  11.214 -0.0177 -0.6735 -0.1900
  382MOL0     H50405  -3.144   9.780  11.338  1.5014 -0.2275  0.3296
  382MOL0     H50406  -2.124   9.458  10.968 -1.8772  0.7774  0.3728
  382MOL0     H50407  -1.871   9.447  10.961  0.1910 -0.0195 -1.2266
  382MOL0     H50408  -1.421   9.431  10.926 -1.9638 -0.3046 -2.5929
  382MOL0     H50409  -1.176   9.474  10.907 -0.7923 -1.2061  3.1618
  382MOL0     H50410   0.332   9.328   9.952  0.6268  0.0585 -1.0884
  382MOL0     H50411   0.557   9.304   9.894  0.3069 -0.7356 -2.1172
  382MOL0     H50412   0.913   9.563   9.681  0.1306 -0.5883  2.9951
  382MOL0     H50413   1.149   9.556   9.608  0.3058 -2.4319  0.2675
  382MOL0     H50414   1.301   9.200   9.402 -1.6055  0.2560  1.9741
  382MOL0     H50415   1.383   9.183   9.557  2.8968  1.4396  0.7878
  382MOL0     H50416   1.541   9.232   9.355  0.3067 -0.2582  0.7308
  382MOL0     H50417   1.478   9.390   9.340 -1.0280 -0.1497 -0.4336
  382MOL0     H50418   1.634   9.263   9.570  0.9146 -1.6594 -3.1291
  382MOL0     H50419   1.531   9.406   9.602 -0.4435 -1.7900  1.5146
  382MOL0     H50420   1.695   9.539   9.469  1.6808  0.2336  1.3061
  382MOL0     H50421   1.797   9.426   9.557  1.1313  2.7196 -0.3574
  382MOL0     H50422   1.825   9.283   9.161 -2.3693  2.5627 -1.2270
  382MOL0     H50423   1.110   9.137   9.515 -1.0815 -0.4947 -0.3326
  382MOL0     H50424   0.908   9.131   9.573  0.3263 -1.2545  1.5238
  383MOL0     O50425   4.583   3.263  10.099  0.2874  0.1346 -0.3443
  383MOL0     C50426   4.649   3.295   9.999 -0.4584  0.5370  0.1570
  383MOL0     O50427   4.605   3.319   9.873 -0.2090  0.4213 -0.0512
  383MOL0     C50428   4.470   3.295   9.851 -0.0638 -0.3940  0.4402
  383MOL0     C50429   4.425   3.159   9.837  0.7383  0.2373  0.2324
  383MOL0     C50430   4.294   3.127   9.803  0.6397 -0.2041  0.5999
  383MOL0     C50431   4.204   3.232   9.766 -0.2235 -0.0203  0.0575
  383MOL0     O50432   4.069   3.201   9.729  0.4934 -0.2363  0.3969
  383MOL0     C50433   4.027   3.065   9.712  0.5728 -0.2742 -0.6445
  383MOL0     C50434   3.871   3.070   9.696 -0.4809 -0.2516  0.6861
  383MOL0     C50435   3.816   2.926   9.689  0.1398 -0.1909  0.2110
  383MOL0     C50436   3.661   2.938   9.667 -0.2921 -0.5117  0.1932
  383MOL0     C50437   3.590   2.801   9.695 -1.8376 -0.0850  0.3091
  383MOL0     C50438   3.444   2.815   9.713  0.0689  0.8366 -0.8650
  383MOL0     C50439   3.368   2.686   9.718  0.6351 -0.3544 -0.3217
  383MOL0     C50440   3.434   2.565   9.651 -0.6843 -0.2611  0.4989
  383MOL0     N50441   3.348   2.455   9.673 -0.2115 -0.2906  0.0364
  383MOL0     C50442   3.280   2.390   9.576  0.3007  0.2409 -0.4043
  383MOL0     C50443   3.214   2.289   9.642  0.8730 -0.6372 -0.1555
  383MOL0     C50444   3.125   2.193   9.579  0.3270  0.0900 -0.8239
  383MOL0     C50445   2.970   2.226   9.595 -0.9260 -0.4446  0.3050
  383MOL0     C50446   2.894   2.085   9.586  0.3593 -0.9538  0.8236
  383MOL0     C50447   2.742   2.113   9.581  0.3755  0.1978 -0.0116
  383MOL0     O50448   2.688   1.989   9.540 -0.0644 -0.3037 -0.0557
  383MOL0     C50449   2.567   1.938   9.578 -0.0105  0.4499  0.0379
  383MOL0     C50450   2.466   2.015   9.646  0.2509  0.0135 -0.0855
  383MOL0     C50451   2.342   1.958   9.680  0.5882 -0.1576 -0.0927
  383MOL0     C50452   2.305   1.828   9.629  0.1353  0.4069  0.3884
  383MOL0     C50453   2.164   1.782   9.655 -0.2656 -0.1867  0.7009
  383MOL0     O50454   2.083   1.857   9.730  0.3241 -0.2384  0.5037
  383MOL0     C50455   1.960   1.803   9.748 -0.1844  0.3759  0.5119
  383MOL0     C50456   1.846   1.863   9.692  0.5529  0.2599 -0.1042
  383MOL0     C50457   1.716   1.831   9.731  0.8069  0.4481 -0.2508
  383MOL0     C50458   1.695   1.726   9.823 -0.0811 -0.0308  0.7408
  383MOL0     O50459   1.574   1.687   9.870 -0.0498  0.2033 -0.4127
  383MOL0     C50460   1.455   1.752   9.825  0.3812 -0.2425 -0.1584
  383MOL0     C50461   1.338   1.657   9.854 -0.4630 -0.8523  0.2482
  383MOL0     C50462   1.208   1.735   9.852  0.1454  0.2447  0.6923
  383MOL0     C50463   1.102   1.640   9.906  0.0578 -0.7239 -0.7013
  383MOL0     C50464   0.955   1.698   9.917 -0.9326 -0.2508  0.4629
  383MOL0     C50465   0.906   1.809   9.820 -1.5356 -0.3190  0.5154
  383MOL0     C50466   0.788   1.898   9.877 -0.2129  1.1525  0.0779
  383MOL0     C50467   0.654   1.814   9.886  0.9604 -0.6789 -0.2549
  383MOL0    Cl50468   0.511   1.929   9.870 -0.1261 -0.2680  0.2872
  383MOL0     C50469   1.806   1.659   9.877  0.1653 -0.5469  0.0239
  383MOL0     C50470   1.937   1.702   9.849  0.3617 -0.7245 -0.0042
  383MOL0     O50471   2.142   1.672   9.599 -0.0394 -0.1068 -0.0463
  383MOL0     C50472   2.401   1.756   9.564 -0.3859 -0.2716  0.3945
  383MOL0     C50473   2.533   1.806   9.544 -0.0838 -0.1994 -0.1529
  383MOL0     N50474   3.251   2.299   9.775  0.2139 -0.0588 -0.0550
  383MOL0     N50475   3.337   2.393   9.794 -0.5456 -0.3452 -0.0730
  383MOL0     C50476   4.241   3.363   9.774 -0.4280  0.6129 -0.1651
  383MOL0     C50477   4.376   3.395   9.815  0.1413  0.0130  1.1720
  383MOL0     C50478   4.793   3.299  10.017 -0.2011  0.4249  0.4404
  383MOL0     C50479   4.870   3.384   9.940  0.5381  0.2488 -0.3535
  383MOL0     C50480   5.006   3.401   9.973  0.2024  0.1340 -0.4858
  383MOL0     C50481   5.065   3.336  10.078  0.1588  1.2882  0.6237
  383MOL0     O50482   5.195   3.343  10.118  0.6312 -0.0305  0.1995
  383MOL0     C50483   5.293   3.312  10.021 -0.9926 -0.0835  0.4492
  383MOL0     C50484   5.374   3.444  10.004  0.5550  0.5149  0.7336
  383MOL0     C50485   5.492   3.435   9.900 -0.0707 -0.6739  0.8538
  383MOL0     C50486   5.595   3.536   9.935  0.2680 -0.4073  0.3490
  383MOL0     C50487   5.712   3.543   9.847  0.3361  0.5036 -0.0897
  383MOL0     C50488   5.800   3.555   9.766 -0.3051 -0.4355  0.7819
  383MOL0     C50489   4.990   3.260  10.164 -0.0365  0.2962 -0.5295
  383MOL0     C50490   4.852   3.241  10.138 -0.6132 -0.3947  0.2361
  383MOL0     H50491   4.493   3.079   9.865 -0.1157 -1.2042 -1.5928
  383MOL0     H50492   4.259   3.024   9.799  2.4449 -0.9192  1.8322
  383MOL0     H50493   4.037   3.003   9.802 -3.1184 -1.7093 -1.0114
  383MOL0     H50494   4.074   3.023   9.623  1.0641  1.2702 -1.1377
  383MOL0     H50495   3.847   3.115   9.600  0.5462 -2.6949 -0.8224
  383MOL0     H50496   3.816   3.122   9.775  1.9931 -1.1930  3.1941
  383MOL0     H50497   3.833   2.878   9.786 -0.3417 -0.5308  0.1321
  383MOL0     H50498   3.857   2.877   9.600  0.4007  0.6333 -0.1295
  383MOL0     H50499   3.633   3.017   9.737  4.5304  0.0682  1.8170
  383MOL0     H50500   3.656   2.972   9.563  1.6605  2.8628  1.0553
  383MOL0     H50501   3.641   2.756   9.781 -0.2939 -0.0700 -0.5473
  383MOL0     H50502   3.613   2.732   9.613 -1.7193 -2.0834  1.9330
  383MOL0     H50503   3.397   2.870   9.631  0.9628  3.4350  0.2603
  383MOL0     H50504   3.423   2.879   9.799  3.6938  2.0443 -0.7156
  383MOL0     H50505   3.331   2.657   9.817  0.9178  1.1791  0.2596
  383MOL0     H50506   3.275   2.707   9.666 -1.0259 -2.6325  1.5076
  383MOL0     H50507   3.530   2.549   9.702  0.8477  0.0054 -2.1238
  383MOL0     H50508   3.455   2.580   9.545 -0.2255 -4.0940 -0.1064
  383MOL0     H50509   3.276   2.411   9.470 -0.1972 -0.1354 -0.4649
  383MOL0     H50510   3.149   2.095   9.622  0.6231 -0.0328 -1.2633
  383MOL0     H50511   3.140   2.168   9.473 -0.1499 -3.1634 -0.2564
  383MOL0     H50512   2.941   2.308   9.529  2.4023 -0.2610 -1.1489
  383MOL0     H50513   2.949   2.260   9.697  0.9592 -0.7807  0.8509
  383MOL0     H50514   2.920   2.040   9.489 -2.8084  1.2642 -1.2437
  383MOL0     H50515   2.897   2.012   9.667 -1.1120 -2.1433 -0.1236
  383MOL0     H50516   2.710   2.187   9.506 -1.6789 -0.2062  0.4123
  383MOL0     H50517   2.712   2.150   9.679  0.5271  0.5781 -0.1039
  383MOL0     H50518   2.497   2.116   9.670  0.6989 -0.6442  2.3309
  383MOL0     H50519   2.280   2.018   9.745  1.9263  0.3570  0.7575
  383MOL0     H50520   1.853   1.943   9.620 -1.4518  0.5252 -0.0498
  383MOL0     H50521   1.638   1.894   9.689 -0.8876 -0.3367  1.5335
  383MOL0     H50522   1.466   1.769   9.718  1.6785  1.5649  0.2175
  383MOL0     H50523   1.455   1.848   9.877  2.6895  0.7192 -1.7791
  383MOL0     H50524   1.352   1.597   9.944 -3.8700  0.1451  1.6067
  383MOL0     H50525   1.333   1.586   9.771 -1.2474 -1.8390  1.1139
  383MOL0     H50526   1.201   1.776   9.751  1.9963  1.3580  0.9739
  383MOL0     H50527   1.214   1.822   9.918  1.2365  1.8947 -1.4600
  383MOL0     H50528   1.101   1.559   9.832  0.9894 -0.4659 -0.9996
  383MOL0     H50529   1.136   1.611  10.006 -1.3300  4.9911  1.8334
  383MOL0     H50530   0.954   1.745  10.016  0.5088  0.6703  0.0832
  383MOL0     H50531   0.886   1.614   9.912  0.9435 -2.3129  4.4822
  383MOL0     H50532   0.877   1.745   9.737 -1.0635 -1.1737  0.9914
  383MOL0     H50533   0.979   1.883   9.786 -2.7056  0.9722  0.6986
  383MOL0     H50534   0.801   1.935   9.979 -2.7306  2.5643 -0.0424
  383MOL0     H50535   0.774   1.986   9.814 -1.9035  1.2902  0.6075
  383MOL0     H50536   0.653   1.759   9.981 -1.0966  0.2007  0.2945
  383MOL0     H50537   0.646   1.747   9.801  0.9539 -0.3325 -0.5305
  383MOL0     H50538   1.778   1.583   9.949 -0.7800  0.0922  0.3494
  383MOL0     H50539   2.016   1.663   9.912  0.0622 -0.5661  0.4739
  383MOL0     H50540   2.385   1.656   9.524  0.6863 -0.8373  1.2955
  383MOL0     H50541   2.608   1.752   9.487  0.8658  2.6337 -1.8438
  383MOL0     H50542   4.170   3.444   9.772 -0.1214  1.0623  2.6256
  383MOL0     H50543   4.414   3.496   9.825  1.9348 -0.3911 -0.7662
  383MOL0     H50544   4.830   3.429   9.850 -0.4068 -1.6167 -0.9119
  383MOL0     H50545   5.077   3.460   9.917  1.2472  1.8551  2.4011
  383MOL0     H50546   5.254   3.280   9.924  0.8714  0.0208 -0.3755
  383MOL0     H50547   5.369   3.254  10.075 -1.4182  1.9242  3.4301
  383MOL0     H50548   5.298   3.516   9.973 -0.6763 -0.1857  2.0149
  383MOL0     H50549   5.404   3.481  10.103  1.0919 -1.6210  1.4238
  383MOL0     H50550   5.459   3.437   9.795  4.7564  2.4458 -0.9055
  383MOL0     H50551   5.546   3.340   9.909 -2.1475 -2.1331 -0.7427
  383MOL0     H50552   5.545   3.633   9.942 -2.7994 -1.6860 -1.9175
  383MOL0     H50553   5.638   3.515  10.034 -0.8293 -1.5139  0.6021
  383MOL0     H50554   5.857   3.556   9.675 -4.0087 -3.3072 -1.8943
  383MOL0     H50555   5.035   3.215  10.252  2.8053  1.8991 -1.0297
  383MOL0     H50556   4.800   3.175  10.208 -1.9481  0.0607 -0.2923
  384MOL0     O50557   2.787   7.548   9.185  0.3170 -0.1509 -0.0930
  384MOL0     C50558   2.800   7.430   9.199 -0.6459 -0.6131 -0.1165
  384MOL0     O50559   2.710   7.351   9.260 -0.1163  0.1270 -0.3346
  384MOL0     C50560   2.589   7.410   9.284  0.7757 -0.4221 -0.0192
  384MOL0     C50561   2.532   7.406   9.412 -0.2490 -0.1137 -0.5815
  384MOL0     C50562   2.414   7.465   9.446  0.8230 -0.1429 -0.5333
  384MOL0     C50563   2.335   7.527   9.346  0.0337  0.0897  0.2391
  384MOL0     O50564   2.215   7.578   9.380  0.5816 -0.0480  0.0851
  384MOL0     C50565   2.217   7.723   9.407  0.6338  0.0719  0.0996
  384MOL0     C50566   2.098   7.793   9.479 -0.5992 -0.0011 -0.7132
  384MOL0     C50567   1.964   7.748   9.413  0.7501  0.1473 -0.3074
  384MOL0     C50568   1.856   7.802   9.507  0.2623 -0.2795 -0.0675
  384MOL0     C50569   1.710   7.810   9.442  0.1059 -0.0149 -0.6515
  384MOL0     C50570   1.645   7.672   9.439  0.0965  0.4799  0.0579
  384MOL0     C50571   1.626   7.603   9.574 -0.3820 -0.0421 -0.0302
  384MOL0     C50572   1.543   7.687   9.677  0.0782 -0.0862 -0.3485
  384MOL0     N50573   1.530   7.617   9.802 -0.4506  0.0611 -0.3112
  384MOL0     C50574   1.464   7.497   9.818 -0.1982 -0.6899  0.6603
  384MOL0     C50575   1.484   7.470   9.947  0.2056  0.7998  0.3154
  384MOL0     C50576   1.428   7.347  10.020  0.1906 -0.0801  0.3847
  384MOL0     C50577   1.294   7.378  10.094  0.5623 -0.4185  0.0047
  384MOL0     C50578   1.274   7.245  10.174  0.4367 -0.1746  0.2410
  384MOL0     C50579   1.166   7.269  10.282  0.1743  0.3235  0.8045
  384MOL0     O50580   1.045   7.238  10.213 -0.0200  0.2806  0.2120
  384MOL0     C50581   0.919   7.260  10.274  0.7816  0.1654 -0.3067
  384MOL0     C50582   0.800   7.246  10.189 -0.0839 -0.5435  0.1096
  384MOL0     C50583   0.673   7.273  10.239  0.0879  1.0276  0.0694
  384MOL0     C50584   0.656   7.297  10.386  0.1483 -0.2042 -0.6146
  384MOL0     C50585   0.519   7.298  10.453 -0.8896 -0.0043 -0.4509
  384MOL0     O50586   0.423   7.276  10.364  0.4199 -0.6543  0.0007
  384MOL0     C50587   0.287   7.281  10.392 -0.2455 -0.1588 -0.6050
  384MOL0     C50588   0.196   7.298  10.285 -0.1408  0.2742 -0.1844
  384MOL0     C50589   0.057   7.300  10.294  0.2446  0.0499 -0.5999
  384MOL0     C50590   0.001   7.275  10.427  0.1857  0.1384 -0.6833
  384MOL0     O50591  -0.134   7.279  10.461 -0.4543 -0.6152  0.5252
  384MOL0     C50592  -0.226   7.232  10.359 -0.4582  0.1661  0.1253
  384MOL0     C50593  -0.371   7.219  10.404  0.5807  1.0776  0.2656
  384MOL0     C50594  -0.470   7.154  10.296  0.7421  0.0992 -0.7332
  384MOL0     C50595  -0.606   7.122  10.362 -0.2254 -0.4991  0.8461
  384MOL0     C50596  -0.602   6.984  10.443 -1.0568 -1.3121 -0.1167
  384MOL0     C50597  -0.743   6.936  10.490  0.8813  0.3724  0.4319
  384MOL0     C50598  -0.822   6.860  10.384 -0.0101  0.4063  0.9936
  384MOL0     C50599  -0.893   6.738  10.455 -0.1857  0.0364 -0.0380
  384MOL0    Cl50600  -1.021   6.791  10.561 -0.1210 -0.2290  0.2322
  384MOL0     C50601   0.090   7.259  10.532  0.3752 -0.9311 -0.6965
  384MOL0     C50602   0.223   7.266  10.518 -0.6443  0.1234 -0.3338
  384MOL0     O50603   0.509   7.327  10.572  0.8022  0.2248  0.3351
  384MOL0     C50604   0.776   7.309  10.468  0.1395  0.1962 -0.0821
  384MOL0     C50605   0.906   7.295  10.411  0.6776  0.0408 -0.0215
  384MOL0     N50606   1.561   7.565  10.009 -0.1044 -0.7663 -0.1889
  384MOL0     N50607   1.584   7.655   9.919 -0.4508  0.3793 -0.3544
  384MOL0     C50608   2.383   7.533   9.215  0.3199  0.6673 -0.1667
  384MOL0     C50609   2.500   7.462   9.186 -0.4108 -0.1860  0.0297
  384MOL0     C50610   2.923   7.359   9.154  0.1936 -1.0746 -0.3372
  384MOL0     C50611   3.029   7.436   9.104  0.7625  0.6433  0.3308
  384MOL0     C50612   3.136   7.368   9.054  0.0889  0.0317  0.3328
  384MOL0     C50613   3.154   7.222   9.062 -0.1476 -0.5985  0.4475
  384MOL0     O50614   3.261   7.160   9.017  0.3151 -0.2199 -0.7932
  384MOL0     C50615   3.260   7.027   8.953  0.4340 -0.1738 -0.2920
  384MOL0     C50616   3.291   7.027   8.803 -0.8978  0.0524 -0.7250
  384MOL0     C50617   3.392   7.133   8.757  0.3005 -0.3701  0.5694
  384MOL0     C50618   3.524   7.141   8.840 -0.4459  0.7969 -0.0411
  384MOL0     C50619   3.599   7.013   8.809  0.7931 -0.0227  0.0742
  384MOL0     C50620   3.657   6.906   8.811  0.8131  0.9272  0.6326
  384MOL0     C50621   3.044   7.148   9.111  0.3231 -0.7106  0.0998
  384MOL0     C50622   2.930   7.217   9.158  0.2465  0.8399  0.2180
  384MOL0     H50623   2.595   7.365   9.491 -4.5511 -2.7965  1.8759
  384MOL0     H50624   2.382   7.460   9.550  1.9501 -1.7692 -0.2327
  384MOL0     H50625   2.223   7.777   9.312 -2.0360  1.0660  0.4087
  384MOL0     H50626   2.305   7.745   9.468  0.1580 -0.5823  1.0473
  384MOL0     H50627   2.110   7.902   9.476  1.0302 -0.1540 -0.6988
  384MOL0     H50628   2.097   7.764   9.584 -1.1384  0.4954 -0.5746
  384MOL0     H50629   1.969   7.639   9.408 -0.0031  0.0988 -0.1109
  384MOL0     H50630   1.947   7.793   9.315 -1.3816 -0.6763 -0.3688
  384MOL0     H50631   1.843   7.741   9.598 -1.7261  2.5179  1.7114
  384MOL0     H50632   1.880   7.903   9.543 -2.2835  1.3748 -2.6133
  384MOL0     H50633   1.717   7.846   9.339 -0.5716  2.6931  0.1677
  384MOL0     H50634   1.642   7.878   9.494 -0.1843 -0.6426 -0.1964
  384MOL0     H50635   1.689   7.593   9.377  0.7109 -0.6736  1.8778
  384MOL0     H50636   1.546   7.688   9.396  0.1663 -0.4491 -0.4858
  384MOL0     H50637   1.570   7.511   9.558  1.2023 -0.5785 -3.5663
  384MOL0     H50638   1.719   7.572   9.622 -0.3454  0.4592  0.2336
  384MOL0     H50639   1.439   7.710   9.650 -0.2835 -1.6238 -0.3771
  384MOL0     H50640   1.604   7.775   9.697  3.2855 -1.9406 -1.2885
  384MOL0     H50641   1.411   7.436   9.746  0.6528  1.4554 -1.9367
  384MOL0     H50642   1.507   7.322  10.092  0.5674 -2.0271 -0.6310
  384MOL0     H50643   1.418   7.266   9.947  3.6207  0.2553 -0.6349
  384MOL0     H50644   1.205   7.392  10.032 -0.1739 -0.5510  1.0068
  384MOL0     H50645   1.315   7.464  10.158  0.1792  0.8880 -1.5769
  384MOL0     H50646   1.252   7.172  10.096  1.2583  0.9708 -1.1066
  384MOL0     H50647   1.366   7.209  10.222 -0.9325 -1.4413  2.0710
  384MOL0     H50648   1.172   7.369  10.327 -0.4042 -0.4820  2.7735
  384MOL0     H50649   1.187   7.200  10.364 -3.1632  0.7257  2.1518
  384MOL0     H50650   0.821   7.211  10.088 -3.4545 -1.1981 -0.4778
  384MOL0     H50651   0.580   7.263  10.185 -0.3547 -1.0738  1.1487
  384MOL0     H50652   0.240   7.307  10.186 -0.5811  0.5714 -0.3558
  384MOL0     H50653  -0.015   7.304  10.213  1.5779 -0.2662 -1.8365
  384MOL0     H50654  -0.191   7.136  10.319  1.1018  1.8807 -3.0031
  384MOL0     H50655  -0.229   7.305  10.277  3.2277 -1.0593 -1.2961
  384MOL0     H50656  -0.403   7.321  10.428  0.8541  0.9844  1.0477
  384MOL0     H50657  -0.381   7.150  10.488 -1.0507 -1.4833 -1.8549
  384MOL0     H50658  -0.432   7.063  10.249 -1.2647 -2.3171  1.9448
  384MOL0     H50659  -0.480   7.228  10.216  0.3682  1.4594  0.5321
  384MOL0     H50660  -0.642   7.197  10.432 -0.9139  0.8500 -0.8663
  384MOL0     H50661  -0.681   7.115  10.283  0.7221 -1.9566  0.0128
  384MOL0     H50662  -0.531   6.988  10.526 -0.3185  1.0118 -0.7856
  384MOL0     H50663  -0.554   6.910  10.378  0.2113 -2.1042  1.6458
  384MOL0     H50664  -0.797   7.023  10.528  2.3615  2.1467 -1.3154
  384MOL0     H50665  -0.721   6.867  10.572  4.6554 -0.9011 -1.4031
  384MOL0     H50666  -0.898   6.928  10.344  0.0898  2.8134  4.4802
  384MOL0     H50667  -0.748   6.829  10.310  2.9789  0.9191  3.5659
  384MOL0     H50668  -0.823   6.671  10.507 -2.0504 -0.3808  2.0851
  384MOL0     H50669  -0.929   6.676  10.372  2.5144  0.5348 -1.7135
  384MOL0     H50670   0.039   7.253  10.628 -4.0470 -1.6100 -2.8367
  384MOL0     H50671   0.282   7.262  10.609  0.6619  0.4751 -1.1369
  384MOL0     H50672   0.758   7.317  10.574 -0.0008  0.5001 -0.1274
  384MOL0     H50673   0.994   7.289  10.474 -1.7318 -4.5683  3.5045
  384MOL0     H50674   2.312   7.566   9.140  1.6743 -0.5029 -2.0441
  384MOL0     H50675   2.530   7.461   9.081 -1.0055  1.7113 -0.1968
  384MOL0     H50676   3.030   7.544   9.104  0.9641  0.6891  2.6824
  384MOL0     H50677   3.215   7.418   8.999 -0.9833 -1.2030 -2.5039
  384MOL0     H50678   3.165   6.977   8.976  0.6481 -1.5918 -2.2474
  384MOL0     H50679   3.334   6.967   9.008  1.7804  2.2170  0.6206
  384MOL0     H50680   3.339   6.932   8.776 -1.5996 -0.4219 -0.3474
  384MOL0     H50681   3.195   7.035   8.750 -0.4487  1.9436 -1.3099
  384MOL0     H50682   3.336   7.225   8.770 -2.2216 -1.6596 -0.4800
  384MOL0     H50683   3.404   7.111   8.650  0.8438 -2.9254  1.0772
  384MOL0     H50684   3.584   7.228   8.811  1.2423 -0.6536 -1.0921
  384MOL0     H50685   3.501   7.135   8.947 -0.9808 -2.6464 -0.2167
  384MOL0     H50686   3.710   6.813   8.810  0.1710  0.4290 -3.0001
  384MOL0     H50687   3.062   7.044   9.136  3.4317  0.0847  1.7762
  384MOL0     H50688   2.856   7.156   9.210 -1.1207  1.3095 -1.0957
  385MOL0     O50689   0.705   7.231  10.992  0.8106  0.6533 -0.4104
  385MOL0     C50690   0.748   7.193  10.888 -0.9026  0.4243  0.3825
  385MOL0     O50691   0.681   7.107  10.803  0.0405 -0.5204 -0.0216
  385MOL0     C50692   0.551   7.071  10.828 -0.1885 -0.3290  0.0840
  385MOL0     C50693   0.454   7.179  10.834 -0.0839 -0.6955 -0.2798
  385MOL0     C50694   0.319   7.149  10.860  0.0721 -0.4711 -0.6467
  385MOL0     C50695   0.275   7.017  10.873  0.3521 -0.3560  0.4892
  385MOL0     O50696   0.143   6.993  10.921 -0.4350 -0.5741 -0.0996
  385MOL0     C50697   0.038   7.088  10.886  1.2079 -0.2515  0.0635
  385MOL0     C50698  -0.088   7.033  10.958  0.1615  0.3813  0.7988
  385MOL0     C50699  -0.224   7.094  10.911  0.4840  0.3456  0.0968
  385MOL0     C50700  -0.334   6.991  10.962  0.4029 -0.4592  0.8765
  385MOL0     C50701  -0.478   7.053  10.951 -0.0356 -0.6357  0.0715
  385MOL0     C50702  -0.505   7.097  10.810 -0.3325  0.0437  1.3165
  385MOL0     C50703  -0.650   7.154  10.791 -0.1806 -0.3620 -0.4339
  385MOL0     C50704  -0.679   7.296  10.852  0.2395  0.5500 -0.1088
  385MOL0     N50705  -0.828   7.303  10.872 -0.4642 -0.0456  0.4001
  385MOL0     C50706  -0.923   7.321  10.769  0.5728 -0.1982 -1.0164
  385MOL0     C50707  -1.044   7.289  10.830  1.1948 -0.1148  0.4447
  385MOL0     C50708  -1.172   7.272  10.758 -1.1472 -0.6626 -0.5174
  385MOL0     C50709  -1.290   7.347  10.801 -0.0242  0.8396 -0.9072
  385MOL0     C50710  -1.352   7.281  10.922  0.2758  0.3089 -0.2659
  385MOL0     C50711  -1.480   7.353  10.970  0.6124  0.1482  0.2987
  385MOL0     O50712  -1.550   7.410  10.854  0.1925 -0.1664 -0.4907
  385MOL0     C50713  -1.660   7.496  10.883  0.2998  1.3852 -0.4054
  385MOL0     C50714  -1.677   7.575  11.001  0.5766  0.1320 -0.9661
  385MOL0     C50715  -1.793   7.649  11.032  0.3299 -0.0036 -0.6807
  385MOL0     C50716  -1.896   7.660  10.938 -0.2243 -0.1636  0.3057
  385MOL0     C50717  -2.018   7.736  10.965 -0.0981  0.6631  0.3979
  385MOL0     O50718  -2.102   7.751  10.856 -1.0067 -0.0649 -0.2981
  385MOL0     C50719  -2.231   7.801  10.872  0.3282  0.4637  0.8510
  385MOL0     C50720  -2.255   7.925  10.934 -0.2480 -0.1041  0.6082
  385MOL0     C50721  -2.386   7.970  10.940  0.5558  0.5637 -0.3280
  385MOL0     C50722  -2.495   7.894  10.892  0.0507  0.0854 -0.7654
  385MOL0     O50723  -2.622   7.957  10.908  0.2046 -0.2096 -0.5071
  385MOL0     C50724  -2.723   7.904  10.812 -0.7368  0.4320 -0.3037
  385MOL0     C50725  -2.851   7.969  10.814  0.0556 -0.9392 -0.1235
  385MOL0     C50726  -2.953   7.900  10.729 -0.4848 -0.0799 -0.0356
  385MOL0     C50727  -3.072   7.991  10.694  0.1632  0.0805  0.7200
  385MOL0     C50728  -3.183   7.897  10.633  0.3445 -0.8659  0.0727
  385MOL0     C50729  -3.316   7.979  10.635 -0.0057  0.0387 -0.5298
  385MOL0     C50730  -3.446   7.889  10.602 -0.4474 -0.2962 -0.0430
  385MOL0     C50731  -3.571   7.972  10.554 -0.0692 -0.0855 -0.2871
  385MOL0    Cl50732  -3.696   7.891  10.455  0.1626  0.4519 -0.0386
  385MOL0     C50733  -2.466   7.772  10.836  0.2402 -0.1022  0.3776
  385MOL0     C50734  -2.339   7.720  10.831  0.0811  0.3083 -0.3338
  385MOL0     O50735  -2.038   7.785  11.076 -0.4569 -0.4448  0.9977
  385MOL0     C50736  -1.878   7.591  10.819  0.5891  0.6513  0.2306
  385MOL0     C50737  -1.766   7.505  10.788  0.0401 -1.1951 -0.2920
  385MOL0     N50738  -1.022   7.258  10.959  0.7416  0.0306 -0.2139
  385MOL0     N50739  -0.897   7.280  10.987  0.0232  0.1502 -0.1733
  385MOL0     C50740   0.370   6.915  10.872 -0.6477 -0.4356  0.3345
  385MOL0     C50741   0.504   6.940  10.843  0.1417 -0.4794  0.5433
  385MOL0     C50742   0.878   7.239  10.849  0.4842 -0.0176  0.4629
  385MOL0     C50743   0.962   7.176  10.759  0.4602 -0.2886 -0.2763
  385MOL0     C50744   1.082   7.237  10.720  0.2250 -0.5462  0.8361
  385MOL0     C50745   1.134   7.349  10.788  0.6738 -0.2331  0.3731
  385MOL0     O50746   1.247   7.410  10.742 -0.1899  0.3547  0.6884
  385MOL0     C50747   1.273   7.553  10.775 -0.3936  0.7206  0.4760
  385MOL0     C50748   1.409   7.578  10.701 -0.0370  0.2981  0.8649
  385MOL0     C50749   1.541   7.558  10.775 -0.8387  0.4981  0.8381
  385MOL0     C50750   1.560   7.414  10.825  0.0337 -0.8214  0.0647
  385MOL0     C50751   1.698   7.381  10.855  0.3238 -0.3992 -0.2588
  385MOL0     C50752   1.815   7.356  10.868  0.1232  0.3179 -0.2171
  385MOL0     C50753   1.057   7.407  10.889 -0.4492 -0.0237  0.0303
  385MOL0     C50754   0.933   7.358  10.921 -0.9641  0.2198 -0.1718
  385MOL0     H50755   0.486   7.282  10.821  1.6786  0.1054  6.6355
  385MOL0     H50756   0.249   7.232  10.856 -0.7380 -1.1838 -1.7861
  385MOL0     H50757   0.020   7.093  10.778 -0.1200  0.8475  0.3108
  385MOL0     H50758   0.052   7.191  10.920  1.3451 -0.8347  1.8798
  385MOL0     H50759  -0.073   7.052  11.065 -0.6077  2.4469  0.5993
  385MOL0     H50760  -0.080   6.926  10.938  3.3238  0.2743  2.0598
  385MOL0     H50761  -0.220   7.089  10.802 -0.9212 -1.3739  0.0763
  385MOL0     H50762  -0.247   7.195  10.946 -2.1116 -0.4517  0.9204
  385MOL0     H50763  -0.334   6.902  10.897 -6.3421 -1.4169  1.4437
  385MOL0     H50764  -0.309   6.944  11.057 -1.5642 -0.7862  1.2764
  385MOL0     H50765  -0.473   7.143  11.013  1.9720  0.1779 -1.1522
  385MOL0     H50766  -0.561   6.993  10.990 -2.3095  1.4681 -1.2568
  385MOL0     H50767  -0.489   7.010  10.745  0.4998  1.9629 -1.1915
  385MOL0     H50768  -0.426   7.167  10.783  1.0774 -2.1479 -0.7022
  385MOL0     H50769  -0.671   7.166  10.685 -1.3712 -1.0762 -0.3038
  385MOL0     H50770  -0.718   7.081  10.837 -0.0244 -1.8330 -2.4143
  385MOL0     H50771  -0.646   7.371  10.780  0.7263 -0.9248 -1.4791
  385MOL0     H50772  -0.626   7.305  10.947  3.3632 -1.2538 -1.5140
  385MOL0     H50773  -0.906   7.353  10.667  2.4336  1.0372 -0.3689
  385MOL0     H50774  -1.193   7.165  10.753  2.0650 -1.4491  0.3594
  385MOL0     H50775  -1.151   7.313  10.658  1.4335  0.5615  0.4258
  385MOL0     H50776  -1.359   7.346  10.716 -0.7031  0.7446 -0.3685
  385MOL0     H50777  -1.261   7.451  10.814 -0.2116  0.8047 -0.1581
  385MOL0     H50778  -1.399   7.187  10.889 -2.8125  1.4428  0.5455
  385MOL0     H50779  -1.283   7.265  11.005  0.2748  1.4850 -0.0266
  385MOL0     H50780  -1.460   7.435  11.039  0.2489  0.8400 -0.4024
  385MOL0     H50781  -1.550   7.285  11.018  0.3539  0.5523  0.4928
  385MOL0     H50782  -1.595   7.575  11.072  0.8814  2.5245 -1.2043
  385MOL0     H50783  -1.805   7.691  11.131  0.7925 -1.9079  0.2430
  385MOL0     H50784  -2.174   7.978  10.983  1.9291 -3.4974  1.0682
  385MOL0     H50785  -2.413   8.070  10.973 -1.1553  0.7104 -1.9527
  385MOL0     H50786  -2.739   7.797  10.824 -1.6245  0.3436 -1.9931
  385MOL0     H50787  -2.674   7.920  10.716 -0.7567  2.7325  0.0067
  385MOL0     H50788  -2.831   8.063  10.762  0.9519 -1.4861 -0.7930
  385MOL0     H50789  -2.896   7.984  10.913  1.3093 -1.4427  0.5426
  385MOL0     H50790  -2.987   7.810  10.781 -1.2946 -0.4029 -1.0971
  385MOL0     H50791  -2.896   7.877  10.639  0.6178  1.7550  0.1390
  385MOL0     H50792  -3.115   8.039  10.783 -0.7006  2.0656 -0.6970
  385MOL0     H50793  -3.042   8.071  10.626  0.7638 -0.3080  0.5291
  385MOL0     H50794  -3.202   7.807  10.693 -2.0051  1.3919  3.0374
  385MOL0     H50795  -3.164   7.866  10.530 -1.0524  2.7839 -1.4393
  385MOL0     H50796  -3.303   8.054  10.557  1.0214 -2.6142 -3.0837
  385MOL0     H50797  -3.337   8.018  10.735 -1.8038 -0.5279 -0.6397
  385MOL0     H50798  -3.424   7.815  10.525 -0.6002 -0.0094 -0.3677
  385MOL0     H50799  -3.466   7.836  10.695  0.6452  0.1952  0.4891
  385MOL0     H50800  -3.535   8.050  10.487  0.6439 -0.6947 -0.6187
  385MOL0     H50801  -3.616   8.017  10.643 -0.9484  0.5223 -1.0127
  385MOL0     H50802  -2.537   7.695  10.807 -0.3473 -0.0998  1.7740
  385MOL0     H50803  -2.319   7.619  10.796 -5.2505 -1.4422  0.7236
  385MOL0     H50804  -1.956   7.605  10.744 -1.2326  0.9377  2.0808
  385MOL0     H50805  -1.757   7.444  10.699  1.9610 -0.4325 -0.6655
  385MOL0     H50806   0.328   6.816  10.879 -1.5537  0.0623  3.5665
  385MOL0     H50807   0.583   6.868  10.828  1.1299  0.5894  0.4869
  385MOL0     H50808   0.934   7.075  10.730  1.2654 -1.6012  3.1176
  385MOL0     H50809   1.136   7.201  10.633  1.0240 -2.2663  2.0029
  385MOL0     H50810   1.280   7.567  10.884 -4.9780  0.6604  0.9665
  385MOL0     H50811   1.190   7.611  10.734  1.3346  0.7627 -3.4355
  385MOL0     H50812   1.413   7.516  10.612  1.5124 -0.6345  1.5291
  385MOL0     H50813   1.406   7.683  10.669 -3.4164 -0.3842 -1.5188
  385MOL0     H50814   1.549   7.625  10.862 -0.6906 -0.5904  1.6833
  385MOL0     H50815   1.627   7.580  10.711 -0.9546  3.4523  1.5288
  385MOL0     H50816   1.491   7.406  10.910  1.5923  0.7458  1.5638
  385MOL0     H50817   1.523   7.345  10.748  1.0879  0.9000 -2.1164
  385MOL0     H50818   1.918   7.349  10.894  0.6571  1.5388 -1.8693
  385MOL0     H50819   1.098   7.495  10.936  1.8822  0.1958 -2.1873
  385MOL0     H50820   0.881   7.407  11.003  1.1413 -0.0627  1.4150
  386MOL0     O50821   8.611   4.910   6.223  0.0403 -0.5208 -0.1408
  386MOL0     C50822   8.561   4.859   6.123  0.4538 -0.4742  0.4755
  386MOL0     O50823   8.426   4.856   6.093 -0.0996 -0.0057 -0.0323
  386MOL0     C50824   8.328   4.932   6.164  0.3282  0.2394  0.3310
  386MOL0     C50825   8.196   4.878   6.144  0.3453  0.0794 -0.4836
  386MOL0     C50826   8.089   4.929   6.221 -0.1916 -1.5010 -0.8626
  386MOL0     C50827   8.107   5.035   6.313  0.9341  0.5240 -0.5432
  386MOL0     O50828   7.996   5.065   6.382  0.2694  0.9863 -0.0442
  386MOL0     C50829   7.994   5.189   6.453 -0.2511  0.1495 -0.3069
  386MOL0     C50830   7.848   5.211   6.517 -0.3179  1.1008  0.3985
  386MOL0     C50831   7.784   5.346   6.492  0.1247 -0.0065 -0.5203
  386MOL0     C50832   7.646   5.342   6.549  0.3793 -0.0602  0.5339
  386MOL0     C50833   7.576   5.487   6.553 -0.0952  0.1678 -0.0755
  386MOL0     C50834   7.438   5.495   6.616  0.2468  0.8277  0.3985
  386MOL0     C50835   7.332   5.444   6.506  0.3249  0.1795 -0.1654
  386MOL0     C50836   7.335   5.518   6.369 -0.1193  0.0860 -0.0911
  386MOL0     N50837   7.306   5.662   6.385 -0.1342 -0.8347 -0.5761
  386MOL0     C50838   7.190   5.715   6.431  0.3458 -0.1896  0.0335
  386MOL0     C50839   7.204   5.852   6.416 -0.9586  0.9821 -0.0814
  386MOL0     C50840   7.093   5.941   6.430  0.7882  0.5481  0.2990
  386MOL0     C50841   7.009   5.904   6.550  0.2308  0.5481  0.6618
  386MOL0     C50842   6.929   6.025   6.587  0.7049  0.3641 -0.4950
  386MOL0     C50843   6.793   6.028   6.514  0.0062  1.0711 -0.4819
  386MOL0     O50844   6.748   6.167   6.499 -0.1373  0.0679  0.5275
  386MOL0     C50845   6.624   6.193   6.442  0.0224  0.1590  0.0670
  386MOL0     C50846   6.536   6.095   6.393  0.3676 -0.5348 -0.1294
  386MOL0     C50847   6.414   6.136   6.334  0.0571 -0.8168  0.2793
  386MOL0     C50848   6.378   6.275   6.327 -0.5436 -0.1875 -0.0464
  386MOL0     C50849   6.246   6.324   6.279  0.4805  0.2786  0.1334
  386MOL0     O50850   6.231   6.456   6.246 -0.2572 -0.1579  0.3489
  386MOL0     C50851   6.113   6.506   6.207  0.5983 -0.7292 -0.4757
  386MOL0     C50852   6.005   6.444   6.143 -0.3819  0.0746  0.6881
  386MOL0     C50853   5.889   6.506   6.094 -0.3401  1.2153  0.0057
  386MOL0     C50854   5.896   6.646   6.103 -0.9886 -0.6391  0.0896
  386MOL0     O50855   5.808   6.733   6.037  0.0829 -0.1549  0.8917
  386MOL0     C50856   5.668   6.690   6.034 -0.0189 -0.0962 -0.1728
  386MOL0     C50857   5.592   6.773   5.931  0.3789 -0.0051  0.0807
  386MOL0     C50858   5.460   6.714   5.902 -1.0234 -0.3576  0.2093
  386MOL0     C50859   5.362   6.802   5.824  0.1861 -0.6035 -0.1155
  386MOL0     C50860   5.243   6.709   5.791 -0.7101  0.0827  0.5547
  386MOL0     C50861   5.117   6.786   5.726  0.3829  0.8598  0.6618
  386MOL0     C50862   4.991   6.706   5.723  0.6446  0.6034  0.5554
  386MOL0     C50863   4.899   6.749   5.607 -0.2029 -0.0551  1.0145
  386MOL0    Cl50864   4.731   6.701   5.656  0.4933  0.2682 -0.1510
  386MOL0     C50865   6.001   6.717   6.170 -0.0915 -0.4263  0.0402
  386MOL0     C50866   6.111   6.647   6.220  0.0521 -1.2192 -0.0645
  386MOL0     O50867   6.157   6.238   6.271 -0.7984 -0.6134  0.8246
  386MOL0     C50868   6.469   6.367   6.389 -0.4659  0.4009  0.3323
  386MOL0     C50869   6.591   6.328   6.433  0.1327 -0.5580  0.4939
  386MOL0     N50870   7.329   5.874   6.361 -0.0368 -0.3898 -0.2877
  386MOL0     N50871   7.390   5.763   6.347 -0.0502 -0.0712  0.0138
  386MOL0     C50872   8.236   5.098   6.315 -0.7435 -0.4932  0.4259
  386MOL0     C50873   8.344   5.045   6.238  1.1616 -1.3726 -0.2350
  386MOL0     C50874   8.667   4.799   6.034  0.2149 -0.2748  0.1219
  386MOL0     C50875   8.629   4.735   5.925  0.1559 -0.5066  1.6001
  386MOL0     C50876   8.722   4.673   5.844  0.4293 -0.6143  0.6092
  386MOL0     C50877   8.858   4.658   5.873  0.4180  0.2855 -0.9464
  386MOL0     O50878   8.930   4.592   5.776 -0.3574 -0.1931  0.1542
  386MOL0     C50879   9.063   4.633   5.740 -0.7793 -0.1076 -0.0198
  386MOL0     C50880   9.158   4.514   5.735  0.2115  0.0752 -1.0319
  386MOL0     C50881   9.293   4.536   5.663  0.2181  0.6740  0.1269
  386MOL0     C50882   9.334   4.400   5.622 -0.1018  0.1231 -0.6646
  386MOL0     C50883   9.476   4.398   5.585  0.3746 -0.2825  0.5846
  386MOL0     C50884   9.593   4.396   5.555 -0.1686 -0.2984  0.3523
  386MOL0     C50885   8.898   4.722   5.991 -0.2798 -0.7709  0.3479
  386MOL0     C50886   8.801   4.792   6.067 -0.5245 -0.1143 -0.2415
  386MOL0     H50887   8.191   4.785   6.089  1.0609 -0.7090  0.7500
  386MOL0     H50888   7.987   4.892   6.212 -0.9996 -0.2684  2.1689
  386MOL0     H50889   8.017   5.278   6.394  1.2067  1.5591  2.2192
  386MOL0     H50890   8.070   5.190   6.531  0.3020 -1.2610 -0.8026
  386MOL0     H50891   7.849   5.186   6.624 -2.1606  0.1753  0.2361
  386MOL0     H50892   7.785   5.134   6.472  0.0221  1.0346  0.0317
  386MOL0     H50893   7.780   5.352   6.382 -0.0406 -0.1564 -0.5232
  386MOL0     H50894   7.837   5.434   6.529  0.1205  1.7306 -4.1515
  386MOL0     H50895   7.583   5.278   6.487  2.8512 -2.8994  0.6790
  386MOL0     H50896   7.648   5.307   6.653  0.5785  0.1410  0.6016
  386MOL0     H50897   7.587   5.528   6.452  0.2098 -0.5254 -0.3299
  386MOL0     H50898   7.628   5.548   6.628  1.7375 -3.3040  1.6881
  386MOL0     H50899   7.416   5.599   6.640 -0.3092  0.8768 -0.3110
  386MOL0     H50900   7.430   5.442   6.711  1.5690 -1.7172 -0.8125
  386MOL0     H50901   7.348   5.338   6.484 -1.5276 -0.0594 -0.4863
  386MOL0     H50902   7.239   5.453   6.563  0.6926  0.4480  0.4028
  386MOL0     H50903   7.250   5.491   6.306 -1.9239  1.8407  1.4566
  386MOL0     H50904   7.431   5.507   6.319  1.1438  1.3599  1.9190
  386MOL0     H50905   7.113   5.652   6.473  2.0966 -1.1516  1.9667
  386MOL0     H50906   7.034   5.923   6.339  1.2157  0.1876  0.0898
  386MOL0     H50907   7.120   6.047   6.432 -0.8577  0.9818  0.9926
  386MOL0     H50908   7.081   5.873   6.626  2.5260 -2.7211 -2.5407
  386MOL0     H50909   6.936   5.823   6.536 -0.0984  1.1035 -1.1289
  386MOL0     H50910   6.914   6.038   6.694  0.5412  2.1645 -0.6991
  386MOL0     H50911   6.981   6.119   6.563  2.2602  0.1812  1.9002
  386MOL0     H50912   6.717   5.972   6.570 -0.8251 -0.7513 -3.2274
  386MOL0     H50913   6.797   5.987   6.413  1.5733  0.7529 -0.3131
  386MOL0     H50914   6.559   5.989   6.401 -0.3682 -0.6008  1.7788
  386MOL0     H50915   6.348   6.065   6.284  2.0818 -0.1671 -3.7897
  386MOL0     H50916   6.005   6.339   6.118  0.4703 -0.2762  2.0715
  386MOL0     H50917   5.820   6.441   6.042  2.7311 -0.4361 -2.2979
  386MOL0     H50918   5.626   6.701   6.134  2.8813  3.3527  0.8762
  386MOL0     H50919   5.662   6.583   6.013  0.2138 -0.2908  0.6958
  386MOL0     H50920   5.647   6.778   5.837 -0.9107 -1.0624 -0.7541
  386MOL0     H50921   5.571   6.874   5.969 -1.2122 -0.2526 -0.0694
  386MOL0     H50922   5.418   6.694   6.001 -0.5610  2.5702  1.0787
  386MOL0     H50923   5.479   6.617   5.854 -0.5154 -1.6847  2.9164
  386MOL0     H50924   5.319   6.882   5.885 -0.0009 -1.8138  1.4117
  386MOL0     H50925   5.402   6.829   5.726 -2.3331 -1.9911 -1.6527
  386MOL0     H50926   5.212   6.666   5.887 -3.4688 -0.4271 -0.4621
  386MOL0     H50927   5.277   6.628   5.727 -0.1363  0.6015  0.1953
  386MOL0     H50928   5.141   6.820   5.625  1.6335  0.2221  0.7222
  386MOL0     H50929   5.097   6.876   5.784  1.9696  1.9433 -0.4131
  386MOL0     H50930   5.022   6.602   5.708 -0.4963  0.1201  1.3691
  386MOL0     H50931   4.949   6.714   5.824  1.3232 -1.7008  1.0766
  386MOL0     H50932   4.925   6.707   5.509 -1.2693 -0.0382  0.7181
  386MOL0     H50933   4.896   6.858   5.612  0.9791  0.0038  0.7714
  386MOL0     H50934   6.000   6.825   6.167  1.6208 -0.3653  0.7016
  386MOL0     H50935   6.195   6.702   6.260  1.5079 -3.6492  0.4021
  386MOL0     H50936   6.456   6.473   6.403  0.6044  0.0657  5.8873
  386MOL0     H50937   6.660   6.407   6.461 -0.0738 -0.9808  2.2698
  386MOL0     H50938   8.241   5.188   6.375  4.7767  0.0531 -0.3072
  386MOL0     H50939   8.435   5.105   6.238  1.6573 -1.6376  4.8183
  386MOL0     H50940   8.529   4.739   5.884  0.7112  0.5674  0.2541
  386MOL0     H50941   8.697   4.622   5.751  2.1223  0.7101 -0.6528
  386MOL0     H50942   9.100   4.704   5.815 -2.4996 -0.5429  1.3157
  386MOL0     H50943   9.065   4.681   5.642 -1.6642 -2.1179 -1.0758
  386MOL0     H50944   9.173   4.477   5.837 -1.3621 -0.0047 -0.8132
  386MOL0     H50945   9.106   4.434   5.682  1.5540  0.0054 -2.2912
  386MOL0     H50946   9.362   4.578   5.737  0.3036 -1.1435  1.1587
  386MOL0     H50947   9.270   4.592   5.572  0.2484 -3.6902 -2.9323
  386MOL0     H50948   9.312   4.330   5.703 -3.0991  3.4510  1.7192
  386MOL0     H50949   9.270   4.382   5.535  1.2008  1.7113 -1.9996
  386MOL0     H50950   9.694   4.386   5.521 -0.6782  2.7173 -2.5239
  386MOL0     H50951   9.002   4.725   6.023 -1.0797  1.3479  3.1022
  386MOL0     H50952   8.838   4.833   6.160 -0.0302  0.6988 -0.7863
  387MOL0     O50953   1.551   5.644   9.895  0.2758 -0.0514 -0.0471
  387MOL0     C50954   1.585   5.690  10.009 -0.0817 -0.5290  0.9524
  387MOL0     O50955   1.518   5.790  10.088  0.0886  0.1555 -0.0785
  387MOL0     C50956   1.403   5.835  10.033 -0.4453 -0.6289  0.0295
  387MOL0     C50957   1.277   5.808  10.090 -0.2390 -0.3099 -0.7345
  387MOL0     C50958   1.155   5.859  10.036 -0.0950 -0.7340  0.5168
  387MOL0     C50959   1.158   5.920   9.906 -0.4430 -0.1431  0.7936
  387MOL0     O50960   1.042   5.963   9.845  0.2424 -0.6705 -0.3867
  387MOL0     C50961   1.038   5.967   9.704  0.6079 -0.8930  0.1083
  387MOL0     C50962   0.895   5.998   9.650  0.0368  0.2037 -0.4605
  387MOL0     C50963   0.802   5.876   9.682  0.0382 -0.5497  0.0686
  387MOL0     C50964   0.686   5.883   9.576  0.0920  0.2804 -0.4551
  387MOL0     C50965   0.557   5.805   9.628 -1.0432 -0.6572 -0.5098
  387MOL0     C50966   0.455   5.825   9.529  0.7373 -0.9360  0.1297
  387MOL0     C50967   0.332   5.736   9.558 -0.2535 -0.2941  0.6011
  387MOL0     C50968   0.257   5.799   9.676  0.6173 -0.2888 -0.3051
  387MOL0     N50969   0.116   5.761   9.694 -0.4441  0.5538  0.4168
  387MOL0     C50970   0.065   5.651   9.762  0.4208 -1.2617 -0.3265
  387MOL0     C50971  -0.078   5.667   9.752 -0.6399  0.3912 -0.5640
  387MOL0     C50972  -0.189   5.576   9.805 -0.3821  0.0779  0.6067
  387MOL0     C50973  -0.244   5.475   9.703 -0.3949  0.0907 -0.5028
  387MOL0     C50974  -0.369   5.402   9.747  0.7178  0.3901  0.5789
  387MOL0     C50975  -0.489   5.499   9.785 -0.1505 -0.5459 -0.4366
  387MOL0     O50976  -0.544   5.593   9.685 -0.0841 -0.0176 -0.4425
  387MOL0     C50977  -0.663   5.565   9.628 -0.1404  0.3165 -0.1451
  387MOL0     C50978  -0.772   5.657   9.637 -0.2251 -0.1823  0.0997
  387MOL0     C50979  -0.896   5.624   9.577 -1.3443 -0.6660  0.4601
  387MOL0     C50980  -0.911   5.509   9.506  0.9659  0.1918 -0.7104
  387MOL0     C50981  -1.037   5.469   9.441  0.4065 -0.5486  0.2304
  387MOL0     O50982  -1.132   5.569   9.425  0.6544 -0.4790 -0.2372
  387MOL0     C50983  -1.257   5.547   9.366 -0.7200 -0.1874 -0.1168
  387MOL0     C50984  -1.369   5.598   9.433 -0.1376  0.3271 -0.5604
  387MOL0     C50985  -1.500   5.580   9.383 -0.0050  0.3641 -0.1119
  387MOL0     C50986  -1.525   5.503   9.266  1.0781  0.2424  0.4585
  387MOL0     O50987  -1.658   5.481   9.223  0.0519  0.5030 -0.2961
  387MOL0     C50988  -1.696   5.463   9.084 -0.0953 -0.2942 -0.0096
  387MOL0     C50989  -1.847   5.432   9.073 -0.4644  0.3244  0.0736
  387MOL0     C50990  -1.928   5.554   9.135 -0.0434  0.5673 -0.6629
  387MOL0     C50991  -2.081   5.545   9.106  0.4309 -0.4012 -0.4322
  387MOL0     C50992  -2.166   5.622   9.208  0.1261 -0.5333 -0.5736
  387MOL0     C50993  -2.125   5.774   9.215 -1.0478 -0.4439 -0.0457
  387MOL0     C50994  -2.115   5.847   9.074  0.0260 -0.4421 -0.1373
  387MOL0     C50995  -2.100   5.998   9.090 -0.1485 -0.4676 -0.0161
  387MOL0    Cl50996  -2.236   6.085   9.184  0.2333  0.2108  0.3277
  387MOL0     C50997  -1.415   5.449   9.201  0.4229 -0.0660 -0.3638
  387MOL0     C50998  -1.282   5.471   9.249 -0.8818 -0.2810 -0.2931
  387MOL0     O50999  -1.039   5.356   9.390  0.0117 -0.7937  0.0055
  387MOL0     C51000  -0.793   5.433   9.486  0.3393  1.1565  0.0616
  387MOL0     C51001  -0.668   5.455   9.546  0.2934  0.1673  0.3892
  387MOL0     N51002  -0.103   5.782   9.687 -0.3157  0.1850 -0.5936
  387MOL0     N51003   0.013   5.838   9.653  0.3558  0.4038  0.1456
  387MOL0     C51004   1.292   5.948   9.849 -0.5930 -0.2470 -0.5688
  387MOL0     C51005   1.404   5.902   9.914 -0.2457 -0.6393 -0.9525
  387MOL0     C51006   1.696   5.629  10.087 -0.4086 -0.2489  0.8243
  387MOL0     C51007   1.759   5.686  10.194 -0.1907 -0.7904 -0.3935
  387MOL0     C51008   1.876   5.634  10.260 -0.4217 -0.7420  0.5840
  387MOL0     C51009   1.923   5.514  10.217  0.2527  0.2577 -0.4618
  387MOL0     O51010   2.032   5.479  10.295 -0.4299  0.2626  0.1469
  387MOL0     C51011   2.100   5.362  10.244 -0.2154  0.2635  0.2627
  387MOL0     C51012   2.228   5.323  10.323  0.2592 -0.4179 -0.3607
  387MOL0     C51013   2.300   5.192  10.284  0.6151  0.1143  0.1208
  387MOL0     C51014   2.405   5.150  10.389 -0.0273  0.4225  1.0079
  387MOL0     C51015   2.353   5.100  10.512 -0.6133 -0.5657  0.2178
  387MOL0     C51016   2.329   5.058  10.621  0.9436  1.5514  0.6184
  387MOL0     C51017   1.853   5.446  10.112 -0.1486  0.4320  0.3916
  387MOL0     C51018   1.741   5.504  10.048  0.9679  1.0167 -0.3805
  387MOL0     H51019   1.286   5.745  10.178 -1.2802 -1.0089 -1.1069
  387MOL0     H51020   1.062   5.864  10.091  0.1514  1.1700  0.8361
  387MOL0     H51021   1.082   5.878   9.657  1.1769 -0.3138 -0.4751
  387MOL0     H51022   1.094   6.051   9.662 -1.2434  0.8988  1.0352
  387MOL0     H51023   0.907   6.011   9.542 -0.2004 -1.7737 -0.7757
  387MOL0     H51024   0.861   6.089   9.700 -5.1035 -1.1224 -0.9476
  387MOL0     H51025   0.754   5.892   9.779 -1.2135  0.0464 -0.6194
  387MOL0     H51026   0.848   5.777   9.688  1.3384 -0.0279 -0.8772
  387MOL0     H51027   0.656   5.988   9.570  0.5673  0.4021 -0.7514
  387MOL0     H51028   0.711   5.829   9.484  1.3028 -1.3058  0.7416
  387MOL0     H51029   0.537   5.858   9.722 -1.2682  1.2261 -1.5745
  387MOL0     H51030   0.574   5.699   9.652 -1.5839 -0.5492  0.4218
  387MOL0     H51031   0.494   5.816   9.427  4.6084 -1.2109  1.4881
  387MOL0     H51032   0.424   5.929   9.522  1.0808 -0.9183 -3.3595
  387MOL0     H51033   0.257   5.745   9.478  1.0920 -1.9164 -0.9084
  387MOL0     H51034   0.366   5.633   9.563 -1.8021 -1.0694 -2.4533
  387MOL0     H51035   0.257   5.907   9.655 -0.0897 -0.3016 -0.3923
  387MOL0     H51036   0.306   5.789   9.773 -1.6184 -0.2531  0.8844
  387MOL0     H51037   0.119   5.569   9.808  1.9882  0.1936  0.5326
  387MOL0     H51038  -0.276   5.633   9.840 -0.6016 -0.0707  0.3015
  387MOL0     H51039  -0.149   5.533   9.897 -1.6007  1.9485  2.1122
  387MOL0     H51040  -0.172   5.398   9.671 -2.4169 -0.8974 -2.9697
  387MOL0     H51041  -0.260   5.542   9.619  3.7951  2.0059 -0.0685
  387MOL0     H51042  -0.410   5.333   9.674  2.8719 -0.7559  0.3791
  387MOL0     H51043  -0.359   5.334   9.832 -1.0145 -3.0612 -1.7719
  387MOL0     H51044  -0.456   5.565   9.866  3.4428  0.0652 -2.1995
  387MOL0     H51045  -0.578   5.446   9.822 -2.8926  2.0639 -2.7797
  387MOL0     H51046  -0.762   5.743   9.702 -1.5430  0.3322 -0.3478
  387MOL0     H51047  -0.985   5.688   9.573 -1.6160 -1.0909 -0.6243
  387MOL0     H51048  -1.353   5.651   9.526 -2.1695  0.2430 -0.1284
  387MOL0     H51049  -1.578   5.630   9.438  1.9842  3.7818 -0.0960
  387MOL0     H51050  -1.649   5.373   9.043  1.4786  1.1595 -1.5784
  387MOL0     H51051  -1.662   5.547   9.023  2.3741 -0.1039  1.4640
  387MOL0     H51052  -1.873   5.334   9.113 -1.0691  1.3590  2.3263
  387MOL0     H51053  -1.845   5.433   8.963  1.8998  0.6560  0.0576
  387MOL0     H51054  -1.887   5.648   9.099  0.4303  0.2256 -1.0446
  387MOL0     H51055  -1.919   5.551   9.244  0.7815 -0.4621 -0.7424
  387MOL0     H51056  -2.096   5.595   9.010 -0.8722  1.5389  0.7054
  387MOL0     H51057  -2.110   5.440   9.105  2.2132 -0.9689 -2.9543
  387MOL0     H51058  -2.149   5.572   9.304  2.3070  1.3048  0.0793
  387MOL0     H51059  -2.269   5.612   9.173  0.6434 -0.0389 -2.3111
  387MOL0     H51060  -2.025   5.783   9.260 -0.9635 -0.6748 -0.1900
  387MOL0     H51061  -2.193   5.835   9.276 -0.6541  2.4376 -2.2614
  387MOL0     H51062  -2.035   5.807   9.011  0.3070 -1.5595  0.8903
  387MOL0     H51063  -2.206   5.836   9.014 -0.5875  1.4593  0.3876
  387MOL0     H51064  -2.104   6.036   8.987  1.1097 -1.6212 -0.5296
  387MOL0     H51065  -2.006   6.026   9.138  0.4813  0.2705 -1.6296
  387MOL0     H51066  -1.423   5.399   9.106  1.5071  0.6275 -0.8439
  387MOL0     H51067  -1.197   5.426   9.198  0.0750  1.1856 -0.0559
  387MOL0     H51068  -0.789   5.355   9.411 -2.0500  3.5791 -2.8411
  387MOL0     H51069  -0.577   5.396   9.539  1.6060  2.0614  0.6660
  387MOL0     H51070   1.304   5.982   9.747 -0.0083 -2.6836 -1.3610
  387MOL0     H51071   1.504   5.919   9.875  1.1950 -2.0895  1.8321
  387MOL0     H51072   1.723   5.780  10.234  2.4060  1.4146 -2.7640
  387MOL0     H51073   1.917   5.699  10.336  1.3560  0.3784 -1.2566
  387MOL0     H51074   2.123   5.381  10.139  2.0736  2.0217  0.9852
  387MOL0     H51075   2.033   5.276  10.246 -2.0355  1.6228  0.3961
  387MOL0     H51076   2.301   5.397  10.290  0.3774 -0.6386 -0.5956
  387MOL0     H51077   2.208   5.327  10.431 -4.7365 -2.3167 -0.9352
  387MOL0     H51078   2.347   5.202  10.186  0.4013 -1.3659 -0.1698
  387MOL0     H51079   2.222   5.115  10.271  0.1648  0.2471  1.8096
  387MOL0     H51080   2.472   5.078  10.341  1.7524  1.6426  1.5383
  387MOL0     H51081   2.465   5.240  10.408  2.1753 -0.9551  0.9553
  387MOL0     H51082   2.318   5.012  10.717  0.5201  0.1069 -0.0996
  387MOL0     H51083   1.875   5.341  10.097 -0.4464  0.2297  1.2589
  387MOL0     H51084   1.674   5.442   9.988  1.3614  0.8389 -0.6384
  388MOL0     O51085   7.537  11.067   4.473  0.0101 -0.0502  0.2852
  388MOL0     C51086   7.607  10.990   4.534 -0.4209  0.2798 -0.2407
  388MOL0     O51087   7.576  10.860   4.554 -0.0707 -0.3843  1.1258
  388MOL0     C51088   7.457  10.817   4.501  0.1477 -0.2590 -0.6484
  388MOL0     C51089   7.470  10.736   4.392  0.0628 -0.1975 -0.1653
  388MOL0     C51090   7.354  10.684   4.342 -1.2679  0.0380  0.9124
  388MOL0     C51091   7.230  10.709   4.389 -0.3975  0.1980 -0.8705
  388MOL0     O51092   7.127  10.646   4.326  0.1813 -0.3092 -0.2509
  388MOL0     C51093   7.008  10.616   4.397  0.1314 -0.5679  0.1911
  388MOL0     C51094   6.919  10.529   4.307  0.0979 -0.3176 -0.9003
  388MOL0     C51095   6.814  10.454   4.388 -0.2777 -0.6338  0.6853
  388MOL0     C51096   6.704  10.396   4.292 -0.6895  0.4236  0.3227
  388MOL0     C51097   6.570  10.398   4.366 -0.1116 -0.2357 -0.2705
  388MOL0     C51098   6.453  10.368   4.261 -0.5760 -0.5572 -0.2922
  388MOL0     C51099   6.335  10.308   4.323 -0.1157 -0.2970 -0.3646
  388MOL0     C51100   6.257  10.240   4.211  0.7718  0.2470  0.0211
  388MOL0     N51101   6.146  10.160   4.268  0.0347 -0.9976 -0.4829
  388MOL0     C51102   6.156  10.025   4.306  0.8734 -0.0282 -0.4821
  388MOL0     C51103   6.031   9.990   4.357 -0.0140  0.0099 -0.1618
  388MOL0     C51104   5.988   9.854   4.400 -0.2432 -0.7598 -0.3615
  388MOL0     C51105   6.025   9.747   4.292 -0.0347  0.6797  0.2991
  388MOL0     C51106   5.962   9.609   4.313 -0.7891 -0.0040  1.1347
  388MOL0     C51107   5.812   9.591   4.294 -0.4195  0.0918 -0.0466
  388MOL0     O51108   5.787   9.451   4.258  0.1391  0.7225 -0.5269
  388MOL0     C51109   5.679   9.416   4.179 -0.6093  0.4346  0.4324
  388MOL0     C51110   5.667   9.288   4.139  0.6081  0.3377  0.0556
  388MOL0     C51111   5.557   9.238   4.062 -0.1105  0.2927 -0.5443
  388MOL0     C51112   5.462   9.337   4.018  0.7879  0.1615  0.0006
  388MOL0     C51113   5.342   9.305   3.938 -0.1649 -0.8042 -0.1949
  388MOL0     O51114   5.274   9.406   3.874 -0.5306  0.4951  0.0132
  388MOL0     C51115   5.187   9.377   3.780 -0.4984 -0.0814 -0.2027
  388MOL0     C51116   5.220   9.358   3.643 -0.4279 -0.6247  0.8156
  388MOL0     C51117   5.126   9.330   3.540  0.2879  0.1155 -0.2744
  388MOL0     C51118   4.997   9.288   3.582  0.1106 -0.5165 -0.0352
  388MOL0     O51119   4.906   9.247   3.491 -0.1918  0.3458  0.0377
  388MOL0     C51120   4.771   9.212   3.530 -0.2674  0.9656  0.5464
  388MOL0     C51121   4.675   9.232   3.405 -0.9021  0.8496 -0.3525
  388MOL0     C51122   4.515   9.212   3.432  0.4292 -0.2894 -0.8243
  388MOL0     C51123   4.436   9.261   3.305  0.9392 -0.8801 -0.3495
  388MOL0     C51124   4.285   9.259   3.317 -0.1213 -0.4161 -0.4283
  388MOL0     C51125   4.219   9.128   3.262  0.4209 -0.3923 -0.8992
  388MOL0     C51126   4.066   9.134   3.257  0.0166 -0.0715 -0.6205
  388MOL0     C51127   3.994   9.123   3.395 -0.9975 -0.5224 -0.5184
  388MOL0    Cl51128   3.820   9.121   3.384  0.7292  0.0251 -0.3244
  388MOL0     C51129   4.967   9.306   3.721 -1.0485 -0.2569  0.6579
  388MOL0     C51130   5.061   9.351   3.812  0.8382  0.7231  0.0802
  388MOL0     O51131   5.316   9.183   3.923 -0.4405 -0.4412 -0.7580
  388MOL0     C51132   5.487   9.478   4.048  0.9085 -0.1576  0.2569
  388MOL0     C51133   5.595   9.511   4.126  0.6887 -0.3842 -0.6875
  388MOL0     N51134   5.951  10.103   4.358 -0.1831  0.6263  0.1249
  388MOL0     N51135   6.021  10.207   4.307 -0.1583  0.4810  0.9411
  388MOL0     C51136   7.216  10.786   4.503 -0.6950 -0.2621 -0.0133
  388MOL0     C51137   7.331  10.854   4.550  0.1316  0.3362  0.4672
  388MOL0     C51138   7.748  11.028   4.586  0.2289  0.2273  0.4842
  388MOL0     C51139   7.841  10.933   4.634  0.5148  0.0210 -0.1065
  388MOL0     C51140   7.968  10.976   4.667 -0.1825 -0.3502  0.0010
  388MOL0     C51141   8.004  11.112   4.666  0.2872  0.2094  0.1760
  388MOL0     O51142   8.131  11.151   4.700 -0.3643  0.2516  0.3697
  388MOL0     C51143   8.237  11.048   4.726  0.2884 -0.2362 -0.6575
  388MOL0     C51144   8.366  11.116   4.753  0.2035 -0.5067  0.3140
  388MOL0     C51145   8.471  11.013   4.771 -0.6780  0.3069 -0.3393
  388MOL0     C51146   8.594  11.067   4.842 -0.5019  0.2663 -0.8139
  388MOL0     C51147   8.701  10.964   4.851 -0.0336  0.5487  0.3268
  388MOL0     C51148   8.790  10.883   4.871  0.4086 -0.4385  0.6556
  388MOL0     C51149   7.908  11.204   4.629  0.1190 -0.0561  0.9410
  388MOL0     C51150   7.789  11.160   4.574  0.3910 -0.9527  0.3315
  388MOL0     H51151   7.566  10.721   4.343  0.6313 -2.0497  1.3748
  388MOL0     H51152   7.372  10.622   4.255  0.7626  1.5096  0.2045
  388MOL0     H51153   6.957  10.710   4.419  0.7909  0.0518 -0.8434
  388MOL0     H51154   7.031  10.573   4.494 -1.9857  1.2139  1.5753
  388MOL0     H51155   6.975  10.448   4.260 -0.1126 -0.2355 -1.2961
  388MOL0     H51156   6.872  10.594   4.233  0.0769  2.5737  1.4929
  388MOL0     H51157   6.764  10.527   4.452  1.2127  2.6656 -1.6280
  388MOL0     H51158   6.856  10.383   4.459 -0.1071 -0.2027  1.0183
  388MOL0     H51159   6.696  10.460   4.203  2.0305 -0.5566 -0.7090
  388MOL0     H51160   6.731  10.297   4.257  1.9286  2.2267 -3.4555
  388MOL0     H51161   6.550  10.487   4.427  0.2689 -2.1326  2.8692
  388MOL0     H51162   6.569  10.319   4.442 -0.5721 -1.3948 -1.4486
  388MOL0     H51163   6.506  10.300   4.195 -0.8797 -1.4023  0.3172
  388MOL0     H51164   6.411  10.462   4.222 -0.2001  0.1141  0.8677
  388MOL0     H51165   6.362  10.230   4.395  0.8975 -1.7532 -2.2256
  388MOL0     H51166   6.271  10.381   4.374 -1.2162 -0.0190 -2.0713
  388MOL0     H51167   6.316  10.169   4.151  0.9166 -0.3439  0.8487
  388MOL0     H51168   6.228  10.325   4.150  0.6728  0.4845  0.3979
  388MOL0     H51169   6.234   9.950   4.301 -0.0452 -0.9754 -0.7466
  388MOL0     H51170   5.879   9.854   4.390 -0.2860  0.8006 -0.2482
  388MOL0     H51171   6.036   9.816   4.490  4.2905  3.7454 -0.3926
  388MOL0     H51172   6.133   9.730   4.283  0.4627  3.0636  1.0290
  388MOL0     H51173   5.998   9.793   4.197  2.7501  1.0822 -0.3810
  388MOL0     H51174   6.002   9.547   4.232  1.2916  0.0472  2.0784
  388MOL0     H51175   6.001   9.568   4.406  0.8859 -0.6679  0.1720
  388MOL0     H51176   5.786   9.665   4.218 -1.1851  0.0701  0.1861
  388MOL0     H51177   5.769   9.616   4.392 -1.5753 -2.0509  0.0397
  388MOL0     H51178   5.745   9.228   4.188  0.3053  3.0493  4.3879
  388MOL0     H51179   5.545   9.130   4.059  1.7608 -0.0936  2.1364
  388MOL0     H51180   5.322   9.390   3.620 -1.2571  0.9777 -0.9058
  388MOL0     H51181   5.146   9.326   3.433  0.4997 -3.6261 -0.2184
  388MOL0     H51182   4.734   9.273   3.614 -1.6653  0.2731  0.4708
  388MOL0     H51183   4.765   9.108   3.562 -2.7446  0.6908 -0.6092
  388MOL0     H51184   4.700   9.157   3.330  1.1101  0.3163  0.7804
  388MOL0     H51185   4.711   9.330   3.374  3.5408  0.9726  3.8673
  388MOL0     H51186   4.492   9.272   3.520 -0.5993 -2.2526  0.3269
  388MOL0     H51187   4.496   9.113   3.475  0.0105  0.0069 -0.3155
  388MOL0     H51188   4.456   9.364   3.276 -3.4033  1.0047  2.2483
  388MOL0     H51189   4.469   9.202   3.220 -0.8630 -1.6410 -0.5739
  388MOL0     H51190   4.250   9.338   3.250  0.7302 -0.6300 -1.1362
  388MOL0     H51191   4.239   9.276   3.416  0.3405 -1.1560 -0.0801
  388MOL0     H51192   4.254   9.043   3.321  1.3517  0.3101 -0.4224
  388MOL0     H51193   4.256   9.106   3.161 -1.7305 -1.8271 -1.4478
  388MOL0     H51194   4.035   9.228   3.209  2.4526  1.6922  1.0137
  388MOL0     H51195   4.039   9.046   3.197 -2.9419  0.2029  0.1851
  388MOL0     H51196   4.017   9.212   3.455 -0.3635 -0.0774 -1.4159
  388MOL0     H51197   4.023   9.028   3.441  0.7416  1.2696  2.4884
  388MOL0     H51198   4.872   9.295   3.773 -1.1717  3.3774  1.5104
  388MOL0     H51199   5.036   9.353   3.918 -2.8521 -0.8974 -0.5964
  388MOL0     H51200   5.414   9.551   4.015  0.3398 -0.9863 -0.3668
  388MOL0     H51201   5.605   9.617   4.150  0.3645 -0.9927  2.6030
  388MOL0     H51202   7.119  10.806   4.548 -1.0822 -1.7254 -0.1391
  388MOL0     H51203   7.312  10.925   4.630  1.3255 -0.6714  1.6819
  388MOL0     H51204   7.811  10.829   4.636 -2.4747  0.6892  4.5496
  388MOL0     H51205   8.038  10.897   4.692  1.3438  0.5469 -1.2917
  388MOL0     H51206   8.238  10.984   4.637  0.9671  0.5319 -1.2183
  388MOL0     H51207   8.200  10.983   4.806  0.6666  1.8702  1.3313
  388MOL0     H51208   8.388  11.168   4.660 -2.6270 -0.5097 -0.4599
  388MOL0     H51209   8.346  11.191   4.829  0.7844  1.1871 -1.1413
  388MOL0     H51210   8.510  10.972   4.677  1.1994 -1.4537  1.1189
  388MOL0     H51211   8.431  10.934   4.834 -0.3909  0.3451 -0.1072
  388MOL0     H51212   8.641  11.150   4.789  1.0709  1.0065  1.5915
  388MOL0     H51213   8.558  11.093   4.942  1.0131 -1.6552  0.3176
  388MOL0     H51214   8.876  10.826   4.902 -0.9288 -1.6953  2.2441
  388MOL0     H51215   7.940  11.307   4.632 -1.4954  0.5623 -0.6925
  388MOL0     H51216   7.725  11.242   4.544  2.2681  0.8538  1.0024
  389MOL0     O51217   4.695   8.804   5.413 -0.6590  0.3325 -0.0499
  389MOL0     C51218   4.717   8.697   5.470 -0.4424  0.3756  0.0952
  389MOL0     O51219   4.637   8.584   5.463 -0.4292  0.1057 -0.7958
  389MOL0     C51220   4.533   8.589   5.367  0.1042  0.1406  0.4853
  389MOL0     C51221   4.550   8.535   5.240 -1.3961  0.9259 -0.4291
  389MOL0     C51222   4.444   8.536   5.149  0.7427 -0.2687  0.2732
  389MOL0     C51223   4.317   8.575   5.181 -0.5048  0.2021 -0.0678
  389MOL0     O51224   4.221   8.533   5.093 -0.3155  0.3612 -0.2292
  389MOL0     C51225   4.122   8.449   5.156  0.4258 -0.1801 -0.0924
  389MOL0     C51226   3.985   8.487   5.120 -0.0751 -1.7682  0.5541
  389MOL0     C51227   3.957   8.636   5.158 -0.0095  0.3570  0.1166
  389MOL0     C51228   3.821   8.688   5.120 -0.3926 -0.6467 -0.4983
  389MOL0     C51229   3.712   8.619   5.203 -0.7476  0.9131  0.2148
  389MOL0     C51230   3.582   8.683   5.189 -0.3677 -0.2903 -0.3372
  389MOL0     C51231   3.468   8.598   5.258 -0.0862  0.1031  1.0076
  389MOL0     C51232   3.331   8.656   5.223 -0.2489  0.4939 -0.4925
  389MOL0     N51233   3.218   8.585   5.284 -0.3117 -0.8685  0.3657
  389MOL0     C51234   3.087   8.620   5.259  0.1507  0.1734 -0.4109
  389MOL0     C51235   3.019   8.538   5.338  0.4200  0.6324 -0.4237
  389MOL0     C51236   2.866   8.528   5.315  0.3790 -0.2841 -0.1650
  389MOL0     C51237   2.803   8.397   5.376  0.2074 -0.8542  0.3466
  389MOL0     C51238   2.655   8.396   5.348 -0.8440 -0.4395  0.0010
  389MOL0     C51239   2.593   8.286   5.430  0.7360  1.0234  0.0191
  389MOL0     O51240   2.449   8.303   5.399 -0.6137  0.6314  0.6172
  389MOL0     C51241   2.378   8.194   5.339  0.4870 -0.4397 -0.3452
  389MOL0     C51242   2.430   8.070   5.298 -0.2351  0.8342 -0.5632
  389MOL0     C51243   2.343   7.968   5.242  0.2286  0.7396  0.0936
  389MOL0     C51244   2.211   8.004   5.209 -0.0497 -0.3521 -0.3518
  389MOL0     C51245   2.127   7.901   5.145 -0.0379 -0.0999 -0.0237
  389MOL0     O51246   1.992   7.924   5.141  0.0201 -0.1542  0.6316
  389MOL0     C51247   1.917   7.826   5.092  0.2484  1.0673  0.1974
  389MOL0     C51248   1.901   7.702   5.159 -0.2357  0.4486 -0.2983
  389MOL0     C51249   1.820   7.601   5.106  0.0214  0.2370  0.7040
  389MOL0     C51250   1.770   7.616   4.974 -0.3191  0.2804 -0.4384
  389MOL0     O51251   1.683   7.524   4.927 -0.5169 -0.0596  0.3196
  389MOL0     C51252   1.592   7.460   5.022  0.0698  0.8140  0.6187
  389MOL0     C51253   1.483   7.557   5.070  0.3415 -0.0866 -0.9231
  389MOL0     C51254   1.376   7.482   5.154 -0.4967  0.2724 -0.1396
  389MOL0     C51255   1.237   7.544   5.165  0.3957  0.4138 -0.1821
  389MOL0     C51256   1.149   7.450   5.246 -0.2373  0.0542 -0.0529
  389MOL0     C51257   1.024   7.526   5.289  0.3660  0.1924 -0.2479
  389MOL0     C51258   0.940   7.448   5.398  0.6530 -0.1458  0.1265
  389MOL0     C51259   0.895   7.306   5.366  0.2421  0.6853  0.8025
  389MOL0    Cl51260   0.742   7.315   5.285  0.5121  0.3686  0.3791
  389MOL0     C51261   1.780   7.740   4.912  0.3177 -0.3602 -0.2436
  389MOL0     C51262   1.851   7.842   4.963 -0.3290 -0.3418 -0.4657
  389MOL0     O51263   2.184   7.799   5.105 -0.1424  0.0149 -0.5258
  389MOL0     C51264   2.166   8.135   5.236  0.2061  0.1319  0.1463
  389MOL0     C51265   2.246   8.228   5.298  0.3357  0.1375 -0.8941
  389MOL0     N51266   3.106   8.453   5.412  0.4299  0.3887  0.3102
  389MOL0     N51267   3.219   8.489   5.384 -0.3461 -0.3243  0.0388
  389MOL0     C51268   4.303   8.631   5.307 -0.3236  0.9660 -0.1354
  389MOL0     C51269   4.406   8.635   5.398 -0.2470 -0.3189  0.1911
  389MOL0     C51270   4.837   8.690   5.568 -0.6386  0.1576  0.2151
  389MOL0     C51271   4.940   8.790   5.575 -0.1073 -1.0120 -1.2836
  389MOL0     C51272   5.056   8.783   5.656 -0.3788  0.2792 -0.1180
  389MOL0     C51273   5.078   8.671   5.742 -0.2010  1.3843 -0.5375
  389MOL0     O51274   5.179   8.672   5.834  0.2080 -0.0858 -0.6490
  389MOL0     C51275   5.210   8.540   5.893  0.2043 -0.1336  0.2889
  389MOL0     C51276   5.311   8.572   6.005  0.0667  0.4767 -0.0916
  389MOL0     C51277   5.351   8.450   6.077 -0.2702  0.3715 -0.7662
  389MOL0     C51278   5.474   8.375   6.022  0.3738 -0.0398  0.8287
  389MOL0     C51279   5.524   8.267   6.107 -0.0378  0.3169 -0.0981
  389MOL0     C51280   5.560   8.164   6.162 -0.2143  0.3288 -0.9693
  389MOL0     C51281   4.985   8.564   5.720  0.1370 -0.2111 -0.3237
  389MOL0     C51282   4.866   8.578   5.640  1.0168 -0.2458  0.2157
  389MOL0     H51283   4.642   8.483   5.216 -0.7529  0.1809  3.0132
  389MOL0     H51284   4.462   8.481   5.057  0.4829  2.5201 -1.5941
  389MOL0     H51285   4.127   8.451   5.265 -1.9402  0.5380  0.0632
  389MOL0     H51286   4.142   8.345   5.128  0.2432 -0.1803 -0.2246
  389MOL0     H51287   3.920   8.423   5.182 -0.6080  0.6696  2.7054
  389MOL0     H51288   3.968   8.473   5.013  0.9886  2.0610 -0.2566
  389MOL0     H51289   4.021   8.711   5.111 -0.0119  1.7307  2.2123
  389MOL0     H51290   3.962   8.654   5.265 -1.6548  1.4063  0.0471
  389MOL0     H51291   3.816   8.788   5.165  1.9750 -1.6776  2.3307
  389MOL0     H51292   3.785   8.693   5.016 -1.8134 -3.2852 -0.2343
  389MOL0     H51293   3.744   8.628   5.307 -3.3004  5.0339  0.9033
  389MOL0     H51294   3.686   8.520   5.164  1.1630 -0.4062  2.0840
  389MOL0     H51295   3.570   8.673   5.080 -0.4944  0.0512 -0.3543
  389MOL0     H51296   3.578   8.788   5.218 -0.0169 -0.8369  1.8559
  389MOL0     H51297   3.476   8.497   5.218 -0.6568  0.9205 -1.3441
  389MOL0     H51298   3.486   8.612   5.365  3.2670  1.9306  0.3446
  389MOL0     H51299   3.319   8.643   5.115 -0.4318 -0.8120 -0.3298
  389MOL0     H51300   3.343   8.760   5.255 -0.9652  0.2539  0.6253
  389MOL0     H51301   3.043   8.681   5.182  0.8802 -1.8497 -2.5303
  389MOL0     H51302   2.850   8.536   5.208 -0.5661  2.1802  0.1032
  389MOL0     H51303   2.819   8.617   5.359 -1.0394 -1.2122  0.2785
  389MOL0     H51304   2.826   8.403   5.483 -0.1643 -1.5801  0.4714
  389MOL0     H51305   2.849   8.307   5.333  0.5690  0.4746 -2.2595
  389MOL0     H51306   2.607   8.485   5.391  1.3885  0.5172  0.6442
  389MOL0     H51307   2.625   8.385   5.243  0.3729  0.4392 -0.4583
  389MOL0     H51308   2.618   8.306   5.535  1.4026  1.2124 -0.1687
  389MOL0     H51309   2.638   8.191   5.398 -1.6560 -0.1178 -0.1297
  389MOL0     H51310   2.533   8.041   5.315 -0.5446  1.4086  3.1142
  389MOL0     H51311   2.390   7.879   5.201 -0.3209 -0.6077  2.2143
  389MOL0     H51312   1.944   7.707   5.258 -0.1708 -3.9664  0.1311
  389MOL0     H51313   1.817   7.512   5.169 -0.7932  1.1714  2.0312
  389MOL0     H51314   1.640   7.404   5.103 -2.6889 -1.2412  0.9792
  389MOL0     H51315   1.542   7.381   4.965  1.1158  0.2012  0.5047
  389MOL0     H51316   1.429   7.596   4.983 -0.6176  2.7860  0.8040
  389MOL0     H51317   1.537   7.637   5.122  2.1130  0.4406 -3.3886
  389MOL0     H51318   1.418   7.472   5.255  1.6266  2.2287 -0.7289
  389MOL0     H51319   1.363   7.381   5.114 -1.9983  0.4919 -0.2512
  389MOL0     H51320   1.231   7.646   5.203 -1.9490  1.0721 -2.0367
  389MOL0     H51321   1.207   7.544   5.060  2.8302 -1.3061 -0.9689
  389MOL0     H51322   1.204   7.424   5.337  0.1213 -2.8284 -1.0086
  389MOL0     H51323   1.148   7.353   5.195  1.2983 -0.7301  1.3206
  389MOL0     H51324   0.957   7.548   5.206 -1.9055  2.0820  1.9224
  389MOL0     H51325   1.055   7.617   5.341  2.7180 -0.8696  0.3742
  389MOL0     H51326   1.006   7.440   5.485  2.0342 -2.3836 -1.0328
  389MOL0     H51327   0.852   7.509   5.418 -1.6764 -2.1020 -3.1514
  389MOL0     H51328   0.890   7.244   5.456 -2.8286 -2.4531 -1.2574
  389MOL0     H51329   0.949   7.253   5.287  0.0678  0.6785  0.6874
  389MOL0     H51330   1.716   7.754   4.825  2.1984 -2.6955 -2.1465
  389MOL0     H51331   1.867   7.940   4.918 -0.4531 -0.5534 -0.9684
  389MOL0     H51332   2.065   8.159   5.205 -0.6803 -0.1846  2.5258
  389MOL0     H51333   2.217   8.331   5.316  0.3200  0.1436 -0.9510
  389MOL0     H51334   4.204   8.660   5.342 -0.0036  1.1894  0.6172
  389MOL0     H51335   4.386   8.692   5.489  1.2197  0.9834 -0.2454
  389MOL0     H51336   4.926   8.863   5.496 -0.8699 -0.3475 -0.5537
  389MOL0     H51337   5.135   8.858   5.652  1.0964 -1.2568 -0.7713
  389MOL0     H51338   5.247   8.471   5.817 -0.3104 -0.1675  0.0683
  389MOL0     H51339   5.118   8.497   5.934 -0.7128 -1.9716 -3.3039
  389MOL0     H51340   5.398   8.622   5.961  0.6476 -0.8022 -0.4504
  389MOL0     H51341   5.261   8.640   6.075  1.0593  0.4692  0.6544
  389MOL0     H51342   5.268   8.380   6.065  0.5818 -0.8048  0.0813
  389MOL0     H51343   5.350   8.470   6.184 -3.9447  1.0915 -0.7748
  389MOL0     H51344   5.475   8.345   5.917 -1.2734  3.0261 -0.1672
  389MOL0     H51345   5.554   8.448   6.025  0.3650 -0.0344  0.9648
  389MOL0     H51346   5.598   8.077   6.212 -4.0297 -1.1518 -0.3291
  389MOL0     H51347   4.968   8.474   5.779 -2.1550 -1.6493 -2.9633
  389MOL0     H51348   4.795   8.496   5.642 -0.5325  0.9900 -0.8169
  390MOL0     O51349   9.861   9.328   5.163  0.1272  0.1465  0.1198
  390MOL0     C51350   9.901   9.412   5.086 -0.8704 -0.2440 -0.2805
  390MOL0     O51351   9.850   9.542   5.064  0.6896  0.6867 -0.2030
  390MOL0     C51352   9.746   9.595   5.137  0.3272  0.7957  1.0402
  390MOL0     C51353   9.742   9.735   5.163  0.2945 -0.0024 -0.0995
  390MOL0     C51354   9.658   9.789   5.256 -0.2912  0.8284  0.2124
  390MOL0     C51355   9.563   9.719   5.320 -0.3988 -0.3404 -0.5013
  390MOL0     O51356   9.511   9.789   5.426 -0.4074  0.9645  0.5547
  390MOL0     C51357   9.416   9.719   5.508 -1.1898  0.1370  0.5331
  390MOL0     C51358   9.368   9.805   5.627  0.0232  0.2151 -0.3787
  390MOL0     C51359   9.251   9.739   5.687 -0.8709  0.1644 -0.4345
  390MOL0     C51360   9.185   9.822   5.801  0.6755 -0.3217 -0.0262
  390MOL0     C51361   9.085   9.736   5.881  0.5729  0.0093  0.1346
  390MOL0     C51362   8.953   9.704   5.811 -0.0655  0.1412 -0.5344
  390MOL0     C51363   8.864   9.622   5.896 -0.6089 -0.4115  0.6530
  390MOL0     C51364   8.747   9.575   5.812  0.5980  0.0562 -0.4204
  390MOL0     N51365   8.652   9.486   5.887 -0.2565  0.2898  0.4383
  390MOL0     C51366   8.682   9.360   5.938 -0.1513  0.0196 -0.0414
  390MOL0     C51367   8.571   9.309   6.001 -0.1102  0.2203  1.1717
  390MOL0     C51368   8.542   9.171   6.072  0.3570 -0.8061 -0.0485
  390MOL0     C51369   8.439   9.084   5.991  0.0838  0.1958 -0.9828
  390MOL0     C51370   8.293   9.124   6.022  0.5585 -1.3355 -0.0597
  390MOL0     C51371   8.184   9.031   5.962  0.3655 -0.4606  1.2275
  390MOL0     O51372   8.062   9.104   5.951  0.6300  0.3457  0.4064
  390MOL0     C51373   7.941   9.036   5.943  0.3693 -0.6856  0.8818
  390MOL0     C51374   7.837   9.112   5.884  0.0410 -0.1884 -1.4235
  390MOL0     C51375   7.715   9.046   5.868 -0.0728 -0.2988 -0.2363
  390MOL0     C51376   7.687   8.917   5.914  0.5288 -0.1701 -0.0498
  390MOL0     C51377   7.558   8.850   5.884  0.4557 -0.1980  0.4367
  390MOL0     O51378   7.466   8.928   5.852  0.2818  0.3950  0.7512
  390MOL0     C51379   7.338   8.877   5.823  0.0287 -0.2123 -0.4291
  390MOL0     C51380   7.279   8.772   5.905  0.2613  0.7137  0.5730
  390MOL0     C51381   7.149   8.718   5.868  0.6278  0.7450  0.0036
  390MOL0     C51382   7.089   8.764   5.748  0.0259 -0.0184 -0.1717
  390MOL0     O51383   6.964   8.729   5.713  0.5615  0.6058 -0.2156
  390MOL0     C51384   6.885   8.656   5.809 -0.0395  0.6081 -0.2890
  390MOL0     C51385   6.752   8.623   5.738  0.5772 -0.4297 -0.3498
  390MOL0     C51386   6.643   8.725   5.749  0.0282  0.0552 -0.1673
  390MOL0     C51387   6.532   8.701   5.655  0.4101 -0.8804  0.1142
  390MOL0     C51388   6.440   8.829   5.649  0.5573 -0.1588  0.3819
  390MOL0     C51389   6.313   8.796   5.572 -0.5241  0.4485 -0.3452
  390MOL0     C51390   6.198   8.898   5.557 -1.0251  0.6341 -0.6519
  390MOL0     C51391   6.147   8.948   5.697  0.5296  0.6334 -0.4731
  390MOL0    Cl51392   6.069   8.809   5.803 -0.0120 -0.0045 -0.4411
  390MOL0     C51393   7.148   8.865   5.676 -0.5413 -0.5573 -0.5338
  390MOL0     C51394   7.265   8.915   5.714 -0.0490  0.2707  0.2661
  390MOL0     O51395   7.561   8.730   5.908  0.0799 -0.6358 -0.3326
  390MOL0     C51396   7.790   8.859   5.987  0.9643  0.1970  0.4472
  390MOL0     C51397   7.922   8.910   5.998 -0.1901 -1.2735  0.7368
  390MOL0     N51398   8.475   9.407   5.987 -0.5886  0.1877  1.3395
  390MOL0     N51399   8.526   9.514   5.925  0.1480  0.6321  0.0378
  390MOL0     C51400   9.546   9.585   5.289  0.0581  0.2636  0.2674
  390MOL0     C51401   9.637   9.524   5.200  0.4362 -0.6876  0.2510
  390MOL0     C51402  10.007   9.367   5.007 -0.0860  0.3447  0.1597
  390MOL0     C51403  10.078   9.244   5.030  0.2762 -0.1613 -0.6260
  390MOL0     C51404  10.198   9.217   4.963 -0.9276  0.6588  0.3322
  390MOL0     C51405  10.240   9.299   4.857 -0.4065 -0.5493 -0.1707
  390MOL0     O51406  10.357   9.274   4.793 -1.2022  0.1228  0.6495
  390MOL0     C51407  10.358   9.207   4.667 -0.1682 -0.2130  0.5292
  390MOL0     C51408  10.498   9.148   4.655  0.0070 -0.6823  0.4740
  390MOL0     C51409  10.617   9.245   4.663  0.1844 -0.0171  0.0591
  390MOL0     C51410  10.667   9.295   4.531  0.1588  0.6867  0.5334
  390MOL0     C51411  10.780   9.388   4.546  0.9108  0.4741 -0.0251
  390MOL0     C51412  10.874   9.462   4.562  0.5325 -0.1942  0.1864
  390MOL0     C51413  10.165   9.406   4.816 -0.4412  0.0890 -0.4560
  390MOL0     C51414  10.048   9.436   4.891  0.0871 -0.1090  0.5611
  390MOL0     H51415   9.821   9.792   5.116  0.5359 -1.0438 -1.0082
  390MOL0     H51416   9.666   9.896   5.272 -1.1433  1.1634 -1.3724
  390MOL0     H51417   9.453   9.623   5.544 -0.0751  1.0056  1.7980
  390MOL0     H51418   9.328   9.688   5.451  0.1908 -1.1068 -1.0412
  390MOL0     H51419   9.344   9.905   5.589 -0.3660 -0.1359 -1.0678
  390MOL0     H51420   9.444   9.817   5.705 -1.7446 -2.3536  1.9361
  390MOL0     H51421   9.271   9.638   5.723 -3.2951 -0.3196 -0.2979
  390MOL0     H51422   9.181   9.732   5.604 -0.7994  1.2607 -0.6046
  390MOL0     H51423   9.269   9.839   5.869  1.7598 -0.1366 -1.3619
  390MOL0     H51424   9.137   9.916   5.774 -0.0812  0.5667  3.7627
  390MOL0     H51425   9.070   9.784   5.978  0.9009  0.2379  0.0735
  390MOL0     H51426   9.139   9.643   5.901  0.9950  0.1434 -0.3681
  390MOL0     H51427   8.985   9.653   5.719  2.6516  0.8235 -0.0353
  390MOL0     H51428   8.900   9.792   5.772 -1.9186 -1.4371 -1.8071
  390MOL0     H51429   8.926   9.538   5.927 -0.1657 -0.2262  0.2849
  390MOL0     H51430   8.834   9.673   5.988 -0.0146  3.6810 -1.1640
  390MOL0     H51431   8.794   9.511   5.736  1.6628 -0.7547  0.8685
  390MOL0     H51432   8.687   9.651   5.762 -0.6371 -2.4072 -2.9933
  390MOL0     H51433   8.784   9.324   5.922  0.7520  2.7944 -1.1400
  390MOL0     H51434   8.506   9.199   6.171  2.6488 -0.0525  0.6360
  390MOL0     H51435   8.627   9.104   6.085  0.0060 -0.8937  2.0628
  390MOL0     H51436   8.450   8.982   6.028  0.4642  0.4282 -0.4441
  390MOL0     H51437   8.464   9.089   5.884  0.6768  1.2837 -0.8135
  390MOL0     H51438   8.277   9.127   6.130 -0.6233  2.5233 -0.1823
  390MOL0     H51439   8.284   9.229   5.993  2.6471 -0.3349  2.5119
  390MOL0     H51440   8.180   8.943   6.028 -0.6461  0.3633  2.3093
  390MOL0     H51441   8.215   8.994   5.864  1.9547 -0.3072  1.6390
  390MOL0     H51442   7.851   9.209   5.838 -1.3272  0.1680 -1.1232
  390MOL0     H51443   7.640   9.096   5.807 -0.5218  1.2388  1.4965
  390MOL0     H51444   7.316   8.740   6.001 -1.6218 -0.5376  0.9437
  390MOL0     H51445   7.111   8.637   5.930  0.6222 -1.7845 -3.0316
  390MOL0     H51446   6.868   8.718   5.898 -0.0359  0.6821 -0.3389
  390MOL0     H51447   6.936   8.567   5.847 -0.8488 -0.0339 -0.6741
  390MOL0     H51448   6.719   8.532   5.788  1.3880 -1.2980 -1.3429
  390MOL0     H51449   6.752   8.596   5.632  0.3267 -1.7361 -0.0318
  390MOL0     H51450   6.695   8.811   5.705  0.2235 -1.0485 -2.2131
  390MOL0     H51451   6.603   8.742   5.849 -0.7199 -1.5339 -0.1695
  390MOL0     H51452   6.569   8.681   5.554  1.6782  0.5794  0.2537
  390MOL0     H51453   6.477   8.618   5.701  0.7734 -0.6297  1.0408
  390MOL0     H51454   6.480   8.907   5.584 -2.9719  2.9922  1.6004
  390MOL0     H51455   6.417   8.866   5.749 -0.6340 -0.3504  0.1976
  390MOL0     H51456   6.267   8.702   5.607 -0.7682  1.1756  1.3970
  390MOL0     H51457   6.362   8.772   5.478 -0.5502  0.9500 -0.4861
  390MOL0     H51458   6.238   8.988   5.508  1.1664  2.2304  3.5404
  390MOL0     H51459   6.116   8.856   5.498 -2.4320  1.0063  0.9662
  390MOL0     H51460   6.072   9.025   5.679 -0.3833  0.2443  1.3632
  390MOL0     H51461   6.226   8.990   5.761  1.0830 -2.3053  0.9373
  390MOL0     H51462   7.093   8.911   5.595 -0.2861 -1.7925 -1.4520
  390MOL0     H51463   7.307   8.997   5.657 -0.0030  0.3547  0.4199
  390MOL0     H51464   7.762   8.773   6.047  0.1969 -1.1466 -1.7309
  390MOL0     H51465   8.004   8.869   6.057  2.8317  1.7745 -1.0117
  390MOL0     H51466   9.475   9.524   5.342  1.2949  1.2441  3.2786
  390MOL0     H51467   9.624   9.420   5.173  1.7057  0.0460 -3.9725
  390MOL0     H51468  10.047   9.188   5.118  2.6559  1.7822  1.6352
  390MOL0     H51469  10.250   9.128   4.998 -0.2091  0.5835 -0.8522
  390MOL0     H51470  10.339   9.287   4.595 -1.9516 -2.4220 -1.6392
  390MOL0     H51471  10.279   9.134   4.648 -1.3698  1.2736 -0.4564
  390MOL0     H51472  10.498   9.064   4.725 -2.6469 -1.7048 -0.6117
  390MOL0     H51473  10.499   9.106   4.554  0.9818 -1.2494  0.7123
  390MOL0     H51474  10.697   9.185   4.707 -2.3136 -3.1813  0.6642
  390MOL0     H51475  10.582   9.322   4.733  0.6000  0.9531 -0.7798
  390MOL0     H51476  10.702   9.210   4.473 -0.1848  0.2616  0.9358
  390MOL0     H51477  10.587   9.351   4.482 -2.0984 -3.4642 -1.0855
  390MOL0     H51478  10.955   9.531   4.572 -1.0455  1.7029  0.3087
  390MOL0     H51479  10.198   9.472   4.736 -2.6814  0.2208 -1.3415
  390MOL0     H51480   9.992   9.522   4.856 -1.8676 -0.6753  2.1218
  391MOL0     O51481   5.195   3.844  11.170 -0.8008 -0.2965  0.2017
  391MOL0     C51482   5.117   3.898  11.089  0.1367  0.0504 -0.4874
  391MOL0     O51483   4.983   3.904  11.109  0.5842 -0.1411 -0.2781
  391MOL0     C51484   4.924   3.897  11.238 -0.1344  0.1617  0.1043
  391MOL0     C51485   4.980   3.941  11.359 -0.9796  0.7582 -0.2871
  391MOL0     C51486   4.903   3.931  11.476 -0.3398 -0.2568  0.4399
  391MOL0     C51487   4.770   3.882  11.479 -0.9551  0.2527  0.1560
  391MOL0     O51488   4.684   3.862  11.590  0.3002 -0.6614 -0.6833
  391MOL0     C51489   4.606   3.978  11.631  0.1337  0.4387  0.2120
  391MOL0     C51490   4.459   3.950  11.594  0.5874  0.3308  0.0472
  391MOL0     C51491   4.361   4.016  11.695 -0.3554 -0.0962  0.5329
  391MOL0     C51492   4.218   4.011  11.645 -0.1918  0.6147 -0.1297
  391MOL0     C51493   4.127   4.108  11.713 -0.2558  0.0678  0.5711
  391MOL0     C51494   3.992   4.044  11.706 -0.0455 -0.5729  0.5252
  391MOL0     C51495   3.894   4.111  11.799  1.0352 -0.1631 -0.6698
  391MOL0     C51496   3.744   4.078  11.759  0.0800 -1.2031  0.1659
  391MOL0     N51497   3.653   4.164  11.826  0.5148  0.9113  0.0702
  391MOL0     C51498   3.529   4.121  11.862 -0.0763 -0.7797 -0.7894
  391MOL0     C51499   3.475   4.218  11.942 -0.4297  0.7920  0.0380
  391MOL0     C51500   3.352   4.217  12.013 -0.2672 -0.0265  0.6113
  391MOL0     C51501   3.261   4.308  11.926  0.1269  0.5533  0.1057
  391MOL0     C51502   3.128   4.297  12.001  0.0918  1.0549  0.2122
  391MOL0     C51503   3.007   4.349  11.914 -0.3542  0.4359  0.7450
  391MOL0     O51504   2.992   4.266  11.795 -0.9276  0.5227 -0.1118
  391MOL0     C51505   2.892   4.286  11.708  0.1029 -0.5564  0.7330
  391MOL0     C51506   2.792   4.381  11.726  0.5834  0.5491  0.5209
  391MOL0     C51507   2.692   4.398  11.622 -0.1559 -0.2677 -0.7738
  391MOL0     C51508   2.684   4.321  11.515 -0.1794 -0.2903  0.3190
  391MOL0     C51509   2.578   4.342  11.412 -1.2226  0.2939  0.5145
  391MOL0     O51510   2.471   4.410  11.456  0.1197 -0.6130  0.7050
  391MOL0     C51511   2.348   4.408  11.379 -0.4958  0.2771  0.1656
  391MOL0     C51512   2.248   4.492  11.416  1.2116  0.5965 -0.6708
  391MOL0     C51513   2.118   4.494  11.356 -0.6222  0.5351 -0.6149
  391MOL0     C51514   2.093   4.399  11.258  0.5174 -0.2797 -0.1155
  391MOL0     O51515   1.963   4.394  11.217  0.2341 -0.2251 -0.6732
  391MOL0     C51516   1.926   4.324  11.100 -0.5374 -0.0234 -0.7378
  391MOL0     C51517   1.799   4.382  11.039  0.8305  0.5191  0.0021
  391MOL0     C51518   1.670   4.359  11.112 -0.7868  0.6674  0.7442
  391MOL0     C51519   1.557   4.441  11.050  0.1446 -0.5138 -0.1341
  391MOL0     C51520   1.433   4.463  11.147 -0.8234 -0.1304  0.4537
  391MOL0     C51521   1.311   4.500  11.061  0.0069  0.2884 -0.0992
  391MOL0     C51522   1.240   4.368  11.014  0.0603  0.6479 -1.2901
  391MOL0     C51523   1.158   4.402  10.892  0.0861  0.5370 -0.4077
  391MOL0    Cl51524   1.000   4.487  10.939  0.4635 -0.4017  0.1575
  391MOL0     C51525   2.194   4.314  11.220 -0.1807  0.1979  0.4108
  391MOL0     C51526   2.321   4.321  11.270 -0.0378  0.0863  0.0662
  391MOL0     O51527   2.612   4.320  11.294  0.2179  0.8286  0.5648
  391MOL0     C51528   2.783   4.219  11.498 -0.4143 -0.7690  0.6698
  391MOL0     C51529   2.882   4.197  11.594  0.5235  0.5210 -0.5733
  391MOL0     N51530   3.570   4.320  11.941 -0.5856 -0.8867 -0.1318
  391MOL0     N51531   3.670   4.291  11.861  0.7009 -0.4806 -0.5847
  391MOL0     C51532   4.716   3.843  11.357 -0.3235 -0.4624 -0.4809
  391MOL0     C51533   4.789   3.857  11.245  0.6797  0.4424  0.2092
  391MOL0     C51534   5.161   3.982  10.976 -0.2524 -0.4544 -0.3308
  391MOL0     C51535   5.289   4.044  10.978 -0.6758  0.2298  0.1643
  391MOL0     C51536   5.339   4.118  10.867 -0.6817 -0.2814 -0.2495
  391MOL0     C51537   5.263   4.126  10.750 -0.0218 -0.0780  0.8022
  391MOL0     O51538   5.284   4.207  10.644 -1.3462 -0.3303 -0.2877
  391MOL0     C51539   5.407   4.284  10.645 -0.3818 -0.6093 -0.7601
  391MOL0     C51540   5.526   4.196  10.614 -0.7890  0.4597  0.2375
  391MOL0     C51541   5.663   4.271  10.594  0.7761  1.1238 -0.4207
  391MOL0     C51542   5.733   4.299  10.731 -0.3690  0.3439  1.1681
  391MOL0     C51543   5.870   4.346  10.708 -1.5255 -0.7342 -0.3529
  391MOL0     C51544   5.992   4.369  10.696  0.2417  0.4189  0.1635
  391MOL0     C51545   5.128   4.078  10.763 -0.0110  1.0662  0.0198
  391MOL0     C51546   5.075   4.017  10.877  0.5421  0.7904  0.0663
  391MOL0     H51547   5.083   3.974  11.368 -0.6370 -0.3287 -0.0354
  391MOL0     H51548   4.933   3.972  11.572  2.7601  1.0099 -0.9151
  391MOL0     H51549   4.633   4.068  11.575 -0.6661  0.8532  0.4773
  391MOL0     H51550   4.613   4.013  11.734 -3.6079  1.5414  0.2646
  391MOL0     H51551   4.418   3.848  11.597 -1.0871  0.9849  2.2926
  391MOL0     H51552   4.439   3.986  11.493 -1.3363 -1.7965 -0.4107
  391MOL0     H51553   4.384   4.123  11.685  0.0092 -0.3085 -1.2196
  391MOL0     H51554   4.369   3.982  11.798 -1.4546  0.2423  0.7393
  391MOL0     H51555   4.210   4.028  11.538 -1.9847  2.1510  0.1926
  391MOL0     H51556   4.185   3.909  11.669 -0.1038  0.9271  1.4377
  391MOL0     H51557   4.132   4.198  11.652 -1.5184 -0.9162 -1.0679
  391MOL0     H51558   4.165   4.116  11.815 -2.0700 -0.4360  1.3436
  391MOL0     H51559   4.006   3.944  11.749  4.2115 -0.3514  0.1317
  391MOL0     H51560   3.945   4.047  11.608  2.5717  0.8861 -0.7878
  391MOL0     H51561   3.910   4.083  11.904  1.2013  0.4308 -0.5331
  391MOL0     H51562   3.907   4.219  11.789 -0.5582 -0.0125 -1.4598
  391MOL0     H51563   3.724   3.971  11.766  3.3197 -1.8457  1.2572
  391MOL0     H51564   3.733   4.120  11.658  2.8081  1.7601  0.9312
  391MOL0     H51565   3.478   4.029  11.835  0.6191 -1.4910  0.2182
  391MOL0     H51566   3.362   4.252  12.116  0.1373  1.7661 -0.0023
  391MOL0     H51567   3.313   4.115  12.009  0.1541 -0.2042  0.9655
  391MOL0     H51568   3.250   4.276  11.822 -0.1638 -3.6055  1.2585
  391MOL0     H51569   3.298   4.411  11.922 -1.8193  1.2987  0.2590
  391MOL0     H51570   3.119   4.192  12.030  0.4655  0.4195 -1.8148
  391MOL0     H51571   3.140   4.362  12.089  4.6095 -0.2971  0.8739
  391MOL0     H51572   3.005   4.457  11.896  1.1364  0.5082  0.9029
  391MOL0     H51573   2.918   4.319  11.969 -1.6972 -0.3317 -1.6826
  391MOL0     H51574   2.799   4.443  11.814  0.4211  0.8895  0.2956
  391MOL0     H51575   2.617   4.476  11.637 -0.4103 -0.8002  0.9593
  391MOL0     H51576   2.280   4.557  11.496 -0.2827  0.8733 -0.2583
  391MOL0     H51577   2.044   4.555  11.406 -2.3075 -1.7146 -0.1977
  391MOL0     H51578   1.914   4.215  11.108 -3.8538  0.2017 -1.0261
  391MOL0     H51579   2.007   4.343  11.030  0.4874  0.4000  0.5185
  391MOL0     H51580   1.789   4.337  10.940  0.9122  0.9703 -0.2148
  391MOL0     H51581   1.811   4.488  11.015  1.8017  0.5952  0.7186
  391MOL0     H51582   1.684   4.369  11.220 -0.0432 -4.7841  1.4611
  391MOL0     H51583   1.638   4.255  11.096  0.7498  0.3081 -0.1768
  391MOL0     H51584   1.593   4.542  11.026 -3.6513  1.4861  1.6309
  391MOL0     H51585   1.532   4.393  10.955  2.3686  0.6721 -1.4019
  391MOL0     H51586   1.462   4.547  11.210 -0.1052  0.3200 -0.4637
  391MOL0     H51587   1.398   4.372  11.198 -0.4094 -0.1873  0.6439
  391MOL0     H51588   1.350   4.569  10.986  1.1853  0.8556  1.0070
  391MOL0     H51589   1.236   4.552  11.122 -2.2952 -1.8222 -0.9377
  391MOL0     H51590   1.318   4.297  10.985 -0.8160 -0.2008 -1.6166
  391MOL0     H51591   1.183   4.322  11.095 -0.1840  0.7606 -1.3969
  391MOL0     H51592   1.126   4.314  10.836 -0.3594  0.2606  0.2622
  391MOL0     H51593   1.223   4.457  10.824  1.5972  0.9639  1.3104
  391MOL0     H51594   2.175   4.240  11.142 -0.1475  1.1130 -0.4954
  391MOL0     H51595   2.397   4.253  11.234  0.9248  1.3108 -0.2795
  391MOL0     H51596   2.789   4.164  11.405  2.2100  1.8178 -0.8732
  391MOL0     H51597   2.958   4.120  11.588  0.2279  0.3190 -2.1220
  391MOL0     H51598   4.620   3.793  11.364 -0.2457 -0.4622  0.6926
  391MOL0     H51599   4.752   3.815  11.152 -1.0755 -0.6998  1.3617
  391MOL0     H51600   5.361   4.038  11.059  0.6345 -4.1776 -1.0492
  391MOL0     H51601   5.441   4.153  10.881 -0.6666 -0.1497 -0.6869
  391MOL0     H51602   5.429   4.333  10.740  1.3067  1.2784 -2.0488
  391MOL0     H51603   5.383   4.364  10.574  0.7834  0.9321  0.5192
  391MOL0     H51604   5.531   4.119  10.691 -0.0216  2.6866  2.5454
  391MOL0     H51605   5.512   4.153  10.514  1.0321  1.5992 -0.5704
  391MOL0     H51606   5.648   4.363  10.537  2.1722  2.0730  0.7065
  391MOL0     H51607   5.731   4.211  10.533  0.7360 -0.8862  1.3964
  391MOL0     H51608   5.671   4.365  10.792  0.2536  2.7703 -0.6365
  391MOL0     H51609   5.738   4.200  10.778 -1.6036  0.1328  0.9079
  391MOL0     H51610   6.097   4.388  10.684 -0.1001  1.6418 -1.0935
  391MOL0     H51611   5.064   4.087  10.676 -1.0707  1.0975  0.7923
  391MOL0     H51612   4.976   3.973  10.881 -0.1021  2.0175 -1.2909
  392MOL0     O51613   0.311   3.189   1.973  0.0397 -0.1756 -0.6983
  392MOL0     C51614   0.345   3.070   2.002 -1.1153 -0.4161 -0.6339
  392MOL0     O51615   0.256   2.965   2.017 -0.4225  0.0926  1.1429
  392MOL0     C51616   0.131   2.985   1.978  0.7173  0.6961 -0.5520
  392MOL0     C51617   0.037   3.046   2.062  0.1768 -0.1616  0.2078
  392MOL0     C51618  -0.101   3.062   2.020 -0.0430 -0.6290 -0.4619
  392MOL0     C51619  -0.144   3.024   1.895 -0.1986  0.2288 -0.0761
  392MOL0     O51620  -0.276   3.044   1.869  0.2322  0.6802  0.1001
  392MOL0     C51621  -0.336   2.993   1.751 -0.9422 -0.2985  0.1040
  392MOL0     C51622  -0.477   3.013   1.741  0.2338  0.4095 -0.1464
  392MOL0     C51623  -0.556   2.943   1.850 -0.5887 -1.0323  0.6950
  392MOL0     C51624  -0.708   2.935   1.812  0.1491  0.1655 -0.8988
  392MOL0     C51625  -0.785   2.924   1.946 -0.0346 -0.9834  1.0311
  392MOL0     C51626  -0.845   3.066   1.973  0.0305  0.0967 -0.0591
  392MOL0     C51627  -0.865   3.088   2.122 -0.1726  0.4583  1.2110
  392MOL0     C51628  -0.944   2.989   2.203  0.3172 -0.0665 -0.1616
  392MOL0     N51629  -1.076   2.971   2.159  0.3838  0.6150 -0.6051
  392MOL0     C51630  -1.147   2.857   2.198 -0.2488  0.2097  0.1742
  392MOL0     C51631  -1.263   2.866   2.146  0.2924  0.2606 -0.3623
  392MOL0     C51632  -1.356   2.746   2.168  0.1661 -0.2419 -0.5526
  392MOL0     C51633  -1.494   2.805   2.190 -0.2101 -0.9525  0.8082
  392MOL0     C51634  -1.595   2.711   2.264  0.0460 -0.4684 -0.1356
  392MOL0     C51635  -1.729   2.778   2.312 -0.2730 -0.2710 -0.6201
  392MOL0     O51636  -1.839   2.681   2.311  0.2665 -0.0846  0.0647
  392MOL0     C51637  -1.960   2.722   2.361  0.1272  0.1707  0.7618
  392MOL0     C51638  -2.059   2.620   2.352  0.4744 -0.1089 -0.1582
  392MOL0     C51639  -2.190   2.642   2.402 -0.3813  0.4781 -0.0209
  392MOL0     C51640  -2.213   2.769   2.466  0.8963  0.2519  0.3882
  392MOL0     C51641  -2.349   2.795   2.526 -0.0536 -0.3667  0.2666
  392MOL0     O51642  -2.346   2.882   2.618  0.8575  0.7190 -0.4851
  392MOL0     C51643  -2.466   2.922   2.680 -0.8632  0.2077  0.0079
  392MOL0     C51644  -2.486   2.865   2.803  0.8650 -0.0800  0.1414
  392MOL0     C51645  -2.594   2.902   2.876 -0.8867 -0.5898  0.3549
  392MOL0     C51646  -2.694   2.983   2.820 -0.1645  0.3010 -0.6329
  392MOL0     O51647  -2.811   3.015   2.884 -0.2337 -0.3015 -1.3128
  392MOL0     C51648  -2.819   3.013   3.032  0.1185  0.1636 -0.5173
  392MOL0     C51649  -2.936   3.089   3.086  0.3934 -0.0825 -0.3034
  392MOL0     C51650  -2.975   3.026   3.221 -0.3598 -0.1067  0.0524
  392MOL0     C51651  -3.070   3.123   3.289 -0.3914  0.4589 -0.6916
  392MOL0     C51652  -3.128   3.066   3.425  0.3921  0.0405 -0.4811
  392MOL0     C51653  -3.220   3.176   3.483 -0.1723  0.6917  0.1552
  392MOL0     C51654  -3.315   3.123   3.598 -0.5133 -0.0586 -0.3276
  392MOL0     C51655  -3.258   3.175   3.727 -0.6439 -0.3296 -0.3229
  392MOL0    Cl51656  -3.287   3.352   3.752 -0.3556  0.0403 -0.5528
  392MOL0     C51657  -2.677   3.025   2.692  0.5981 -0.1068 -0.2715
  392MOL0     C51658  -2.563   3.004   2.624 -0.4048  1.1520  1.2334
  392MOL0     O51659  -2.445   2.738   2.484 -0.5275 -0.6450 -0.7040
  392MOL0     C51660  -2.125   2.878   2.462 -0.2507  0.6225 -0.7504
  392MOL0     C51661  -1.991   2.850   2.415  0.0421  1.0096  0.1469
  392MOL0     N51662  -1.268   2.979   2.063 -0.4385 -0.2001 -1.0231
  392MOL0     N51663  -1.152   3.042   2.071  0.0900  0.8658 -0.2909
  392MOL0     C51664  -0.045   2.971   1.805 -0.1391  0.1204 -0.9973
  392MOL0     C51665   0.090   2.951   1.847 -0.0927  0.1511  0.0897
  392MOL0     C51666   0.489   3.027   2.003 -0.1352  0.0950 -0.2980
  392MOL0     C51667   0.526   2.898   2.050 -0.2082  1.3973  0.3761
  392MOL0     C51668   0.658   2.857   2.047 -0.4102  0.2650  0.5710
  392MOL0     C51669   0.752   2.952   2.012 -0.4574 -0.5167  0.4437
  392MOL0     O51670   0.888   2.910   1.997  0.2959 -0.1720 -0.3294
  392MOL0     C51671   1.000   3.002   1.966 -0.3804  0.7650 -0.7123
  392MOL0     C51672   1.032   3.017   1.817  0.4076  0.1223  0.9620
  392MOL0     C51673   1.014   2.902   1.727 -1.1171  0.4975  0.7373
  392MOL0     C51674   1.108   2.783   1.776 -0.5931 -0.0137 -0.2919
  392MOL0     C51675   1.249   2.824   1.766 -0.4223  0.0214  0.5896
  392MOL0     C51676   1.368   2.847   1.733  0.6962  0.9544  0.9760
  392MOL0     C51677   0.713   3.082   1.977 -0.9951 -0.1130 -0.7736
  392MOL0     C51678   0.584   3.124   1.963  0.4919 -0.8424 -0.4081
  392MOL0     H51679   0.075   3.074   2.159 -0.6747 -0.1309  0.5445
  392MOL0     H51680  -0.170   3.109   2.090  0.4504  1.6674 -1.4207
  392MOL0     H51681  -0.314   2.886   1.752  1.1832  0.0838  0.9986
  392MOL0     H51682  -0.277   3.035   1.668 -1.5688 -3.5980 -2.2335
  392MOL0     H51683  -0.515   2.986   1.642  1.3703 -0.0531 -0.4604
  392MOL0     H51684  -0.507   3.118   1.751 -4.4875 -0.8373  1.9854
  392MOL0     H51685  -0.552   2.995   1.946 -0.4710 -1.7244  1.0726
  392MOL0     H51686  -0.509   2.844   1.862  1.3314 -0.1889  0.5859
  392MOL0     H51687  -0.743   3.016   1.747 -2.0284  0.0238  0.0146
  392MOL0     H51688  -0.716   2.845   1.751  1.2118 -0.3641 -0.2953
  392MOL0     H51689  -0.727   2.882   2.029 -0.5873 -0.3239  1.7758
  392MOL0     H51690  -0.869   2.860   1.917 -0.9445  0.6115 -0.0185
  392MOL0     H51691  -0.942   3.088   1.928  0.1630 -0.3065 -0.5555
  392MOL0     H51692  -0.779   3.147   1.939 -0.4050 -0.3382 -2.0669
  392MOL0     H51693  -0.773   3.114   2.176  0.4225  3.6328 -1.1112
  392MOL0     H51694  -0.925   3.179   2.112  0.9254  0.9934 -1.0018
  392MOL0     H51695  -0.948   3.026   2.306  0.3916 -2.1139  0.6217
  392MOL0     H51696  -0.897   2.890   2.207 -0.3381 -0.3836 -0.3167
  392MOL0     H51697  -1.115   2.765   2.246  0.0816  0.9081  1.3335
  392MOL0     H51698  -1.344   2.683   2.256 -1.6664  0.4449  0.2271
  392MOL0     H51699  -1.345   2.681   2.080  1.7853 -1.3388  0.4022
  392MOL0     H51700  -1.530   2.827   2.089  0.9650 -1.0684  0.3507
  392MOL0     H51701  -1.485   2.890   2.259  2.0024 -2.9692  3.2276
  392MOL0     H51702  -1.634   2.627   2.205 -0.5917 -0.8740  0.8239
  392MOL0     H51703  -1.548   2.664   2.351  0.9112 -0.5816 -0.6540
  392MOL0     H51704  -1.761   2.862   2.250 -1.8266  0.0371  0.5241
  392MOL0     H51705  -1.724   2.813   2.415 -0.1180  0.7917 -0.9800
  392MOL0     H51706  -2.040   2.531   2.293 -3.3519 -1.7207  0.7847
  392MOL0     H51707  -2.272   2.571   2.401  1.7998 -2.2183  1.2308
  392MOL0     H51708  -2.421   2.790   2.848 -0.1436 -1.4146 -0.5498
  392MOL0     H51709  -2.618   2.855   2.972 -1.8521 -1.7751 -0.4322
  392MOL0     H51710  -2.725   3.049   3.075 -0.2475  3.1617 -1.9750
  392MOL0     H51711  -2.835   2.907   3.050 -2.1213 -0.1270 -3.5372
  392MOL0     H51712  -3.020   3.072   3.016 -0.1258 -2.7513  0.8281
  392MOL0     H51713  -2.922   3.196   3.101 -0.7305  0.3849 -2.2070
  392MOL0     H51714  -2.887   3.014   3.285  0.4579 -0.0501 -1.0191
  392MOL0     H51715  -3.027   2.930   3.222 -1.0826  0.2334 -1.6204
  392MOL0     H51716  -3.017   3.211   3.328 -0.6960  0.0553  0.7201
  392MOL0     H51717  -3.158   3.153   3.233 -1.0393 -2.4183 -1.3876
  392MOL0     H51718  -3.049   3.046   3.498  0.3888  0.6572 -0.3045
  392MOL0     H51719  -3.180   2.973   3.403 -0.9667 -0.0850  2.7491
  392MOL0     H51720  -3.280   3.224   3.406  1.6649 -0.8145 -2.3385
  392MOL0     H51721  -3.156   3.255   3.525  0.2340  0.4048  0.0766
  392MOL0     H51722  -3.414   3.166   3.580 -0.3362 -0.1953 -1.7323
  392MOL0     H51723  -3.328   3.014   3.604 -3.0105  0.1271 -1.3255
  392MOL0     H51724  -3.149   3.160   3.729 -0.6706 -0.5044 -0.0449
  392MOL0     H51725  -3.304   3.116   3.807  2.4039 -0.9686  1.1127
  392MOL0     H51726  -2.752   3.083   2.639 -1.6240 -1.0987  1.6265
  392MOL0     H51727  -2.540   3.044   2.525  0.7820 -2.5443 -0.1577
  392MOL0     H51728  -2.156   2.980   2.478  0.1137  1.1813 -3.1504
  392MOL0     H51729  -1.918   2.929   2.401  2.0933 -0.9947 -1.1260
  392MOL0     H51730  -0.069   2.944   1.703  0.1671  1.5746 -1.4739
  392MOL0     H51731   0.169   2.910   1.784  0.7581  1.7150  0.0995
  392MOL0     H51732   0.453   2.822   2.077  0.2521  1.7733  3.0400
  392MOL0     H51733   0.690   2.758   2.078  1.0592  0.4774 -0.1671
  392MOL0     H51734   1.093   2.965   2.010  1.4325  0.5056 -4.4197
  392MOL0     H51735   0.988   3.098   2.017  1.0973  0.3947  0.4124
  392MOL0     H51736   0.960   3.088   1.776 -1.7052 -0.6989  2.9908
  392MOL0     H51737   1.129   3.062   1.795  0.3345 -0.9024 -1.8979
  392MOL0     H51738   1.043   2.930   1.625  0.7258 -1.0162  0.7816
  392MOL0     H51739   0.910   2.875   1.704 -1.0086 -0.2556  1.1029
  392MOL0     H51740   1.069   2.762   1.876 -2.8403  0.2067 -1.0581
  392MOL0     H51741   1.086   2.693   1.718  0.1864  0.8781 -2.0513
  392MOL0     H51742   1.473   2.847   1.713  1.1698  0.0610  3.1022
  392MOL0     H51743   0.793   3.154   1.962 -1.7272  0.6072 -1.3270
  392MOL0     H51744   0.552   3.222   1.928 -2.1145 -1.2097  0.6615
  393MOL0     O51745   7.052   8.668   6.343 -0.0681 -0.4559 -0.1159
  393MOL0     C51746   7.060   8.773   6.285  0.0173  0.1577 -0.6865
  393MOL0     O51747   6.956   8.848   6.251  0.0614 -0.3155  0.8672
  393MOL0     C51748   6.835   8.789   6.228  0.3056  0.5568  0.4930
  393MOL0     C51749   6.722   8.856   6.268 -0.3656  0.2049 -0.0238
  393MOL0     C51750   6.599   8.806   6.237 -1.1257 -1.1186  0.4644
  393MOL0     C51751   6.581   8.688   6.171 -0.0356  0.4906  0.5024
  393MOL0     O51752   6.451   8.666   6.128 -0.3459 -0.0230  0.2181
  393MOL0     C51753   6.391   8.540   6.162 -0.1200  0.1931 -0.2079
  393MOL0     C51754   6.250   8.545   6.194 -0.4096  0.6245  0.6959
  393MOL0     C51755   6.229   8.595   6.335 -0.0943  0.6077  0.5856
  393MOL0     C51756   6.234   8.748   6.342  0.1381 -0.4843  0.0706
  393MOL0     C51757   6.192   8.791   6.489 -0.5306  0.0228 -0.7291
  393MOL0     C51758   6.035   8.789   6.503 -0.2437 -0.6560  0.3958
  393MOL0     C51759   5.970   8.793   6.649  0.0401  0.5560  0.3782
  393MOL0     C51760   5.958   8.933   6.710 -0.4039 -0.5801 -0.5845
  393MOL0     N51761   5.875   9.025   6.630 -0.4326  0.6623  0.2354
  393MOL0     C51762   5.736   9.044   6.647  0.1064  0.5604  0.5734
  393MOL0     C51763   5.697   9.125   6.548  0.6026 -0.1713  0.1635
  393MOL0     C51764   5.560   9.169   6.521  0.1944  0.0919  0.3636
  393MOL0     C51765   5.502   9.243   6.639  0.4928  0.3636  0.8506
  393MOL0     C51766   5.575   9.381   6.634  0.1960  0.7103  0.2421
  393MOL0     C51767   5.588   9.467   6.755 -0.0493 -0.0345  0.6948
  393MOL0     O51768   5.684   9.416   6.857 -0.4403  0.0946 -0.2428
  393MOL0     C51769   5.820   9.440   6.838  0.5938 -0.0377 -0.4979
  393MOL0     C51770   5.861   9.574   6.801 -0.7021  0.0757 -0.7465
  393MOL0     C51771   5.994   9.601   6.779  0.7133 -0.0803 -0.3950
  393MOL0     C51772   6.090   9.501   6.802 -0.2325 -1.1910 -0.2086
  393MOL0     C51773   6.232   9.538   6.786  0.5007  0.7261 -0.4275
  393MOL0     O51774   6.319   9.465   6.865 -0.0530  0.3850 -0.6494
  393MOL0     C51775   6.453   9.480   6.853  0.2411  0.1236 -0.5420
  393MOL0     C51776   6.534   9.515   6.960  0.4926  0.0541  0.6501
  393MOL0     C51777   6.673   9.517   6.959  0.0709  0.6986  0.4868
  393MOL0     C51778   6.735   9.497   6.837  0.9568  1.7342  0.0659
  393MOL0     O51779   6.869   9.515   6.812 -0.6655 -0.2857  0.2413
  393MOL0     C51780   6.945   9.394   6.780 -0.3916  0.0241 -0.3934
  393MOL0     C51781   6.989   9.312   6.901 -0.2030 -0.7792 -1.3836
  393MOL0     C51782   7.068   9.384   7.011  0.1215  0.1823  0.2782
  393MOL0     C51783   7.216   9.438   6.973  0.4853  0.5128 -0.3581
  393MOL0     C51784   7.283   9.498   7.097  0.1829 -0.5446  0.4297
  393MOL0     C51785   7.211   9.628   7.134 -0.2477 -0.0134 -0.9779
  393MOL0     C51786   7.270   9.693   7.261 -0.7280 -0.0218  0.7609
  393MOL0     C51787   7.187   9.804   7.312 -0.0566 -0.0023  0.1917
  393MOL0    Cl51788   7.260   9.852   7.463  0.3054  0.0101 -0.5957
  393MOL0     C51789   6.651   9.461   6.726  0.3515  0.4158 -0.0970
  393MOL0     C51790   6.510   9.456   6.733  0.1387 -0.0500 -0.6933
  393MOL0     O51791   6.262   9.637   6.717  0.0932  0.5020 -0.0564
  393MOL0     C51792   6.052   9.374   6.837 -0.1073 -0.5549  0.0309
  393MOL0     C51793   5.916   9.338   6.851 -0.6037  0.8728  0.0503
  393MOL0     N51794   5.810   9.163   6.476 -0.0152  0.3270 -0.4596
  393MOL0     N51795   5.913   9.100   6.519 -0.1899 -0.2372 -0.3722
  393MOL0     C51796   6.698   8.612   6.129  0.3030  0.0482 -0.6513
  393MOL0     C51797   6.826   8.658   6.166  0.0432 -0.7728 -0.2369
  393MOL0     C51798   7.201   8.833   6.273 -0.7354  0.0558 -0.2128
  393MOL0     C51799   7.217   8.959   6.218 -0.4232 -0.5522 -0.4745
  393MOL0     C51800   7.352   9.000   6.192  0.0012  0.2274  0.7627
  393MOL0     C51801   7.472   8.927   6.229  0.3383 -0.1625 -0.3614
  393MOL0     O51802   7.602   8.969   6.214 -0.9452 -0.1147  0.1607
  393MOL0     C51803   7.609   9.109   6.221 -0.2986 -0.1126 -0.1673
  393MOL0     C51804   7.758   9.141   6.236  1.1944  0.1693  0.4091
  393MOL0     C51805   7.816   9.066   6.367  0.1765  0.0084  0.2547
  393MOL0     C51806   7.969   9.104   6.383  0.6975  0.7775  0.1615
  393MOL0     C51807   7.980   9.244   6.411 -0.5406  0.2464 -0.8684
  393MOL0     C51808   7.976   9.366   6.426 -0.1885  0.5742  0.1978
  393MOL0     C51809   7.453   8.804   6.298 -0.6802 -0.3495  1.4070
  393MOL0     C51810   7.322   8.759   6.314  0.1858  0.1088  0.3274
  393MOL0     H51811   6.736   8.950   6.321  1.5299 -0.1055  0.0951
  393MOL0     H51812   6.510   8.863   6.263 -2.6601 -2.4034 -1.6104
  393MOL0     H51813   6.444   8.494   6.246  0.6028  3.4605  1.2652
  393MOL0     H51814   6.406   8.475   6.075  3.7155 -0.1673  0.5615
  393MOL0     H51815   6.217   8.440   6.192 -1.4852  0.8937  2.1984
  393MOL0     H51816   6.190   8.601   6.122  0.1156 -0.2800 -0.4807
  393MOL0     H51817   6.305   8.560   6.405 -0.3999 -1.2100  0.0662
  393MOL0     H51818   6.136   8.556   6.376  0.4816  0.1039  1.4295
  393MOL0     H51819   6.334   8.792   6.333  0.3806  0.3958  4.7260
  393MOL0     H51820   6.177   8.794   6.261  1.7182  1.1800 -0.1707
  393MOL0     H51821   6.226   8.892   6.512 -0.8190 -0.2945  1.3326
  393MOL0     H51822   6.238   8.725   6.564 -1.9605 -0.8321 -0.5512
  393MOL0     H51823   6.003   8.692   6.463 -0.7033 -0.2506 -0.2345
  393MOL0     H51824   6.008   8.875   6.441  1.9605  0.1720  0.4823
  393MOL0     H51825   5.871   8.746   6.652  0.0155  0.6107  0.4061
  393MOL0     H51826   6.036   8.740   6.719  0.1076  0.2858  0.1112
  393MOL0     H51827   6.062   8.962   6.726 -0.9374  1.4926 -0.4747
  393MOL0     H51828   5.914   8.924   6.810  2.2158 -1.2779  0.5801
  393MOL0     H51829   5.669   9.005   6.723  0.4079  1.3958  1.2813
  393MOL0     H51830   5.498   9.080   6.511  1.0443 -0.2388 -3.2639
  393MOL0     H51831   5.556   9.227   6.428  0.9486  2.9889  1.9963
  393MOL0     H51832   5.521   9.194   6.736 -1.8296 -1.9158  0.2524
  393MOL0     H51833   5.396   9.257   6.620  0.5037 -0.9192 -0.3102
  393MOL0     H51834   5.676   9.382   6.593 -0.0956  0.5449 -0.4917
  393MOL0     H51835   5.516   9.443   6.566  0.4125  1.5437  0.7924
  393MOL0     H51836   5.490   9.468   6.803 -0.0390  0.0856  0.7149
  393MOL0     H51837   5.608   9.572   6.733  0.1529 -0.3235 -0.5691
  393MOL0     H51838   5.785   9.649   6.782 -2.6646 -1.6785 -0.2567
  393MOL0     H51839   6.018   9.701   6.745 -1.4899 -0.2714 -2.8616
  393MOL0     H51840   6.484   9.535   7.054 -0.4887  1.5910 -0.1582
  393MOL0     H51841   6.744   9.531   7.041  2.7725 -0.3949 -1.5036
  393MOL0     H51842   7.038   9.414   6.727 -0.6998 -0.9898 -1.3378
  393MOL0     H51843   6.875   9.339   6.717  0.1105  1.4478 -2.2819
  393MOL0     H51844   7.043   9.230   6.852 -0.2612 -0.2103 -2.4383
  393MOL0     H51845   6.904   9.263   6.951 -0.0007 -1.0965 -1.3451
  393MOL0     H51846   7.083   9.305   7.084 -1.9291 -1.8107 -1.2811
  393MOL0     H51847   7.001   9.461   7.051 -0.6090 -1.7169  3.0291
  393MOL0     H51848   7.276   9.352   6.943 -2.7407 -2.7779  1.8111
  393MOL0     H51849   7.221   9.513   6.893 -3.2553  2.6198  1.0945
  393MOL0     H51850   7.390   9.507   7.075  0.2640 -1.6274  0.3285
  393MOL0     H51851   7.280   9.440   7.190 -0.1746  1.2880  1.6140
  393MOL0     H51852   7.103   9.611   7.145 -0.1433  0.6293  1.7944
  393MOL0     H51853   7.212   9.691   7.045 -1.9538 -0.7866 -1.5943
  393MOL0     H51854   7.296   9.616   7.334 -0.5298  0.7438  1.5139
  393MOL0     H51855   7.366   9.736   7.229 -1.8170  1.6896 -0.3709
  393MOL0     H51856   7.084   9.769   7.326  0.4145 -0.8441  1.8637
  393MOL0     H51857   7.174   9.892   7.249 -1.6737  0.9617  1.7606
  393MOL0     H51858   6.692   9.450   6.626 -0.7905 -2.7526 -0.2896
  393MOL0     H51859   6.439   9.447   6.651  0.6937 -2.4176 -0.9724
  393MOL0     H51860   6.132   9.301   6.849  0.7154  0.2507 -0.4566
  393MOL0     H51861   5.902   9.230   6.854  2.8072  0.3062 -0.7820
  393MOL0     H51862   6.691   8.514   6.082  0.3482  0.0182 -0.5958
  393MOL0     H51863   6.910   8.602   6.127  2.6967  1.6116  1.6994
  393MOL0     H51864   7.126   9.017   6.207 -0.5204  0.0469  2.5601
  393MOL0     H51865   7.372   9.099   6.151  0.4375 -0.4398 -0.6960
  393MOL0     H51866   7.557   9.153   6.306 -1.0637 -0.4926 -0.4221
  393MOL0     H51867   7.590   9.156   6.124  3.6356 -1.4154 -1.7890
  393MOL0     H51868   7.821   9.104   6.154  2.3094  0.0238  1.3104
  393MOL0     H51869   7.765   9.250   6.244 -2.0942  0.5016  0.2598
  393MOL0     H51870   7.805   8.958   6.357  0.3821  0.0411 -0.3370
  393MOL0     H51871   7.752   9.100   6.449 -2.4699  1.4944 -2.2342
  393MOL0     H51872   8.008   9.052   6.471 -3.2615 -1.3682  0.8782
  393MOL0     H51873   8.021   9.088   6.288 -1.9052  1.1783 -1.4330
  393MOL0     H51874   7.955   9.469   6.441  1.9733  0.7430  2.9014
  393MOL0     H51875   7.536   8.741   6.330 -0.0657  1.2005  2.9637
  393MOL0     H51876   7.312   8.658   6.352  1.3607  0.0845  0.6221
  394MOL0     O51877   5.243   7.342   3.696 -0.3793  0.6837 -0.4603
  394MOL0     C51878   5.326   7.256   3.682 -0.8507  0.1211 -0.0141
  394MOL0     O51879   5.308   7.127   3.638 -0.2083 -0.0047 -0.3987
  394MOL0     C51880   5.190   7.085   3.586  1.0458  0.1705 -0.5751
  394MOL0     C51881   5.175   7.033   3.458  0.5326 -0.7478 -0.3778
  394MOL0     C51882   5.050   6.989   3.408  0.3240  0.0468 -0.5413
  394MOL0     C51883   4.943   6.986   3.497  0.6369 -0.0787 -1.2788
  394MOL0     O51884   4.816   6.940   3.471 -0.1411 -0.5878 -0.4769
  394MOL0     C51885   4.795   6.839   3.371 -1.6029  0.3030 -0.0072
  394MOL0     C51886   4.662   6.770   3.409 -0.3098  0.3065  0.5146
  394MOL0     C51887   4.532   6.859   3.404 -0.4026  0.4007  0.4256
  394MOL0     C51888   4.420   6.790   3.488  0.1053  0.6490  0.2104
  394MOL0     C51889   4.281   6.854   3.470  1.4784  0.0533  0.8100
  394MOL0     C51890   4.186   6.778   3.567  1.1907 -0.0145 -0.5655
  394MOL0     C51891   4.043   6.791   3.515 -0.1367 -0.3521  0.6380
  394MOL0     C51892   3.938   6.762   3.621 -0.8506 -0.2794  0.7655
  394MOL0     N51893   3.806   6.774   3.557  0.6584  0.2353 -0.3640
  394MOL0     C51894   3.757   6.886   3.499  0.6733  0.8075 -0.0419
  394MOL0     C51895   3.645   6.841   3.425  0.1844  0.4022 -0.0471
  394MOL0     C51896   3.543   6.927   3.361  0.3567  0.7066 -0.9264
  394MOL0     C51897   3.424   6.962   3.465  1.4418 -0.7066 -1.1270
  394MOL0     C51898   3.327   7.057   3.397  0.4727 -0.3839 -0.0195
  394MOL0     C51899   3.202   7.069   3.476  0.2866 -0.9712 -0.3222
  394MOL0     O51900   3.125   7.184   3.439 -0.2139  0.5101  0.1963
  394MOL0     C51901   3.013   7.163   3.355 -0.7784  0.5774 -0.2442
  394MOL0     C51902   2.915   7.252   3.364 -0.4183  0.3515  0.4021
  394MOL0     C51903   2.793   7.236   3.299 -0.7093 -0.0084  0.0908
  394MOL0     C51904   2.783   7.153   3.188  0.1633  0.5117  0.4427
  394MOL0     C51905   2.661   7.161   3.097 -0.3148  0.0891 -0.1808
  394MOL0     O51906   2.560   7.247   3.135 -1.0833  0.2196  0.4515
  394MOL0     C51907   2.461   7.265   3.047 -0.2857 -1.3210 -0.0426
  394MOL0     C51908   2.341   7.194   3.061  0.5477 -0.6786  0.3170
  394MOL0     C51909   2.235   7.224   2.975 -0.0575 -0.1610 -0.0131
  394MOL0     C51910   2.237   7.335   2.886  0.2683 -0.9651 -0.9019
  394MOL0     O51911   2.130   7.367   2.802 -0.2813  0.0582 -0.4048
  394MOL0     C51912   2.005   7.319   2.844  0.0389  0.4873  0.2691
  394MOL0     C51913   1.900   7.372   2.753 -0.3949  0.0337  0.1022
  394MOL0     C51914   1.761   7.362   2.811 -0.4154 -0.0115  0.6402
  394MOL0     C51915   1.661   7.384   2.697 -0.1966 -0.3637 -0.0979
  394MOL0     C51916   1.524   7.322   2.743 -0.5515  0.1770 -0.0222
  394MOL0     C51917   1.394   7.367   2.670 -0.0331  0.2383  0.1871
  394MOL0     C51918   1.424   7.388   2.521  0.0065 -0.2020  0.4302
  394MOL0     C51919   1.291   7.398   2.439  0.1295  1.0719 -0.6237
  394MOL0    Cl51920   1.311   7.459   2.282 -0.0550 -0.1647  0.7015
  394MOL0     C51921   2.351   7.416   2.886 -0.0097  1.0084 -0.6017
  394MOL0     C51922   2.467   7.382   2.965 -0.3668  0.0937  0.4238
  394MOL0     O51923   2.663   7.100   2.998  0.9008 -0.0129 -0.1116
  394MOL0     C51924   2.897   7.071   3.166 -0.2227  0.8853 -0.2246
  394MOL0     C51925   3.012   7.075   3.247  0.2718  0.4036 -0.4467
  394MOL0     N51926   3.640   6.706   3.435 -0.7950  0.1785 -0.1265
  394MOL0     N51927   3.739   6.664   3.515  0.3906 -0.1754  0.0157
  394MOL0     C51928   4.957   7.043   3.623  0.3938  0.1197 -0.2367
  394MOL0     C51929   5.080   7.091   3.668 -0.1473  0.6415 -0.2108
  394MOL0     C51930   5.471   7.301   3.713  0.0308 -0.2848 -0.5734
  394MOL0     C51931   5.495   7.431   3.764  0.4342  0.1859  0.1076
  394MOL0     C51932   5.625   7.477   3.813  0.5128  0.1485 -0.9829
  394MOL0     C51933   5.734   7.389   3.820 -0.5636  0.7385 -0.5188
  394MOL0     O51934   5.841   7.431   3.891  0.3858 -0.4931  0.2629
  394MOL0     C51935   5.962   7.371   3.854  0.7654  0.0574 -0.1117
  394MOL0     C51936   6.064   7.404   3.966  0.1398 -0.2432  0.7099
  394MOL0     C51937   6.157   7.527   3.928  0.3332 -0.0760  0.6923
  394MOL0     C51938   6.239   7.585   4.045  0.5701  0.7707 -0.1318
  394MOL0     C51939   6.324   7.694   4.001 -0.5958 -0.2650 -0.4973
  394MOL0     C51940   6.392   7.790   3.967 -0.0103 -0.6617 -0.2060
  394MOL0     C51941   5.708   7.252   3.759  0.3436  0.9565 -0.3747
  394MOL0     C51942   5.580   7.211   3.705  0.8194  0.4119 -0.6474
  394MOL0     H51943   5.256   7.004   3.391  0.0922 -1.7023 -0.5119
  394MOL0     H51944   5.036   6.949   3.308  0.1444 -0.0059 -0.4936
  394MOL0     H51945   4.873   6.763   3.386 -1.0163  1.2491  2.2587
  394MOL0     H51946   4.796   6.879   3.269 -2.3078  2.7652  0.8910
  394MOL0     H51947   4.679   6.731   3.509 -0.8012 -0.3635  0.3378
  394MOL0     H51948   4.648   6.694   3.332  3.4668  1.4848 -1.6186
  394MOL0     H51949   4.502   6.869   3.300  0.4013  4.0176  0.4057
  394MOL0     H51950   4.561   6.958   3.439  1.2973  1.2139 -2.9001
  394MOL0     H51951   4.417   6.683   3.469 -0.9802  0.7451 -0.1991
  394MOL0     H51952   4.436   6.806   3.595 -1.2679  4.5673 -0.0089
  394MOL0     H51953   4.233   6.836   3.373 -3.2586 -2.9203  3.2985
  394MOL0     H51954   4.277   6.960   3.499  2.9809  1.2699 -2.7661
  394MOL0     H51955   4.193   6.828   3.664  0.4631  0.8481 -0.9422
  394MOL0     H51956   4.214   6.673   3.582  1.6792  0.1835 -0.0686
  394MOL0     H51957   4.025   6.895   3.486  0.5153 -0.6439 -0.9072
  394MOL0     H51958   4.033   6.732   3.423  2.9422  0.6143 -0.4705
  394MOL0     H51959   3.942   6.828   3.708 -1.3751  0.7666  0.0204
  394MOL0     H51960   3.953   6.658   3.649 -0.8197  0.4666  3.8180
  394MOL0     H51961   3.793   6.988   3.508  1.8896  0.7055 -2.8994
  394MOL0     H51962   3.509   6.883   3.267  0.1985  0.1626 -0.6169
  394MOL0     H51963   3.598   7.021   3.349  2.9861 -0.1335  2.8067
  394MOL0     H51964   3.460   7.014   3.555 -1.6862 -0.3217  0.0544
  394MOL0     H51965   3.368   6.874   3.497  3.8416 -1.7871  0.3248
  394MOL0     H51966   3.376   7.154   3.385  0.5447 -0.2598  1.1900
  394MOL0     H51967   3.308   7.028   3.293  1.5634 -2.0341  0.1946
  394MOL0     H51968   3.236   7.082   3.579 -0.1300 -2.5531  0.0489
  394MOL0     H51969   3.136   6.981   3.478 -1.6075  0.4056 -0.2489
  394MOL0     H51970   2.918   7.329   3.441  1.0265  0.3759  0.3402
  394MOL0     H51971   2.717   7.305   3.333  0.8767  2.4859 -1.0736
  394MOL0     H51972   2.319   7.112   3.129 -5.7480  0.6963  0.5676
  394MOL0     H51973   2.144   7.165   2.980 -1.4517  1.6946 -1.8644
  394MOL0     H51974   1.988   7.334   2.951  3.0410  0.0873  0.9009
  394MOL0     H51975   2.011   7.213   2.820 -2.2305  0.3312  0.2335
  394MOL0     H51976   1.907   7.319   2.658 -2.9830 -0.8077  0.2975
  394MOL0     H51977   1.923   7.477   2.729 -1.2084  0.4926  1.2132
  394MOL0     H51978   1.762   7.441   2.886  0.1687  0.5278  0.0736
  394MOL0     H51979   1.746   7.263   2.855 -0.1211  0.2085  1.2416
  394MOL0     H51980   1.669   7.488   2.665 -1.2017  0.0706  0.9991
  394MOL0     H51981   1.688   7.320   2.613 -2.2498 -0.3463 -0.8200
  394MOL0     H51982   1.510   7.325   2.851 -0.3077 -0.7881  0.0422
  394MOL0     H51983   1.522   7.217   2.710 -0.4334  0.0608  0.3396
  394MOL0     H51984   1.358   7.465   2.704  0.2347  0.1371  0.7806
  394MOL0     H51985   1.323   7.287   2.690  0.4089 -0.6514 -1.5999
  394MOL0     H51986   1.477   7.481   2.503  0.3190 -0.3220  0.7142
  394MOL0     H51987   1.487   7.303   2.494  1.2410  0.9736 -0.5264
  394MOL0     H51988   1.219   7.464   2.488 -1.4926 -0.0286 -1.4159
  394MOL0     H51989   1.245   7.299   2.437 -3.2614  2.4156  2.0626
  394MOL0     H51990   2.360   7.488   2.806  1.0903 -0.4355 -1.8427
  394MOL0     H51991   2.563   7.433   2.961  0.9322 -2.0586 -5.1802
  394MOL0     H51992   2.911   7.004   3.082  0.4141 -1.2709  1.4818
  394MOL0     H51993   3.100   7.017   3.220  1.1267  1.0897  0.7637
  394MOL0     H51994   4.879   7.058   3.697  0.1366  1.5516 -0.7668
  394MOL0     H51995   5.095   7.123   3.771  0.1354  2.1203 -0.6937
  394MOL0     H51996   5.412   7.499   3.779 -1.4767 -1.6098 -1.6240
  394MOL0     H51997   5.639   7.572   3.862 -0.1770 -0.0529 -0.3702
  394MOL0     H51998   6.001   7.393   3.754  0.8096  1.5619  0.2143
  394MOL0     H51999   5.955   7.262   3.854  2.2615 -0.0799 -2.0542
  394MOL0     H52000   6.014   7.421   4.061 -1.5702 -2.6955  0.3408
  394MOL0     H52001   6.126   7.316   3.984 -0.6966 -0.7571  1.1471
  394MOL0     H52002   6.095   7.596   3.871  1.2588 -2.8488 -4.3294
  394MOL0     H52003   6.229   7.497   3.851  0.3031  1.7823 -0.1141
  394MOL0     H52004   6.176   7.629   4.122 -0.7304  0.1161 -0.8005
  394MOL0     H52005   6.301   7.501   4.078  2.5071  1.0386 -2.7931
  394MOL0     H52006   6.437   7.882   3.934  0.5673 -0.3846  1.3061
  394MOL0     H52007   5.776   7.167   3.764 -1.8381 -0.8413  0.2526
  394MOL0     H52008   5.551   7.114   3.665 -1.1377  1.5146 -2.0599
  395MOL0     O52009   7.688   3.574   2.457  0.7076 -0.0242  0.0804
  395MOL0     C52010   7.765   3.668   2.448  0.0906  0.5904  0.5319
  395MOL0     O52011   7.729   3.794   2.411  0.8879  0.1899  0.4328
  395MOL0     C52012   7.595   3.840   2.402 -0.2372  0.2829 -0.0933
  395MOL0     C52013   7.477   3.777   2.437  0.2446 -0.0276 -0.5419
  395MOL0     C52014   7.353   3.835   2.405 -0.1199  0.5815 -0.1177
  395MOL0     C52015   7.340   3.956   2.354  0.0978  0.1112  0.2494
  395MOL0     O52016   7.217   4.024   2.336  0.1019  0.1391 -0.0941
  395MOL0     C52017   7.093   3.966   2.385 -0.2829 -0.5133 -0.3248
  395MOL0     C52018   6.983   4.066   2.346  0.0712  0.1193 -0.7897
  395MOL0     C52019   7.002   4.216   2.397  0.5333  0.2567 -0.9690
  395MOL0     C52020   7.009   4.229   2.552  1.0460 -0.7695  0.2101
  395MOL0     C52021   6.926   4.345   2.616 -0.1112 -0.6204  1.2507
  395MOL0     C52022   6.959   4.339   2.763 -0.1588 -0.3179 -1.5355
  395MOL0     C52023   6.890   4.444   2.840  0.2491  0.3172 -1.0014
  395MOL0     C52024   6.928   4.436   2.989  0.4264 -0.3466 -0.2454
  395MOL0     N52025   6.895   4.550   3.078  0.2689  0.7619 -0.0154
  395MOL0     C52026   6.973   4.572   3.186  0.1352  0.2504 -0.2371
  395MOL0     C52027   6.907   4.654   3.268 -0.4576 -0.0303 -0.2037
  395MOL0     C52028   6.952   4.673   3.413  0.3797  0.3896  0.0488
  395MOL0     C52029   7.033   4.807   3.436  0.0914 -1.1606 -0.2934
  395MOL0     C52030   7.036   4.825   3.588 -0.5782  0.5311  0.3118
  395MOL0     C52031   7.113   4.940   3.640  0.3272 -0.8626 -0.8581
  395MOL0     O52032   7.088   4.929   3.779  0.7450 -0.3658  0.2511
  395MOL0     C52033   7.129   5.035   3.866  0.9498  0.2565  0.0704
  395MOL0     C52034   7.081   5.036   3.995  0.3106 -0.0593 -0.0550
  395MOL0     C52035   7.120   5.134   4.089 -0.1283 -0.0939  0.1011
  395MOL0     C52036   7.212   5.239   4.050  0.0734 -0.0544 -0.3131
  395MOL0     C52037   7.264   5.337   4.150 -0.6000 -0.1156  0.1909
  395MOL0     O52038   7.385   5.396   4.122 -0.1187  0.3360  0.4545
  395MOL0     C52039   7.433   5.481   4.220 -1.1183  0.1263  0.8462
  395MOL0     C52040   7.542   5.448   4.307 -0.0278  0.1591  0.9048
  395MOL0     C52041   7.601   5.544   4.390  0.3959 -0.6146  0.0112
  395MOL0     C52042   7.553   5.674   4.392 -0.1090  0.2664 -0.4434
  395MOL0     O52043   7.623   5.765   4.468 -0.0834  0.0914 -0.3576
  395MOL0     C52044   7.677   5.871   4.389 -0.3485  0.7392 -0.1301
  395MOL0     C52045   7.781   5.957   4.464 -0.9006 -0.5144  0.1472
  395MOL0     C52046   7.698   6.043   4.566  0.1903  0.6670 -0.4156
  395MOL0     C52047   7.775   6.148   4.645  0.0611 -0.0791 -0.4663
  395MOL0     C52048   7.828   6.269   4.563 -0.2921  0.8235 -1.2022
  395MOL0     C52049   7.894   6.369   4.652  0.0715 -0.2504 -0.1435
  395MOL0     C52050   7.887   6.503   4.577 -0.9479 -0.6252  0.3461
  395MOL0     C52051   7.943   6.627   4.655  0.4662 -0.6016  0.0296
  395MOL0    Cl52052   7.825   6.644   4.803  0.0734 -0.3082 -0.1113
  395MOL0     C52053   7.443   5.713   4.313 -0.1463 -0.4862 -0.3266
  395MOL0     C52054   7.386   5.616   4.228 -0.8269 -0.5197 -0.4774
  395MOL0     O52055   7.213   5.346   4.261  0.0799  0.0720  0.1971
  395MOL0     C52056   7.239   5.244   3.918  0.4944  0.4371  0.1778
  395MOL0     C52057   7.201   5.144   3.834  0.4447 -0.4027  1.0954
  395MOL0     N52058   6.790   4.690   3.197  0.2009 -0.3898 -1.0817
  395MOL0     N52059   6.784   4.625   3.083  0.0638  0.3302 -0.1448
  395MOL0     C52060   7.449   4.021   2.304  0.6959  1.5829  0.0653
  395MOL0     C52061   7.575   3.962   2.333  0.1662  0.0211  0.3602
  395MOL0     C52062   7.907   3.640   2.430 -0.3053 -0.3426 -0.1925
  395MOL0     C52063   8.003   3.738   2.441 -0.5125  0.1467  0.4458
  395MOL0     C52064   8.139   3.714   2.412  0.1639  0.1977 -0.6474
  395MOL0     C52065   8.171   3.592   2.350  0.5047 -0.0300  0.3557
  395MOL0     O52066   8.295   3.564   2.302 -0.9700  0.0518 -0.3463
  395MOL0     C52067   8.403   3.668   2.281  0.2831  0.7623  0.4846
  395MOL0     C52068   8.513   3.625   2.187 -0.4833  0.3945 -0.1412
  395MOL0     C52069   8.581   3.504   2.231 -0.8425 -0.5423 -0.1768
  395MOL0     C52070   8.720   3.478   2.154 -0.8043 -0.1668 -0.1434
  395MOL0     C52071   8.801   3.599   2.159 -0.1890 -0.5312  0.7003
  395MOL0     C52072   8.888   3.684   2.152  0.1995  0.1278 -0.5218
  395MOL0     C52073   8.082   3.482   2.347  0.6039 -1.1175  0.2182
  395MOL0     C52074   7.952   3.511   2.395  0.2813  0.2218 -0.0606
  395MOL0     H52075   7.478   3.681   2.487  2.5124 -0.6044 -1.5919
  395MOL0     H52076   7.265   3.777   2.428  1.7961 -2.5568 -0.0751
  395MOL0     H52077   7.093   3.957   2.494  0.0974  1.5216 -0.1186
  395MOL0     H52078   7.086   3.869   2.334 -0.1135 -0.0098 -1.3340
  395MOL0     H52079   6.895   4.029   2.400  0.7315  0.0457  0.2605
  395MOL0     H52080   6.965   4.067   2.238  3.7162  1.7719 -1.5099
  395MOL0     H52081   6.922   4.275   2.351 -0.2098 -0.5804 -0.7911
  395MOL0     H52082   7.096   4.250   2.353  2.9445 -1.2686  2.5462
  395MOL0     H52083   6.977   4.134   2.595  2.4273 -0.9769  0.8367
  395MOL0     H52084   7.113   4.248   2.582  0.6309  2.5534 -0.0935
  395MOL0     H52085   6.820   4.335   2.594  0.4828  0.1913 -2.6840
  395MOL0     H52086   6.942   4.443   2.571 -1.4720 -0.0816  1.8789
  395MOL0     H52087   7.065   4.351   2.787 -0.6122 -0.8825  1.1104
  395MOL0     H52088   6.928   4.246   2.813  1.6197  0.0213  0.3016
  395MOL0     H52089   6.928   4.540   2.804 -3.3061  2.8696  1.3618
  395MOL0     H52090   6.782   4.456   2.835  0.3209  3.2935  1.6286
  395MOL0     H52091   7.037   4.435   2.991  0.6230  3.3293 -1.3620
  395MOL0     H52092   6.885   4.348   3.038 -2.7373  1.8792  1.3080
  395MOL0     H52093   7.061   4.515   3.214  0.0972 -1.4110 -3.0754
  395MOL0     H52094   7.004   4.591   3.462  2.0002  1.6907  0.6093
  395MOL0     H52095   6.857   4.669   3.467 -0.8860 -1.2071 -2.1272
  395MOL0     H52096   6.979   4.890   3.387  0.1788 -1.0460 -0.1953
  395MOL0     H52097   7.134   4.794   3.398  0.8199  0.9356  0.7470
  395MOL0     H52098   6.934   4.836   3.626 -0.9056 -0.0599 -0.3706
  395MOL0     H52099   7.063   4.729   3.632 -2.0309  0.0303  0.1692
  395MOL0     H52100   7.087   5.039   3.602  2.7164  1.2936  2.5807
  395MOL0     H52101   7.219   4.930   3.616  0.5388  2.1910 -1.5861
  395MOL0     H52102   6.998   4.971   4.017  0.5306  0.0943  1.3345
  395MOL0     H52103   7.092   5.111   4.192 -0.5010 -0.7776 -0.1485
  395MOL0     H52104   7.589   5.350   4.300 -1.4373 -0.6047  1.6080
  395MOL0     H52105   7.691   5.523   4.448 -0.0370 -0.1545  0.8723
  395MOL0     H52106   7.594   5.936   4.361 -0.0440  1.9648  1.6292
  395MOL0     H52107   7.720   5.835   4.295 -2.2636  1.5017 -1.3578
  395MOL0     H52108   7.839   6.020   4.395 -2.4566  1.4914  0.5688
  395MOL0     H52109   7.856   5.892   4.510 -0.5302  0.2800  0.6758
  395MOL0     H52110   7.660   5.970   4.637  0.8537 -0.5908 -1.3123
  395MOL0     H52111   7.608   6.089   4.525 -0.3731  1.1068  1.2294
  395MOL0     H52112   7.701   6.169   4.723  1.9872  0.8535  1.1926
  395MOL0     H52113   7.861   6.088   4.677 -1.3698 -2.0431 -0.0616
  395MOL0     H52114   7.743   6.322   4.519  1.0018  2.3179 -1.9862
  395MOL0     H52115   7.892   6.232   4.483  0.8460 -1.8473  0.7591
  395MOL0     H52116   8.002   6.351   4.659  0.5041  1.6710 -1.0672
  395MOL0     H52117   7.841   6.360   4.747 -0.6355 -2.1897 -0.6781
  395MOL0     H52118   7.958   6.492   4.493 -0.7361 -0.9705  0.5665
  395MOL0     H52119   7.790   6.538   4.541 -0.9911  2.1999  2.8786
  395MOL0     H52120   7.946   6.709   4.582 -0.0868 -0.8632 -0.2907
  395MOL0     H52121   8.045   6.611   4.692  0.9834 -0.3389 -1.2234
  395MOL0     H52122   7.400   5.813   4.316  0.4509 -0.2398  0.4556
  395MOL0     H52123   7.314   5.648   4.153 -0.3102  1.0238 -0.3424
  395MOL0     H52124   7.311   5.318   3.882 -0.0285  1.8844  1.9425
  395MOL0     H52125   7.226   5.145   3.729 -1.5631 -3.4524  0.4643
  395MOL0     H52126   7.428   4.118   2.258 -1.3150  1.1431 -0.0417
  395MOL0     H52127   7.667   4.015   2.310  1.5117 -2.5069 -0.4546
  395MOL0     H52128   7.978   3.839   2.470 -0.1084  1.1747 -2.5225
  395MOL0     H52129   8.215   3.790   2.429 -0.4274  0.3906  1.2899
  395MOL0     H52130   8.443   3.686   2.381 -0.1760  1.2337  0.5862
  395MOL0     H52131   8.359   3.760   2.242  0.9517  1.0771  0.4516
  395MOL0     H52132   8.465   3.605   2.090  2.4274 -1.2016 -1.3735
  395MOL0     H52133   8.572   3.716   2.183 -0.3096  0.2348 -1.5445
  395MOL0     H52134   8.514   3.419   2.212 -0.5158 -0.1980 -3.5872
  395MOL0     H52135   8.606   3.512   2.337  0.7879  0.1416 -0.5824
  395MOL0     H52136   8.763   3.391   2.205 -0.2007 -1.7787 -3.1465
  395MOL0     H52137   8.707   3.438   2.053  0.8279 -0.9770 -0.0668
  395MOL0     H52138   8.960   3.763   2.140  0.2149 -0.1534 -2.6328
  395MOL0     H52139   8.102   3.381   2.313  1.9492 -0.4673 -1.0004
  395MOL0     H52140   7.877   3.432   2.399 -2.9599  3.0586  2.1890
  396MOL0     O52141   2.766   3.708  10.715  0.0053  0.3610  0.0938
  396MOL0     C52142   2.834   3.606  10.720 -0.1531  0.3092 -0.0369
  396MOL0     O52143   2.803   3.483  10.669 -0.6512  0.1707 -0.5918
  396MOL0     C52144   2.699   3.458  10.585 -0.7211  0.0815 -0.1898
  396MOL0     C52145   2.661   3.545  10.480 -0.1423 -0.6492 -0.0038
  396MOL0     C52146   2.563   3.513  10.389 -1.0775 -0.2580  0.0838
  396MOL0     C52147   2.497   3.394  10.398  0.3676 -0.5984 -0.1419
  396MOL0     O52148   2.402   3.369  10.298 -0.4037 -0.0397 -0.4208
  396MOL0     C52149   2.302   3.272  10.328  0.2576  0.1118  0.4540
  396MOL0     C52150   2.210   3.289  10.217  0.4203  0.1693  0.1095
  396MOL0     C52151   2.110   3.175  10.228  0.6988  0.4472 -0.5481
  396MOL0     C52152   2.012   3.177  10.119  0.6535 -0.3520  0.6891
  396MOL0     C52153   1.924   3.048  10.139 -0.3543 -0.0656 -0.6060
  396MOL0     C52154   1.816   3.077  10.244  0.6320 -0.4938  0.1703
  396MOL0     C52155   1.718   3.199  10.225 -0.9450 -0.9240 -0.2509
  396MOL0     C52156   1.620   3.222  10.335 -0.0596  0.0109  0.2829
  396MOL0     N52157   1.522   3.116  10.361 -0.6279  0.3570 -0.5031
  396MOL0     C52158   1.406   3.091  10.287 -0.5164  0.2385 -0.3076
  396MOL0     C52159   1.343   2.991  10.360  0.6725 -0.1132 -0.0601
  396MOL0     C52160   1.207   2.926  10.317  0.2999 -0.0821 -0.0877
  396MOL0     C52161   1.098   3.038  10.308 -0.5612  0.0192 -1.3327
  396MOL0     C52162   0.970   2.988  10.240 -0.5598 -0.8132 -0.0199
  396MOL0     C52163   0.862   3.098  10.236  0.1935  0.6822 -0.0578
  396MOL0     O52164   0.745   3.029  10.185  0.3949 -0.4366  0.1789
  396MOL0     C52165   0.614   3.063  10.220 -0.3361  0.0182 -0.4222
  396MOL0     C52166   0.592   3.199  10.267 -0.1227 -0.4091  0.1289
  396MOL0     C52167   0.465   3.225  10.313  0.1578 -0.2881 -0.0685
  396MOL0     C52168   0.359   3.129  10.306 -0.5242 -0.7497  0.3764
  396MOL0     C52169   0.226   3.158  10.363 -0.1552  0.1641  0.4297
  396MOL0     O52170   0.123   3.075  10.337 -0.7582 -0.7922 -0.4565
  396MOL0     C52171  -0.004   3.119  10.373 -0.6949 -0.0192  0.2097
  396MOL0     C52172  -0.072   3.219  10.298 -0.7241 -1.3802 -0.1181
  396MOL0     C52173  -0.202   3.261  10.329  0.0839 -0.2102 -0.1917
  396MOL0     C52174  -0.264   3.203  10.438  0.4217  0.4526 -1.4010
  396MOL0     O52175  -0.393   3.259  10.467 -0.5800  0.0531 -0.2060
  396MOL0     C52176  -0.451   3.248  10.595  0.0382  0.4795 -0.0337
  396MOL0     C52177  -0.598   3.297  10.587 -0.2244 -0.1280  0.1609
  396MOL0     C52178  -0.687   3.251  10.703 -0.1035  0.1314 -0.3177
  396MOL0     C52179  -0.821   3.328  10.686 -0.4191  0.1323 -1.0916
  396MOL0     C52180  -0.925   3.287  10.788  0.5653 -0.4062  0.4276
  396MOL0     C52181  -1.056   3.370  10.760  0.0848  0.3921 -0.0594
  396MOL0     C52182  -1.183   3.337  10.827 -0.0148 -0.7474  0.2854
  396MOL0     C52183  -1.257   3.465  10.867 -0.1482 -0.1800 -0.0653
  396MOL0    Cl52184  -1.307   3.563  10.727  0.2519 -0.5486 -0.0059
  396MOL0     C52185  -0.198   3.104  10.515  0.8917  1.0173  0.3963
  396MOL0     C52186  -0.069   3.058  10.483  0.0545 -0.7298  0.7949
  396MOL0     O52187   0.222   3.260  10.430 -0.3015  0.0998  0.2330
  396MOL0     C52188   0.387   2.997  10.259 -0.5700 -0.3564  0.7986
  396MOL0     C52189   0.518   2.971  10.222  0.3291 -0.0915  0.2538
  396MOL0     N52190   1.420   2.956  10.467  0.0345  0.7827  0.6693
  396MOL0     N52191   1.530   3.018  10.463 -0.0004 -0.1656  0.3743
  396MOL0     C52192   2.518   3.310  10.507  0.1057  1.4721 -0.4949
  396MOL0     C52193   2.619   3.345  10.602  0.5061 -0.3335  0.2533
  396MOL0     C52194   2.967   3.606  10.780  0.3792 -0.1547 -0.6908
  396MOL0     C52195   3.038   3.491  10.797  0.3412 -0.2996  0.2561
  396MOL0     C52196   3.176   3.499  10.832  1.0040 -0.0265 -0.1143
  396MOL0     C52197   3.235   3.615  10.881  0.0468 -0.4799 -0.2301
  396MOL0     O52198   3.358   3.615  10.932  0.0062 -0.7927 -0.2319
  396MOL0     C52199   3.469   3.670  10.858  0.1154  0.2985 -0.2583
  396MOL0     C52200   3.592   3.667  10.949 -0.1497  0.7103  0.4876
  396MOL0     C52201   3.706   3.759  10.909  0.0521  0.0906  0.1731
  396MOL0     C52202   3.677   3.913  10.926 -0.0152  0.6970 -0.0710
  396MOL0     C52203   3.809   3.980  10.917 -0.6916 -0.0075 -0.5592
  396MOL0     C52204   3.925   4.015  10.924 -0.0527 -0.0976 -0.6520
  396MOL0     C52205   3.152   3.726  10.882  0.1997 -0.6532  0.1326
  396MOL0     C52206   3.025   3.723  10.830  0.0477  0.5198 -0.5389
  396MOL0     H52207   2.724   3.633  10.475 -1.0051 -0.0233 -0.2169
  396MOL0     H52208   2.537   3.570  10.299 -1.6336  0.8721  0.9330
  396MOL0     H52209   2.252   3.289  10.424 -1.7047 -1.9381 -0.1269
  396MOL0     H52210   2.345   3.172  10.331  0.9779  0.1750 -3.4822
  396MOL0     H52211   2.271   3.300  10.127  2.8626 -2.8076  1.2428
  396MOL0     H52212   2.167   3.389  10.224  1.5958  0.9863 -2.9012
  396MOL0     H52213   2.066   3.181  10.328  1.8015  1.9430 -0.1227
  396MOL0     H52214   2.163   3.079  10.224 -1.3999 -0.9799  2.2919
  396MOL0     H52215   1.956   3.270  10.130 -1.2017 -1.5338  1.7532
  396MOL0     H52216   2.043   3.184  10.014 -2.8763  0.5822 -0.4525
  396MOL0     H52217   1.974   2.952  10.151 -1.6419 -0.6529  0.2770
  396MOL0     H52218   1.866   3.034  10.047  0.5439 -0.2617 -1.1467
  396MOL0     H52219   1.868   3.082  10.340  3.6295 -0.6375 -1.3351
  396MOL0     H52220   1.761   2.983  10.255  0.1907 -0.2634 -0.0267
  396MOL0     H52221   1.773   3.293  10.212 -0.5994 -1.2073 -0.9310
  396MOL0     H52222   1.669   3.185  10.128 -1.0116  1.2450 -0.5722
  396MOL0     H52223   1.566   3.315  10.316 -0.7159 -0.6441 -1.1240
  396MOL0     H52224   1.666   3.249  10.431 -0.0752  0.9678  0.0382
  396MOL0     H52225   1.386   3.152  10.199 -0.3847 -1.8436 -1.8463
  396MOL0     H52226   1.176   2.855  10.395 -2.1524  1.7141  0.6661
  396MOL0     H52227   1.226   2.873  10.223 -2.3957 -0.4997 -0.4606
  396MOL0     H52228   1.138   3.132  10.270 -3.6381 -0.0214 -5.3770
  396MOL0     H52229   1.066   3.061  10.410  0.8201  0.5739 -1.0041
  396MOL0     H52230   0.992   2.976  10.133 -2.5480  2.2064 -0.8864
  396MOL0     H52231   0.949   2.890  10.285  1.4364 -2.0688 -1.5938
  396MOL0     H52232   0.889   3.191  10.186 -0.3054  0.1743 -1.3197
  396MOL0     H52233   0.846   3.134  10.338  4.0324  1.3614  0.4569
  396MOL0     H52234   0.674   3.270  10.264  1.7826 -2.4983  0.1397
  396MOL0     H52235   0.443   3.323  10.353 -1.0896  0.2804 -2.0146
  396MOL0     H52236  -0.003   3.269  10.231  1.3016  0.6891  3.2066
  396MOL0     H52237  -0.260   3.340  10.283 -2.4873 -2.1578 -0.5218
  396MOL0     H52238  -0.393   3.305  10.668  0.3545  0.1811 -0.0497
  396MOL0     H52239  -0.457   3.141  10.620  0.8901  0.5944  0.7094
  396MOL0     H52240  -0.636   3.256  10.493  0.6286  2.2851 -1.3140
  396MOL0     H52241  -0.593   3.406  10.581 -1.6803  0.0175  0.9369
  396MOL0     H52242  -0.649   3.280  10.802 -3.2310  1.4926  0.6128
  396MOL0     H52243  -0.706   3.144  10.714  0.5218 -0.0731 -1.1377
  396MOL0     H52244  -0.801   3.432  10.716  2.3335 -0.6421  0.1176
  396MOL0     H52245  -0.863   3.310  10.587 -1.1028 -3.8047 -0.2542
  396MOL0     H52246  -0.890   3.301  10.891 -1.4586  0.8384  1.0018
  396MOL0     H52247  -0.939   3.179  10.778  4.5862 -1.1434  1.1465
  396MOL0     H52248  -1.076   3.381  10.654  0.8797  0.0239 -0.2617
  396MOL0     H52249  -1.030   3.470  10.794 -0.4920  0.8690 -0.9986
  396MOL0     H52250  -1.235   3.267  10.762  0.9419  0.0457 -1.3960
  396MOL0     H52251  -1.168   3.277  10.917 -0.3547 -2.0020 -0.4707
  396MOL0     H52252  -1.207   3.531  10.938 -1.3780  1.3372 -0.5490
  396MOL0     H52253  -1.351   3.430  10.912  0.0280 -4.2765 -2.3509
  396MOL0     H52254  -0.262   3.067  10.594 -3.9531  1.1202 -3.0411
  396MOL0     H52255  -0.022   2.984  10.548  2.5702 -2.0726 -2.2777
  396MOL0     H52256   0.314   2.917  10.266 -0.1609 -1.0185 -1.7342
  396MOL0     H52257   0.551   2.870  10.199  3.3598  1.2747 -2.3832
  396MOL0     H52258   2.462   3.218  10.522  2.0542  0.5798  1.9190
  396MOL0     H52259   2.651   3.286  10.686  1.7970 -1.1907 -0.8034
  396MOL0     H52260   3.006   3.391  10.770  1.3798 -0.3547 -0.8679
  396MOL0     H52261   3.236   3.409  10.841  0.4521 -0.5455 -1.3907
  396MOL0     H52262   3.445   3.777  10.853 -0.1469  0.2546  0.0430
  396MOL0     H52263   3.481   3.622  10.760 -2.0086 -1.2991  0.1784
  396MOL0     H52264   3.562   3.697  11.050 -1.1434  0.4426  0.2839
  396MOL0     H52265   3.634   3.568  10.971 -0.8295  0.0773 -0.9393
  396MOL0     H52266   3.728   3.734  10.804  0.3011  2.4742 -0.4075
  396MOL0     H52267   3.796   3.734  10.965  0.4862 -0.7747 -0.8679
  396MOL0     H52268   3.617   3.953  10.844  0.1150  0.5832 -0.2247
  396MOL0     H52269   3.627   3.934  11.020 -3.3418  3.0608 -2.1505
  396MOL0     H52270   4.024   4.054  10.934 -0.5120  0.4660  2.7762
  396MOL0     H52271   3.192   3.818  10.923  4.2612 -2.5163  0.8205
  396MOL0     H52272   2.959   3.809  10.823  0.1737  0.6086 -0.6360
  397MOL0     O52273  10.703   8.785   1.429  0.5636  0.4235  0.4014
  397MOL0     C52274  10.694   8.726   1.537 -0.3773  0.2711 -0.5503
  397MOL0     O52275  10.588   8.719   1.613 -0.0772 -0.0053 -1.4572
  397MOL0     C52276  10.459   8.754   1.572  0.7616 -0.1647 -0.7342
  397MOL0     C52277  10.405   8.757   1.438 -0.0250 -0.1540 -0.3291
  397MOL0     C52278  10.267   8.764   1.414 -0.1178 -0.5246 -0.5341
  397MOL0     C52279  10.180   8.763   1.524  0.7800  0.5773  0.5658
  397MOL0     O52280  10.041   8.770   1.500  0.4444 -0.3879 -0.5773
  397MOL0     C52281   9.960   8.809   1.604 -0.0051 -0.4854 -0.2430
  397MOL0     C52282   9.811   8.808   1.555 -0.4996  0.1109  0.8166
  397MOL0     C52283   9.717   8.893   1.649 -0.1167 -0.2494 -0.2038
  397MOL0     C52284   9.578   8.887   1.584 -0.3423  0.5630 -0.1215
  397MOL0     C52285   9.490   8.988   1.657 -0.2705  0.2109  0.6678
  397MOL0     C52286   9.442   8.947   1.791 -0.4423  0.2033 -0.6460
  397MOL0     C52287   9.337   9.044   1.847 -0.5543  0.3077 -0.4216
  397MOL0     C52288   9.268   8.991   1.965 -0.5310  1.2940 -0.2216
  397MOL0     N52289   9.140   9.058   1.995  0.6011 -0.1854 -0.1366
  397MOL0     C52290   9.126   9.183   2.050 -1.0209  0.4206 -0.5772
  397MOL0     C52291   8.994   9.200   2.029  0.0212  0.3146 -0.2918
  397MOL0     C52292   8.915   9.319   2.076 -0.3854 -0.2237  0.8890
  397MOL0     C52293   8.860   9.402   1.955  0.7489 -0.0152 -0.6177
  397MOL0     C52294   8.791   9.534   2.013  0.1967  0.2538  0.4317
  397MOL0     C52295   8.731   9.628   1.915 -1.2218  0.8530  0.0988
  397MOL0     O52296   8.649   9.539   1.825 -0.1525 -0.1181  0.4536
  397MOL0     C52297   8.508   9.545   1.836 -0.8779 -0.6731 -0.7084
  397MOL0     C52298   8.443   9.444   1.773  0.4426 -0.1739  0.5178
  397MOL0     C52299   8.301   9.434   1.767 -1.1123  0.4358  1.0816
  397MOL0     C52300   8.228   9.531   1.820  0.0706  0.2262  0.8229
  397MOL0     C52301   8.076   9.516   1.820 -0.9892  0.1185 -0.3485
  397MOL0     O52302   8.012   9.630   1.841  0.6903 -0.1171  0.3048
  397MOL0     C52303   7.872   9.644   1.834 -0.7053  0.2721  0.0859
  397MOL0     C52304   7.778   9.544   1.792  0.0366  0.7574 -0.1330
  397MOL0     C52305   7.638   9.566   1.797 -0.0465 -0.1322  0.2723
  397MOL0     C52306   7.579   9.684   1.851 -0.1474 -0.2741  0.1626
  397MOL0     O52307   7.438   9.703   1.853 -0.9977  0.2830 -0.4652
  397MOL0     C52308   7.368   9.829   1.885  0.1428  0.6828  0.4044
  397MOL0     C52309   7.218   9.794   1.920 -0.3424 -0.6445  0.0262
  397MOL0     C52310   7.149   9.925   1.956  0.6060 -0.0112 -0.1501
  397MOL0     C52311   6.995   9.929   1.996 -0.3202 -0.9389 -0.9705
  397MOL0     C52312   6.898   9.842   1.908 -0.7517 -0.7094  0.1218
  397MOL0     C52313   6.881   9.905   1.775 -0.3097 -0.0725 -0.1684
  397MOL0     C52314   6.759   9.861   1.696 -0.0032 -0.0218 -0.4466
  397MOL0     C52315   6.772   9.906   1.547  0.0277  0.5425  0.7634
  397MOL0    Cl52316   6.630   9.857   1.457  0.0980  0.0179 -0.4449
  397MOL0     C52317   7.670   9.780   1.899 -0.4276 -0.4971  0.0014
  397MOL0     C52318   7.816   9.765   1.890 -0.3455 -0.3463  0.2017
  397MOL0     O52319   8.027   9.403   1.827  0.2416 -0.5540  0.7722
  397MOL0     C52320   8.292   9.649   1.870  0.4082 -0.3783  0.6447
  397MOL0     C52321   8.432   9.654   1.876 -0.2065 -0.5505  0.3459
  397MOL0     N52322   8.930   9.088   1.978  0.0352  0.4293 -0.8571
  397MOL0     N52323   9.022   9.005   1.955  0.9482  0.4391 -0.2487
  397MOL0     C52324  10.231   8.752   1.656  0.2557  0.2237  0.2326
  397MOL0     C52325  10.370   8.755   1.679 -0.0901 -0.6082 -0.9920
  397MOL0     C52326  10.818   8.655   1.589  0.3266  0.0051 -0.8015
  397MOL0     C52327  10.925   8.613   1.510  0.1473 -0.6821 -0.3802
  397MOL0     C52328  11.044   8.561   1.561 -0.2402 -0.2100  0.6212
  397MOL0     C52329  11.061   8.540   1.696  1.2039 -0.4491  0.8812
  397MOL0     O52330  11.178   8.494   1.731 -0.2053 -0.0170 -0.0459
  397MOL0     C52331  11.175   8.381   1.820  0.7273 -0.1494 -0.3050
  397MOL0     C52332  11.310   8.298   1.794  0.1611  0.0681  0.4597
  397MOL0     C52333  11.363   8.243   1.931 -0.5019 -0.0543  0.1149
  397MOL0     C52334  11.503   8.170   1.894 -0.0412 -0.1737  0.1761
  397MOL0     C52335  11.558   8.064   1.983 -0.3030  0.2338  0.1179
  397MOL0     C52336  11.615   7.966   2.026  0.6598  0.2647 -0.2577
  397MOL0     C52337  10.949   8.566   1.777  0.8574  0.4119 -0.6125
  397MOL0     C52338  10.834   8.625   1.732 -0.5383 -0.4339  0.1232
  397MOL0     H52339  10.473   8.720   1.362  0.2552 -2.3873  0.9142
  397MOL0     H52340  10.218   8.775   1.318  0.1516  0.2534 -0.5948
  397MOL0     H52341   9.990   8.911   1.630  1.5039 -0.5829 -1.4056
  397MOL0     H52342   9.960   8.734   1.683 -1.0945  0.6413  0.8759
  397MOL0     H52343   9.777   8.705   1.540  0.1470  0.2648 -2.2826
  397MOL0     H52344   9.806   8.852   1.455  1.1747 -3.0602 -0.8212
  397MOL0     H52345   9.757   8.995   1.646  3.1272 -1.3636  0.5408
  397MOL0     H52346   9.719   8.859   1.753 -0.3724  2.8366  0.8952
  397MOL0     H52347   9.580   8.933   1.485 -0.3326  2.2443  0.6190
  397MOL0     H52348   9.530   8.789   1.577  1.0683 -0.0764 -1.1050
  397MOL0     H52349   9.408   9.013   1.588  0.9140 -2.8741 -2.1385
  397MOL0     H52350   9.553   9.075   1.678  0.7734 -0.8655  2.1733
  397MOL0     H52351   9.532   8.947   1.854 -1.0848 -0.0062  0.2847
  397MOL0     H52352   9.408   8.844   1.783 -0.0468 -0.2795  2.4609
  397MOL0     H52353   9.392   9.135   1.871  1.6919 -0.8570 -0.9192
  397MOL0     H52354   9.264   9.062   1.767 -1.3143  2.9992  0.7577
  397MOL0     H52355   9.340   9.009   2.045  0.1399  1.3765 -0.8330
  397MOL0     H52356   9.243   8.886   1.948 -1.0806  1.3702  0.0881
  397MOL0     H52357   9.190   9.258   2.093 -0.8313  0.2693 -0.5956
  397MOL0     H52358   8.983   9.375   2.140  1.1505 -1.2190  0.1787
  397MOL0     H52359   8.828   9.282   2.131 -1.1195  1.1381  0.6770
  397MOL0     H52360   8.796   9.338   1.893 -1.3864  1.2116  0.2134
  397MOL0     H52361   8.942   9.440   1.893  3.6326 -1.4383  2.0109
  397MOL0     H52362   8.711   9.512   2.084  0.1342 -0.8771  0.0410
  397MOL0     H52363   8.868   9.588   2.070  3.4751 -1.9628 -1.5373
  397MOL0     H52364   8.808   9.678   1.856 -1.3919 -0.8381 -1.6401
  397MOL0     H52365   8.678   9.704   1.973  1.7045  1.7706  1.7988
  397MOL0     H52366   8.493   9.359   1.727 -0.8135 -0.5136 -0.2707
  397MOL0     H52367   8.251   9.352   1.716  1.9403 -1.1885  0.4505
  397MOL0     H52368   7.816   9.453   1.748  1.4146 -0.0765  2.5549
  397MOL0     H52369   7.571   9.493   1.753  1.7648 -0.0936 -2.8962
  397MOL0     H52370   7.377   9.899   1.801  0.9945 -0.2072 -0.2688
  397MOL0     H52371   7.406   9.884   1.971 -0.8049  0.8008  0.7638
  397MOL0     H52372   7.229   9.728   2.006 -0.9663 -0.5017  0.2206
  397MOL0     H52373   7.174   9.747   1.830  2.7993 -0.6288 -1.6462
  397MOL0     H52374   7.178   9.995   1.877  4.8051 -2.3704 -0.9589
  397MOL0     H52375   7.204   9.966   2.042  2.8459 -2.1479 -0.4650
  397MOL0     H52376   6.992   9.883   2.095 -0.4727 -0.7131 -0.8704
  397MOL0     H52377   6.949  10.027   2.006  0.5590 -0.7464  2.2248
  397MOL0     H52378   6.805   9.845   1.966 -1.4709 -1.2639 -0.9540
  397MOL0     H52379   6.930   9.738   1.902  0.6606 -0.3558  1.2038
  397MOL0     H52380   6.969   9.888   1.712 -0.0358  1.0317 -0.1005
  397MOL0     H52381   6.863  10.012   1.788 -1.9778 -0.2639 -0.6856
  397MOL0     H52382   6.755   9.752   1.697  0.5450 -0.0390  0.4385
  397MOL0     H52383   6.668   9.888   1.750  1.3825 -2.5693  3.5573
  397MOL0     H52384   6.864   9.873   1.499  0.6394 -0.9910  2.8377
  397MOL0     H52385   6.760  10.015   1.551  0.6091  0.7053 -1.3405
  397MOL0     H52386   7.626   9.865   1.950 -0.7343 -1.3188  1.1561
  397MOL0     H52387   7.877   9.839   1.941  1.4215 -2.1770  0.8712
  397MOL0     H52388   8.234   9.728   1.918 -1.1580 -1.4823  0.6245
  397MOL0     H52389   8.490   9.742   1.900  0.5928 -0.7258 -0.8833
  397MOL0     H52390  10.170   8.749   1.746  0.4070  0.2750  0.3369
  397MOL0     H52391  10.395   8.739   1.783 -2.4583 -1.0726 -0.4289
  397MOL0     H52392  10.923   8.624   1.402 -0.6264 -1.8954 -0.5146
  397MOL0     H52393  11.121   8.537   1.489 -0.3099  1.0261  0.1066
  397MOL0     H52394  11.101   8.303   1.802  1.2283 -1.0764  1.3606
  397MOL0     H52395  11.154   8.423   1.919 -2.4912  2.5456 -1.9604
  397MOL0     H52396  11.303   8.212   1.726 -0.1368 -1.4367  2.3267
  397MOL0     H52397  11.390   8.367   1.766  1.4261 -1.1347  0.9727
  397MOL0     H52398  11.292   8.170   1.971 -1.2678  1.0268  0.7953
  397MOL0     H52399  11.391   8.320   2.003  2.3208  0.7098 -1.6298
  397MOL0     H52400  11.491   8.135   1.791 -0.4647  0.8766 -0.1465
  397MOL0     H52401  11.581   8.247   1.889 -1.3583  1.1475 -1.0539
  397MOL0     H52402  11.671   7.880   2.057 -1.6605 -2.1541 -2.2040
  397MOL0     H52403  10.955   8.552   1.885 -0.1256 -1.2026 -0.7293
  397MOL0     H52404  10.759   8.645   1.807  1.2007 -0.2849  1.9028
  398MOL0     O52405   6.801   2.505   5.829 -0.2881 -0.1833  0.2755
  398MOL0     C52406   6.843   2.603   5.761  0.5396  0.3965 -0.7225
  398MOL0     O52407   6.773   2.719   5.729 -0.1807  0.1881 -0.8506
  398MOL0     C52408   6.649   2.740   5.792  0.3663  0.0948 -0.1631
  398MOL0     C52409   6.544   2.792   5.709 -0.8576  1.2043  0.2442
  398MOL0     C52410   6.415   2.836   5.758  0.0281  1.0342 -0.2638
  398MOL0     C52411   6.392   2.829   5.900  0.5136  0.3369  0.3888
  398MOL0     O52412   6.267   2.854   5.954  0.1862 -0.2833 -0.7831
  398MOL0     C52413   6.145   2.853   5.870 -0.3203 -0.0958  0.3966
  398MOL0     C52414   6.015   2.853   5.940  0.3792  0.1429 -1.2599
  398MOL0     C52415   5.991   3.004   5.989  0.2733  0.4103 -0.4212
  398MOL0     C52416   5.871   3.014   6.085  0.3968  0.0737  0.1343
  398MOL0     C52417   5.882   3.138   6.178  0.6199  0.0870 -0.2370
  398MOL0     C52418   5.764   3.155   6.276  1.2834  0.5225 -0.1371
  398MOL0     C52419   5.627   3.132   6.205  0.1624 -0.4501 -0.5754
  398MOL0     C52420   5.511   3.205   6.284  0.2626  0.4908  0.3951
  398MOL0     N52421   5.384   3.168   6.238 -0.5153  0.3375  0.3088
  398MOL0     C52422   5.324   3.046   6.247 -0.1924 -0.9113 -0.1889
  398MOL0     C52423   5.199   3.063   6.209  0.7579 -0.1941  0.3686
  398MOL0     C52424   5.090   2.959   6.195 -0.3451  1.0831  0.3141
  398MOL0     C52425   4.994   2.960   6.308 -0.8216  0.7479 -0.4095
  398MOL0     C52426   4.917   3.088   6.313  1.3073  0.1725 -0.7516
  398MOL0     C52427   4.840   3.110   6.186  1.3681  0.3352 -0.3058
  398MOL0     O52428   4.742   3.003   6.149  0.3996  0.2090 -0.2555
  398MOL0     C52429   4.614   2.991   6.214 -0.3380 -0.7017  0.1702
  398MOL0     C52430   4.541   2.876   6.217  0.9993  0.5428  0.7937
  398MOL0     C52431   4.413   2.860   6.278 -0.2128  0.2771  0.7323
  398MOL0     C52432   4.358   2.979   6.340 -0.0001 -0.1692  0.2354
  398MOL0     C52433   4.219   2.978   6.394 -0.5056  0.9033  1.1872
  398MOL0     O52434   4.146   2.869   6.348  0.4172 -0.0672 -0.2301
  398MOL0     C52435   4.025   2.834   6.403 -0.9376  0.1909  0.0141
  398MOL0     C52436   3.979   2.876   6.523 -0.4407  0.1800  0.3263
  398MOL0     C52437   3.850   2.845   6.567 -0.0113 -0.4456  0.2414
  398MOL0     C52438   3.768   2.755   6.491  0.4289  0.1814 -0.1518
  398MOL0     O52439   3.641   2.739   6.539  0.6081 -0.7717 -0.0192
  398MOL0     C52440   3.585   2.614   6.499 -0.0026 -0.6986  0.2810
  398MOL0     C52441   3.479   2.632   6.390 -0.2417 -0.5181  0.1378
  398MOL0     C52442   3.342   2.701   6.444  0.1622  0.7005 -0.7039
  398MOL0     C52443   3.258   2.603   6.538  0.1470 -0.4203 -0.1862
  398MOL0     C52444   3.114   2.639   6.563  0.3840  0.1751 -0.0429
  398MOL0     C52445   3.034   2.646   6.436  0.8708  0.9581 -0.3515
  398MOL0     C52446   2.880   2.644   6.463 -0.1792  0.2183 -0.1533
  398MOL0     C52447   2.813   2.627   6.321 -0.3006 -1.0545  1.0881
  398MOL0    Cl52448   2.847   2.793   6.244 -0.0997  0.1304  0.0881
  398MOL0     C52449   3.829   2.694   6.379 -0.2794 -0.7984  0.5482
  398MOL0     C52450   3.962   2.730   6.336 -0.2057  0.7706 -0.3641
  398MOL0     O52451   4.184   3.068   6.474  0.0529 -0.3564 -0.1752
  398MOL0     C52452   4.430   3.094   6.337 -0.5984 -0.1377 -0.7133
  398MOL0     C52453   4.557   3.102   6.284 -0.0330  1.0661 -0.8911
  398MOL0     N52454   5.177   3.200   6.185  0.0001 -0.2214 -0.0078
  398MOL0     N52455   5.290   3.258   6.190 -0.4521  1.1212  0.3844
  398MOL0     C52456   6.494   2.763   5.977  0.2774 -0.2811 -0.3233
  398MOL0     C52457   6.618   2.727   5.931  0.5730  1.0553 -0.1790
  398MOL0     C52458   6.981   2.591   5.710  0.5754  1.0602 -0.2726
  398MOL0     C52459   7.013   2.677   5.601 -0.3722  0.4777  0.2509
  398MOL0     C52460   7.140   2.673   5.541  0.1731 -0.3934  0.6003
  398MOL0     C52461   7.233   2.588   5.596  0.0320 -0.8775 -0.5563
  398MOL0     O52462   7.364   2.581   5.562  0.5457  0.1436  0.1543
  398MOL0     C52463   7.422   2.685   5.482 -0.3426 -0.3937  0.1700
  398MOL0     C52464   7.567   2.695   5.511 -0.0565 -0.2130  0.2597
  398MOL0     C52465   7.660   2.576   5.476 -0.4161  0.3460  0.3200
  398MOL0     C52466   7.805   2.591   5.528 -0.9160 -0.4459 -0.1293
  398MOL0     C52467   7.894   2.667   5.439 -0.4317 -0.0203 -0.6600
  398MOL0     C52468   7.958   2.731   5.360 -0.2496  0.7060  0.3003
  398MOL0     C52469   7.194   2.496   5.696 -0.2980 -0.7567 -1.2537
  398MOL0     C52470   7.066   2.489   5.747 -0.1247 -0.4424 -0.1169
  398MOL0     H52471   6.560   2.801   5.602 -3.1197  2.5495 -0.0487
  398MOL0     H52472   6.351   2.895   5.694  0.5975 -0.1435 -1.9800
  398MOL0     H52473   6.150   2.759   5.814  3.5687  0.1709  0.0084
  398MOL0     H52474   6.137   2.934   5.796 -0.9550  1.1389  1.7753
  398MOL0     H52475   6.024   2.790   6.028  2.2349  1.7018 -0.2532
  398MOL0     H52476   5.934   2.820   5.874 -0.5968 -1.6422  0.7072
  398MOL0     H52477   5.979   3.070   5.903  0.6693 -0.7592 -1.3871
  398MOL0     H52478   6.087   3.027   6.037  0.3999 -0.4262 -0.2536
  398MOL0     H52479   5.779   3.022   6.026  0.4533 -2.1970 -0.3492
  398MOL0     H52480   5.867   2.916   6.135  2.0561  0.4382  1.0553
  398MOL0     H52481   5.889   3.225   6.113 -1.5750 -1.2543 -2.4827
  398MOL0     H52482   5.980   3.132   6.227  0.0110 -0.7620  0.9507
  398MOL0     H52483   5.764   3.256   6.319  3.4728  0.2908  0.5112
  398MOL0     H52484   5.773   3.092   6.365 -4.3019  1.1715  1.2802
  398MOL0     H52485   5.631   3.181   6.107  0.8396 -0.3752 -0.5139
  398MOL0     H52486   5.607   3.025   6.202  0.1076 -0.4683  0.2078
  398MOL0     H52487   5.523   3.314   6.285 -3.5305  1.0611  2.2132
  398MOL0     H52488   5.519   3.189   6.392 -0.5500  0.4870  0.4553
  398MOL0     H52489   5.371   2.953   6.278 -0.4058 -1.9119 -2.6573
  398MOL0     H52490   5.133   2.861   6.172 -0.8944  1.2353 -1.5097
  398MOL0     H52491   5.037   2.983   6.102  0.0946  0.3148 -0.1445
  398MOL0     H52492   5.043   2.942   6.404 -1.8561  1.0470  0.1871
  398MOL0     H52493   4.928   2.873   6.303 -1.8943  1.3652  1.7549
  398MOL0     H52494   4.848   3.077   6.397  0.5187  0.4187 -1.3536
  398MOL0     H52495   4.983   3.174   6.330  0.6793  0.6451 -0.6783
  398MOL0     H52496   4.896   3.135   6.096 -2.8809  1.4723 -2.8944
  398MOL0     H52497   4.789   3.207   6.195  0.4510 -0.1198 -0.4951
  398MOL0     H52498   4.576   2.793   6.157 -0.5253  0.6504 -0.3245
  398MOL0     H52499   4.351   2.772   6.284 -1.8780  1.4944  2.5200
  398MOL0     H52500   4.044   2.923   6.596  2.7742 -1.8968 -0.9689
  398MOL0     H52501   3.806   2.894   6.653 -4.2758 -1.6114 -1.0122
  398MOL0     H52502   3.537   2.565   6.585  1.0649 -0.0666  1.2752
  398MOL0     H52503   3.662   2.540   6.475 -1.4440 -1.6329 -1.6539
  398MOL0     H52504   3.448   2.537   6.346 -1.0162 -0.3319  0.2774
  398MOL0     H52505   3.532   2.692   6.315  1.1393  0.3742  1.7461
  398MOL0     H52506   3.284   2.705   6.352 -0.1904 -0.1838 -0.5357
  398MOL0     H52507   3.368   2.799   6.484  0.4052  1.6634 -3.0572
  398MOL0     H52508   3.262   2.509   6.483 -0.3547  0.8131 -2.4528
  398MOL0     H52509   3.309   2.589   6.634 -0.1173  0.8921  0.1745
  398MOL0     H52510   3.107   2.742   6.599  1.4177  0.6509 -1.1306
  398MOL0     H52511   3.065   2.567   6.629  0.8651  0.0264  0.1522
  398MOL0     H52512   3.065   2.561   6.373  1.5475  0.6825  0.3391
  398MOL0     H52513   3.074   2.731   6.380  2.5177  0.6783  0.3420
  398MOL0     H52514   2.856   2.563   6.532 -2.3504  0.1664 -0.8982
  398MOL0     H52515   2.852   2.739   6.510  1.0797 -1.3055  4.1047
  398MOL0     H52516   2.705   2.605   6.320 -0.7130  0.8023  0.8443
  398MOL0     H52517   2.858   2.555   6.253  0.2981  2.2366 -2.3274
  398MOL0     H52518   3.779   2.611   6.330 -2.7651  1.6095 -1.3342
  398MOL0     H52519   4.007   2.688   6.246  3.4639  2.5070  0.4599
  398MOL0     H52520   4.400   3.179   6.397 -4.5675 -2.9748  1.8063
  398MOL0     H52521   4.607   3.199   6.287  0.5411  0.7562 -0.2643
  398MOL0     H52522   6.489   2.764   6.085 -0.0267  1.8359 -0.3121
  398MOL0     H52523   6.684   2.683   6.005 -0.3167  1.1621  0.7029
  398MOL0     H52524   6.945   2.755   5.566  1.6279  2.4641  0.5905
  398MOL0     H52525   7.162   2.744   5.461  1.2905 -0.2325  1.0354
  398MOL0     H52526   7.383   2.786   5.498 -0.4534 -0.3680 -0.2539
  398MOL0     H52527   7.412   2.665   5.375  3.9742  0.9789 -0.6860
  398MOL0     H52528   7.598   2.782   5.452 -2.4651  0.4552 -0.1377
  398MOL0     H52529   7.567   2.707   5.620 -2.2737 -2.5867  0.6349
  398MOL0     H52530   7.667   2.557   5.368  0.7713 -0.2879  0.4844
  398MOL0     H52531   7.613   2.493   5.529  0.0462  0.0876  0.3377
  398MOL0     H52532   7.806   2.643   5.625 -2.5413 -0.8115  0.1010
  398MOL0     H52533   7.861   2.498   5.541 -0.8663 -0.7756 -2.3159
  398MOL0     H52534   8.025   2.774   5.288 -0.4236  2.4984  1.1467
  398MOL0     H52535   7.271   2.426   5.726 -1.0675 -1.2073 -0.2796
  398MOL0     H52536   7.049   2.402   5.810  0.8156 -1.7858 -1.6282
  399MOL0     O52537   3.362   4.723   7.760 -0.1397 -0.0809 -0.8155
  399MOL0     C52538   3.314   4.790   7.676  0.1773  0.3142  0.2177
  399MOL0     O52539   3.180   4.803   7.654 -0.4532  0.1643  0.3625
  399MOL0     C52540   3.092   4.717   7.703  0.5599 -0.2891 -0.0993
  399MOL0     C52541   3.115   4.601   7.766  0.4909  0.5903 -0.7726
  399MOL0     C52542   3.013   4.535   7.840 -0.0990 -0.9855  0.6309
  399MOL0     C52543   2.884   4.592   7.846 -0.6259  0.7301 -0.4274
  399MOL0     O52544   2.791   4.538   7.935 -0.6721  0.5769  0.2882
  399MOL0     C52545   2.661   4.505   7.883 -0.1199  0.2742  1.0835
  399MOL0     C52546   2.567   4.616   7.933  0.0588 -0.2745  0.4139
  399MOL0     C52547   2.425   4.569   7.891  0.3625  0.4560 -0.4863
  399MOL0     C52548   2.378   4.447   7.974 -0.0282 -0.3425  0.0038
  399MOL0     C52549   2.227   4.435   7.943  0.8388  0.7513 -0.8658
  399MOL0     C52550   2.178   4.294   7.991  0.3119 -0.3608  0.1724
  399MOL0     C52551   2.026   4.297   7.973  0.3993 -0.0845 -0.1979
  399MOL0     C52552   1.964   4.171   8.031 -1.5589  0.4460  0.5312
  399MOL0     N52553   1.823   4.171   8.045 -0.3726  0.2993  0.1794
  399MOL0     C52554   1.747   4.244   8.136 -0.8196 -0.4840  0.4573
  399MOL0     C52555   1.613   4.210   8.115 -0.4433 -0.0268 -0.3268
  399MOL0     C52556   1.503   4.277   8.195 -0.0332 -0.3140 -0.1488
  399MOL0     C52557   1.445   4.379   8.107 -0.3202  0.2250  0.7837
  399MOL0     C52558   1.306   4.428   8.148 -0.4012  0.4658  0.2813
  399MOL0     C52559   1.265   4.544   8.063 -1.2350  0.7417 -0.9291
  399MOL0     O52560   1.135   4.606   8.084  0.2221 -0.0797 -0.5370
  399MOL0     C52561   1.020   4.527   8.094 -0.2497 -0.6609  0.2692
  399MOL0     C52562   0.918   4.582   8.170  1.2268  0.1056 -1.0852
  399MOL0     C52563   0.792   4.511   8.182  0.0428 -0.3048 -0.3031
  399MOL0     C52564   0.769   4.390   8.102  0.0137 -0.7550 -0.6739
  399MOL0     C52565   0.631   4.342   8.099  0.6698 -0.1517  0.5581
  399MOL0     O52566   0.543   4.376   8.195 -0.0249 -0.0378 -0.2400
  399MOL0     C52567   0.420   4.326   8.191  0.4400  0.9025 -0.4993
  399MOL0     C52568   0.393   4.187   8.235 -0.1034  0.1188  0.3946
  399MOL0     C52569   0.259   4.140   8.231  1.0081  0.3491 -0.0799
  399MOL0     C52570   0.144   4.211   8.185 -0.2833 -0.8541 -0.9599
  399MOL0     O52571   0.019   4.157   8.177 -0.3717 -0.6780  0.1844
  399MOL0     C52572  -0.100   4.242   8.175  0.7308 -0.0343  0.2069
  399MOL0     C52573  -0.216   4.161   8.217 -0.1631 -0.1629 -0.6580
  399MOL0     C52574  -0.340   4.246   8.239  0.2245 -0.1508 -0.0678
  399MOL0     C52575  -0.459   4.146   8.236  0.4845  0.5705 -0.8797
  399MOL0     C52576  -0.587   4.210   8.295  0.7841 -0.2293 -0.3335
  399MOL0     C52577  -0.710   4.123   8.295  0.2346 -0.2531 -0.5499
  399MOL0     C52578  -0.774   4.096   8.162 -0.2839 -0.0842 -0.4934
  399MOL0     C52579  -0.793   4.215   8.073  0.8104 -0.4487  0.1892
  399MOL0    Cl52580  -0.881   4.346   8.151  0.5898 -0.3763  0.2434
  399MOL0     C52581   0.174   4.342   8.137 -0.2092  0.4306  0.0901
  399MOL0     C52582   0.307   4.398   8.142  0.3303 -0.1968 -1.3825
  399MOL0     O52583   0.606   4.260   8.005  0.0995 -0.5448 -0.5357
  399MOL0     C52584   0.873   4.344   8.020  0.1532 -0.2139  0.2338
  399MOL0     C52585   0.997   4.413   8.018 -0.3216 -0.2226  1.0899
  399MOL0     N52586   1.610   4.118   8.015  0.2345 -0.5425  1.0495
  399MOL0     N52587   1.732   4.109   7.964 -0.0448 -0.0641 -0.6401
  399MOL0     C52588   2.858   4.705   7.774  0.8048  1.0027 -0.2410
  399MOL0     C52589   2.958   4.772   7.694  0.1291  0.4816 -0.7901
  399MOL0     C52590   3.406   4.878   7.603 -0.3664 -0.0693  0.1321
  399MOL0     C52591   3.542   4.856   7.601  0.5765  0.1402  0.1441
  399MOL0     C52592   3.630   4.940   7.529  0.3983 -0.8901  0.3611
  399MOL0     C52593   3.581   5.058   7.487  0.2053  0.3116 -0.7541
  399MOL0     O52594   3.644   5.150   7.407 -0.2807  0.5292  0.1616
  399MOL0     C52595   3.771   5.197   7.452 -0.4583 -0.3269 -0.8204
  399MOL0     C52596   3.850   5.243   7.332 -0.2748  0.0094  0.3239
  399MOL0     C52597   3.979   5.319   7.374 -0.1728  0.0975  0.1150
  399MOL0     C52598   4.073   5.234   7.459  0.1346  0.4911 -0.6718
  399MOL0     C52599   4.174   5.329   7.517 -0.5380  0.2159  0.5103
  399MOL0     C52600   4.262   5.395   7.559  0.0742  0.6423  0.5099
  399MOL0     C52601   3.448   5.073   7.489 -0.4237 -1.5971 -0.3190
  399MOL0     C52602   3.356   4.991   7.538 -0.1890 -0.1830  0.5348
  399MOL0     H52603   3.204   4.540   7.766 -0.1370 -0.3898  0.6964
  399MOL0     H52604   3.040   4.447   7.898 -0.4399 -1.1123  0.5952
  399MOL0     H52605   2.638   4.406   7.923  1.8943 -0.9924 -0.6470
  399MOL0     H52606   2.667   4.498   7.774  0.8600 -2.1949  1.2342
  399MOL0     H52607   2.582   4.710   7.878 -0.2414 -0.1419  0.5598
  399MOL0     H52608   2.574   4.618   8.042 -1.9185 -0.1760  0.5630
  399MOL0     H52609   2.421   4.537   7.787  1.3104  0.1922 -0.4476
  399MOL0     H52610   2.358   4.654   7.908  0.5005  0.5879 -0.5983
  399MOL0     H52611   2.430   4.352   7.954 -0.5398 -0.6544  0.1419
  399MOL0     H52612   2.396   4.466   8.080  1.0778  0.3398 -0.2860
  399MOL0     H52613   2.209   4.466   7.840  0.4700 -0.4012 -1.1595
  399MOL0     H52614   2.161   4.494   8.008 -2.2807 -5.7282  2.9156
  399MOL0     H52615   2.220   4.277   8.091  2.5140  0.2197 -0.6056
  399MOL0     H52616   2.213   4.210   7.932  0.0805 -0.9258  0.8290
  399MOL0     H52617   1.984   4.383   8.026  1.4245  0.3358 -0.0457
  399MOL0     H52618   2.002   4.305   7.866  1.6143 -0.7798 -0.5462
  399MOL0     H52619   2.007   4.162   8.131  0.8188 -1.6494 -0.5652
  399MOL0     H52620   1.985   4.076   7.980 -0.4021  0.5309  0.8419
  399MOL0     H52621   1.790   4.311   8.209  1.1171  1.5548 -2.3619
  399MOL0     H52622   1.539   4.318   8.290  0.6283 -2.1866  0.4679
  399MOL0     H52623   1.432   4.200   8.225  0.4883 -0.6789  0.1779
  399MOL0     H52624   1.434   4.327   8.012  0.0728  0.1048  0.8001
  399MOL0     H52625   1.516   4.463   8.111 -2.0567  1.7263  4.1242
  399MOL0     H52626   1.234   4.346   8.146 -0.2074  0.3008 -0.5741
  399MOL0     H52627   1.318   4.467   8.249 -1.9970  1.0387  0.2764
  399MOL0     H52628   1.261   4.506   7.960  1.3059 -2.2246 -0.0853
  399MOL0     H52629   1.352   4.611   8.061  2.8244 -3.9211  0.4305
  399MOL0     H52630   0.951   4.672   8.221  3.4879 -0.9406 -0.5685
  399MOL0     H52631   0.719   4.555   8.249  0.6744  3.0480 -1.6283
  399MOL0     H52632   0.479   4.123   8.253  0.3374  0.7124  0.4444
  399MOL0     H52633   0.249   4.037   8.263  0.5755  0.1129 -0.9265
  399MOL0     H52634  -0.112   4.261   8.068  0.2126  0.4193  0.3395
  399MOL0     H52635  -0.074   4.326   8.241 -0.7186 -0.9086  1.9664
  399MOL0     H52636  -0.196   4.104   8.308 -1.6582 -1.8068 -1.3039
  399MOL0     H52637  -0.231   4.080   8.145 -1.0159 -1.1170  0.5519
  399MOL0     H52638  -0.351   4.318   8.157  1.6976 -2.3881 -2.3793
  399MOL0     H52639  -0.330   4.299   8.334 -2.7953  2.0115 -0.8139
  399MOL0     H52640  -0.472   4.110   8.134  1.3387 -0.7194 -0.5423
  399MOL0     H52641  -0.433   4.057   8.294 -1.4184  1.4125  1.4692
  399MOL0     H52642  -0.621   4.302   8.245 -1.8846 -2.0660 -2.2005
  399MOL0     H52643  -0.555   4.228   8.398  0.8158 -0.8907 -0.2273
  399MOL0     H52644  -0.789   4.177   8.348 -1.2137 -0.6082 -2.2420
  399MOL0     H52645  -0.685   4.029   8.346  1.0550  0.7895  1.0334
  399MOL0     H52646  -0.727   4.013   8.109 -1.8784 -1.3084 -0.0728
  399MOL0     H52647  -0.871   4.051   8.187  1.8151 -3.7143  2.1661
  399MOL0     H52648  -0.857   4.179   7.992 -0.5981 -1.5662  1.7390
  399MOL0     H52649  -0.698   4.235   8.023  2.4315 -5.1805  0.9110
  399MOL0     H52650   0.093   4.400   8.095 -1.5780 -2.1199 -1.0404
  399MOL0     H52651   0.325   4.499   8.106 -0.4387 -0.5846 -2.9218
  399MOL0     H52652   0.848   4.270   7.945 -1.3899 -0.2655  0.7686
  399MOL0     H52653   1.068   4.368   7.950 -0.1517  0.9702  0.4478
  399MOL0     H52654   2.758   4.747   7.773  0.5695  0.8454  3.4000
  399MOL0     H52655   2.953   4.870   7.650 -1.2204  0.1718 -1.3883
  399MOL0     H52656   3.585   4.771   7.653 -0.4424 -0.3189  0.2581
  399MOL0     H52657   3.733   4.907   7.515 -0.4478 -3.5261 -0.2181
  399MOL0     H52658   3.830   5.121   7.505  1.7235  2.0209  0.3575
  399MOL0     H52659   3.752   5.281   7.520 -0.0373 -1.2515  0.4968
  399MOL0     H52660   3.870   5.158   7.266  0.3885  1.3251 -1.2368
  399MOL0     H52661   3.790   5.313   7.274  1.5710  0.1230 -1.5463
  399MOL0     H52662   3.960   5.421   7.408  2.5459  0.7292  0.0092
  399MOL0     H52663   4.031   5.327   7.278 -0.0972  1.7206  0.2694
  399MOL0     H52664   4.012   5.182   7.533 -1.2535  3.2651  0.2647
  399MOL0     H52665   4.106   5.147   7.403  2.2487  0.6336  0.2710
  399MOL0     H52666   4.346   5.443   7.604 -0.3484  2.4928 -0.5584
  399MOL0     H52667   3.415   5.162   7.437  2.7725  0.2617  0.5986
  399MOL0     H52668   3.249   5.004   7.532 -0.4491 -2.3831 -0.8162
  400MOL0     O52669   3.896   8.790   4.220  0.3151  0.2078  1.2714
  400MOL0     C52670   3.970   8.721   4.154 -0.0831 -0.4455  0.5492
  400MOL0     O52671   3.936   8.603   4.077  0.1734  0.1265 -0.3595
  400MOL0     C52672   3.800   8.581   4.066 -0.5612  0.1662 -0.1491
  400MOL0     C52673   3.737   8.463   4.113 -0.9018 -0.8049 -0.2638
  400MOL0     C52674   3.609   8.427   4.075 -0.7405  0.5383  0.1307
  400MOL0     C52675   3.538   8.502   3.978 -0.3200 -0.0277 -0.0006
  400MOL0     O52676   3.425   8.456   3.929 -0.6649 -0.3933  0.2778
  400MOL0     C52677   3.384   8.490   3.794  0.0163 -0.6857  0.1418
  400MOL0     C52678   3.353   8.356   3.716  1.0539 -0.8853 -0.1050
  400MOL0     C52679   3.234   8.289   3.783  0.3377  0.3129  0.1732
  400MOL0     C52680   3.163   8.185   3.683 -0.1121  0.2258  0.1377
  400MOL0     C52681   3.014   8.154   3.714 -0.1150 -0.6066  0.3937
  400MOL0     C52682   2.937   8.116   3.585  1.2528  0.0727  0.6477
  400MOL0     C52683   2.802   8.050   3.643 -0.2898  0.0415 -0.1836
  400MOL0     C52684   2.690   8.010   3.552  0.7819 -0.6137  0.1432
  400MOL0     N52685   2.573   7.971   3.639  0.1430  0.1104  0.9893
  400MOL0     C52686   2.552   7.849   3.691  0.2706 -0.1936 -0.2717
  400MOL0     C52687   2.427   7.857   3.729  0.7915 -0.2076  0.0025
  400MOL0     C52688   2.336   7.753   3.800  0.8043 -0.7120  1.1938
  400MOL0     C52689   2.278   7.637   3.709  0.4089 -0.5820 -0.2500
  400MOL0     C52690   2.166   7.708   3.628 -0.2186  0.4782  0.2122
  400MOL0     C52691   2.035   7.738   3.704 -0.1479 -0.3914  0.1207
  400MOL0     O52692   1.940   7.763   3.598  0.0425 -0.9149  0.4796
  400MOL0     C52693   1.813   7.800   3.631 -0.2701  0.5658  0.4228
  400MOL0     C52694   1.731   7.835   3.518 -0.7047  0.0547 -0.5221
  400MOL0     C52695   1.600   7.870   3.538  0.4078 -0.7405  0.0785
  400MOL0     C52696   1.543   7.889   3.669  0.2081 -0.0285 -0.4455
  400MOL0     C52697   1.406   7.951   3.680 -0.8034 -0.2423 -0.9423
  400MOL0     O52698   1.392   8.025   3.799 -0.5153 -0.8866  0.4541
  400MOL0     C52699   1.258   8.037   3.839  0.1093 -0.4268 -0.6936
  400MOL0     C52700   1.229   8.151   3.907  0.4550  0.2474 -0.6168
  400MOL0     C52701   1.108   8.170   3.974 -0.6267 -0.3076 -0.1126
  400MOL0     C52702   1.003   8.079   3.959  0.0370  0.2173 -0.3907
  400MOL0     O52703   0.884   8.127   4.004 -0.1019 -0.4882 -0.4904
  400MOL0     C52704   0.773   8.040   4.037 -0.4983 -0.8247 -0.5161
  400MOL0     C52705   0.648   8.135   4.053 -0.5835 -0.0094 -0.5028
  400MOL0     C52706   0.513   8.058   4.072 -0.6112  0.3699  0.6876
  400MOL0     C52707   0.399   8.163   4.079  0.2616  0.8837  0.5809
  400MOL0     C52708   0.264   8.085   4.107  0.0731  0.5822  0.0755
  400MOL0     C52709   0.140   8.130   4.025 -0.4386 -0.9201  0.4564
  400MOL0     C52710   0.085   8.269   4.054 -0.9929 -0.3617 -0.6826
  400MOL0     C52711  -0.024   8.292   3.958  0.7018 -0.2625  0.4495
  400MOL0    Cl52712  -0.127   8.436   3.995  0.4416  0.4407  0.2379
  400MOL0     C52713   1.029   7.954   3.896 -0.7015  1.3280 -0.6907
  400MOL0     C52714   1.154   7.934   3.839 -0.4431  1.0744 -0.2940
  400MOL0     O52715   1.322   7.938   3.586 -1.0680  0.4341 -0.7298
  400MOL0     C52716   1.622   7.859   3.781 -0.6237 -0.6788 -0.2979
  400MOL0     C52717   1.755   7.809   3.760 -0.2667 -0.2352  0.4950
  400MOL0     N52718   2.380   7.991   3.694 -0.6487  0.7254  0.0856
  400MOL0     N52719   2.471   8.063   3.652 -0.5838  0.4999  0.7004
  400MOL0     C52720   3.594   8.627   3.947  0.5881  0.2869 -0.6513
  400MOL0     C52721   3.724   8.663   3.992  0.1712 -0.3579  0.0264
  400MOL0     C52722   4.106   8.765   4.138  0.7726 -0.6923 -0.8806
  400MOL0     C52723   4.207   8.672   4.099  0.4897 -0.2763 -0.1786
  400MOL0     C52724   4.341   8.708   4.096  0.0442  0.8914 -0.3969
  400MOL0     C52725   4.374   8.841   4.124  1.1062 -0.2015 -0.5139
  400MOL0     O52726   4.504   8.858   4.115 -0.0011 -0.7264 -0.4004
  400MOL0     C52727   4.565   8.848   4.240 -0.1448  0.8727 -0.3248
  400MOL0     C52728   4.717   8.815   4.250  1.0193 -0.2277 -0.9109
  400MOL0     C52729   4.754   8.842   4.397  0.4876 -0.3464 -0.4433
  400MOL0     C52730   4.891   8.762   4.422  1.0210  0.2743  0.0911
  400MOL0     C52731   4.939   8.781   4.554 -0.4087 -0.3296 -0.4288
  400MOL0     C52732   4.976   8.781   4.670 -0.5987 -0.3305 -0.8355
  400MOL0     C52733   4.277   8.936   4.163 -0.4158  0.0703 -0.4969
  400MOL0     C52734   4.141   8.900   4.172 -0.2084  0.0908  0.1328
  400MOL0     H52735   3.800   8.414   4.186 -0.9856  1.8840  1.7610
  400MOL0     H52736   3.566   8.333   4.109  0.4198  0.3441  1.1327
  400MOL0     H52737   3.460   8.547   3.738 -0.7706  0.6387  0.3758
  400MOL0     H52738   3.294   8.552   3.803  1.8050  2.0879  0.0068
  400MOL0     H52739   3.440   8.291   3.716  2.9272  1.4698 -0.0070
  400MOL0     H52740   3.342   8.400   3.616  0.7480  1.1362  0.7682
  400MOL0     H52741   3.160   8.362   3.818 -1.3424 -1.4411  0.4282
  400MOL0     H52742   3.264   8.247   3.880 -0.7354  0.7862  0.7311
  400MOL0     H52743   3.168   8.232   3.584 -1.1988  2.0624  0.9096
  400MOL0     H52744   3.216   8.090   3.670 -2.7458 -1.9379  3.5862
  400MOL0     H52745   2.962   8.236   3.765 -0.8370 -0.5712 -0.3749
  400MOL0     H52746   3.009   8.073   3.786 -2.8531  0.0388  1.0518
  400MOL0     H52747   2.994   8.048   3.521 -0.0846 -0.6150  0.1471
  400MOL0     H52748   2.914   8.204   3.525  1.6286  2.0346  3.2198
  400MOL0     H52749   2.826   7.955   3.694 -2.9784  0.7343  2.6739
  400MOL0     H52750   2.763   8.125   3.712 -2.4295  0.2332 -1.5089
  400MOL0     H52751   2.709   7.930   3.481 -2.4769 -0.2648 -1.2939
  400MOL0     H52752   2.655   8.090   3.486 -1.4397 -2.5331 -1.1435
  400MOL0     H52753   2.627   7.770   3.694 -0.5470 -0.9535  1.2136
  400MOL0     H52754   2.260   7.812   3.852 -0.9020 -3.3810  1.9222
  400MOL0     H52755   2.393   7.702   3.879  1.9813 -0.0339  0.8103
  400MOL0     H52756   2.235   7.549   3.759 -2.5870  0.6350 -0.4783
  400MOL0     H52757   2.353   7.600   3.639  0.3481  0.1687 -0.7244
  400MOL0     H52758   2.203   7.795   3.572 -2.6096  2.3803  1.3697
  400MOL0     H52759   2.134   7.636   3.552 -2.0359  1.7801 -0.3177
  400MOL0     H52760   2.039   7.824   3.771 -0.6904  1.3429 -1.9687
  400MOL0     H52761   2.002   7.656   3.768 -0.3946 -0.0266  0.4578
  400MOL0     H52762   1.777   7.839   3.421  1.4917 -2.1089  0.3198
  400MOL0     H52763   1.534   7.889   3.455 -1.1701 -1.2773  1.1514
  400MOL0     H52764   1.303   8.230   3.905 -1.0860  1.8173 -4.4264
  400MOL0     H52765   1.083   8.272   4.002 -0.0035 -0.4998  1.2393
  400MOL0     H52766   0.800   7.980   4.124 -0.0544 -1.0884 -0.8348
  400MOL0     H52767   0.754   7.976   3.950 -1.1734  1.4883 -2.1846
  400MOL0     H52768   0.640   8.213   3.977 -1.0580  0.4727  0.0331
  400MOL0     H52769   0.656   8.186   4.149  0.2568 -0.9258 -0.0663
  400MOL0     H52770   0.516   8.002   4.166 -1.0572 -3.0943 -1.2215
  400MOL0     H52771   0.505   7.990   3.987  2.9511  0.9751 -0.2947
  400MOL0     H52772   0.419   8.223   4.168 -0.4673 -1.0419  2.1350
  400MOL0     H52773   0.399   8.210   3.981  1.4938 -0.8887 -0.3347
  400MOL0     H52774   0.248   8.095   4.215 -0.5528  0.0340  0.0373
  400MOL0     H52775   0.272   7.980   4.075 -2.6686  0.8016 -1.7127
  400MOL0     H52776   0.058   8.058   4.032 -0.4368 -1.2060 -1.7762
  400MOL0     H52777   0.175   8.116   3.923  1.6009  0.0994  0.9637
  400MOL0     H52778   0.049   8.273   4.157 -0.9685  2.1338 -0.7116
  400MOL0     H52779   0.170   8.339   4.046  0.8979 -2.2860  1.3952
  400MOL0     H52780  -0.091   8.206   3.944 -2.0499  1.7213  0.5192
  400MOL0     H52781   0.034   8.314   3.868  0.6957  1.6870  0.8817
  400MOL0     H52782   0.953   7.877   3.885  0.2127 -0.0470  1.8533
  400MOL0     H52783   1.185   7.843   3.788  0.1430  2.1432 -1.9269
  400MOL0     H52784   1.592   7.880   3.883  1.0903  3.9002 -0.5291
  400MOL0     H52785   1.814   7.790   3.848  1.9927  0.0804 -0.8682
  400MOL0     H52786   3.556   8.694   3.871  0.2563  1.1389  0.2389
  400MOL0     H52787   3.763   8.759   3.959 -0.5884 -1.0635 -3.2851
  400MOL0     H52788   4.193   8.567   4.079 -1.4113 -0.3321  1.1977
  400MOL0     H52789   4.416   8.634   4.069 -0.3528  0.0817  0.6609
  400MOL0     H52790   4.511   8.772   4.298 -3.1026  2.4255 -0.9007
  400MOL0     H52791   4.540   8.938   4.296  0.2630  0.6503  0.2289
  400MOL0     H52792   4.727   8.711   4.217  0.2084 -0.4956 -0.3376
  400MOL0     H52793   4.779   8.879   4.187  2.1673 -0.3022  0.0913
  400MOL0     H52794   4.684   8.794   4.466  1.1987  0.2948  0.7449
  400MOL0     H52795   4.763   8.947   4.424  0.7414 -0.8827  1.7414
  400MOL0     H52796   4.869   8.656   4.406 -1.3375  0.3519  2.2579
  400MOL0     H52797   4.967   8.790   4.348  0.3317  2.7794  0.2274
  400MOL0     H52798   5.016   8.760   4.767 -0.6778 -0.3983 -0.8173
  400MOL0     H52799   4.306   9.039   4.185  2.8915 -1.3452  2.8554
  400MOL0     H52800   4.066   8.967   4.211 -1.2591  0.2325 -2.0173
  401MOL0     O52801   9.091   1.494   7.405 -0.1500 -0.6118  0.5600
  401MOL0     C52802   9.163   1.504   7.307 -0.4180 -0.6972 -1.4416
  401MOL0     O52803   9.124   1.539   7.189  1.0282 -0.0106  0.7982
  401MOL0     C52804   8.989   1.547   7.155 -0.3895 -0.5911  0.6038
  401MOL0     C52805   8.894   1.454   7.206  0.7874  0.3187  0.7444
  401MOL0     C52806   8.760   1.476   7.177 -0.1989  0.4930 -0.2059
  401MOL0     C52807   8.724   1.595   7.113 -0.5467  0.3889 -1.0844
  401MOL0     O52808   8.594   1.619   7.091  0.1406  0.3844 -0.0287
  401MOL0     C52809   8.525   1.672   7.201  0.3788  0.2462 -0.6260
  401MOL0     C52810   8.370   1.650   7.185  0.1651  0.3935  0.2322
  401MOL0     C52811   8.323   1.507   7.176 -0.4219  1.2141 -1.0877
  401MOL0     C52812   8.169   1.484   7.159  0.2510  0.8622 -0.2572
  401MOL0     C52813   8.085   1.532   7.273  0.3973 -0.1488 -0.3094
  401MOL0     C52814   7.929   1.507   7.252  0.6399  1.3460  0.2063
  401MOL0     C52815   7.850   1.573   7.362  0.5859  0.3068  1.2523
  401MOL0     C52816   7.711   1.512   7.347 -0.2900  0.1230 -0.1880
  401MOL0     N52817   7.607   1.623   7.373 -0.4001 -0.0478  0.1920
  401MOL0     C52818   7.589   1.738   7.302  0.2205  0.1707 -0.7023
  401MOL0     C52819   7.520   1.809   7.392  0.4973 -0.0989  0.2529
  401MOL0     C52820   7.499   1.956   7.374 -0.5709  0.3973  0.3930
  401MOL0     C52821   7.350   1.987   7.340  0.5746 -0.9498 -0.7002
  401MOL0     C52822   7.339   2.145   7.347 -0.7485 -0.8942  0.1978
  401MOL0     C52823   7.196   2.198   7.317 -0.5475 -0.3942 -0.2262
  401MOL0     O52824   7.117   2.163   7.433 -0.6062  0.2847  0.9884
  401MOL0     C52825   6.984   2.188   7.431  0.6846 -0.2097 -0.0763
  401MOL0     C52826   6.925   2.167   7.556 -0.3181 -0.3461 -0.8852
  401MOL0     C52827   6.790   2.178   7.574 -0.4813 -0.4164  0.1906
  401MOL0     C52828   6.707   2.227   7.469 -0.1742 -0.8737  0.0558
  401MOL0     C52829   6.562   2.252   7.486 -0.9441  0.6690 -0.8324
  401MOL0     O52830   6.502   2.193   7.592  0.2013 -0.7258  0.4511
  401MOL0     C52831   6.369   2.231   7.619 -0.3166  0.4903  0.0218
  401MOL0     C52832   6.340   2.364   7.631 -0.0490  0.3676  0.2359
  401MOL0     C52833   6.222   2.403   7.699 -0.4156 -0.4192  0.2927
  401MOL0     C52834   6.127   2.313   7.748 -0.1119  0.3244  0.2347
  401MOL0     O52835   6.011   2.354   7.804  0.2414 -0.5323  0.3697
  401MOL0     C52836   5.939   2.254   7.874 -0.3430  0.1014  0.9274
  401MOL0     C52837   5.828   2.187   7.778  0.1004  0.2241 -0.7297
  401MOL0     C52838   5.741   2.095   7.860 -0.6092  0.8916  0.6921
  401MOL0     C52839   5.603   2.082   7.794  0.3092 -0.8316  0.4040
  401MOL0     C52840   5.489   2.015   7.869  0.1169 -0.0565  0.3028
  401MOL0     C52841   5.491   1.873   7.835 -0.3796 -0.0573  0.0504
  401MOL0     C52842   5.403   1.770   7.907 -0.3080  0.1533  0.5504
  401MOL0     C52843   5.479   1.705   8.023  0.4208 -0.1971 -0.0336
  401MOL0    Cl52844   5.519   1.830   8.150  0.0296 -0.0117 -0.1743
  401MOL0     C52845   6.164   2.179   7.725  0.2033  0.4776  0.1387
  401MOL0     C52846   6.278   2.139   7.665  0.3017 -0.5934 -0.8725
  401MOL0     O52847   6.510   2.316   7.403  0.4841  0.2952 -0.0215
  401MOL0     C52848   6.770   2.258   7.346  0.4840 -0.4888 -0.3429
  401MOL0     C52849   6.908   2.224   7.323  0.0485  0.0715 -0.6789
  401MOL0     N52850   7.490   1.746   7.508 -0.5641 -0.3706  0.6556
  401MOL0     N52851   7.534   1.626   7.491 -0.4787  0.5018 -1.0546
  401MOL0     C52852   8.813   1.676   7.052 -1.0332 -0.5252 -0.2451
  401MOL0     C52853   8.949   1.649   7.069 -0.2790  0.0351  0.6234
  401MOL0     C52854   9.305   1.458   7.314 -1.0459  0.7973 -0.7742
  401MOL0     C52855   9.366   1.414   7.431  0.5319 -0.0787 -0.6859
  401MOL0     C52856   9.507   1.380   7.444  0.7720 -0.1337 -0.7547
  401MOL0     C52857   9.584   1.396   7.333 -0.5713  0.9061 -0.4511
  401MOL0     O52858   9.716   1.365   7.325  0.6302  0.5264  0.1267
  401MOL0     C52859   9.797   1.398   7.439 -1.0483  0.0213 -0.2343
  401MOL0     C52860   9.940   1.342   7.435 -0.1355 -0.0873 -0.3904
  401MOL0     C52861   9.998   1.389   7.303 -0.1696 -0.5472 -0.4033
  401MOL0     C52862  10.150   1.402   7.309  0.9339  1.1530 -0.4241
  401MOL0     C52863  10.224   1.277   7.331  0.2696 -0.4549 -0.5918
  401MOL0     C52864  10.296   1.184   7.339  0.1088  0.4348 -0.9049
  401MOL0     C52865   9.530   1.435   7.210  0.6282 -0.4982  0.4974
  401MOL0     C52866   9.392   1.466   7.203 -0.5189 -0.7297  0.0015
  401MOL0     H52867   8.929   1.374   7.271  1.2059  0.6093  0.8854
  401MOL0     H52868   8.688   1.407   7.220  1.1776 -0.9182 -0.0804
  401MOL0     H52869   8.528   1.781   7.194  1.0560  0.5410  2.8120
  401MOL0     H52870   8.562   1.640   7.299 -0.0010 -0.7140 -0.7795
  401MOL0     H52871   8.344   1.697   7.089  2.6991 -0.9351 -1.1928
  401MOL0     H52872   8.319   1.701   7.267 -1.4738  0.9623 -1.0596
  401MOL0     H52873   8.341   1.447   7.265  1.0584  0.5355 -1.8124
  401MOL0     H52874   8.371   1.464   7.087 -2.8005  0.6144 -2.1797
  401MOL0     H52875   8.138   1.532   7.066  1.7732  2.1793 -0.1310
  401MOL0     H52876   8.143   1.379   7.146  2.2940  0.5028 -2.0100
  401MOL0     H52877   8.097   1.640   7.286  0.7189 -0.2318  0.0991
  401MOL0     H52878   8.116   1.485   7.366  1.6201 -2.0268 -1.5951
  401MOL0     H52879   7.916   1.399   7.247 -1.3164  1.4918  1.2675
  401MOL0     H52880   7.898   1.545   7.155 -0.1939  2.1218  0.7537
  401MOL0     H52881   7.898   1.560   7.459  2.7170  1.3131  0.3826
  401MOL0     H52882   7.845   1.679   7.336 -0.7708  0.1887  0.9592
  401MOL0     H52883   7.699   1.431   7.418 -0.1552  1.7615  1.8056
  401MOL0     H52884   7.693   1.469   7.248  1.0806  2.1259 -1.3829
  401MOL0     H52885   7.625   1.758   7.202 -0.8438  0.3210 -1.0726
  401MOL0     H52886   7.563   1.992   7.293  0.3584  1.0622  1.3900
  401MOL0     H52887   7.524   2.012   7.465  2.1222  0.3087 -0.2118
  401MOL0     H52888   7.274   1.955   7.412  0.4690  1.0101  0.1361
  401MOL0     H52889   7.316   1.949   7.244  0.2024  0.2934 -1.0785
  401MOL0     H52890   7.365   2.176   7.449 -0.0952  0.6628 -0.3998
  401MOL0     H52891   7.410   2.185   7.273 -1.5484  0.9635  0.3594
  401MOL0     H52892   7.161   2.157   7.222  0.1067 -3.3082  0.6837
  401MOL0     H52893   7.211   2.306   7.318 -0.5525 -0.3946 -0.1440
  401MOL0     H52894   6.990   2.135   7.637  1.7562 -0.1894 -2.4104
  401MOL0     H52895   6.750   2.140   7.668 -0.0145 -1.1966  0.0894
  401MOL0     H52896   6.414   2.437   7.599 -0.5239  0.0631 -1.6360
  401MOL0     H52897   6.203   2.509   7.711 -3.8084 -0.8931 -0.0598
  401MOL0     H52898   5.886   2.315   7.947 -1.7872  1.4045 -1.1006
  401MOL0     H52899   6.020   2.197   7.921  3.1625  3.0315 -1.1135
  401MOL0     H52900   5.887   2.141   7.699  1.3019  1.5162 -0.6291
  401MOL0     H52901   5.763   2.260   7.728  0.3902  1.2607  0.3477
  401MOL0     H52902   5.732   2.138   7.960  1.6442  1.7213  0.5863
  401MOL0     H52903   5.782   1.995   7.875  0.3093  1.6796  4.8995
  401MOL0     H52904   5.579   2.188   7.778  2.0969 -0.2396  1.3729
  401MOL0     H52905   5.607   2.034   7.696 -2.6786 -1.2222  0.3764
  401MOL0     H52906   5.391   2.056   7.841  0.1999 -0.5715 -0.7756
  401MOL0     H52907   5.502   2.030   7.977  0.3461  0.7660  0.1657
  401MOL0     H52908   5.598   1.848   7.841 -0.1346  1.1877  1.1886
  401MOL0     H52909   5.460   1.874   7.730 -1.2236  1.2260  0.2949
  401MOL0     H52910   5.316   1.817   7.954 -1.5827 -0.6420 -0.9230
  401MOL0     H52911   5.378   1.684   7.845  2.9659 -2.3858  2.4522
  401MOL0     H52912   5.562   1.649   7.979 -0.9599 -1.0917 -1.6426
  401MOL0     H52913   5.424   1.623   8.070  2.2107 -1.5814 -0.2357
  401MOL0     H52914   6.108   2.099   7.771 -0.6366  1.4580  0.8602
  401MOL0     H52915   6.306   2.035   7.669 -0.4068 -0.7928  3.0861
  401MOL0     H52916   6.710   2.284   7.260  0.7195  0.3850 -0.2570
  401MOL0     H52917   6.948   2.243   7.224  1.5945  1.3171  0.1294
  401MOL0     H52918   8.777   1.756   6.988  0.3716 -1.5016 -2.3776
  401MOL0     H52919   9.026   1.703   7.016 -0.5366 -1.9974 -2.0136
  401MOL0     H52920   9.311   1.406   7.524  0.1822 -0.9721 -0.9660
  401MOL0     H52921   9.529   1.333   7.539  1.8380  0.2012 -0.8284
  401MOL0     H52922   9.744   1.372   7.531 -0.2897  0.9626  0.4847
  401MOL0     H52923   9.822   1.504   7.425  2.1623 -0.8444 -2.0845
  401MOL0     H52924   9.993   1.383   7.521  0.6292  1.4302 -1.5473
  401MOL0     H52925   9.942   1.232   7.439 -1.9656 -0.2698 -2.3516
  401MOL0     H52926   9.963   1.488   7.272 -1.6453 -0.4884  1.3087
  401MOL0     H52927   9.978   1.313   7.227 -2.2213 -1.5083  1.0259
  401MOL0     H52928  10.190   1.446   7.218  0.9769  2.4309  0.1897
  401MOL0     H52929  10.168   1.468   7.395  0.8238 -0.5785  0.9794
  401MOL0     H52930  10.367   1.104   7.343  2.6696  2.6084  2.8213
  401MOL0     H52931   9.584   1.461   7.120  1.9206 -1.7278  0.8898
  401MOL0     H52932   9.353   1.497   7.106  2.2984  1.6258 -0.5574
  402MOL0     O52933   2.942   8.165   3.222 -0.8456 -0.1680 -0.1695
  402MOL0     C52934   2.888   8.095   3.134  0.2151  0.4451  0.0145
  402MOL0     O52935   2.752   8.089   3.113  0.1380  0.4621  0.1199
  402MOL0     C52936   2.663   8.165   3.186 -0.1502  0.3422  0.3450
  402MOL0     C52937   2.658   8.304   3.182 -0.3543 -0.2502  0.3013
  402MOL0     C52938   2.558   8.366   3.255 -0.1322  0.0646 -0.0121
  402MOL0     C52939   2.448   8.300   3.312  0.2573  0.3778  0.4796
  402MOL0     O52940   2.367   8.380   3.387  0.2455  0.6719  0.2888
  402MOL0     C52941   2.259   8.318   3.464 -0.3940  0.2027 -0.0733
  402MOL0     C52942   2.157   8.428   3.499  0.6047 -0.7587 -0.2570
  402MOL0     C52943   2.091   8.482   3.370  0.4755  0.5368 -0.0503
  402MOL0     C52944   2.014   8.604   3.413 -1.1617 -0.1558 -0.3397
  402MOL0     C52945   1.944   8.685   3.306  0.4662 -0.2705 -0.5171
  402MOL0     C52946   1.844   8.590   3.233 -0.6726 -0.8925 -0.3403
  402MOL0     C52947   1.746   8.670   3.151  0.0717 -0.7225  0.8441
  402MOL0     C52948   1.629   8.582   3.113  0.0480  0.1558  0.2002
  402MOL0     N52949   1.525   8.651   3.049 -0.2328 -0.2122  0.1909
  402MOL0     C52950   1.464   8.767   3.105 -0.3895 -0.3463  0.3079
  402MOL0     C52951   1.376   8.793   3.006  0.3548  0.3119 -0.1935
  402MOL0     C52952   1.304   8.924   2.995  0.5238 -0.8473  0.3124
  402MOL0     C52953   1.151   8.901   2.983  0.2064  0.0412 -0.1253
  402MOL0     C52954   1.080   8.981   2.875  0.1506  0.6536 -0.6042
  402MOL0     C52955   1.115   8.935   2.730 -0.7116 -0.5607  0.0189
  402MOL0     O52956   1.011   8.974   2.646 -1.2761 -1.2110  0.1894
  402MOL0     C52957   0.889   8.910   2.658  0.2375  0.1385 -0.5697
  402MOL0     C52958   0.860   8.801   2.751  0.1790  0.2732  0.1800
  402MOL0     C52959   0.725   8.746   2.758 -0.4788 -0.1757 -0.5862
  402MOL0     C52960   0.625   8.800   2.680  0.1740 -0.4991 -0.3083
  402MOL0     C52961   0.484   8.732   2.674  0.6001 -0.4256 -0.3240
  402MOL0     O52962   0.451   8.643   2.780 -0.1029  0.2017  0.4513
  402MOL0     C52963   0.319   8.611   2.791 -0.4491 -0.1922  0.2621
  402MOL0     C52964   0.239   8.704   2.848 -1.0074  0.4408 -0.9788
  402MOL0     C52965   0.102   8.664   2.872  0.1072 -0.3514 -0.3969
  402MOL0     C52966   0.052   8.543   2.831 -0.5518 -0.3385  0.1101
  402MOL0     O52967  -0.084   8.521   2.861 -0.6859  0.4720  0.0843
  402MOL0     C52968  -0.140   8.392   2.835 -0.0938 -1.2457  0.2703
  402MOL0     C52969  -0.277   8.369   2.891  0.3285  0.0985 -0.4144
  402MOL0     C52970  -0.287   8.404   3.036  0.2895 -1.0528  0.0404
  402MOL0     C52971  -0.402   8.315   3.100  0.0651 -0.2905 -0.7360
  402MOL0     C52972  -0.545   8.313   3.038  0.0751 -0.2031 -0.4686
  402MOL0     C52973  -0.646   8.248   3.138  0.3031 -0.1367  0.3155
  402MOL0     C52974  -0.631   8.092   3.138  0.5873  0.4781 -0.2655
  402MOL0     C52975  -0.756   8.038   3.228  0.2350  0.2518 -0.3526
  402MOL0    Cl52976  -0.907   8.054   3.142  0.2081 -0.1455  0.4626
  402MOL0     C52977   0.139   8.450   2.770 -0.3503  0.0336 -1.1853
  402MOL0     C52978   0.267   8.489   2.755 -0.5321  0.9316  0.2755
  402MOL0     O52979   0.408   8.765   2.585 -0.1905  0.4134  0.3310
  402MOL0     C52980   0.659   8.904   2.592  0.8761  0.2679  0.4448
  402MOL0     C52981   0.784   8.951   2.582 -0.4762 -0.4628 -0.2739
  402MOL0     N52982   1.373   8.699   2.907  0.0940  0.1182 -0.1684
  402MOL0     N52983   1.456   8.610   2.933 -0.3403  0.1902  0.3413
  402MOL0     C52984   2.441   8.162   3.300  0.0170 -0.0884  0.6235
  402MOL0     C52985   2.546   8.100   3.234 -1.1056  0.3211 -0.7209
  402MOL0     C52986   2.970   8.031   3.029 -0.4441  0.0647 -0.4514
  402MOL0     C52987   3.107   8.071   3.034  0.4428 -0.0761 -0.0908
  402MOL0     C52988   3.205   8.006   2.955 -0.3091 -0.1450 -0.0697
  402MOL0     C52989   3.168   7.894   2.867 -1.1281  0.1072 -0.5108
  402MOL0     O52990   3.274   7.821   2.809  0.3360 -0.2978 -0.8614
  402MOL0     C52991   3.241   7.697   2.745 -0.2081  0.4326 -1.7434
  402MOL0     C52992   3.363   7.621   2.680  0.8571 -0.4242  0.2723
  402MOL0     C52993   3.486   7.610   2.774 -1.5139 -0.0411  0.5091
  402MOL0     C52994   3.614   7.579   2.701 -0.5126 -0.4564 -0.3884
  402MOL0     C52995   3.729   7.542   2.792  1.0014  0.7103 -0.8171
  402MOL0     C52996   3.820   7.513   2.863 -0.2031  0.2618  0.4827
  402MOL0     C52997   3.032   7.856   2.864 -0.0927 -0.3195  0.7972
  402MOL0     C52998   2.933   7.919   2.935 -0.1790 -0.3968  0.1120
  402MOL0     H52999   2.730   8.358   3.121 -1.7837  2.9073  1.2336
  402MOL0     H53000   2.564   8.474   3.266  0.2207  0.0904 -0.4176
  402MOL0     H53001   2.293   8.278   3.560 -0.4075 -0.2859 -0.2692
  402MOL0     H53002   2.207   8.236   3.415  0.1628 -0.9324  1.1743
  402MOL0     H53003   2.221   8.508   3.538 -0.9956  0.8306 -0.7230
  402MOL0     H53004   2.085   8.397   3.575  0.9712 -0.0528  0.3951
  402MOL0     H53005   2.028   8.409   3.319 -0.4700  0.3322  1.3519
  402MOL0     H53006   2.167   8.493   3.293 -0.8502 -1.4266 -1.7451
  402MOL0     H53007   1.941   8.575   3.489 -1.1086 -2.1561 -0.9875
  402MOL0     H53008   2.090   8.665   3.463 -1.2759  1.1341 -1.6515
  402MOL0     H53009   2.018   8.743   3.251 -0.2714  2.7549  1.4144
  402MOL0     H53010   1.887   8.765   3.353 -0.1014 -0.5293 -0.7584
  402MOL0     H53011   1.789   8.536   3.310 -0.0329  1.8035  2.2146
  402MOL0     H53012   1.903   8.528   3.164  1.6415 -0.4809  1.1607
  402MOL0     H53013   1.707   8.751   3.214 -0.5003  1.6347 -2.2692
  402MOL0     H53014   1.794   8.709   3.061  1.0175 -0.9647  1.2293
  402MOL0     H53015   1.586   8.525   3.196 -0.4870  0.8454  0.3984
  402MOL0     H53016   1.670   8.501   3.052 -1.5337 -0.7749  0.3169
  402MOL0     H53017   1.480   8.829   3.193 -1.0494  1.2299 -0.6316
  402MOL0     H53018   1.346   8.986   2.916 -0.6261 -0.1200  0.2415
  402MOL0     H53019   1.326   8.981   3.085  2.3972  3.3028 -2.4667
  402MOL0     H53020   1.101   8.917   3.079 -1.3887  2.3326 -1.2510
  402MOL0     H53021   1.133   8.794   2.973  3.2766 -0.7847  1.8257
  402MOL0     H53022   0.973   8.966   2.890  0.1866  0.4408 -0.5540
  402MOL0     H53023   1.102   9.088   2.881  4.0594 -0.0290  0.3863
  402MOL0     H53024   1.138   8.828   2.733  0.2730 -0.3444  0.9948
  402MOL0     H53025   1.200   8.993   2.692 -3.0215  1.1494 -2.8615
  402MOL0     H53026   0.921   8.765   2.833 -0.6348 -2.3227 -0.2560
  402MOL0     H53027   0.710   8.662   2.825 -1.8646 -0.0080 -0.6733
  402MOL0     H53028   0.285   8.800   2.873  0.7017 -0.4012 -0.7330
  402MOL0     H53029   0.040   8.732   2.929 -1.7849 -1.3083 -1.2144
  402MOL0     H53030  -0.072   8.323   2.886  1.1782  0.0781  0.4383
  402MOL0     H53031  -0.136   8.381   2.726 -0.3548  0.4694  0.0563
  402MOL0     H53032  -0.308   8.266   2.871  1.5804  0.1181 -2.9329
  402MOL0     H53033  -0.330   8.441   2.828  0.0031 -0.0184 -0.2778
  402MOL0     H53034  -0.309   8.510   3.052  1.8000 -0.6691 -0.2674
  402MOL0     H53035  -0.191   8.382   3.084 -0.0084  0.5935  1.5087
  402MOL0     H53036  -0.363   8.215   3.121  2.3504  0.2098 -2.2778
  402MOL0     H53037  -0.435   8.354   3.197 -1.2320  1.6701 -1.9087
  402MOL0     H53038  -0.534   8.261   2.942  2.6226  0.8971 -0.8752
  402MOL0     H53039  -0.582   8.411   3.007  1.0898 -0.3665 -2.3342
  402MOL0     H53040  -0.742   8.286   3.105  1.2074 -0.0132 -2.4127
  402MOL0     H53041  -0.630   8.293   3.237  0.0727  0.6943 -0.0171
  402MOL0     H53042  -0.634   8.052   3.037  3.0461 -0.3337 -0.0584
  402MOL0     H53043  -0.540   8.058   3.188  0.7568  0.3030 -0.6888
  402MOL0     H53044  -0.753   8.089   3.324 -0.8391  0.1290 -0.2389
  402MOL0     H53045  -0.733   7.934   3.249 -3.8574 -1.5096 -3.2595
  402MOL0     H53046   0.113   8.349   2.739 -0.4212 -0.7899  1.2853
  402MOL0     H53047   0.338   8.422   2.707  0.6948  1.4554  1.3243
  402MOL0     H53048   0.578   8.941   2.531 -0.5929  1.0183  2.7448
  402MOL0     H53049   0.812   9.024   2.506 -0.3694  0.2304  0.4242
  402MOL0     H53050   2.354   8.107   3.336  0.5299 -0.0021  2.0431
  402MOL0     H53051   2.533   7.993   3.219  3.1054 -0.7363  1.3155
  402MOL0     H53052   3.145   8.148   3.101 -2.5266  1.8415 -0.4086
  402MOL0     H53053   3.307   8.039   2.972 -0.3221 -0.2761  0.2741
  402MOL0     H53054   3.166   7.715   2.668  1.5439  1.2681 -3.3134
  402MOL0     H53055   3.206   7.638   2.831  0.5692  0.7617 -1.1800
  402MOL0     H53056   3.339   7.525   2.634  0.5528  0.5849 -1.8222
  402MOL0     H53057   3.389   7.691   2.600 -3.6095  3.0538  1.4165
  402MOL0     H53058   3.471   7.543   2.859 -1.4493 -0.4639  0.1927
  402MOL0     H53059   3.501   7.712   2.811  0.6499  1.7768 -4.4316
  402MOL0     H53060   3.579   7.502   2.632 -0.4194  1.1009 -2.2756
  402MOL0     H53061   3.635   7.662   2.633 -4.2933  0.6367 -0.4982
  402MOL0     H53062   3.899   7.483   2.928 -0.1944 -0.6428  0.0765
  402MOL0     H53063   3.003   7.769   2.805  2.4830 -0.1891 -0.8361
  402MOL0     H53064   2.834   7.875   2.925 -0.4749 -1.0352  4.0111
  403MOL0     O53065   5.869   0.819   1.978 -0.5977 -0.5780  0.0686
  403MOL0     C53066   5.833   0.783   1.871 -0.6359  0.2590  0.3398
  403MOL0     O53067   5.911   0.776   1.756 -0.1689  0.6365 -0.6050
  403MOL0     C53068   6.054   0.796   1.758  0.2814 -0.3143 -0.1741
  403MOL0     C53069   6.131   0.778   1.879 -0.2629 -1.1656  0.3278
  403MOL0     C53070   6.264   0.787   1.869 -0.5645  0.8562  0.2382
  403MOL0     C53071   6.326   0.835   1.750  0.1996  0.8053  0.2395
  403MOL0     O53072   6.462   0.860   1.748  0.2865  0.3658  0.0972
  403MOL0     C53073   6.507   0.990   1.711  0.7382 -0.3963  1.0038
  403MOL0     C53074   6.658   0.994   1.717  0.1846 -0.4768 -1.0533
  403MOL0     C53075   6.719   0.889   1.618  0.3997 -1.1062  0.0881
  403MOL0     C53076   6.863   0.903   1.592 -0.6121  0.3450 -0.0009
  403MOL0     C53077   6.903   0.836   1.459  0.0474 -1.4357 -0.4977
  403MOL0     C53078   6.911   0.683   1.476  0.8036 -0.2801 -0.3254
  403MOL0     C53079   6.936   0.607   1.344 -0.7989 -0.1832 -0.9397
  403MOL0     C53080   6.810   0.608   1.262  0.1942  1.7746  0.4316
  403MOL0     N53081   6.814   0.534   1.135  0.2718  0.0155 -0.3303
  403MOL0     C53082   6.701   0.474   1.093  0.0204  1.0533 -0.2589
  403MOL0     C53083   6.740   0.412   0.980 -0.1404  0.3311 -0.0273
  403MOL0     C53084   6.646   0.346   0.882 -0.9189 -0.5741  0.1980
  403MOL0     C53085   6.623   0.197   0.917  0.2383 -0.2765 -0.7770
  403MOL0     C53086   6.517   0.186   1.025 -0.5152 -0.0190  0.8141
  403MOL0     C53087   6.387   0.247   0.985 -0.2189  0.5376 -0.7505
  403MOL0     O53088   6.273   0.182   1.035  0.2225  0.0425 -0.0932
  403MOL0     C53089   6.147   0.227   1.010  0.4101 -0.2395  0.7255
  403MOL0     C53090   6.111   0.295   0.890  0.1720  0.0342 -0.8714
  403MOL0     C53091   5.979   0.339   0.870 -0.1357  0.0506  0.5379
  403MOL0     C53092   5.875   0.306   0.955  0.4806  0.1010 -0.2102
  403MOL0     C53093   5.731   0.339   0.935  0.0880  0.2965  1.0090
  403MOL0     O53094   5.693   0.439   0.848 -0.0250 -0.0490  1.4913
  403MOL0     C53095   5.561   0.457   0.842  0.1928 -0.1577  1.0706
  403MOL0     C53096   5.474   0.488   0.948 -0.1169  0.4389 -0.4677
  403MOL0     C53097   5.335   0.494   0.924  0.4962 -0.2402  0.1005
  403MOL0     C53098   5.281   0.470   0.797 -0.2552 -0.1816 -0.7282
  403MOL0     O53099   5.149   0.450   0.768  0.0347 -0.0407 -0.3854
  403MOL0     C53100   5.058   0.537   0.832 -0.8223  0.6611 -0.3647
  403MOL0     C53101   4.925   0.554   0.760 -0.0081  0.1462 -0.4214
  403MOL0     C53102   4.954   0.639   0.634  0.2865  1.0846 -0.0056
  403MOL0     C53103   4.821   0.637   0.554 -0.0911  0.9794 -0.1204
  403MOL0     C53104   4.824   0.720   0.421  0.1036  0.3111 -0.5524
  403MOL0     C53105   4.853   0.867   0.446  0.2938 -0.5677  0.6308
  403MOL0     C53106   4.737   0.936   0.526  1.0435  0.5721 -0.0072
  403MOL0     C53107   4.761   1.084   0.515  0.5095  0.0213 -0.5380
  403MOL0    Cl53108   4.635   1.163   0.611  0.1783  0.7809  0.3501
  403MOL0     C53109   5.377   0.460   0.685  0.2028 -0.1128 -0.6119
  403MOL0     C53110   5.509   0.452   0.712 -0.2356 -0.0484 -0.0570
  403MOL0     O53111   5.659   0.269   1.001  0.3413  0.3863 -0.0082
  403MOL0     C53112   5.914   0.231   1.071 -0.5948 -0.5560 -0.7283
  403MOL0     C53113   6.047   0.196   1.096  0.1579  0.7562  0.0114
  403MOL0     N53114   6.876   0.441   0.952 -0.3321 -0.0330  0.1419
  403MOL0     N53115   6.923   0.508   1.054  0.2496  0.0919 -0.2949
  403MOL0     C53116   6.256   0.860   1.632 -0.1280  0.1327 -0.4729
  403MOL0     C53117   6.116   0.840   1.640 -0.8772 -0.1027  0.3237
  403MOL0     C53118   5.684   0.754   1.852 -0.2799 -0.1481 -0.2539
  403MOL0     C53119   5.630   0.717   1.733 -0.3303 -0.9841 -0.1151
  403MOL0     C53120   5.492   0.714   1.717  0.4244  0.3793  0.1148
  403MOL0     C53121   5.394   0.739   1.816 -0.5713 -0.2253 -0.3498
  403MOL0     O53122   5.250   0.759   1.807 -0.3872  0.5336 -0.3420
  403MOL0     C53123   5.189   0.750   1.680 -0.0396  0.5442  0.2702
  403MOL0     C53124   5.048   0.798   1.688 -0.2096 -1.0659  0.6010
  403MOL0     C53125   4.952   0.690   1.746  0.4609  0.3985  0.2769
  403MOL0     C53126   4.806   0.738   1.775 -0.1325  0.3738  0.2919
  403MOL0     C53127   4.730   0.785   1.656  0.4495  0.4086 -0.6029
  403MOL0     C53128   4.669   0.811   1.557  0.1408 -0.3555  0.3764
  403MOL0     C53129   5.455   0.762   1.947 -0.8756 -0.8727  0.2973
  403MOL0     C53130   5.593   0.767   1.960  0.0012 -0.2522  0.0705
  403MOL0     H53131   6.089   0.740   1.972 -1.8722  0.8393  0.4967
  403MOL0     H53132   6.331   0.759   1.949  0.8402 -1.6753 -1.6306
  403MOL0     H53133   6.467   1.064   1.781  3.0961  1.8921  0.1500
  403MOL0     H53134   6.487   1.017   1.607 -0.3534 -0.2892  1.2377
  403MOL0     H53135   6.691   0.965   1.817 -0.4035 -0.8558 -0.9628
  403MOL0     H53136   6.692   1.094   1.687 -5.0029  2.3222  0.9953
  403MOL0     H53137   6.665   0.892   1.523 -2.0851  0.6561  1.4394
  403MOL0     H53138   6.693   0.794   1.666 -1.3107 -0.7543 -0.0707
  403MOL0     H53139   6.881   1.011   1.582 -2.8054  0.6761 -1.1612
  403MOL0     H53140   6.919   0.857   1.674  3.0905 -1.4250 -3.2343
  403MOL0     H53141   7.001   0.868   1.423 -1.3300 -1.1426 -4.5569
  403MOL0     H53142   6.819   0.858   1.392 -1.6734 -3.4802  0.8212
  403MOL0     H53143   6.818   0.647   1.519  0.7964 -1.4076 -1.2321
  403MOL0     H53144   6.982   0.656   1.555 -1.8337 -2.2365  1.5551
  403MOL0     H53145   7.005   0.651   1.272  1.3690 -0.1139  1.0461
  403MOL0     H53146   6.963   0.503   1.368  4.1073  0.7687 -1.1985
  403MOL0     H53147   6.780   0.711   1.239 -4.9428  1.0625  2.7191
  403MOL0     H53148   6.738   0.561   1.329  1.9325  1.2428  2.0054
  403MOL0     H53149   6.605   0.476   1.143  0.1321 -0.3803  0.0680
  403MOL0     H53150   6.691   0.349   0.782 -0.9326  0.7446  0.2152
  403MOL0     H53151   6.555   0.405   0.879  0.9605  2.6541  1.6787
  403MOL0     H53152   6.723   0.162   0.946  0.8460 -0.2909 -2.7246
  403MOL0     H53153   6.588   0.135   0.833 -2.3617  0.1958 -0.1253
  403MOL0     H53154   6.481   0.083   1.026  0.8000 -0.7540 -3.5456
  403MOL0     H53155   6.559   0.229   1.116  0.5022  3.0669 -0.9547
  403MOL0     H53156   6.390   0.254   0.876 -0.8589  3.5820 -0.6809
  403MOL0     H53157   6.386   0.350   1.023 -1.7001  0.3707 -0.2557
  403MOL0     H53158   6.174   0.341   0.814 -0.2173  1.8675 -0.1428
  403MOL0     H53159   5.959   0.398   0.781  1.3681 -1.0939 -0.6022
  403MOL0     H53160   5.512   0.501   1.049  1.7295  3.1401 -1.3740
  403MOL0     H53161   5.254   0.512   0.994 -1.6688  1.1555 -2.5827
  403MOL0     H53162   5.108   0.633   0.842  1.8890 -0.7592  0.7301
  403MOL0     H53163   5.042   0.499   0.933 -1.8679 -0.9669 -1.0845
  403MOL0     H53164   4.848   0.596   0.825  1.4500  0.3914  1.2001
  403MOL0     H53165   4.889   0.460   0.715 -0.7340  1.4841 -2.8270
  403MOL0     H53166   5.031   0.607   0.563 -1.0290  1.2500 -1.5575
  403MOL0     H53167   4.973   0.738   0.676  2.7499 -1.5658  6.5427
  403MOL0     H53168   4.792   0.537   0.521 -0.4800  1.0553 -0.0071
  403MOL0     H53169   4.741   0.675   0.619 -0.9360  0.4471 -0.8260
  403MOL0     H53170   4.724   0.713   0.377 -0.7260  4.1342  0.3217
  403MOL0     H53171   4.893   0.669   0.353  2.5753  0.0186  2.0097
  403MOL0     H53172   4.866   0.925   0.354  1.8842 -1.1606  0.4451
  403MOL0     H53173   4.945   0.868   0.506 -0.8221 -0.8749  2.4147
  403MOL0     H53174   4.632   0.917   0.501  1.1460 -1.5749  0.9719
  403MOL0     H53175   4.741   0.909   0.632 -0.6158  2.0714  0.4832
  403MOL0     H53176   4.754   1.110   0.409  0.9818 -1.0514 -0.8532
  403MOL0     H53177   4.863   1.107   0.546  1.4848 -1.1403 -2.6234
  403MOL0     H53178   5.347   0.443   0.582 -1.0480 -1.6835 -0.0148
  403MOL0     H53179   5.570   0.413   0.631  0.3114 -0.5673  0.5913
  403MOL0     H53180   5.843   0.202   1.149  1.2990  1.6716  2.0461
  403MOL0     H53181   6.078   0.147   1.188  0.2213  1.7854  0.5437
  403MOL0     H53182   6.310   0.891   1.543  1.5311 -1.3716 -0.0438
  403MOL0     H53183   6.047   0.862   1.559 -0.8507  2.1880  0.8464
  403MOL0     H53184   5.697   0.702   1.649  0.9564  2.0279  0.2452
  403MOL0     H53185   5.458   0.688   1.617  0.6893 -0.1081  0.1509
  403MOL0     H53186   5.187   0.642   1.659  3.3194  0.5447 -0.6707
  403MOL0     H53187   5.239   0.800   1.597 -1.1130 -0.9583 -1.3542
  403MOL0     H53188   5.045   0.889   1.749  1.5897  0.0290 -0.8558
  403MOL0     H53189   5.018   0.823   1.586 -1.3236  1.7625  1.5327
  403MOL0     H53190   4.994   0.656   1.842 -3.4244 -0.6117  1.8202
  403MOL0     H53191   4.958   0.604   1.679 -0.9266 -1.7768  2.7465
  403MOL0     H53192   4.760   0.649   1.820  0.2347 -0.8401 -1.6165
  403MOL0     H53193   4.811   0.827   1.838  0.1728  0.7057 -0.1915
  403MOL0     H53194   4.618   0.830   1.465 -1.9438 -1.3905  1.2403
  403MOL0     H53195   5.390   0.761   2.034 -0.3918  1.4634  0.7504
  403MOL0     H53196   5.630   0.803   2.055 -1.2683  0.0880  0.4503
  404MOL0     O53197   7.995  10.955   2.961 -0.2081  0.4345  0.0247
  404MOL0     C53198   8.031  10.843   2.996  0.2993  0.1160  0.2588
  404MOL0     O53199   7.950  10.736   3.015  0.7311 -0.6629 -0.0699
  404MOL0     C53200   7.815  10.753   2.980 -0.1878 -0.6198  0.5511
  404MOL0     C53201   7.767  10.715   2.858 -0.5044 -0.1049  0.7675
  404MOL0     C53202   7.637  10.736   2.813 -1.0584 -0.7418 -0.0510
  404MOL0     C53203   7.547  10.794   2.908  0.5380 -0.1698  0.3958
  404MOL0     O53204   7.420  10.838   2.883  0.3202 -0.2428 -0.2967
  404MOL0     C53205   7.415  10.963   2.814  0.2263 -0.7228  0.4118
  404MOL0     C53206   7.291  10.952   2.714 -0.2346  0.2729  0.0519
  404MOL0     C53207   7.272  11.081   2.629  0.0637 -0.0140  1.3844
  404MOL0     C53208   7.382  11.115   2.527  0.2068 -1.1225  0.7383
  404MOL0     C53209   7.366  11.251   2.464 -0.7127 -1.1815  0.3924
  404MOL0     C53210   7.249  11.285   2.392  1.0829 -0.4430 -0.0319
  404MOL0     C53211   7.253  11.437   2.350  0.0380 -0.5154  0.2142
  404MOL0     C53212   7.127  11.485   2.284 -1.0292 -1.1115  0.0432
  404MOL0     N53213   7.130  11.613   2.221 -0.3854  0.2595 -0.0204
  404MOL0     C53214   7.137  11.735   2.285 -0.0256 -0.9312  0.2729
  404MOL0     C53215   7.108  11.826   2.190  0.0767 -0.3958 -0.6275
  404MOL0     C53216   7.106  11.971   2.211 -0.1713 -0.5211  0.1468
  404MOL0     C53217   7.233  12.021   2.282  0.2301 -0.5044  0.3822
  404MOL0     C53218   7.218  12.129   2.388 -0.6566 -0.3183  0.2139
  404MOL0     C53219   7.153  12.257   2.341  0.4288  0.0278  0.2898
  404MOL0     O53220   7.127  12.329   2.465 -0.5796 -0.0945  0.2881
  404MOL0     C53221   7.065  12.448   2.456 -0.6840 -0.5539 -0.6503
  404MOL0     C53222   7.042  12.525   2.349 -0.2454  0.5138 -0.0418
  404MOL0     C53223   6.965  12.642   2.361 -0.1896 -0.2416  0.2395
  404MOL0     C53224   6.907  12.690   2.482 -0.3736 -0.4042  0.8719
  404MOL0     C53225   6.816  12.805   2.486 -0.1670 -0.7933  0.3139
  404MOL0     O53226   6.766  12.840   2.610 -0.5810 -0.0541  0.5517
  404MOL0     C53227   6.673  12.939   2.613 -0.6614 -0.1311 -0.0511
  404MOL0     C53228   6.541  12.933   2.560 -0.8766  0.3449 -0.0827
  404MOL0     C53229   6.457  13.034   2.579  1.0250  0.4283 -0.2245
  404MOL0     C53230   6.494  13.150   2.650 -0.3243 -0.0707  0.3682
  404MOL0     O53231   6.415  13.261   2.670 -0.4281  0.3701 -0.5419
  404MOL0     C53232   6.283  13.262   2.623 -0.4787 -0.2696 -0.2018
  404MOL0     C53233   6.226  13.398   2.668  0.4090 -0.1375  0.1653
  404MOL0     C53234   6.209  13.402   2.824 -1.2603  0.3422 -0.4458
  404MOL0     C53235   6.089  13.487   2.871  0.5904 -0.5913 -0.2922
  404MOL0     C53236   6.088  13.639   2.858  0.4583  0.5166  0.1438
  404MOL0     C53237   6.225  13.695   2.879 -0.3262 -0.4395  0.9548
  404MOL0     C53238   6.275  13.712   3.026  0.4412 -0.0606 -0.5747
  404MOL0     C53239   6.190  13.829   3.085  0.3302  0.6707  0.6588
  404MOL0    Cl53240   6.218  13.819   3.261 -0.4080  0.2242 -0.5136
  404MOL0     C53241   6.610  13.154   2.718 -0.8190  0.2225  0.6689
  404MOL0     C53242   6.716  13.054   2.685  0.2389 -0.8001 -0.1629
  404MOL0     O53243   6.777  12.847   2.379  0.2985  0.3558  0.0415
  404MOL0     C53244   6.944  12.615   2.597  0.4733 -0.2685  0.2451
  404MOL0     C53245   7.022  12.499   2.574  0.2576 -1.3560 -0.2671
  404MOL0     N53246   7.087  11.767   2.068 -0.1762  0.0586  0.1270
  404MOL0     N53247   7.095  11.640   2.093 -0.1830 -0.5242 -0.4208
  404MOL0     C53248   7.595  10.819   3.037  0.3263 -0.2786 -0.6232
  404MOL0     C53249   7.725  10.807   3.074 -0.5638  0.4106 -0.0422
  404MOL0     C53250   8.179  10.826   3.014  0.7401  0.8429 -0.1774
  404MOL0     C53251   8.266  10.932   2.997  0.3849  0.1703  0.0001
  404MOL0     C53252   8.401  10.920   2.996 -0.1911  0.1274 -0.1969
  404MOL0     C53253   8.454  10.793   3.018 -0.5594 -0.5029 -0.5969
  404MOL0     O53254   8.588  10.785   3.014 -0.2782  0.2399 -0.6519
  404MOL0     C53255   8.643  10.798   2.882 -1.0381 -0.0595 -0.0753
  404MOL0     C53256   8.773  10.879   2.878  0.1292 -0.0845  0.2163
  404MOL0     C53257   8.878  10.772   2.920 -0.0514  0.0025 -0.0363
  404MOL0     C53258   9.008  10.844   2.965 -0.3828  0.2517 -0.4516
  404MOL0     C53259   9.090  10.873   2.863 -0.6519 -0.4292  0.6073
  404MOL0     C53260   9.169  10.894   2.773 -0.7009  0.5754 -0.4550
  404MOL0     C53261   8.367  10.690   3.048 -0.0119 -0.0707 -0.0999
  404MOL0     C53262   8.229  10.701   3.034 -0.9960 -0.2095  0.5997
  404MOL0     H53263   7.837  10.679   2.784 -1.0146 -0.1228  0.2891
  404MOL0     H53264   7.610  10.719   2.710  1.2792  3.2668 -1.5564
  404MOL0     H53265   7.503  10.990   2.754  0.9856  0.4746  1.9955
  404MOL0     H53266   7.415  11.040   2.891  0.0541 -2.1221  1.8601
  404MOL0     H53267   7.206  10.930   2.779 -0.5574 -2.7297 -1.2140
  404MOL0     H53268   7.286  10.869   2.644 -2.0484  0.0646  0.3972
  404MOL0     H53269   7.263  11.166   2.697  0.1288  0.1479  1.1928
  404MOL0     H53270   7.173  11.076   2.582  0.1061  0.0132  1.2909
  404MOL0     H53271   7.476  11.128   2.582 -1.7220  1.3799  3.7840
  404MOL0     H53272   7.399  11.037   2.453  0.1435 -1.2773  0.8857
  404MOL0     H53273   7.452  11.266   2.397 -0.7561 -1.4911  0.2654
  404MOL0     H53274   7.373  11.326   2.544 -5.0096 -2.1784  1.9576
  404MOL0     H53275   7.160  11.265   2.452  0.6846 -3.3875 -1.4407
  404MOL0     H53276   7.232  11.229   2.300 -2.7484 -0.2379  0.3895
  404MOL0     H53277   7.272  11.488   2.445  2.2552 -0.4431 -0.2137
  404MOL0     H53278   7.336  11.454   2.282  1.3700  2.1781  2.3135
  404MOL0     H53279   7.044  11.483   2.356 -1.4961 -0.5604 -0.4777
  404MOL0     H53280   7.098  11.410   2.210  0.4840  1.0508 -2.9570
  404MOL0     H53281   7.164  11.754   2.388  0.4158 -1.5528  0.2758
  404MOL0     H53282   7.013  12.007   2.256 -0.6434  0.0764 -1.2468
  404MOL0     H53283   7.097  12.021   2.115 -0.6786 -2.4651 -0.8748
  404MOL0     H53284   7.306  12.061   2.211 -0.5298 -0.9913 -0.7095
  404MOL0     H53285   7.278  11.934   2.331  0.5453 -0.6538 -0.1704
  404MOL0     H53286   7.161  12.100   2.477 -1.6293  0.6159 -0.0853
  404MOL0     H53287   7.315  12.167   2.423 -0.7613 -0.7556  1.0133
  404MOL0     H53288   7.056  12.223   2.305  0.8558 -0.3986 -0.4881
  404MOL0     H53289   7.199  12.300   2.252 -0.1713  1.3483  0.5826
  404MOL0     H53290   7.071  12.492   2.250  1.5004 -0.9632  0.9201
  404MOL0     H53291   6.928  12.676   2.264 -1.8549  0.4978  1.1063
  404MOL0     H53292   6.513  12.842   2.509 -2.2798  1.8585 -2.1549
  404MOL0     H53293   6.354  13.028   2.546  0.5290  1.5867  1.0168
  404MOL0     H53294   6.212  13.185   2.656 -2.8536  2.0785  0.5802
  404MOL0     H53295   6.287  13.257   2.514 -1.0210  2.9710 -0.4620
  404MOL0     H53296   6.127  13.413   2.622  1.4336  1.5196 -1.6676
  404MOL0     H53297   6.298  13.477   2.643  1.8217 -1.6201 -0.6415
  404MOL0     H53298   6.299  13.446   2.867 -1.0043 -1.2077  0.6956
  404MOL0     H53299   6.196  13.304   2.871 -0.7123  1.6189  2.6139
  404MOL0     H53300   5.997  13.451   2.824 -0.3282 -0.5592  1.4104
  404MOL0     H53301   6.093  13.483   2.980  3.7415 -0.2134 -0.3226
  404MOL0     H53302   6.019  13.680   2.933 -1.9116 -2.7911  0.0477
  404MOL0     H53303   6.042  13.668   2.763  0.1715 -2.1423 -0.6122
  404MOL0     H53304   6.216  13.789   2.823  2.3186 -0.6774 -0.0009
  404MOL0     H53305   6.301  13.638   2.825 -0.3423  0.2722  0.1513
  404MOL0     H53306   6.260  13.617   3.078  2.8636 -1.3635 -2.0503
  404MOL0     H53307   6.382  13.736   3.028  0.2825  0.7081  1.5389
  404MOL0     H53308   6.084  13.817   3.063  0.3675  1.2268  0.1580
  404MOL0     H53309   6.234  13.920   3.044  1.5431 -0.0896  0.2485
  404MOL0     H53310   6.626  13.244   2.776 -2.2294  1.2758 -0.4876
  404MOL0     H53311   6.815  13.062   2.729  0.7152  0.7743 -1.4075
  404MOL0     H53312   6.904  12.638   2.696  2.3985 -1.1052  1.2559
  404MOL0     H53313   7.040  12.435   2.659  1.1160  0.6937  1.1736
  404MOL0     H53314   7.534  10.873   3.109 -0.5812  2.0054 -2.9395
  404MOL0     H53315   7.762  10.839   3.172  1.3732 -1.4733 -0.0949
  404MOL0     H53316   8.228  11.031   2.979  0.2221  0.5858  2.3430
  404MOL0     H53317   8.472  10.998   2.973 -0.6317  0.3624 -0.7700
  404MOL0     H53318   8.579  10.846   2.807 -0.2890 -0.9746 -1.3379
  404MOL0     H53319   8.649  10.698   2.838  2.8426  0.5298 -1.2633
  404MOL0     H53320   8.804  10.899   2.775  0.0654  0.5119  0.3094
  404MOL0     H53321   8.766  10.973   2.933 -0.8036 -0.9288  1.5987
  404MOL0     H53322   8.899  10.700   2.841 -3.3335  1.0381 -2.0419
  404MOL0     H53323   8.834  10.717   3.003 -0.2384 -0.2682 -0.3116
  404MOL0     H53324   8.978  10.937   3.015 -2.0364 -1.6341  2.4088
  404MOL0     H53325   9.054  10.780   3.041 -0.6309 -0.3800 -0.8356
  404MOL0     H53326   9.232  10.925   2.692 -1.9756  1.0508 -1.2978
  404MOL0     H53327   8.402  10.593   3.081  2.3070  0.8715  0.4250
  404MOL0     H53328   8.165  10.613   3.035 -1.7250  0.2951 -0.2808
  405MOL0     O53329   8.793   0.448   9.371  0.0222 -0.1916  0.1703
  405MOL0     C53330   8.789   0.548   9.437  0.0165  0.0783 -0.3226
  405MOL0     O53331   8.678   0.612   9.485 -0.4646 -0.4632 -0.4034
  405MOL0     C53332   8.544   0.584   9.448 -0.1070 -0.0555  0.4857
  405MOL0     C53333   8.496   0.451   9.455  0.3802  0.0694  0.3912
  405MOL0     C53334   8.363   0.426   9.415 -0.3821 -0.4588  0.2703
  405MOL0     C53335   8.282   0.531   9.370  0.6299  0.4384 -0.0041
  405MOL0     O53336   8.155   0.508   9.319  0.2008 -0.9605  0.1992
  405MOL0     C53337   8.042   0.517   9.407  0.2231 -0.5310  0.9016
  405MOL0     C53338   7.919   0.503   9.318 -1.0981 -0.1382 -0.4160
  405MOL0     C53339   7.798   0.468   9.393  1.0475 -0.0914  0.0784
  405MOL0     C53340   7.678   0.468   9.296  0.3103 -0.2278  0.2875
  405MOL0     C53341   7.559   0.367   9.334 -0.0305  0.3226  0.5294
  405MOL0     C53342   7.455   0.363   9.219 -2.3771  0.3904  0.2695
  405MOL0     C53343   7.356   0.478   9.231  0.4087  0.0491 -0.1623
  405MOL0     C53344   7.259   0.473   9.345  0.2157 -0.7192 -0.6493
  405MOL0     N53345   7.135   0.382   9.315  0.5992 -0.1391  0.3170
  405MOL0     C53346   7.049   0.415   9.223 -0.3763  0.5084  0.3827
  405MOL0     C53347   6.954   0.324   9.233  0.2581 -0.0361 -0.0309
  405MOL0     C53348   6.828   0.335   9.146 -0.1459  0.2724 -0.3244
  405MOL0     C53349   6.709   0.332   9.232  0.0610  1.0500 -0.1210
  405MOL0     C53350   6.586   0.300   9.155  0.5165 -0.4006 -0.4021
  405MOL0     C53351   6.470   0.271   9.253  0.2742  0.3633  0.5138
  405MOL0     O53352   6.369   0.190   9.187 -0.2791  0.4335 -0.3572
  405MOL0     C53353   6.266   0.133   9.256  0.2960 -0.5020  0.9158
  405MOL0     C53354   6.223   0.005   9.220 -0.5161  0.2876  0.2091
  405MOL0     C53355   6.111  -0.052   9.280  0.2159  0.1418 -0.6923
  405MOL0     C53356   6.042   0.017   9.385  0.2284 -0.1041  0.3122
  405MOL0     C53357   5.926  -0.045   9.435  0.9939  0.3940  0.2811
  405MOL0     O53358   5.896  -0.170   9.397 -1.0274  0.6806  0.7988
  405MOL0     C53359   5.776  -0.224   9.441  0.6405 -0.2091  0.3307
  405MOL0     C53360   5.766  -0.322   9.546 -0.7686  1.6931  0.0805
  405MOL0     C53361   5.640  -0.376   9.581  0.8151  0.0929  1.3762
  405MOL0     C53362   5.523  -0.351   9.506  0.1175 -0.1321 -0.1146
  405MOL0     O53363   5.400  -0.395   9.529  0.7980 -0.4807 -0.3237
  405MOL0     C53364   5.377  -0.469   9.648  0.1912 -0.6063  0.3411
  405MOL0     C53365   5.229  -0.462   9.665 -0.0322 -0.3901  0.3559
  405MOL0     C53366   5.141  -0.542   9.558 -0.1005  0.0671 -0.5092
  405MOL0     C53367   4.997  -0.555   9.607 -0.6109 -0.1946  0.0501
  405MOL0     C53368   4.892  -0.574   9.506  0.4599 -0.1127  0.5701
  405MOL0     C53369   4.747  -0.568   9.565  0.2551  0.4756  0.4036
  405MOL0     C53370   4.649  -0.638   9.475 -0.0814  0.7560  0.4495
  405MOL0     C53371   4.526  -0.686   9.555  0.1172  0.5290  0.4640
  405MOL0    Cl53372   4.418  -0.551   9.591  0.7493 -0.2291  0.1918
  405MOL0     C53373   5.539  -0.252   9.408  0.6626 -0.3814 -0.6784
  405MOL0     C53374   5.660  -0.186   9.380  0.1588 -0.2800 -0.2046
  405MOL0     O53375   5.859   0.012   9.517  0.6484 -0.1018  0.2274
  405MOL0     C53376   6.082   0.148   9.421  0.3232 -0.1012  0.7132
  405MOL0     C53377   6.191   0.201   9.353  0.5149  0.1155  0.3869
  405MOL0     N53378   7.001   0.223   9.323  0.1911  0.1297 -0.0470
  405MOL0     N53379   7.115   0.261   9.357 -1.2025 -0.4125  0.3557
  405MOL0     C53380   8.320   0.656   9.380  0.3446 -0.5206 -0.7295
  405MOL0     C53381   8.451   0.686   9.416 -0.0360  0.4901 -0.3203
  405MOL0     C53382   8.916   0.620   9.468 -0.1970 -0.8566  0.3631
  405MOL0     C53383   9.037   0.542   9.463  0.0580  0.0309  0.3840
  405MOL0     C53384   9.159   0.610   9.512  0.4081 -0.0045  0.3912
  405MOL0     C53385   9.158   0.745   9.566 -0.2935 -0.8187  0.2764
  405MOL0     O53386   9.269   0.807   9.617  0.0050  0.0629 -0.0106
  405MOL0     C53387   9.385   0.726   9.637  0.3289 -0.2051  0.2366
  405MOL0     C53388   9.488   0.814   9.693  0.1869 -0.2080 -0.1127
  405MOL0     C53389   9.452   0.908   9.810  0.0628  0.2392  0.8890
  405MOL0     C53390   9.528   0.871   9.941  0.3120  0.1030 -1.1184
  405MOL0     C53391   9.466   0.757  10.012  0.4756  0.4120 -0.0232
  405MOL0     C53392   9.409   0.665  10.065 -0.4114 -0.6056 -0.2723
  405MOL0     C53393   9.032   0.810   9.559  0.0705  0.0188  0.1920
  405MOL0     C53394   8.917   0.751   9.514 -0.1134 -0.4933 -0.2179
  405MOL0     H53395   8.548   0.357   9.472  0.1637 -0.6910 -2.6123
  405MOL0     H53396   8.332   0.322   9.410  2.0298 -1.2785  1.0854
  405MOL0     H53397   8.041   0.609   9.467 -1.1385  1.1765 -1.5609
  405MOL0     H53398   8.035   0.433   9.476 -2.0156  0.0272  1.4382
  405MOL0     H53399   7.936   0.440   9.230 -1.6271  1.1583 -1.4712
  405MOL0     H53400   7.899   0.597   9.267 -1.5217 -0.6987 -1.2983
  405MOL0     H53401   7.781   0.543   9.471 -1.2943  0.4164 -0.8070
  405MOL0     H53402   7.809   0.371   9.442 -2.7406 -1.0483 -0.6279
  405MOL0     H53403   7.636   0.566   9.272 -2.4282 -0.7474  2.4040
  405MOL0     H53404   7.715   0.427   9.202 -1.2442 -2.7488  0.6747
  405MOL0     H53405   7.523   0.408   9.429  3.4281  4.5963  0.3096
  405MOL0     H53406   7.591   0.263   9.346 -0.2896  0.3292  1.3325
  405MOL0     H53407   7.390   0.274   9.217  0.5167 -1.8778 -1.9031
  405MOL0     H53408   7.508   0.356   9.124 -0.8629  1.5278  0.9996
  405MOL0     H53409   7.405   0.575   9.237  1.0785 -0.3485  1.2243
  405MOL0     H53410   7.298   0.462   9.139  0.9639 -2.9413 -0.1065
  405MOL0     H53411   7.232   0.579   9.353  2.7989  0.0202 -0.9878
  405MOL0     H53412   7.311   0.447   9.437 -3.1907 -3.1747  0.8079
  405MOL0     H53413   7.046   0.510   9.170  0.7278  0.2726 -0.1078
  405MOL0     H53414   6.823   0.251   9.076  0.6964  0.6111 -0.8003
  405MOL0     H53415   6.839   0.432   9.097  1.5053  1.0994  1.5397
  405MOL0     H53416   6.700   0.429   9.282 -0.5851  0.5879  0.6998
  405MOL0     H53417   6.718   0.248   9.302  0.0514 -0.7531 -2.1986
  405MOL0     H53418   6.565   0.391   9.098 -3.6037 -0.3055  0.9439
  405MOL0     H53419   6.597   0.215   9.087 -2.7894 -1.1692 -0.1380
  405MOL0     H53420   6.434   0.368   9.286  0.9365  0.7096  0.2462
  405MOL0     H53421   6.514   0.221   9.340  3.0351 -2.3772 -2.1640
  405MOL0     H53422   6.272  -0.054   9.142 -2.1857 -1.8166  0.6518
  405MOL0     H53423   6.080  -0.146   9.236 -0.1507  0.2416 -0.6515
  405MOL0     H53424   5.850  -0.353   9.608 -1.4167 -1.8764 -0.5932
  405MOL0     H53425   5.645  -0.461   9.648 -1.4388 -1.1035  0.1208
  405MOL0     H53426   5.429  -0.426   9.734 -0.3608  4.7758 -1.6226
  405MOL0     H53427   5.403  -0.571   9.622  1.0327 -0.8301  1.9263
  405MOL0     H53428   5.194  -0.358   9.668  1.6507  0.1737  2.3409
  405MOL0     H53429   5.206  -0.503   9.764  0.7496 -0.8145  0.3693
  405MOL0     H53430   5.187  -0.638   9.531  0.3926  0.8249 -2.5902
  405MOL0     H53431   5.146  -0.473   9.472 -1.2089  1.6677  0.6539
  405MOL0     H53432   4.991  -0.627   9.689 -2.7013 -0.3726 -0.2027
  405MOL0     H53433   4.984  -0.464   9.667  0.0314 -0.6573  0.9270
  405MOL0     H53434   4.909  -0.676   9.470  1.6010  0.2184  0.1274
  405MOL0     H53435   4.917  -0.501   9.429  4.5515 -0.6849  1.1538
  405MOL0     H53436   4.722  -0.463   9.585 -0.0599  0.2230  1.4010
  405MOL0     H53437   4.742  -0.612   9.665  0.6874  0.4521  0.4148
  405MOL0     H53438   4.622  -0.573   9.391 -0.5000 -0.3780 -0.3256
  405MOL0     H53439   4.697  -0.731   9.443 -2.2695  0.0873 -1.0993
  405MOL0     H53440   4.562  -0.734   9.647  1.0138 -4.2361 -2.0319
  405MOL0     H53441   4.469  -0.759   9.497  1.0726 -0.1881  0.4034
  405MOL0     H53442   5.450  -0.241   9.347 -2.9252 -2.6622  3.5772
  405MOL0     H53443   5.673  -0.116   9.298  1.6068  1.9024  1.7417
  405MOL0     H53444   6.020   0.197   9.494 -1.1388 -1.2782  0.3199
  405MOL0     H53445   6.201   0.307   9.373  0.5845  0.1959 -0.0585
  405MOL0     H53446   8.251   0.734   9.351  1.0343 -0.0905 -1.2274
  405MOL0     H53447   8.475   0.791   9.408  0.7573  0.6044  2.5987
  405MOL0     H53448   9.049   0.445   9.415  2.0681 -0.0120  0.8651
  405MOL0     H53449   9.251   0.555   9.494  0.0039 -0.3163 -0.8758
  405MOL0     H53450   9.414   0.676   9.545 -0.5376  0.1414 -0.2419
  405MOL0     H53451   9.350   0.654   9.711 -1.5928  0.2861 -0.1205
  405MOL0     H53452   9.577   0.752   9.712  0.5704 -0.9418 -3.4935
  405MOL0     H53453   9.529   0.878   9.614  1.0232 -0.9103 -0.2657
  405MOL0     H53454   9.344   0.895   9.819  0.1918 -0.1456  1.9701
  405MOL0     H53455   9.469   1.012   9.780 -1.5837  0.0392 -0.9940
  405MOL0     H53456   9.636   0.858   9.932  0.3825 -1.7204  1.3543
  405MOL0     H53457   9.524   0.957  10.009  1.7586  0.3235 -1.2694
  405MOL0     H53458   9.356   0.578  10.100  1.1663 -1.8049 -0.7622
  405MOL0     H53459   9.042   0.915   9.584 -1.8982  0.2439  0.1502
  405MOL0     H53460   8.825   0.810   9.509 -0.8523 -1.5248  0.7805
  406MOL0     O53461   5.988   8.999   4.728 -0.2693 -0.4339  0.6001
  406MOL0     C53462   6.074   8.913   4.698  0.1410  0.0124 -0.7762
  406MOL0     O53463   6.048   8.778   4.689  0.2575  0.4786 -0.2888
  406MOL0     C53464   5.921   8.741   4.653  0.3848 -0.7842 -0.1610
  406MOL0     C53465   5.796   8.793   4.695 -0.1448 -0.3958 -1.0980
  406MOL0     C53466   5.672   8.744   4.656 -0.1108  0.0201 -1.2215
  406MOL0     C53467   5.668   8.626   4.579  0.0993 -0.4332  0.1528
  406MOL0     O53468   5.554   8.561   4.544 -0.1213  0.0020 -0.7705
  406MOL0     C53469   5.428   8.610   4.614  0.5963 -0.7653  0.5863
  406MOL0     C53470   5.304   8.540   4.578  0.9144 -0.3016 -0.8641
  406MOL0     C53471   5.284   8.397   4.614  0.2198 -1.0534 -0.3940
  406MOL0     C53472   5.190   8.335   4.511  0.1877 -0.5732 -0.8144
  406MOL0     C53473   5.049   8.390   4.523 -0.1497  0.2091 -0.3739
  406MOL0     C53474   4.968   8.331   4.399  0.8207 -0.1710 -0.4438
  406MOL0     C53475   4.895   8.199   4.427  0.5862 -0.4834  0.1344
  406MOL0     C53476   4.794   8.151   4.323 -0.6940  0.3303  0.6650
  406MOL0     N53477   4.693   8.258   4.308  0.1325 -0.3010 -0.1856
  406MOL0     C53478   4.595   8.288   4.392  0.2912 -0.2244  0.7032
  406MOL0     C53479   4.514   8.382   4.338  0.5163  0.6889  0.7216
  406MOL0     C53480   4.417   8.462   4.413  0.1278  0.1050 -0.7587
  406MOL0     C53481   4.269   8.442   4.371 -0.2055 -0.4158 -0.0840
  406MOL0     C53482   4.205   8.319   4.418 -0.1061 -0.6956 -0.5691
  406MOL0     C53483   4.050   8.332   4.401 -0.1499  0.3285 -1.0715
  406MOL0     O53484   3.991   8.199   4.396  0.5891  0.9171  0.1444
  406MOL0     C53485   3.852   8.189   4.381 -0.6817  0.0217  0.1977
  406MOL0     C53486   3.799   8.078   4.321  0.1289 -0.4120 -0.4170
  406MOL0     C53487   3.663   8.078   4.301  0.0662 -0.5965 -0.7041
  406MOL0     C53488   3.578   8.176   4.349 -0.6525 -0.7610  0.2585
  406MOL0     C53489   3.432   8.149   4.342  0.5684 -0.4122  0.2496
  406MOL0     O53490   3.343   8.250   4.357 -0.2811  0.0307  0.1543
  406MOL0     C53491   3.212   8.221   4.366  0.1213 -0.8725  0.4250
  406MOL0     C53492   3.163   8.180   4.493  0.8976 -0.8077 -0.5924
  406MOL0     C53493   3.020   8.172   4.510 -0.3015 -0.1313 -0.9929
  406MOL0     C53494   2.934   8.197   4.408 -0.6234  0.2369  0.1054
  406MOL0     O53495   2.801   8.176   4.441 -0.3189  0.4095  0.1188
  406MOL0     C53496   2.711   8.281   4.395  0.1852 -0.0720 -0.5067
  406MOL0     C53497   2.563   8.273   4.436 -0.4757  0.0613 -0.3708
  406MOL0     C53498   2.465   8.364   4.357  0.1389 -0.0656 -0.6455
  406MOL0     C53499   2.339   8.378   4.431  1.0727 -0.1909 -0.5215
  406MOL0     C53500   2.288   8.241   4.472  0.7766 -0.0204 -0.2430
  406MOL0     C53501   2.157   8.252   4.527 -0.1269  0.2744  0.0728
  406MOL0     C53502   2.118   8.116   4.580  0.4795 -0.1153  0.2519
  406MOL0     C53503   1.990   8.133   4.674 -0.1261 -0.2129  0.8511
  406MOL0    Cl53504   1.859   8.215   4.579  0.0185 -0.0943  0.1446
  406MOL0     C53505   2.983   8.224   4.281 -0.7958 -0.8064 -0.4925
  406MOL0     C53506   3.119   8.240   4.259 -0.0711 -0.4200 -0.6210
  406MOL0     O53507   3.399   8.040   4.297  0.3806 -0.4691  0.5238
  406MOL0     C53508   3.630   8.279   4.427  0.3321  0.6576 -0.6974
  406MOL0     C53509   3.767   8.284   4.443  1.1215 -0.3144  0.0223
  406MOL0     N53510   4.569   8.417   4.215 -0.1644  0.0348 -0.3519
  406MOL0     N53511   4.673   8.339   4.199  0.2683  0.5408  0.0786
  406MOL0     C53512   5.785   8.568   4.540 -0.2157  0.0679 -0.6193
  406MOL0     C53513   5.910   8.631   4.572 -0.1452 -0.3683  0.0853
  406MOL0     C53514   6.211   8.956   4.675 -0.1568 -0.4638  0.4810
  406MOL0     C53515   6.317   8.882   4.615  0.4510 -0.6301 -0.1586
  406MOL0     C53516   6.449   8.923   4.603  0.7294  0.4238  0.3755
  406MOL0     C53517   6.490   9.042   4.665 -0.2407 -0.0047 -0.2193
  406MOL0     O53518   6.629   9.068   4.679 -0.2272 -0.0165 -0.0196
  406MOL0     C53519   6.671   9.152   4.788  0.3136 -0.0140  0.8431
  406MOL0     C53520   6.804   9.105   4.834 -0.8464 -0.3438  0.9723
  406MOL0     C53521   6.920   9.120   4.732 -0.0275 -0.0180  1.0083
  406MOL0     C53522   7.044   9.059   4.787  0.2774  0.6653  0.1096
  406MOL0     C53523   7.163   9.061   4.706  0.1173 -0.7647 -0.5743
  406MOL0     C53524   7.259   9.060   4.641 -0.2150 -0.9375  0.6736
  406MOL0     C53525   6.390   9.122   4.724 -0.1465 -0.5808  0.0296
  406MOL0     C53526   6.255   9.082   4.733  0.5629  0.1512 -0.7001
  406MOL0     H53527   5.787   8.868   4.774  2.7782  0.8982 -1.8648
  406MOL0     H53528   5.588   8.805   4.689  0.4732 -0.0735  0.5624
  406MOL0     H53529   5.402   8.715   4.593 -2.1296 -1.8946 -2.5007
  406MOL0     H53530   5.447   8.620   4.721  2.9831  1.2823  0.0724
  406MOL0     H53531   5.298   8.561   4.471  2.4157  1.3671 -0.6693
  406MOL0     H53532   5.222   8.593   4.627  2.8287  0.3331  1.8704
  406MOL0     H53533   5.238   8.409   4.713 -0.0371 -1.8693 -0.4088
  406MOL0     H53534   5.384   8.355   4.623  1.8325  2.8372  3.1172
  406MOL0     H53535   5.218   8.357   4.407  1.2103  0.9851 -0.2547
  406MOL0     H53536   5.192   8.227   4.526 -0.8219 -0.4900  0.0078
  406MOL0     H53537   5.042   8.498   4.506 -1.4930  0.1933 -0.0668
  406MOL0     H53538   5.016   8.360   4.623  0.7545  0.8104  0.1143
  406MOL0     H53539   5.033   8.330   4.311 -0.2433  3.2306 -1.4444
  406MOL0     H53540   4.903   8.411   4.362  0.4457 -0.4389 -0.3659
  406MOL0     H53541   4.977   8.127   4.438 -0.9152 -2.5967 -1.5928
  406MOL0     H53542   4.838   8.196   4.520  0.3421 -3.4780 -0.0236
  406MOL0     H53543   4.739   8.060   4.347 -0.4715 -0.3205 -1.1221
  406MOL0     H53544   4.856   8.134   4.234 -1.7799  0.4727 -0.1315
  406MOL0     H53545   4.588   8.266   4.498  0.2210 -1.8959  0.3933
  406MOL0     H53546   4.444   8.567   4.403  3.9288 -0.2780  2.9912
  406MOL0     H53547   4.414   8.461   4.522 -1.2906  2.2530 -0.7234
  406MOL0     H53548   4.271   8.439   4.262  1.8973  0.8569 -0.1237
  406MOL0     H53549   4.212   8.530   4.400  0.4925  0.8136 -2.2028
  406MOL0     H53550   4.237   8.229   4.365 -1.7412 -1.1298 -0.8754
  406MOL0     H53551   4.232   8.295   4.521 -1.1101 -0.4030 -0.2283
  406MOL0     H53552   4.033   8.388   4.308 -2.8452 -0.3210 -1.0711
  406MOL0     H53553   4.009   8.385   4.488  0.9241  0.7794 -0.8246
  406MOL0     H53554   3.867   8.000   4.290  1.6019  0.2744  0.9029
  406MOL0     H53555   3.622   7.985   4.263 -0.7062 -0.8855  0.7655
  406MOL0     H53556   3.231   8.169   4.577  0.7743  1.6096 -0.0905
  406MOL0     H53557   2.990   8.127   4.604 -2.5797 -2.1072 -2.5659
  406MOL0     H53558   2.713   8.274   4.285  0.2660 -1.0069 -0.4467
  406MOL0     H53559   2.755   8.377   4.423  1.6483 -0.7307 -0.5043
  406MOL0     H53560   2.563   8.293   4.544  1.7110 -0.0308 -0.3111
  406MOL0     H53561   2.539   8.167   4.433 -2.3064  0.3046  2.4153
  406MOL0     H53562   2.447   8.314   4.261 -1.6187  3.0545 -2.0919
  406MOL0     H53563   2.510   8.458   4.325  0.1879  0.3361  0.5653
  406MOL0     H53564   2.349   8.439   4.521  0.6251 -0.5476 -0.2268
  406MOL0     H53565   2.267   8.432   4.369  0.3482  1.3715  1.5475
  406MOL0     H53566   2.356   8.200   4.547  2.3925 -2.2154 -2.7241
  406MOL0     H53567   2.284   8.174   4.386 -0.0913 -1.0511  0.5610
  406MOL0     H53568   2.090   8.288   4.449 -0.4674  1.0634  0.7124
  406MOL0     H53569   2.156   8.329   4.605  1.1515 -0.6870  1.0944
  406MOL0     H53570   2.088   8.043   4.505  0.3782 -0.9185  1.0612
  406MOL0     H53571   2.191   8.063   4.642 -2.0879 -0.5391  3.1489
  406MOL0     H53572   2.007   8.201   4.758 -2.3989  0.2609  0.9912
  406MOL0     H53573   1.964   8.033   4.709  1.3969 -0.1472  2.2504
  406MOL0     H53574   2.917   8.236   4.195 -0.2209  0.3340 -0.7953
  406MOL0     H53575   3.154   8.280   4.165 -1.5094  0.8454 -0.6654
  406MOL0     H53576   3.572   8.329   4.504  0.4595  0.7988 -0.6921
  406MOL0     H53577   3.807   8.353   4.516 -1.0038 -0.6740  1.6141
  406MOL0     H53578   5.775   8.473   4.489  0.7989  0.2747 -1.2351
  406MOL0     H53579   6.006   8.590   4.543 -0.2518 -1.0047  0.6131
  406MOL0     H53580   6.283   8.789   4.571  2.6061 -1.8732  0.6514
  406MOL0     H53581   6.508   8.845   4.556 -1.1262 -3.1349  3.3692
  406MOL0     H53582   6.609   9.141   4.878  0.1361  1.5371  0.9512
  406MOL0     H53583   6.663   9.254   4.749 -1.4967 -1.1497 -2.1500
  406MOL0     H53584   6.839   9.161   4.921  2.7592  1.0505 -1.1433
  406MOL0     H53585   6.798   9.001   4.868  0.4721 -0.0680  2.1461
  406MOL0     H53586   6.934   9.223   4.698 -0.4693 -0.2914 -0.0446
  406MOL0     H53587   6.908   9.060   4.642 -2.1559 -1.1732  1.9849
  406MOL0     H53588   7.060   9.102   4.886  1.9516 -0.0493  0.1787
  406MOL0     H53589   7.026   8.951   4.795  1.6309  0.4553  0.5102
  406MOL0     H53590   7.333   9.055   4.564 -1.6775 -2.5963 -0.7310
  406MOL0     H53591   6.414   9.217   4.770  2.2384 -1.7120  1.3295
  406MOL0     H53592   6.182   9.147   4.780  2.5446  1.3542  0.8469
  407MOL0     O53593   2.525   8.240  11.048 -0.1165 -0.9188  0.7468
  407MOL0     C53594   2.495   8.193  10.939  0.8784 -0.4065  0.6390
  407MOL0     O53595   2.364   8.138  10.912 -0.2031 -0.3114 -0.8985
  407MOL0     C53596   2.271   8.117  11.013  0.7315  0.0903  0.5072
  407MOL0     C53597   2.151   8.181  11.014 -0.5780  0.0055  0.2885
  407MOL0     C53598   2.060   8.161  11.113  0.2746  0.7371  0.8395
  407MOL0     C53599   2.087   8.066  11.212 -0.4006  0.0661  0.3046
  407MOL0     O53600   1.993   8.051  11.312  0.5745  0.3513  0.5542
  407MOL0     C53601   2.045   8.058  11.445 -1.0274  0.1059  0.0719
  407MOL0     C53602   1.944   8.107  11.547 -0.4630 -0.0384 -0.1171
  407MOL0     C53603   1.813   8.033  11.547  0.5141  0.6450  1.0227
  407MOL0     C53604   1.817   7.872  11.557 -0.3928 -0.0171 -0.2148
  407MOL0     C53605   1.677   7.811  11.571  0.5677  0.1664 -0.3227
  407MOL0     C53606   1.691   7.660  11.600 -0.3772  0.5442 -0.5368
  407MOL0     C53607   1.555   7.584  11.629 -0.6373  0.2606  0.1070
  407MOL0     C53608   1.588   7.434  11.643  0.4356 -1.4506  0.0859
  407MOL0     N53609   1.469   7.361  11.699  0.4596  0.0125 -0.8601
  407MOL0     C53610   1.401   7.383  11.815  0.2137  0.2309  0.1765
  407MOL0     C53611   1.303   7.284  11.823  0.4843 -0.5391 -0.1251
  407MOL0     C53612   1.191   7.282  11.924  0.2400 -0.1385 -0.6793
  407MOL0     C53613   1.057   7.264  11.863 -0.3949  0.2530 -0.0124
  407MOL0     C53614   0.946   7.217  11.958  0.2065 -0.2809 -0.1995
  407MOL0     C53615   0.848   7.118  11.899 -0.6702  0.1888  0.2515
  407MOL0     O53616   0.773   7.194  11.804 -0.2752 -0.1453  0.2719
  407MOL0     C53617   0.657   7.263  11.839 -0.8446  0.4349 -0.5556
  407MOL0     C53618   0.598   7.271  11.964 -0.5965 -0.5500 -0.2848
  407MOL0     C53619   0.481   7.349  11.980  0.1869 -0.0235 -0.4339
  407MOL0     C53620   0.407   7.400  11.877 -0.6320  0.4081  0.4128
  407MOL0     C53621   0.270   7.442  11.882  0.7431  0.0676 -0.0175
  407MOL0     O53622   0.201   7.413  12.005  0.3904  0.4001  0.8728
  407MOL0     C53623   0.065   7.453  12.025 -0.9980 -0.4419  0.3701
  407MOL0     C53624   0.026   7.428  12.156 -0.4352  0.2457 -1.4283
  407MOL0     C53625  -0.095   7.471  12.204  0.1700 -0.4706 -0.2803
  407MOL0     C53626  -0.193   7.525  12.124 -0.3876 -0.5949  0.0965
  407MOL0     O53627  -0.316   7.552  12.177  1.1218 -0.1027 -0.4223
  407MOL0     C53628  -0.431   7.504  12.109 -0.8259  0.2381  0.2537
  407MOL0     C53629  -0.543   7.519  12.207  0.4219  0.7545 -0.0877
  407MOL0     C53630  -0.678   7.488  12.134  0.1442 -0.8656 -0.1649
  407MOL0     C53631  -0.787   7.513  12.224  0.1118 -0.4366 -0.8949
  407MOL0     C53632  -0.913   7.535  12.146 -0.0025  0.3963 -0.6263
  407MOL0     C53633  -1.031   7.557  12.239 -0.6487 -1.2363  0.3615
  407MOL0     C53634  -1.165   7.564  12.161 -0.0788 -0.8274  0.3493
  407MOL0     C53635  -1.285   7.612  12.248 -0.2938  0.5714 -0.4561
  407MOL0    Cl53636  -1.449   7.566  12.169 -0.0139  0.3801 -0.3148
  407MOL0     C53637  -0.161   7.546  11.985  0.3199  0.4060  0.1034
  407MOL0     C53638  -0.031   7.511  11.941  0.6189  0.3313  0.0336
  407MOL0     O53639   0.224   7.510  11.792 -0.2147  0.4333  0.4938
  407MOL0     C53640   0.481   7.408  11.750  0.3674 -0.2740 -0.6187
  407MOL0     C53641   0.606   7.346  11.734 -0.4550  0.7688  0.1079
  407MOL0     N53642   1.327   7.201  11.712  0.1197 -0.4365 -0.0751
  407MOL0     N53643   1.415   7.253  11.640 -0.7487  0.9792 -0.6472
  407MOL0     C53644   2.201   7.996  11.215  0.2847  0.5755 -0.1704
  407MOL0     C53645   2.295   8.035  11.118 -0.8109  0.4438 -0.0856
  407MOL0     C53646   2.603   8.151  10.841 -0.5303 -0.1068 -0.1868
  407MOL0     C53647   2.572   8.066  10.733 -0.2882 -0.4867 -0.0752
  407MOL0     C53648   2.676   8.034  10.639 -0.3311  0.0310  0.5150
  407MOL0     C53649   2.808   8.075  10.665 -0.2034 -1.1945  0.7118
  407MOL0     O53650   2.909   8.028  10.580 -0.8150 -0.0461  0.7501
  407MOL0     C53651   3.022   7.973  10.643 -0.2211  0.0803  0.8145
  407MOL0     C53652   3.136   7.983  10.554  0.0801 -0.0856 -0.0111
  407MOL0     C53653   3.267   7.913  10.605 -0.2656 -0.0887  0.0159
  407MOL0     C53654   3.385   7.922  10.506  0.4199  0.1849 -0.4337
  407MOL0     C53655   3.508   7.949  10.583 -0.3533 -0.5121  0.8436
  407MOL0     C53656   3.615   7.970  10.641  0.1868 -0.1636  1.0084
  407MOL0     C53657   2.833   8.162  10.768  0.1918 -0.2857 -0.7955
  407MOL0     C53658   2.738   8.188  10.866  0.9962  0.4416 -0.0499
  407MOL0     H53659   2.117   8.251  10.938  0.4081  1.2945  0.9900
  407MOL0     H53660   1.962   8.208  11.125 -0.9715 -1.9306  1.8557
  407MOL0     H53661   2.129   8.129  11.445  0.0279 -1.0849 -1.2554
  407MOL0     H53662   2.077   7.955  11.462 -1.9216 -0.0210  1.0209
  407MOL0     H53663   1.920   8.207  11.509  1.3634  1.0847  1.4730
  407MOL0     H53664   1.986   8.107  11.648  2.2285 -0.4643 -1.1536
  407MOL0     H53665   1.760   8.047  11.452 -2.3406 -0.0105  2.3957
  407MOL0     H53666   1.745   8.083  11.616  0.9719  0.6525  1.4737
  407MOL0     H53667   1.876   7.831  11.475 -3.7981  0.0848 -2.9031
  407MOL0     H53668   1.868   7.850  11.652 -1.2395  0.1080  0.2838
  407MOL0     H53669   1.609   7.833  11.488 -0.6386 -3.1192 -0.3401
  407MOL0     H53670   1.633   7.848  11.664  0.7164 -1.4506  0.4262
  407MOL0     H53671   1.756   7.639  11.686  1.8252 -1.0723 -2.4891
  407MOL0     H53672   1.737   7.606  11.517 -0.1613  0.7025 -0.5188
  407MOL0     H53673   1.505   7.636  11.711 -0.1295 -0.8018  1.1111
  407MOL0     H53674   1.483   7.599  11.548  0.0393 -4.7168 -1.7783
  407MOL0     H53675   1.679   7.414  11.700  2.1450  3.8383 -0.2957
  407MOL0     H53676   1.610   7.395  11.543  0.3789  1.8856 -1.3557
  407MOL0     H53677   1.406   7.461  11.890 -2.9559 -0.1934  1.0137
  407MOL0     H53678   1.196   7.373  11.984 -1.2669 -0.7899  0.5036
  407MOL0     H53679   1.213   7.204  11.998  1.3327  0.6251 -0.1845
  407MOL0     H53680   1.069   7.195  11.780  3.0949 -0.3760  0.8468
  407MOL0     H53681   1.032   7.365  11.828 -0.2632  0.7086  1.1589
  407MOL0     H53682   1.004   7.167  12.036  0.6527 -1.4667 -1.2473
  407MOL0     H53683   0.889   7.297  12.006  0.9502  0.0620  0.1352
  407MOL0     H53684   0.788   7.064  11.974 -2.6719 -0.6019 -1.8085
  407MOL0     H53685   0.903   7.032  11.860 -0.3285 -0.7440  2.6122
  407MOL0     H53686   0.643   7.223  12.051 -2.4810  1.8030  2.1537
  407MOL0     H53687   0.440   7.341  12.080  0.8006 -1.3743 -0.2614
  407MOL0     H53688   0.099   7.395  12.230 -0.7122  0.2403 -1.1520
  407MOL0     H53689  -0.106   7.466  12.312  0.9890  0.9743 -0.0936
  407MOL0     H53690  -0.428   7.399  12.076 -1.7677 -0.2068  1.5024
  407MOL0     H53691  -0.460   7.561  12.021  0.8231 -0.2775 -0.6549
  407MOL0     H53692  -0.541   7.617  12.255  0.6842  0.5451  0.3413
  407MOL0     H53693  -0.525   7.448  12.288 -0.6749  1.4139  0.7615
  407MOL0     H53694  -0.672   7.389  12.086  0.6949  0.8499 -4.0206
  407MOL0     H53695  -0.686   7.552  12.046  1.7709  1.1310  1.0592
  407MOL0     H53696  -0.795   7.431  12.296  0.2609 -0.4981 -0.9467
  407MOL0     H53697  -0.766   7.606  12.276  2.4558  0.2993 -2.9518
  407MOL0     H53698  -0.936   7.438  12.101 -2.1169  1.1649 -1.3107
  407MOL0     H53699  -0.900   7.608  12.065  0.5237  0.7954 -0.1932
  407MOL0     H53700  -1.012   7.655  12.284 -1.6675 -1.9154  2.4260
  407MOL0     H53701  -1.029   7.480  12.317  0.0348 -1.1898  0.4011
  407MOL0     H53702  -1.148   7.633  12.077 -1.2955  1.0578  1.5913
  407MOL0     H53703  -1.184   7.470  12.108  0.5142 -0.9542  0.3483
  407MOL0     H53704  -1.277   7.720  12.261  0.6716  0.6727 -1.7468
  407MOL0     H53705  -1.274   7.580  12.352 -1.1170  1.6177 -0.0293
  407MOL0     H53706  -0.228   7.594  11.914  1.8257  0.8209 -1.0988
  407MOL0     H53707  -0.004   7.516  11.836  1.4443  2.2051  0.2968
  407MOL0     H53708   0.436   7.461  11.667  0.4988 -0.0882 -0.5732
  407MOL0     H53709   0.663   7.347  11.641 -2.1628 -3.2960 -1.2318
  407MOL0     H53710   2.218   7.929  11.298 -0.9224  0.0307 -0.3407
  407MOL0     H53711   2.394   7.990  11.126 -0.7928  0.1517 -1.6986
  407MOL0     H53712   2.473   8.024  10.716 -0.2602 -0.9107  0.7444
  407MOL0     H53713   2.642   7.972  10.557 -4.0353  0.6678  1.3914
  407MOL0     H53714   2.993   7.868  10.649  1.4832 -0.5210 -0.6218
  407MOL0     H53715   3.050   8.000  10.745 -0.1868  0.1606  0.7847
  407MOL0     H53716   3.105   7.948  10.456  0.7496 -2.2636  0.5106
  407MOL0     H53717   3.162   8.087  10.531  1.7937 -0.8978 -2.0361
  407MOL0     H53718   3.242   7.807  10.612 -0.8764  0.1205  1.2495
  407MOL0     H53719   3.291   7.941  10.708 -0.7862 -3.4605  1.1747
  407MOL0     H53720   3.392   7.822  10.460 -2.4930  0.0404 -0.7959
  407MOL0     H53721   3.353   7.991  10.427 -4.3795 -2.1305 -0.9022
  407MOL0     H53722   3.695   7.991  10.709 -0.4570  1.3623  1.3364
  407MOL0     H53723   2.932   8.205  10.778  0.6893 -1.7520  1.2076
  407MOL0     H53724   2.749   8.250  10.955  0.2849 -0.3260  0.5827
  408MOL0     O53725   8.489  10.290   7.949 -0.3066 -0.2328 -0.1749
  408MOL0     C53726   8.451  10.286   8.063 -0.0820  0.0455  0.6552
  408MOL0     O53727   8.330  10.306   8.103  0.4090 -0.5807  0.2052
  408MOL0     C53728   8.218  10.333   8.018 -1.3285 -0.3267 -0.3235
  408MOL0     C53729   8.124  10.406   8.082  0.6541  0.4164  0.0318
  408MOL0     C53730   8.001  10.437   8.020 -0.3070 -0.3683 -0.4896
  408MOL0     C53731   7.967  10.405   7.889  0.3570  0.3132  0.5777
  408MOL0     O53732   7.848  10.451   7.820  0.1938  0.3510 -0.5118
  408MOL0     C53733   7.734  10.484   7.904 -0.3546  0.7717  0.1079
  408MOL0     C53734   7.609  10.451   7.822  0.3438 -0.4544 -0.6562
  408MOL0     C53735   7.483  10.452   7.909 -0.2384  0.4510  1.1957
  408MOL0     C53736   7.349  10.439   7.829  0.9755 -0.3400  0.5694
  408MOL0     C53737   7.235  10.439   7.934 -0.2010 -0.1189 -0.2633
  408MOL0     C53738   7.110  10.453   7.850  0.0390 -0.5951  0.3903
  408MOL0     C53739   6.995  10.476   7.947  0.0324 -0.6747  0.8353
  408MOL0     C53740   6.869  10.499   7.863 -1.0799  0.4530 -0.1187
  408MOL0     N53741   6.754  10.491   7.946  0.6929 -0.6285  0.4412
  408MOL0     C53742   6.731  10.559   8.064  0.4229  0.1219  1.0946
  408MOL0     C53743   6.603  10.529   8.100 -1.3048  0.3426  0.3452
  408MOL0     C53744   6.540  10.563   8.229 -0.1981 -0.5345 -0.3443
  408MOL0     C53745   6.396  10.510   8.227  0.3181  0.1185  0.6824
  408MOL0     C53746   6.326  10.516   8.359  0.1246  0.0337  0.1655
  408MOL0     C53747   6.180  10.478   8.360 -0.4043  0.2042  0.0994
  408MOL0     O53748   6.110  10.536   8.246 -0.0771  0.4911  0.5235
  408MOL0     C53749   5.973  10.537   8.254  1.5906 -0.3833 -0.0425
  408MOL0     C53750   5.899  10.655   8.252  0.1700  0.0824  0.3547
  408MOL0     C53751   5.763  10.660   8.257  0.2675  0.1818  0.4377
  408MOL0     C53752   5.686  10.536   8.253 -0.0906 -0.6719  0.0305
  408MOL0     C53753   5.545  10.535   8.239  0.1975 -0.0018 -0.7003
  408MOL0     O53754   5.484  10.420   8.291 -0.3205  0.4557  0.0810
  408MOL0     C53755   5.345  10.417   8.285 -0.2584  1.0505 -0.1216
  408MOL0     C53756   5.280  10.320   8.217 -0.6618  0.3340 -0.5251
  408MOL0     C53757   5.140  10.301   8.221  0.0293 -0.5012 -0.4177
  408MOL0     C53758   5.062  10.386   8.293 -0.5584 -0.2294 -0.4431
  408MOL0     O53759   4.924  10.380   8.284 -0.1090 -0.4548 -0.2650
  408MOL0     C53760   4.850  10.294   8.197 -0.6164 -0.1452 -0.0852
  408MOL0     C53761   4.699  10.316   8.230  0.0831 -0.4451  0.0832
  408MOL0     C53762   4.620  10.191   8.190 -0.3960  0.9617 -1.4419
  408MOL0     C53763   4.466  10.195   8.236 -0.0779 -0.8949  0.4192
  408MOL0     C53764   4.382  10.096   8.159 -0.1619 -0.3956  0.5967
  408MOL0     C53765   4.242  10.084   8.217  1.4165 -0.1494 -0.6964
  408MOL0     C53766   4.186   9.939   8.196 -0.3907 -0.3410 -0.4229
  408MOL0     C53767   4.072   9.954   8.095 -0.6102  0.0201 -0.2523
  408MOL0    Cl53768   3.952   9.822   8.084  0.3119  0.5229  0.0657
  408MOL0     C53769   5.126  10.481   8.365  0.5460 -0.9575  0.2239
  408MOL0     C53770   5.262  10.495   8.358 -0.0656  0.2307 -0.9667
  408MOL0     O53771   5.481  10.629   8.200  0.4760 -0.5445 -0.3831
  408MOL0     C53772   5.761  10.415   8.261 -0.0398 -0.4117  0.3251
  408MOL0     C53773   5.896  10.420   8.267 -0.3629 -0.1102 -0.8587
  408MOL0     N53774   6.556  10.439   8.006  0.9415 -0.3775  0.0080
  408MOL0     N53775   6.643  10.426   7.915 -0.0210  0.3308  0.7490
  408MOL0     C53776   8.070  10.330   7.827  0.3459  0.1696 -0.6616
  408MOL0     C53777   8.191  10.298   7.886 -0.3468  0.0226 -0.3150
  408MOL0     C53778   8.559  10.273   8.160  0.1049  0.4679  0.7740
  408MOL0     C53779   8.536  10.303   8.295 -0.4311 -0.9594  0.4623
  408MOL0     C53780   8.644  10.280   8.386  0.7515  0.2440 -0.4224
  408MOL0     C53781   8.766  10.222   8.353  0.0695 -0.1967 -0.2634
  408MOL0     O53782   8.855  10.200   8.451  0.5215 -0.9097  0.7360
  408MOL0     C53783   8.983  10.156   8.411 -0.2599  0.6098 -0.8157
  408MOL0     C53784   9.088  10.195   8.515  0.1281 -0.5555  0.7726
  408MOL0     C53785   9.219  10.124   8.488  0.5838  0.7427  0.2395
  408MOL0     C53786   9.334  10.182   8.577  0.5389  0.0602  1.0509
  408MOL0     C53787   9.450  10.100   8.536  0.2745 -0.2747  0.3899
  408MOL0     C53788   9.541  10.030   8.495 -0.2133 -0.8840 -0.0507
  408MOL0     C53789   8.787  10.199   8.220 -0.3743  0.0415 -0.7482
  408MOL0     C53790   8.689  10.218   8.130  0.0289 -1.3743  0.4100
  408MOL0     H53791   8.145  10.419   8.188  0.2163 -1.7883  0.4448
  408MOL0     H53792   7.928  10.502   8.068  1.8663  1.6679  0.2412
  408MOL0     H53793   7.730  10.589   7.936 -0.2004  0.7352  0.2511
  408MOL0     H53794   7.729  10.408   7.982  2.7554 -2.6012 -2.6450
  408MOL0     H53795   7.622  10.350   7.782 -2.2810 -2.2311  2.4899
  408MOL0     H53796   7.591  10.525   7.743 -1.9400 -0.6089 -0.3498
  408MOL0     H53797   7.475  10.549   7.958  0.6917  0.2277  1.8172
  408MOL0     H53798   7.486  10.365   7.976 -1.4096 -0.9310 -0.4420
  408MOL0     H53799   7.354  10.530   7.767  1.6727  1.0953  2.6404
  408MOL0     H53800   7.349  10.347   7.770  0.4868  0.2700 -0.4123
  408MOL0     H53801   7.243  10.520   8.007 -3.1864 -0.7508  0.8752
  408MOL0     H53802   7.244  10.345   7.989  0.6261  0.6321  0.9337
  408MOL0     H53803   7.085  10.367   7.788  1.4360 -0.3218 -0.6276
  408MOL0     H53804   7.116  10.542   7.786 -0.7729 -0.6302  0.2494
  408MOL0     H53805   6.996  10.382   8.004 -0.0582 -1.1513  0.0641
  408MOL0     H53806   7.021  10.554   8.019  3.5331  0.2723 -1.2133
  408MOL0     H53807   6.869  10.431   7.777  0.6929 -3.0505  2.3843
  408MOL0     H53808   6.886  10.597   7.819  1.3507 -0.6785 -1.9095
  408MOL0     H53809   6.804  10.622   8.114  1.5105 -1.1863  1.2133
  408MOL0     H53810   6.536  10.671   8.243 -0.6672 -0.6435  0.4409
  408MOL0     H53811   6.599  10.507   8.302  0.5620 -1.8223 -1.8801
  408MOL0     H53812   6.401  10.406   8.196  2.9429  0.8481 -1.7596
  408MOL0     H53813   6.349  10.572   8.151  1.7790 -0.2700 -0.5886
  408MOL0     H53814   6.387  10.459   8.430  0.3909  0.1749  0.0524
  408MOL0     H53815   6.327  10.621   8.389  0.9892  0.0247  0.2071
  408MOL0     H53816   6.136  10.494   8.459 -0.0814  0.8513  0.1403
  408MOL0     H53817   6.166  10.370   8.352 -0.8073  0.2898 -0.4012
  408MOL0     H53818   5.949  10.751   8.255 -2.6539  1.7387 -1.7315
  408MOL0     H53819   5.705  10.751   8.267  0.8400  0.5552  0.3860
  408MOL0     H53820   5.334  10.245   8.161 -1.2981 -0.8441  0.4146
  408MOL0     H53821   5.090  10.237   8.149 -1.4660  2.0672 -1.7917
  408MOL0     H53822   4.861  10.188   8.224 -3.4391 -0.2694  0.8506
  408MOL0     H53823   4.872  10.312   8.091  0.8727 -2.4159 -0.2513
  408MOL0     H53824   4.665  10.402   8.170  1.5751 -0.0728 -0.2806
  408MOL0     H53825   4.693  10.343   8.336 -1.5253 -0.7193  0.0837
  408MOL0     H53826   4.666  10.106   8.239 -1.5837  1.3860  0.4983
  408MOL0     H53827   4.633  10.191   8.081 -2.0384 -0.0526 -1.6705
  408MOL0     H53828   4.471  10.185   8.344  2.6598 -0.7706  0.3556
  408MOL0     H53829   4.424  10.295   8.221  1.4120 -0.5843 -2.5708
  408MOL0     H53830   4.436  10.002   8.145  1.9503  0.7877  0.3940
  408MOL0     H53831   4.370  10.136   8.058  0.1783 -2.1298 -0.1719
  408MOL0     H53832   4.178  10.155   8.164 -2.8159 -1.6129  1.9487
  408MOL0     H53833   4.229  10.113   8.321 -2.1459  2.3996 -1.6698
  408MOL0     H53834   4.268   9.877   8.160  1.3139  1.2517  0.5137
  408MOL0     H53835   4.153   9.897   8.291 -0.0594  1.6461  0.6427
  408MOL0     H53836   4.116   9.976   7.997 -2.1302  0.0464 -0.9696
  408MOL0     H53837   4.010  10.039   8.125  1.6617  1.6438  0.0360
  408MOL0     H53838   5.079  10.563   8.419 -0.1194 -1.6887  0.7638
  408MOL0     H53839   5.311  10.579   8.407 -0.8590  2.2341 -3.3894
  408MOL0     H53840   5.722  10.314   8.256  1.2053 -0.9162  0.2195
  408MOL0     H53841   5.952  10.330   8.292 -1.9151 -0.8803 -0.0166
  408MOL0     H53842   8.060  10.303   7.722 -2.4477  0.4436 -0.5449
  408MOL0     H53843   8.275  10.246   7.842  0.7646  0.4156  1.2727
  408MOL0     H53844   8.438  10.339   8.323  0.1964 -1.2066  3.2651
  408MOL0     H53845   8.633  10.290   8.493  0.1850 -2.2136 -0.1821
  408MOL0     H53846   9.014  10.203   8.317 -2.2362 -0.6017 -2.1312
  408MOL0     H53847   8.973  10.048   8.402 -0.6742  0.0154  3.9884
  408MOL0     H53848   9.094  10.305   8.513  0.4054 -0.5530 -1.5646
  408MOL0     H53849   9.044  10.163   8.609 -2.6480  2.1043  0.5488
  408MOL0     H53850   9.231  10.139   8.380  0.6128 -3.2637 -0.4624
  408MOL0     H53851   9.206  10.016   8.502 -2.4226  0.8911 -0.6103
  408MOL0     H53852   9.350  10.288   8.559 -1.4330  0.2759  0.3172
  408MOL0     H53853   9.311  10.164   8.682 -2.3363 -3.6314  0.0193
  408MOL0     H53854   9.626   9.972   8.464  1.1725  1.2249 -0.4233
  408MOL0     H53855   8.874  10.147   8.181  0.3003 -0.2364  1.0341
  408MOL0     H53856   8.706  10.205   8.024  2.7440 -0.7688  0.6859
  409MOL0     O53857   3.019   9.351   8.738  0.1927  0.9521  0.2845
  409MOL0     C53858   3.059   9.469   8.712  0.0314  0.6449 -0.5658
  409MOL0     O53859   2.984   9.579   8.698 -0.3519  0.7572 -0.1870
  409MOL0     C53860   2.848   9.567   8.726 -0.3254 -0.3293 -0.1045
  409MOL0     C53861   2.808   9.550   8.862  0.0988 -0.4129  1.3287
  409MOL0     C53862   2.672   9.551   8.893  0.4788  0.1759  0.1382
  409MOL0     C53863   2.572   9.569   8.788  0.3488 -0.3367  1.6876
  409MOL0     O53864   2.438   9.590   8.816  0.7893 -0.7776  0.1118
  409MOL0     C53865   2.416   9.651   8.953 -0.5994  0.3233 -0.4472
  409MOL0     C53866   2.268   9.689   8.979  0.7168  0.5650  0.0772
  409MOL0     C53867   2.255   9.780   9.110  0.5543  0.4126 -0.1466
  409MOL0     C53868   2.095   9.787   9.153 -0.6434 -0.2261 -0.6533
  409MOL0     C53869   2.063   9.888   9.272  0.0549  0.1867 -0.4797
  409MOL0     C53870   2.133   9.842   9.401  1.0864 -0.0743 -0.0152
  409MOL0     C53871   2.131   9.696   9.453 -0.9895  0.0539  0.2947
  409MOL0     C53872   1.996   9.646   9.482  0.1939 -0.5494  0.0576
  409MOL0     N53873   1.914   9.736   9.578 -0.0008  0.0042 -0.9697
  409MOL0     C53874   1.888   9.718   9.715  0.0420 -0.7067 -1.0505
  409MOL0     C53875   1.775   9.796   9.745  0.6582  0.3275  0.4467
  409MOL0     C53876   1.715   9.811   9.874  0.5987 -0.3856  0.7204
  409MOL0     C53877   1.594   9.717   9.900 -0.0066 -0.0966 -0.1502
  409MOL0     C53878   1.485   9.715   9.793  0.4561  0.4964 -0.0249
  409MOL0     C53879   1.369   9.631   9.841 -0.4461 -0.1476 -0.3502
  409MOL0     O53880   1.323   9.637   9.980 -0.2183  0.9642  0.2963
  409MOL0     C53881   1.198   9.580  10.006  0.4066 -0.5584  0.9539
  409MOL0     C53882   1.135   9.474   9.945  0.2254 -0.6218  0.6890
  409MOL0     C53883   0.999   9.438   9.984 -0.2977  0.5409 -0.0097
  409MOL0     C53884   0.931   9.522  10.080  1.1084  0.0525  0.0301
  409MOL0     C53885   0.788   9.505  10.110  0.4879 -0.5601  0.4672
  409MOL0     O53886   0.718   9.600  10.177  0.2453  0.5237 -0.8966
  409MOL0     C53887   0.595   9.559  10.224  0.6550 -0.4815  0.0451
  409MOL0     C53888   0.479   9.573  10.148 -0.4770  0.0837  0.0294
  409MOL0     C53889   0.351   9.549  10.204 -0.1624 -0.2389  0.2263
  409MOL0     C53890   0.334   9.494  10.327  0.0870 -0.2791  0.4559
  409MOL0     O53891   0.208   9.471  10.375 -0.2366 -0.9167  0.4206
  409MOL0     C53892   0.195   9.359  10.465 -1.2041 -0.2221  0.1309
  409MOL0     C53893   0.174   9.424  10.606 -0.1475  0.3425 -0.2406
  409MOL0     C53894   0.046   9.512  10.604  0.2768 -0.9835 -0.1032
  409MOL0     C53895   0.025   9.584  10.742  0.6438 -0.3408 -0.4327
  409MOL0     C53896  -0.121   9.623  10.748  0.2221  0.7827 -0.0366
  409MOL0     C53897  -0.146   9.721  10.860  0.2965  0.5889 -0.0237
  409MOL0     C53898  -0.285   9.782  10.845  0.5794  0.2890 -0.1389
  409MOL0     C53899  -0.316   9.936  10.847  0.4011 -0.0255  0.3937
  409MOL0    Cl53900  -0.230  10.003  10.986  0.4767 -0.0381 -0.0271
  409MOL0     C53901   0.449   9.477  10.415 -0.3838  0.2044  0.4173
  409MOL0     C53902   0.570   9.506  10.354 -0.4494 -0.2478  0.1894
  409MOL0     O53903   0.746   9.394  10.075  0.2760  0.0519  0.5402
  409MOL0     C53904   0.999   9.628  10.149  0.4447  0.4688  0.1397
  409MOL0     C53905   1.131   9.654  10.110  0.1450  0.3442  0.4475
  409MOL0     N53906   1.744   9.861   9.628 -0.5559  0.5985  0.5481
  409MOL0     N53907   1.815   9.815   9.525  0.4915 -1.2827  0.7477
  409MOL0     C53908   2.613   9.582   8.649  0.3346 -0.3010 -0.1392
  409MOL0     C53909   2.752   9.587   8.628 -0.1399  0.7061  0.6270
  409MOL0     C53910   3.202   9.484   8.684  0.3252 -0.1192 -0.8900
  409MOL0     C53911   3.287   9.368   8.665 -0.5692 -1.3349 -0.3662
  409MOL0     C53912   3.425   9.392   8.653 -0.1454 -0.0427  0.0280
  409MOL0     C53913   3.483   9.514   8.641 -0.6688  0.1530  0.1011
  409MOL0     O53914   3.626   9.522   8.630 -1.1023 -0.5875  0.5421
  409MOL0     C53915   3.692   9.619   8.547  0.3431 -0.2840 -0.2096
  409MOL0     C53916   3.842   9.593   8.557 -0.2143  0.0502 -0.4134
  409MOL0     C53917   3.894   9.640   8.694 -0.5267 -0.2450 -0.2005
  409MOL0     C53918   4.043   9.606   8.723  0.3261 -1.2583  0.3384
  409MOL0     C53919   4.061   9.461   8.736 -0.4380 -0.2866 -0.8237
  409MOL0     C53920   4.072   9.340   8.750  0.6256 -0.7609 -0.2242
  409MOL0     C53921   3.401   9.627   8.650  0.5284 -0.3163 -0.4311
  409MOL0     C53922   3.264   9.612   8.671  0.6698  0.0712  0.0859
  409MOL0     H53923   2.869   9.516   8.945 -0.8115 -1.0388  1.7581
  409MOL0     H53924   2.635   9.538   8.994 -0.1341 -0.1318 -0.1211
  409MOL0     H53925   2.473   9.741   8.979  0.9040 -0.6647 -0.2058
  409MOL0     H53926   2.434   9.574   9.029 -0.0489  1.4767  0.6187
  409MOL0     H53927   2.208   9.598   8.980  4.0568 -1.9030  2.5434
  409MOL0     H53928   2.236   9.752   8.896  2.8166  1.8132  0.1309
  409MOL0     H53929   2.304   9.878   9.112 -0.0981  0.8513  4.3755
  409MOL0     H53930   2.310   9.721   9.184  0.2435 -0.7643 -0.8208
  409MOL0     H53931   2.035   9.827   9.071 -3.0742 -2.5258 -0.1287
  409MOL0     H53932   2.063   9.684   9.175 -2.7914  0.7095  0.9009
  409MOL0     H53933   1.955   9.888   9.290 -0.1594 -0.8198 -1.6333
  409MOL0     H53934   2.093   9.989   9.244  0.4570 -0.1142 -1.1455
  409MOL0     H53935   2.088   9.901   9.481 -0.4427 -3.3328  1.7044
  409MOL0     H53936   2.233   9.878   9.373  0.2991 -0.5765 -4.2363
  409MOL0     H53937   2.183   9.635   9.379  0.1638  1.5087 -0.1542
  409MOL0     H53938   2.189   9.689   9.546 -1.4387  1.9494  0.7737
  409MOL0     H53939   2.004   9.557   9.545  1.8370 -1.2374 -1.0549
  409MOL0     H53940   1.936   9.624   9.394 -3.3942  2.0103  1.6219
  409MOL0     H53941   1.954   9.668   9.785  1.5432  0.4761 -1.5842
  409MOL0     H53942   1.672   9.911   9.883 -1.1469 -1.1462  1.1572
  409MOL0     H53943   1.781   9.795   9.960  0.2443  0.2199  1.1138
  409MOL0     H53944   1.546   9.760   9.988  1.2464 -0.5153  0.7602
  409MOL0     H53945   1.621   9.612   9.912  0.4256 -0.1222 -1.1715
  409MOL0     H53946   1.438   9.813   9.776 -2.8510 -0.6989  1.3753
  409MOL0     H53947   1.520   9.671   9.700 -1.3776 -0.9927 -0.0649
  409MOL0     H53948   1.400   9.528   9.823  1.6917  0.0587  1.6407
  409MOL0     H53949   1.280   9.646   9.779  0.3215  1.8379 -1.0249
  409MOL0     H53950   1.195   9.426   9.868  2.1545  0.9687  1.1463
  409MOL0     H53951   0.956   9.356   9.927 -0.2121  1.6995 -1.8215
  409MOL0     H53952   0.486   9.607  10.045  1.9101  0.3704  0.2312
  409MOL0     H53953   0.264   9.569  10.142  0.1166  0.3987  0.0268
  409MOL0     H53954   0.286   9.297  10.465 -1.3675 -0.4682  0.7501
  409MOL0     H53955   0.111   9.297  10.432  1.3772 -2.0632 -3.8619
  409MOL0     H53956   0.266   9.477  10.632 -0.8680  1.1431  0.7270
  409MOL0     H53957   0.172   9.352  10.689 -0.4358  2.2339  1.4752
  409MOL0     H53958  -0.042   9.448  10.594  2.1415 -3.4611 -1.8121
  409MOL0     H53959   0.044   9.586  10.524  3.0103 -1.5487 -0.7972
  409MOL0     H53960   0.059   9.516  10.821 -0.9911 -1.2441 -0.4630
  409MOL0     H53961   0.097   9.666  10.744 -0.0032  0.2359  0.8729
  409MOL0     H53962  -0.187   9.537  10.767  1.0561  0.4721  1.6589
  409MOL0     H53963  -0.152   9.667  10.653 -0.3297 -0.0555 -0.2576
  409MOL0     H53964  -0.061   9.789  10.866  1.6623 -0.9407 -1.2238
  409MOL0     H53965  -0.128   9.676  10.958  0.9883 -0.8874 -0.8092
  409MOL0     H53966  -0.328   9.741  10.754 -0.4116 -0.4792  0.6463
  409MOL0     H53967  -0.341   9.746  10.932 -2.3363  3.1455 -0.6435
  409MOL0     H53968  -0.424   9.956  10.852  0.0453 -1.8071  0.5076
  409MOL0     H53969  -0.285   9.998  10.763 -1.5320  0.0304 -0.3292
  409MOL0     H53970   0.447   9.452  10.520 -1.9226 -1.4577  0.0392
  409MOL0     H53971   0.659   9.504  10.415 -0.1840 -0.1621 -0.1945
  409MOL0     H53972   0.951   9.692  10.221 -0.7486 -0.2741  0.0288
  409MOL0     H53973   1.190   9.729  10.160  1.3180 -0.8778  0.9650
  409MOL0     H53974   2.545   9.607   8.568 -0.1165 -0.3098  0.2337
  409MOL0     H53975   2.791   9.619   8.532  1.3573 -1.4540  0.4485
  409MOL0     H53976   3.246   9.269   8.646 -0.5066 -1.0301 -2.1890
  409MOL0     H53977   3.486   9.302   8.655 -0.8636 -0.5629 -0.6502
  409MOL0     H53978   3.666   9.719   8.582 -2.7687 -1.3152  0.6721
  409MOL0     H53979   3.659   9.594   8.445 -1.0701  0.3279  0.0768
  409MOL0     H53980   3.862   9.487   8.535 -0.3510  0.3581 -2.2497
  409MOL0     H53981   3.893   9.652   8.480  3.8078 -0.5968  1.5267
  409MOL0     H53982   3.824   9.607   8.771 -2.4203 -0.6112 -1.9856
  409MOL0     H53983   3.892   9.749   8.696 -0.0979 -0.2222  2.6043
  409MOL0     H53984   4.105   9.638   8.639 -3.1464  2.4119 -1.1688
  409MOL0     H53985   4.073   9.660   8.814 -0.3789 -1.6381  0.8058
  409MOL0     H53986   4.082   9.233   8.756 -0.4526 -1.0750 -2.6657
  409MOL0     H53987   3.440   9.728   8.647 -0.3674  0.0632  0.3659
  409MOL0     H53988   3.209   9.702   8.696  0.3244 -0.3314  0.8290
  410MOL0     O53989   0.432   8.460   4.227  0.2079 -1.2469 -0.3901
  410MOL0     C53990   0.430   8.585   4.235 -0.5169  0.4679  0.5218
  410MOL0     O53991   0.541   8.665   4.223 -0.4156 -0.1443  0.2298
  410MOL0     C53992   0.669   8.621   4.232 -0.5259  0.3749  0.7345
  410MOL0     C53993   0.726   8.502   4.287 -0.8226 -0.0056  0.4170
  410MOL0     C53994   0.868   8.483   4.297  0.5685 -1.0316 -0.0711
  410MOL0     C53995   0.954   8.589   4.261  0.2142  0.4413  0.5980
  410MOL0     O53996   1.093   8.574   4.272 -1.0831 -0.2743 -0.3231
  410MOL0     C53997   1.145   8.439   4.248 -0.1463 -0.0776  0.1458
  410MOL0     C53998   1.280   8.447   4.167 -0.3414  0.2831  0.7615
  410MOL0     C53999   1.384   8.527   4.237 -0.1451 -0.3335  0.3960
  410MOL0     C54000   1.530   8.503   4.174  0.8604  0.5229  0.3183
  410MOL0     C54001   1.641   8.557   4.266  0.9766 -0.0512  0.8117
  410MOL0     C54002   1.786   8.518   4.221 -0.0176 -0.2560 -0.3834
  410MOL0     C54003   1.880   8.579   4.320 -0.1164 -0.3444 -0.1443
  410MOL0     C54004   2.023   8.558   4.279  0.6245  0.4358  0.1237
  410MOL0     N54005   2.067   8.657   4.182  0.3877 -0.8054  0.0898
  410MOL0     C54006   2.046   8.658   4.049 -0.5474  0.9234 -0.5327
  410MOL0     C54007   2.090   8.773   4.004 -0.0287  0.8567 -0.3194
  410MOL0     C54008   2.105   8.829   3.863  1.0179  0.2432  0.5186
  410MOL0     C54009   1.965   8.853   3.810  0.2440 -0.0348 -0.5113
  410MOL0     C54010   1.966   8.877   3.656 -0.0539 -0.0925  0.5169
  410MOL0     C54011   1.830   8.919   3.599  0.0261 -0.0024 -0.2824
  410MOL0     O54012   1.729   8.819   3.597 -0.1917 -0.1352 -0.2932
  410MOL0     C54013   1.612   8.853   3.528  0.0895 -0.4557 -0.1899
  410MOL0     C54014   1.574   8.973   3.467  0.0789  0.9375  0.0492
  410MOL0     C54015   1.445   9.001   3.420 -0.3803  0.8424  0.1125
  410MOL0     C54016   1.347   8.909   3.427  0.4643  0.5630 -0.2909
  410MOL0     C54017   1.212   8.948   3.389  0.1253  0.5833  0.7688
  410MOL0     O54018   1.122   8.869   3.448  0.5933 -0.5502  1.0898
  410MOL0     C54019   0.991   8.892   3.460  0.1738 -1.6080  0.0423
  410MOL0     C54020   0.911   8.799   3.523 -1.0705  0.8306 -0.2898
  410MOL0     C54021   0.780   8.805   3.539  0.3418 -0.0819 -0.5061
  410MOL0     C54022   0.715   8.918   3.497  0.9844 -0.7083 -0.8235
  410MOL0     O54023   0.583   8.912   3.510  0.6579 -1.0803 -0.0357
  410MOL0     C54024   0.498   8.964   3.408 -0.1703  0.2507  0.4359
  410MOL0     C54025   0.361   8.885   3.416  0.2594 -0.0864 -0.5197
  410MOL0     C54026   0.261   8.919   3.311  0.7934 -0.0096 -0.1376
  410MOL0     C54027   0.151   8.820   3.323  0.3309 -0.0013 -0.4705
  410MOL0     C54028   0.022   8.875   3.252 -0.1607  0.1230 -0.2955
  410MOL0     C54029  -0.091   8.773   3.247 -0.1901 -0.1801 -0.0937
  410MOL0     C54030  -0.153   8.734   3.383 -1.2577  0.2264  0.6300
  410MOL0     C54031  -0.270   8.633   3.376 -0.2584  0.3603 -0.2659
  410MOL0    Cl54032  -0.422   8.703   3.301 -0.2789 -0.1803  0.3658
  410MOL0     C54033   0.787   9.025   3.444 -0.8976 -0.3452  0.4144
  410MOL0     C54034   0.925   9.009   3.418  0.3406 -0.0130 -0.4625
  410MOL0     O54035   1.195   9.050   3.322 -0.4587 -0.0860  0.2542
  410MOL0     C54036   1.382   8.782   3.481 -0.7067  0.3775  0.4306
  410MOL0     C54037   1.513   8.760   3.533  0.4136 -0.2610  0.4852
  410MOL0     N54038   2.140   8.845   4.112  0.4320 -0.1742 -0.1452
  410MOL0     N54039   2.123   8.771   4.220  0.0162 -0.5535 -0.9936
  410MOL0     C54040   0.901   8.703   4.212  0.3724 -0.0723 -0.3928
  410MOL0     C54041   0.764   8.717   4.206  1.0647  0.2310 -0.2193
  410MOL0     C54042   0.298   8.651   4.267 -0.7820  0.3836 -0.7219
  410MOL0     C54043   0.175   8.590   4.233 -0.0333 -0.7101  0.3556
  410MOL0     C54044   0.051   8.642   4.257 -0.0291 -0.8739  0.1007
  410MOL0     C54045   0.044   8.771   4.317 -1.2094 -1.2713 -0.2245
  410MOL0     O54046  -0.067   8.853   4.328 -0.1106 -0.1248  0.1774
  410MOL0     C54047  -0.198   8.805   4.285 -0.6819  0.4411  0.4591
  410MOL0     C54048  -0.305   8.906   4.301 -0.0471  0.0832 -0.5735
  410MOL0     C54049  -0.411   8.855   4.411 -0.4484  0.5643  0.8329
  410MOL0     C54050  -0.366   8.884   4.553 -0.5849  0.1978 -0.1927
  410MOL0     C54051  -0.472   8.848   4.658 -0.4030  0.3092  0.5273
  410MOL0     C54052  -0.546   8.809   4.743 -0.0717 -0.0189 -0.0016
  410MOL0     C54053   0.164   8.841   4.355 -0.5861  0.7195  0.0796
  410MOL0     C54054   0.292   8.779   4.332  0.0964  0.2153  0.0961
  410MOL0     H54055   0.654   8.426   4.316 -2.1216  0.0382 -2.3926
  410MOL0     H54056   0.912   8.402   4.355  2.0891 -1.5380 -1.8223
  410MOL0     H54057   1.065   8.378   4.206 -0.5704 -0.0053  0.8268
  410MOL0     H54058   1.172   8.395   4.345 -3.6107  0.0924  1.3164
  410MOL0     H54059   1.269   8.480   4.063 -1.7690  0.2626  0.8817
  410MOL0     H54060   1.325   8.348   4.156  2.0004  1.3358  0.2527
  410MOL0     H54061   1.383   8.496   4.342  4.5974 -0.3233  0.6639
  410MOL0     H54062   1.369   8.635   4.229  2.6997  0.0314 -1.7966
  410MOL0     H54063   1.538   8.394   4.163 -0.1356  0.3797  0.9460
  410MOL0     H54064   1.543   8.537   4.070 -2.9008  2.8015  0.4190
  410MOL0     H54065   1.626   8.532   4.372  2.1067 -1.0883  0.7391
  410MOL0     H54066   1.627   8.666   4.265 -2.9288 -0.3981 -0.7990
  410MOL0     H54067   1.806   8.557   4.121  0.9977 -1.2863 -0.6090
  410MOL0     H54068   1.802   8.409   4.221  3.8577  0.1598 -0.3136
  410MOL0     H54069   1.859   8.686   4.318  1.6708  0.1687  2.7732
  410MOL0     H54070   1.864   8.541   4.421  1.2435 -0.2970  0.1105
  410MOL0     H54071   2.046   8.457   4.244  2.0004  0.7103  0.1778
  410MOL0     H54072   2.083   8.574   4.370 -0.5059 -0.2122  1.0118
  410MOL0     H54073   1.996   8.584   3.987 -1.6318  2.0044 -0.9708
  410MOL0     H54074   2.152   8.753   3.800  0.1974  0.4505 -0.3684
  410MOL0     H54075   2.163   8.921   3.878 -0.2201  0.6546  3.4767
  410MOL0     H54076   1.928   8.930   3.879  1.7632 -0.4961  0.8567
  410MOL0     H54077   1.891   8.774   3.827 -2.8003  2.8164  0.7274
  410MOL0     H54078   2.033   8.959   3.629 -0.9171  0.4240 -0.1026
  410MOL0     H54079   1.993   8.784   3.604  1.2152  0.4391  0.1815
  410MOL0     H54080   1.847   8.952   3.496  4.0136  0.6348  0.3955
  410MOL0     H54081   1.798   9.000   3.666  0.3955 -2.2537  2.8227
  410MOL0     H54082   1.642   9.055   3.449 -0.8353  1.3206 -1.9313
  410MOL0     H54083   1.436   9.098   3.373 -2.3526  0.8631  0.4706
  410MOL0     H54084   0.961   8.707   3.551 -3.7035 -1.2217 -1.8602
  410MOL0     H54085   0.726   8.725   3.591  0.0447 -0.1357 -0.8912
  410MOL0     H54086   0.532   8.935   3.308 -0.8042 -1.4738  0.6883
  410MOL0     H54087   0.488   9.073   3.409 -0.4477  0.2576 -0.9157
  410MOL0     H54088   0.319   8.895   3.517 -1.5917 -1.4785 -1.0901
  410MOL0     H54089   0.380   8.777   3.418  3.4295  0.3957 -0.2358
  410MOL0     H54090   0.280   8.921   3.204 -1.7492  4.7793 -0.7875
  410MOL0     H54091   0.227   9.018   3.344 -1.6862 -1.1335  0.9043
  410MOL0     H54092   0.174   8.725   3.274  0.8514 -0.8625  1.3654
  410MOL0     H54093   0.137   8.805   3.430 -0.0154  1.0481 -0.3519
  410MOL0     H54094   0.053   8.903   3.151  0.9603 -0.3330 -0.0926
  410MOL0     H54095  -0.006   8.967   3.302 -2.6225  0.0199 -1.3688
  410MOL0     H54096  -0.051   8.677   3.212 -1.1207 -1.7185  2.7574
  410MOL0     H54097  -0.168   8.811   3.178  0.6418  2.7518  0.4346
  410MOL0     H54098  -0.077   8.711   3.459  2.3770  1.7399 -2.2443
  410MOL0     H54099  -0.203   8.822   3.425  1.0442  2.3837 -0.8135
  410MOL0     H54100  -0.306   8.613   3.478 -1.5815  1.3619 -0.5035
  410MOL0     H54101  -0.248   8.537   3.328  1.1866  0.2003  0.6511
  410MOL0     H54102   0.732   9.116   3.421 -0.3305  0.1046  0.8073
  410MOL0     H54103   0.974   9.093   3.370 -1.5084  0.4281 -1.6784
  410MOL0     H54104   1.306   8.707   3.501  0.1124 -1.1053 -1.6052
  410MOL0     H54105   1.527   8.669   3.590 -1.3804 -0.1633  1.1541
  410MOL0     H54106   0.971   8.785   4.206  2.1678 -1.2793  1.9778
  410MOL0     H54107   0.730   8.817   4.181 -1.9416 -0.3313  1.1556
  410MOL0     H54108   0.169   8.487   4.197 -2.7271 -1.2624  2.0822
  410MOL0     H54109  -0.042   8.597   4.223 -0.0044 -0.3443 -0.6865
  410MOL0     H54110  -0.209   8.717   4.349  1.0883  0.9042  1.4715
  410MOL0     H54111  -0.197   8.768   4.182  0.9173  1.2652  0.1337
  410MOL0     H54112  -0.270   9.004   4.335 -1.0642 -0.8602  3.8748
  410MOL0     H54113  -0.358   8.914   4.206 -0.9093  1.1092 -0.0316
  410MOL0     H54114  -0.447   8.754   4.393 -0.2026  0.4906  0.7546
  410MOL0     H54115  -0.493   8.926   4.398 -0.8371 -0.1632 -0.9311
  410MOL0     H54116  -0.278   8.822   4.574 -0.1908  0.1852 -1.8051
  410MOL0     H54117  -0.340   8.990   4.562  2.5429 -0.3558 -1.5123
  410MOL0     H54118  -0.614   8.769   4.814 -1.1276  2.5654  0.5393
  410MOL0     H54119   0.160   8.936   4.408 -2.1628  0.9096 -0.3338
  410MOL0     H54120   0.374   8.847   4.354  0.5652  0.1758 -1.4098
  411MOL0     O54121   2.655   3.886   7.292  0.0753 -0.4619  0.3124
  411MOL0     C54122   2.720   3.786   7.267 -0.2108  0.0439  0.0604
  411MOL0     O54123   2.681   3.657   7.265 -0.6230  0.2644  0.1672
  411MOL0     C54124   2.560   3.642   7.336  0.2393 -0.5410  0.2536
  411MOL0     C54125   2.555   3.653   7.472  0.1909  0.9300  0.1892
  411MOL0     C54126   2.446   3.622   7.548  1.3550  1.0074 -0.6947
  411MOL0     C54127   2.327   3.592   7.487  0.3294 -0.2355  0.2137
  411MOL0     O54128   2.211   3.570   7.565  0.8716 -1.0295  0.8757
  411MOL0     C54129   2.093   3.535   7.495  0.3263 -0.5773 -0.1237
  411MOL0     C54130   1.995   3.486   7.599  0.4569  0.0258  0.6157
  411MOL0     C54131   1.866   3.451   7.521  0.6632  0.4980  0.7002
  411MOL0     C54132   1.786   3.356   7.619 -0.2284 -0.4142 -0.0247
  411MOL0     C54133   1.641   3.321   7.584  0.1806 -1.1291  0.8223
  411MOL0     C54134   1.608   3.288   7.438 -0.1258 -0.1638  0.5021
  411MOL0     C54135   1.472   3.226   7.409 -0.0316 -0.0047 -0.0344
  411MOL0     C54136   1.368   3.339   7.406  0.0451 -0.0659  0.6768
  411MOL0     N54137   1.234   3.283   7.382  0.2533  0.1904  0.0195
  411MOL0     C54138   1.187   3.201   7.282 -0.2679  0.1523  0.4891
  411MOL0     C54139   1.057   3.177   7.301 -0.0450 -0.3539 -0.3911
  411MOL0     C54140   0.983   3.072   7.217 -0.4423 -0.5194  0.0821
  411MOL0     C54141   0.880   3.126   7.125 -0.0048 -0.3796 -0.4993
  411MOL0     C54142   0.821   3.015   7.035  0.6254  0.0299  0.8171
  411MOL0     C54143   0.688   3.073   6.961 -0.4625 -0.1277  0.2224
  411MOL0     O54144   0.591   3.121   7.056 -0.4538  0.0698  0.0427
  411MOL0     C54145   0.465   3.065   7.057 -0.3093  1.0108  0.5080
  411MOL0     C54146   0.447   2.926   7.049 -0.2928  0.7453 -0.0927
  411MOL0     C54147   0.318   2.868   7.060  0.3067  0.4107  0.1835
  411MOL0     C54148   0.211   2.951   7.093  0.3837 -0.4029  0.0174
  411MOL0     C54149   0.078   2.898   7.118  0.2415  0.7132  0.0117
  411MOL0     O54150  -0.026   2.975   7.170  0.2531 -0.0379  0.2838
  411MOL0     C54151  -0.156   2.931   7.187  0.4116  0.7143  0.6877
  411MOL0     C54152  -0.223   2.839   7.099 -0.1684 -0.8060 -0.1277
  411MOL0     C54153  -0.360   2.810   7.123  0.8273 -0.8937 -0.9933
  411MOL0     C54154  -0.431   2.861   7.229  0.0918 -0.7004 -1.1730
  411MOL0     O54155  -0.566   2.841   7.229  0.8889 -0.3010 -0.4668
  411MOL0     C54156  -0.623   2.853   7.366 -0.6064  0.3842 -0.4547
  411MOL0     C54157  -0.747   2.782   7.376  0.0012 -0.5719 -0.1321
  411MOL0     C54158  -0.862   2.841   7.297  0.7414 -0.3634 -0.1500
  411MOL0     C54159  -0.979   2.748   7.304  1.2480  0.0731 -0.3890
  411MOL0     C54160  -1.088   2.786   7.201  0.2679  0.2755 -0.3116
  411MOL0     C54161  -1.140   2.927   7.227  0.5951  0.1151  0.5739
  411MOL0     C54162  -1.268   2.957   7.151  0.9508  0.1002 -0.7139
  411MOL0     C54163  -1.311   3.096   7.189  0.6651 -0.2587  0.6270
  411MOL0    Cl54164  -1.485   3.122   7.157  0.5689 -0.3545 -0.0955
  411MOL0     C54165  -0.354   2.952   7.311  0.6754  0.2625 -0.0024
  411MOL0     C54166  -0.226   2.984   7.289  1.0389 -0.3489  0.4007
  411MOL0     O54167   0.068   2.774   7.111 -0.1626  0.4685  0.7769
  411MOL0     C54168   0.231   3.089   7.105  0.2562  0.5354 -0.3884
  411MOL0     C54169   0.354   3.141   7.070 -0.1717 -0.1444 -0.1768
  411MOL0     N54170   1.018   3.270   7.395  0.0169  0.1034  0.3775
  411MOL0     N54171   1.120   3.326   7.447 -1.2092  0.3724 -0.3156
  411MOL0     C54172   2.321   3.601   7.348  0.6207  0.2415  0.4940
  411MOL0     C54173   2.440   3.610   7.270  0.0491  0.1175 -0.3596
  411MOL0     C54174   2.869   3.813   7.260  0.1380  0.4089  0.2296
  411MOL0     C54175   2.970   3.718   7.284  0.4047 -0.2488 -0.2026
  411MOL0     C54176   3.107   3.749   7.259  0.4018  0.1639  0.0796
  411MOL0     C54177   3.140   3.882   7.215  0.5353  0.4327 -0.0218
  411MOL0     O54178   3.277   3.897   7.215 -0.1535 -0.2481  0.6481
  411MOL0     C54179   3.341   4.018   7.192 -0.2169 -0.3040 -0.1476
  411MOL0     C54180   3.490   3.993   7.216 -0.6821 -0.2720 -0.8300
  411MOL0     C54181   3.522   3.910   7.347 -0.7133  1.1304  0.1609
  411MOL0     C54182   3.645   3.811   7.349  0.4058  0.4651  0.4533
  411MOL0     C54183   3.742   3.857   7.252  0.4399 -0.5776 -0.4246
  411MOL0     C54184   3.811   3.886   7.162 -0.7768  0.0918 -0.2030
  411MOL0     C54185   3.045   3.975   7.194  0.2590 -0.6240 -0.5349
  411MOL0     C54186   2.910   3.939   7.218 -0.3947  0.8060 -1.0021
  411MOL0     H54187   2.646   3.674   7.527 -0.5032  1.3801  1.2114
  411MOL0     H54188   2.454   3.623   7.656 -0.9404 -1.7795 -0.3545
  411MOL0     H54189   2.109   3.459   7.418  0.8194 -1.0576  0.4420
  411MOL0     H54190   2.052   3.624   7.447 -0.9469 -0.8169  0.4740
  411MOL0     H54191   1.966   3.569   7.665 -3.1203 -0.4965 -0.0672
  411MOL0     H54192   2.034   3.403   7.658  1.6529 -1.3213 -1.9297
  411MOL0     H54193   1.898   3.394   7.433  0.8203  0.2541  0.9131
  411MOL0     H54194   1.815   3.542   7.488 -0.0325  0.5457  1.8871
  411MOL0     H54195   1.835   3.258   7.626  0.9908 -0.2363 -3.8912
  411MOL0     H54196   1.788   3.404   7.717  3.6194  0.6189 -0.4538
  411MOL0     H54197   1.583   3.413   7.592  2.6893  0.6369 -0.2017
  411MOL0     H54198   1.604   3.241   7.649 -2.1093  0.4016  1.5122
  411MOL0     H54199   1.685   3.215   7.409 -0.4633  0.1098 -1.1828
  411MOL0     H54200   1.625   3.373   7.372  0.0094  0.5620  1.4534
  411MOL0     H54201   1.468   3.172   7.314 -0.9547 -0.5299  0.2905
  411MOL0     H54202   1.433   3.153   7.480 -2.0341  0.9219 -0.1209
  411MOL0     H54203   1.372   3.390   7.309 -2.9428 -2.0834 -0.6792
  411MOL0     H54204   1.373   3.409   7.490  1.6838  2.6784 -1.5382
  411MOL0     H54205   1.242   3.140   7.211 -3.2538 -0.5217 -1.4676
  411MOL0     H54206   0.945   2.993   7.284  0.1015 -2.8894 -2.2316
  411MOL0     H54207   1.050   3.013   7.154 -0.1538  0.3252 -0.4161
  411MOL0     H54208   0.914   3.215   7.072 -2.2517  1.4547  0.9665
  411MOL0     H54209   0.805   3.154   7.199  2.0647  0.3607  1.4447
  411MOL0     H54210   0.898   2.990   6.962  0.8041  0.7374  0.7607
  411MOL0     H54211   0.795   2.926   7.094 -0.5075 -0.7332 -0.7735
  411MOL0     H54212   0.651   2.999   6.890 -0.0582 -1.0899  0.9860
  411MOL0     H54213   0.725   3.157   6.902  1.8377 -1.6632 -0.6498
  411MOL0     H54214   0.531   2.857   7.047  0.7397  1.9893 -1.1461
  411MOL0     H54215   0.314   2.759   7.064  1.0905  0.3805  0.3427
  411MOL0     H54216  -0.158   2.807   7.017  1.2793  1.3202  0.1127
  411MOL0     H54217  -0.422   2.752   7.055 -1.2636 -1.2396  1.1024
  411MOL0     H54218  -0.648   2.958   7.384 -0.5704  0.0240  1.9162
  411MOL0     H54219  -0.554   2.824   7.446 -1.3607 -1.0457 -0.2944
  411MOL0     H54220  -0.784   2.783   7.479  0.2759  1.9007  0.0246
  411MOL0     H54221  -0.735   2.680   7.339  1.4096  0.5358 -3.0675
  411MOL0     H54222  -0.824   2.860   7.196  1.8834 -2.0539 -0.0739
  411MOL0     H54223  -0.898   2.934   7.342  4.6631  1.6980 -0.8860
  411MOL0     H54224  -0.945   2.650   7.270 -1.5072 -1.3707  0.7495
  411MOL0     H54225  -1.014   2.747   7.408 -0.6850  1.2053 -0.9729
  411MOL0     H54226  -1.180   2.726   7.202  0.2437  0.3148  0.4494
  411MOL0     H54227  -1.048   2.769   7.101 -0.3405  1.7210 -0.8299
  411MOL0     H54228  -1.063   2.994   7.188  0.8589 -0.6551 -0.2468
  411MOL0     H54229  -1.159   2.942   7.334  0.2446 -2.2384  0.8907
  411MOL0     H54230  -1.260   2.941   7.043  0.4660  1.3607 -0.9619
  411MOL0     H54231  -1.339   2.889   7.199  1.3278 -1.2880 -2.0399
  411MOL0     H54232  -1.263   3.175   7.131 -0.7616  0.7543  0.7668
  411MOL0     H54233  -1.290   3.122   7.293 -1.8093 -1.6781  1.5848
  411MOL0     H54234  -0.411   2.991   7.394 -3.6271  0.0068 -2.5101
  411MOL0     H54235  -0.182   3.054   7.359 -0.0121  0.6145  0.1271
  411MOL0     H54236   0.144   3.150   7.126 -0.6804 -0.8857  0.0093
  411MOL0     H54237   0.372   3.248   7.081 -1.1234 -0.1819  2.5744
  411MOL0     H54238   2.223   3.590   7.302  1.7751 -3.1693 -1.5603
  411MOL0     H54239   2.431   3.599   7.162  1.2510 -1.7230 -0.3209
  411MOL0     H54240   2.953   3.617   7.319 -1.7122  0.7864  2.0382
  411MOL0     H54241   3.188   3.680   7.277  1.4214  1.1832 -0.5102
  411MOL0     H54242   3.322   4.097   7.266  2.0912  0.8610 -0.6829
  411MOL0     H54243   3.316   4.034   7.087 -0.6304 -1.2197 -0.1967
  411MOL0     H54244   3.514   3.925   7.133 -3.0526 -0.4434 -1.4424
  411MOL0     H54245   3.553   4.083   7.214  0.2030 -0.8445  0.0152
  411MOL0     H54246   3.433   3.849   7.367 -1.3382  2.3018  1.0810
  411MOL0     H54247   3.534   3.982   7.428 -1.5430  0.5421  0.8326
  411MOL0     H54248   3.691   3.797   7.448 -1.2922 -0.5235  1.1449
  411MOL0     H54249   3.615   3.709   7.323  1.9212  0.3361 -0.9655
  411MOL0     H54250   3.880   3.930   7.093 -0.3683 -1.9568 -1.1643
  411MOL0     H54251   3.063   4.074   7.153  0.0836 -1.6019 -3.1476
  411MOL0     H54252   2.838   4.019   7.206 -2.8060 -1.0887  0.2071
  412MOL0     O54253  10.458   9.735   4.926 -0.4537  1.0251 -0.0020
  412MOL0     C54254  10.386   9.789   4.850  0.6275 -0.8047  0.5052
  412MOL0     O54255  10.271   9.847   4.882  0.7252 -0.0027 -0.0641
  412MOL0     C54256  10.218   9.843   5.009  0.0896 -0.3942  0.0713
  412MOL0     C54257  10.217   9.965   5.079 -0.1132  0.3324  0.5061
  412MOL0     C54258  10.166   9.977   5.207 -0.2825 -0.4244 -0.6455
  412MOL0     C54259  10.105   9.863   5.274 -0.9050  0.5329 -0.2755
  412MOL0     O54260  10.051   9.868   5.396  0.5591 -0.6495  0.2399
  412MOL0     C54261  10.005   9.986   5.448  0.0117  1.1578  0.9784
  412MOL0     C54262   9.906   9.965   5.566  1.1265 -0.6115  0.7278
  412MOL0     C54263   9.785  10.053   5.558  0.2577 -0.5364  0.3424
  412MOL0     C54264   9.687  10.041   5.681 -0.1006  0.6099 -0.4497
  412MOL0     C54265   9.555  10.127   5.652 -0.4716 -0.5109 -0.2430
  412MOL0     C54266   9.470  10.134   5.775  0.5054 -0.2954  0.4637
  412MOL0     C54267   9.357  10.239   5.767 -0.6572 -0.6029 -0.5524
  412MOL0     C54268   9.271  10.244   5.645 -0.0999  0.8683  0.2164
  412MOL0     N54269   9.173  10.355   5.637 -0.5279  0.4340 -0.3199
  412MOL0     C54270   9.052  10.345   5.692  0.5101  0.7546 -0.6795
  412MOL0     C54271   8.982  10.452   5.648  0.3686 -0.1406 -0.0308
  412MOL0     C54272   8.829  10.487   5.673 -1.3519 -0.6526  0.5070
  412MOL0     C54273   8.770  10.587   5.573 -0.1193 -0.8167 -0.1665
  412MOL0     C54274   8.624  10.551   5.543 -0.5137 -0.2890  0.4584
  412MOL0     C54275   8.614  10.464   5.415  0.4920  0.4420 -0.1583
  412MOL0     O54276   8.498  10.497   5.341  0.6292 -0.1467  0.4197
  412MOL0     C54277   8.377  10.441   5.373 -0.2805  0.9921 -0.1002
  412MOL0     C54278   8.356  10.353   5.479 -0.0186 -0.2426 -0.2796
  412MOL0     C54279   8.233  10.289   5.497  0.1627  0.4589 -0.5086
  412MOL0     C54280   8.126  10.303   5.409 -0.7434 -0.3529 -1.0202
  412MOL0     C54281   7.995  10.240   5.419  0.3023  0.3178  0.1826
  412MOL0     O54282   7.942  10.228   5.543  0.4990 -0.4714  0.1792
  412MOL0     C54283   7.826  10.153   5.557 -0.4412  0.2244 -0.0748
  412MOL0     C54284   7.697  10.206   5.541  0.5491 -1.1033  0.0630
  412MOL0     C54285   7.580  10.124   5.536  0.1693  0.8521  1.0133
  412MOL0     C54286   7.591   9.986   5.552  0.8640  0.0717  0.1129
  412MOL0     O54287   7.468   9.926   5.557 -0.1075  0.3072 -0.6089
  412MOL0     C54288   7.463   9.803   5.632  0.0107 -0.9623 -0.5584
  412MOL0     C54289   7.322   9.759   5.614 -0.4206  0.3415 -0.9020
  412MOL0     C54290   7.261   9.702   5.744  0.1510  0.6289 -0.1743
  412MOL0     C54291   7.109   9.683   5.724 -0.0252 -0.0967 -0.3182
  412MOL0     C54292   7.051   9.604   5.837  0.3361  0.3489 -0.2698
  412MOL0     C54293   6.912   9.556   5.805 -0.0592 -0.0107  0.7498
  412MOL0     C54294   6.811   9.676   5.777 -0.1038 -0.3005  0.6890
  412MOL0     C54295   6.664   9.642   5.809 -0.1470  0.8698  0.2576
  412MOL0    Cl54296   6.643   9.604   5.983 -0.0613 -0.2508 -0.0760
  412MOL0     C54297   7.715   9.930   5.572  0.5559  0.5701  0.0166
  412MOL0     C54298   7.833  10.008   5.573 -0.6860 -0.8495 -0.2177
  412MOL0     O54299   7.944  10.197   5.318  0.0089  0.3574  0.7504
  412MOL0     C54300   8.155  10.391   5.299 -0.2827 -0.4199 -0.3411
  412MOL0     C54301   8.274  10.460   5.282  0.6879  0.1075  0.3076
  412MOL0     N54302   9.066  10.524   5.568 -0.1481  0.1349 -0.2251
  412MOL0     N54303   9.185  10.472   5.569 -0.1694  1.0114 -0.1987
  412MOL0     C54304  10.107   9.740   5.204 -0.1112  0.2523 -0.1297
  412MOL0     C54305  10.172   9.727   5.085  0.1563  0.6856  0.1066
  412MOL0     C54306  10.419   9.778   4.715  0.0574  0.7090  0.6693
  412MOL0     C54307  10.525   9.705   4.669 -0.5070  0.2472 -0.0650
  412MOL0     C54308  10.571   9.696   4.532 -0.1850 -0.3090 -0.4272
  412MOL0     C54309  10.496   9.771   4.439 -0.2233  0.5277  0.0113
  412MOL0     O54310  10.541   9.788   4.307  0.8002  0.6121 -0.0484
  412MOL0     C54311  10.690   9.781   4.285 -0.9333 -0.1985 -0.0615
  412MOL0     C54312  10.751   9.908   4.349  0.8712  0.3663  0.2580
  412MOL0     C54313  10.906   9.908   4.356 -0.1264 -0.3330 -0.5225
  412MOL0     C54314  10.968   9.805   4.451  0.0202  0.4979 -0.1372
  412MOL0     C54315  10.916   9.818   4.585  0.1669  0.3729 -0.2778
  412MOL0     C54316  10.863   9.834   4.696  0.5892  0.0944  0.3429
  412MOL0     C54317  10.387   9.846   4.475  1.5009 -0.2971  0.5003
  412MOL0     C54318  10.347   9.846   4.615  0.0082 -1.1646 -0.1551
  412MOL0     H54319  10.260  10.059   5.045  0.2858 -0.4745 -1.3188
  412MOL0     H54320  10.164  10.069   5.263 -0.0802 -0.9777  0.2954
  412MOL0     H54321   9.952  10.035   5.365 -1.1510  1.4947  1.8949
  412MOL0     H54322  10.087  10.045   5.491  2.7370  0.1011 -2.2964
  412MOL0     H54323   9.963   9.982   5.658  0.8301 -0.8394  0.9560
  412MOL0     H54324   9.873   9.861   5.566 -0.5352 -0.1148  0.1112
  412MOL0     H54325   9.730  10.032   5.466 -1.6284  3.6439  0.2877
  412MOL0     H54326   9.816  10.157   5.544 -1.8640  0.0770 -0.2836
  412MOL0     H54327   9.646   9.941   5.693  1.3877  0.2167  1.8119
  412MOL0     H54328   9.744  10.078   5.766  0.5218  0.5832 -0.8508
  412MOL0     H54329   9.503  10.085   5.566 -2.3944 -0.3279  0.7767
  412MOL0     H54330   9.577  10.231   5.625  1.1721 -1.2013 -1.7443
  412MOL0     H54331   9.542  10.165   5.852  0.2940  1.0241  0.1402
  412MOL0     H54332   9.427  10.037   5.803  2.3077 -0.7912  1.7246
  412MOL0     H54333   9.309  10.224   5.864 -0.1746 -1.8797 -0.4893
  412MOL0     H54334   9.406  10.337   5.774  1.9947 -1.5536 -3.4960
  412MOL0     H54335   9.217  10.149   5.638  1.9886 -0.2899 -1.0413
  412MOL0     H54336   9.340  10.251   5.560  1.2207 -0.5700  1.1388
  412MOL0     H54337   9.008  10.262   5.746 -2.3609  1.7049 -1.3716
  412MOL0     H54338   8.816  10.523   5.775  1.8476  2.4010  0.0446
  412MOL0     H54339   8.766  10.398   5.667 -0.4817 -1.3041  0.8867
  412MOL0     H54340   8.833  10.598   5.484 -0.0999 -0.9686 -0.1716
  412MOL0     H54341   8.781  10.691   5.606  1.8440 -0.3788 -2.0079
  412MOL0     H54342   8.581  10.509   5.634 -1.2674  1.4920  0.9743
  412MOL0     H54343   8.571  10.643   5.516  0.1268 -0.8034 -3.1627
  412MOL0     H54344   8.608  10.362   5.455 -2.0649  1.4632  2.4605
  412MOL0     H54345   8.693  10.484   5.342  0.8290  3.2526  0.8447
  412MOL0     H54346   8.439  10.320   5.540 -0.2032  0.5166  0.3987
  412MOL0     H54347   8.217  10.213   5.573 -0.3916  0.3057 -0.7707
  412MOL0     H54348   7.697  10.314   5.529  3.5743 -0.8393  1.4233
  412MOL0     H54349   7.480  10.163   5.524 -2.2988 -3.9324  2.9387
  412MOL0     H54350   7.494   9.829   5.734  1.6073  0.2194 -1.3242
  412MOL0     H54351   7.531   9.732   5.584 -0.5978 -1.1799 -1.1208
  412MOL0     H54352   7.326   9.680   5.539 -1.4077  0.1837 -0.8028
  412MOL0     H54353   7.260   9.841   5.577 -1.1633  0.3159  0.2453
  412MOL0     H54354   7.281   9.763   5.833  1.4025 -0.3646  0.2553
  412MOL0     H54355   7.298   9.602   5.766  1.3686  1.0237 -0.3426
  412MOL0     H54356   7.059   9.780   5.719 -1.3828 -0.7184  0.7491
  412MOL0     H54357   7.095   9.635   5.627  0.5460 -0.1481 -0.3767
  412MOL0     H54358   7.036   9.660   5.930  0.9978  0.6016 -0.3140
  412MOL0     H54359   7.115   9.517   5.856  2.4875  1.9588  0.1574
  412MOL0     H54360   6.876   9.487   5.881  2.8869 -0.8534  1.5252
  412MOL0     H54361   6.926   9.495   5.715 -1.2131 -0.2873  0.7480
  412MOL0     H54362   6.833   9.762   5.841  2.0725  0.5539 -1.0887
  412MOL0     H54363   6.814   9.717   5.676  0.3249  2.5937  1.7662
  412MOL0     H54364   6.637   9.554   5.750 -0.7839  1.8814 -0.9902
  412MOL0     H54365   6.600   9.722   5.772 -0.0515  0.2822 -1.2375
  412MOL0     H54366   7.715   9.827   5.605 -1.8516  1.0333  1.7636
  412MOL0     H54367   7.923   9.954   5.601 -0.1965 -1.3713 -2.5850
  412MOL0     H54368   8.077  10.420   5.230 -0.3405  1.2791  0.3868
  412MOL0     H54369   8.296  10.523   5.197  1.1934  0.0307  0.3833
  412MOL0     H54370  10.057   9.658   5.254  0.2498  0.2173  0.1847
  412MOL0     H54371  10.173   9.631   5.035 -1.4576  1.9944 -2.6728
  412MOL0     H54372  10.576   9.651   4.748 -0.6101  1.7000  1.0221
  412MOL0     H54373  10.662   9.640   4.511 -0.4294 -0.3996 -1.2878
  412MOL0     H54374  10.694   9.788   4.176 -3.0421 -0.7835 -0.2193
  412MOL0     H54375  10.720   9.682   4.321 -3.0477 -1.6035 -1.8972
  412MOL0     H54376  10.713   9.983   4.279  0.9204  0.8576  0.7587
  412MOL0     H54377  10.709   9.926   4.448 -1.5408  1.0041 -0.8038
  412MOL0     H54378  10.943  10.007   4.386 -0.1602 -0.0351 -1.4187
  412MOL0     H54379  10.939   9.877   4.256 -0.2359 -0.3277 -0.5609
  412MOL0     H54380  10.959   9.702   4.415 -1.2938  0.8133 -0.8020
  412MOL0     H54381  11.074   9.828   4.458  0.1547 -0.1675  0.0814
  412MOL0     H54382  10.819   9.858   4.790 -3.5159 -0.9985 -1.0498
  412MOL0     H54383  10.332   9.916   4.413  1.7750  0.5583  1.1949
  412MOL0     H54384  10.262   9.909   4.637  0.4403 -0.5508 -0.2314
  413MOL0     O54385   9.811   1.209   2.551 -0.2389 -0.5223 -0.3031
  413MOL0     C54386   9.823   1.089   2.535  0.8607 -0.2553 -0.5892
  413MOL0     O54387   9.727   1.002   2.585  0.2354 -0.9246 -0.0213
  413MOL0     C54388   9.607   1.038   2.643 -0.1961 -0.6171  0.4100
  413MOL0     C54389   9.532   1.147   2.608  0.7055  0.6357 -0.1045
  413MOL0     C54390   9.404   1.168   2.656  0.9493 -0.0703 -0.1087
  413MOL0     C54391   9.339   1.079   2.747 -0.0089  0.2550 -0.2062
  413MOL0     O54392   9.204   1.094   2.795 -0.0686  0.0488  0.0239
  413MOL0     C54393   9.148   1.218   2.767  0.1208 -0.2049  0.2458
  413MOL0     C54394   9.035   1.246   2.863 -0.0634 -0.2042 -0.3799
  413MOL0     C54395   8.985   1.388   2.836  0.7018  0.4835 -0.3283
  413MOL0     C54396   8.958   1.441   2.700 -0.0289 -0.3746  0.0412
  413MOL0     C54397   8.855   1.555   2.691  0.1624  0.6134 -0.5344
  413MOL0     C54398   8.709   1.513   2.680  0.2880  0.3026 -0.0316
  413MOL0     C54399   8.616   1.626   2.647  0.6913  0.0500 -0.4170
  413MOL0     C54400   8.563   1.675   2.786  0.5822 -0.0843 -0.6250
  413MOL0     N54401   8.468   1.790   2.775 -0.6613  0.0028 -0.3052
  413MOL0     C54402   8.467   1.915   2.837  1.2182  0.1300 -1.0599
  413MOL0     C54403   8.351   1.969   2.796  0.0219 -0.2363  1.2525
  413MOL0     C54404   8.316   2.109   2.811 -0.5026  0.1799 -0.4689
  413MOL0     C54405   8.178   2.124   2.891 -0.2308 -0.4028  0.0670
  413MOL0     C54406   8.132   2.272   2.906  0.1841 -0.7472  1.3119
  413MOL0     C54407   7.997   2.273   2.969  0.6391  0.2533 -0.0997
  413MOL0     O54408   7.942   2.403   2.970  0.4732 -0.2229 -0.2065
  413MOL0     C54409   7.819   2.431   3.027 -0.1295  0.6075  0.0265
  413MOL0     C54410   7.739   2.540   2.986 -0.3404 -1.3497 -0.3768
  413MOL0     C54411   7.622   2.577   3.053 -0.8893 -0.5598 -0.1985
  413MOL0     C54412   7.571   2.496   3.151 -0.7765  0.0116  0.5678
  413MOL0     C54413   7.442   2.526   3.208  0.3498  0.3627 -0.3008
  413MOL0     O54414   7.361   2.411   3.223 -0.1299  0.0541 -0.0292
  413MOL0     C54415   7.236   2.434   3.276 -0.2232  0.1469  0.1268
  413MOL0     C54416   7.221   2.512   3.391 -0.5335  0.3539 -0.3034
  413MOL0     C54417   7.094   2.527   3.453  0.7752 -0.1512 -1.6299
  413MOL0     C54418   6.982   2.457   3.398 -0.4014  0.1487  0.2283
  413MOL0     O54419   6.865   2.466   3.462  0.6954  0.5845  0.1429
  413MOL0     C54420   6.840   2.344   3.530  0.1740 -0.3639 -0.3094
  413MOL0     C54421   6.721   2.362   3.629  0.1872 -0.8313 -0.4989
  413MOL0     C54422   6.594   2.400   3.552 -0.6005 -0.3107  0.1435
  413MOL0     C54423   6.480   2.363   3.639  0.8842  0.7463  0.3271
  413MOL0     C54424   6.350   2.413   3.566  0.3519 -0.0812 -0.2550
  413MOL0     C54425   6.219   2.376   3.638 -0.9642 -0.0036  1.0171
  413MOL0     C54426   6.087   2.401   3.565  0.8414 -0.4026 -0.4153
  413MOL0     C54427   5.971   2.368   3.659  0.4240 -0.3798  0.1805
  413MOL0    Cl54428   5.955   2.194   3.704  0.0009 -0.2682  0.2454
  413MOL0     C54429   7.006   2.366   3.289  1.2337  0.1617 -0.1583
  413MOL0     C54430   7.126   2.364   3.228  0.4087  0.6413  0.0986
  413MOL0     O54431   7.409   2.638   3.230 -0.6072 -0.3875 -0.5532
  413MOL0     C54432   7.638   2.380   3.182  0.7057  0.8315  0.1556
  413MOL0     C54433   7.766   2.347   3.123  0.2073 -0.6234 -0.5259
  413MOL0     N54434   8.269   1.884   2.725  0.6951  0.6765  0.2193
  413MOL0     N54435   8.342   1.778   2.712 -0.0899  0.0666 -0.6882
  413MOL0     C54436   9.416   0.972   2.789  0.2837  0.1044 -0.6555
  413MOL0     C54437   9.543   0.952   2.730  0.6065 -0.3595 -0.5911
  413MOL0     C54438   9.950   1.029   2.486 -0.6465  0.1437 -0.0404
  413MOL0     C54439  10.035   1.101   2.411 -1.2872 -0.1913  0.2873
  413MOL0     C54440  10.153   1.042   2.371  0.4111 -0.0950 -0.1561
  413MOL0     C54441  10.188   0.909   2.402  1.0011 -0.0589  0.1940
  413MOL0     O54442  10.300   0.842   2.373 -0.2087  0.1419 -0.2358
  413MOL0     C54443  10.335   0.844   2.238 -0.9641  0.2068  0.1945
  413MOL0     C54444  10.489   0.840   2.224  0.0149  0.6506 -0.9410
  413MOL0     C54445  10.553   0.971   2.284 -0.6800  0.3718  0.7821
  413MOL0     C54446  10.704   0.957   2.262 -0.4458 -0.3384  0.1323
  413MOL0     C54447  10.777   0.855   2.335  0.2175 -0.8899 -0.7123
  413MOL0     C54448  10.837   0.774   2.403 -0.0769 -0.6326 -0.7649
  413MOL0     C54449  10.098   0.838   2.475 -0.1025  0.3532  0.3639
  413MOL0     C54450   9.977   0.895   2.520  0.4570 -0.6796  0.3978
  413MOL0     H54451   9.570   1.211   2.529  0.4299 -0.7485 -1.4016
  413MOL0     H54452   9.344   1.247   2.612 -1.4690 -1.4145  0.5613
  413MOL0     H54453   9.109   1.211   2.665 -1.1002  0.3511  0.6423
  413MOL0     H54454   9.219   1.300   2.772 -0.1549 -0.0014  0.9283
  413MOL0     H54455   9.075   1.222   2.962  2.8201 -2.7215 -1.9644
  413MOL0     H54456   8.954   1.175   2.847 -2.0426  2.0030 -0.6493
  413MOL0     H54457   9.061   1.453   2.880 -0.9158  0.3134  3.0592
  413MOL0     H54458   8.888   1.400   2.886 -0.9852 -0.3189 -3.2049
  413MOL0     H54459   9.053   1.480   2.663  0.0948 -0.1931  0.5479
  413MOL0     H54460   8.921   1.365   2.630  1.5272  2.3750 -4.1420
  413MOL0     H54461   8.888   1.612   2.604 -0.6146  2.0906  0.0993
  413MOL0     H54462   8.861   1.619   2.780 -3.9725  1.6924 -0.8143
  413MOL0     H54463   8.683   1.467   2.775  1.1800  1.1788  0.6542
  413MOL0     H54464   8.706   1.441   2.597  0.1640  0.2839 -0.0108
  413MOL0     H54465   8.672   1.708   2.602 -1.3454 -0.2736 -4.0016
  413MOL0     H54466   8.530   1.589   2.589  1.2272  1.3592 -2.1482
  413MOL0     H54467   8.639   1.695   2.862  1.4206 -2.0065 -0.9175
  413MOL0     H54468   8.491   1.598   2.815 -2.3402  1.7471 -2.5444
  413MOL0     H54469   8.540   1.981   2.884  1.3142  0.7138 -2.0012
  413MOL0     H54470   8.292   2.152   2.713  0.3894  1.5797 -0.1089
  413MOL0     H54471   8.402   2.162   2.853  1.4868 -0.3822 -3.5297
  413MOL0     H54472   8.208   2.090   2.991 -0.4656  0.7972  0.5560
  413MOL0     H54473   8.094   2.065   2.853 -1.0504  1.4391 -1.0776
  413MOL0     H54474   8.201   2.333   2.965 -0.7785 -0.8451  2.5893
  413MOL0     H54475   8.127   2.311   2.804  2.9000  0.8546  1.6915
  413MOL0     H54476   8.001   2.226   3.068 -1.2895 -0.3023 -0.2409
  413MOL0     H54477   7.934   2.205   2.913 -2.2210  1.8473  0.9653
  413MOL0     H54478   7.784   2.604   2.911  1.8293 -3.3574 -0.9178
  413MOL0     H54479   7.586   2.679   3.040 -0.8713 -0.4558  0.5338
  413MOL0     H54480   7.306   2.560   3.439 -0.0883 -0.0233 -0.7125
  413MOL0     H54481   7.087   2.591   3.540  2.3961  2.1114 -3.0314
  413MOL0     H54482   6.929   2.316   3.587  1.7392  0.1282 -2.4338
  413MOL0     H54483   6.820   2.261   3.461 -0.4485 -0.3416 -0.1671
  413MOL0     H54484   6.744   2.440   3.703 -0.9257 -0.9297 -0.0285
  413MOL0     H54485   6.706   2.271   3.688 -0.4968 -1.9016 -2.2578
  413MOL0     H54486   6.596   2.341   3.460  2.1449 -2.1358  1.2494
  413MOL0     H54487   6.592   2.504   3.519 -2.1217 -1.2179 -2.9684
  413MOL0     H54488   6.465   2.255   3.645 -2.0039  0.7423 -3.4777
  413MOL0     H54489   6.494   2.409   3.738  2.1595 -1.9910  1.5217
  413MOL0     H54490   6.341   2.367   3.468 -3.3064  0.2710 -0.2109
  413MOL0     H54491   6.365   2.520   3.545  0.6404 -0.0876 -0.0852
  413MOL0     H54492   6.214   2.432   3.732  0.1157  1.6773  0.1353
  413MOL0     H54493   6.222   2.270   3.666  2.6366 -0.2624  0.0931
  413MOL0     H54494   6.081   2.502   3.525 -0.2480 -0.8432 -1.4079
  413MOL0     H54495   6.077   2.343   3.473 -0.9923  0.6832 -0.9478
  413MOL0     H54496   5.882   2.398   3.603  1.0806 -2.1664 -1.9804
  413MOL0     H54497   5.987   2.425   3.751 -2.3716  1.5717 -0.3971
  413MOL0     H54498   6.931   2.305   3.242 -1.0154  3.0187 -0.5327
  413MOL0     H54499   7.127   2.297   3.143 -2.5598  0.8629 -0.2096
  413MOL0     H54500   7.595   2.306   3.250  1.9894 -0.6737 -0.6074
  413MOL0     H54501   7.824   2.265   3.164  0.3468  0.5429  1.7885
  413MOL0     H54502   9.376   0.907   2.865 -0.3198  2.3671  1.0912
  413MOL0     H54503   9.603   0.872   2.772  0.6691  0.0714  0.1582
  413MOL0     H54504  10.008   1.203   2.387  4.0914  1.0744 -1.7878
  413MOL0     H54505  10.215   1.110   2.313  0.3032  1.1616  1.1606
  413MOL0     H54506  10.293   0.930   2.184 -0.5044  0.7461  0.6727
  413MOL0     H54507  10.312   0.744   2.201 -2.0701 -0.9689  3.6599
  413MOL0     H54508  10.523   0.757   2.287  2.3160  0.8754 -1.7804
  413MOL0     H54509  10.510   0.820   2.118  0.9817 -2.7979 -0.2429
  413MOL0     H54510  10.528   0.993   2.388  0.7876 -0.1760  1.2770
  413MOL0     H54511  10.514   1.056   2.227  0.1175  0.3199  0.1495
  413MOL0     H54512  10.732   0.944   2.157 -2.7766  0.2385 -0.6352
  413MOL0     H54513  10.754   1.050   2.290  0.5908 -0.0600 -2.4057
  413MOL0     H54514  10.885   0.705   2.469  0.7499 -0.9225 -1.6435
  413MOL0     H54515  10.114   0.732   2.493  1.3448  0.7948  1.9098
  413MOL0     H54516   9.903   0.834   2.571 -0.2880 -1.1109 -1.1493
  414MOL0     O54517   6.380   9.799   4.415  0.5494 -0.2348  0.5544
  414MOL0     C54518   6.497   9.775   4.380  0.0350  0.2271 -0.4040
  414MOL0     O54519   6.536   9.690   4.281  0.4378  0.1135  0.2737
  414MOL0     C54520   6.431   9.640   4.205 -1.1236 -0.1460 -0.0598
  414MOL0     C54521   6.392   9.507   4.193 -0.4434 -0.1868  0.7808
  414MOL0     C54522   6.283   9.470   4.113 -1.0985 -0.4787  0.1327
  414MOL0     C54523   6.212   9.567   4.041 -0.7274  0.7290  0.3374
  414MOL0     O54524   6.110   9.516   3.972 -0.6178  0.8903  0.1732
  414MOL0     C54525   6.023   9.603   3.909  0.0903  0.0513 -0.4319
  414MOL0     C54526   5.909   9.513   3.861 -0.5503  0.0675 -0.6131
  414MOL0     C54527   5.823   9.604   3.767 -0.4518  0.7998  0.2337
  414MOL0     C54528   5.693   9.516   3.732 -1.1175  0.3723  0.1236
  414MOL0     C54529   5.606   9.580   3.627  0.9631  1.3564 -0.2148
  414MOL0     C54530   5.597   9.729   3.647  0.9643  1.1203  0.0807
  414MOL0     C54531   5.486   9.805   3.581  0.4031  0.2411  0.3691
  414MOL0     C54532   5.500   9.826   3.422  0.1409  0.5494 -0.1584
  414MOL0     N54533   5.473   9.704   3.344  0.0659 -0.0132 -0.9514
  414MOL0     C54534   5.546   9.673   3.238  0.3841  0.5877  0.7726
  414MOL0     C54535   5.523   9.537   3.219 -0.2496  0.3802  0.2817
  414MOL0     C54536   5.577   9.449   3.113 -0.6026 -0.4497  0.3811
  414MOL0     C54537   5.480   9.410   3.001  0.4283 -1.0925 -0.3929
  414MOL0     C54538   5.476   9.516   2.900 -0.5231  0.2046  0.4139
  414MOL0     C54539   5.336   9.509   2.830 -0.1067  0.2985  0.1101
  414MOL0     O54540   5.349   9.597   2.714  0.0095 -0.3573 -0.0776
  414MOL0     C54541   5.246   9.596   2.624 -0.3690 -0.6953 -0.5969
  414MOL0     C54542   5.274   9.672   2.512 -0.5132  0.1843 -0.5360
  414MOL0     C54543   5.198   9.672   2.404  0.5670 -0.3091 -0.6357
  414MOL0     C54544   5.075   9.608   2.404 -1.1276  0.4575 -0.7536
  414MOL0     C54545   4.988   9.605   2.289 -0.6601 -0.5403 -0.4135
  414MOL0     O54546   4.866   9.546   2.297  0.3225 -0.0113 -0.1256
  414MOL0     C54547   4.780   9.562   2.196  0.3045 -0.9315 -0.0530
  414MOL0     C54548   4.798   9.515   2.058  0.2962 -0.0520  0.0569
  414MOL0     C54549   4.706   9.534   1.953 -0.5463 -0.4309 -0.1338
  414MOL0     C54550   4.589   9.609   1.976  0.5837 -0.1912 -0.5717
  414MOL0     O54551   4.480   9.623   1.894  0.2690 -0.1420  0.4867
  414MOL0     C54552   4.487   9.584   1.747  0.8098 -0.4354  0.2776
  414MOL0     C54553   4.416   9.701   1.683  1.1187  0.2178  0.1851
  414MOL0     C54554   4.394   9.669   1.538 -0.6708  0.3495  0.4578
  414MOL0     C54555   4.282   9.745   1.487  0.8066  0.0836 -0.5747
  414MOL0     C54556   4.254   9.700   1.342 -0.2426 -0.2557  0.0306
  414MOL0     C54557   4.125   9.774   1.286 -0.4167  0.5602 -0.3142
  414MOL0     C54558   4.082   9.743   1.142 -0.0474  0.1484  0.3149
  414MOL0     C54559   3.933   9.795   1.131  0.4373  0.2140  0.4031
  414MOL0    Cl54560   3.920   9.967   1.182 -0.3034  0.3326 -0.1653
  414MOL0     C54561   4.566   9.645   2.112 -0.2450  0.0129  0.6937
  414MOL0     C54562   4.662   9.634   2.215 -0.1851 -0.9221  0.5604
  414MOL0     O54563   5.018   9.675   2.196 -0.8896 -0.3376  0.7054
  414MOL0     C54564   5.032   9.547   2.525 -0.4961 -0.5540 -0.3647
  414MOL0     C54565   5.118   9.540   2.639  0.5790 -0.0188  0.0305
  414MOL0     N54566   5.437   9.496   3.317 -0.2352  0.0097 -0.6136
  414MOL0     N54567   5.405   9.597   3.390 -0.1719 -0.2617  0.3506
  414MOL0     C54568   6.260   9.695   4.037  0.7072  0.1391  0.0324
  414MOL0     C54569   6.366   9.731   4.122 -0.5929 -0.1815  0.2920
  414MOL0     C54570   6.604   9.852   4.445 -0.2618  0.2176 -0.1579
  414MOL0     C54571   6.571   9.971   4.503  0.2278 -0.3335  0.3866
  414MOL0     C54572   6.681  10.042   4.544  0.6585 -0.1503 -0.0195
  414MOL0     C54573   6.818  10.017   4.528 -0.1125  0.7418 -0.1603
  414MOL0     O54574   6.911  10.107   4.583 -0.3193  0.5739  0.5543
  414MOL0     C54575   7.053  10.091   4.557 -0.2695  0.7578 -0.0164
  414MOL0     C54576   7.084  10.127   4.411  0.0465  0.6530 -0.1844
  414MOL0     C54577   7.227  10.171   4.390 -0.5959 -0.0927 -0.4691
  414MOL0     C54578   7.240  10.324   4.430 -0.0880  0.3308  0.4550
  414MOL0     C54579   7.375  10.363   4.464 -0.1419  0.6164 -0.6898
  414MOL0     C54580   7.486  10.400   4.484 -0.6800  0.2756  0.2957
  414MOL0     C54581   6.845   9.888   4.470  0.1772  0.1969  0.6367
  414MOL0     C54582   6.736   9.805   4.432  0.3070  0.0854 -0.4114
  414MOL0     H54583   6.450   9.428   4.240  3.4247  0.5179 -2.3230
  414MOL0     H54584   6.258   9.364   4.107  1.4753 -1.1279 -0.5018
  414MOL0     H54585   6.075   9.653   3.827 -1.6489  0.0693 -1.5800
  414MOL0     H54586   5.979   9.679   3.973 -1.0085 -2.4255  1.9844
  414MOL0     H54587   5.852   9.478   3.948  0.7958  0.1769  0.3396
  414MOL0     H54588   5.944   9.427   3.803 -0.8553 -1.1614  0.9615
  414MOL0     H54589   5.876   9.627   3.674 -2.6898  1.6920 -0.8962
  414MOL0     H54590   5.795   9.699   3.813  0.3331  0.6616  1.0300
  414MOL0     H54591   5.728   9.417   3.702 -2.0797  0.5116 -1.5911
  414MOL0     H54592   5.639   9.497   3.825  0.6534 -0.2231  1.0720
  414MOL0     H54593   5.503   9.543   3.628  0.9066  1.5105  0.5911
  414MOL0     H54594   5.643   9.575   3.524  0.3889  1.9723 -0.4643
  414MOL0     H54595   5.697   9.771   3.627  0.6070  2.1412  0.3778
  414MOL0     H54596   5.583   9.745   3.754 -0.4279  3.4989 -0.3955
  414MOL0     H54597   5.397   9.752   3.619  1.5836 -1.8667  0.3296
  414MOL0     H54598   5.496   9.908   3.617  2.4298 -0.2509  1.3502
  414MOL0     H54599   5.601   9.865   3.401  1.2173  0.5701  4.2138
  414MOL0     H54600   5.434   9.907   3.391 -1.0797 -1.1418 -2.2744
  414MOL0     H54601   5.610   9.743   3.185 -0.3387  1.9998  1.6835
  414MOL0     H54602   5.626   9.359   3.154 -0.0836 -0.6780 -0.6997
  414MOL0     H54603   5.663   9.498   3.066 -0.7447 -2.2786 -1.9783
  414MOL0     H54604   5.380   9.407   3.046  1.2262 -0.9519  1.4839
  414MOL0     H54605   5.508   9.315   2.954  1.3235 -1.0554  0.0451
  414MOL0     H54606   5.494   9.617   2.937  0.7137  0.2961 -0.3984
  414MOL0     H54607   5.545   9.491   2.819 -0.9427  0.8201 -0.1521
  414MOL0     H54608   5.251   9.543   2.889  0.2663 -0.9984  1.4560
  414MOL0     H54609   5.328   9.401   2.813  0.2046  0.3123 -0.1394
  414MOL0     H54610   5.368   9.725   2.523 -0.8108  0.2706  2.1339
  414MOL0     H54611   5.213   9.741   2.322 -2.2057 -1.7768 -2.5709
  414MOL0     H54612   4.889   9.465   2.026 -0.1455  0.0085 -1.3324
  414MOL0     H54613   4.728   9.481   1.861 -0.8207 -1.5875  0.4493
  414MOL0     H54614   4.437   9.488   1.735  0.8332 -0.0968 -4.7522
  414MOL0     H54615   4.588   9.570   1.707  0.2788 -2.3995 -0.4818
  414MOL0     H54616   4.481   9.788   1.687  1.4049 -0.0473  2.6873
  414MOL0     H54617   4.322   9.714   1.737  0.2844  0.5442 -1.2746
  414MOL0     H54618   4.382   9.561   1.519  2.6770  0.0309 -0.5841
  414MOL0     H54619   4.480   9.694   1.476 -1.2370  2.3268  0.4247
  414MOL0     H54620   4.194   9.738   1.551  0.3082 -2.1703 -1.4062
  414MOL0     H54621   4.309   9.851   1.493  2.0322 -0.2577  0.3161
  414MOL0     H54622   4.234   9.592   1.343 -2.8576  0.1574 -0.8373
  414MOL0     H54623   4.333   9.722   1.269 -0.6764 -0.1242 -0.4009
  414MOL0     H54624   4.142   9.882   1.286 -1.4377  0.7266 -0.1472
  414MOL0     H54625   4.047   9.748   1.359  0.6584  1.1285  1.1026
  414MOL0     H54626   4.155   9.806   1.091 -0.2348  0.5269  0.5081
  414MOL0     H54627   4.091   9.638   1.111 -1.6641  0.4345 -1.2711
  414MOL0     H54628   3.876   9.736   1.204  0.5901  1.2144  1.3603
  414MOL0     H54629   3.893   9.788   1.030  0.2078 -0.0760  0.5134
  414MOL0     H54630   4.470   9.687   2.142 -1.5706 -3.6389  2.1585
  414MOL0     H54631   4.641   9.669   2.316 -1.5434 -0.1372  0.0230
  414MOL0     H54632   4.934   9.503   2.534 -1.0379  0.9528  1.9270
  414MOL0     H54633   5.088   9.496   2.734 -1.2223  2.9627  0.9690
  414MOL0     H54634   6.201   9.757   3.970 -0.7217 -1.7267 -0.5490
  414MOL0     H54635   6.396   9.835   4.137  1.7095 -0.6709 -0.5613
  414MOL0     H54636   6.469  10.006   4.515  0.0114 -0.6598 -0.4576
  414MOL0     H54637   6.664  10.135   4.598  0.1510 -0.0357 -0.3774
  414MOL0     H54638   7.089   9.989   4.576 -2.2927  0.1922  0.9819
  414MOL0     H54639   7.096  10.165   4.625 -1.6726  1.5992 -0.0034
  414MOL0     H54640   7.066  10.042   4.343 -0.2027  1.1364 -0.7344
  414MOL0     H54641   7.015  10.207   4.385 -1.8802 -0.1987  1.9987
  414MOL0     H54642   7.268  10.158   4.289 -0.3082 -1.5814 -0.1841
  414MOL0     H54643   7.294  10.117   4.457  3.0841  4.3055 -0.1207
  414MOL0     H54644   7.201  10.383   4.346 -2.6880 -0.1008  1.2874
  414MOL0     H54645   7.172  10.347   4.512 -0.7383  0.3438 -0.0799
  414MOL0     H54646   7.580  10.450   4.478 -1.4437  1.7618  0.1779
  414MOL0     H54647   6.942   9.843   4.452 -0.9248 -1.7163 -0.9165
  414MOL0     H54648   6.772   9.712   4.388  1.9385  1.0004 -1.1001
  415MOL0     O54649   3.389   6.122   1.678  0.6061  0.2147  0.2347
  415MOL0     C54650   3.384   6.167   1.796 -0.1125  0.4430  0.4109
  415MOL0     O54651   3.339   6.095   1.904 -0.2551  0.1865  0.0788
  415MOL0     C54652   3.314   5.958   1.891  0.5542  0.2139  0.8356
  415MOL0     C54653   3.173   5.929   1.909 -1.2286 -0.9338  0.2924
  415MOL0     C54654   3.139   5.799   1.930  0.1396 -0.7526 -0.3064
  415MOL0     C54655   3.239   5.695   1.929  0.6406  0.1831 -0.0553
  415MOL0     O54656   3.193   5.571   1.964  0.1318 -0.8193 -0.0588
  415MOL0     C54657   3.274   5.462   1.928  0.1068 -0.8408 -0.3564
  415MOL0     C54658   3.182   5.346   1.932 -0.1827  0.9545  0.0353
  415MOL0     C54659   3.243   5.227   1.865 -0.0251 -0.2914 -0.3253
  415MOL0     C54660   3.134   5.122   1.855  0.3125 -0.0240 -0.5150
  415MOL0     C54661   3.149   5.030   1.735  0.2921 -0.4363  0.6426
  415MOL0     C54662   3.092   5.098   1.609  0.5839 -0.7867 -0.2431
  415MOL0     C54663   3.041   4.987   1.508 -0.0978 -0.1006  0.1517
  415MOL0     C54664   3.041   5.035   1.367  0.4775 -0.4533  0.4710
  415MOL0     N54665   3.165   5.095   1.311 -0.0735 -0.3619 -0.1092
  415MOL0     C54666   3.275   5.013   1.287 -0.1432 -0.1424 -0.0346
  415MOL0     C54667   3.368   5.091   1.227 -0.5784  0.6087  0.4241
  415MOL0     C54668   3.519   5.074   1.190 -0.1090  0.2841  0.4880
  415MOL0     C54669   3.573   5.147   1.062 -0.7567 -0.0047 -0.8031
  415MOL0     C54670   3.610   5.297   1.069 -0.9294  0.6731 -0.5000
  415MOL0     C54671   3.738   5.312   1.140  0.0137  0.1171 -0.5273
  415MOL0     O54672   3.772   5.450   1.160  0.2571  1.2475 -0.1000
  415MOL0     C54673   3.891   5.485   1.219  0.4292  0.1688 -0.4602
  415MOL0     C54674   3.904   5.623   1.247 -0.1610 -0.1371 -0.2134
  415MOL0     C54675   4.034   5.670   1.282  0.1988 -0.8767 -0.8352
  415MOL0     C54676   4.140   5.581   1.308 -0.2648 -0.5491 -0.0601
  415MOL0     C54677   4.278   5.626   1.348 -0.0425 -0.2069 -0.2061
  415MOL0     O54678   4.298   5.762   1.350  0.3233  0.0167  0.2587
  415MOL0     C54679   4.416   5.822   1.397 -0.0929 -0.5421  0.8754
  415MOL0     C54680   4.517   5.773   1.479 -0.1879  0.2608 -0.6632
  415MOL0     C54681   4.628   5.848   1.511  0.2518 -0.5925 -0.1866
  415MOL0     C54682   4.641   5.979   1.462 -0.4898  0.5689  0.1070
  415MOL0     O54683   4.759   6.053   1.496  0.1926  0.1310  0.3451
  415MOL0     C54684   4.843   6.008   1.610 -0.1808 -0.5395  0.1942
  415MOL0     C54685   4.927   6.129   1.640 -0.5234 -0.4836 -0.4143
  415MOL0     C54686   5.021   6.164   1.530 -0.3561 -0.3291  0.4716
  415MOL0     C54687   5.093   6.295   1.562  0.4197 -0.2526 -0.1278
  415MOL0     C54688   5.202   6.336   1.465  0.0635 -0.2956  0.3537
  415MOL0     C54689   5.289   6.455   1.519  0.7267  0.5351 -0.5267
  415MOL0     C54690   5.214   6.588   1.524 -0.0483 -0.0471  0.0737
  415MOL0     C54691   5.293   6.724   1.522  0.2234 -0.6883 -0.2977
  415MOL0    Cl54692   5.449   6.731   1.435 -0.2338 -0.1258 -0.0055
  415MOL0     C54693   4.548   6.023   1.364 -0.8105  0.0361 -0.3727
  415MOL0     C54694   4.436   5.944   1.336  0.0613 -0.0486  0.2607
  415MOL0     O54695   4.363   5.535   1.370  0.4328 -0.0151  0.9490
  415MOL0     C54696   4.121   5.445   1.275 -0.1384 -0.8140  0.5885
  415MOL0     C54697   3.999   5.395   1.232 -0.1411 -0.0451  0.1267
  415MOL0     N54698   3.316   5.218   1.224  0.4955 -0.2801 -0.1293
  415MOL0     N54699   3.196   5.218   1.263 -0.5420  0.0643  0.0871
  415MOL0     C54700   3.374   5.730   1.912 -0.0843 -0.0083 -0.1715
  415MOL0     C54701   3.409   5.858   1.893 -0.2914  0.0607 -0.1427
  415MOL0     C54702   3.448   6.298   1.829  0.4159 -0.1016  0.0168
  415MOL0     C54703   3.473   6.394   1.728 -0.4203  0.2393  0.0115
  415MOL0     C54704   3.535   6.520   1.765 -0.0231  0.1938  0.3000
  415MOL0     C54705   3.561   6.544   1.896 -1.3528 -1.2599  0.6293
  415MOL0     O54706   3.630   6.658   1.917 -0.2260 -0.5007  0.4324
  415MOL0     C54707   3.598   6.740   2.030  0.8153  1.1256  1.0568
  415MOL0     C54708   3.448   6.768   2.042  0.0036 -1.1665  0.3242
  415MOL0     C54709   3.380   6.802   1.915 -0.9295 -0.7470  0.3171
  415MOL0     C54710   3.233   6.843   1.932 -0.8030  0.1483 -0.7829
  415MOL0     C54711   3.136   6.739   1.962 -0.5075  1.3353  0.7311
  415MOL0     C54712   3.042   6.660   1.973 -0.6588  0.5573 -0.7612
  415MOL0     C54713   3.526   6.457   1.999  0.7500  0.4279 -0.8380
  415MOL0     C54714   3.466   6.335   1.969 -0.2958 -0.2136 -0.4194
  415MOL0     H54715   3.092   5.999   1.927 -0.0993  0.8231 -1.1422
  415MOL0     H54716   3.036   5.771   1.950 -0.1189 -0.9816 -1.8255
  415MOL0     H54717   3.362   5.446   1.990  0.2597 -0.1607 -0.3953
  415MOL0     H54718   3.296   5.482   1.823 -2.7094  2.1576 -0.5190
  415MOL0     H54719   3.085   5.375   1.892 -2.0904 -3.9307  0.3912
  415MOL0     H54720   3.166   5.313   2.036 -4.8675 -0.7389 -0.9788
  415MOL0     H54721   3.315   5.168   1.921  0.1866  1.2553  1.1050
  415MOL0     H54722   3.287   5.256   1.769  0.0257  3.2331  0.6374
  415MOL0     H54723   3.158   5.063   1.944  0.6197 -1.3041 -1.4299
  415MOL0     H54724   3.032   5.161   1.862  0.3129 -0.0110 -0.5782
  415MOL0     H54725   3.089   4.943   1.761 -1.1947  0.8105  1.5998
  415MOL0     H54726   3.252   4.997   1.722 -0.3220 -1.8586 -1.1100
  415MOL0     H54727   3.171   5.165   1.574  2.3229 -2.0303  1.0969
  415MOL0     H54728   3.004   5.156   1.638 -0.3397 -1.9746 -0.5843
  415MOL0     H54729   3.098   4.895   1.526  0.0407  0.1515  1.0948
  415MOL0     H54730   2.940   4.951   1.529 -0.2258  0.0700 -0.1769
  415MOL0     H54731   2.977   5.122   1.351  0.6226 -0.2480  1.0021
  415MOL0     H54732   3.015   4.951   1.301  2.0771  0.2580 -1.1591
  415MOL0     H54733   3.296   4.908   1.306 -0.1263 -0.5897 -2.2925
  415MOL0     H54734   3.530   4.966   1.176 -0.7729  0.3188 -0.3894
  415MOL0     H54735   3.586   5.102   1.271  3.4031 -4.0542 -0.5389
  415MOL0     H54736   3.499   5.135   0.982  0.2331 -3.7981 -1.3517
  415MOL0     H54737   3.656   5.095   1.012 -3.0077 -1.9296 -2.7584
  415MOL0     H54738   3.633   5.344   0.973 -0.1216 -0.3264 -0.8187
  415MOL0     H54739   3.529   5.350   1.120  1.4991  2.1468  2.1249
  415MOL0     H54740   3.820   5.270   1.082  0.4418  2.1818 -1.5015
  415MOL0     H54741   3.734   5.263   1.238 -0.1354  1.7974  0.3541
  415MOL0     H54742   3.820   5.691   1.235  0.8386  0.7997 -2.4331
  415MOL0     H54743   4.042   5.777   1.300 -0.4090 -1.0341  0.4896
  415MOL0     H54744   4.504   5.670   1.511  1.9167 -0.1271 -0.8709
  415MOL0     H54745   4.711   5.801   1.563  1.4623  2.5805  1.0071
  415MOL0     H54746   4.909   5.927   1.578  2.9320  1.4942  1.0112
  415MOL0     H54747   4.782   5.965   1.691 -2.4192  0.4458 -0.8706
  415MOL0     H54748   4.987   6.115   1.730 -0.7941 -0.1557 -0.1764
  415MOL0     H54749   4.858   6.213   1.657  1.0128  0.7659 -0.0474
  415MOL0     H54750   4.970   6.175   1.434 -0.2816  0.8824  0.5568
  415MOL0     H54751   5.098   6.087   1.525  0.1580  0.1571  0.8419
  415MOL0     H54752   5.011   6.368   1.563 -0.8396 -1.6251  1.1999
  415MOL0     H54753   5.142   6.298   1.660  3.0899 -1.5274 -1.3274
  415MOL0     H54754   5.152   6.368   1.373 -3.6040 -0.1948  2.2304
  415MOL0     H54755   5.269   6.250   1.456 -1.6502 -1.7940  1.2716
  415MOL0     H54756   5.375   6.457   1.451 -0.5518 -0.4514 -2.2577
  415MOL0     H54757   5.326   6.422   1.617 -0.0350  1.3112  0.0394
  415MOL0     H54758   5.150   6.585   1.435 -0.3768 -1.3345  0.3255
  415MOL0     H54759   5.158   6.592   1.618 -0.1047  2.6524  0.0061
  415MOL0     H54760   5.311   6.745   1.628  1.0115 -0.9004 -0.3895
  415MOL0     H54761   5.225   6.803   1.486 -1.1923 -2.3689 -1.5091
  415MOL0     H54762   4.559   6.118   1.313 -1.5427  0.4859  0.2880
  415MOL0     H54763   4.361   5.983   1.269 -0.4946  1.2675  1.5921
  415MOL0     H54764   4.210   5.382   1.273 -0.1836 -0.8544 -0.9392
  415MOL0     H54765   3.997   5.288   1.213 -0.6457  0.1654 -1.0383
  415MOL0     H54766   3.456   5.661   1.927  0.3259  0.4249 -0.3997
  415MOL0     H54767   3.513   5.889   1.884 -0.4819  1.1221  0.9300
  415MOL0     H54768   3.431   6.375   1.630  2.1678  2.4451 -1.6578
  415MOL0     H54769   3.564   6.584   1.682  1.7020 -0.6114  0.2272
  415MOL0     H54770   3.647   6.838   2.034 -0.4183  1.8246  0.1254
  415MOL0     H54771   3.631   6.686   2.119  0.4862 -0.5559  0.1937
  415MOL0     H54772   3.401   6.688   2.100 -2.4053 -0.4341 -0.4908
  415MOL0     H54773   3.444   6.862   2.097 -1.4236  0.5009 -2.4084
  415MOL0     H54774   3.369   6.717   1.846  1.0801 -0.0410 -0.9571
  415MOL0     H54775   3.438   6.885   1.873  2.1366 -2.4123  0.9547
  415MOL0     H54776   3.225   6.917   2.012 -1.5778  0.2262 -0.9284
  415MOL0     H54777   3.196   6.883   1.837  1.2523 -2.0553 -2.6503
  415MOL0     H54778   2.958   6.595   1.983 -1.8779  1.8281 -2.3134
  415MOL0     H54779   3.543   6.471   2.105  4.2550 -2.1551 -0.8958
  415MOL0     H54780   3.453   6.271   2.056 -0.0708  2.9093  2.0901
  416MOL0     O54781  10.088  11.043   2.789 -0.4744  0.4603  0.7205
  416MOL0     C54782  10.156  11.123   2.720 -0.6456 -0.8561  0.8778
  416MOL0     O54783  10.136  11.251   2.711 -0.4940 -1.2569  0.2696
  416MOL0     C54784  10.011  11.288   2.746 -1.3470 -0.0790  1.1163
  416MOL0     C54785   9.984  11.349   2.873  0.4180  0.4121 -0.2613
  416MOL0     C54786   9.851  11.394   2.892 -1.2153  0.5844  0.0729
  416MOL0     C54787   9.751  11.376   2.806  0.0282  0.6136  0.2751
  416MOL0     O54788   9.627  11.404   2.852 -0.2729  0.1359  0.5490
  416MOL0     C54789   9.522  11.407   2.756  0.7609  0.1574 -0.2114
  416MOL0     C54790   9.402  11.475   2.812 -0.6460  0.8199  0.0252
  416MOL0     C54791   9.284  11.466   2.715  0.8189  0.1828  0.0274
  416MOL0     C54792   9.159  11.528   2.795 -0.4972  0.5247  0.2807
  416MOL0     C54793   9.019  11.498   2.733  0.0079  0.5101 -0.1100
  416MOL0     C54794   8.985  11.577   2.602 -0.4825 -0.0156 -0.2923
  416MOL0     C54795   8.856  11.524   2.529 -0.0501 -0.7826  0.0101
  416MOL0     C54796   8.728  11.494   2.622 -0.2398  0.1030 -0.8725
  416MOL0     N54797   8.658  11.623   2.661  0.4425  0.2515  0.5295
  416MOL0     C54798   8.535  11.653   2.600 -0.4260 -0.6724 -0.3176
  416MOL0     C54799   8.497  11.768   2.660  0.8651  0.0216  0.0112
  416MOL0     C54800   8.373  11.847   2.620 -0.6056 -0.2168  0.3949
  416MOL0     C54801   8.275  11.855   2.737 -0.0571 -0.1281  0.1417
  416MOL0     C54802   8.161  11.942   2.706  0.6820 -1.2969  1.0853
  416MOL0     C54803   8.061  11.954   2.822 -0.3661 -0.5015 -0.6747
  416MOL0     O54804   7.932  12.008   2.777  0.6469 -0.1595  1.0026
  416MOL0     C54805   7.814  11.980   2.836  0.3139 -0.5292 -0.1520
  416MOL0     C54806   7.809  11.905   2.951 -0.2541  0.2455 -1.2491
  416MOL0     C54807   7.685  11.882   3.014  0.2035  0.0428  0.4795
  416MOL0     C54808   7.572  11.939   2.962  0.1172  0.4027  0.5013
  416MOL0     C54809   7.438  11.912   3.022 -0.1358 -0.5748 -0.8240
  416MOL0     O54810   7.327  11.960   2.949 -1.0766 -0.1796 -0.1353
  416MOL0     C54811   7.207  11.903   3.002  0.0204 -0.3941  0.8206
  416MOL0     C54812   7.118  11.841   2.916  0.1633 -0.5007  0.1596
  416MOL0     C54813   6.979  11.813   2.954  0.4315 -0.0354  0.0359
  416MOL0     C54814   6.941  11.841   3.084  0.4094 -0.7998 -0.4176
  416MOL0     O54815   6.814  11.828   3.134 -0.3693 -0.3484  0.6162
  416MOL0     C54816   6.719  11.737   3.077  0.2438 -0.4930 -0.8253
  416MOL0     C54817   6.628  11.693   3.195 -0.3768  0.3014  0.6343
  416MOL0     C54818   6.486  11.753   3.168  0.1422  0.0165 -0.3601
  416MOL0     C54819   6.418  11.700   3.038  0.2979  0.0547 -0.5145
  416MOL0     C54820   6.310  11.804   3.004  0.6371  0.6270 -1.2916
  416MOL0     C54821   6.373  11.932   2.922 -0.6242  0.8146  0.9141
  416MOL0     C54822   6.258  12.011   2.864  1.0298 -0.2445  0.5211
  416MOL0     C54823   6.304  12.139   2.796  0.2080 -0.3195 -0.1956
  416MOL0    Cl54824   6.156  12.249   2.776 -0.7023 -0.0374  0.2324
  416MOL0     C54825   7.026  11.919   3.164 -0.0539 -0.4523 -0.2405
  416MOL0     C54826   7.157  11.952   3.126  0.3502  0.6907 -0.0998
  416MOL0     O54827   7.434  11.834   3.125  0.1577 -0.4097 -0.0715
  416MOL0     C54828   7.580  12.023   2.848 -0.1103  0.8743 -0.3542
  416MOL0     C54829   7.702  12.038   2.780  0.1647 -0.4453 -0.8769
  416MOL0     N54830   8.600  11.808   2.740 -0.2127 -0.5598 -0.7222
  416MOL0     N54831   8.700  11.728   2.734  0.4049  0.8592  0.0899
  416MOL0     C54832   9.783  11.324   2.680 -0.1827 -0.0736  0.3409
  416MOL0     C54833   9.908  11.274   2.652  0.6046  0.9645 -0.4463
  416MOL0     C54834  10.261  11.071   2.633 -0.0989 -0.1926 -0.4040
  416MOL0     C54835  10.290  10.933   2.638 -0.8938 -0.1992 -0.6162
  416MOL0     C54836  10.383  10.872   2.554 -0.1385 -0.0041  0.3349
  416MOL0     C54837  10.468  10.952   2.476 -0.6128  0.2801  0.8332
  416MOL0     O54838  10.559  10.894   2.389 -0.0808 -0.1162 -0.3529
  416MOL0     C54839  10.519  10.789   2.306 -0.1101  0.1000 -0.0193
  416MOL0     C54840  10.644  10.736   2.235 -0.0681 -0.0371  0.3855
  416MOL0     C54841  10.724  10.637   2.318 -0.4702  0.5654  0.3312
  416MOL0     C54842  10.850  10.587   2.240  0.8153 -1.0637  0.0219
  416MOL0     C54843  10.910  10.466   2.294 -0.1718 -0.7885 -0.6664
  416MOL0     C54844  10.966  10.362   2.316 -0.3549 -0.3523  0.5672
  416MOL0     C54845  10.454  11.090   2.480  0.2410 -0.8288 -1.2156
  416MOL0     C54846  10.352  11.145   2.552 -0.2391 -0.1401 -0.4753
  416MOL0     H54847  10.068  11.356   2.942 -0.0123 -0.5627  0.3782
  416MOL0     H54848   9.836  11.438   2.991  2.4861  1.3065  0.4888
  416MOL0     H54849   9.490  11.309   2.719 -1.6615  2.0534 -3.5903
  416MOL0     H54850   9.553  11.465   2.669  1.1993  1.5327  0.8266
  416MOL0     H54851   9.429  11.580   2.826  0.3914  0.8566 -1.8364
  416MOL0     H54852   9.381  11.419   2.903  2.1313 -1.9439 -0.8420
  416MOL0     H54853   9.269  11.363   2.681 -0.5114  1.1089 -2.3698
  416MOL0     H54854   9.310  11.514   2.620 -0.4117  1.3508  0.2602
  416MOL0     H54855   9.162  11.469   2.887 -0.5189  0.1301  0.0319
  416MOL0     H54856   9.168  11.636   2.806  0.0343  1.1105 -4.0203
  416MOL0     H54857   8.947  11.519   2.812  0.1967 -4.0797  1.6272
  416MOL0     H54858   9.011  11.392   2.707  0.1283  0.8682 -1.6988
  416MOL0     H54859   9.063  11.561   2.527  1.7516  0.3444  1.8176
  416MOL0     H54860   8.973  11.684   2.625 -0.9674 -0.1044 -0.1279
  416MOL0     H54861   8.818  11.607   2.468 -0.0484  1.4612  2.8415
  416MOL0     H54862   8.881  11.435   2.471 -0.2587 -1.1393  0.4679
  416MOL0     H54863   8.758  11.437   2.711 -0.4924  2.0150  0.5002
  416MOL0     H54864   8.668  11.430   2.556  0.1384  1.8290 -3.0042
  416MOL0     H54865   8.478  11.599   2.524 -1.8179  0.8172 -0.3888
  416MOL0     H54866   8.313  11.803   2.540  0.2958  1.8618 -1.5138
  416MOL0     H54867   8.401  11.951   2.602  1.6350 -0.3088  2.7808
  416MOL0     H54868   8.329  11.911   2.815 -0.5627  0.8020 -0.1607
  416MOL0     H54869   8.238  11.759   2.775  0.7284 -0.0702  1.1216
  416MOL0     H54870   8.202  12.039   2.677 -1.9825  0.0218  1.3999
  416MOL0     H54871   8.098  11.898   2.627  0.2328  1.7389 -0.3644
  416MOL0     H54872   8.106  12.012   2.903  1.2013 -2.1693 -0.2945
  416MOL0     H54873   8.046  11.858   2.871 -2.5039  0.7016  1.2241
  416MOL0     H54874   7.898  11.873   3.004 -1.1858  0.0454  0.2561
  416MOL0     H54875   7.685  11.814   3.099  1.6787 -1.2444 -0.4877
  416MOL0     H54876   7.150  11.814   2.816 -0.9947 -1.5358  0.0495
  416MOL0     H54877   6.922  11.767   2.874  2.4466 -1.2031 -0.7946
  416MOL0     H54878   6.760  11.646   3.033  1.0016 -0.5844  0.0316
  416MOL0     H54879   6.661  11.788   3.000  0.6564 -2.2334 -2.3556
  416MOL0     H54880   6.673  11.716   3.292  1.0414  0.9527 -0.1454
  416MOL0     H54881   6.631  11.583   3.192 -0.5648  0.3037  0.2562
  416MOL0     H54882   6.498  11.861   3.177 -1.4527  0.1071  1.2723
  416MOL0     H54883   6.416  11.729   3.248  0.7447  0.0569  0.1888
  416MOL0     H54884   6.492  11.699   2.958  0.4437  1.5765 -0.4235
  416MOL0     H54885   6.393  11.594   3.052  1.5740 -0.4894 -2.0459
  416MOL0     H54886   6.246  11.826   3.089  0.6651 -1.0729 -0.7843
  416MOL0     H54887   6.243  11.751   2.935 -0.3751 -1.4683  1.1551
  416MOL0     H54888   6.430  11.898   2.835 -0.3149  1.5958  0.7981
  416MOL0     H54889   6.436  11.984   2.995 -0.0462 -0.8872  1.6747
  416MOL0     H54890   6.191  11.950   2.803  1.1241  1.1816 -1.0889
  416MOL0     H54891   6.203  12.042   2.953  1.2073 -0.5866  0.7535
  416MOL0     H54892   6.338  12.112   2.696 -0.8602 -0.9241 -0.4099
  416MOL0     H54893   6.385  12.188   2.850 -0.8777  0.9915  0.3114
  416MOL0     H54894   7.002  11.934   3.268  0.2026 -1.1017 -0.0832
  416MOL0     H54895   7.218  12.014   3.191 -0.3206  0.8611  0.3738
  416MOL0     H54896   7.487  12.065   2.811 -1.2731 -1.1568  0.1199
  416MOL0     H54897   7.722  12.105   2.697 -0.0590  1.0956  0.2768
  416MOL0     H54898   9.710  11.296   2.604  2.5300 -1.9978 -1.7869
  416MOL0     H54899   9.929  11.234   2.553  3.9424  2.8832 -0.6915
  416MOL0     H54900  10.242  10.868   2.711  3.1448 -2.2703  0.5185
  416MOL0     H54901  10.374  10.764   2.548 -0.7797 -0.1815  3.3684
  416MOL0     H54902  10.451  10.830   2.231 -0.6492  0.1353  0.4812
  416MOL0     H54903  10.457  10.718   2.361 -2.1167  0.6019 -1.5289
  416MOL0     H54904  10.614  10.678   2.148  2.1925 -1.4809  0.4904
  416MOL0     H54905  10.698  10.825   2.200 -2.8255  1.0327 -1.4605
  416MOL0     H54906  10.651  10.563   2.353 -0.0319  0.5867  1.3213
  416MOL0     H54907  10.758  10.693   2.405  1.0164 -0.5762  0.5293
  416MOL0     H54908  10.806  10.572   2.141 -0.7780 -1.6977  0.7945
  416MOL0     H54909  10.928  10.662   2.223  0.7736 -0.4995  2.0446
  416MOL0     H54910  11.036  10.282   2.329  1.4666  1.3004  1.3254
  416MOL0     H54911  10.514  11.160   2.423 -2.0572  4.1883  1.9327
  416MOL0     H54912  10.345  11.252   2.537  2.5214 -0.0266 -1.5392
  417MOL0     O54913   8.818   3.866   3.135 -0.5753 -0.2086  0.4601
  417MOL0     C54914   8.809   3.799   3.033  0.6050  0.1041  0.5732
  417MOL0     O54915   8.686   3.746   2.990  0.2171  0.9408 -0.2009
  417MOL0     C54916   8.571   3.782   3.050  0.5363  0.8234 -0.0826
  417MOL0     C54917   8.513   3.911   3.056 -0.3206 -0.1614  0.0850
  417MOL0     C54918   8.384   3.929   3.115 -0.1116  1.0903  0.0305
  417MOL0     C54919   8.303   3.820   3.154 -0.5321 -0.3779  0.3127
  417MOL0     O54920   8.183   3.853   3.214  0.3454 -0.1190  0.2884
  417MOL0     C54921   8.086   3.756   3.236 -0.5498  0.4904 -0.2312
  417MOL0     C54922   8.025   3.687   3.120 -0.0665 -0.3388  0.5990
  417MOL0     C54923   7.906   3.593   3.152 -0.5608 -0.2054  0.9148
  417MOL0     C54924   7.951   3.468   3.220  0.5739 -0.3785 -0.0422
  417MOL0     C54925   7.817   3.395   3.268 -1.1719  0.3608  0.8975
  417MOL0     C54926   7.759   3.437   3.403 -0.1291  0.1989 -0.4251
  417MOL0     C54927   7.609   3.399   3.406 -1.3898 -0.9537  0.5242
  417MOL0     C54928   7.566   3.352   3.542 -0.0368  0.0603  0.5401
  417MOL0     N54929   7.537   3.462   3.633  0.1382 -0.1174 -0.1831
  417MOL0     C54930   7.441   3.560   3.618 -0.3592 -0.1576  0.4349
  417MOL0     C54931   7.440   3.632   3.729  0.2536 -0.5356  0.1953
  417MOL0     C54932   7.361   3.753   3.758 -0.3553  0.5898 -0.0527
  417MOL0     C54933   7.207   3.741   3.752 -0.3077  0.2528  0.6091
  417MOL0     C54934   7.156   3.627   3.839  0.0397 -0.6147 -0.7653
  417MOL0     C54935   7.008   3.609   3.815 -0.3257  0.1248  0.7554
  417MOL0     O54936   6.942   3.734   3.820 -0.0803  0.0069 -0.5315
  417MOL0     C54937   6.813   3.723   3.776 -1.0422  0.7581  0.7067
  417MOL0     C54938   6.718   3.648   3.844 -0.2215  0.1575 -0.3073
  417MOL0     C54939   6.587   3.635   3.788  0.1291  0.0894 -0.7859
  417MOL0     C54940   6.556   3.699   3.666  0.2298  0.0214 -0.2192
  417MOL0     C54941   6.422   3.662   3.613  0.1737 -0.7540 -0.2352
  417MOL0     O54942   6.331   3.591   3.684 -0.2067 -0.1502 -0.5133
  417MOL0     C54943   6.205   3.563   3.638 -0.3846  1.1851  0.0438
  417MOL0     C54944   6.090   3.608   3.699 -0.3536  0.5155  0.0630
  417MOL0     C54945   5.969   3.560   3.662 -0.1981 -0.3121  0.3095
  417MOL0     C54946   5.950   3.477   3.556  0.3340 -0.0865 -0.1123
  417MOL0     O54947   5.822   3.433   3.512  0.4751  0.0359 -0.4172
  417MOL0     C54948   5.712   3.457   3.607 -0.0889  0.4951 -1.0805
  417MOL0     C54949   5.586   3.402   3.534 -0.0553  0.2103  0.2727
  417MOL0     C54950   5.556   3.483   3.405  0.2438  0.6826  0.1278
  417MOL0     C54951   5.431   3.426   3.341  0.4061 -1.1713  0.2466
  417MOL0     C54952   5.384   3.502   3.212 -0.7360  0.2835  0.5293
  417MOL0     C54953   5.240   3.458   3.168 -1.1560  0.2122 -0.2376
  417MOL0     C54954   5.192   3.539   3.046 -0.1887  0.2041 -0.1318
  417MOL0     C54955   5.123   3.674   3.090 -0.6273 -0.0876 -0.5074
  417MOL0    Cl54956   4.952   3.638   3.103  0.1312  0.4575 -0.1155
  417MOL0     C54957   6.062   3.424   3.489  0.0675 -1.1413 -0.2570
  417MOL0     C54958   6.192   3.461   3.534  0.0341 -0.0092 -0.9775
  417MOL0     O54959   6.400   3.689   3.493  0.1883 -0.1744 -0.2566
  417MOL0     C54960   6.651   3.775   3.593  0.1654  1.1520  0.0327
  417MOL0     C54961   6.774   3.785   3.656  0.8369 -0.8528  0.5965
  417MOL0     N54962   7.539   3.581   3.813  0.4012 -0.1941 -0.2394
  417MOL0     N54963   7.595   3.483   3.758  0.7391 -0.0624  0.3744
  417MOL0     C54964   8.364   3.692   3.152 -0.4270 -0.0383  0.0224
  417MOL0     C54965   8.490   3.671   3.099 -0.9912 -1.4060 -0.0267
  417MOL0     C54966   8.937   3.753   2.964 -0.4740  0.3425 -0.1178
  417MOL0     C54967   8.926   3.653   2.864 -0.2206 -0.0946  0.1127
  417MOL0     C54968   9.043   3.616   2.788 -0.6195 -0.5008 -0.2968
  417MOL0     C54969   9.163   3.686   2.801  0.8734 -0.1572 -0.4533
  417MOL0     O54970   9.283   3.653   2.748 -0.1517 -0.5568 -0.6570
  417MOL0     C54971   9.305   3.516   2.710  0.3384 -0.1746  0.1557
  417MOL0     C54972   9.442   3.492   2.639 -0.3824 -0.5091 -0.1681
  417MOL0     C54973   9.551   3.507   2.740 -0.0926  0.5012  0.5774
  417MOL0     C54974   9.690   3.473   2.675  0.5255 -0.2126  0.3734
  417MOL0     C54975   9.797   3.451   2.772  0.2004 -0.0008 -0.5880
  417MOL0     C54976   9.881   3.420   2.857  0.4895  0.2792  0.5735
  417MOL0     C54977   9.168   3.785   2.902 -1.1269 -0.5290  0.1789
  417MOL0     C54978   9.056   3.815   2.977 -0.7990 -0.2781 -0.1860
  417MOL0     H54979   8.559   4.005   3.029 -0.4175 -0.3953 -0.9343
  417MOL0     H54980   8.353   4.031   3.131 -1.7828  0.6751 -0.3625
  417MOL0     H54981   8.005   3.806   3.291 -0.2870  0.0679  0.5599
  417MOL0     H54982   8.128   3.679   3.301 -2.4917 -0.2930  0.1782
  417MOL0     H54983   8.104   3.635   3.066 -0.8924 -0.5317 -0.4675
  417MOL0     H54984   7.982   3.771   3.064 -0.2819 -0.9980 -0.2549
  417MOL0     H54985   7.858   3.563   3.059  3.3796  1.3369 -1.9090
  417MOL0     H54986   7.834   3.655   3.205 -0.7387  0.3851 -0.0058
  417MOL0     H54987   8.018   3.408   3.158  0.1649 -0.0355 -0.8370
  417MOL0     H54988   8.013   3.503   3.303 -4.0301 -0.1021  3.7309
  417MOL0     H54989   7.848   3.291   3.272 -3.2411 -0.7960 -4.3883
  417MOL0     H54990   7.744   3.407   3.187  0.5346 -1.9646 -1.1197
  417MOL0     H54991   7.759   3.547   3.406 -2.3321  0.2839 -1.4528
  417MOL0     H54992   7.814   3.403   3.491 -3.0236 -2.2283  0.6133
  417MOL0     H54993   7.555   3.481   3.357  1.7366  2.8059  2.7685
  417MOL0     H54994   7.600   3.310   3.344  2.7827 -2.2672  1.4584
  417MOL0     H54995   7.646   3.287   3.580  1.0311  0.3838 -1.0430
  417MOL0     H54996   7.484   3.281   3.533  0.1256  0.0724 -1.5575
  417MOL0     H54997   7.377   3.576   3.532 -0.1981 -1.7658 -0.0272
  417MOL0     H54998   7.385   3.828   3.682 -2.9394  0.3612 -1.2174
  417MOL0     H54999   7.385   3.789   3.859  1.3546  0.0709 -0.2430
  417MOL0     H55000   7.167   3.712   3.655 -1.5663 -2.5610  1.8652
  417MOL0     H55001   7.160   3.836   3.780 -2.0226  0.2968 -2.1143
  417MOL0     H55002   7.203   3.532   3.813 -0.2032 -0.4194 -1.9766
  417MOL0     H55003   7.173   3.646   3.945  1.7396  2.0951 -1.4211
  417MOL0     H55004   6.982   3.536   3.893 -1.0667  0.2423  0.6247
  417MOL0     H55005   7.007   3.562   3.717 -0.4908  2.0873 -0.2239
  417MOL0     H55006   6.756   3.581   3.920 -1.1897 -1.4971 -1.2052
  417MOL0     H55007   6.514   3.572   3.838 -0.1711 -0.2179 -1.6053
  417MOL0     H55008   6.101   3.686   3.773 -0.7628 -0.5437  1.2898
  417MOL0     H55009   5.887   3.597   3.724 -1.2070  0.0770 -1.2150
  417MOL0     H55010   5.708   3.564   3.630  3.7322  0.0556  2.8963
  417MOL0     H55011   5.729   3.405   3.702 -1.9958  1.4220 -0.1642
  417MOL0     H55012   5.500   3.397   3.602  0.5972 -2.2812  0.9977
  417MOL0     H55013   5.612   3.300   3.505 -0.9624 -0.5800  2.0564
  417MOL0     H55014   5.646   3.478   3.344  0.6837  0.7015  0.7673
  417MOL0     H55015   5.527   3.585   3.432 -1.2007  0.7084 -1.3967
  417MOL0     H55016   5.459   3.326   3.307  0.3988 -0.4025 -2.1982
  417MOL0     H55017   5.344   3.427   3.407  0.4613  2.9396  0.4957
  417MOL0     H55018   5.457   3.491   3.131 -0.4267 -0.2597  0.8736
  417MOL0     H55019   5.384   3.612   3.215  0.1067  0.3751 -1.5445
  417MOL0     H55020   5.178   3.469   3.258 -1.8418  0.6377 -0.7556
  417MOL0     H55021   5.253   3.351   3.147  0.5609 -0.5933  3.8454
  417MOL0     H55022   5.280   3.559   2.985  0.9915  0.7122  1.6468
  417MOL0     H55023   5.120   3.489   2.980  0.6254 -1.8662  0.4541
  417MOL0     H55024   5.156   3.748   3.017  1.0964  2.7188  2.8088
  417MOL0     H55025   5.158   3.710   3.187  3.5014 -1.9576 -1.0768
  417MOL0     H55026   6.058   3.351   3.409  2.0432 -1.4576 -0.1426
  417MOL0     H55027   6.274   3.400   3.498 -0.2065  0.1284 -1.7855
  417MOL0     H55028   6.627   3.812   3.494 -1.7106 -0.3591 -0.1410
  417MOL0     H55029   6.849   3.847   3.609 -1.6114 -0.1157 -2.6676
  417MOL0     H55030   8.297   3.608   3.166 -2.6336  1.6652  0.2239
  417MOL0     H55031   8.531   3.571   3.090  2.1412 -0.6447  3.5654
  417MOL0     H55032   8.831   3.604   2.849 -0.3093 -0.1992  0.9663
  417MOL0     H55033   9.039   3.535   2.716  1.8385  0.4104 -1.5876
  417MOL0     H55034   9.229   3.493   2.635  1.5309 -1.4739 -0.7074
  417MOL0     H55035   9.308   3.442   2.790 -1.2551 -3.0925 -2.2902
  417MOL0     H55036   9.432   3.393   2.593 -1.3674 -0.3587 -0.3078
  417MOL0     H55037   9.455   3.563   2.556  2.6636 -0.8068 -0.0434
  417MOL0     H55038   9.534   3.431   2.817 -0.4801  0.1630  0.1641
  417MOL0     H55039   9.547   3.606   2.785  0.9546 -0.0030  1.8337
  417MOL0     H55040   9.690   3.374   2.628  1.1924 -1.4555  2.7816
  417MOL0     H55041   9.708   3.547   2.597 -2.3482  1.0429  0.7694
  417MOL0     H55042   9.964   3.382   2.914  0.5886 -0.6103 -0.1490
  417MOL0     H55043   9.266   3.828   2.918  0.7938 -2.9563 -3.5439
  417MOL0     H55044   9.067   3.886   3.059 -0.1109  0.1274 -0.6237
  418MOL0     O55045   1.145   2.906   2.953 -0.6405  0.2104 -0.8982
  418MOL0     C55046   1.120   2.856   2.845 -0.3758  0.2891 -0.4513
  418MOL0     O55047   1.023   2.765   2.815 -0.5661 -0.5769  0.2184
  418MOL0     C55048   0.923   2.742   2.911 -0.8547 -0.6217 -0.5901
  418MOL0     C55049   0.795   2.761   2.873  0.8157  0.3940 -0.6889
  418MOL0     C55050   0.683   2.740   2.957  0.4136 -0.1572  0.2560
  418MOL0     C55051   0.705   2.699   3.090 -0.2099 -0.3107  0.3210
  418MOL0     O55052   0.603   2.672   3.175  0.2986 -0.2106 -0.3582
  418MOL0     C55053   0.543   2.545   3.152 -0.2011  0.1853 -0.1151
  418MOL0     C55054   0.399   2.572   3.127  0.2516 -0.0365 -0.4026
  418MOL0     C55055   0.327   2.653   3.239 -0.1578  0.5565 -0.3614
  418MOL0     C55056   0.181   2.643   3.235  0.4156 -1.0254  1.1022
  418MOL0     C55057   0.119   2.781   3.287  0.7936  0.3494 -0.2249
  418MOL0     C55058  -0.027   2.792   3.268 -0.6191  0.6556 -0.7422
  418MOL0     C55059  -0.077   2.925   3.331  0.6205 -0.3721  0.1405
  418MOL0     C55060  -0.232   2.923   3.291  0.2507 -0.4207 -0.1819
  418MOL0     N55061  -0.293   3.039   3.365 -0.6783  0.7049 -0.1271
  418MOL0     C55062  -0.320   3.029   3.498  1.3644 -0.1994 -0.2842
  418MOL0     C55063  -0.387   3.149   3.525  0.4926  0.2657 -0.5809
  418MOL0     C55064  -0.432   3.212   3.664 -0.0833 -0.4001  0.3812
  418MOL0     C55065  -0.580   3.192   3.702 -0.3249 -0.2714 -0.9785
  418MOL0     C55066  -0.669   3.293   3.629  1.0630 -0.1608  0.7128
  418MOL0     C55067  -0.815   3.297   3.667 -0.5759 -0.3335  0.6060
  418MOL0     O55068  -0.898   3.329   3.562 -0.0538  1.4386  0.0126
  418MOL0     C55069  -1.005   3.405   3.597 -0.2513  0.0690  1.0337
  418MOL0     C55070  -1.087   3.378   3.713  0.2452  0.8952  0.3451
  418MOL0     C55071  -1.203   3.448   3.723  0.1849  0.3389 -0.3223
  418MOL0     C55072  -1.237   3.556   3.637  0.6048  0.9210  0.4909
  418MOL0     C55073  -1.364   3.637   3.662 -0.5609 -0.0364 -0.2252
  418MOL0     O55074  -1.423   3.602   3.778  0.5183 -0.7794 -0.1256
  418MOL0     C55075  -1.528   3.678   3.832 -0.5230  0.1903 -0.1027
  418MOL0     C55076  -1.589   3.796   3.801  0.4147 -0.4938  1.1605
  418MOL0     C55077  -1.702   3.851   3.875  0.1972  0.6994 -0.3209
  418MOL0     C55078  -1.737   3.800   4.006 -1.2221 -0.4560  0.1587
  418MOL0     O55079  -1.837   3.849   4.089 -0.7821  0.7415  0.6678
  418MOL0     C55080  -1.813   3.853   4.228  0.1278  1.3662 -0.8437
  418MOL0     C55081  -1.898   3.746   4.290  0.1642 -0.0417  0.0312
  418MOL0     C55082  -1.970   3.787   4.421  0.4113 -0.2778  0.8936
  418MOL0     C55083  -2.082   3.688   4.452 -0.4396  0.3257  0.2134
  418MOL0     C55084  -2.159   3.725   4.585 -0.6696  0.4563 -0.0551
  418MOL0     C55085  -2.188   3.869   4.606  0.1458 -0.0174 -0.1731
  418MOL0     C55086  -2.303   3.882   4.717 -0.4919 -0.2804  0.1729
  418MOL0     C55087  -2.441   3.928   4.654 -1.0724  0.1605 -0.1002
  418MOL0    Cl55088  -2.499   3.799   4.543 -0.3018  0.3310  0.1191
  418MOL0     C55089  -1.667   3.678   4.036  0.3475 -0.4714  0.3833
  418MOL0     C55090  -1.581   3.617   3.950  0.3737  0.1655 -0.2544
  418MOL0     O55091  -1.385   3.736   3.598  0.2586  0.2040 -0.4381
  418MOL0     C55092  -1.156   3.584   3.526 -0.0705 -0.1937 -1.0614
  418MOL0     C55093  -1.038   3.511   3.517  0.0851 -0.2951  0.4247
  418MOL0     N55094  -0.393   3.226   3.411  0.4840  0.3043  0.2275
  418MOL0     N55095  -0.340   3.156   3.316 -0.1863  0.4897 -0.9574
  418MOL0     C55096   0.840   2.680   3.132 -0.0141  0.9504 -0.3952
  418MOL0     C55097   0.943   2.714   3.048  0.0817 -0.3119  0.1902
  418MOL0     C55098   1.230   2.876   2.747 -0.0238 -0.4906 -0.0586
  418MOL0     C55099   1.313   2.985   2.752 -0.4771 -0.1221 -0.3768
  418MOL0     C55100   1.417   2.997   2.660  0.2942 -0.3442  0.9516
  418MOL0     C55101   1.449   2.885   2.572 -0.4649  0.0846 -0.0801
  418MOL0     O55102   1.554   2.903   2.486 -0.5894  0.6284  0.8654
  418MOL0     C55103   1.635   2.777   2.468  0.5556 -0.0131 -0.3500
  418MOL0     C55104   1.760   2.816   2.397  0.1949  0.9327  0.0193
  418MOL0     C55105   1.840   2.695   2.351 -0.0996  0.6732  0.2764
  418MOL0     C55106   1.989   2.714   2.375  0.1581 -0.2510 -0.5945
  418MOL0     C55107   2.064   2.766   2.258  0.7118 -0.2637 -0.4385
  418MOL0     C55108   2.130   2.823   2.177 -0.5912 -0.0803 -0.1883
  418MOL0     C55109   1.368   2.771   2.568  0.1469 -0.7675 -0.5525
  418MOL0     C55110   1.255   2.773   2.657 -0.4736 -0.1943  0.8032
  418MOL0     H55111   0.771   2.779   2.769  0.3164  3.4304 -0.1283
  418MOL0     H55112   0.585   2.732   2.911  0.7120  1.2827 -0.7074
  418MOL0     H55113   0.548   2.488   3.246 -0.1272  0.6340  0.1546
  418MOL0     H55114   0.588   2.494   3.067  0.1375 -0.1752  0.2750
  418MOL0     H55115   0.347   2.477   3.110 -0.8179 -0.0497  2.3626
  418MOL0     H55116   0.385   2.623   3.031 -2.5126  0.9368  0.4015
  418MOL0     H55117   0.356   2.759   3.241  0.0105  0.5429 -1.6218
  418MOL0     H55118   0.347   2.605   3.335 -0.5438  1.6120  0.2696
  418MOL0     H55119   0.144   2.617   3.135  2.3100  0.2460  0.0032
  418MOL0     H55120   0.146   2.563   3.301 -3.7780 -0.1339  0.2855
  418MOL0     H55121   0.155   2.865   3.228 -1.1000 -0.0092 -2.0060
  418MOL0     H55122   0.146   2.802   3.391  0.3909  2.0918 -0.4522
  418MOL0     H55123  -0.085   2.702   3.290 -1.2226  0.3988 -3.1140
  418MOL0     H55124  -0.047   2.796   3.161 -0.1211 -1.4342 -0.9577
  418MOL0     H55125  -0.069   2.932   3.440 -1.6558  1.2313  0.2902
  418MOL0     H55126  -0.023   3.004   3.278  2.6245 -1.4101  0.5380
  418MOL0     H55127  -0.288   2.831   3.314  2.3238 -1.1852  2.2664
  418MOL0     H55128  -0.248   2.948   3.186  1.0421  0.5596 -0.0725
  418MOL0     H55129  -0.304   2.946   3.567  1.1369 -0.0938 -0.1048
  418MOL0     H55130  -0.417   3.319   3.652 -0.6713 -0.2020  1.2954
  418MOL0     H55131  -0.378   3.171   3.750  0.8606 -2.0977 -0.9410
  418MOL0     H55132  -0.592   3.184   3.810  2.9928  0.1969 -0.4670
  418MOL0     H55133  -0.615   3.093   3.674 -1.1872  0.3107 -2.0371
  418MOL0     H55134  -0.623   3.389   3.654 -0.4548  0.6550  0.4907
  418MOL0     H55135  -0.658   3.265   3.524  0.3114 -3.2555  1.3783
  418MOL0     H55136  -0.825   3.368   3.750  1.2808 -0.6094  1.0991
  418MOL0     H55137  -0.836   3.197   3.708 -0.1569 -0.8016 -0.2850
  418MOL0     H55138  -1.067   3.289   3.771  0.0124  1.4642  1.3166
  418MOL0     H55139  -1.264   3.412   3.805  2.1275 -0.9413  0.6089
  418MOL0     H55140  -1.547   3.853   3.718 -0.2555 -1.8218 -0.1286
  418MOL0     H55141  -1.760   3.939   3.849 -0.4721  1.1625  2.3519
  418MOL0     H55142  -1.852   3.949   4.264  0.3546  1.4725 -0.8803
  418MOL0     H55143  -1.709   3.843   4.259 -0.2932  2.3913  1.0812
  418MOL0     H55144  -1.848   3.650   4.305 -0.2963 -0.1023  1.4028
  418MOL0     H55145  -1.981   3.719   4.224 -0.7425 -0.4507  1.3012
  418MOL0     H55146  -2.017   3.885   4.406  1.0375 -0.1841 -0.6944
  418MOL0     H55147  -1.906   3.794   4.509  2.3640  1.4629 -0.5618
  418MOL0     H55148  -2.151   3.697   4.367  0.2078  2.6630 -0.1316
  418MOL0     H55149  -2.029   3.593   4.462  4.6060  2.9343  2.0200
  418MOL0     H55150  -2.096   3.693   4.668 -0.4606  0.2468 -0.2917
  418MOL0     H55151  -2.247   3.661   4.594 -0.0567 -0.3639  0.2875
  418MOL0     H55152  -2.227   3.896   4.508 -1.5273 -0.7786  0.2535
  418MOL0     H55153  -2.100   3.928   4.633  1.3115 -0.7510 -2.1725
  418MOL0     H55154  -2.327   3.794   4.778 -0.6956  0.6576  1.4862
  418MOL0     H55155  -2.264   3.955   4.788 -0.0450  1.1438 -1.4746
  418MOL0     H55156  -2.440   4.030   4.614 -0.4241 -0.6816 -2.4000
  418MOL0     H55157  -2.513   3.926   4.736 -0.0651  0.9575  0.8460
  418MOL0     H55158  -1.668   3.629   4.132  1.4440 -2.2637 -0.4612
  418MOL0     H55159  -1.539   3.519   3.968 -2.1264 -1.4537 -2.4930
  418MOL0     H55160  -1.165   3.668   3.459  3.8294  0.9247 -0.4461
  418MOL0     H55161  -0.973   3.548   3.438 -0.1897 -0.0862  0.2948
  418MOL0     H55162   0.864   2.638   3.229  4.6184 -0.7531 -2.0142
  418MOL0     H55163   1.044   2.695   3.082 -0.0227 -0.5662  0.3625
  418MOL0     H55164   1.296   3.061   2.828 -0.7840 -1.3440  0.8232
  418MOL0     H55165   1.470   3.092   2.661 -0.4166  0.0591  0.6264
  418MOL0     H55166   1.580   2.713   2.397  1.1447  0.2332 -1.0418
  418MOL0     H55167   1.665   2.744   2.567  0.1079  2.0788  0.5292
  418MOL0     H55168   1.725   2.873   2.311 -2.1411 -0.0938  0.1970
  418MOL0     H55169   1.815   2.877   2.469  0.8036 -0.3002  0.6386
  418MOL0     H55170   1.823   2.681   2.244 -2.0856  1.7234  0.4086
  418MOL0     H55171   1.813   2.606   2.409 -1.2705  0.4272 -0.6134
  418MOL0     H55172   2.011   2.779   2.460 -1.9979 -1.1746  0.7384
  418MOL0     H55173   2.030   2.613   2.391 -2.0764 -1.0789  0.2441
  418MOL0     H55174   2.185   2.872   2.099  0.6692  2.1197  1.9627
  418MOL0     H55175   1.396   2.696   2.495  1.2041 -2.4925  1.5017
  418MOL0     H55176   1.189   2.686   2.658  0.8446 -1.2480 -0.0104
  419MOL0     O55177   4.336   5.024   1.299 -0.1383 -0.6009 -0.0948
  419MOL0     C55178   4.368   5.102   1.387  0.5193  0.2422  0.0470
  419MOL0     O55179   4.283   5.160   1.475 -0.4870  0.0701 -0.3081
  419MOL0     C55180   4.145   5.146   1.479  0.1141 -0.1075  0.4338
  419MOL0     C55181   4.067   5.251   1.525  0.3214  0.1639  0.6869
  419MOL0     C55182   3.928   5.231   1.548  0.3827  0.1487 -0.4769
  419MOL0     C55183   3.868   5.109   1.506  0.2510  0.2499  0.7897
  419MOL0     O55184   3.730   5.079   1.497 -0.1165 -0.1344  0.4266
  419MOL0     C55185   3.654   5.090   1.618  0.0727  0.8807 -0.6059
  419MOL0     C55186   3.508   5.131   1.582  0.3281 -0.5961 -0.5040
  419MOL0     C55187   3.497   5.261   1.514  0.4033 -0.2050  0.2548
  419MOL0     C55188   3.533   5.378   1.608  0.8723 -0.3195 -0.1909
  419MOL0     C55189   3.488   5.521   1.554  0.0071 -1.0826  0.3143
  419MOL0     C55190   3.569   5.542   1.425  0.4376  0.0339  0.1199
  419MOL0     C55191   3.524   5.669   1.341 -1.0972  0.7900  0.2952
  419MOL0     C55192   3.395   5.641   1.258  0.0107  0.5375 -0.5229
  419MOL0     N55193   3.353   5.767   1.210 -0.4886 -0.0397 -0.3647
  419MOL0     C55194   3.281   5.857   1.283  0.2620  0.1865 -0.1086
  419MOL0     C55195   3.258   5.955   1.191 -0.1858  0.1677 -0.0356
  419MOL0     C55196   3.182   6.086   1.221 -0.3094  0.4686  1.1816
  419MOL0     C55197   3.033   6.070   1.205  0.0640  0.0883 -0.7039
  419MOL0     C55198   2.972   5.985   1.311  0.5551 -0.4541  0.0562
  419MOL0     C55199   2.820   5.976   1.281  0.5646  0.1390 -0.7720
  419MOL0     O55200   2.775   5.881   1.381  0.1953  0.4087  0.7665
  419MOL0     C55201   2.657   5.823   1.356  0.8439  0.5274 -0.2838
  419MOL0     C55202   2.639   5.686   1.386  0.3738  0.8377  0.1036
  419MOL0     C55203   2.513   5.632   1.365  0.1174 -0.6468  0.9184
  419MOL0     C55204   2.399   5.700   1.323  0.3099 -0.4755 -0.7227
  419MOL0     C55205   2.267   5.642   1.308 -0.7741  0.1875  0.2289
  419MOL0     O55206   2.162   5.706   1.242  0.2695  1.3350 -0.4284
  419MOL0     C55207   2.034   5.653   1.235 -0.6778 -0.0599 -0.3681
  419MOL0     C55208   1.924   5.714   1.303 -0.7725  0.0375  0.1670
  419MOL0     C55209   1.794   5.661   1.305  0.4046  1.3042  0.0303
  419MOL0     C55210   1.764   5.558   1.221  0.2840  0.6316  0.6063
  419MOL0     O55211   1.650   5.494   1.240  0.6664  0.2006  0.2665
  419MOL0     C55212   1.580   5.454   1.118 -0.1471  0.5792 -0.0763
  419MOL0     C55213   1.430   5.464   1.130 -0.7373  0.7182 -1.2003
  419MOL0     C55214   1.379   5.606   1.119 -0.1242  0.4825  0.1271
  419MOL0     C55215   1.227   5.613   1.160  0.8350 -0.0294 -0.3660
  419MOL0     C55216   1.128   5.525   1.088 -0.7600  0.1427 -0.4253
  419MOL0     C55217   1.106   5.576   0.941 -0.7337 -0.1624 -0.4388
  419MOL0     C55218   1.035   5.480   0.842  0.3670 -0.4911  0.4429
  419MOL0     C55219   0.887   5.482   0.888 -0.4845  0.3427 -0.4093
  419MOL0    Cl55220   0.797   5.374   0.784  0.0481  0.1120 -0.3143
  419MOL0     C55221   1.866   5.513   1.128  0.7953 -0.2451  0.2699
  419MOL0     C55222   1.992   5.562   1.137 -0.1738  1.0043 -0.2650
  419MOL0     O55223   2.256   5.531   1.363  0.0781 -0.5415  0.2059
  419MOL0     C55224   2.422   5.838   1.296  0.9120  0.3833 -1.6277
  419MOL0     C55225   2.537   5.905   1.318 -0.1186  0.1067  0.4762
  419MOL0     N55226   3.317   5.921   1.068 -0.4107  0.1435 -0.1499
  419MOL0     N55227   3.366   5.801   1.082  0.1965  0.0543  0.6662
  419MOL0     C55228   3.951   5.010   1.468 -0.3320 -0.5434  0.0602
  419MOL0     C55229   4.091   5.021   1.473 -0.4847  0.2316  0.9667
  419MOL0     C55230   4.513   5.136   1.410  0.1799  0.1037 -0.0346
  419MOL0     C55231   4.551   5.220   1.517 -0.7365  0.5051 -0.4200
  419MOL0     C55232   4.687   5.246   1.546 -1.0466  0.3755  0.1553
  419MOL0     C55233   4.793   5.180   1.483 -0.1959  0.6732 -0.0414
  419MOL0     O55234   4.925   5.212   1.521  0.1925  0.0945 -0.8095
  419MOL0     C55235   5.041   5.185   1.439 -0.2305  0.0185 -0.9567
  419MOL0     C55236   5.087   5.038   1.429 -0.1117 -0.6006 -0.0365
  419MOL0     C55237   5.172   5.013   1.306  0.6334  0.3168  0.2206
  419MOL0     C55238   5.294   5.104   1.302  0.3394  0.2819  0.3048
  419MOL0     C55239   5.381   5.079   1.417 -0.2877  0.3431  0.1614
  419MOL0     C55240   5.461   5.065   1.509 -0.0432  0.6866 -0.6017
  419MOL0     C55241   4.758   5.096   1.376  0.5318  0.0128  0.2840
  419MOL0     C55242   4.619   5.079   1.336  0.5154  1.1383  0.5146
  419MOL0     H55243   4.116   5.342   1.555  0.9812  1.1244 -2.8805
  419MOL0     H55244   3.860   5.308   1.580 -1.5671 -2.9766  3.8450
  419MOL0     H55245   3.691   5.160   1.694 -1.1357 -0.6466  1.4736
  419MOL0     H55246   3.649   4.991   1.662  1.7932  1.1520  0.2601
  419MOL0     H55247   3.438   5.114   1.664  0.5615  2.8281  0.5675
  419MOL0     H55248   3.476   5.052   1.514 -0.0166 -0.7616 -0.1518
  419MOL0     H55249   3.393   5.269   1.481 -0.4483 -0.2046  2.7396
  419MOL0     H55250   3.562   5.260   1.426 -0.8913 -1.2952 -0.7306
  419MOL0     H55251   3.501   5.357   1.710  1.2511  1.2378  0.2727
  419MOL0     H55252   3.642   5.386   1.610  0.7777  0.9118  0.7963
  419MOL0     H55253   3.512   5.603   1.623  0.3023 -0.5129 -0.4523
  419MOL0     H55254   3.381   5.524   1.534  0.3250  3.7626 -2.1039
  419MOL0     H55255   3.564   5.454   1.360 -1.0365 -1.5009  2.1858
  419MOL0     H55256   3.671   5.552   1.460  0.5375 -0.1198 -0.1223
  419MOL0     H55257   3.514   5.756   1.406  3.9956  1.1003  1.0538
  419MOL0     H55258   3.596   5.693   1.262  0.7784 -1.7817  1.0811
  419MOL0     H55259   3.323   5.587   1.321  0.2406  0.3428 -0.4248
  419MOL0     H55260   3.416   5.567   1.180  1.8364  1.7474 -1.2367
  419MOL0     H55261   3.251   5.855   1.387  1.0451  1.4266  0.1532
  419MOL0     H55262   3.222   6.154   1.145  2.1238 -1.2449  0.8043
  419MOL0     H55263   3.213   6.131   1.315 -0.7014 -0.1955  1.6360
  419MOL0     H55264   3.002   6.034   1.107 -0.2642  1.1317 -0.9996
  419MOL0     H55265   2.991   6.171   1.209 -2.0021 -0.7484 -0.0414
  419MOL0     H55266   3.010   5.885   1.292  1.7348  0.5282 -3.4092
  419MOL0     H55267   2.982   6.011   1.417 -0.0778 -1.7223  0.4388
  419MOL0     H55268   2.785   5.948   1.181  0.8979  1.1257 -1.1895
  419MOL0     H55269   2.771   6.072   1.303  2.9257  2.1744 -3.4798
  419MOL0     H55270   2.725   5.635   1.429  0.5094  1.3692  0.4752
  419MOL0     H55271   2.501   5.524   1.374  0.7200 -0.6960  1.1931
  419MOL0     H55272   1.946   5.797   1.369  2.2131  0.1952 -0.8704
  419MOL0     H55273   1.712   5.691   1.369 -1.1151 -1.4471 -0.5065
  419MOL0     H55274   1.599   5.347   1.102 -1.4633  0.2956  0.1102
  419MOL0     H55275   1.610   5.515   1.033  0.0659  1.1783  0.4255
  419MOL0     H55276   1.403   5.422   1.228 -3.8667 -0.8019 -2.5545
  419MOL0     H55277   1.391   5.394   1.056  1.1590 -1.7876  0.0434
  419MOL0     H55278   1.386   5.621   1.011  1.3282  1.2380  0.2945
  419MOL0     H55279   1.430   5.690   1.168  1.1629  0.5035 -1.1510
  419MOL0     H55280   1.222   5.590   1.267 -1.3577  0.9465 -0.1909
  419MOL0     H55281   1.190   5.715   1.151 -1.3950 -0.5513  1.6224
  419MOL0     H55282   1.036   5.537   1.146 -0.7247 -2.0201  0.1755
  419MOL0     H55283   1.161   5.420   1.082  2.2268  1.0721 -2.4108
  419MOL0     H55284   1.206   5.592   0.900  0.8463 -0.5201  2.9383
  419MOL0     H55285   1.061   5.676   0.943  1.6192  1.0116 -1.7386
  419MOL0     H55286   1.047   5.506   0.737 -0.3061  1.5492  0.8407
  419MOL0     H55287   1.068   5.377   0.864  0.0045 -1.2041 -2.0334
  419MOL0     H55288   0.850   5.585   0.896  2.1420  1.2187  1.9941
  419MOL0     H55289   0.873   5.435   0.985 -1.0768  2.7376  0.7248
  419MOL0     H55290   1.849   5.432   1.057  1.6329  0.3984 -0.6903
  419MOL0     H55291   2.060   5.515   1.067 -2.4858 -1.9300 -0.7147
  419MOL0     H55292   2.331   5.891   1.272 -0.2997 -0.7784  0.1701
  419MOL0     H55293   2.550   6.011   1.302 -0.9097  0.1122 -0.1817
  419MOL0     H55294   3.921   4.914   1.426  2.4342  0.0145 -3.7029
  419MOL0     H55295   4.157   4.940   1.442 -1.8094 -0.1309 -1.0702
  419MOL0     H55296   4.489   5.284   1.579  2.7511  1.6668  2.2078
  419MOL0     H55297   4.719   5.303   1.632  0.7659 -0.0266 -0.2218
  419MOL0     H55298   5.123   5.242   1.485 -0.7676 -1.3867  1.9650
  419MOL0     H55299   5.023   5.226   1.339  2.9338 -1.7775 -2.4125
  419MOL0     H55300   5.146   5.009   1.517  2.5645 -0.7139 -1.7726
  419MOL0     H55301   4.998   4.975   1.420  0.2059 -0.7782 -2.8135
  419MOL0     H55302   5.122   5.036   1.211  1.7703 -2.4738 -1.2067
  419MOL0     H55303   5.209   4.910   1.300  0.1575  0.1203  0.6643
  419MOL0     H55304   5.336   5.097   1.201 -0.9067 -0.7401 -0.1759
  419MOL0     H55305   5.263   5.209   1.304 -1.1333 -0.1012 -0.5754
  419MOL0     H55306   5.528   5.038   1.589 -2.6941 -1.6214  1.0326
  419MOL0     H55307   4.842   5.060   1.318  0.5531  4.0213 -2.5707
  419MOL0     H55308   4.600   5.010   1.254  2.7862  0.7577  0.2519
  420MOL0     O55309  10.910   5.032   8.592  0.5928  0.0554  0.3377
  420MOL0     C55310  10.942   5.020   8.716 -0.4091  0.1980  0.3421
  420MOL0     O55311  10.861   5.044   8.814  1.0101  0.7394 -0.7261
  420MOL0     C55312  10.744   5.106   8.782 -0.6000 -0.8710  0.1017
  420MOL0     C55313  10.645   5.044   8.725  0.8390  0.1100 -0.2090
  420MOL0     C55314  10.522   5.110   8.701 -0.7139  0.6371 -0.2348
  420MOL0     C55315  10.511   5.240   8.742 -0.3369 -0.3882  0.1040
  420MOL0     O55316  10.386   5.298   8.751 -0.2826 -0.1625  0.3330
  420MOL0     C55317  10.287   5.248   8.651 -0.1514  0.4010 -0.1832
  420MOL0     C55318  10.168   5.337   8.653 -0.5962 -0.3514  0.0183
  420MOL0     C55319  10.061   5.305   8.555 -0.0139  0.9324 -0.4169
  420MOL0     C55320   9.989   5.178   8.584  0.7496 -0.2660  0.0103
  420MOL0     C55321   9.865   5.175   8.495 -0.1144 -0.9302 -0.7962
  420MOL0     C55322   9.771   5.049   8.523 -0.4350 -0.0253  0.1975
  420MOL0     C55323   9.838   4.905   8.526 -0.0220 -0.9173  0.5798
  420MOL0     C55324   9.734   4.804   8.496  0.4676  0.1052 -0.1511
  420MOL0     N55325   9.601   4.814   8.572  0.2913  0.1707  0.8055
  420MOL0     C55326   9.580   4.817   8.707 -0.3583 -0.7639 -0.2078
  420MOL0     C55327   9.443   4.833   8.732 -0.1123  0.0404 -1.0906
  420MOL0     C55328   9.373   4.827   8.870  0.0880 -0.2378 -0.6726
  420MOL0     C55329   9.255   4.929   8.863  0.2492 -0.3773 -0.3367
  420MOL0     C55330   9.129   4.850   8.837 -1.0813 -0.2980 -0.4511
  420MOL0     C55331   9.015   4.935   8.777 -0.4850 -0.2653  0.7741
  420MOL0     O55332   8.961   5.042   8.860  0.1098  0.2921 -0.1516
  420MOL0     C55333   8.871   5.017   8.957 -0.2021  0.3807 -0.3704
  420MOL0     C55334   8.739   4.980   8.938 -0.8384 -0.3902  0.6581
  420MOL0     C55335   8.643   4.973   9.044  0.2305 -0.5676  0.1222
  420MOL0     C55336   8.673   5.000   9.178 -0.4129 -0.0363  0.4369
  420MOL0     C55337   8.569   5.005   9.291 -0.4007 -0.1245  0.0955
  420MOL0     O55338   8.456   4.950   9.258  0.1992  0.9843 -0.0492
  420MOL0     C55339   8.376   4.889   9.355  0.8020  0.4422  0.4137
  420MOL0     C55340   8.410   4.797   9.447 -0.3395  0.0095  0.5194
  420MOL0     C55341   8.322   4.742   9.532  0.7052  0.1840 -0.3762
  420MOL0     C55342   8.192   4.775   9.530 -0.2680 -0.5532  0.3314
  420MOL0     O55343   8.095   4.709   9.597  0.1722  0.4294  1.2766
  420MOL0     C55344   8.051   4.588   9.528 -1.2858 -0.3151  0.5824
  420MOL0     C55345   7.962   4.502   9.614 -0.2943  0.4623  0.9438
  420MOL0     C55346   7.820   4.538   9.638  0.7169 -0.2998  0.4116
  420MOL0     C55347   7.738   4.552   9.510 -0.5138  0.7038 -0.3252
  420MOL0     C55348   7.594   4.561   9.541  0.1438  0.7238  0.4110
  420MOL0     C55349   7.508   4.617   9.426  0.8226  0.0380 -0.2457
  420MOL0     C55350   7.358   4.610   9.456  0.1968  0.5078 -0.2020
  420MOL0     C55351   7.281   4.635   9.325  0.3722  0.0211  0.1199
  420MOL0    Cl55352   7.103   4.613   9.353  0.3492  0.0014 -0.3269
  420MOL0     C55353   8.147   4.864   9.442 -0.6681 -0.5221  0.0609
  420MOL0     C55354   8.244   4.920   9.349 -0.4802 -0.1502 -0.5214
  420MOL0     O55355   8.599   5.036   9.403 -0.0055 -0.0979 -0.1221
  420MOL0     C55356   8.810   5.050   9.193 -0.0825  0.1557 -0.4878
  420MOL0     C55357   8.899   5.052   9.089 -0.5525  0.0886  0.0677
  420MOL0     N55358   9.388   4.858   8.611 -0.5101 -0.2951  0.9963
  420MOL0     N55359   9.480   4.850   8.517  0.5157 -0.3902  0.5462
  420MOL0     C55360  10.616   5.309   8.797 -0.6797 -0.5286 -0.0141
  420MOL0     C55361  10.737   5.240   8.804 -0.0333 -0.6473  0.2520
  420MOL0     C55362  11.068   4.949   8.741  0.3712  0.2410  0.2082
  420MOL0     C55363  11.121   4.951   8.867 -0.4048 -0.0721  0.2897
  420MOL0     C55364  11.253   4.897   8.886  0.2598  0.1106  0.3124
  420MOL0     C55365  11.322   4.843   8.783  0.0051  0.3830 -0.4477
  420MOL0     O55366  11.437   4.765   8.795 -0.0429 -1.0958 -0.5723
  420MOL0     C55367  11.498   4.752   8.929  0.0414  0.2495 -0.4543
  420MOL0     C55368  11.639   4.692   8.904 -0.2904  0.2526 -0.0451
  420MOL0     C55369  11.719   4.714   9.040  0.2017  0.5496 -0.3249
  420MOL0     C55370  11.873   4.717   9.022  0.4312 -0.0392  0.0201
  420MOL0     C55371  11.916   4.824   8.930 -0.3803 -0.6915 -0.6963
  420MOL0     C55372  11.959   4.913   8.858 -0.5810  0.4034  0.0746
  420MOL0     C55373  11.272   4.837   8.651 -1.0215 -1.3397  0.6160
  420MOL0     C55374  11.150   4.897   8.634  0.3223  0.2312  0.4737
  420MOL0     H55375  10.647   4.942   8.687  1.0183  0.7207 -1.9142
  420MOL0     H55376  10.434   5.058   8.665 -2.7506  1.1593  3.4742
  420MOL0     H55377  10.256   5.150   8.688 -2.7609  1.6200  1.2004
  420MOL0     H55378  10.334   5.230   8.555  0.5996 -1.5431  0.5011
  420MOL0     H55379  10.212   5.431   8.619 -1.0976  0.3421  1.2340
  420MOL0     H55380  10.122   5.348   8.751  0.3527  2.4797  0.2360
  420MOL0     H55381  10.114   5.286   8.461  2.3760  1.0908  0.8091
  420MOL0     H55382   9.989   5.387   8.551 -0.0779  0.8459 -3.2773
  420MOL0     H55383  10.055   5.091   8.574  0.5777 -0.4264  0.2347
  420MOL0     H55384   9.957   5.174   8.689 -1.4676 -1.9083 -0.6423
  420MOL0     H55385   9.917   5.174   8.399  1.1791  1.5308 -0.2107
  420MOL0     H55386   9.800   5.261   8.513 -0.9460 -1.5051 -1.0244
  420MOL0     H55387   9.710   5.055   8.432 -3.3422  2.4660  2.1447
  420MOL0     H55388   9.703   5.057   8.607 -1.4235 -1.7755 -0.3854
  420MOL0     H55389   9.929   4.903   8.466 -0.3447 -3.6209  0.0500
  420MOL0     H55390   9.871   4.897   8.630 -0.9933  1.3336  1.1375
  420MOL0     H55391   9.768   4.701   8.503  1.0986  0.0575 -2.8173
  420MOL0     H55392   9.717   4.815   8.389 -0.3331 -1.4978 -0.2135
  420MOL0     H55393   9.651   4.803   8.789  0.8476  0.8163 -0.9095
  420MOL0     H55394   9.444   4.859   8.947 -0.0089  0.4538 -0.8620
  420MOL0     H55395   9.333   4.728   8.897  2.7570 -0.9294  1.1202
  420MOL0     H55396   9.272   4.998   8.779 -1.4671  2.4624  1.4642
  420MOL0     H55397   9.261   4.987   8.955  1.2788 -3.0865  1.3979
  420MOL0     H55398   9.156   4.762   8.779 -1.6157 -3.8370  4.1418
  420MOL0     H55399   9.095   4.808   8.932 -0.0731 -0.0141  0.0496
  420MOL0     H55400   8.934   4.876   8.732  0.6106 -0.0744 -1.5869
  420MOL0     H55401   9.052   4.993   8.692 -0.2379  0.9604  1.7072
  420MOL0     H55402   8.713   4.955   8.835  0.5540  2.9846 -0.6714
  420MOL0     H55403   8.539   4.964   9.015  0.4349 -0.6593 -0.6007
  420MOL0     H55404   8.511   4.757   9.443 -0.7732 -1.2904  1.6809
  420MOL0     H55405   8.375   4.664   9.586 -0.7224  1.2876  2.8861
  420MOL0     H55406   8.129   4.527   9.482 -3.3206 -0.2608 -3.4144
  420MOL0     H55407   8.005   4.621   9.434  0.7436 -1.2046 -0.8018
  420MOL0     H55408   8.012   4.483   9.709  3.1290 -1.3720 -0.9989
  420MOL0     H55409   7.957   4.403   9.569 -0.6083  0.7710  0.2898
  420MOL0     H55410   7.808   4.627   9.700  1.6304  0.6856 -0.7684
  420MOL0     H55411   7.776   4.457   9.697 -0.4135 -1.0572 -1.4115
  420MOL0     H55412   7.769   4.644   9.458  1.7042  0.5000  0.5092
  420MOL0     H55413   7.755   4.458   9.458  0.5680 -1.2981  3.3365
  420MOL0     H55414   7.583   4.630   9.625 -1.0669  0.7372  0.2680
  420MOL0     H55415   7.563   4.459   9.565 -0.7656  0.2621 -2.3272
  420MOL0     H55416   7.542   4.575   9.331  0.5681  1.8418 -1.1932
  420MOL0     H55417   7.533   4.723   9.413  1.6791 -0.0418  0.6217
  420MOL0     H55418   7.315   4.512   9.480 -1.1079 -0.8002 -6.1223
  420MOL0     H55419   7.336   4.692   9.525 -0.5866  2.0125 -2.1235
  420MOL0     H55420   7.306   4.550   9.260 -1.5416 -0.5610  0.1072
  420MOL0     H55421   7.308   4.727   9.273  3.1845  0.7554  2.5530
  420MOL0     H55422   8.041   4.889   9.447  0.1513  3.5244  0.8503
  420MOL0     H55423   8.210   4.988   9.272 -1.7903  0.2539  0.3775
  420MOL0     H55424   8.848   5.089   9.287 -0.8171  1.3347 -0.6551
  420MOL0     H55425   9.000   5.091   9.096 -0.8509  1.5298 -2.3350
  420MOL0     H55426  10.630   5.412   8.828 -0.8736 -0.2410 -0.8416
  420MOL0     H55427  10.833   5.289   8.820  0.6670 -1.4105 -1.4162
  420MOL0     H55428  11.054   4.996   8.940 -2.6563 -2.4040 -0.1991
  420MOL0     H55429  11.277   4.900   8.992 -0.2818  2.3077  0.4361
  420MOL0     H55430  11.443   4.676   8.986 -0.5029 -1.2558 -2.8023
  420MOL0     H55431  11.511   4.847   8.980  1.9579  1.3362 -2.7508
  420MOL0     H55432  11.630   4.588   8.873  1.9032  0.5474 -1.9070
  420MOL0     H55433  11.683   4.746   8.820 -1.0074  0.2449 -0.4287
  420MOL0     H55434  11.692   4.628   9.101 -1.6117  0.9871 -0.4464
  420MOL0     H55435  11.689   4.803   9.096  2.0831  1.5774 -0.8312
  420MOL0     H55436  11.917   4.738   9.120 -2.0052 -1.4390  1.4962
  420MOL0     H55437  11.912   4.622   8.982  0.4269  1.0532 -2.8058
  420MOL0     H55438  12.001   4.975   8.782  1.2912 -3.0479 -1.9781
  420MOL0     H55439  11.329   4.791   8.571  0.8342  0.3325  0.9120
  420MOL0     H55440  11.109   4.893   8.534  0.6125 -0.3385  0.3710
  421MOL0     O55441   5.228   9.814   7.631  0.1124  0.1277 -0.3028
  421MOL0     C55442   5.320   9.755   7.680  0.3440  0.0794  0.1935
  421MOL0     O55443   5.310   9.645   7.758  0.3812  0.4612 -0.3959
  421MOL0     C55444   5.187   9.577   7.779  0.3683  0.0287 -0.7337
  421MOL0     C55445   5.100   9.545   7.675  0.1665 -0.2351 -0.7923
  421MOL0     C55446   4.969   9.495   7.707 -0.3082  0.2408  0.3854
  421MOL0     C55447   4.932   9.452   7.834 -0.6590  0.0922 -0.6685
  421MOL0     O55448   4.807   9.400   7.865 -0.1882  0.3195 -0.8372
  421MOL0     C55449   4.702   9.394   7.772  0.5571  1.1978  0.5043
  421MOL0     C55450   4.728   9.277   7.683  0.5000 -0.2316 -0.1512
  421MOL0     C55451   4.727   9.141   7.757 -0.1238  0.1546 -0.9423
  421MOL0     C55452   4.592   9.064   7.772 -0.3118  0.2902  0.6213
  421MOL0     C55453   4.609   8.943   7.868  0.8288  0.6051  0.0606
  421MOL0     C55454   4.501   8.837   7.838  0.2002 -0.7333 -0.2623
  421MOL0     C55455   4.514   8.716   7.917 -0.2419 -0.1445 -0.4221
  421MOL0     C55456   4.461   8.732   8.055 -0.1395 -1.1312 -0.2835
  421MOL0     N55457   4.317   8.765   8.053  0.6297  0.2757  0.4430
  421MOL0     C55458   4.276   8.889   8.099  0.6259 -0.2338 -0.2426
  421MOL0     C55459   4.140   8.883   8.069  0.3589 -0.3515  0.1123
  421MOL0     C55460   4.040   8.988   8.083  0.6959  0.4799 -0.1029
  421MOL0     C55461   3.915   8.935   8.157  0.9458 -0.4973 -0.3816
  421MOL0     C55462   3.806   9.041   8.198  0.6163  0.5092 -0.0869
  421MOL0     C55463   3.689   8.981   8.271  0.6647  0.2313  0.0564
  421MOL0     O55464   3.585   8.938   8.187  0.6532  0.4861 -0.6045
  421MOL0     C55465   3.458   8.972   8.230  0.3459  0.7310 -0.0139
  421MOL0     C55466   3.424   8.999   8.361  0.1326  0.0956 -0.2673
  421MOL0     C55467   3.286   9.029   8.383  0.0851  0.2806 -0.1207
  421MOL0     C55468   3.184   9.023   8.286  0.0685  0.0404  0.5511
  421MOL0     C55469   3.028   9.042   8.304 -0.6177  0.9203 -0.2073
  421MOL0     O55470   2.981   9.073   8.425  0.0919  0.4006  0.2242
  421MOL0     C55471   2.847   9.107   8.443  0.3993  0.9590 -0.0137
  421MOL0     C55472   2.806   9.220   8.514 -1.2869 -0.0946 -0.3549
  421MOL0     C55473   2.675   9.252   8.543 -0.1493 -1.0975 -0.3550
  421MOL0     C55474   2.573   9.168   8.501 -0.2035 -0.6841 -0.7930
  421MOL0     O55475   2.442   9.206   8.500 -0.2053  0.9028 -0.2945
  421MOL0     C55476   2.416   9.346   8.507  0.3104  0.7734  0.0157
  421MOL0     C55477   2.263   9.381   8.482 -0.0732  0.2586 -0.4618
  421MOL0     C55478   2.221   9.341   8.344 -0.2510 -0.0918  0.7464
  421MOL0     C55479   2.108   9.434   8.289 -0.1055  0.7108  0.1317
  421MOL0     C55480   1.973   9.393   8.335 -1.1291  0.5819  0.8016
  421MOL0     C55481   1.869   9.463   8.258  0.3568  0.7263 -0.3070
  421MOL0     C55482   1.722   9.428   8.314  0.1427 -0.4405 -0.0576
  421MOL0     C55483   1.619   9.443   8.204  0.2898  0.0010  0.5100
  421MOL0    Cl55484   1.467   9.485   8.272 -0.0766 -0.2019 -0.0638
  421MOL0     C55485   2.602   9.054   8.432  0.0624 -0.7905 -0.2214
  421MOL0     C55486   2.739   9.027   8.406  0.5979 -0.2619 -0.0044
  421MOL0     O55487   2.961   9.007   8.210 -0.0063 -0.2659  0.2696
  421MOL0     C55488   3.232   8.996   8.152 -0.4443 -0.3404 -0.5341
  421MOL0     C55489   3.364   8.958   8.137  0.0907  1.1769  0.8394
  421MOL0     N55490   4.115   8.758   8.019 -0.2731 -0.0088 -0.2473
  421MOL0     N55491   4.216   8.694   7.998  0.0639 -0.1002  0.8928
  421MOL0     C55492   5.019   9.477   7.942  0.0123  0.2241  0.2355
  421MOL0     C55493   5.144   9.537   7.914  0.3404 -0.2624 -0.0490
  421MOL0     C55494   5.454   9.802   7.654 -0.4159 -0.4310  0.1028
  421MOL0     C55495   5.540   9.812   7.763 -0.0988 -0.6389  0.5015
  421MOL0     C55496   5.676   9.855   7.742 -0.4034  0.4345 -0.0916
  421MOL0     C55497   5.730   9.876   7.610 -1.0577  0.1142  0.1721
  421MOL0     O55498   5.852   9.922   7.593  0.5305  0.0768 -0.1406
  421MOL0     C55499   5.953   9.868   7.514  0.0794  0.1346 -0.5706
  421MOL0     C55500   6.015   9.762   7.611 -0.5778  0.2214  0.5486
  421MOL0     C55501   6.117   9.664   7.550  0.2293  0.1672  0.0353
  421MOL0     C55502   6.236   9.738   7.499 -0.2241 -0.7511  0.0393
  421MOL0     C55503   6.314   9.644   7.413 -0.8695 -0.4137 -0.0138
  421MOL0     C55504   6.384   9.564   7.349  0.3359  0.1704 -0.5242
  421MOL0     C55505   5.642   9.860   7.504 -0.2844 -0.3380 -0.4080
  421MOL0     C55506   5.503   9.828   7.520  0.4481  0.2890  0.1659
  421MOL0     H55507   5.114   9.580   7.573 -4.0397 -1.1249 -1.8810
  421MOL0     H55508   4.903   9.487   7.621  2.3531 -0.2543 -1.7430
  421MOL0     H55509   4.690   9.488   7.718 -0.5035  1.8282  1.7641
  421MOL0     H55510   4.603   9.381   7.818 -0.9638  2.4944 -2.1485
  421MOL0     H55511   4.831   9.294   7.649  1.9603 -2.7438  2.5556
  421MOL0     H55512   4.654   9.273   7.603 -0.3649  0.1939  0.6119
  421MOL0     H55513   4.764   9.159   7.858 -4.4996 -2.4383  1.4072
  421MOL0     H55514   4.795   9.066   7.716 -0.5757 -1.4915  1.1876
  421MOL0     H55515   4.515   9.133   7.808 -0.2485  1.7020 -1.7387
  421MOL0     H55516   4.553   9.027   7.676 -4.2289  1.4700  1.5782
  421MOL0     H55517   4.588   8.985   7.967  1.9153 -0.2781  0.6807
  421MOL0     H55518   4.711   8.906   7.866  1.6473  2.4964 -3.7520
  421MOL0     H55519   4.510   8.808   7.733  1.4324 -1.7876  0.1123
  421MOL0     H55520   4.402   8.880   7.855  1.0188  0.8842  0.6633
  421MOL0     H55521   4.461   8.639   7.860  1.0422 -0.1669 -1.6246
  421MOL0     H55522   4.617   8.683   7.931 -0.1790  0.3208  0.2693
  421MOL0     H55523   4.516   8.808   8.112 -0.0422 -2.8064  2.0098
  421MOL0     H55524   4.483   8.638   8.108  1.1860 -1.5303 -1.4784
  421MOL0     H55525   4.346   8.952   8.153 -2.0734  1.3610  1.6471
  421MOL0     H55526   4.009   9.002   7.979  0.5619  0.1055 -0.1125
  421MOL0     H55527   4.072   9.080   8.134 -2.4706  2.0555 -0.6479
  421MOL0     H55528   3.949   8.893   8.252  2.0246 -0.7371 -0.8522
  421MOL0     H55529   3.855   8.866   8.097  0.4463 -3.4078  3.1607
  421MOL0     H55530   3.858   9.106   8.268  2.0478 -1.3928  0.7049
  421MOL0     H55531   3.766   9.101   8.116  2.3581 -0.4004 -1.6847
  421MOL0     H55532   3.659   9.057   8.344 -1.1933 -1.7217  1.4755
  421MOL0     H55533   3.704   8.891   8.332 -3.6389  1.2806  3.2576
  421MOL0     H55534   3.494   9.001   8.443 -0.7086 -0.6857  0.4817
  421MOL0     H55535   3.247   9.045   8.483  1.5271 -0.6073  0.6118
  421MOL0     H55536   2.887   9.282   8.551 -1.4035 -0.7346  1.0422
  421MOL0     H55537   2.648   9.338   8.603 -0.0499 -0.7925 -0.7440
  421MOL0     H55538   2.475   9.391   8.427 -1.0925  2.6924 -0.0249
  421MOL0     H55539   2.438   9.383   8.607  2.9597 -3.7125  1.3516
  421MOL0     H55540   2.258   9.490   8.490 -2.9743  0.5998 -4.2916
  421MOL0     H55541   2.200   9.336   8.560  1.3128 -1.2480 -0.1666
  421MOL0     H55542   2.183   9.239   8.339  1.0844 -0.5582 -2.0636
  421MOL0     H55543   2.310   9.345   8.281 -0.8932 -0.8924 -0.2422
  421MOL0     H55544   2.127   9.539   8.313 -2.4733  0.8683  1.6367
  421MOL0     H55545   2.121   9.413   8.183  2.1469 -0.3039  0.5529
  421MOL0     H55546   1.966   9.427   8.438 -0.0510  0.9237  0.7685
  421MOL0     H55547   1.962   9.284   8.333 -0.0664  0.4805 -0.3344
  421MOL0     H55548   1.881   9.415   8.160  0.6634 -0.4374  0.2769
  421MOL0     H55549   1.890   9.570   8.249  2.1085  0.7873  3.0482
  421MOL0     H55550   1.727   9.328   8.358 -0.7261 -0.7896 -0.7145
  421MOL0     H55551   1.691   9.487   8.401  0.9678 -1.6751  1.1029
  421MOL0     H55552   1.603   9.350   8.149 -3.0019  0.1851  0.9819
  421MOL0     H55553   1.650   9.523   8.136 -3.0573  2.4782  1.5936
  421MOL0     H55554   2.530   8.979   8.402  0.8549 -1.7288  0.2057
  421MOL0     H55555   2.755   8.932   8.357  0.8294 -0.7813  1.0631
  421MOL0     H55556   3.159   8.960   8.080 -0.5040 -2.6812  0.5919
  421MOL0     H55557   3.413   8.911   8.052 -0.7524 -0.2930  1.1248
  421MOL0     H55558   5.004   9.437   8.042  0.4898 -0.2299  0.1334
  421MOL0     H55559   5.216   9.558   7.993  0.9256 -0.2278 -0.5776
  421MOL0     H55560   5.496   9.779   7.857 -5.4549  1.2606 -1.0283
  421MOL0     H55561   5.746   9.864   7.824  1.6251  0.5836 -1.7772
  421MOL0     H55562   6.016   9.955   7.494  0.7753 -0.3895 -0.7187
  421MOL0     H55563   5.912   9.826   7.422  4.7732 -2.3470 -1.8431
  421MOL0     H55564   6.080   9.809   7.686  0.7269  0.8434 -0.9058
  421MOL0     H55565   5.934   9.705   7.656 -1.0755  1.3471  1.1239
  421MOL0     H55566   6.066   9.612   7.469 -2.8649  0.7180  1.4696
  421MOL0     H55567   6.155   9.602   7.632 -0.2268 -2.6630 -1.7852
  421MOL0     H55568   6.207   9.828   7.445 -2.4182 -1.5272 -0.1885
  421MOL0     H55569   6.294   9.770   7.587 -1.2182  0.9133  0.1255
  421MOL0     H55570   6.449   9.485   7.315  0.6497  0.5534 -0.8247
  421MOL0     H55571   5.672   9.897   7.407 -0.9701  2.9354  0.4987
  421MOL0     H55572   5.434   9.818   7.437 -1.6172  1.2865  1.6977
  422MOL0     O55573   8.701   1.948   8.540  0.3243  0.0150  0.1000
  422MOL0     C55574   8.781   2.031   8.492 -0.2479 -1.2004 -0.7183
  422MOL0     O55575   8.758   2.141   8.411  0.1091 -0.1502 -0.2255
  422MOL0     C55576   8.642   2.137   8.340  0.4270  0.0311  1.1181
  422MOL0     C55577   8.540   2.225   8.367  0.9048  0.5165 -0.4650
  422MOL0     C55578   8.430   2.238   8.288  0.1914  0.0904  1.5272
  422MOL0     C55579   8.427   2.173   8.165 -0.3377 -0.3235 -0.0156
  422MOL0     O55580   8.328   2.197   8.067  0.4743  0.0101 -0.5647
  422MOL0     C55581   8.260   2.330   8.068 -0.0767 -0.2335  0.4858
  422MOL0     C55582   8.165   2.339   7.954  0.3053  0.2973  0.1914
  422MOL0     C55583   8.045   2.247   7.974  0.4791 -0.0652 -0.8102
  422MOL0     C55584   7.936   2.276   7.863  0.2774  0.0418  0.0060
  422MOL0     C55585   7.836   2.160   7.832 -0.0393 -0.9752 -0.2800
  422MOL0     C55586   7.886   2.042   7.758 -0.4340  0.8311  0.7178
  422MOL0     C55587   7.775   1.971   7.674 -0.7609 -0.2127 -0.4164
  422MOL0     C55588   7.839   1.868   7.595 -0.1918  1.0479 -0.2949
  422MOL0     N55589   7.901   1.752   7.663  0.2678 -0.0108  0.1351
  422MOL0     C55590   7.830   1.659   7.741  0.3836 -0.2607  0.8874
  422MOL0     C55591   7.918   1.555   7.768 -0.7223 -0.2600 -0.9311
  422MOL0     C55592   7.922   1.418   7.839  0.2354 -0.8378 -0.6856
  422MOL0     C55593   7.872   1.297   7.762 -0.4344  0.1927  0.7513
  422MOL0     C55594   7.731   1.334   7.713  0.5602  0.7547  1.2569
  422MOL0     C55595   7.670   1.211   7.636  0.4683  0.7341 -0.5361
  422MOL0     O55596   7.537   1.239   7.595 -0.2877  0.2987 -0.4719
  422MOL0     C55597   7.435   1.153   7.620  1.4581  0.0990 -0.1152
  422MOL0     C55598   7.440   1.018   7.629  0.5654  0.6828  1.2965
  422MOL0     C55599   7.323   0.931   7.633 -0.3312  0.4488  0.6307
  422MOL0     C55600   7.201   0.996   7.619  1.0180  0.3405  0.0447
  422MOL0     C55601   7.088   0.912   7.619 -0.6714  0.9669 -0.1324
  422MOL0     O55602   6.977   0.974   7.572  0.4910  0.0446 -0.2476
  422MOL0     C55603   6.851   0.913   7.590  0.1656 -0.4339 -0.4417
  422MOL0     C55604   6.765   0.943   7.484 -0.2181 -0.3005  1.1796
  422MOL0     C55605   6.636   0.889   7.470 -0.4197  0.0893 -0.2648
  422MOL0     C55606   6.585   0.810   7.579  0.4736 -0.6392  0.3399
  422MOL0     O55607   6.461   0.754   7.558 -0.5576  0.3433 -0.3862
  422MOL0     C55608   6.367   0.757   7.664  0.1751 -0.4570  0.6064
  422MOL0     C55609   6.302   0.897   7.671 -0.3067  0.0236 -0.3674
  422MOL0     C55610   6.227   0.942   7.544  0.4627  0.0622 -0.0762
  422MOL0     C55611   6.086   1.002   7.571 -0.4038  0.1641  0.2654
  422MOL0     C55612   5.977   0.900   7.608  0.1177 -0.4563  0.6291
  422MOL0     C55613   5.835   0.954   7.624  0.2619  0.4678  0.2060
  422MOL0     C55614   5.717   0.859   7.629  0.3953 -0.1379 -0.2162
  422MOL0     C55615   5.712   0.804   7.771  0.5555 -0.7216  0.1938
  422MOL0    Cl55616   5.572   0.689   7.751 -0.3650 -0.0678  0.7000
  422MOL0     C55617   6.677   0.783   7.689 -0.4871 -0.5584  0.0726
  422MOL0     C55618   6.812   0.833   7.695 -0.3637  0.0202 -0.2182
  422MOL0     O55619   7.088   0.795   7.664  0.0913  0.0202  0.1263
  422MOL0     C55620   7.198   1.130   7.601  0.3888 -0.8579  0.6319
  422MOL0     C55621   7.308   1.214   7.602 -0.2458  0.7849  0.2533
  422MOL0     N55622   8.045   1.604   7.712 -0.1069  0.1277 -0.6531
  422MOL0     N55623   8.032   1.713   7.650 -0.1358  0.3076  0.5004
  422MOL0     C55624   8.528   2.081   8.136  0.0824 -0.6156 -0.1525
  422MOL0     C55625   8.634   2.067   8.220 -0.2460  0.3330  0.3938
  422MOL0     C55626   8.928   2.017   8.534 -0.3024  1.4610 -0.5962
  422MOL0     C55627   8.981   1.913   8.623  0.8710 -0.4543 -0.4512
  422MOL0     C55628   9.118   1.904   8.647  0.6008 -0.6224 -0.5705
  422MOL0     C55629   9.215   1.985   8.580 -1.2442  0.2396  0.7512
  422MOL0     O55630   9.350   1.986   8.609  0.6988  0.3679  1.0686
  422MOL0     C55631   9.428   1.885   8.539 -0.1706 -0.5770 -0.6286
  422MOL0     C55632   9.575   1.933   8.555 -0.4039 -0.2073  0.2281
  422MOL0     C55633   9.668   1.847   8.472 -0.6243  0.4534  0.4706
  422MOL0     C55634   9.812   1.904   8.462  0.1483 -0.1134  0.0124
  422MOL0     C55635   9.877   1.908   8.594  0.6873 -0.5946  0.1124
  422MOL0     C55636   9.939   1.915   8.697  0.1260 -0.2878  0.1111
  422MOL0     C55637   9.165   2.086   8.496 -0.1944  0.5036 -0.9414
  422MOL0     C55638   9.032   2.100   8.480  0.0500  0.4323  0.8757
  422MOL0     H55639   8.542   2.290   8.454  0.0072  0.8103 -0.6465
  422MOL0     H55640   8.346   2.303   8.309  0.5917  0.6262  1.4989
  422MOL0     H55641   8.334   2.411   8.069  0.8276 -0.8688  4.5168
  422MOL0     H55642   8.205   2.342   8.162 -0.1160  2.2742  0.1935
  422MOL0     H55643   8.212   2.325   7.856 -1.7457  2.0157 -1.1398
  422MOL0     H55644   8.131   2.443   7.956  0.4540  0.3645 -0.4716
  422MOL0     H55645   8.000   2.257   8.073  0.8360  1.1864 -0.7647
  422MOL0     H55646   8.077   2.142   7.969  1.1899 -0.0841  2.3666
  422MOL0     H55647   7.873   2.358   7.899 -0.2557 -1.0522  1.6705
  422MOL0     H55648   7.986   2.304   7.770  1.7954 -1.4042  0.3426
  422MOL0     H55649   7.757   2.207   7.772 -1.8054 -2.4867  0.7863
  422MOL0     H55650   7.794   2.136   7.930  4.2027 -0.7941  1.8222
  422MOL0     H55651   7.930   1.971   7.829  0.6484 -1.3961 -1.9840
  422MOL0     H55652   7.970   2.057   7.689  0.9411 -1.7422  1.6749
  422MOL0     H55653   7.699   1.926   7.739  0.8873  1.3114  2.8379
  422MOL0     H55654   7.724   2.041   7.607 -1.8703  0.1063  0.7286
  422MOL0     H55655   7.913   1.910   7.527  3.2317 -0.5524  2.1127
  422MOL0     H55656   7.753   1.840   7.534 -1.2833 -0.4540  1.8054
  422MOL0     H55657   7.728   1.665   7.775 -0.8014 -1.8477 -2.0480
  422MOL0     H55658   7.860   1.435   7.927  1.4263  0.1479 -0.0031
  422MOL0     H55659   8.020   1.398   7.882 -0.2825  0.0467  0.9924
  422MOL0     H55660   7.872   1.216   7.835  0.9240  1.1702  1.9069
  422MOL0     H55661   7.933   1.275   7.673  0.7372  1.8417  1.0870
  422MOL0     H55662   7.664   1.358   7.797  0.5059 -1.2720  1.8483
  422MOL0     H55663   7.742   1.421   7.648 -0.0949 -0.8108 -1.0842
  422MOL0     H55664   7.690   1.136   7.713  1.8957  0.9092 -0.7071
  422MOL0     H55665   7.721   1.173   7.546  0.0581 -2.5743  0.4852
  422MOL0     H55666   7.529   0.958   7.639 -0.1657 -1.0907 -1.5509
  422MOL0     H55667   7.333   0.823   7.633 -0.8907  0.3556 -1.4876
  422MOL0     H55668   6.805   1.002   7.402  0.6425  0.8439  2.4031
  422MOL0     H55669   6.563   0.899   7.390  0.5278  1.4604 -0.9826
  422MOL0     H55670   6.419   0.738   7.759 -1.0424 -1.6884  1.0592
  422MOL0     H55671   6.285   0.687   7.648  1.5804 -2.0179 -0.1061
  422MOL0     H55672   6.369   0.981   7.690  0.0202  0.3189 -2.5766
  422MOL0     H55673   6.233   0.888   7.756 -1.5847  0.7049 -1.3111
  422MOL0     H55674   6.213   0.857   7.476  0.7005  0.4767 -0.6431
  422MOL0     H55675   6.290   1.010   7.487  0.6322  0.6531  0.8006
  422MOL0     H55676   6.097   1.083   7.643  0.6643  1.1297 -0.9442
  422MOL0     H55677   6.064   1.039   7.471  0.1767  0.7552  0.3508
  422MOL0     H55678   6.005   0.853   7.703  1.5927  0.0298  0.4588
  422MOL0     H55679   5.971   0.816   7.538 -0.3863  1.8716 -2.2933
  422MOL0     H55680   5.815   1.016   7.536 -3.4911  1.5468  1.6448
  422MOL0     H55681   5.832   1.026   7.706 -2.0488  0.6025  0.0650
  422MOL0     H55682   5.624   0.914   7.615  0.1397 -0.8629 -1.5685
  422MOL0     H55683   5.742   0.779   7.559  1.7799  1.2391 -1.3704
  422MOL0     H55684   5.686   0.881   7.843 -3.4510 -2.0249  0.3726
  422MOL0     H55685   5.812   0.762   7.789  1.2653  1.4030  1.5906
  422MOL0     H55686   6.644   0.728   7.776 -0.1991  1.4245  1.5184
  422MOL0     H55687   6.876   0.812   7.779 -0.4242 -2.2090 -0.6825
  422MOL0     H55688   7.103   1.182   7.587  1.3672  0.2882 -2.4492
  422MOL0     H55689   7.313   1.322   7.595 -0.3268  0.6814 -2.2054
  422MOL0     H55690   8.525   2.018   8.047 -0.7130 -0.7328 -0.0444
  422MOL0     H55691   8.712   2.000   8.184 -2.6014 -3.0668  1.1205
  422MOL0     H55692   8.906   1.848   8.667  0.2682 -0.2855 -1.2110
  422MOL0     H55693   9.160   1.833   8.719 -3.4223 -1.0098  1.6939
  422MOL0     H55694   9.396   1.883   8.435 -0.9549 -0.4462 -0.4000
  422MOL0     H55695   9.418   1.782   8.574  1.6186 -0.3154  0.8516
  422MOL0     H55696   9.578   2.035   8.517 -1.9177  0.2830  1.2959
  422MOL0     H55697   9.616   1.933   8.657 -2.3168  1.3950  1.0721
  422MOL0     H55698   9.625   1.850   8.371  0.2327  2.4789  0.1159
  422MOL0     H55699   9.676   1.745   8.509  2.6832  0.4562  0.1106
  422MOL0     H55700   9.865   1.835   8.395  1.5968 -0.4535  1.4402
  422MOL0     H55701   9.824   2.001   8.413  3.0489 -1.0059 -1.2571
  422MOL0     H55702   9.990   1.911   8.791  1.1955 -1.9168 -0.5007
  422MOL0     H55703   9.223   2.167   8.452 -0.6246  0.5029 -1.5252
  422MOL0     H55704   8.998   2.185   8.421 -0.1099  1.7601  2.7744
  423MOL0     O55705   5.029   2.538  10.397 -0.0122  0.1661 -0.2169
  423MOL0     C55706   5.056   2.521  10.512 -0.0426  0.6308 -0.2148
  423MOL0     O55707   4.971   2.522  10.618 -0.0565  1.1179 -0.2757
  423MOL0     C55708   4.831   2.498  10.611  0.0707 -0.1222 -0.1951
  423MOL0     C55709   4.757   2.498  10.734  0.1127  0.0264 -0.4861
  423MOL0     C55710   4.620   2.479  10.737 -1.0105 -0.7930  0.4375
  423MOL0     C55711   4.548   2.453  10.618  0.8208 -0.4537  0.3342
  423MOL0     O55712   4.411   2.427  10.625  1.0073 -0.0508  0.2964
  423MOL0     C55713   4.328   2.481  10.734  0.2560  0.1883 -0.0093
  423MOL0     C55714   4.178   2.474  10.707 -0.4058  0.6283 -0.9600
  423MOL0     C55715   4.097   2.520  10.820 -0.2931 -0.8442  0.6762
  423MOL0     C55716   4.098   2.676  10.840 -0.3067  0.4069 -0.1621
  423MOL0     C55717   4.008   2.719  10.971  0.7261 -0.1995 -0.2194
  423MOL0     C55718   3.866   2.681  10.950  0.9307  0.3452  0.5314
  423MOL0     C55719   3.770   2.781  11.016 -0.7169  0.1724 -0.0672
  423MOL0     C55720   3.774   2.921  10.945  0.7375  0.2998  0.3551
  423MOL0     N55721   3.644   2.991  10.972 -0.5710  0.3561 -0.3664
  423MOL0     C55722   3.536   3.011  10.892  0.1125  0.2033 -0.7098
  423MOL0     C55723   3.446   3.074  10.966 -0.3578  0.2320  0.0654
  423MOL0     C55724   3.301   3.108  10.940 -0.7465 -0.1233  0.7811
  423MOL0     C55725   3.250   3.025  10.812 -0.4896 -0.0381 -0.3173
  423MOL0     C55726   3.101   3.060  10.806 -0.8645 -0.6369 -0.3691
  423MOL0     C55727   3.055   3.020  10.669  0.1176  0.6233 -0.7198
  423MOL0     O55728   2.915   3.032  10.679  0.4911  0.0130  0.5584
  423MOL0     C55729   2.840   2.988  10.573  0.5889 -0.4260  0.7157
  423MOL0     C55730   2.889   2.917  10.462 -0.2256 -0.2112 -0.2288
  423MOL0     C55731   2.799   2.863  10.363 -0.6894  0.4210 -0.9890
  423MOL0     C55732   2.666   2.893  10.369 -1.4154  0.3622 -0.1189
  423MOL0     C55733   2.571   2.842  10.271 -0.1051  0.0713 -0.4193
  423MOL0     O55734   2.448   2.878  10.292 -0.3086  0.1172  0.4274
  423MOL0     C55735   2.360   2.835  10.197 -0.2106 -0.4997  0.0929
  423MOL0     C55736   2.304   2.713  10.207  0.6724  1.1743  0.1730
  423MOL0     C55737   2.194   2.681  10.122 -0.6957  0.6206 -0.7645
  423MOL0     C55738   2.155   2.766  10.022 -0.9108  0.1521  0.8327
  423MOL0     O55739   2.049   2.721   9.951 -0.8124  0.0753  0.0718
  423MOL0     C55740   1.989   2.792   9.844  0.2067 -0.2480 -0.7210
  423MOL0     C55741   1.886   2.709   9.780  0.4079 -1.1164  0.1232
  423MOL0     C55742   1.766   2.707   9.879  0.8112  1.0198  0.5573
  423MOL0     C55743   1.665   2.797   9.824  0.9106 -0.7020  0.3209
  423MOL0     C55744   1.543   2.810   9.921  0.1869 -0.7167  0.5119
  423MOL0     C55745   1.453   2.933   9.901  0.1175  0.1691 -0.2874
  423MOL0     C55746   1.363   2.920   9.772 -0.1646 -0.3160 -0.0512
  423MOL0     C55747   1.272   2.795   9.770 -0.0170 -1.2174  0.4188
  423MOL0    Cl55748   1.173   2.816   9.923  0.5008 -0.4673 -0.3021
  423MOL0     C55749   2.225   2.884  10.006 -1.0415 -0.1472  1.0863
  423MOL0     C55750   2.319   2.926  10.097 -0.7844  0.1269  0.6089
  423MOL0     O55751   2.618   2.796  10.168 -0.6580  0.7073  0.0152
  423MOL0     C55752   2.626   2.973  10.474 -0.3500 -0.4239 -0.4923
  423MOL0     C55753   2.708   3.014  10.577  0.4613  0.3870 -0.5854
  423MOL0     N55754   3.508   3.106  11.087  0.5505  1.0127 -0.1079
  423MOL0     N55755   3.622   3.049  11.090 -0.1389 -0.1391 -0.2093
  423MOL0     C55756   4.619   2.462  10.497  0.2699 -0.3817  1.1990
  423MOL0     C55757   4.758   2.483  10.490  0.4920  0.0455 -0.2404
  423MOL0     C55758   5.199   2.498  10.539 -0.3587 -0.3261 -0.3537
  423MOL0     C55759   5.286   2.460  10.438 -0.0848 -0.3488 -0.1213
  423MOL0     C55760   5.417   2.430  10.469 -0.0354  0.9941 -0.5530
  423MOL0     C55761   5.460   2.437  10.603 -0.7685  0.0228  0.0425
  423MOL0     O55762   5.586   2.394  10.653 -0.6891 -0.4692  0.9295
  423MOL0     C55763   5.667   2.297  10.581  0.7599  0.3286  0.0186
  423MOL0     C55764   5.769   2.231  10.674  1.0615 -0.2412  0.3020
  423MOL0     C55765   5.700   2.137  10.775  0.1753 -0.6860  0.4957
  423MOL0     C55766   5.796   2.060  10.863  0.5047  0.2371  1.3088
  423MOL0     C55767   5.879   2.146  10.948  0.0070  0.4441  0.0851
  423MOL0     C55768   5.960   2.220  10.995  0.1533 -0.0135 -0.5903
  423MOL0     C55769   5.369   2.484  10.701 -0.0717 -0.1685 -0.7000
  423MOL0     C55770   5.246   2.522  10.669  0.2707 -0.2763 -0.0089
  423MOL0     H55771   4.815   2.508  10.825 -1.2490  1.5722  0.2658
  423MOL0     H55772   4.574   2.494  10.834  0.0675  2.4956  0.5803
  423MOL0     H55773   4.357   2.584  10.755  1.6973  0.1048 -1.4055
  423MOL0     H55774   4.344   2.412  10.817 -1.8706 -3.6990 -2.4910
  423MOL0     H55775   4.148   2.370  10.692 -1.2131  0.4008  1.7450
  423MOL0     H55776   4.148   2.535  10.622  0.1730  1.0123 -0.8901
  423MOL0     H55777   4.134   2.477  10.913  0.4889  2.1116  1.8480
  423MOL0     H55778   3.991   2.499  10.799  0.0654 -1.4150 -0.6960
  423MOL0     H55779   4.198   2.715  10.864 -0.9913  3.7142 -2.0088
  423MOL0     H55780   4.059   2.731  10.754 -0.8680 -0.4314 -0.4563
  423MOL0     H55781   4.022   2.826  10.984 -0.1961  0.0035 -0.8044
  423MOL0     H55782   4.038   2.665  11.061 -2.8593 -1.8886  0.1209
  423MOL0     H55783   3.837   2.581  10.984 -1.8704  0.5003 -1.1056
  423MOL0     H55784   3.843   2.681  10.844 -0.1409 -2.1293  0.7077
  423MOL0     H55785   3.669   2.739  11.010 -0.2163 -0.9078 -1.3069
  423MOL0     H55786   3.803   2.786  11.120  1.8466 -2.4616 -0.6463
  423MOL0     H55787   3.783   2.912  10.837  1.5411  0.4776  0.3954
  423MOL0     H55788   3.868   2.971  10.972  2.0565 -0.8826 -1.7285
  423MOL0     H55789   3.542   2.983  10.787  0.9812  0.9212 -0.8695
  423MOL0     H55790   3.303   3.214  10.911  1.0328 -0.0602  0.9889
  423MOL0     H55791   3.243   3.086  11.030 -2.4615  0.0760 -0.2366
  423MOL0     H55792   3.254   2.920  10.839 -1.5855 -0.5824 -2.1028
  423MOL0     H55793   3.304   3.053  10.721 -0.5855  0.8834 -0.1110
  423MOL0     H55794   3.047   2.997  10.876 -3.0400  1.2999 -0.1929
  423MOL0     H55795   3.071   3.164  10.823 -0.7997 -0.6579 -0.1283
  423MOL0     H55796   3.096   2.920  10.654  0.2463  0.5689 -0.0318
  423MOL0     H55797   3.087   3.087  10.588  1.8293 -1.8124 -2.1785
  423MOL0     H55798   2.994   2.918  10.432 -0.8389 -0.8218 -2.5190
  423MOL0     H55799   2.848   2.800  10.289  1.5306  2.0365 -0.9577
  423MOL0     H55800   2.329   2.649  10.291 -4.7905 -1.2777  0.3525
  423MOL0     H55801   2.150   2.584  10.141  2.2201 -1.1734 -2.4633
  423MOL0     H55802   2.065   2.824   9.773 -2.2686  0.4457 -3.2237
  423MOL0     H55803   1.941   2.884   9.879  3.0843  1.6403 -1.4487
  423MOL0     H55804   1.931   2.612   9.761  1.8290 -0.1138 -1.9324
  423MOL0     H55805   1.852   2.759   9.689 -2.8973  1.5293  2.4967
  423MOL0     H55806   1.788   2.720   9.986  1.8769 -0.1802  0.5121
  423MOL0     H55807   1.730   2.603   9.878 -0.1422  1.3433  0.4764
  423MOL0     H55808   1.707   2.898   9.815 -0.0020 -0.5005 -4.0346
  423MOL0     H55809   1.620   2.767   9.729  1.8406 -0.2721 -0.2712
  423MOL0     H55810   1.581   2.807  10.024  1.7479  0.4938  0.0184
  423MOL0     H55811   1.492   2.715   9.911  1.7508 -1.5685  0.2922
  423MOL0     H55812   1.521   3.018   9.902  1.0378 -0.5560 -0.0987
  423MOL0     H55813   1.392   2.965   9.986 -2.3784  5.1410 -3.4173
  423MOL0     H55814   1.309   3.015   9.768  0.7693  0.2571  0.5085
  423MOL0     H55815   1.427   2.919   9.683  0.9987 -0.2738  0.7597
  423MOL0     H55816   1.340   2.711   9.754  3.0534  1.4173 -1.8909
  423MOL0     H55817   1.206   2.798   9.682 -0.5839 -0.6454  0.8576
  423MOL0     H55818   2.200   2.949   9.922 -4.0222 -3.1309 -0.5695
  423MOL0     H55819   2.375   3.015  10.067  0.2132 -1.7118 -3.6872
  423MOL0     H55820   2.522   3.003  10.474 -0.3155 -0.1474  1.4578
  423MOL0     H55821   2.659   3.068  10.658  0.7407 -3.2762  2.3290
  423MOL0     H55822   4.560   2.464  10.406 -1.8706  0.2907  2.5334
  423MOL0     H55823   4.802   2.492  10.392 -1.6430  5.1442 -1.0159
  423MOL0     H55824   5.258   2.440  10.335 -0.9491 -0.9675  0.2335
  423MOL0     H55825   5.485   2.396  10.391  3.6511 -0.7161  3.0176
  423MOL0     H55826   5.732   2.337  10.503 -1.0318 -1.6380 -2.6534
  423MOL0     H55827   5.604   2.221  10.534  1.8750 -0.1231 -0.7878
  423MOL0     H55828   5.841   2.177  10.613  0.8012  0.4668 -0.6429
  423MOL0     H55829   5.821   2.310  10.730  2.4905  0.4378 -1.8822
  423MOL0     H55830   5.627   2.071  10.728 -0.8676 -0.9213  2.3282
  423MOL0     H55831   5.632   2.195  10.838  0.9112 -1.7616  2.3974
  423MOL0     H55832   5.742   1.978  10.912 -0.2014 -0.3121 -0.3393
  423MOL0     H55833   5.877   2.015  10.804 -1.0113  0.3852 -0.9801
  423MOL0     H55834   6.025   2.294  11.037 -2.1250  2.7705 -1.6470
  423MOL0     H55835   5.406   2.487  10.803  2.2180  0.1174 -1.4779
  423MOL0     H55836   5.193   2.575  10.747  2.7111  2.7852 -0.2539
  424MOL0     O55837   0.163   6.933   7.747 -1.1329  0.2512 -0.2535
  424MOL0     C55838   0.099   6.852   7.679  0.6438  0.7574  0.3229
  424MOL0     O55839   0.137   6.729   7.641 -0.4133 -0.1261 -0.2609
  424MOL0     C55840   0.263   6.685   7.668  0.0100 -0.9248  0.2089
  424MOL0     C55841   0.268   6.544   7.673 -0.3506 -0.3544 -0.3444
  424MOL0     C55842   0.392   6.482   7.691  0.5438 -0.3664  0.4883
  424MOL0     C55843   0.516   6.553   7.701  0.6362  0.7417  0.8405
  424MOL0     O55844   0.635   6.493   7.711 -0.1884 -0.2064 -0.4880
  424MOL0     C55845   0.657   6.354   7.677  0.5623  0.0876  0.3080
  424MOL0     C55846   0.812   6.348   7.710  0.0908  0.0037 -0.2643
  424MOL0     C55847   0.895   6.401   7.589  0.0940  1.0628 -0.4849
  424MOL0     C55848   1.050   6.387   7.612  0.3336  0.8297  0.5455
  424MOL0     C55849   1.124   6.417   7.487 -0.3173 -0.3121  0.0984
  424MOL0     C55850   1.281   6.384   7.496  0.5779 -0.8009 -0.4650
  424MOL0     C55851   1.319   6.241   7.482 -0.0620  0.5565  0.3383
  424MOL0     C55852   1.475   6.223   7.458  0.6091 -0.1865  0.5882
  424MOL0     N55853   1.560   6.261   7.567  0.6667  0.4989 -0.5411
  424MOL0     C55854   1.538   6.240   7.698  0.2425 -0.4230 -0.9366
  424MOL0     C55855   1.621   6.324   7.771 -0.0454 -0.0105 -0.0488
  424MOL0     C55856   1.628   6.320   7.920  0.7036  0.0281 -0.0422
  424MOL0     C55857   1.528   6.421   7.984 -0.2484  0.4358 -0.0044
  424MOL0     C55858   1.382   6.395   7.949  0.2704  0.4744  0.2847
  424MOL0     C55859   1.279   6.485   8.021 -0.7707 -0.6167 -0.2319
  424MOL0     O55860   1.163   6.521   7.937 -0.3893 -0.2025  0.1201
  424MOL0     C55861   1.075   6.602   7.998 -0.5855 -0.1257 -0.3488
  424MOL0     C55862   1.063   6.629   8.131 -0.6273  0.9068  0.2555
  424MOL0     C55863   0.968   6.715   8.180 -0.0400 -0.3717  0.3604
  424MOL0     C55864   0.869   6.782   8.097 -0.9033  0.8017  0.1635
  424MOL0     C55865   0.766   6.871   8.158  0.6870  0.0203  0.0684
  424MOL0     O55866   0.659   6.891   8.080  0.2156  0.0357  0.4500
  424MOL0     C55867   0.547   6.966   8.110 -0.1857  1.5098  0.0230
  424MOL0     C55868   0.446   6.965   8.012  0.3306 -0.3843 -0.5123
  424MOL0     C55869   0.326   7.027   8.035  0.0018  0.3581  0.0944
  424MOL0     C55870   0.296   7.086   8.151 -0.1620 -0.5428 -0.5317
  424MOL0     O55871   0.170   7.135   8.187 -0.9823  0.7287 -0.1359
  424MOL0     C55872   0.063   7.112   8.091  0.9956 -0.3934 -0.2875
  424MOL0     C55873  -0.066   7.180   8.142  0.4367 -0.3306  0.2894
  424MOL0     C55874  -0.176   7.166   8.033 -0.1953  0.1699  0.2952
  424MOL0     C55875  -0.306   7.229   8.077 -0.0998 -0.0350  0.6605
  424MOL0     C55876  -0.418   7.202   7.966 -0.0797 -1.1878 -0.7590
  424MOL0     C55877  -0.550   7.256   8.005  0.0332  0.1103  0.0471
  424MOL0     C55878  -0.661   7.207   7.911  0.0258  0.0762 -0.1564
  424MOL0     C55879  -0.800   7.257   7.945 -1.0705 -1.2000 -0.1685
  424MOL0    Cl55880  -0.926   7.195   7.841  0.1685 -0.1352 -0.1643
  424MOL0     C55881   0.399   7.102   8.246 -0.0031  0.2081  0.8819
  424MOL0     C55882   0.522   7.040   8.224 -0.7843 -0.4467 -0.6795
  424MOL0     O55883   0.775   6.901   8.277 -1.2357 -0.4473  0.2932
  424MOL0     C55884   0.875   6.742   7.958 -0.7510 -0.0561 -0.1996
  424MOL0     C55885   0.984   6.661   7.914  0.7654  0.3696  0.6031
  424MOL0     N55886   1.701   6.382   7.673 -0.2145  0.0888  0.7339
  424MOL0     N55887   1.664   6.341   7.558 -0.3894  0.1735  0.4178
  424MOL0     C55888   0.513   6.687   7.711  0.2078  0.0745 -0.2615
  424MOL0     C55889   0.386   6.754   7.685 -0.7929  0.5951 -0.5047
  424MOL0     C55890  -0.041   6.892   7.640 -0.9375  0.3832 -0.2830
  424MOL0     C55891  -0.128   6.801   7.582  0.3276  0.2681  0.2221
  424MOL0     C55892  -0.264   6.836   7.556 -0.1415 -0.5636 -0.2215
  424MOL0     C55893  -0.307   6.967   7.585 -0.2554 -0.4255 -0.4750
  424MOL0     O55894  -0.435   6.993   7.548 -0.6218  0.2548  0.4586
  424MOL0     C55895  -0.495   7.120   7.549 -0.0214  0.2883 -0.0107
  424MOL0     C55896  -0.610   7.135   7.453  0.0653 -0.5799 -0.0123
  424MOL0     C55897  -0.615   7.277   7.400  0.6670  0.1451 -0.9183
  424MOL0     C55898  -0.746   7.318   7.332 -0.4809  0.9628 -0.2659
  424MOL0     C55899  -0.735   7.462   7.305 -0.0051  0.1222  0.4711
  424MOL0     C55900  -0.749   7.585   7.285  0.4426  1.3371 -0.0376
  424MOL0     C55901  -0.213   7.059   7.641  0.6762 -0.4283  0.0569
  424MOL0     C55902  -0.085   7.024   7.667 -1.1364  0.6928 -0.1597
  424MOL0     H55903   0.181   6.482   7.656 -2.2032  2.2918 -1.0230
  424MOL0     H55904   0.400   6.374   7.683  0.3372 -0.3580  0.1523
  424MOL0     H55905   0.648   6.321   7.573 -0.0557 -0.2270  0.4557
  424MOL0     H55906   0.599   6.288   7.742 -1.4135  2.7888  1.4987
  424MOL0     H55907   0.839   6.244   7.730  0.1357  0.3091  1.3617
  424MOL0     H55908   0.841   6.400   7.802  2.0942 -1.0304 -0.2686
  424MOL0     H55909   0.871   6.506   7.568  5.2568  2.7229  0.4485
  424MOL0     H55910   0.860   6.359   7.494 -2.0588 -3.5859  2.0527
  424MOL0     H55911   1.082   6.471   7.673  0.5296  1.2258 -0.0864
  424MOL0     H55912   1.071   6.289   7.655 -2.8954 -2.1168 -3.7378
  424MOL0     H55913   1.122   6.521   7.451  0.4406 -1.5654 -4.1076
  424MOL0     H55914   1.085   6.367   7.398  0.3442  2.0836 -1.6611
  424MOL0     H55915   1.330   6.422   7.585  0.2086 -1.6216  0.1034
  424MOL0     H55916   1.326   6.439   7.413 -3.8016  4.4494  0.0267
  424MOL0     H55917   1.283   6.187   7.570 -3.0668  1.2437 -0.3604
  424MOL0     H55918   1.270   6.195   7.395 -0.0651 -0.8074  1.0224
  424MOL0     H55919   1.505   6.277   7.368  1.3790 -0.6195  0.5787
  424MOL0     H55920   1.493   6.117   7.436 -2.7815 -0.2918 -2.7164
  424MOL0     H55921   1.461   6.181   7.747  1.1836 -0.3920  0.6418
  424MOL0     H55922   1.731   6.335   7.956 -0.2058  0.5497  2.5941
  424MOL0     H55923   1.606   6.217   7.950  0.3897 -0.0012 -0.3670
  424MOL0     H55924   1.556   6.524   7.960  2.2714 -0.5321 -1.5509
  424MOL0     H55925   1.548   6.413   8.091  1.3096 -0.9144 -0.3526
  424MOL0     H55926   1.373   6.407   7.840 -1.1865 -1.6779  0.0989
  424MOL0     H55927   1.356   6.289   7.960 -0.7358  0.8245  1.4211
  424MOL0     H55928   1.325   6.580   8.050  0.0203 -1.6893  2.2872
  424MOL0     H55929   1.238   6.436   8.110 -0.2486  2.6589  1.9905
  424MOL0     H55930   1.129   6.588   8.207  0.5374  0.8595 -0.7558
  424MOL0     H55931   0.949   6.733   8.285 -0.5261  1.0008  0.0591
  424MOL0     H55932   0.470   6.922   7.915 -0.2747  0.4316 -1.0406
  424MOL0     H55933   0.247   7.025   7.961 -1.8334 -2.7604  1.9139
  424MOL0     H55934   0.040   7.006   8.076 -1.3068 -0.0472  0.3293
  424MOL0     H55935   0.080   7.151   7.990  1.9677 -2.9702 -1.1956
  424MOL0     H55936  -0.048   7.287   8.147 -0.0497 -0.2788  0.9350
  424MOL0     H55937  -0.109   7.152   8.238  1.1580 -4.7452 -0.4282
  424MOL0     H55938  -0.187   7.059   8.016 -1.3977  0.3046  0.1437
  424MOL0     H55939  -0.137   7.221   7.947  1.6799 -0.2777  0.8081
  424MOL0     H55940  -0.331   7.199   8.179  1.7608  0.6214  1.3616
  424MOL0     H55941  -0.292   7.337   8.076  0.4695 -0.1036  0.8239
  424MOL0     H55942  -0.437   7.094   7.958  0.9193 -1.3678 -0.7539
  424MOL0     H55943  -0.398   7.250   7.870 -1.1443 -0.7605 -0.7824
  424MOL0     H55944  -0.539   7.362   7.982 -1.1016 -0.1017 -1.6893
  424MOL0     H55945  -0.562   7.230   8.110  1.3267  2.8416  0.9824
  424MOL0     H55946  -0.637   7.242   7.810 -1.9398  1.5281 -0.1802
  424MOL0     H55947  -0.674   7.099   7.914 -0.2747  0.1040  3.0525
  424MOL0     H55948  -0.811   7.366   7.948 -1.3583 -1.2411  0.4011
  424MOL0     H55949  -0.821   7.218   8.045  0.5649 -2.2889 -0.2131
  424MOL0     H55950   0.365   7.151   8.338 -0.6816 -0.5299  1.0317
  424MOL0     H55951   0.600   7.056   8.297  0.8763  1.6760 -2.7474
  424MOL0     H55952   0.803   6.784   7.889 -0.3777  0.7510 -0.1136
  424MOL0     H55953   0.989   6.621   7.814  3.6288  1.0402  0.4009
  424MOL0     H55954   0.607   6.739   7.694  0.6658 -0.7199 -0.2442
  424MOL0     H55955   0.381   6.862   7.676 -2.8764  1.1324  4.1090
  424MOL0     H55956  -0.099   6.697   7.576  0.0733  0.1815  0.4886
  424MOL0     H55957  -0.336   6.771   7.508 -0.4653 -2.1716  2.2714
  424MOL0     H55958  -0.427   7.201   7.520 -1.0015  0.7500 -1.0861
  424MOL0     H55959  -0.527   7.132   7.653  0.6995  0.6193  0.1800
  424MOL0     H55960  -0.607   7.057   7.377  1.3758  0.7548 -1.4252
  424MOL0     H55961  -0.708   7.122   7.500  0.9195 -0.4558  1.8944
  424MOL0     H55962  -0.536   7.287   7.324  2.2781 -0.0007  0.6629
  424MOL0     H55963  -0.612   7.346   7.485 -0.3261 -0.8363 -0.0715
  424MOL0     H55964  -0.755   7.259   7.240  0.3059  0.4773 -0.0411
  424MOL0     H55965  -0.831   7.307   7.400 -1.3743  1.6431 -1.2338
  424MOL0     H55966  -0.766   7.690   7.272  3.1771  1.6770 -1.8587
  424MOL0     H55967  -0.255   7.158   7.654 -1.3251 -1.2820  0.4431
  424MOL0     H55968  -0.007   7.092   7.701 -0.6632  0.7139 -1.2471
  425MOL0     O55969   4.294   1.819   9.902 -0.0077 -0.2271  0.2991
  425MOL0     C55970   4.278   1.896   9.804  0.5177  0.0685  1.2776
  425MOL0     O55971   4.145   1.936   9.758  0.4213 -0.3351 -0.0819
  425MOL0     C55972   4.036   1.853   9.759  0.1845 -0.1481 -0.2263
  425MOL0     C55973   3.915   1.919   9.768  1.0268 -1.2297  0.1290
  425MOL0     C55974   3.798   1.839   9.776  0.3060 -0.0096 -0.1887
  425MOL0     C55975   3.814   1.696   9.761 -0.2279  0.1936  0.4186
  425MOL0     O55976   3.718   1.600   9.766  0.4986 -0.6570 -1.1861
  425MOL0     C55977   3.590   1.655   9.796  0.1873  0.5581 -0.4488
  425MOL0     C55978   3.495   1.537   9.821  0.2497  0.0411 -0.2701
  425MOL0     C55979   3.455   1.448   9.706  0.0333  0.4707  1.0064
  425MOL0     C55980   3.357   1.341   9.751  0.6894 -0.3799  0.0964
  425MOL0     C55981   3.302   1.283   9.625  0.6445 -0.0154 -0.5525
  425MOL0     C55982   3.206   1.157   9.637  0.0885  0.5576 -0.0239
  425MOL0     C55983   3.218   1.058   9.517  0.0462  0.6329  0.4186
  425MOL0     C55984   3.127   0.937   9.542  0.6779  0.0711  0.6867
  425MOL0     N55985   2.998   0.992   9.525 -0.1387 -0.2462  0.6582
  425MOL0     C55986   2.926   1.033   9.627  0.1668  0.3298 -0.4980
  425MOL0     C55987   2.807   1.064   9.580 -0.6269  0.4368  0.1014
  425MOL0     C55988   2.685   1.067   9.674 -0.0435  0.2645 -1.1123
  425MOL0     C55989   2.674   0.956   9.775 -0.9616 -0.4912 -0.0321
  425MOL0     C55990   2.684   0.823   9.711  0.2101  0.2102 -0.7015
  425MOL0     C55991   2.598   0.788   9.583 -0.5543 -0.0264  0.7871
  425MOL0     O55992   2.456   0.816   9.624 -0.6806  0.5405  0.1024
  425MOL0     C55993   2.356   0.807   9.536 -0.6530 -0.5603 -0.0919
  425MOL0     C55994   2.377   0.784   9.397 -0.2732 -0.1558 -0.8649
  425MOL0     C55995   2.273   0.775   9.301  0.5050  0.3595 -0.1054
  425MOL0     C55996   2.140   0.802   9.346 -0.7659  0.5702  0.0230
  425MOL0     C55997   2.020   0.780   9.259 -0.6651  0.0310  1.0851
  425MOL0     O55998   1.902   0.836   9.300 -0.2346 -0.0653 -0.2783
  425MOL0     C55999   1.781   0.810   9.226 -0.5759 -0.1639 -0.7990
  425MOL0     C56000   1.671   0.880   9.277 -0.2590  0.8726 -0.6226
  425MOL0     C56001   1.544   0.862   9.230 -0.2413 -0.2261  1.2212
  425MOL0     C56002   1.521   0.779   9.119  0.3955 -0.1004  0.2939
  425MOL0     O56003   1.395   0.763   9.080  0.9388 -0.6910  1.0450
  425MOL0     C56004   1.368   0.709   8.949  0.3088  0.1297 -0.1522
  425MOL0     C56005   1.228   0.737   8.924  1.3218  0.3088 -0.4960
  425MOL0     C56006   1.188   0.683   8.786  0.4668  0.4653 -0.1544
  425MOL0     C56007   1.044   0.705   8.746  0.5686  0.3590 -0.0551
  425MOL0     C56008   1.020   0.651   8.602  0.1808 -0.2053  0.1352
  425MOL0     C56009   0.971   0.509   8.584  0.9442  0.6808 -0.6234
  425MOL0     C56010   0.949   0.484   8.433  0.1030  1.1912 -0.3454
  425MOL0     C56011   0.864   0.358   8.423  0.5138  0.5855  0.1107
  425MOL0    Cl56012   0.954   0.213   8.488 -0.5375  0.5183  0.5752
  425MOL0     C56013   1.626   0.714   9.067 -0.2498  0.0783 -0.9453
  425MOL0     C56014   1.756   0.727   9.123 -0.5584 -0.8664  0.5117
  425MOL0     O56015   2.042   0.716   9.154  0.2700 -0.0324 -0.6925
  425MOL0     C56016   2.119   0.815   9.486 -1.2923 -0.7803 -0.8217
  425MOL0     C56017   2.228   0.832   9.576 -0.2895  0.1741 -0.4976
  425MOL0     N56018   2.810   1.045   9.445  0.4568 -0.1061 -0.4703
  425MOL0     N56019   2.925   0.997   9.409  0.9273 -0.7305 -0.2443
  425MOL0     C56020   3.940   1.640   9.744 -0.0277  0.2355 -0.5661
  425MOL0     C56021   4.048   1.717   9.752  0.2085  0.1603 -0.1376
  425MOL0     C56022   4.386   1.971   9.750  1.0028  0.4435 -0.3864
  425MOL0     C56023   4.376   2.055   9.638  0.6122  0.8934 -0.2203
  425MOL0     C56024   4.487   2.116   9.584  0.5428  0.0366  0.9547
  425MOL0     C56025   4.609   2.108   9.648  0.7592 -0.8550  0.1578
  425MOL0     O56026   4.704   2.175   9.575  0.0340 -0.8136 -0.9415
  425MOL0     C56027   4.792   2.252   9.664  0.4832  0.2926  0.2111
  425MOL0     C56028   4.889   2.330   9.569 -0.1248 -0.7957  0.5769
  425MOL0     C56029   4.827   2.445   9.487 -0.0763  0.9196 -0.0816
  425MOL0     C56030   4.927   2.561   9.463  0.3459 -0.1456 -0.0343
  425MOL0     C56031   5.032   2.525   9.369 -0.6573 -0.0002  0.0458
  425MOL0     C56032   5.124   2.495   9.286  0.8752 -0.9679 -0.0387
  425MOL0     C56033   4.620   2.043   9.770  0.0474  0.0236  0.7324
  425MOL0     C56034   4.504   1.979   9.824  0.7689  0.0234  0.2598
  425MOL0     H56035   3.916   2.027   9.782  2.3137 -1.0546 -1.0559
  425MOL0     H56036   3.704   1.893   9.789 -0.0835  0.1743 -3.1810
  425MOL0     H56037   3.564   1.725   9.717  1.0789 -0.8370 -2.0383
  425MOL0     H56038   3.594   1.715   9.888 -3.8386  1.1988 -0.5211
  425MOL0     H56039   3.405   1.575   9.872  0.8727 -1.3310  1.9980
  425MOL0     H56040   3.536   1.474   9.900 -0.5227 -1.4103 -0.9898
  425MOL0     H56041   3.549   1.411   9.666  0.5557  2.0431  0.6908
  425MOL0     H56042   3.403   1.504   9.628  0.0329 -2.7395 -1.5208
  425MOL0     H56043   3.415   1.274   9.816  1.5290  0.2018 -0.0343
  425MOL0     H56044   3.280   1.384   9.815  1.6931 -1.4543  2.1355
  425MOL0     H56045   3.383   1.258   9.556 -0.6278 -0.2304 -2.0228
  425MOL0     H56046   3.232   1.353   9.578  0.2520  0.3568  0.5580
  425MOL0     H56047   3.105   1.198   9.643 -0.0113  0.7001 -2.0294
  425MOL0     H56048   3.236   1.098   9.724  1.5161  0.0708 -0.8101
  425MOL0     H56049   3.191   1.116   9.429  0.0780 -1.1677 -0.8309
  425MOL0     H56050   3.320   1.021   9.497  0.1162 -0.1324  1.9963
  425MOL0     H56051   3.152   0.898   9.641 -0.5240 -0.5866  0.7567
  425MOL0     H56052   3.157   0.860   9.470  3.6492 -0.4559  2.3009
  425MOL0     H56053   2.952   1.013   9.731  0.1522 -0.6747 -0.6773
  425MOL0     H56054   2.593   1.069   9.616  0.3210  1.0353 -1.6986
  425MOL0     H56055   2.686   1.161   9.731 -1.8080 -2.4398  3.9524
  425MOL0     H56056   2.584   0.965   9.838  1.6176 -1.5747  4.2457
  425MOL0     H56057   2.762   0.963   9.839 -0.2399 -2.0339 -0.8307
  425MOL0     H56058   2.790   0.804   9.692  0.5028  0.6231  0.4313
  425MOL0     H56059   2.661   0.746   9.785  0.0980  1.3033  0.4298
  425MOL0     H56060   2.613   0.683   9.555 -1.3308 -0.2387  1.1301
  425MOL0     H56061   2.638   0.850   9.503 -0.7299 -0.4239  0.3836
  425MOL0     H56062   2.480   0.772   9.364  0.3551 -1.1286  1.2573
  425MOL0     H56063   2.302   0.765   9.197  1.0422  0.3230  0.0415
  425MOL0     H56064   1.681   0.954   9.356 -1.7416  1.8740 -1.3444
  425MOL0     H56065   1.462   0.920   9.272  0.3330  0.4851  1.3650
  425MOL0     H56066   1.382   0.601   8.941 -1.2825 -0.2278  1.3094
  425MOL0     H56067   1.424   0.765   8.873 -0.7060  0.5653 -0.6076
  425MOL0     H56068   1.219   0.846   8.926  1.1008  0.3958  4.0352
  425MOL0     H56069   1.163   0.705   9.006  0.6980  3.8187  0.5207
  425MOL0     H56070   1.209   0.576   8.786 -3.8685 -0.6824  3.4485
  425MOL0     H56071   1.255   0.740   8.720  1.0846 -0.5919 -0.4775
  425MOL0     H56072   0.974   0.657   8.815 -0.7526  0.4680 -1.2684
  425MOL0     H56073   1.018   0.811   8.752 -2.9564 -0.2260 -2.2635
  425MOL0     H56074   1.106   0.661   8.537 -0.3822 -2.5809 -1.0911
  425MOL0     H56075   0.937   0.712   8.564  0.0817 -0.6227 -0.3307
  425MOL0     H56076   0.884   0.484   8.646  1.0793 -0.0446 -0.7157
  425MOL0     H56077   1.049   0.437   8.611 -1.2135 -1.3136  0.7937
  425MOL0     H56078   0.892   0.567   8.391 -0.1513  1.1750 -0.0363
  425MOL0     H56079   1.032   0.455   8.367 -2.8060 -0.0643 -3.7631
  425MOL0     H56080   0.838   0.330   8.321  0.4252 -2.5550  0.8865
  425MOL0     H56081   0.770   0.365   8.478  1.2647  3.1593  1.2424
  425MOL0     H56082   1.606   0.641   8.989  0.4663 -2.5007  1.1506
  425MOL0     H56083   1.838   0.667   9.083  1.0569  1.8063 -0.4590
  425MOL0     H56084   2.020   0.816   9.529 -1.2566  0.7031 -0.7185
  425MOL0     H56085   2.207   0.850   9.681  2.1279  1.3618 -0.1563
  425MOL0     H56086   3.953   1.533   9.733 -1.8930 -0.1556  0.6903
  425MOL0     H56087   4.146   1.675   9.734  0.9108  1.2964  0.8716
  425MOL0     H56088   4.286   2.071   9.579  1.9105  0.9864 -2.2730
  425MOL0     H56089   4.483   2.177   9.494  5.8375  2.2475  1.8004
  425MOL0     H56090   4.856   2.183   9.720  0.4261 -0.4923 -0.6662
  425MOL0     H56091   4.744   2.310   9.743 -0.9556 -1.4933  0.7050
  425MOL0     H56092   4.968   2.377   9.628 -3.4911  3.5438  2.2496
  425MOL0     H56093   4.937   2.265   9.496  0.5921  0.4982 -0.1374
  425MOL0     H56094   4.754   2.496   9.551  1.3095 -0.6240  2.9230
  425MOL0     H56095   4.773   2.402   9.402 -2.0761 -2.1318  2.5320
  425MOL0     H56096   4.883   2.651   9.417  3.4760  1.4985 -0.1063
  425MOL0     H56097   4.973   2.594   9.557  0.6428 -2.2814  0.6096
  425MOL0     H56098   5.198   2.483   9.210 -1.0176  2.4612 -2.7466
  425MOL0     H56099   4.712   2.041   9.827 -2.3835 -0.0211  5.1268
  425MOL0     H56100   4.521   1.926   9.917  0.2290  1.2713  1.1069
  426MOL0     O56101   0.019   4.443   4.924 -0.3331 -0.5182 -0.7277
  426MOL0     C56102  -0.014   4.367   5.018  0.5619 -0.5950  0.2878
  426MOL0     O56103  -0.137   4.363   5.083 -0.8064 -0.8093 -0.4764
  426MOL0     C56104  -0.250   4.402   5.016 -0.2732 -0.6689 -0.0854
  426MOL0     C56105  -0.260   4.464   4.890  0.4553 -0.0130 -0.4553
  426MOL0     C56106  -0.389   4.509   4.841 -1.1355 -0.2806 -0.1868
  426MOL0     C56107  -0.501   4.468   4.907  0.1914 -0.1010 -0.4115
  426MOL0     O56108  -0.625   4.495   4.860 -0.2677  0.0875  0.8719
  426MOL0     C56109  -0.643   4.444   4.727 -0.0050 -0.1259 -0.3147
  426MOL0     C56110  -0.774   4.382   4.679  0.6067  0.0466 -0.4525
  426MOL0     C56111  -0.913   4.454   4.716 -0.0064 -0.7409  0.2587
  426MOL0     C56112  -1.034   4.358   4.735 -0.2761 -0.1331  0.3569
  426MOL0     C56113  -1.167   4.434   4.748 -0.7573 -0.5967  0.4083
  426MOL0     C56114  -1.270   4.345   4.822  0.0593  0.2709 -0.3317
  426MOL0     C56115  -1.409   4.403   4.822  0.6367  0.8924  0.4502
  426MOL0     C56116  -1.499   4.318   4.930 -1.2767  0.1094 -0.1516
  426MOL0     N56117  -1.621   4.388   4.965  0.0757  0.1467 -0.3558
  426MOL0     C56118  -1.633   4.445   5.085 -0.0906  1.2245 -1.0352
  426MOL0     C56119  -1.748   4.501   5.094 -0.0451  0.0222 -0.0955
  426MOL0     C56120  -1.784   4.593   5.206  0.2490  0.4911  0.0702
  426MOL0     C56121  -1.936   4.581   5.240  0.0294 -0.0633 -0.3681
  426MOL0     C56122  -2.041   4.643   5.144  0.2873 -0.0953  0.7947
  426MOL0     C56123  -2.054   4.792   5.167  0.3501 -0.2936  0.0664
  426MOL0     O56124  -2.178   4.841   5.111  0.1914 -0.1476  0.1776
  426MOL0     C56125  -2.297   4.845   5.177  0.3851  0.6224  0.0476
  426MOL0     C56126  -2.310   4.776   5.299 -0.3260 -0.2390  1.6254
  426MOL0     C56127  -2.432   4.774   5.365  0.6244 -0.0644  0.1433
  426MOL0     C56128  -2.549   4.848   5.323 -0.6264 -0.4267  0.2506
  426MOL0     C56129  -2.670   4.854   5.410 -0.1617  0.2963 -0.8394
  426MOL0     O56130  -2.770   4.940   5.378 -0.0771  0.3089 -1.0324
  426MOL0     C56131  -2.896   4.928   5.436  0.8621 -0.3208  0.1897
  426MOL0     C56132  -2.959   5.034   5.499  0.1229 -0.1103 -0.5994
  426MOL0     C56133  -3.097   5.019   5.539  0.5985 -0.4648 -0.8490
  426MOL0     C56134  -3.166   4.903   5.535  0.6877  0.3455 -0.4495
  426MOL0     O56135  -3.289   4.907   5.594 -0.3298 -0.5820 -0.0153
  426MOL0     C56136  -3.369   4.783   5.593 -0.1234 -0.5640  0.2490
  426MOL0     C56137  -3.492   4.805   5.685  0.1895 -0.2587  0.6456
  426MOL0     C56138  -3.447   4.795   5.823  0.5430  0.2761 -1.0745
  426MOL0     C56139  -3.540   4.874   5.917 -0.4142 -0.5911  0.1501
  426MOL0     C56140  -3.521   4.827   6.066 -0.0158 -0.5251 -0.0454
  426MOL0     C56141  -3.560   4.936   6.173  0.4378 -0.3163 -0.7040
  426MOL0     C56142  -3.720   4.956   6.170 -0.4446  0.9675  0.6801
  426MOL0     C56143  -3.748   5.023   6.305  0.6197  0.1121  0.1433
  426MOL0    Cl56144  -3.901   5.115   6.320 -0.0734 -0.2822 -0.7894
  426MOL0     C56145  -3.094   4.789   5.486  0.1039 -0.8534  0.6779
  426MOL0     C56146  -2.962   4.808   5.441 -0.1060  0.7903 -0.1555
  426MOL0     O56147  -2.672   4.776   5.504  0.7126  0.6321 -0.6297
  426MOL0     C56148  -2.532   4.913   5.199 -0.3273 -0.4749 -0.2488
  426MOL0     C56149  -2.408   4.919   5.132 -0.1378 -0.1283  0.7419
  426MOL0     N56150  -1.816   4.468   4.973 -0.0445 -0.0383 -1.0616
  426MOL0     N56151  -1.738   4.403   4.901  0.4368  0.8253  0.0493
  426MOL0     C56152  -0.492   4.400   5.024  0.1551 -0.2924 -0.4093
  426MOL0     C56153  -0.371   4.370   5.073  0.3935  0.1472 -0.1594
  426MOL0     C56154   0.088   4.299   5.090  0.9463 -0.1012 -0.3317
  426MOL0     C56155   0.070   4.242   5.217 -0.9356  0.1075 -0.8815
  426MOL0     C56156   0.178   4.172   5.276  0.1537  0.0123 -0.0814
  426MOL0     C56157   0.304   4.156   5.216 -0.1384 -0.2814  0.3844
  426MOL0     O56158   0.407   4.066   5.251  0.1186  0.0614  0.1518
  426MOL0     C56159   0.411   4.019   5.388  1.0755 -0.5276  0.1473
  426MOL0     C56160   0.442   4.139   5.480  0.0877 -0.3343  0.4273
  426MOL0     C56161   0.595   4.154   5.513  0.1349  0.6009  0.3741
  426MOL0     C56162   0.668   4.192   5.375 -0.0598 -0.5046 -0.5594
  426MOL0     C56163   0.818   4.212   5.388  0.4794 -1.0305  0.6259
  426MOL0     C56164   0.938   4.236   5.412 -0.9937  0.2550 -0.6302
  426MOL0     C56165   0.319   4.220   5.088  0.0588  0.4602  0.0618
  426MOL0     C56166   0.209   4.288   5.027  0.1722  0.4470  0.2671
  426MOL0     H56167  -0.177   4.475   4.821  0.8328 -0.2282 -0.0427
  426MOL0     H56168  -0.390   4.575   4.754 -3.0455  0.1119  0.0740
  426MOL0     H56169  -0.567   4.371   4.698  1.2172  1.6195 -1.7057
  426MOL0     H56170  -0.632   4.538   4.672 -5.3235  1.7250  1.1643
  426MOL0     H56171  -0.768   4.283   4.726  2.4201  0.5707  0.4764
  426MOL0     H56172  -0.761   4.361   4.572 -0.6668 -0.6967 -0.4843
  426MOL0     H56173  -0.941   4.527   4.640 -3.4569 -0.6963  1.3794
  426MOL0     H56174  -0.901   4.503   4.814 -0.4879 -1.5286  0.7206
  426MOL0     H56175  -1.033   4.290   4.649 -0.5548  1.9880 -1.4055
  426MOL0     H56176  -1.026   4.292   4.822 -0.6846 -2.1122 -1.0233
  426MOL0     H56177  -1.203   4.461   4.649  0.4796  1.5682  0.4814
  426MOL0     H56178  -1.157   4.527   4.805 -1.7706 -0.0523 -0.2807
  426MOL0     H56179  -1.237   4.341   4.926  0.4331  0.1197 -0.4569
  426MOL0     H56180  -1.265   4.244   4.779  1.4599  0.2157 -0.0717
  426MOL0     H56181  -1.401   4.509   4.846 -1.5562  1.7515 -2.1130
  426MOL0     H56182  -1.456   4.393   4.724  2.0089 -1.9850 -0.0161
  426MOL0     H56183  -1.453   4.281   5.022 -1.4940 -1.4301 -0.6486
  426MOL0     H56184  -1.516   4.218   4.890  1.4010 -0.4396 -0.1097
  426MOL0     H56185  -1.557   4.455   5.162 -1.0260  1.1482 -0.0682
  426MOL0     H56186  -1.762   4.698   5.184  1.0171  0.3051 -0.0828
  426MOL0     H56187  -1.719   4.557   5.286 -0.4730 -1.8312 -0.3212
  426MOL0     H56188  -1.953   4.633   5.335 -2.0389  2.0524 -1.7778
  426MOL0     H56189  -1.962   4.478   5.265 -1.1244  0.6328  1.5483
  426MOL0     H56190  -2.008   4.636   5.040 -0.4750  1.0830  0.4542
  426MOL0     H56191  -2.137   4.591   5.147 -0.0973  0.5716  0.3264
  426MOL0     H56192  -1.961   4.831   5.125  0.9553 -1.5755  0.1653
  426MOL0     H56193  -2.043   4.812   5.274 -2.5272 -0.5343  0.4812
  426MOL0     H56194  -2.227   4.718   5.338 -1.3814 -0.9268  2.9584
  426MOL0     H56195  -2.444   4.702   5.446 -0.0916 -2.8838 -2.2746
  426MOL0     H56196  -2.907   5.130   5.502  1.6554 -0.8864  2.6817
  426MOL0     H56197  -3.149   5.108   5.573  3.9915  0.5171  2.3827
  426MOL0     H56198  -3.309   4.699   5.629  1.3136  1.5929  3.3932
  426MOL0     H56199  -3.397   4.760   5.490  2.9821  0.2761 -0.9254
  426MOL0     H56200  -3.569   4.731   5.662 -0.3152  0.4399  0.0217
  426MOL0     H56201  -3.526   4.905   5.656  0.7820 -1.1136 -3.6291
  426MOL0     H56202  -3.348   4.836   5.843  2.1708 -3.4484 -0.7865
  426MOL0     H56203  -3.433   4.689   5.842 -0.8405 -0.6720 -4.5082
  426MOL0     H56204  -3.531   4.981   5.898  5.2392 -1.1529 -2.4487
  426MOL0     H56205  -3.646   4.864   5.892 -0.1844  3.3485 -3.4495
  426MOL0     H56206  -3.413   4.813   6.080 -0.1866 -0.0140  2.0622
  426MOL0     H56207  -3.572   4.733   6.089 -0.8124  0.1164  0.8820
  426MOL0     H56208  -3.506   5.030   6.161  1.4165 -0.7920 -0.1841
  426MOL0     H56209  -3.531   4.889   6.268  2.6806 -1.4542 -1.8743
  426MOL0     H56210  -3.743   5.013   6.079 -0.6301  0.0090  0.1008
  426MOL0     H56211  -3.772   4.860   6.171  2.4214 -0.7238  0.1692
  426MOL0     H56212  -3.670   5.098   6.325  0.9978 -0.3527  0.4338
  426MOL0     H56213  -3.749   4.951   6.387  2.1159  0.5669  0.6160
  426MOL0     H56214  -3.133   4.688   5.475 -2.0109 -0.0171  0.0032
  426MOL0     H56215  -2.919   4.715   5.404 -4.1474 -1.8261  1.0438
  426MOL0     H56216  -2.617   4.973   5.168 -0.3942 -0.1170  0.5958
  426MOL0     H56217  -2.386   4.975   5.042 -0.7077 -0.6386  0.2825
  426MOL0     H56218  -0.577   4.380   5.088  1.1562  1.3303  1.5652
  426MOL0     H56219  -0.360   4.330   5.173  0.8059  1.8385  0.5051
  426MOL0     H56220  -0.028   4.243   5.264 -0.9093  1.2146 -0.8220
  426MOL0     H56221   0.138   4.111   5.357  0.5975 -0.0856  0.0664
  426MOL0     H56222   0.475   3.933   5.408  3.2788  0.4613 -2.1146
  426MOL0     H56223   0.308   3.993   5.416  0.9596  1.5291  1.9382
  426MOL0     H56224   0.397   4.229   5.437  1.0017  0.5306  1.2091
  426MOL0     H56225   0.389   4.127   5.576  1.5822  2.0688  1.6693
  426MOL0     H56226   0.636   4.058   5.542  1.0057 -0.0330 -2.6158
  426MOL0     H56227   0.620   4.237   5.580  4.4017 -1.7079  1.9927
  426MOL0     H56228   0.649   4.117   5.298  1.0866 -1.3043 -0.0891
  426MOL0     H56229   0.620   4.283   5.337 -0.0997 -1.2265 -2.3592
  426MOL0     H56230   1.041   4.258   5.433 -0.6551 -0.4317 -1.4756
  426MOL0     H56231   0.409   4.188   5.038 -0.4873  0.2089 -0.7792
  426MOL0     H56232   0.219   4.305   4.920  0.1465  1.0200  0.3509
  427MOL0     O56233   6.722   5.971   3.958 -0.2948 -0.6812  0.3392
  427MOL0     C56234   6.739   5.918   3.856  0.6657  0.8310 -0.6566
  427MOL0     O56235   6.854   5.935   3.771  0.9161 -0.0314 -0.3636
  427MOL0     C56236   6.934   6.046   3.781 -0.4410 -0.5959 -0.0377
  427MOL0     C56237   6.888   6.171   3.803  0.0042 -0.8847  0.9762
  427MOL0     C56238   6.968   6.284   3.797 -0.7947  0.7204 -0.2156
  427MOL0     C56239   7.105   6.269   3.769  0.9350  0.2819  0.4541
  427MOL0     O56240   7.179   6.384   3.750  0.1956  0.3345  0.0292
  427MOL0     C56241   7.300   6.397   3.824 -0.3032 -0.1390  0.6866
  427MOL0     C56242   7.371   6.515   3.777  0.7538  0.4305  0.5193
  427MOL0     C56243   7.498   6.556   3.856 -0.4847  0.2090  0.2087
  427MOL0     C56244   7.567   6.686   3.804 -0.1484 -0.4624 -0.6042
  427MOL0     C56245   7.679   6.707   3.897  0.1592 -0.5711 -0.8484
  427MOL0     C56246   7.800   6.787   3.836 -0.4323  0.5195 -0.3991
  427MOL0     C56247   7.782   6.939   3.839  0.2029  0.1446 -0.3111
  427MOL0     C56248   7.872   7.027   3.764 -0.7461 -0.4324 -0.2832
  427MOL0     N56249   8.005   7.037   3.832 -0.6325 -0.3197 -0.4898
  427MOL0     C56250   8.033   7.083   3.958  0.5224 -0.2888 -0.0256
  427MOL0     C56251   8.172   7.070   3.972  0.5262  0.1995  0.2413
  427MOL0     C56252   8.253   7.124   4.084 -0.7186  0.5775  0.3222
  427MOL0     C56253   8.210   7.056   4.219  0.5821  0.1153 -0.0614
  427MOL0     C56254   8.218   6.898   4.210 -0.2761 -0.3134 -0.1745
  427MOL0     C56255   8.087   6.826   4.174 -0.7931  0.2417  0.3811
  427MOL0     O56256   8.116   6.685   4.201 -0.1099  1.1126 -0.4186
  427MOL0     C56257   8.016   6.591   4.217 -0.0295  0.5930 -0.0938
  427MOL0     C56258   8.047   6.457   4.215  0.6874  0.5242 -0.1427
  427MOL0     C56259   7.945   6.358   4.235  0.7611 -0.5359 -0.3122
  427MOL0     C56260   7.813   6.409   4.246  0.2139  0.7640 -0.2741
  427MOL0     C56261   7.700   6.312   4.245  0.7794  0.0819  0.2684
  427MOL0     O56262   7.576   6.363   4.236  0.5002  0.7141  0.5683
  427MOL0     C56263   7.474   6.276   4.256 -0.6471  0.1662  0.1201
  427MOL0     C56264   7.411   6.203   4.155 -0.9590  0.5775  0.0687
  427MOL0     C56265   7.304   6.121   4.183 -0.2163  0.1818 -0.0336
  427MOL0     C56266   7.251   6.117   4.314 -0.0053 -0.2149  0.3545
  427MOL0     O56267   7.138   6.061   4.351  0.1672 -0.3539  0.2484
  427MOL0     C56268   7.037   6.025   4.240  1.1151 -0.1383 -0.5582
  427MOL0     C56269   7.031   5.880   4.196 -0.2378 -0.2564 -0.3342
  427MOL0     C56270   7.036   5.776   4.302 -0.3452 -1.2217  0.7592
  427MOL0     C56271   6.891   5.765   4.368  0.1519  0.6637  0.0949
  427MOL0     C56272   6.805   5.655   4.282 -0.2317 -0.4244 -0.6036
  427MOL0     C56273   6.675   5.653   4.361  0.0713  1.1553  0.3864
  427MOL0     C56274   6.563   5.572   4.302  0.0571 -0.4871  0.0593
  427MOL0     C56275   6.567   5.584   4.154 -0.0916  0.0242  0.6217
  427MOL0    Cl56276   6.451   5.460   4.078 -0.6817 -0.1213  0.4540
  427MOL0     C56277   7.315   6.182   4.417  0.1055  0.2323  0.2497
  427MOL0     C56278   7.422   6.267   4.388  0.4340 -0.3364 -0.5251
  427MOL0     O56279   7.725   6.190   4.255 -0.6565  0.3202  0.5448
  427MOL0     C56280   7.786   6.543   4.239  0.8577  0.4728  0.6073
  427MOL0     C56281   7.885   6.637   4.224  0.5260  0.9896  0.0721
  427MOL0     N56282   8.225   7.001   3.863 -0.4127 -0.2857 -1.0732
  427MOL0     N56283   8.127   6.989   3.773  0.0135 -0.0057 -1.3743
  427MOL0     C56284   7.158   6.140   3.747  1.1612 -0.6392  0.0633
  427MOL0     C56285   7.073   6.030   3.752 -1.1049 -0.0935  0.6380
  427MOL0     C56286   6.643   5.818   3.806  0.4999 -0.0697  0.0222
  427MOL0     C56287   6.520   5.809   3.871  0.3928  0.3127 -0.1420
  427MOL0     C56288   6.423   5.716   3.837 -0.3649 -0.1026 -0.0301
  427MOL0     C56289   6.440   5.632   3.723  0.4771  0.1609  0.5339
  427MOL0     O56290   6.337   5.561   3.675 -0.9213  0.1953  0.0110
  427MOL0     C56291   6.222   5.540   3.765  0.4477 -0.7065  0.2821
  427MOL0     C56292   6.141   5.416   3.714 -0.0037 -0.8489  0.7025
  427MOL0     C56293   6.204   5.283   3.741 -0.7247  0.1186 -0.1557
  427MOL0     C56294   6.109   5.180   3.689 -0.4439  0.9637  0.1248
  427MOL0     C56295   6.086   5.175   3.543 -0.1358  0.3454  0.2576
  427MOL0     C56296   6.096   5.177   3.422 -0.7697  0.0578 -0.4704
  427MOL0     C56297   6.562   5.643   3.662 -1.0994 -0.9624 -0.3413
  427MOL0     C56298   6.665   5.726   3.701  0.4269 -0.3592  0.2256
  427MOL0     H56299   6.780   6.179   3.806 -0.1740 -2.5374  0.0943
  427MOL0     H56300   6.920   6.378   3.821 -1.6912 -0.3368  2.5257
  427MOL0     H56301   7.350   6.301   3.807 -2.8275 -1.5372  0.6981
  427MOL0     H56302   7.285   6.397   3.932  0.0662 -0.5131  0.7428
  427MOL0     H56303   7.302   6.600   3.776 -2.6859 -2.1588 -0.4541
  427MOL0     H56304   7.400   6.500   3.672  0.4411 -3.9732  0.8800
  427MOL0     H56305   7.576   6.480   3.846  3.4678  4.0471 -1.6677
  427MOL0     H56306   7.467   6.568   3.961  1.2613  2.8686  0.5035
  427MOL0     H56307   7.610   6.679   3.704  2.8483  1.9190  0.3700
  427MOL0     H56308   7.487   6.761   3.801 -1.9372 -2.2826 -0.7415
  427MOL0     H56309   7.718   6.610   3.928 -1.2640 -0.7282  0.6302
  427MOL0     H56310   7.652   6.753   3.993 -0.2709 -1.4744 -0.5257
  427MOL0     H56311   7.818   6.752   3.735 -0.6218 -0.3751 -0.1335
  427MOL0     H56312   7.892   6.763   3.890 -2.0639 -1.6043  1.6708
  427MOL0     H56313   7.684   6.963   3.798 -0.9099 -0.5007  1.8120
  427MOL0     H56314   7.784   6.978   3.942  0.1283 -1.0883  0.1732
  427MOL0     H56315   7.830   7.128   3.773 -1.0787 -0.6955  1.4185
  427MOL0     H56316   7.878   6.998   3.659 -2.6192 -1.0146 -0.2573
  427MOL0     H56317   7.968   7.135   4.028 -0.0375  0.2226 -0.8959
  427MOL0     H56318   8.242   7.232   4.092 -0.8963  0.8783 -2.7651
  427MOL0     H56319   8.358   7.095   4.071 -0.8783  0.1666 -0.1078
  427MOL0     H56320   8.108   7.091   4.239  0.4344 -0.9141  1.1083
  427MOL0     H56321   8.278   7.086   4.300  1.2028 -0.9305 -0.1832
  427MOL0     H56322   8.291   6.867   4.135  0.1863 -0.9731  0.5287
  427MOL0     H56323   8.260   6.864   4.305  1.0134 -0.6557 -0.8452
  427MOL0     H56324   8.057   6.825   4.068  2.1876 -0.2260 -0.5463
  427MOL0     H56325   8.009   6.864   4.241  0.1089  2.7197  0.1219
  427MOL0     H56326   8.144   6.410   4.208  0.2052 -0.2944 -1.6231
  427MOL0     H56327   7.958   6.251   4.239  1.0137 -0.4622  1.9059
  427MOL0     H56328   7.450   6.213   4.054 -1.8227 -0.1661 -0.3533
  427MOL0     H56329   7.263   6.062   4.102 -0.5965  0.9867 -0.4399
  427MOL0     H56330   7.053   6.087   4.150 -1.2203  1.6237  0.1360
  427MOL0     H56331   6.940   6.059   4.279  2.0109 -0.9906  2.6670
  427MOL0     H56332   7.117   5.863   4.131  0.7245 -3.2270  1.5157
  427MOL0     H56333   6.945   5.873   4.130  0.2788  1.1212 -1.1914
  427MOL0     H56334   7.121   5.800   4.365  0.1418 -0.9617  0.0111
  427MOL0     H56335   7.072   5.685   4.251 -1.6333 -0.0484 -2.5238
  427MOL0     H56336   6.895   5.723   4.469 -2.0162  0.7794  0.2732
  427MOL0     H56337   6.840   5.862   4.375 -0.1335  0.7725 -2.6327
  427MOL0     H56338   6.858   5.560   4.274  3.8012  1.4218  0.9092
  427MOL0     H56339   6.799   5.687   4.178  1.2880 -3.0427 -1.5649
  427MOL0     H56340   6.645   5.758   4.372 -2.8578  0.5286 -0.6363
  427MOL0     H56341   6.695   5.613   4.460 -2.0850 -1.8640 -0.2655
  427MOL0     H56342   6.581   5.469   4.333 -0.6617  0.1642  2.9171
  427MOL0     H56343   6.460   5.602   4.322  0.0715 -1.3635  1.6229
  427MOL0     H56344   6.661   5.563   4.101 -1.4660 -1.3676 -1.4436
  427MOL0     H56345   6.538   5.685   4.123 -0.4807 -0.3960 -0.4681
  427MOL0     H56346   7.281   6.185   4.520  2.2830 -2.3521  1.1596
  427MOL0     H56347   7.469   6.329   4.463 -0.8735  0.1944 -0.1194
  427MOL0     H56348   7.679   6.559   4.228  0.5244 -1.7019  0.0945
  427MOL0     H56349   7.852   6.739   4.207  2.7158  1.7184 -0.0651
  427MOL0     H56350   7.264   6.142   3.722  0.8388  3.8943 -2.0251
  427MOL0     H56351   7.117   5.932   3.736 -0.6238  0.3281 -0.7812
  427MOL0     H56352   6.500   5.867   3.960 -1.2564 -0.9049  0.3283
  427MOL0     H56353   6.329   5.726   3.890 -1.0393  2.3735 -1.5425
  427MOL0     H56354   6.161   5.630   3.750  1.5606  0.1919  1.0432
  427MOL0     H56355   6.250   5.536   3.870  2.3540  0.2633 -0.1462
  427MOL0     H56356   6.044   5.420   3.764 -0.4076  1.9591 -0.0989
  427MOL0     H56357   6.118   5.426   3.607 -1.6402 -1.4582  0.9685
  427MOL0     H56358   6.229   5.268   3.846  2.9871 -0.9852 -1.0423
  427MOL0     H56359   6.296   5.279   3.682 -0.9490  0.9395 -0.5691
  427MOL0     H56360   6.154   5.086   3.723  1.2889  1.0030 -1.8618
  427MOL0     H56361   6.016   5.198   3.744 -0.8275 -0.9453  0.1695
  427MOL0     H56362   6.107   5.188   3.317  1.7526  1.4860 -0.1363
  427MOL0     H56363   6.593   5.571   3.587  1.8572 -0.5518  0.3668
  427MOL0     H56364   6.760   5.734   3.649  1.7754  1.6892  2.7638
  428MOL0     O56365   7.766   7.669   1.914 -0.3998 -0.0796  0.3143
  428MOL0     C56366   7.815   7.606   1.822 -0.3799  0.0931 -0.2633
  428MOL0     O56367   7.750   7.539   1.728 -0.5280  0.3389  0.4323
  428MOL0     C56368   7.614   7.544   1.723  0.1789  0.5211  0.6451
  428MOL0     C56369   7.542   7.663   1.702 -0.0497 -0.0793  0.4808
  428MOL0     C56370   7.406   7.657   1.683  0.5400 -0.4280  0.6835
  428MOL0     C56371   7.334   7.535   1.673 -0.0063  0.2421  0.0707
  428MOL0     O56372   7.196   7.549   1.666  0.9942  0.5226  0.1659
  428MOL0     C56373   7.116   7.425   1.662 -0.8343  0.1184  0.1867
  428MOL0     C56374   6.974   7.454   1.609  0.0906 -0.1599  0.3552
  428MOL0     C56375   6.900   7.541   1.713 -0.1335  0.5527  0.7205
  428MOL0     C56376   6.751   7.550   1.681  0.5463 -0.5949 -0.1948
  428MOL0     C56377   6.666   7.627   1.788 -0.9055  0.0384  0.6788
  428MOL0     C56378   6.523   7.656   1.741 -0.5938  0.4032  0.0168
  428MOL0     C56379   6.460   7.734   1.859  0.4119  0.3349 -0.0769
  428MOL0     C56380   6.312   7.773   1.828  0.5748 -1.4949  0.6756
  428MOL0     N56381   6.244   7.854   1.927  0.1769 -0.9713  0.0711
  428MOL0     C56382   6.146   7.810   2.016 -0.8083  0.2482 -0.1137
  428MOL0     C56383   6.113   7.918   2.078 -0.0738  1.0092 -1.1150
  428MOL0     C56384   5.999   7.926   2.183 -0.2286  0.0773  0.1194
  428MOL0     C56385   5.862   7.895   2.120  0.6348  0.2620 -0.0677
  428MOL0     C56386   5.820   8.007   2.017 -0.7015  1.0598  0.1717
  428MOL0     C56387   5.672   8.007   1.997 -0.1456 -0.1471  0.1625
  428MOL0     O56388   5.637   7.891   1.928  0.4734  0.1500 -0.9215
  428MOL0     C56389   5.504   7.866   1.895  0.1562 -0.0179 -0.7252
  428MOL0     C56390   5.476   7.734   1.858 -0.7022  0.0159  0.6679
  428MOL0     C56391   5.349   7.685   1.833 -0.3905  0.0847  0.0820
  428MOL0     C56392   5.247   7.774   1.853 -0.6390 -0.6607 -0.2409
  428MOL0     C56393   5.109   7.734   1.822 -0.2070  0.5147  0.2138
  428MOL0     O56394   5.096   7.620   1.754  0.1341  0.2615 -0.3521
  428MOL0     C56395   4.970   7.565   1.737  0.5523  0.2785 -0.4963
  428MOL0     C56396   4.871   7.638   1.666  0.1362 -0.1390  0.4623
  428MOL0     C56397   4.752   7.574   1.638 -0.5234  0.1322 -0.2061
  428MOL0     C56398   4.712   7.443   1.681  0.2067  0.0362  0.3925
  428MOL0     O56399   4.591   7.388   1.642  0.1388 -1.0104  0.3689
  428MOL0     C56400   4.545   7.262   1.704 -0.0719 -0.1815 -0.8707
  428MOL0     C56401   4.393   7.253   1.701  0.1348  0.5562  0.8570
  428MOL0     C56402   4.353   7.199   1.568 -0.7335 -0.4674  0.9906
  428MOL0     C56403   4.206   7.223   1.543  1.1423 -0.8598 -0.4009
  428MOL0     C56404   4.143   7.139   1.429  0.1665 -0.3802  0.4089
  428MOL0     C56405   4.163   6.989   1.425 -0.1334 -0.5504 -0.2398
  428MOL0     C56406   4.040   6.912   1.371  0.1268  0.3101  0.2926
  428MOL0     C56407   4.049   6.765   1.384  0.1019  0.1303  0.0967
  428MOL0    Cl56408   4.149   6.698   1.260 -0.4279  0.0546 -0.1514
  428MOL0     C56409   4.814   7.373   1.746 -0.5928 -0.7933 -0.3564
  428MOL0     C56410   4.939   7.435   1.783  0.8706  0.5923 -0.5972
  428MOL0     O56411   5.016   7.805   1.868  0.2183  1.1813  0.7197
  428MOL0     C56412   5.271   7.903   1.899  1.2453  0.0415  0.7686
  428MOL0     C56413   5.400   7.947   1.912  0.0681  0.1311 -0.6291
  428MOL0     N56414   6.189   8.033   2.037 -0.3650  0.6337 -0.7219
  428MOL0     N56415   6.268   7.985   1.943 -0.1713  0.3838  0.6587
  428MOL0     C56416   7.402   7.419   1.699  0.0169 -0.8407  0.2225
  428MOL0     C56417   7.543   7.429   1.719  0.7265  0.2901 -0.4504
  428MOL0     C56418   7.960   7.576   1.825  0.0686 -0.5486  1.4294
  428MOL0     C56419   8.053   7.621   1.921 -0.0988 -0.2468  0.1703
  428MOL0     C56420   8.191   7.594   1.911  0.3714 -0.5448 -0.4119
  428MOL0     C56421   8.247   7.515   1.807 -0.5066 -0.2875  0.2500
  428MOL0     O56422   8.376   7.483   1.808 -0.3589 -0.2454 -0.6151
  428MOL0     C56423   8.427   7.392   1.700  0.2182 -0.7922 -0.4049
  428MOL0     C56424   8.382   7.240   1.718  0.0026 -0.3401 -0.0876
  428MOL0     C56425   8.432   7.179   1.861  0.7110  0.7263 -0.0283
  428MOL0     C56426   8.581   7.176   1.886 -0.4958  0.8058  0.3362
  428MOL0     C56427   8.634   7.070   1.797  0.2876 -0.0090 -0.4576
  428MOL0     C56428   8.673   6.989   1.711  0.4590 -0.5581  0.3280
  428MOL0     C56429   8.150   7.473   1.711  1.4419 -0.4744  0.3137
  428MOL0     C56430   8.015   7.510   1.716 -0.2293  0.9706  0.5013
  428MOL0     H56431   7.597   7.756   1.699  1.9134 -1.1928 -2.5547
  428MOL0     H56432   7.340   7.743   1.689  0.6819 -0.3164  0.6311
  428MOL0     H56433   7.123   7.369   1.756  2.3088  2.9199  1.8208
  428MOL0     H56434   7.163   7.351   1.596 -0.7021 -0.9686  1.4720
  428MOL0     H56435   6.933   7.357   1.579 -0.4153  0.3033 -0.4746
  428MOL0     H56436   6.980   7.516   1.519 -2.3711 -1.6874 -0.9700
  428MOL0     H56437   6.956   7.635   1.726  3.8262 -1.7611  2.3627
  428MOL0     H56438   6.904   7.495   1.811 -0.1208  1.5911  1.2212
  428MOL0     H56439   6.742   7.611   1.590  2.5203 -0.1134 -0.1101
  428MOL0     H56440   6.713   7.450   1.660  0.4847 -0.8325  0.9854
  428MOL0     H56441   6.712   7.722   1.815  0.4244  1.0040 -4.0271
  428MOL0     H56442   6.655   7.552   1.866 -0.0976  0.0953  0.8524
  428MOL0     H56443   6.469   7.563   1.724  0.3630  0.1306 -1.7227
  428MOL0     H56444   6.523   7.711   1.646 -1.7668  0.0749 -0.1870
  428MOL0     H56445   6.464   7.680   1.954 -4.7657  1.0093  0.7981
  428MOL0     H56446   6.515   7.829   1.866 -3.3519  2.6684  0.6008
  428MOL0     H56447   6.265   7.674   1.826  0.6887 -1.5414  0.0251
  428MOL0     H56448   6.295   7.807   1.725  2.2848 -0.9975  0.5206
  428MOL0     H56449   6.100   7.713   2.027  1.5586 -0.7077  2.6961
  428MOL0     H56450   5.990   8.025   2.228 -0.4286  1.0875 -2.0387
  428MOL0     H56451   6.022   7.847   2.256 -1.7470  0.5435  1.1437
  428MOL0     H56452   5.796   7.895   2.207  0.4610 -2.1337 -0.1331
  428MOL0     H56453   5.850   7.799   2.068  0.5897  2.2599 -4.0992
  428MOL0     H56454   5.857   8.105   2.049  3.2108 -0.5435  1.2099
  428MOL0     H56455   5.877   7.992   1.925 -0.3915 -1.5397  0.6999
  428MOL0     H56456   5.644   8.095   1.938 -0.8461 -0.3929  0.1222
  428MOL0     H56457   5.617   8.010   2.092 -2.1158 -0.2804 -0.9211
  428MOL0     H56458   5.559   7.663   1.861  0.6049  1.5153  1.6263
  428MOL0     H56459   5.332   7.582   1.805  0.4739  0.0611 -0.4174
  428MOL0     H56460   4.892   7.736   1.623  2.9069 -0.4902  0.7774
  428MOL0     H56461   4.684   7.641   1.586  0.8371  2.3073  0.6304
  428MOL0     H56462   4.574   7.254   1.810 -0.2332 -1.3481 -0.9045
  428MOL0     H56463   4.594   7.175   1.659 -1.5215 -2.1312  1.0834
  428MOL0     H56464   4.348   7.352   1.711 -1.1488  0.1295 -0.3586
  428MOL0     H56465   4.352   7.188   1.779  1.1082  0.2931  1.1658
  428MOL0     H56466   4.381   7.093   1.563 -0.9321 -0.5364  1.3409
  428MOL0     H56467   4.412   7.242   1.486  1.7691 -0.3324  2.7626
  428MOL0     H56468   4.148   7.201   1.633 -1.1526 -0.5051 -1.7257
  428MOL0     H56469   4.191   7.330   1.528  0.1747 -0.5741  2.0039
  428MOL0     H56470   4.195   7.173   1.339  1.1223  1.1733  1.4992
  428MOL0     H56471   4.039   7.171   1.427  0.0359 -0.4402  2.7071
  428MOL0     H56472   4.185   6.952   1.526  0.4408 -5.4764 -1.9224
  428MOL0     H56473   4.252   6.955   1.371  1.3369 -0.2067  1.8325
  428MOL0     H56474   3.957   6.944   1.435 -0.9634  0.8534 -1.3456
  428MOL0     H56475   4.015   6.939   1.268  0.1634 -0.9098 -0.0494
  428MOL0     H56476   3.946   6.729   1.376 -0.8028  2.1550  1.6169
  428MOL0     H56477   4.078   6.745   1.488 -2.7280 -0.5482  0.8460
  428MOL0     H56478   4.805   7.267   1.768  2.8813 -0.8668  1.2651
  428MOL0     H56479   4.999   7.370   1.846 -1.4865 -0.7679  0.3521
  428MOL0     H56480   5.181   7.959   1.920  1.8170  0.1982  3.0782
  428MOL0     H56481   5.419   8.047   1.950  1.3340  0.5900 -2.3129
  428MOL0     H56482   7.367   7.317   1.701  0.6341 -1.0622  1.6906
  428MOL0     H56483   7.595   7.334   1.732  0.0559 -0.1781 -1.1416
  428MOL0     H56484   8.008   7.666   2.010 -0.6679 -1.5072  0.5495
  428MOL0     H56485   8.247   7.608   2.003 -0.5600 -0.9641  0.2330
  428MOL0     H56486   8.535   7.404   1.698  0.0573  0.8341 -0.4966
  428MOL0     H56487   8.383   7.419   1.604 -2.6936  0.3788  1.1311
  428MOL0     H56488   8.273   7.236   1.710 -0.1293  2.5050 -0.8059
  428MOL0     H56489   8.432   7.177   1.644 -2.0033 -2.1536 -0.0239
  428MOL0     H56490   8.396   7.076   1.858  1.1557  0.5840 -2.1506
  428MOL0     H56491   8.380   7.235   1.939 -0.0754 -1.8820  1.4366
  428MOL0     H56492   8.633   7.272   1.876  0.8252  0.2697  1.8202
  428MOL0     H56493   8.598   7.144   1.989  1.4753 -0.1324 -0.2466
  428MOL0     H56494   8.699   6.928   1.627 -1.8464 -0.7310 -0.3049
  428MOL0     H56495   8.173   7.405   1.629  2.2775 -1.4925  1.3593
  428MOL0     H56496   7.949   7.475   1.637  1.1175  1.0299 -0.6990
  429MOL0     O56497  10.819   0.163   5.178 -0.1651 -0.1850 -0.5543
  429MOL0     C56498  10.907   0.226   5.240  0.4240  0.5098  0.3863
  429MOL0     O56499  10.897   0.357   5.283 -0.3242 -0.0915 -0.0587
  429MOL0     C56500  10.783   0.428   5.262  0.3061 -0.4659  0.1140
  429MOL0     C56501  10.772   0.536   5.163 -0.0094 -0.7981  0.2566
  429MOL0     C56502  10.654   0.610   5.146 -0.0684 -0.7178 -0.3382
  429MOL0     C56503  10.543   0.562   5.212  0.1465  0.0801  0.4264
  429MOL0     O56504  10.421   0.618   5.193 -0.3440  0.2838  0.5339
  429MOL0     C56505  10.364   0.612   5.067  0.0213  0.2233 -0.0313
  429MOL0     C56506  10.212   0.647   5.077  0.0357 -0.0944  0.7116
  429MOL0     C56507  10.127   0.522   5.082 -0.7465 -0.2085  0.0427
  429MOL0     C56508   9.976   0.550   5.080  0.2812  0.2553 -0.8653
  429MOL0     C56509   9.915   0.533   4.935 -0.7393 -0.0227  0.5042
  429MOL0     C56510   9.773   0.592   4.919 -1.0019  0.3882 -0.8010
  429MOL0     C56511   9.650   0.503   4.969  0.2123 -1.0086 -0.2609
  429MOL0     C56512   9.519   0.591   4.948  0.1898 -0.1531  0.4123
  429MOL0     N56513   9.396   0.499   4.965 -0.0911 -0.0284  0.4454
  429MOL0     C56514   9.347   0.472   5.091 -0.7970 -0.6025 -0.3182
  429MOL0     C56515   9.218   0.435   5.078  0.2525 -0.3771 -0.8953
  429MOL0     C56516   9.104   0.409   5.173 -0.0087  1.1916 -0.2192
  429MOL0     C56517   8.970   0.477   5.144  0.6138 -0.0588 -0.2597
  429MOL0     C56518   8.877   0.423   5.239 -0.0872  0.0837  0.8771
  429MOL0     C56519   8.732   0.479   5.211 -0.4295  0.1015 -0.2435
  429MOL0     O56520   8.652   0.435   5.323 -0.2217  0.0167 -0.1855
  429MOL0     C56521   8.520   0.478   5.328  0.0597 -0.5722 -1.6679
  429MOL0     C56522   8.460   0.499   5.455  0.1566  0.5795 -0.7444
  429MOL0     C56523   8.328   0.533   5.463  0.1823 -0.2267 -0.1686
  429MOL0     C56524   8.250   0.577   5.348 -0.2713  0.1014 -0.3188
  429MOL0     C56525   8.113   0.627   5.362  0.3677 -0.7530  0.0664
  429MOL0     O56526   8.073   0.670   5.481  0.0791 -0.3250 -0.1166
  429MOL0     C56527   7.938   0.693   5.492  0.4335  0.3323 -0.3680
  429MOL0     C56528   7.863   0.592   5.561 -0.5087 -0.1030 -0.1527
  429MOL0     C56529   7.723   0.593   5.562 -0.3918 -0.2085  0.7610
  429MOL0     C56530   7.649   0.700   5.504  0.0128  0.2645  0.1541
  429MOL0     O56531   7.513   0.709   5.492 -0.9604 -0.5069  0.1989
  429MOL0     C56532   7.433   0.597   5.522  0.0874 -0.9241  0.7179
  429MOL0     C56533   7.289   0.649   5.522 -0.7928 -0.0128  0.1413
  429MOL0     C56534   7.195   0.534   5.512  0.5523 -0.2223  0.4861
  429MOL0     C56535   7.047   0.566   5.530  0.5662 -0.5172  1.3287
  429MOL0     C56536   6.972   0.435   5.531  0.0998 -1.1092 -0.3008
  429MOL0     C56537   6.833   0.445   5.593 -0.1259  0.1558  0.4733
  429MOL0     C56538   6.736   0.493   5.478 -0.5250  0.4024  0.0876
  429MOL0     C56539   6.594   0.480   5.520  0.1625 -0.1388  0.2328
  429MOL0    Cl56540   6.558   0.608   5.648 -0.0472  0.0707 -0.1343
  429MOL0     C56541   7.726   0.807   5.445 -0.1373 -0.4180  0.0431
  429MOL0     C56542   7.870   0.797   5.439 -0.5902  0.4164  0.0565
  429MOL0     O56543   8.047   0.631   5.260  0.2952  0.8829 -0.0272
  429MOL0     C56544   8.317   0.576   5.228 -0.7039  0.2933  0.3594
  429MOL0     C56545   8.444   0.519   5.219 -0.0777  0.9410 -0.1807
  429MOL0     N56546   9.186   0.432   4.944 -0.1488  0.9130 -0.3451
  429MOL0     N56547   9.295   0.471   4.880 -0.2445 -0.3397 -0.0272
  429MOL0     C56548  10.545   0.454   5.302  0.8127  0.4612  0.3766
  429MOL0     C56549  10.665   0.393   5.332  0.1511 -0.2629  0.3129
  429MOL0     C56550  11.019   0.133   5.271  0.5128 -1.4381 -0.1223
  429MOL0     C56551  11.152   0.182   5.249  0.1511 -0.5516  0.0260
  429MOL0     C56552  11.262   0.102   5.288 -0.2866  0.1897  0.3390
  429MOL0     C56553  11.243  -0.022   5.349  0.4155 -0.0042  0.1270
  429MOL0     O56554  11.349  -0.102   5.382 -0.0243  0.2610  0.2638
  429MOL0     C56555  11.476  -0.067   5.316 -0.5129  0.8533  0.6678
  429MOL0     C56556  11.562  -0.185   5.348  0.3469  0.5841  0.4717
  429MOL0     C56557  11.551  -0.308   5.260  0.7953 -0.7149  0.0199
  429MOL0     C56558  11.620  -0.420   5.342 -0.0784  0.0219 -0.1933
  429MOL0     C56559  11.773  -0.420   5.337 -0.5174 -0.2428  0.2238
  429MOL0     C56560  11.895  -0.415   5.358 -0.0929 -1.3692 -0.6042
  429MOL0     C56561  11.109  -0.061   5.372  0.0577 -0.0757  0.6629
  429MOL0     C56562  11.000   0.012   5.338 -0.5348 -1.0490  1.0018
  429MOL0     H56563  10.863   0.558   5.109 -1.1585  0.2341 -1.3519
  429MOL0     H56564  10.654   0.696   5.080  2.8585 -0.4607 -0.1402
  429MOL0     H56565  10.371   0.509   5.033 -1.4972 -0.1593  0.6804
  429MOL0     H56566  10.414   0.688   5.006 -1.2457 -0.8262 -2.5130
  429MOL0     H56567  10.194   0.708   4.989  0.2968  0.5366  1.0848
  429MOL0     H56568  10.200   0.715   5.162 -1.2467 -1.2022  1.4581
  429MOL0     H56569  10.147   0.466   5.174 -1.4259 -1.9683 -0.8309
  429MOL0     H56570  10.151   0.457   4.997 -0.3970  0.0202 -0.0367
  429MOL0     H56571   9.928   0.472   5.141 -0.2799  2.6536  1.9773
  429MOL0     H56572   9.955   0.648   5.123 -0.2415 -0.3451  0.2928
  429MOL0     H56573   9.931   0.431   4.899  0.3535  0.8809 -1.8365
  429MOL0     H56574   9.980   0.602   4.879 -0.2090  2.4511  3.8453
  429MOL0     H56575   9.764   0.601   4.810  2.2789  0.5150 -1.1429
  429MOL0     H56576   9.767   0.685   4.977 -0.0149 -1.9829  3.4819
  429MOL0     H56577   9.642   0.413   4.907  4.5453 -1.9339  0.1994
  429MOL0     H56578   9.668   0.487   5.075 -3.1720 -1.0498  0.4026
  429MOL0     H56579   9.516   0.633   4.847 -1.8653  0.5488  0.7152
  429MOL0     H56580   9.521   0.672   5.022 -0.1914  1.4889 -1.3051
  429MOL0     H56581   9.392   0.483   5.190 -0.0558 -3.8538 -0.1970
  429MOL0     H56582   9.137   0.419   5.277 -0.9053 -1.8326  0.4597
  429MOL0     H56583   9.087   0.302   5.159  2.0371  0.3342  2.7709
  429MOL0     H56584   8.940   0.459   5.040 -0.7110  2.6596 -0.4430
  429MOL0     H56585   8.967   0.586   5.157 -5.1952  0.2525 -1.4484
  429MOL0     H56586   8.872   0.314   5.236 -1.9364  0.1606 -0.2005
  429MOL0     H56587   8.909   0.453   5.339 -2.6448 -0.0080  1.7999
  429MOL0     H56588   8.695   0.441   5.115 -1.1132 -0.5318  0.2560
  429MOL0     H56589   8.726   0.588   5.211 -5.8313  0.1035 -1.3383
  429MOL0     H56590   8.518   0.486   5.546  1.0177  1.2543 -1.1874
  429MOL0     H56591   8.284   0.525   5.562  0.7633  0.9918  0.2058
  429MOL0     H56592   7.915   0.512   5.614  1.1932  0.3615 -1.0677
  429MOL0     H56593   7.674   0.507   5.606  0.3395 -0.9963  0.0566
  429MOL0     H56594   7.452   0.558   5.623 -0.9133 -1.6740  0.6335
  429MOL0     H56595   7.452   0.514   5.452  1.8741  0.8399 -1.0144
  429MOL0     H56596   7.276   0.724   5.443 -0.6173  2.9948  2.7625
  429MOL0     H56597   7.272   0.690   5.622 -3.1337  0.9960 -0.5822
  429MOL0     H56598   7.222   0.459   5.587  3.2273 -2.2443 -2.2590
  429MOL0     H56599   7.191   0.491   5.412 -3.4644  4.4151 -1.7355
  429MOL0     H56600   7.030   0.621   5.623 -5.5479  1.3145 -0.3704
  429MOL0     H56601   7.010   0.636   5.454 -1.8933  0.2598  3.0855
  429MOL0     H56602   7.024   0.373   5.606 -1.2694 -1.1821  0.6338
  429MOL0     H56603   6.971   0.382   5.436  0.0814 -2.8819  0.6346
  429MOL0     H56604   6.834   0.511   5.680 -0.4986  0.6586  0.1060
  429MOL0     H56605   6.801   0.343   5.615  2.8999 -1.4842 -1.9082
  429MOL0     H56606   6.758   0.594   5.445 -0.3433  0.3330 -0.0038
  429MOL0     H56607   6.756   0.416   5.402  1.1749 -0.0367  0.9367
  429MOL0     H56608   6.577   0.380   5.561 -0.1666 -0.7776 -1.3598
  429MOL0     H56609   6.521   0.493   5.439 -0.6035  0.6765  1.0331
  429MOL0     H56610   7.681   0.893   5.396 -1.2681 -1.3018 -0.4986
  429MOL0     H56611   7.928   0.867   5.379  2.6317 -1.3447  0.8553
  429MOL0     H56612   8.265   0.616   5.142  0.1932  3.8902  1.3075
  429MOL0     H56613   8.492   0.501   5.123  0.1954 -1.9773  0.4105
  429MOL0     H56614  10.453   0.417   5.347 -1.0198  1.9074 -1.8699
  429MOL0     H56615  10.679   0.314   5.405 -2.9109  0.0716  1.3873
  429MOL0     H56616  11.174   0.274   5.196  0.8491 -1.9253 -2.2393
  429MOL0     H56617  11.361   0.145   5.276 -0.0106 -0.7926 -1.2334
  429MOL0     H56618  11.531   0.021   5.352 -0.8455  0.5583  1.9669
  429MOL0     H56619  11.462  -0.054   5.209 -1.3775  0.9369  0.7886
  429MOL0     H56620  11.666  -0.151   5.347  1.0573 -1.4159 -0.8299
  429MOL0     H56621  11.547  -0.203   5.455 -1.0711  0.3009  0.2339
  429MOL0     H56622  11.604  -0.286   5.166 -0.9610 -0.1014 -0.8735
  429MOL0     H56623  11.447  -0.328   5.232 -0.9105  2.0243  3.5545
  429MOL0     H56624  11.598  -0.420   5.449  0.5592  1.2216 -0.0478
  429MOL0     H56625  11.590  -0.513   5.292  1.0980  0.2585 -1.3799
  429MOL0     H56626  11.997  -0.397   5.385 -0.9738  0.6250  1.7349
  429MOL0     H56627  11.099  -0.162   5.411  0.2379 -1.0215 -1.5730
  429MOL0     H56628  10.896  -0.014   5.357 -1.0563 -0.6411 -0.9896
  430MOL0     O56629   2.524   0.807   5.975 -0.4877 -0.0384  0.1355
  430MOL0     C56630   2.548   0.925   6.006 -0.6771  0.8543 -0.2425
  430MOL0     O56631   2.456   1.028   6.008 -0.5596  0.2099 -0.2179
  430MOL0     C56632   2.356   1.028   5.917  0.1896 -0.8559  0.5894
  430MOL0     C56633   2.364   0.951   5.791 -0.2188 -0.6793  0.2996
  430MOL0     C56634   2.251   0.955   5.709  0.2095 -0.4374  0.8030
  430MOL0     C56635   2.125   1.013   5.748 -0.4197 -0.6255  0.1717
  430MOL0     O56636   2.013   0.988   5.676  0.1902  0.2252  0.0801
  430MOL0     C56637   1.884   1.050   5.706 -0.8868  0.6038 -0.3721
  430MOL0     C56638   1.869   1.202   5.687 -0.0746 -0.7833 -0.0907
  430MOL0     C56639   1.733   1.245   5.735  0.1771 -0.0729 -0.5317
  430MOL0     C56640   1.612   1.159   5.696  0.0732 -0.2778  0.1397
  430MOL0     C56641   1.493   1.216   5.775 -0.7951  0.2262 -0.2647
  430MOL0     C56642   1.373   1.122   5.753 -0.2108  0.4311 -0.1793
  430MOL0     C56643   1.238   1.171   5.818 -0.9846 -0.3083 -0.3992
  430MOL0     C56644   1.142   1.058   5.858  0.5515  0.6091  0.0889
  430MOL0     N56645   0.999   1.098   5.830 -0.1572 -0.1282 -0.0371
  430MOL0     C56646   0.907   1.019   5.760 -0.1771  0.1906 -0.6015
  430MOL0     C56647   0.788   1.089   5.769  0.3909 -0.8444 -0.3123
  430MOL0     C56648   0.646   1.048   5.732 -0.0152 -0.2491  0.2983
  430MOL0     C56649   0.581   0.953   5.837 -0.8466 -1.2629  0.1802
  430MOL0     C56650   0.526   1.018   5.953 -0.2040 -0.1662  0.5421
  430MOL0     C56651   0.379   1.055   5.926 -0.0195 -0.4689 -0.9996
  430MOL0     O56652   0.293   0.939   5.928 -0.3682 -0.4537 -0.6142
  430MOL0     C56653   0.161   0.961   5.951  0.4907 -0.1899 -0.6278
  430MOL0     C56654   0.088   0.844   5.971 -0.1124  0.3664 -0.7591
  430MOL0     C56655  -0.049   0.850   5.996  0.1118  0.0947 -0.8108
  430MOL0     C56656  -0.110   0.978   6.011  1.2151 -0.2609 -0.1958
  430MOL0     C56657  -0.261   0.987   6.018 -0.6167 -0.7658  0.1569
  430MOL0     O56658  -0.314   1.113   6.011 -0.2728  0.3208 -0.2193
  430MOL0     C56659  -0.450   1.138   5.991 -0.0718  0.0107 -0.3746
  430MOL0     C56660  -0.548   1.046   5.939 -0.5526 -0.2817  0.0437
  430MOL0     C56661  -0.684   1.075   5.921 -0.5826  0.0586  0.7984
  430MOL0     C56662  -0.734   1.195   5.957  0.0246 -0.3923 -0.4097
  430MOL0     O56663  -0.868   1.222   5.938 -0.4489  0.2150 -0.6080
  430MOL0     C56664  -0.902   1.356   5.935  0.2657 -0.2220 -0.6664
  430MOL0     C56665  -1.029   1.370   5.858  0.0261 -0.1233 -0.1936
  430MOL0     C56666  -1.154   1.338   5.929 -0.3656  0.3172 -0.8168
  430MOL0     C56667  -1.269   1.345   5.836  0.1410 -0.5324 -0.5856
  430MOL0     C56668  -1.397   1.322   5.920 -0.5545  0.3511 -0.1760
  430MOL0     C56669  -1.442   1.434   6.007  0.6642  0.3098 -0.5230
  430MOL0     C56670  -1.565   1.401   6.088  0.3766  0.2395 -1.0234
  430MOL0     C56671  -1.633   1.522   6.155 -0.3278 -0.5289 -0.7676
  430MOL0    Cl56672  -1.715   1.632   6.040 -0.2130  0.1691  0.5307
  430MOL0     C56673  -0.643   1.285   6.025 -0.0417  0.5626 -0.2624
  430MOL0     C56674  -0.501   1.259   6.041 -0.4511  1.3733  0.3944
  430MOL0     O56675  -0.322   0.890   6.050  1.1955  0.1579  0.0154
  430MOL0     C56676  -0.033   1.099   6.002  0.0926 -0.1328  0.9746
  430MOL0     C56677   0.107   1.094   5.976  0.6508  0.4216 -0.3619
  430MOL0     N56678   0.817   1.208   5.833  0.0295  0.0717 -0.3992
  430MOL0     N56679   0.939   1.211   5.875  0.2055  0.5937  0.6731
  430MOL0     C56680   2.129   1.088   5.874  0.4713 -0.0614  0.4585
  430MOL0     C56681   2.245   1.105   5.953 -0.0526  0.0381 -0.4626
  430MOL0     C56682   2.684   0.958   6.043  0.4955 -0.0237 -0.6056
  430MOL0     C56683   2.711   1.086   6.105  0.2829 -0.0959 -0.2974
  430MOL0     C56684   2.828   1.121   6.174  0.1354  0.4849  0.1748
  430MOL0     C56685   2.937   1.026   6.169  1.1139  0.3236  0.8301
  430MOL0     O56686   3.052   1.034   6.237 -0.1172 -0.4790 -0.7552
  430MOL0     C56687   3.073   1.130   6.343  1.1801 -0.0699 -0.2874
  430MOL0     C56688   3.212   1.187   6.324  0.5646  0.1939 -0.3860
  430MOL0     C56689   3.318   1.082   6.332 -0.8981  0.1814 -0.3291
  430MOL0     C56690   3.452   1.145   6.363  0.6346 -0.3705  0.4131
  430MOL0     C56691   3.554   1.042   6.350 -0.0743  0.1440  0.1879
  430MOL0     C56692   3.626   0.943   6.352  0.0726  0.1379 -0.2100
  430MOL0     C56693   2.915   0.904   6.097  0.0953  0.4303  0.2919
  430MOL0     C56694   2.797   0.873   6.037  0.7505  0.8368  0.0781
  430MOL0     H56695   2.461   0.907   5.768  0.5262  0.4257  1.2353
  430MOL0     H56696   2.246   0.900   5.615  0.1227  1.7078 -0.5123
  430MOL0     H56697   1.863   1.022   5.809 -1.3185 -1.0043 -0.8767
  430MOL0     H56698   1.805   1.003   5.646 -0.6045 -1.1988  0.6092
  430MOL0     H56699   1.892   1.232   5.585 -0.3417 -1.7854 -0.4527
  430MOL0     H56700   1.945   1.263   5.737 -1.2134 -0.2202  1.0175
  430MOL0     H56701   1.718   1.350   5.711 -3.0718  0.7012  3.6890
  430MOL0     H56702   1.733   1.235   5.844  0.9981 -1.8428 -0.6592
  430MOL0     H56703   1.602   1.171   5.588  0.8846 -0.6189  0.0207
  430MOL0     H56704   1.625   1.053   5.721  1.0081 -0.3943 -0.7567
  430MOL0     H56705   1.458   1.308   5.728 -2.5839 -0.4127 -0.2824
  430MOL0     H56706   1.514   1.240   5.879 -0.5272  1.7980 -0.6575
  430MOL0     H56707   1.383   1.017   5.783 -0.3789  0.3428 -0.4345
  430MOL0     H56708   1.360   1.125   5.645  2.0624  0.9522 -0.4996
  430MOL0     H56709   1.265   1.232   5.905  1.9091  0.4037 -1.6682
  430MOL0     H56710   1.182   1.230   5.745  0.6940  1.1946 -0.5405
  430MOL0     H56711   1.153   1.026   5.962 -0.0550  0.1952  0.0270
  430MOL0     H56712   1.162   0.968   5.799 -3.0207  0.2159 -0.7049
  430MOL0     H56713   0.915   0.925   5.707 -0.4176  0.0457 -0.3800
  430MOL0     H56714   0.650   1.002   5.633 -1.0643  3.0317 -1.4300
  430MOL0     H56715   0.583   1.136   5.721  0.2936 -0.0725 -0.0569
  430MOL0     H56716   0.665   0.889   5.864 -0.6425 -0.6550  1.0035
  430MOL0     H56717   0.499   0.892   5.796 -0.4373 -0.6086 -1.6952
  430MOL0     H56718   0.535   0.957   6.044 -0.3688 -0.7430  0.1768
  430MOL0     H56719   0.585   1.109   5.967 -0.6007  0.1487  0.1837
  430MOL0     H56720   0.367   1.117   5.836  0.2282  0.6972 -0.2555
  430MOL0     H56721   0.360   1.128   6.005 -1.2902 -2.8045  0.9810
  430MOL0     H56722   0.137   0.747   5.959  0.8746  0.8024 -0.3577
  430MOL0     H56723  -0.103   0.759   6.022  0.9138 -0.2182 -0.1927
  430MOL0     H56724  -0.523   0.943   5.917 -0.4038 -0.1468 -0.4116
  430MOL0     H56725  -0.750   1.004   5.872 -1.8338 -2.6071  5.6608
  430MOL0     H56726  -0.821   1.412   5.889 -0.7293  1.6976 -0.1799
  430MOL0     H56727  -0.925   1.391   6.036 -0.2118 -4.0314  0.7035
  430MOL0     H56728  -1.021   1.308   5.768 -0.2000 -0.0979 -0.2338
  430MOL0     H56729  -1.024   1.471   5.816  1.6493 -1.2827 -3.0613
  430MOL0     H56730  -1.171   1.407   6.013 -1.9086 -0.8880 -0.0892
  430MOL0     H56731  -1.155   1.236   5.968 -1.5760  0.6894  0.2313
  430MOL0     H56732  -1.280   1.448   5.802  3.8935 -0.0294 -0.7046
  430MOL0     H56733  -1.255   1.279   5.751  5.3167  1.7822 -1.9129
  430MOL0     H56734  -1.372   1.228   5.971 -0.8832 -0.9902 -2.3552
  430MOL0     H56735  -1.472   1.300   5.844 -0.4335 -0.4623 -0.0667
  430MOL0     H56736  -1.460   1.519   5.940 -0.1318  1.3847  1.0064
  430MOL0     H56737  -1.365   1.455   6.082  2.3699 -1.3871 -1.7062
  430MOL0     H56738  -1.648   1.360   6.029  0.2041 -0.5754 -0.2419
  430MOL0     H56739  -1.535   1.340   6.174  0.5952  1.8662  0.0927
  430MOL0     H56740  -1.553   1.577   6.206  0.6885 -0.9969 -1.8036
  430MOL0     H56741  -1.706   1.485   6.228  2.3739  2.6651  4.1086
  430MOL0     H56742  -0.700   1.365   6.070 -3.3746 -1.1792 -1.0027
  430MOL0     H56743  -0.425   1.316   6.094  1.1380 -1.1682  0.9919
  430MOL0     H56744  -0.075   1.195   6.031  2.3873  1.0944  0.4461
  430MOL0     H56745   0.166   1.184   5.958 -0.9203  1.3053 -1.4192
  430MOL0     H56746   2.047   1.155   5.897  0.5826  1.0264 -1.9921
  430MOL0     H56747   2.246   1.168   6.041 -2.2527 -3.0744  2.0160
  430MOL0     H56748   2.629   1.157   6.111 -1.2526 -1.8950  1.5131
  430MOL0     H56749   2.817   1.218   6.220  0.3741  0.3447  0.5284
  430MOL0     H56750   3.070   1.087   6.443  2.2961 -0.8757 -0.5803
  430MOL0     H56751   2.995   1.206   6.357  0.1177 -1.5927  3.2199
  430MOL0     H56752   3.217   1.242   6.230 -0.5154  0.3276 -0.3779
  430MOL0     H56753   3.213   1.262   6.403 -2.0816  0.5891 -0.6397
  430MOL0     H56754   3.331   1.031   6.236 -3.2106  0.2601 -0.7334
  430MOL0     H56755   3.305   1.005   6.408  2.4783  1.9174  2.3013
  430MOL0     H56756   3.471   1.226   6.292  1.7258 -0.6079  0.4230
  430MOL0     H56757   3.449   1.184   6.465  1.6633  0.5952  0.0981
  430MOL0     H56758   3.670   0.846   6.361 -0.9281 -0.5835 -2.3895
  430MOL0     H56759   3.000   0.838   6.089  0.4558  0.8239  0.7574
  430MOL0     H56760   2.793   0.781   5.979  1.1405  0.5979  0.4209
  431MOL0     O56761   4.461   6.036   7.555 -0.6774 -0.3715  0.2216
  431MOL0     C56762   4.512   6.146   7.579  0.0563  0.2916 -0.8103
  431MOL0     O56763   4.445   6.254   7.642  0.2559  0.1740  0.3418
  431MOL0     C56764   4.340   6.222   7.727 -0.7912 -0.7097  0.2168
  431MOL0     C56765   4.342   6.110   7.805 -0.2178  0.3248 -0.7777
  431MOL0     C56766   4.233   6.073   7.882  0.1202 -0.7719 -0.2821
  431MOL0     C56767   4.119   6.159   7.904  0.8130  0.5049  0.1946
  431MOL0     O56768   4.023   6.128   8.002 -0.0447  0.5408  0.1392
  431MOL0     C56769   3.886   6.145   7.966  0.8889  0.0468 -0.6906
  431MOL0     C56770   3.822   6.266   8.037  0.5170  0.5366 -0.2020
  431MOL0     C56771   3.683   6.300   7.979 -0.6102 -0.0894  0.2761
  431MOL0     C56772   3.569   6.202   8.030  0.6511  0.5413  0.7523
  431MOL0     C56773   3.434   6.267   8.002  0.1371  0.2555  0.8232
  431MOL0     C56774   3.383   6.363   8.111 -0.3295 -0.6782  0.4239
  431MOL0     C56775   3.334   6.272   8.228  0.0492  0.2845 -0.3308
  431MOL0     C56776   3.249   6.333   8.340 -0.4713 -0.0240  0.2781
  431MOL0     N56777   3.111   6.338   8.308  0.8367  0.0907  0.1184
  431MOL0     C56778   3.029   6.445   8.321 -0.3132  0.0490  0.4373
  431MOL0     C56779   2.909   6.394   8.284 -0.1412  0.4509  0.6674
  431MOL0     C56780   2.781   6.469   8.297  0.7412 -0.2257 -0.0034
  431MOL0     C56781   2.741   6.507   8.157 -0.0237 -0.1019 -0.6177
  431MOL0     C56782   2.598   6.542   8.142 -0.3557  0.4717 -0.7688
  431MOL0     C56783   2.540   6.654   8.228  0.5167  0.4155  0.0330
  431MOL0     O56784   2.400   6.670   8.185  0.6153 -0.3137 -0.0343
  431MOL0     C56785   2.345   6.797   8.208  0.1390 -0.1972 -0.4306
  431MOL0     C56786   2.382   6.882   8.314 -0.8489  0.0937  0.7551
  431MOL0     C56787   2.303   6.986   8.345 -0.2591 -1.1751 -0.0701
  431MOL0     C56788   2.187   7.019   8.280  0.9560  0.2606 -0.1548
  431MOL0     C56789   2.113   7.142   8.313  0.0351  0.1218 -0.4263
  431MOL0     O56790   2.187   7.229   8.390  0.0878 -0.1113  0.8928
  431MOL0     C56791   2.141   7.355   8.419 -0.3601  0.1220  0.5886
  431MOL0     C56792   2.239   7.455   8.402  0.6617 -0.1651 -0.6620
  431MOL0     C56793   2.219   7.588   8.435  0.1468 -0.3487 -0.9287
  431MOL0     C56794   2.087   7.630   8.475  0.4870 -0.4458  0.8893
  431MOL0     O56795   2.062   7.767   8.492  0.1027 -0.0791 -0.3171
  431MOL0     C56796   2.158   7.844   8.566  0.1455 -0.4508 -0.0800
  431MOL0     C56797   2.121   7.971   8.635  0.0842  0.0923 -0.5838
  431MOL0     C56798   2.006   7.954   8.737  0.1445 -0.6471 -0.1781
  431MOL0     C56799   1.976   8.089   8.804  0.0784 -0.1374  0.2414
  431MOL0     C56800   1.852   8.069   8.888  0.6674 -0.6946  0.5655
  431MOL0     C56801   1.816   8.203   8.950 -0.8707  0.0212  0.2652
  431MOL0     C56802   1.729   8.176   9.067 -0.1074  0.1387  1.3954
  431MOL0     C56803   1.671   8.298   9.127  0.0476  0.0917  0.5639
  431MOL0    Cl56804   1.794   8.397   9.232  0.4718 -0.4737  0.1566
  431MOL0     C56805   1.990   7.531   8.485 -0.6340 -0.0872 -1.1374
  431MOL0     C56806   2.011   7.396   8.464 -0.1809  0.1178  0.3590
  431MOL0     O56807   1.999   7.158   8.278  0.1412  0.3244  0.2512
  431MOL0     C56808   2.142   6.931   8.181 -0.7318 -0.4882  1.2114
  431MOL0     C56809   2.213   6.816   8.144  0.5672  0.0421 -1.3833
  431MOL0     N56810   2.928   6.257   8.250 -0.2595 -0.4845 -0.2015
  431MOL0     N56811   3.049   6.223   8.275  0.2004  0.8240 -0.3462
  431MOL0     C56812   4.125   6.288   7.840 -0.5700 -0.4394 -0.9476
  431MOL0     C56813   4.231   6.314   7.746 -0.4330  0.0804 -0.3241
  431MOL0     C56814   4.640   6.170   7.508  0.1411  0.3960  1.2814
  431MOL0     C56815   4.722   6.276   7.536 -0.2999 -1.0094  0.2017
  431MOL0     C56816   4.849   6.307   7.470  0.3245 -0.3682  0.1368
  431MOL0     C56817   4.889   6.221   7.365 -0.3224  0.5285 -0.3066
  431MOL0     O56818   5.005   6.241   7.294 -0.1213  0.4371 -0.0721
  431MOL0     C56819   5.101   6.337   7.334 -0.3209 -0.2650 -0.7580
  431MOL0     C56820   5.234   6.303   7.266 -0.3737 -0.2504  0.3946
  431MOL0     C56821   5.346   6.412   7.282  0.1741  0.0311 -0.1548
  431MOL0     C56822   5.376   6.450   7.423 -0.9671 -0.3953  0.0623
  431MOL0     C56823   5.396   6.316   7.489 -0.6758 -0.3388  0.5330
  431MOL0     C56824   5.422   6.220   7.555 -0.6658  0.2758  0.0053
  431MOL0     C56825   4.799   6.120   7.328 -1.1795 -0.6711  0.2919
  431MOL0     C56826   4.688   6.088   7.399  0.0376 -0.3217 -0.5120
  431MOL0     H56827   4.427   6.043   7.800  1.2854  1.9415  1.3578
  431MOL0     H56828   4.239   5.977   7.931 -0.3512 -0.3059  0.7132
  431MOL0     H56829   3.827   6.064   8.011 -0.3572  0.8189 -0.8748
  431MOL0     H56830   3.867   6.137   7.859 -0.0455  3.2528 -0.8814
  431MOL0     H56831   3.876   6.360   8.023 -0.8463  1.3793  0.0477
  431MOL0     H56832   3.812   6.250   8.144 -2.9380  1.3615 -0.2942
  431MOL0     H56833   3.683   6.307   7.870 -1.7042 -2.8684  0.0176
  431MOL0     H56834   3.652   6.398   8.016 -2.2117  0.0751 -1.3301
  431MOL0     H56835   3.579   6.101   7.991 -1.1395 -0.7451  3.3774
  431MOL0     H56836   3.576   6.184   8.137 -2.9007  0.1477  1.0388
  431MOL0     H56837   3.362   6.185   7.993 -2.4076  2.2166  1.7177
  431MOL0     H56838   3.446   6.305   7.900 -1.3540 -2.8453 -0.6488
  431MOL0     H56839   3.298   6.422   8.077 -0.9222 -0.4081  2.2900
  431MOL0     H56840   3.468   6.426   8.139 -0.4942 -0.2819  0.0387
  431MOL0     H56841   3.286   6.181   8.190  2.6252 -1.3392  0.0275
  431MOL0     H56842   3.419   6.236   8.287  0.5975  3.8287  1.2566
  431MOL0     H56843   3.285   6.434   8.362 -0.2221 -0.4133  1.8032
  431MOL0     H56844   3.263   6.272   8.430  1.6501  0.9574  0.6640
  431MOL0     H56845   3.052   6.544   8.360  3.1473  0.5221 -2.3301
  431MOL0     H56846   2.811   6.556   8.356  0.1083  0.9251 -1.3216
  431MOL0     H56847   2.702   6.405   8.335 -1.2974  2.3473  0.3710
  431MOL0     H56848   2.761   6.421   8.093 -2.4986 -0.3498 -1.1383
  431MOL0     H56849   2.797   6.597   8.127  0.7316  0.1182  1.3050
  431MOL0     H56850   2.591   6.572   8.037 -1.4667  2.3960 -0.1971
  431MOL0     H56851   2.538   6.456   8.174  0.8920 -0.3490 -0.5495
  431MOL0     H56852   2.598   6.744   8.207  3.8892 -2.1655 -2.9193
  431MOL0     H56853   2.546   6.637   8.336 -1.9079  0.6506  0.2834
  431MOL0     H56854   2.464   6.876   8.385  0.3790 -0.9929 -0.6688
  431MOL0     H56855   2.342   7.050   8.424 -0.2185 -1.7958  0.4191
  431MOL0     H56856   2.337   7.419   8.370  0.3943 -0.7562 -0.8298
  431MOL0     H56857   2.302   7.659   8.429  0.5480 -0.8179 -0.9747
  431MOL0     H56858   2.234   7.865   8.490  1.2739 -2.3865  0.4199
  431MOL0     H56859   2.198   7.771   8.638 -1.3521 -0.4217  0.8104
  431MOL0     H56860   2.072   8.034   8.560  0.5178  1.0608 -0.0754
  431MOL0     H56861   2.202   8.020   8.690 -1.5572  2.8099 -0.3705
  431MOL0     H56862   2.038   7.892   8.822 -1.2173 -3.6030 -1.6546
  431MOL0     H56863   1.915   7.917   8.690  0.3400 -0.4550 -0.7060
  431MOL0     H56864   2.062   8.115   8.866  0.2227 -1.7268  0.7704
  431MOL0     H56865   1.959   8.164   8.727 -2.8071 -1.8386 -0.9467
  431MOL0     H56866   1.862   8.000   8.972  1.3168 -0.1776  0.9151
  431MOL0     H56867   1.767   8.035   8.827  1.3937  0.7261 -1.3271
  431MOL0     H56868   1.761   8.270   8.883  0.3025  1.2830  0.5312
  431MOL0     H56869   1.906   8.241   8.998  0.7194 -2.2437 -0.7243
  431MOL0     H56870   1.652   8.111   9.026 -1.2956  1.2401  1.8154
  431MOL0     H56871   1.785   8.120   9.143  1.2429  0.1970  0.4823
  431MOL0     H56872   1.580   8.282   9.186  0.6861 -2.4001  0.9819
  431MOL0     H56873   1.642   8.360   9.042  1.5199  2.5842  1.7529
  431MOL0     H56874   1.894   7.560   8.526  0.1341 -0.6035  1.1769
  431MOL0     H56875   1.922   7.335   8.470 -1.6046  1.9848 -0.6986
  431MOL0     H56876   2.057   6.955   8.117  1.5169  1.9910 -1.0600
  431MOL0     H56877   2.175   6.753   8.064 -1.6558 -0.5381  0.0505
  431MOL0     H56878   4.048   6.364   7.845 -1.1083 -1.0406  0.3634
  431MOL0     H56879   4.239   6.410   7.696  0.3271  0.0984 -0.1778
  431MOL0     H56880   4.674   6.335   7.614 -2.1605 -3.1079  0.7315
  431MOL0     H56881   4.900   6.393   7.510 -1.6623  1.2191 -0.5815
  431MOL0     H56882   5.120   6.334   7.442 -1.1891  0.9338 -0.5465
  431MOL0     H56883   5.072   6.442   7.319 -2.2126 -0.5124  0.7725
  431MOL0     H56884   5.270   6.208   7.305  3.3196  0.8862  0.0889
  431MOL0     H56885   5.223   6.293   7.157  1.3984  0.8653  0.0668
  431MOL0     H56886   5.314   6.504   7.231  0.4417 -0.8901 -2.0812
  431MOL0     H56887   5.440   6.376   7.239 -1.5006 -0.6537 -3.6962
  431MOL0     H56888   5.463   6.515   7.412 -1.7132  0.4494 -1.0512
  431MOL0     H56889   5.298   6.504   7.478  0.8619 -0.1949  2.6554
  431MOL0     H56890   5.422   6.119   7.592  0.4052  1.0086  2.1316
  431MOL0     H56891   4.842   6.057   7.251  3.0589  2.2862 -0.1059
  431MOL0     H56892   4.622   6.007   7.370 -0.8356  0.2503 -0.1743
  432MOL0     O56893   5.669   6.698   7.476 -0.7907 -0.0306  0.7821
  432MOL0     C56894   5.690   6.821   7.467  0.6786  0.2503 -0.2506
  432MOL0     O56895   5.590   6.921   7.456  0.4906 -0.2532 -0.3489
  432MOL0     C56896   5.455   6.877   7.459 -0.4544 -0.3742  0.5031
  432MOL0     C56897   5.387   6.863   7.340  1.4836 -0.3275 -1.1498
  432MOL0     C56898   5.250   6.832   7.340 -0.0302 -1.1494  0.4117
  432MOL0     C56899   5.185   6.804   7.464  0.1652 -0.3258  0.7072
  432MOL0     O56900   5.047   6.791   7.458  0.0028  0.1759 -0.0169
  432MOL0     C56901   4.977   6.744   7.575  0.2525  0.9686 -0.1403
  432MOL0     C56902   4.827   6.732   7.557 -0.0288  0.0809 -1.2111
  432MOL0     C56903   4.769   6.680   7.691  0.4064  0.3324 -0.8724
  432MOL0     C56904   4.620   6.684   7.669  1.0299 -0.3028  0.3835
  432MOL0     C56905   4.531   6.598   7.746 -0.5783  0.1689  0.4812
  432MOL0     C56906   4.503   6.650   7.883 -0.5765  0.7911  0.1339
  432MOL0     C56907   4.399   6.561   7.947  0.7513  0.2001  0.4348
  432MOL0     C56908   4.345   6.617   8.081 -1.0451 -0.4914  0.1527
  432MOL0     N56909   4.456   6.634   8.168 -0.8738  0.9449 -0.1212
  432MOL0     C56910   4.503   6.753   8.208  0.0489 -0.6132  0.0293
  432MOL0     C56911   4.611   6.718   8.278  1.0120 -0.3348 -1.0824
  432MOL0     C56912   4.695   6.810   8.352 -0.0352 -0.5499 -0.4947
  432MOL0     C56913   4.833   6.756   8.395 -0.2163  0.4135 -0.5151
  432MOL0     C56914   4.924   6.760   8.266  0.3964 -0.1154  0.7449
  432MOL0     C56915   5.071   6.703   8.299  0.2491 -1.1312  0.4951
  432MOL0     O56916   5.162   6.808   8.360  0.6015  0.0220  0.5944
  432MOL0     C56917   5.300   6.781   8.374  0.6648  1.4245 -0.8023
  432MOL0     C56918   5.365   6.666   8.346  1.1427  1.0483  0.6925
  432MOL0     C56919   5.501   6.655   8.374  0.5998  0.4202 -0.2348
  432MOL0     C56920   5.582   6.763   8.416 -0.8990  0.5592 -0.6804
  432MOL0     C56921   5.729   6.744   8.430  0.0043  0.5694  0.1484
  432MOL0     O56922   5.769   6.615   8.424 -0.2032  0.1480  0.6477
  432MOL0     C56923   5.899   6.578   8.403 -0.1463 -0.8657 -0.1623
  432MOL0     C56924   5.965   6.485   8.485  0.8466  1.2354  0.1231
  432MOL0     C56925   6.101   6.456   8.465  0.4935  0.3749 -0.2208
  432MOL0     C56926   6.167   6.510   8.360  0.7260 -0.0726 -0.2219
  432MOL0     O56927   6.301   6.491   8.332  0.2686 -0.5434  0.2397
  432MOL0     C56928   6.380   6.473   8.455  0.3324 -0.2960  0.3821
  432MOL0     C56929   6.530   6.488   8.424  0.0919 -0.0992 -0.7504
  432MOL0     C56930   6.578   6.378   8.320  0.2264  0.2828 -0.0509
  432MOL0     C56931   6.725   6.400   8.280 -0.1827  0.7114 -0.0119
  432MOL0     C56932   6.738   6.530   8.193 -0.3576  0.6138 -0.1139
  432MOL0     C56933   6.878   6.555   8.137  0.2924  0.3080  0.0995
  432MOL0     C56934   6.899   6.693   8.067 -0.1537  0.6836  0.2177
  432MOL0     C56935   7.019   6.681   7.974  0.6807 -0.5701 -0.4584
  432MOL0    Cl56936   7.051   6.864   7.939 -0.4662  0.0622 -0.4205
  432MOL0     C56937   6.105   6.606   8.278  0.2708  0.6871 -0.1588
  432MOL0     C56938   5.971   6.637   8.303 -0.4923 -1.0605  0.4418
  432MOL0     O56939   5.801   6.843   8.451  0.1503 -0.2146  0.4222
  432MOL0     C56940   5.514   6.879   8.456  0.1784  0.3102  0.6720
  432MOL0     C56941   5.378   6.889   8.427 -0.0272 -0.7531  0.3201
  432MOL0     N56942   4.620   6.585   8.279 -0.2246 -1.1975 -0.6485
  432MOL0     N56943   4.529   6.533   8.216 -0.1635  0.4270  0.1159
  432MOL0     C56944   5.261   6.805   7.578  0.3092 -0.3410 -0.1442
  432MOL0     C56945   5.393   6.851   7.577  0.3735  0.2948 -0.3245
  432MOL0     C56946   5.838   6.859   7.467  0.3718 -0.0014 -0.1572
  432MOL0     C56947   5.941   6.751   7.473 -1.0958 -0.6201 -0.3171
  432MOL0     C56948   6.077   6.792   7.470 -0.2315  0.0187  0.3526
  432MOL0     C56949   6.123   6.929   7.479 -1.3427 -0.2793  0.0647
  432MOL0     O56950   6.262   6.974   7.491  0.4459 -0.2281 -0.1395
  432MOL0     C56951   6.359   6.873   7.503 -0.4619  0.4304  0.1575
  432MOL0     C56952   6.467   6.921   7.403  0.2417  0.2142  0.1324
  432MOL0     C56953   6.416   6.925   7.267  0.6766 -0.5867 -0.1250
  432MOL0     C56954   6.521   6.994   7.176  0.3379  0.4659  0.0725
  432MOL0     C56955   6.645   6.917   7.158  0.1222  0.0231 -0.5709
  432MOL0     C56956   6.739   6.835   7.170  0.6320 -0.1766  0.1823
  432MOL0     C56957   6.018   7.023   7.469 -0.7631 -0.4936 -0.2405
  432MOL0     C56958   5.881   6.989   7.454 -0.4320 -0.7521 -0.4008
  432MOL0     H56959   5.434   6.907   7.252  1.0352  3.3947  0.2758
  432MOL0     H56960   5.206   6.836   7.241  1.1863 -0.1956 -0.1225
  432MOL0     H56961   4.985   6.818   7.655  3.3707  2.6475 -1.8063
  432MOL0     H56962   5.021   6.649   7.606 -1.0977  0.0393 -0.9698
  432MOL0     H56963   4.791   6.684   7.466 -3.0567 -0.3667  0.1226
  432MOL0     H56964   4.776   6.826   7.535 -1.1696 -0.7300 -2.1467
  432MOL0     H56965   4.799   6.746   7.773  1.1072  0.2439 -1.0523
  432MOL0     H56966   4.805   6.580   7.716 -0.0106  0.7457  1.6020
  432MOL0     H56967   4.590   6.788   7.680  2.2258  0.1694 -0.6009
  432MOL0     H56968   4.605   6.653   7.565  0.2790  0.0404  0.3794
  432MOL0     H56969   4.597   6.513   7.761  0.7152  1.0242 -0.2036
  432MOL0     H56970   4.436   6.582   7.694 -0.5292  3.0436 -0.6789
  432MOL0     H56971   4.468   6.753   7.874  0.4493  0.9954 -2.6119
  432MOL0     H56972   4.596   6.646   7.940  0.2804  0.0650 -1.2483
  432MOL0     H56973   4.309   6.545   7.886  0.3971 -0.3548  1.0841
  432MOL0     H56974   4.450   6.465   7.958 -0.7432 -0.9719 -1.8175
  432MOL0     H56975   4.280   6.543   8.129 -2.5117  1.5911  1.5503
  432MOL0     H56976   4.292   6.713   8.076  0.7885  0.4940 -3.1394
  432MOL0     H56977   4.459   6.848   8.180  0.5389 -1.2923 -3.4613
  432MOL0     H56978   4.650   6.844   8.445  0.2856  0.4973 -0.7052
  432MOL0     H56979   4.716   6.903   8.297 -2.0546  0.3114  0.1288
  432MOL0     H56980   4.821   6.651   8.425 -0.3943  0.6028  0.0868
  432MOL0     H56981   4.886   6.817   8.469 -0.3589  0.8281 -0.7524
  432MOL0     H56982   4.870   6.704   8.189  1.8866 -0.1861 -0.2919
  432MOL0     H56983   4.932   6.862   8.228  2.2350 -0.7010 -0.5757
  432MOL0     H56984   5.110   6.662   8.206 -2.4220 -0.2875 -1.1024
  432MOL0     H56985   5.059   6.623   8.373 -1.6098  0.2745  1.8236
  432MOL0     H56986   5.311   6.582   8.303  1.1489  1.1493  0.4872
  432MOL0     H56987   5.546   6.562   8.343 -0.7527  0.1896 -1.6124
  432MOL0     H56988   5.919   6.452   8.578 -0.8751 -0.5258 -1.2781
  432MOL0     H56989   6.151   6.386   8.530 -3.4838 -0.9935  1.7152
  432MOL0     H56990   6.368   6.375   8.500 -1.2052 -0.1245  0.4056
  432MOL0     H56991   6.351   6.552   8.525 -1.0203 -1.1580  0.8336
  432MOL0     H56992   6.588   6.470   8.515  0.2492  2.2683 -0.3192
  432MOL0     H56993   6.554   6.587   8.385 -0.2231  0.8397  1.2929
  432MOL0     H56994   6.516   6.384   8.230 -0.3507  0.9072  0.3733
  432MOL0     H56995   6.564   6.278   8.364 -0.8097  0.8845  1.0463
  432MOL0     H56996   6.784   6.409   8.372  2.0152  0.1557 -1.3001
  432MOL0     H56997   6.769   6.315   8.228 -0.4411  0.2768  0.4770
  432MOL0     H56998   6.709   6.617   8.252  1.2606  0.1792  1.4160
  432MOL0     H56999   6.670   6.525   8.108 -2.8032  1.7445  1.6651
  432MOL0     H57000   6.899   6.475   8.065 -0.8373 -1.2414  1.4305
  432MOL0     H57001   6.936   6.551   8.230 -0.7267 -2.4043  0.6883
  432MOL0     H57002   6.810   6.724   8.012  0.4091  2.3958  0.2189
  432MOL0     H57003   6.923   6.763   8.147  2.5940  1.5935 -1.2758
  432MOL0     H57004   6.997   6.631   7.880 -1.9299  1.4822 -1.0732
  432MOL0     H57005   7.107   6.644   8.028  0.7421  2.4543  1.7940
  432MOL0     H57006   6.157   6.653   8.196  0.2389 -0.3210 -0.7679
  432MOL0     H57007   5.920   6.711   8.241 -1.1972 -1.1626  0.8905
  432MOL0     H57008   5.572   6.951   8.512  1.6222 -2.6219  3.2731
  432MOL0     H57009   5.336   6.986   8.448  3.5990  0.9854  0.2733
  432MOL0     H57010   5.215   6.786   7.674  2.7437  1.5444  1.5344
  432MOL0     H57011   5.443   6.865   7.672 -2.8643 -2.4359  1.9677
  432MOL0     H57012   5.918   6.645   7.482 -4.2107 -0.1374 -1.2944
  432MOL0     H57013   6.151   6.714   7.458 -3.0186 -2.6562 -0.4527
  432MOL0     H57014   6.333   6.768   7.484  1.2064  0.0623 -0.3183
  432MOL0     H57015   6.399   6.865   7.605  0.8047 -1.1659 -0.4056
  432MOL0     H57016   6.508   7.018   7.433  0.6232 -0.3274  1.4324
  432MOL0     H57017   6.551   6.852   7.417 -1.4756 -1.7115  1.5124
  432MOL0     H57018   6.323   6.982   7.265  1.6439  1.0537 -0.9673
  432MOL0     H57019   6.392   6.824   7.235  0.6141 -0.5705 -0.1285
  432MOL0     H57020   6.481   7.017   7.077 -0.2885 -1.1402 -0.0695
  432MOL0     H57021   6.546   7.089   7.226  1.9237 -0.4101  1.0239
  432MOL0     H57022   6.817   6.765   7.191  0.1701 -0.7460  0.0118
  432MOL0     H57023   6.041   7.128   7.471 -0.4195 -0.5831  1.1247
  432MOL0     H57024   5.807   7.067   7.442  3.7356  4.0307  1.4637
  433MOL0     O57025  10.007   4.281   3.884 -0.2399  0.3537  0.0563
  433MOL0     C57026  10.019   4.160   3.873  0.2916  0.1407  0.4381
  433MOL0     O57027   9.921   4.066   3.893  0.6059 -0.4176 -0.5590
  433MOL0     C57028   9.798   4.126   3.914 -0.2454 -0.0438  0.8408
  433MOL0     C57029   9.745   4.140   4.039 -0.0205 -0.9484 -0.2152
  433MOL0     C57030   9.612   4.197   4.060 -0.8470  0.2127 -0.1510
  433MOL0     C57031   9.534   4.223   3.950  0.5832  0.0727  1.0484
  433MOL0     O57032   9.405   4.265   3.966 -0.2862 -0.4972  0.0751
  433MOL0     C57033   9.318   4.183   3.897  0.3927  0.4067 -0.3172
  433MOL0     C57034   9.205   4.124   3.989 -0.4321  0.7042 -1.0926
  433MOL0     C57035   9.093   4.047   3.918 -0.8875 -0.6608 -0.1914
  433MOL0     C57036   8.970   4.018   3.998 -0.3294 -0.1459  0.6029
  433MOL0     C57037   8.973   3.897   4.081  0.3083 -0.2607  0.2273
  433MOL0     C57038   8.860   3.884   4.184  0.8569 -0.2801  0.3180
  433MOL0     C57039   8.714   3.935   4.132  0.2671  0.2948 -0.0826
  433MOL0     C57040   8.611   3.877   4.234  0.4988 -1.0214 -0.7570
  433MOL0     N57041   8.478   3.924   4.207  0.1493 -0.8542 -0.4749
  433MOL0     C57042   8.384   3.962   4.301  0.2881  0.0567  0.0669
  433MOL0     C57043   8.277   3.996   4.235 -0.0555  0.3007 -0.3716
  433MOL0     C57044   8.159   4.043   4.305  0.4489  0.1592 -0.7051
  433MOL0     C57045   8.119   4.173   4.236  0.2610  0.0831  0.3146
  433MOL0     C57046   8.051   4.156   4.103 -0.8613  0.4215  0.5923
  433MOL0     C57047   7.959   4.278   4.067  0.3204 -0.6882 -0.7129
  433MOL0     O57048   7.836   4.247   4.136  0.1222 -0.0089  0.2780
  433MOL0     C57049   7.724   4.324   4.095 -0.0000  0.2075  0.4921
  433MOL0     C57050   7.598   4.287   4.139 -0.6355 -0.5660  0.8187
  433MOL0     C57051   7.499   4.381   4.131  0.1940  0.5210  1.4119
  433MOL0     C57052   7.514   4.507   4.063 -0.7582 -0.0468 -0.2083
  433MOL0     C57053   7.390   4.590   4.040 -0.0558  0.0222 -0.0214
  433MOL0     O57054   7.281   4.544   4.111 -0.5479  0.4041  0.3353
  433MOL0     C57055   7.153   4.588   4.079  0.3982 -0.3872 -0.2376
  433MOL0     C57056   7.102   4.638   3.961 -0.2902  0.1438  0.6960
  433MOL0     C57057   6.964   4.661   3.939 -0.5228  1.4468 -0.6138
  433MOL0     C57058   6.870   4.640   4.034 -0.0050 -0.1532  0.2232
  433MOL0     O57059   6.742   4.667   3.993 -0.0100 -0.0973 -0.0798
  433MOL0     C57060   6.653   4.675   4.101 -0.4369  0.8182 -0.2444
  433MOL0     C57061   6.598   4.543   4.153 -0.7678 -0.0473  0.8566
  433MOL0     C57062   6.442   4.512   4.128  0.7787 -0.6461  0.3996
  433MOL0     C57063   6.416   4.373   4.186 -0.7784 -0.4643 -0.2748
  433MOL0     C57064   6.284   4.313   4.157  0.5751  0.7205 -0.2325
  433MOL0     C57065   6.173   4.412   4.192  0.0018 -0.5758  0.5460
  433MOL0     C57066   6.033   4.337   4.190 -0.5654 -0.6356  0.6007
  433MOL0     C57067   5.903   4.422   4.199 -0.7229 -0.2851  0.0098
  433MOL0    Cl57068   5.759   4.314   4.188  0.2012 -0.0026  0.0482
  433MOL0     C57069   6.919   4.599   4.158 -0.6490 -0.3218 -0.8503
  433MOL0     C57070   7.057   4.575   4.179  0.2606 -1.2639  0.4008
  433MOL0     O57071   7.398   4.676   3.958 -0.1000 -1.1064 -0.0095
  433MOL0     C57072   7.643   4.539   4.016  0.0334 -0.1730 -0.2186
  433MOL0     C57073   7.743   4.442   4.025 -0.1547 -0.1171 -0.3848
  433MOL0     N57074   8.301   3.977   4.103 -0.7610  0.2119  0.1970
  433MOL0     N57075   8.419   3.939   4.083 -0.2056  0.2317 -0.1227
  433MOL0     C57076   9.592   4.223   3.825 -0.4785 -0.4196 -0.0016
  433MOL0     C57077   9.716   4.175   3.807 -0.5148 -0.7050  0.2564
  433MOL0     C57078  10.157   4.114   3.843 -0.1752  0.5901  0.6076
  433MOL0     C57079  10.275   4.179   3.875  1.0538  0.1446  0.1165
  433MOL0     C57080  10.411   4.126   3.859  0.2144  0.8000  0.1331
  433MOL0     C57081  10.416   3.999   3.814 -0.1873  0.2037  0.4537
  433MOL0     O57082  10.534   3.941   3.786 -0.6125  0.4884  0.3279
  433MOL0     C57083  10.653   4.003   3.830 -0.4095 -0.6104 -0.0444
  433MOL0     C57084  10.782   3.932   3.781 -0.8572 -0.0162  0.1526
  433MOL0     C57085  10.911   3.972   3.850  0.3886 -0.1635 -0.5328
  433MOL0     C57086  10.948   4.125   3.832  0.0626  0.1099 -0.6678
  433MOL0     C57087  10.981   4.159   3.695  0.3979 -0.0745  0.5265
  433MOL0     C57088  11.001   4.192   3.579  0.0395  0.3679  0.7800
  433MOL0     C57089  10.297   3.925   3.790 -0.4637  0.0822 -0.4136
  433MOL0     C57090  10.168   3.974   3.803  0.7639 -0.9076  0.3110
  433MOL0     H57091   9.800   4.108   4.127  0.1967  2.8858  1.2309
  433MOL0     H57092   9.578   4.194   4.163 -1.1744  1.3338 -0.2182
  433MOL0     H57093   9.355   4.097   3.841 -3.1285 -1.5513  0.0478
  433MOL0     H57094   9.270   4.243   3.819  1.6285  3.4795  1.0916
  433MOL0     H57095   9.160   4.214   4.030  1.4669  2.1762 -2.0492
  433MOL0     H57096   9.255   4.057   4.059  2.4205  1.5446 -2.1672
  433MOL0     H57097   9.137   3.955   3.879 -3.4413 -0.9142 -2.8811
  433MOL0     H57098   9.064   4.101   3.828  1.5201 -1.0960 -1.2980
  433MOL0     H57099   8.948   4.102   4.065  0.4360  0.4087  0.1747
  433MOL0     H57100   8.884   4.006   3.933  2.1238 -2.8977 -2.4955
  433MOL0     H57101   9.066   3.889   4.138  0.9635  0.1764 -0.7521
  433MOL0     H57102   8.979   3.809   4.016 -0.9535 -0.7986  0.7948
  433MOL0     H57103   8.889   3.949   4.267  0.8691  2.4478 -1.6992
  433MOL0     H57104   8.840   3.782   4.217 -4.1614 -0.1001 -1.3421
  433MOL0     H57105   8.714   4.044   4.132  0.5994  0.3185 -1.7052
  433MOL0     H57106   8.698   3.895   4.031  1.4744 -1.2286  0.2811
  433MOL0     H57107   8.650   3.901   4.334 -1.4441 -0.3453 -0.1329
  433MOL0     H57108   8.616   3.767   4.233  0.6080 -1.1656  2.6651
  433MOL0     H57109   8.387   3.992   4.406 -0.4811  1.5910 -0.3114
  433MOL0     H57110   8.189   4.064   4.408  2.5052 -3.3033 -0.4522
  433MOL0     H57111   8.073   3.975   4.306 -1.2503  2.1388 -2.3082
  433MOL0     H57112   8.207   4.237   4.232  0.3496  0.0842  1.6358
  433MOL0     H57113   8.042   4.216   4.301 -0.8068 -0.8880 -0.2738
  433MOL0     H57114   8.123   4.141   4.021 -0.0521  1.6556  1.0561
  433MOL0     H57115   7.992   4.064   4.113  2.6486 -2.1634 -0.2437
  433MOL0     H57116   7.935   4.278   3.960  1.0547  0.8178 -0.9019
  433MOL0     H57117   8.000   4.376   4.093 -0.2526 -0.5563 -0.3043
  433MOL0     H57118   7.594   4.195   4.196  3.8328  0.1121  2.6498
  433MOL0     H57119   7.410   4.342   4.179  1.4307 -2.8147  1.2855
  433MOL0     H57120   7.160   4.660   3.872 -3.2036  1.4907 -1.0195
  433MOL0     H57121   6.924   4.708   3.850 -5.7275  2.2106  1.7432
  433MOL0     H57122   6.558   4.721   4.071 -1.6675 -0.6210  1.2888
  433MOL0     H57123   6.692   4.734   4.185  4.9087  0.7815 -2.3147
  433MOL0     H57124   6.605   4.541   4.263 -2.3630  1.6378  1.0454
  433MOL0     H57125   6.660   4.462   4.115  1.2919  1.1291  1.5602
  433MOL0     H57126   6.410   4.519   4.023 -2.7465  2.2849  1.4767
  433MOL0     H57127   6.388   4.588   4.185  1.8320 -1.9580  3.3584
  433MOL0     H57128   6.491   4.311   4.134 -0.6623  1.7417 -2.9515
  433MOL0     H57129   6.432   4.384   4.294 -0.4783  1.2119 -0.4569
  433MOL0     H57130   6.270   4.227   4.223 -0.1119  1.5144  0.6880
  433MOL0     H57131   6.294   4.278   4.054 -1.3538 -3.5252  0.8204
  433MOL0     H57132   6.165   4.499   4.127  0.0438 -1.0117 -0.0563
  433MOL0     H57133   6.182   4.454   4.293  0.3953  1.2102 -0.2031
  433MOL0     H57134   6.033   4.271   4.103  0.3890 -0.9852  0.8506
  433MOL0     H57135   6.030   4.264   4.271 -0.4848  0.8430  1.9876
  433MOL0     H57136   5.904   4.508   4.132 -3.5772  0.3912  0.7216
  433MOL0     H57137   5.902   4.467   4.299 -0.8217 -2.6151  1.1309
  433MOL0     H57138   6.861   4.579   4.247  2.0061  1.2585  1.4382
  433MOL0     H57139   7.080   4.530   4.275 -1.7696 -0.3432  1.3682
  433MOL0     H57140   7.663   4.636   3.974 -0.0814  0.4683  1.1482
  433MOL0     H57141   7.840   4.479   3.993 -1.1561  0.9718 -2.3887
  433MOL0     H57142   9.545   4.250   3.731  2.4217 -2.1357 -2.1057
  433MOL0     H57143   9.749   4.181   3.704  2.3762  0.9436  1.1389
  433MOL0     H57144  10.274   4.286   3.894 -0.4444  0.1550  0.1329
  433MOL0     H57145  10.497   4.192   3.866 -2.0058  3.8535  0.2159
  433MOL0     H57146  10.660   3.997   3.939  1.2947  2.1197  0.0988
  433MOL0     H57147  10.654   4.106   3.792 -2.0853 -1.1475 -1.6887
  433MOL0     H57148  10.771   3.824   3.791  0.0894  0.0013  1.6290
  433MOL0     H57149  10.796   3.953   3.675 -1.4105  0.6586  0.2036
  433MOL0     H57150  10.990   3.915   3.800  2.5151  2.2340 -0.1280
  433MOL0     H57151  10.922   3.948   3.956  3.1606  0.9087 -0.4993
  433MOL0     H57152  10.859   4.185   3.854 -0.2114  0.6024 -2.8943
  433MOL0     H57153  11.026   4.162   3.899  2.0353 -0.8731 -2.3203
  433MOL0     H57154  10.995   4.235   3.481 -3.2777 -0.3369  0.5686
  433MOL0     H57155  10.299   3.823   3.753 -0.0674  0.1302 -0.5259
  433MOL0     H57156  10.080   3.921   3.770  1.6960 -0.9395 -2.3796
  434MOL0     O57157   0.470   9.091   4.122 -0.4385  0.4334  0.0382
  434MOL0     C57158   0.515   9.026   4.027  0.4546  0.0129  1.4322
  434MOL0     O57159   0.437   8.953   3.935  0.0400  0.2163 -0.8001
  434MOL0     C57160   0.296   8.956   3.942 -0.7574 -0.1797  0.0100
  434MOL0     C57161   0.211   8.989   4.052 -1.0309 -0.4308 -0.5037
  434MOL0     C57162   0.074   9.002   4.027 -0.2413 -0.3063 -0.1429
  434MOL0     C57163   0.021   8.948   3.908  0.9204 -0.5290  0.5855
  434MOL0     O57164  -0.113   8.959   3.891  0.4325 -0.0837  0.1153
  434MOL0     C57165  -0.177   8.860   3.802 -1.0086 -0.7150 -0.2096
  434MOL0     C57166  -0.327   8.900   3.797 -0.4622 -0.3278 -0.2762
  434MOL0     C57167  -0.396   8.801   3.696  0.2261  0.2147 -0.5890
  434MOL0     C57168  -0.424   8.661   3.762 -0.3269  0.6288  0.9922
  434MOL0     C57169  -0.538   8.663   3.872  0.3266 -0.5114  0.4920
  434MOL0     C57170  -0.681   8.711   3.815 -1.3093  0.6025 -0.0578
  434MOL0     C57171  -0.784   8.673   3.914  0.3504 -0.4048 -0.0002
  434MOL0     C57172  -0.925   8.725   3.858  0.3598  0.1574 -0.1586
  434MOL0     N57173  -1.029   8.679   3.952 -0.1246  1.1821  0.1318
  434MOL0     C57174  -1.097   8.554   3.939  1.0379  0.9076  0.0264
  434MOL0     C57175  -1.186   8.546   4.043 -0.6450  0.1392 -0.7896
  434MOL0     C57176  -1.299   8.454   4.055 -0.5568  0.0629  0.4450
  434MOL0     C57177  -1.436   8.517   4.052 -0.0398 -0.1347 -0.7354
  434MOL0     C57178  -1.510   8.515   4.191 -1.0017 -0.4396 -0.0880
  434MOL0     C57179  -1.653   8.561   4.202 -0.2273  0.1155  0.2665
  434MOL0     O57180  -1.672   8.691   4.137 -0.2156  0.1408 -0.3959
  434MOL0     C57181  -1.800   8.738   4.128 -0.4712 -0.3187  0.9593
  434MOL0     C57182  -1.823   8.849   4.041  0.0808  0.4092 -0.5187
  434MOL0     C57183  -1.952   8.902   4.025 -0.8461  0.1351  0.9175
  434MOL0     C57184  -2.066   8.850   4.091 -0.6261 -0.2125 -0.3221
  434MOL0     C57185  -2.197   8.902   4.070 -0.2490  0.4710 -0.3384
  434MOL0     O57186  -2.199   9.030   4.007  0.1371 -0.0590 -0.2498
  434MOL0     C57187  -2.324   9.083   3.993  0.2357 -0.2744 -1.1971
  434MOL0     C57188  -2.390   9.112   4.112 -0.1290  0.8289 -0.6051
  434MOL0     C57189  -2.524   9.150   4.108 -0.6611 -1.0989 -0.2456
  434MOL0     C57190  -2.583   9.172   3.984  0.4594  0.3404 -1.4603
  434MOL0     O57191  -2.720   9.197   3.984  0.0125  0.2215  0.6890
  434MOL0     C57192  -2.790   9.224   3.861 -0.0739 -0.1156  0.2455
  434MOL0     C57193  -2.818   9.103   3.767 -0.2575 -0.2807 -0.7803
  434MOL0     C57194  -2.882   9.147   3.633 -0.0264  0.3583 -0.5834
  434MOL0     C57195  -2.933   9.036   3.534 -0.7774  0.0210  0.6407
  434MOL0     C57196  -3.068   8.976   3.565 -0.0632 -0.3981  0.4932
  434MOL0     C57197  -3.179   9.076   3.575 -0.0474 -0.6898 -0.4282
  434MOL0     C57198  -3.317   9.019   3.574  0.0037  0.1883 -0.0666
  434MOL0     C57199  -3.412   9.122   3.517  0.0371  0.3298  0.4614
  434MOL0    Cl57200  -3.473   9.231   3.643 -0.3242 -0.0827  0.2337
  434MOL0     C57201  -2.502   9.159   3.872 -0.0885 -0.3169  0.0735
  434MOL0     C57202  -2.373   9.124   3.878 -0.3631  0.2302 -0.2096
  434MOL0     O57203  -2.294   8.828   4.092  0.4787  0.7094  0.8953
  434MOL0     C57204  -2.044   8.753   4.180 -0.2667  1.1791 -0.0920
  434MOL0     C57205  -1.915   8.698   4.198 -1.2361  0.2488  0.4648
  434MOL0     N57206  -1.163   8.667   4.129  0.0196  0.7366 -0.5349
  434MOL0     N57207  -1.067   8.735   4.067 -0.8289  0.1916  0.5118
  434MOL0     C57208   0.104   8.907   3.807 -0.0345  0.9462 -0.4465
  434MOL0     C57209   0.242   8.920   3.821  0.5180  0.3643 -0.0165
  434MOL0     C57210   0.660   9.021   4.008  0.7051 -0.2106 -0.5413
  434MOL0     C57211   0.758   9.084   4.085 -0.9282  0.4195 -0.2513
  434MOL0     C57212   0.893   9.059   4.062  0.2270 -0.1500 -0.3805
  434MOL0     C57213   0.941   8.970   3.963  0.9124  0.2773 -0.4601
  434MOL0     O57214   1.074   8.947   3.943  0.2535  0.4511 -0.3499
  434MOL0     C57215   1.163   8.977   4.044 -0.3559  0.2484  0.6317
  434MOL0     C57216   1.306   8.911   4.018 -0.2734 -0.4878  0.0452
  434MOL0     C57217   1.365   8.987   3.894 -0.1025 -0.8730  0.8370
  434MOL0     C57218   1.501   8.935   3.837 -0.3040  0.2438  0.5606
  434MOL0     C57219   1.601   8.912   3.941  0.4908 -0.4054 -0.7826
  434MOL0     C57220   1.682   8.900   4.035 -0.4415 -0.4082 -0.3280
  434MOL0     C57221   0.845   8.905   3.886  0.0092 -0.1080  0.3473
  434MOL0     C57222   0.707   8.927   3.905  1.1522 -0.5363  0.2239
  434MOL0     H57223   0.241   9.021   4.151 -0.8427 -0.3052 -0.6006
  434MOL0     H57224   0.006   9.028   4.108 -0.4342 -0.6720 -0.1895
  434MOL0     H57225  -0.163   8.762   3.848  1.3329 -0.1461  0.3782
  434MOL0     H57226  -0.142   8.861   3.698 -1.2105  0.3586 -0.2782
  434MOL0     H57227  -0.338   9.005   3.768  0.4956 -0.0349  0.4028
  434MOL0     H57228  -0.362   8.882   3.899  1.8173  2.1885  1.0752
  434MOL0     H57229  -0.342   8.787   3.602 -0.5198  0.7018 -1.1013
  434MOL0     H57230  -0.494   8.842   3.671  0.2063  1.7401  1.6678
  434MOL0     H57231  -0.464   8.601   3.680 -0.6646  2.7449 -0.4872
  434MOL0     H57232  -0.332   8.617   3.800 -1.3232 -0.0234  2.7525
  434MOL0     H57233  -0.507   8.725   3.957  1.4742 -3.0172  2.0088
  434MOL0     H57234  -0.537   8.561   3.911  1.8252 -0.0265  1.8511
  434MOL0     H57235  -0.707   8.661   3.722 -0.7671  0.3184 -0.0641
  434MOL0     H57236  -0.680   8.819   3.795 -0.8147  0.2159 -2.4237
  434MOL0     H57237  -0.787   8.565   3.929 -4.3271 -0.5333 -0.3787
  434MOL0     H57238  -0.773   8.711   4.016 -2.6804  0.5459  0.0962
  434MOL0     H57239  -0.938   8.688   3.756 -1.3283 -0.6676  0.3195
  434MOL0     H57240  -0.928   8.834   3.857  1.4403  0.2600  2.1401
  434MOL0     H57241  -1.076   8.481   3.861  1.5213  2.6145 -1.4992
  434MOL0     H57242  -1.292   8.401   4.151  0.0607  1.1412  1.0218
  434MOL0     H57243  -1.289   8.383   3.973 -0.1548 -0.8914  1.2925
  434MOL0     H57244  -1.487   8.451   3.981 -0.1706 -1.6513  0.6876
  434MOL0     H57245  -1.432   8.616   4.005  1.4086  1.2910  2.1201
  434MOL0     H57246  -1.518   8.414   4.232 -2.9695  0.1462  1.0863
  434MOL0     H57247  -1.447   8.587   4.245 -0.3793 -0.5769 -0.6156
  434MOL0     H57248  -1.693   8.571   4.303 -1.3506 -1.5187  0.0186
  434MOL0     H57249  -1.711   8.489   4.144 -0.1161 -0.5847  1.0114
  434MOL0     H57250  -1.744   8.875   3.972  0.8563 -1.2493 -0.2857
  434MOL0     H57251  -1.975   8.990   3.967 -0.1217  0.2545  0.7949
  434MOL0     H57252  -2.354   9.081   4.209 -2.8775  0.6955  0.4640
  434MOL0     H57253  -2.582   9.165   4.198 -0.5058  1.9929 -0.5451
  434MOL0     H57254  -2.742   9.309   3.811 -0.8850  1.3039  1.7915
  434MOL0     H57255  -2.891   9.252   3.892 -0.1664 -2.0047  1.8632
  434MOL0     H57256  -2.883   9.026   3.810 -0.5642 -1.0843 -2.5886
  434MOL0     H57257  -2.724   9.052   3.745  1.2387  2.5071 -1.3022
  434MOL0     H57258  -2.803   9.207   3.589  1.4520 -2.6086 -2.2579
  434MOL0     H57259  -2.957   9.225   3.648  0.6797  1.5902 -3.0688
  434MOL0     H57260  -2.940   9.073   3.431  2.5897  0.9256  0.6111
  434MOL0     H57261  -2.858   8.958   3.547  1.4256  2.5113  6.8326
  434MOL0     H57262  -3.064   8.913   3.655 -0.4963 -0.8169  0.2235
  434MOL0     H57263  -3.086   8.908   3.482 -0.9980  0.0157  0.3470
  434MOL0     H57264  -3.165   9.140   3.487  1.8989  1.2833  1.2214
  434MOL0     H57265  -3.185   9.147   3.657 -0.7686 -0.7472 -0.4236
  434MOL0     H57266  -3.314   8.929   3.511 -1.8252  1.1774 -1.6530
  434MOL0     H57267  -3.351   8.985   3.672 -0.8820 -1.6496 -0.9496
  434MOL0     H57268  -3.498   9.078   3.466  0.3239 -0.0820  0.3253
  434MOL0     H57269  -3.361   9.165   3.431  4.3642 -3.0852  0.9236
  434MOL0     H57270  -2.543   9.200   3.780 -0.9643 -0.2208  0.4937
  434MOL0     H57271  -2.314   9.122   3.787 -0.7087  2.8798 -0.5708
  434MOL0     H57272  -2.127   8.713   4.238 -0.4830  1.0449 -0.4912
  434MOL0     H57273  -1.903   8.615   4.267  2.1340  0.3893  0.2276
  434MOL0     H57274   0.063   8.859   3.719 -0.5999 -2.0176  1.2884
  434MOL0     H57275   0.312   8.888   3.745 -1.4193 -3.5021 -0.4465
  434MOL0     H57276   0.737   9.156   4.164  2.3446  2.3051 -0.9324
  434MOL0     H57277   0.955   9.119   4.127 -1.5755  1.5318 -0.1109
  434MOL0     H57278   1.125   8.935   4.138  1.2918 -0.9244  0.8255
  434MOL0     H57279   1.171   9.086   4.045  0.5160  0.2099 -0.5358
  434MOL0     H57280   1.367   8.914   4.108 -1.3093  0.3512  0.7296
  434MOL0     H57281   1.297   8.803   4.003 -0.3323 -0.5481  0.5253
  434MOL0     H57282   1.373   9.091   3.925 -3.9890  0.0771 -0.8591
  434MOL0     H57283   1.293   8.989   3.812 -0.6007 -0.0620  1.2852
  434MOL0     H57284   1.486   8.838   3.788 -0.4367  0.5819 -0.0825
  434MOL0     H57285   1.550   9.002   3.766  3.1529 -1.9217  0.6924
  434MOL0     H57286   1.755   8.874   4.109  0.8760 -1.3057 -1.8894
  434MOL0     H57287   0.876   8.842   3.804  0.5830 -0.8185  1.0929
  434MOL0     H57288   0.646   8.864   3.841  1.6064  0.0283 -0.7900
  435MOL0     O57289  11.165   7.649   9.863  0.1040 -0.1093 -0.7768
  435MOL0     C57290  11.221   7.607   9.965  0.2673 -0.2278  0.7297
  435MOL0     O57291  11.161   7.563  10.081 -0.1405 -0.6827  0.1278
  435MOL0     C57292  11.026   7.535  10.067 -0.8279 -0.9137 -0.0085
  435MOL0     C57293  10.964   7.457   9.970  0.4425 -0.0157  0.4276
  435MOL0     C57294  10.828   7.431   9.971 -0.5554  0.2252  0.6127
  435MOL0     C57295  10.742   7.475  10.072  0.1259 -0.4679  0.3665
  435MOL0     O57296  10.611   7.448  10.085 -0.3964  0.7113 -0.1630
  435MOL0     C57297  10.529   7.460   9.965  0.0146 -0.0026  0.6185
  435MOL0     C57298  10.486   7.607   9.961 -0.2442 -0.1650 -0.5823
  435MOL0     C57299  10.413   7.647   9.828 -0.0809 -0.2296  0.0453
  435MOL0     C57300  10.259   7.622   9.845 -0.3192 -0.7829 -0.5472
  435MOL0     C57301  10.201   7.661   9.702 -0.2744  0.5382 -0.9406
  435MOL0     C57302  10.053   7.662   9.719  1.0380 -0.0974 -0.0631
  435MOL0     C57303   9.982   7.711   9.589  1.1248 -1.0543 -0.2374
  435MOL0     C57304   9.845   7.774   9.612 -0.2115 -0.2322  0.4063
  435MOL0     N57305   9.756   7.678   9.678  0.1563  0.4364  0.3190
  435MOL0     C57306   9.745   7.652   9.813  0.1446  1.0402  0.2384
  435MOL0     C57307   9.639   7.571   9.821  0.4999 -0.5127 -0.2878
  435MOL0     C57308   9.572   7.555   9.958 -0.3011  0.6931 -0.4490
  435MOL0     C57309   9.437   7.612   9.959  1.0198 -0.0393  0.3423
  435MOL0     C57310   9.366   7.606  10.097  0.0166 -0.4988 -0.1943
  435MOL0     C57311   9.213   7.612  10.076 -0.0182  0.5422 -0.1365
  435MOL0     O57312   9.161   7.494  10.002  0.3246 -0.4650  0.0678
  435MOL0     C57313   9.049   7.429  10.048  0.5187 -0.3981 -0.5815
  435MOL0     C57314   9.052   7.289  10.072 -0.1860 -0.7065 -0.0687
  435MOL0     C57315   8.945   7.211  10.123  0.5773 -0.1793 -0.4995
  435MOL0     C57316   8.825   7.285  10.155  0.3810 -0.0078  0.2437
  435MOL0     C57317   8.706   7.212  10.196  0.0595  0.0809  0.4675
  435MOL0     O57318   8.588   7.282  10.203  0.2702  0.0848 -0.3431
  435MOL0     C57319   8.468   7.214  10.216 -0.1304  1.0396 -0.0133
  435MOL0     C57320   8.450   7.136  10.326  1.0384  0.1058  0.3563
  435MOL0     C57321   8.343   7.045  10.335  0.6733 -0.4979 -0.4178
  435MOL0     C57322   8.255   7.034  10.228  0.0832  0.1859  0.4235
  435MOL0     O57323   8.155   6.941  10.239  0.0926 -0.5589  0.7953
  435MOL0     C57324   8.079   6.898  10.123  0.0872  0.0446  0.6974
  435MOL0     C57325   8.003   6.765  10.136  0.0730  0.6260  0.9972
  435MOL0     C57326   7.894   6.737  10.037  0.2269  0.4499 -0.4600
  435MOL0     C57327   7.842   6.594  10.067 -0.8858 -0.1820 -0.5285
  435MOL0     C57328   7.715   6.598   9.983  0.6713  0.2488  0.2852
  435MOL0     C57329   7.611   6.483  10.001  0.2285  0.2743  0.5057
  435MOL0     C57330   7.675   6.358   9.946 -0.1141 -1.0096  0.5574
  435MOL0     C57331   7.566   6.253   9.968 -0.0489 -0.0958  0.4999
  435MOL0    Cl57332   7.629   6.089   9.918  0.5963 -0.1246 -0.2874
  435MOL0     C57333   8.275   7.115  10.112  0.3900  0.2575  0.5252
  435MOL0     C57334   8.381   7.207  10.107 -1.2082  0.2776  0.0008
  435MOL0     O57335   8.726   7.090  10.198  0.0314  0.5587  0.3959
  435MOL0     C57336   8.822   7.425  10.141 -0.3012 -0.1133  0.0947
  435MOL0     C57337   8.932   7.488  10.082 -0.0660  0.2105 -0.0787
  435MOL0     N57338   9.587   7.548   9.695  0.9178 -1.3287 -0.1352
  435MOL0     N57339   9.658   7.609   9.611 -0.6902 -0.2347 -0.2219
  435MOL0     C57340  10.798   7.555  10.166 -0.4961 -0.6891 -0.7348
  435MOL0     C57341  10.939   7.589  10.168 -0.2059 -0.6258  0.6066
  435MOL0     C57342  11.366   7.612   9.958 -0.3048  0.4811  0.9398
  435MOL0     C57343  11.440   7.593  10.075 -0.5783 -0.1198 -0.5137
  435MOL0     C57344  11.580   7.587  10.065  0.2436 -0.1772  0.0113
  435MOL0     C57345  11.649   7.599   9.940 -0.2436  0.6683 -0.2371
  435MOL0     O57346  11.788   7.586   9.930  0.1875 -0.0701 -0.0121
  435MOL0     C57347  11.865   7.585  10.049 -0.3392 -0.3164 -0.5930
  435MOL0     C57348  12.013   7.608  10.032  0.1076  0.4987 -0.4534
  435MOL0     C57349  12.114   7.603  10.159  0.2151 -0.3678 -0.1366
  435MOL0     C57350  12.261   7.579  10.126  0.8316  0.9767  0.6808
  435MOL0     C57351  12.308   7.676  10.030  0.1267 -0.0701  0.2708
  435MOL0     C57352  12.336   7.747   9.937  0.3010 -1.0555  0.3714
  435MOL0     C57353  11.578   7.620   9.828 -0.0279 -0.1050  0.4800
  435MOL0     C57354  11.439   7.636   9.834 -0.2597  0.6697 -0.0334
  435MOL0     H57355  11.025   7.438   9.882  0.0027  0.3463  0.0451
  435MOL0     H57356  10.784   7.381   9.886 -0.7180 -0.7073  1.2267
  435MOL0     H57357  10.443   7.399   9.993  0.7290 -0.0013  3.0488
  435MOL0     H57358  10.577   7.432   9.871 -1.9538  2.0383 -1.1006
  435MOL0     H57359  10.577   7.667   9.960  0.8043 -1.7030 -1.3587
  435MOL0     H57360  10.425   7.634  10.047 -2.0490  0.7996 -2.0927
  435MOL0     H57361  10.463   7.591   9.748  0.3729  0.0757  0.1103
  435MOL0     H57362  10.427   7.753   9.804 -0.7366  0.2849  1.7830
  435MOL0     H57363  10.242   7.516   9.868  0.2218 -0.8576 -0.4860
  435MOL0     H57364  10.214   7.677   9.928 -1.1834 -1.8909 -0.2577
  435MOL0     H57365  10.226   7.592   9.621  0.3254  0.2158 -0.4863
  435MOL0     H57366  10.238   7.760   9.672 -0.9232  0.5589 -1.7055
  435MOL0     H57367  10.035   7.729   9.803  1.1957 -1.1911  0.8617
  435MOL0     H57368  10.025   7.563   9.754  1.9966 -0.8260 -1.2766
  435MOL0     H57369  10.048   7.780   9.536 -0.0782  1.6226  1.5341
  435MOL0     H57370   9.971   7.622   9.527  2.5999 -0.1944 -1.7929
  435MOL0     H57371   9.801   7.810   9.519 -1.8797  0.6577  1.4775
  435MOL0     H57372   9.856   7.867   9.669  1.6030  0.9175 -1.6616
  435MOL0     H57373   9.813   7.688   9.890 -0.9598 -1.1353  2.3799
  435MOL0     H57374   9.616   7.605  10.045  3.3397 -3.1082  0.1841
  435MOL0     H57375   9.569   7.448   9.978 -0.4768  1.2710  3.4770
  435MOL0     H57376   9.390   7.549   9.882 -1.0188  3.4845 -1.5493
  435MOL0     H57377   9.438   7.714   9.920  0.1771 -0.6562 -1.4270
  435MOL0     H57378   9.399   7.511  10.140  1.5750  0.0035 -0.2373
  435MOL0     H57379   9.390   7.685  10.168  0.4375 -0.3602 -0.4918
  435MOL0     H57380   9.181   7.699  10.017 -1.2031  0.9009  0.9706
  435MOL0     H57381   9.165   7.630  10.173  2.2361 -0.5993  1.2696
  435MOL0     H57382   9.143   7.238  10.043  0.2908  0.5504 -0.8952
  435MOL0     H57383   8.948   7.106  10.148  0.7085  0.1390  0.8944
  435MOL0     H57384   8.525   7.122  10.403 -0.7262 -1.7407  1.8513
  435MOL0     H57385   8.327   6.986  10.425 -1.3526 -0.0020 -0.4182
  435MOL0     H57386   8.150   6.893  10.040  2.5963  1.3427  2.5841
  435MOL0     H57387   8.012   6.982  10.104  0.3163  0.2967  0.9769
  435MOL0     H57388   7.961   6.758  10.236 -1.7858 -1.2186  0.1519
  435MOL0     H57389   8.071   6.681  10.122  0.8807  1.5923 -1.4387
  435MOL0     H57390   7.937   6.741   9.937 -2.5130  1.2750 -1.6852
  435MOL0     H57391   7.813   6.811  10.041 -0.8476 -0.6006 -1.8333
  435MOL0     H57392   7.916   6.516  10.047 -0.2241 -0.1098  1.4374
  435MOL0     H57393   7.813   6.575  10.171 -0.9580  0.1947 -0.4772
  435MOL0     H57394   7.729   6.612   9.875 -4.2729 -1.2221 -0.8310
  435MOL0     H57395   7.659   6.687  10.013 -0.9869 -1.1109  1.3964
  435MOL0     H57396   7.519   6.497   9.943 -0.1799  0.4527  1.1879
  435MOL0     H57397   7.583   6.482  10.107 -0.0963  0.5083  0.4266
  435MOL0     H57398   7.691   6.362   9.838  0.1280 -1.3315  0.5803
  435MOL0     H57399   7.771   6.347   9.998  0.2101 -4.0081 -0.4498
  435MOL0     H57400   7.481   6.287   9.908 -0.5441 -1.2152  0.5387
  435MOL0     H57401   7.540   6.260  10.074 -0.2771  2.7621  0.3484
  435MOL0     H57402   8.207   7.102  10.029 -0.2791  0.8878  0.9604
  435MOL0     H57403   8.395   7.269  10.019  1.5217  2.5229  1.8351
  435MOL0     H57404   8.738   7.489  10.167 -0.8179  0.5810 -2.9439
  435MOL0     H57405   8.917   7.595  10.090 -1.7314 -0.0612  0.9355
  435MOL0     H57406  10.741   7.586  10.253  1.8039  1.4221  0.1520
  435MOL0     H57407  10.980   7.655  10.244  1.3155 -2.1157  1.1676
  435MOL0     H57408  11.389   7.567  10.167 -1.4631  2.3209 -0.2506
  435MOL0     H57409  11.639   7.572  10.155  2.3149  2.3153 -0.8157
  435MOL0     H57410  11.844   7.495  10.107  0.1247 -0.4997 -0.7040
  435MOL0     H57411  11.836   7.674  10.106  0.1692  0.2962 -1.2690
  435MOL0     H57412  12.053   7.539   9.957  0.6326  0.2652  0.0299
  435MOL0     H57413  12.030   7.702   9.978  2.6892 -0.6622 -1.8633
  435MOL0     H57414  12.077   7.527  10.228 -0.7868 -0.1974 -0.4703
  435MOL0     H57415  12.113   7.705  10.198 -0.0571 -0.5077  0.2234
  435MOL0     H57416  12.321   7.580  10.218 -1.7556  0.7575  2.4681
  435MOL0     H57417  12.270   7.482  10.076  0.3560  0.1892  2.0617
  435MOL0     H57418  12.385   7.819   9.873 -0.3425 -0.3088  0.7077
  435MOL0     H57419  11.633   7.635   9.736 -2.1193 -1.4738 -1.0964
  435MOL0     H57420  11.384   7.664   9.744 -0.6208  1.8210  0.5281
  436MOL0     O57421   7.064   2.128  10.603 -0.0733  0.2695 -0.3431
  436MOL0     C57422   7.045   2.023  10.667  0.3411  0.7498 -0.2035
  436MOL0     O57423   7.131   1.910  10.681 -0.3553 -0.0604 -0.2011
  436MOL0     C57424   7.248   1.919  10.616  0.4939  0.3985 -0.4287
  436MOL0     C57425   7.262   1.944  10.478  0.2367  1.7577 -0.1705
  436MOL0     C57426   7.385   1.970  10.428  0.7702 -0.0860  0.1286
  436MOL0     C57427   7.499   1.953  10.507 -0.0743 -0.1868  0.5885
  436MOL0     O57428   7.623   1.999  10.444 -0.2500  0.7732 -0.0584
  436MOL0     C57429   7.718   2.077  10.523  0.5450  0.2006  0.7432
  436MOL0     C57430   7.799   2.174  10.438  0.2761 -0.5430 -0.2269
  436MOL0     C57431   7.848   2.118  10.304 -0.4613 -0.1366 -0.7157
  436MOL0     C57432   7.940   2.225  10.243  0.0354  0.2616  0.1614
  436MOL0     C57433   8.027   2.173  10.128 -1.1686 -0.4473 -0.0878
  436MOL0     C57434   8.107   2.281  10.050 -0.3510  0.5349  0.1834
  436MOL0     C57435   8.023   2.377   9.973 -0.5282  0.4666  0.2588
  436MOL0     C57436   7.969   2.312   9.848  0.4705 -0.8681  0.2351
  436MOL0     N57437   7.839   2.365   9.818  0.9761 -0.0994 -0.3512
  436MOL0     C57438   7.718   2.305   9.855  0.2435 -0.4549  0.5760
  436MOL0     C57439   7.622   2.396   9.821  0.4237  0.2752 -0.4286
  436MOL0     C57440   7.471   2.383   9.841  0.2155 -0.5287  0.3563
  436MOL0     C57441   7.446   2.340   9.989  0.3959 -0.1542 -0.3309
  436MOL0     C57442   7.478   2.450  10.095 -0.5243 -0.1749 -0.1015
  436MOL0     C57443   7.386   2.437  10.217  0.0829 -0.4084 -0.7235
  436MOL0     O57444   7.262   2.514  10.208 -0.4123  0.2691 -0.4191
  436MOL0     C57445   7.162   2.508  10.305 -0.9557  0.5611  0.2428
  436MOL0     C57446   7.030   2.548  10.271 -0.2859  0.8305 -1.2341
  436MOL0     C57447   6.929   2.542  10.369  0.5587  0.3480  0.1876
  436MOL0     C57448   6.955   2.505  10.504 -1.8589  0.1845  0.7190
  436MOL0     C57449   6.851   2.507  10.607  0.0253 -0.1221 -0.3232
  436MOL0     O57450   6.739   2.580  10.572  0.0768  0.1423  0.3262
  436MOL0     C57451   6.632   2.578  10.655  0.0597 -0.5907  0.6084
  436MOL0     C57452   6.599   2.686  10.735  0.0281 -0.5240  0.4911
  436MOL0     C57453   6.478   2.677  10.811 -0.2147  0.6842 -0.4995
  436MOL0     C57454   6.399   2.559  10.820 -0.1827  0.7179  0.0771
  436MOL0     O57455   6.300   2.533  10.910  0.0847  0.6344  0.5008
  436MOL0     C57456   6.284   2.630  11.016  0.5440 -0.2259  1.1403
  436MOL0     C57457   6.261   2.547  11.141 -0.3417  0.1116 -0.2744
  436MOL0     C57458   6.200   2.626  11.252  0.3443 -0.2858  0.4068
  436MOL0     C57459   6.129   2.547  11.356 -0.6168  0.6158  0.5422
  436MOL0     C57460   6.233   2.474  11.452 -0.2651  0.4653  0.0112
  436MOL0     C57461   6.174   2.417  11.584  0.9964  0.1503 -0.7221
  436MOL0     C57462   6.041   2.340  11.549 -0.9034 -0.0514  0.0065
  436MOL0     C57463   5.964   2.295  11.675 -0.0260 -0.2495  1.2797
  436MOL0    Cl57464   5.860   2.444  11.706  0.1454 -0.1749 -0.3430
  436MOL0     C57465   6.440   2.451  10.737  0.0901  0.4697 -1.0033
  436MOL0     C57466   6.541   2.469  10.651 -0.4187  0.6420  0.4937
  436MOL0     O57467   6.857   2.438  10.708 -0.3585  0.4575  0.2856
  436MOL0     C57468   7.092   2.463  10.535  0.4621 -0.5890  0.7071
  436MOL0     C57469   7.193   2.471  10.434  0.4250 -0.4663 -0.4992
  436MOL0     N57470   7.679   2.499   9.760  0.0484  0.0725 -0.3753
  436MOL0     N57471   7.804   2.477   9.745 -0.4392 -0.8440  0.1857
  436MOL0     C57472   7.485   1.917  10.637 -0.1382  1.0903 -0.2890
  436MOL0     C57473   7.357   1.904  10.698 -1.5684 -0.3152 -0.1792
  436MOL0     C57474   6.909   2.007  10.717  0.0492  0.0082  0.7112
  436MOL0     C57475   6.820   2.115  10.715 -0.9891 -0.1955  0.1338
  436MOL0     C57476   6.689   2.101  10.767 -0.6701 -0.1131 -0.3773
  436MOL0     C57477   6.636   1.979  10.816  0.1385 -0.4366  0.6172
  436MOL0     O57478   6.514   1.973  10.887  0.1115 -0.8167  0.9871
  436MOL0     C57479   6.466   2.092  10.963  0.0292  0.7891  0.5801
  436MOL0     C57480   6.566   2.112  11.080  0.0084  0.2114  0.1094
  436MOL0     C57481   6.536   2.248  11.139 -0.3159 -0.0501 -0.4838
  436MOL0     C57482   6.548   2.240  11.290 -0.0306  0.8781 -0.5674
  436MOL0     C57483   6.691   2.235  11.340 -0.1204  0.1024  0.3897
  436MOL0     C57484   6.805   2.228  11.371 -0.7094 -0.2833  0.4098
  436MOL0     C57485   6.723   1.876  10.811  0.5155  0.6579  0.0503
  436MOL0     C57486   6.847   1.884  10.752 -0.4409  1.0467 -1.2189
  436MOL0     H57487   7.172   1.947  10.417  0.1304 -0.1647 -0.1746
  436MOL0     H57488   7.407   1.998  10.325  1.1683 -0.9461 -0.0269
  436MOL0     H57489   7.789   2.002  10.560  1.0907  0.8353  0.9906
  436MOL0     H57490   7.661   2.133  10.597 -0.9092 -0.5785  0.2492
  436MOL0     H57491   7.884   2.211  10.496 -0.0187 -1.1366  0.6062
  436MOL0     H57492   7.737   2.263  10.427 -0.3892 -0.3300  3.7423
  436MOL0     H57493   7.763   2.086  10.243  0.0099  1.3240 -2.1855
  436MOL0     H57494   7.909   2.033  10.336 -1.4166  0.9721  5.3780
  436MOL0     H57495   7.868   2.302  10.214 -1.8695 -0.9278  1.5169
  436MOL0     H57496   8.013   2.262  10.316  1.5616 -0.5136 -0.9045
  436MOL0     H57497   7.969   2.118  10.053 -0.8585  0.2092 -0.8301
  436MOL0     H57498   8.098   2.100  10.169  0.8703  1.4792  0.0327
  436MOL0     H57499   8.172   2.237   9.974 -1.6610  0.9464 -1.2004
  436MOL0     H57500   8.173   2.341  10.114  0.6603  0.4804 -0.7759
  436MOL0     H57501   7.941   2.429  10.024  2.2008  3.1525  2.2034
  436MOL0     H57502   8.083   2.462   9.942  0.7721 -0.6020 -0.2427
  436MOL0     H57503   7.971   2.203   9.844  0.5271 -0.8377 -1.3729
  436MOL0     H57504   8.034   2.344   9.766  0.3214 -0.7434  0.1642
  436MOL0     H57505   7.697   2.215   9.911  0.3001 -1.5272 -1.0598
  436MOL0     H57506   7.427   2.310   9.772 -0.0386  2.8325 -3.3965
  436MOL0     H57507   7.430   2.481   9.817 -1.2160 -1.4577 -1.2390
  436MOL0     H57508   7.505   2.248   9.997 -1.3931 -1.3356 -0.0801
  436MOL0     H57509   7.340   2.320  10.004  0.7547 -0.7481  1.8434
  436MOL0     H57510   7.582   2.442  10.128  0.1227  0.1077 -1.9667
  436MOL0     H57511   7.469   2.545  10.041  2.0502  1.2330  1.7370
  436MOL0     H57512   7.443   2.465  10.306 -0.2587 -0.2749 -0.5439
  436MOL0     H57513   7.366   2.331  10.235  1.8711 -0.5495  0.7519
  436MOL0     H57514   7.002   2.580  10.171  0.8057 -0.6496 -2.0494
  436MOL0     H57515   6.829   2.580  10.347  1.7497  3.1584 -0.8212
  436MOL0     H57516   6.659   2.776  10.725 -0.8065  0.0764  0.7274
  436MOL0     H57517   6.462   2.765  10.874 -0.3800  0.9893 -0.9654
  436MOL0     H57518   6.189   2.678  10.989  0.9469 -0.1608 -0.2485
  436MOL0     H57519   6.360   2.708  11.023 -0.4616  0.7890  1.1070
  436MOL0     H57520   6.351   2.493  11.172 -1.7302 -1.1239  1.8548
  436MOL0     H57521   6.181   2.478  11.115 -0.9087  2.1376 -5.0253
  436MOL0     H57522   6.129   2.698  11.209  1.4796  0.7621  0.2446
  436MOL0     H57523   6.276   2.687  11.301  0.7621 -0.5219  0.0652
  436MOL0     H57524   6.066   2.621  11.406  0.4384  3.4636 -2.0056
  436MOL0     H57525   6.067   2.473  11.303  0.3287 -0.6538  1.1510
  436MOL0     H57526   6.311   2.545  11.477  0.9737 -0.2857 -1.5219
  436MOL0     H57527   6.280   2.386  11.406 -2.0599 -0.1213 -0.8310
  436MOL0     H57528   6.155   2.505  11.646  2.1467  2.0250 -2.8580
  436MOL0     H57529   6.248   2.352  11.630  0.2466 -0.9904 -1.1005
  436MOL0     H57530   5.976   2.388  11.475  1.6697  0.5596 -1.9729
  436MOL0     H57531   6.084   2.258  11.491 -0.1159  1.4835 -1.6699
  436MOL0     H57532   6.029   2.283  11.762 -1.3292 -0.7197  2.2138
  436MOL0     H57533   5.921   2.197  11.653  2.8774 -1.5622  1.0055
  436MOL0     H57534   6.380   2.360  10.734  1.6762 -0.6101 -1.3820
  436MOL0     H57535   6.555   2.389  10.579 -1.9674 -0.7414  1.6459
  436MOL0     H57536   7.118   2.438  10.638 -0.7325  0.5373  1.3077
  436MOL0     H57537   7.287   2.428  10.466  0.2493 -0.9716 -0.6477
  436MOL0     H57538   7.572   1.905  10.701  0.3947  0.4993 -1.1073
  436MOL0     H57539   7.352   1.869  10.801 -0.5714  0.5860  0.1962
  436MOL0     H57540   6.844   2.215  10.682 -0.5295  0.2963  1.8780
  436MOL0     H57541   6.631   2.192  10.778  1.5726  1.2643  0.8490
  436MOL0     H57542   6.369   2.075  11.010  0.8837 -0.7690  1.8808
  436MOL0     H57543   6.465   2.178  10.895  1.0574  0.3883  0.0302
  436MOL0     H57544   6.541   2.037  11.155 -0.9564  0.5427  0.1339
  436MOL0     H57545   6.671   2.101  11.053 -0.2369  2.4073 -2.1195
  436MOL0     H57546   6.440   2.288  11.105  0.2579  2.3107  0.4656
  436MOL0     H57547   6.607   2.323  11.101 -2.2745  0.9828 -2.2878
  436MOL0     H57548   6.511   2.333  11.335  0.3616  0.8132 -0.1013
  436MOL0     H57549   6.497   2.153  11.332  0.7076 -0.0267 -1.5068
  436MOL0     H57550   6.909   2.208  11.391 -1.0922 -2.3854  0.4653
  436MOL0     H57551   6.676   1.787  10.851 -1.4389  0.3727 -2.6135
  436MOL0     H57552   6.903   1.793  10.735 -0.9587  0.7495 -1.3698
  437MOL0     O57553   5.899   0.939   8.542  0.8596  0.0994  0.8981
  437MOL0     C57554   5.933   0.908   8.658  0.4841  0.4043 -0.5655
  437MOL0     O57555   5.849   0.883   8.762  0.2292 -0.1905 -0.4915
  437MOL0     C57556   5.710   0.862   8.732 -0.7997  0.4635  0.6628
  437MOL0     C57557   5.620   0.958   8.785 -0.0001  0.5099  0.7890
  437MOL0     C57558   5.481   0.944   8.761  0.0539 -0.1257 -0.8663
  437MOL0     C57559   5.428   0.847   8.678  0.1851  0.3385  0.6642
  437MOL0     O57560   5.289   0.820   8.669 -0.3461  0.7422  0.4543
  437MOL0     C57561   5.230   0.886   8.554  0.5723 -0.8670  0.0636
  437MOL0     C57562   5.077   0.868   8.546  0.1213  0.2475  0.1269
  437MOL0     C57563   5.005   0.926   8.676  0.1470 -1.0612 -0.6242
  437MOL0     C57564   4.851   0.893   8.687  0.1418  0.1467  0.4896
  437MOL0     C57565   4.776   0.937   8.562  0.7044  0.2707 -0.3427
  437MOL0     C57566   4.624   0.916   8.563 -0.1943 -0.0843  0.2708
  437MOL0     C57567   4.582   0.767   8.584 -0.5886  0.7635  0.3272
  437MOL0     C57568   4.634   0.667   8.476 -0.1980  0.2967 -0.0706
  437MOL0     N57569   4.537   0.569   8.443 -0.1203 -0.4612  0.7277
  437MOL0     C57570   4.524   0.447   8.509  0.0637  0.3707  0.0549
  437MOL0     C57571   4.430   0.375   8.439 -0.1391  0.3974 -0.0067
  437MOL0     C57572   4.358   0.244   8.481 -0.0316 -0.3349 -0.5894
  437MOL0     C57573   4.312   0.149   8.377  0.0378 -0.9186 -0.1489
  437MOL0     C57574   4.429   0.107   8.284  0.6573 -0.1132  0.0364
  437MOL0     C57575   4.408  -0.028   8.214 -0.7355 -0.5664  0.3410
  437MOL0     O57576   4.288  -0.024   8.145 -0.6978  0.4111 -0.8356
  437MOL0     C57577   4.190  -0.115   8.168 -0.7344 -0.0484 -0.9862
  437MOL0     C57578   4.196  -0.246   8.125  0.8636  0.6385 -0.8933
  437MOL0     C57579   4.087  -0.334   8.127  0.7966 -0.0083  0.7309
  437MOL0     C57580   3.957  -0.284   8.171 -1.1952  0.4882  0.0929
  437MOL0     C57581   3.840  -0.371   8.166  0.2711  0.7726 -0.0250
  437MOL0     O57582   3.855  -0.502   8.132 -0.1799 -0.7785  0.1340
  437MOL0     C57583   3.760  -0.593   8.147  0.5418  0.0352  0.6671
  437MOL0     C57584   3.753  -0.680   8.257 -0.2142 -0.4211  0.2642
  437MOL0     C57585   3.665  -0.785   8.273  0.1804 -0.3719  0.3792
  437MOL0     C57586   3.579  -0.806   8.165  0.0631  0.2314  0.0562
  437MOL0     O57587   3.481  -0.905   8.181 -0.2259 -0.6579 -0.2675
  437MOL0     C57588   3.407  -0.934   8.067 -0.1906  0.0195  0.5349
  437MOL0     C57589   3.318  -1.035   8.110  0.5875  0.7985 -0.3283
  437MOL0     C57590   3.241  -1.078   7.990 -0.9391  0.9975 -0.5028
  437MOL0     C57591   3.141  -1.192   8.018  0.5537 -0.4471  0.2047
  437MOL0     C57592   3.003  -1.182   7.946 -0.1265  0.0772  0.2168
  437MOL0     C57593   2.901  -1.274   8.005 -0.0710  0.3652 -0.3320
  437MOL0     C57594   2.762  -1.256   7.943  0.1075 -0.2037  0.1361
  437MOL0     C57595   2.741  -1.321   7.803 -0.4081 -0.1188 -0.2555
  437MOL0    Cl57596   2.706  -1.493   7.855  0.1039  0.0580  0.2273
  437MOL0     C57597   3.579  -0.728   8.053 -0.8842  0.2703  0.5331
  437MOL0     C57598   3.657  -0.610   8.046 -0.3672 -0.4297 -0.2548
  437MOL0     O57599   3.736  -0.325   8.220  0.0403 -0.0490  0.3879
  437MOL0     C57600   3.957  -0.152   8.218  0.4742 -0.3501  0.1606
  437MOL0     C57601   4.070  -0.068   8.215  0.3751  0.2427 -0.2768
  437MOL0     N57602   4.377   0.460   8.343  0.1112  0.6258  0.4250
  437MOL0     N57603   4.438   0.568   8.352  0.7550  0.6720 -0.1981
  437MOL0     C57604   5.513   0.756   8.623  0.0147  0.7093  0.2404
  437MOL0     C57605   5.655   0.762   8.648  1.0073  0.8395  0.5642
  437MOL0     C57606   6.074   0.925   8.685 -0.2476  0.7853  0.4931
  437MOL0     C57607   6.110   0.940   8.823 -0.2624  0.4370 -1.0075
  437MOL0     C57608   6.242   0.946   8.861  0.8997 -0.7794 -0.3246
  437MOL0     C57609   6.346   0.943   8.768  0.1907  0.7429  0.5943
  437MOL0     O57610   6.480   0.953   8.799  0.2621  0.7158  0.4134
  437MOL0     C57611   6.584   0.949   8.696  1.0641  0.1783  0.9914
  437MOL0     C57612   6.736   0.953   8.747 -0.0870  0.6540  0.1117
  437MOL0     C57613   6.840   0.890   8.646  0.6305 -0.6388  0.1738
  437MOL0     C57614   6.991   0.920   8.677  0.8644 -0.0105 -0.6697
  437MOL0     C57615   7.021   1.068   8.672  0.0376  0.4381  1.2162
  437MOL0     C57616   7.067   1.177   8.658 -0.7246  0.7746  0.0351
  437MOL0     C57617   6.302   0.930   8.625  0.6782  1.5712 -0.0344
  437MOL0     C57618   6.171   0.926   8.590  0.2806 -0.1017  1.2746
  437MOL0     H57619   5.656   1.019   8.868  0.9011  0.5369  0.3907
  437MOL0     H57620   5.412   1.004   8.820  1.5529  1.8572 -1.0042
  437MOL0     H57621   5.282   0.858   8.462  0.0963  2.5903 -1.3923
  437MOL0     H57622   5.242   0.993   8.573  0.4714 -0.3030 -2.6569
  437MOL0     H57623   5.053   0.765   8.516 -0.5485  0.2207  0.7063
  437MOL0     H57624   5.043   0.936   8.467  3.1303  0.9976 -0.6409
  437MOL0     H57625   5.018   1.035   8.683 -2.6131 -0.7293  0.7518
  437MOL0     H57626   5.055   0.884   8.764 -0.1174  0.9099  0.5305
  437MOL0     H57627   4.853   0.786   8.707  3.0515  0.3071  1.5319
  437MOL0     H57628   4.809   0.939   8.778 -1.9442  0.9735 -0.8105
  437MOL0     H57629   4.815   0.887   8.473  1.9582  2.3427 -1.0365
  437MOL0     H57630   4.794   1.042   8.539 -0.2506  0.2445 -1.2766
  437MOL0     H57631   4.591   0.959   8.468  2.0817  3.1374  0.7882
  437MOL0     H57632   4.575   0.983   8.634  1.2648  2.5621 -1.0710
  437MOL0     H57633   4.615   0.726   8.680  0.4385 -0.6634 -0.6006
  437MOL0     H57634   4.473   0.767   8.583 -0.6885  2.7146  2.2259
  437MOL0     H57635   4.723   0.618   8.515 -2.0041 -3.9383 -0.6614
  437MOL0     H57636   4.658   0.721   8.384 -0.3628 -2.6108 -1.9252
  437MOL0     H57637   4.576   0.411   8.597  1.5105 -0.3181 -1.0428
  437MOL0     H57638   4.278   0.272   8.550  1.0612 -0.6501  0.8464
  437MOL0     H57639   4.428   0.190   8.545 -0.8849 -1.0732 -0.2542
  437MOL0     H57640   4.228   0.199   8.328  1.4519  1.7065 -0.1107
  437MOL0     H57641   4.276   0.071   8.444  1.6317  0.2246  2.1787
  437MOL0     H57642   4.440   0.184   8.207 -1.5267 -1.3271 -1.6163
  437MOL0     H57643   4.520   0.101   8.343  1.0284 -0.4528 -0.5613
  437MOL0     H57644   4.420  -0.105   8.291 -0.1700  1.0604  1.9626
  437MOL0     H57645   4.484  -0.040   8.136  0.3509  1.2862  1.0269
  437MOL0     H57646   4.298  -0.269   8.095  1.0344 -1.9113  1.2898
  437MOL0     H57647   4.088  -0.433   8.082 -1.9043 -1.4354  3.4035
  437MOL0     H57648   3.830  -0.684   8.333 -0.1637  1.6028  0.3853
  437MOL0     H57649   3.659  -0.861   8.350 -1.6646 -2.0288 -1.2662
  437MOL0     H57650   3.472  -0.970   7.988  0.7011  0.2496  1.1489
  437MOL0     H57651   3.359  -0.842   8.033  0.7157  0.5630  0.6881
  437MOL0     H57652   3.247  -0.999   8.185 -0.5111  1.2909 -1.5679
  437MOL0     H57653   3.372  -1.121   8.152 -1.5710  0.0264  0.9957
  437MOL0     H57654   3.318  -1.100   7.916  0.9530  0.2444  1.5589
  437MOL0     H57655   3.180  -0.994   7.955 -1.4872  0.6782 -0.3269
  437MOL0     H57656   3.181  -1.290   7.991 -0.2643 -0.7095 -0.1064
  437MOL0     H57657   3.112  -1.200   8.123  0.7797 -3.9115  0.1421
  437MOL0     H57658   3.003  -1.202   7.838 -1.6479 -0.3516  0.2821
  437MOL0     H57659   2.963  -1.081   7.961  0.4826  0.1276  1.6966
  437MOL0     H57660   2.895  -1.254   8.112  1.0358 -0.2065 -0.1448
  437MOL0     H57661   2.942  -1.372   7.980 -2.1605 -1.2343  2.0529
  437MOL0     H57662   2.683  -1.286   8.012 -0.2720  2.8506  1.1688
  437MOL0     H57663   2.744  -1.149   7.933 -3.0588 -0.5350  1.1572
  437MOL0     H57664   2.818  -1.309   7.727 -0.1661 -2.5588 -0.4539
  437MOL0     H57665   2.650  -1.283   7.755  0.1577  0.5991 -0.7783
  437MOL0     H57666   3.508  -0.733   7.971  0.4855 -1.2131 -0.6421
  437MOL0     H57667   3.652  -0.551   7.956 -2.5967 -2.0474 -1.3021
  437MOL0     H57668   3.867  -0.108   8.260 -1.0361 -2.0745 -1.0521
  437MOL0     H57669   4.068   0.037   8.243  2.5442 -0.3998  2.7972
  437MOL0     H57670   5.482   0.674   8.559 -0.3861  1.2803 -0.3142
  437MOL0     H57671   5.723   0.691   8.604 -0.0593  0.4617 -0.5252
  437MOL0     H57672   6.036   0.942   8.903  1.1027  1.2704  0.2858
  437MOL0     H57673   6.273   0.950   8.965 -1.9909 -1.9839  0.6857
  437MOL0     H57674   6.566   1.044   8.644 -0.8296  0.3735  1.9032
  437MOL0     H57675   6.554   0.873   8.624 -1.5032  0.3956  1.7191
  437MOL0     H57676   6.762   1.056   8.773 -1.3791  0.9996  0.0896
  437MOL0     H57677   6.754   0.898   8.840 -1.2310  2.7525  1.6942
  437MOL0     H57678   6.821   0.937   8.549 -1.7954 -1.4903  0.1609
  437MOL0     H57679   6.826   0.782   8.635  0.8165 -0.7392  0.9034
  437MOL0     H57680   7.000   0.892   8.783 -1.7516 -2.1998 -0.9018
  437MOL0     H57681   7.055   0.866   8.607 -1.3098 -3.7031 -0.0812
  437MOL0     H57682   7.121   1.270   8.659  0.6212  0.0207  0.5486
  437MOL0     H57683   6.374   0.908   8.546 -0.8327 -1.9371 -0.6189
  437MOL0     H57684   6.143   0.920   8.485 -2.1820  2.1262  1.6804
  438MOL0     O57685   0.538  10.343   3.344  0.1731  0.6155  0.4525
  438MOL0     C57686   0.612  10.245   3.357 -1.1151  0.0698  0.3309
  438MOL0     O57687   0.589  10.127   3.420 -0.4131 -0.8050  0.7298
  438MOL0     C57688   0.472  10.086   3.464  0.2882 -0.7052  0.5231
  438MOL0     C57689   0.347  10.128   3.431  0.2249 -0.5135 -1.1364
  438MOL0     C57690   0.225  10.063   3.476  0.1153  0.1530 -0.7948
  438MOL0     C57691   0.226   9.961   3.566 -0.3369  1.2535 -0.9274
  438MOL0     O57692   0.105   9.914   3.607  0.1759  0.6866 -0.4426
  438MOL0     C57693   0.087   9.802   3.698 -0.0686  0.5353 -0.4229
  438MOL0     C57694  -0.047   9.734   3.691 -0.5953  0.8879 -1.0615
  438MOL0     C57695  -0.083   9.675   3.554  0.4530 -0.4898  1.5593
  438MOL0     C57696  -0.202   9.586   3.559  0.0175  1.0317  0.3743
  438MOL0     C57697  -0.238   9.557   3.414 -0.7793  0.8283  0.9105
  438MOL0     C57698  -0.356   9.469   3.394  0.9021  0.6777  0.4252
  438MOL0     C57699  -0.491   9.537   3.423  0.2288 -0.1769  0.0297
  438MOL0     C57700  -0.572   9.561   3.302 -0.2605 -0.0945  0.0303
  438MOL0     N57701  -0.710   9.593   3.326 -0.1561  0.3998 -0.8905
  438MOL0     C57702  -0.753   9.714   3.377 -0.9158  0.6091 -0.7257
  438MOL0     C57703  -0.891   9.709   3.391  0.4446 -0.1033  0.5547
  438MOL0     C57704  -0.960   9.815   3.467  0.0879 -0.7065  0.0490
  438MOL0     C57705  -1.103   9.841   3.424 -0.2589 -0.3587 -0.3121
  438MOL0     C57706  -1.168   9.930   3.524 -0.3758 -0.3955 -0.2153
  438MOL0     C57707  -1.309   9.954   3.502  0.1626 -0.4862  0.3996
  438MOL0     O57708  -1.338  10.010   3.374 -0.4131  0.0938 -0.6237
  438MOL0     C57709  -1.458  10.057   3.369  0.5209 -0.7217  0.2255
  438MOL0     C57710  -1.569   9.988   3.319  0.1853  0.2631  0.8812
  438MOL0     C57711  -1.696  10.032   3.334  0.5487 -0.0346 -0.1664
  438MOL0     C57712  -1.719  10.157   3.402  0.9551 -0.1248  0.7306
  438MOL0     C57713  -1.862  10.211   3.416 -0.6802  0.2286  0.5498
  438MOL0     O57714  -1.962  10.125   3.396  0.1566  0.1108  0.4861
  438MOL0     C57715  -2.086  10.164   3.427 -0.3368 -0.3206 -0.3724
  438MOL0     C57716  -2.142  10.185   3.554 -0.4329 -0.2236 -0.0768
  438MOL0     C57717  -2.279  10.214   3.567  0.4744 -0.3187 -0.2524
  438MOL0     C57718  -2.360  10.209   3.457  0.4165  0.0579  0.1310
  438MOL0     O57719  -2.502  10.223   3.461 -0.2640  0.1230  0.5963
  438MOL0     C57720  -2.552  10.323   3.555 -0.9496  0.1599  0.3300
  438MOL0     C57721  -2.690  10.371   3.517 -0.0209 -0.1174 -0.2491
  438MOL0     C57722  -2.730  10.492   3.615  0.8232 -0.4202  0.3864
  438MOL0     C57723  -2.858  10.568   3.568 -0.3859  0.0561  0.0502
  438MOL0     C57724  -2.824  10.666   3.456 -0.3638  0.0509 -0.9454
  438MOL0     C57725  -2.940  10.755   3.415 -0.5090 -0.3240  0.5023
  438MOL0     C57726  -3.072  10.681   3.383 -0.0470  0.0244  0.2097
  438MOL0     C57727  -3.188  10.784   3.381 -0.3278  1.0039 -0.0526
  438MOL0    Cl57728  -3.229  10.841   3.550 -0.1485  0.0090 -0.4630
  438MOL0     C57729  -2.302  10.188   3.331  0.4239 -0.2958  0.0911
  438MOL0     C57730  -2.167  10.164   3.313  0.1403 -0.6819 -0.6891
  438MOL0     O57731  -1.883  10.331   3.434 -0.1237  0.2629  0.2812
  438MOL0     C57732  -1.606  10.230   3.441  0.9154 -0.7604 -0.0804
  438MOL0     C57733  -1.484  10.177   3.434 -0.2058 -0.6144  0.1880
  438MOL0     N57734  -0.928   9.580   3.360  0.2186  0.3206  0.3652
  438MOL0     N57735  -0.821   9.518   3.308  0.4237 -0.3134 -0.6902
  438MOL0     C57736   0.355   9.922   3.611 -0.6723 -0.2670  0.0783
  438MOL0     C57737   0.475   9.982   3.558  0.1064 -0.0974 -0.6927
  438MOL0     C57738   0.745  10.253   3.302 -0.4689  0.1949 -0.4284
  438MOL0     C57739   0.849  10.179   3.348 -0.5150  0.2374 -0.6643
  438MOL0     C57740   0.975  10.176   3.289 -0.0171  0.9750  0.4779
  438MOL0     C57741   0.999  10.253   3.177 -0.7538  0.0447 -0.4774
  438MOL0     O57742   1.126  10.242   3.121  0.4357 -0.6503 -0.1050
  438MOL0     C57743   1.154  10.324   3.003  0.3068 -0.5269  0.0727
  438MOL0     C57744   1.297  10.284   2.964 -0.1996 -0.3126  0.6076
  438MOL0     C57745   1.361  10.399   2.869 -0.2390  0.4402 -0.5376
  438MOL0     C57746   1.509  10.354   2.839  0.7735 -0.0297 -0.5306
  438MOL0     C57747   1.573  10.458   2.753  0.2568 -0.4734  0.6740
  438MOL0     C57748   1.616  10.544   2.679 -0.2221 -0.4233  1.0066
  438MOL0     C57749   0.901  10.331   3.132  0.1240  0.2181 -0.3327
  438MOL0     C57750   0.772  10.330   3.192 -0.2981  1.3488  1.5435
  438MOL0     H57751   0.330  10.221   3.379 -0.8205  0.6299  1.0984
  438MOL0     H57752   0.130  10.110   3.451  0.9586  2.5804  0.2277
  438MOL0     H57753   0.099   9.844   3.799 -0.9594 -0.3024  0.0477
  438MOL0     H57754   0.158   9.721   3.678  0.7373  0.3647  2.6440
  438MOL0     H57755  -0.121   9.809   3.720 -0.4719  1.1392 -1.3881
  438MOL0     H57756  -0.057   9.654   3.765 -1.8298 -0.2657 -2.4162
  438MOL0     H57757   0.003   9.622   3.512 -0.4269 -0.1909 -0.7308
  438MOL0     H57758  -0.108   9.763   3.493  1.6853 -0.9428  0.3636
  438MOL0     H57759  -0.181   9.493   3.613 -1.5870 -1.1466 -2.4934
  438MOL0     H57760  -0.280   9.640   3.614 -1.4603 -0.0004 -0.6135
  438MOL0     H57761  -0.153   9.501   3.374 -1.8845 -0.5149  0.3665
  438MOL0     H57762  -0.248   9.647   3.352 -0.5618  0.5493  0.4591
  438MOL0     H57763  -0.347   9.392   3.471 -1.7731  1.7493  1.9518
  438MOL0     H57764  -0.361   9.425   3.294 -2.9277  0.9776  0.3415
  438MOL0     H57765  -0.548   9.477   3.495 -0.7645  2.2303  1.3507
  438MOL0     H57766  -0.470   9.636   3.465  0.1543  0.2840 -0.9938
  438MOL0     H57767  -0.567   9.473   3.237 -0.3425 -0.0453 -0.0420
  438MOL0     H57768  -0.528   9.649   3.256 -0.7388  0.9511  1.5042
  438MOL0     H57769  -0.690   9.800   3.398 -1.5902  0.4382  2.4877
  438MOL0     H57770  -0.901   9.907   3.458 -1.0550 -0.1269 -5.9329
  438MOL0     H57771  -0.955   9.788   3.573  1.9373  3.1570  1.1323
  438MOL0     H57772  -1.149   9.742   3.417  1.1252 -1.1510  1.0036
  438MOL0     H57773  -1.114   9.897   3.331  0.1564  3.6094  1.8262
  438MOL0     H57774  -1.171   9.881   3.622 -1.8130  0.8829  0.4118
  438MOL0     H57775  -1.105  10.019   3.530  1.1247 -1.2923 -1.6827
  438MOL0     H57776  -1.345  10.017   3.584 -1.5735 -0.7297 -0.1251
  438MOL0     H57777  -1.365   9.860   3.508 -1.4274  0.4668  1.4161
  438MOL0     H57778  -1.549   9.890   3.277 -0.0567  0.3720  0.5090
  438MOL0     H57779  -1.781   9.973   3.301  2.9878 -1.8705 -3.8813
  438MOL0     H57780  -2.077  10.166   3.638 -0.0288  1.4274  0.0144
  438MOL0     H57781  -2.313  10.228   3.669  1.9672  0.8646  0.1279
  438MOL0     H57782  -2.488  10.412   3.549  1.0785 -1.3017 -1.2526
  438MOL0     H57783  -2.554  10.278   3.654 -1.7697 -1.6704 -0.4639
  438MOL0     H57784  -2.752  10.280   3.519  2.5985 -1.9926  1.0367
  438MOL0     H57785  -2.705  10.417   3.419 -1.4155  1.3274  0.5843
  438MOL0     H57786  -2.649  10.565   3.623 -0.0299  0.5756  0.3287
  438MOL0     H57787  -2.741  10.457   3.718  3.2670 -0.3516  0.7221
  438MOL0     H57788  -2.929  10.490   3.539  0.6558 -0.5109 -1.1207
  438MOL0     H57789  -2.905  10.621   3.651 -1.8454 -1.4274  0.2246
  438MOL0     H57790  -2.783  10.616   3.368  0.4664 -0.1116 -0.4749
  438MOL0     H57791  -2.748  10.739   3.485 -1.3251  1.2290 -1.2434
  438MOL0     H57792  -2.902  10.822   3.337  2.0231 -0.8379  1.2084
  438MOL0     H57793  -2.959  10.808   3.509 -0.6117 -0.7265  0.7117
  438MOL0     H57794  -3.058  10.620   3.293  0.6074 -2.6165  1.9977
  438MOL0     H57795  -3.096  10.605   3.457  3.1037 -0.7306  0.5961
  438MOL0     H57796  -3.283  10.741   3.349  0.4151  0.7024 -1.9851
  438MOL0     H57797  -3.158  10.864   3.312  2.2912  2.4154  2.4679
  438MOL0     H57798  -2.371  10.204   3.249  0.6933  1.1853  0.1257
  438MOL0     H57799  -2.130  10.157   3.211 -0.9122  2.3965 -1.4005
  438MOL0     H57800  -1.626  10.321   3.497  0.2168 -1.1281  0.2832
  438MOL0     H57801  -1.399  10.240   3.457 -0.2020 -0.2545 -0.7702
  438MOL0     H57802   0.371   9.846   3.687  0.0872  0.9451  1.1581
  438MOL0     H57803   0.576   9.959   3.591  0.1972 -0.4820 -1.2198
  438MOL0     H57804   0.840  10.130   3.445  2.1049  2.7470  1.0251
  438MOL0     H57805   1.059  10.128   3.340 -2.0929 -0.1639  3.0660
  438MOL0     H57806   1.153  10.429   3.035  0.4053 -0.9062  1.3827
  438MOL0     H57807   1.082  10.314   2.922  1.4265  2.7329 -1.4994
  438MOL0     H57808   1.348  10.280   3.060  0.3095  2.2123  0.5209
  438MOL0     H57809   1.303  10.189   2.911  0.0206  0.3787 -0.6569
  438MOL0     H57810   1.354  10.497   2.918  0.5967 -0.0604  0.6091
  438MOL0     H57811   1.308  10.410   2.774 -1.3004 -0.9292 -0.1412
  438MOL0     H57812   1.560  10.342   2.935  1.2755 -0.2625 -0.8256
  438MOL0     H57813   1.513  10.262   2.781  0.3634  1.7198 -3.5130
  438MOL0     H57814   1.644  10.632   2.623  0.2682  0.6703  2.8863
  438MOL0     H57815   0.909  10.407   3.054  2.1182  0.3165 -0.1017
  438MOL0     H57816   0.697  10.395   3.146  1.3924  1.7128 -0.8600
  439MOL0     O57817   4.017   7.617   3.157 -0.2390 -0.3140 -1.0128
  439MOL0     C57818   4.077   7.679   3.247  0.2464 -0.0169 -0.2266
  439MOL0     O57819   4.052   7.686   3.385  0.1640 -0.1247  1.1304
  439MOL0     C57820   3.931   7.634   3.424  0.3498 -1.0066 -0.1546
  439MOL0     C57821   3.840   7.721   3.486 -0.8244  0.1848 -0.0668
  439MOL0     C57822   3.711   7.674   3.518 -0.1922 -0.4729  0.3891
  439MOL0     C57823   3.678   7.539   3.504 -0.4826  0.5220 -0.2394
  439MOL0     O57824   3.550   7.490   3.532  0.1772  0.6957  0.3217
  439MOL0     C57825   3.461   7.546   3.622  0.5603 -0.2062 -0.5273
  439MOL0     C57826   3.377   7.426   3.666 -0.4645  0.4257 -0.5993
  439MOL0     C57827   3.248   7.482   3.734 -0.2645  0.0252 -0.7433
  439MOL0     C57828   3.162   7.370   3.778 -0.3013  0.4199 -0.4551
  439MOL0     C57829   3.045   7.412   3.869  1.2173  0.2221  0.1689
  439MOL0     C57830   2.918   7.457   3.803 -0.0524  0.2657 -0.6978
  439MOL0     C57831   2.791   7.452   3.894  1.3918 -1.0678  0.6033
  439MOL0     C57832   2.668   7.531   3.837 -0.7288 -0.2300  0.2704
  439MOL0     N57833   2.606   7.479   3.716  0.2035 -0.4864  0.0886
  439MOL0     C57834   2.521   7.367   3.701 -0.3052 -0.2736  0.6754
  439MOL0     C57835   2.501   7.365   3.567 -0.6487 -0.1554 -0.1459
  439MOL0     C57836   2.400   7.271   3.505  0.0823 -0.2907 -0.0780
  439MOL0     C57837   2.265   7.348   3.512 -0.0301 -0.3017  0.2910
  439MOL0     C57838   2.134   7.270   3.467 -0.2388 -0.1624 -0.1764
  439MOL0     C57839   2.147   7.226   3.317 -0.2318 -0.3563  0.3108
  439MOL0     O57840   2.034   7.156   3.263  0.5757  0.6844 -0.6287
  439MOL0     C57841   1.910   7.217   3.258  0.3499 -0.7105 -0.0470
  439MOL0     C57842   1.794   7.144   3.230 -0.9269 -0.0809  0.1290
  439MOL0     C57843   1.665   7.206   3.222 -0.0660 -0.6105  0.3493
  439MOL0     C57844   1.658   7.349   3.210 -0.2568 -0.1030 -0.1586
  439MOL0     C57845   1.525   7.424   3.172  0.6207 -0.5602 -0.8148
  439MOL0     O57846   1.530   7.562   3.157  0.6282  0.5364  0.5635
  439MOL0     C57847   1.420   7.627   3.124  0.6500 -0.3803  0.0149
  439MOL0     C57848   1.370   7.688   3.238  1.2203  0.6825  0.8846
  439MOL0     C57849   1.264   7.781   3.221 -0.6741  0.5269  0.5913
  439MOL0     C57850   1.205   7.803   3.099  0.1554 -0.0936  0.1040
  439MOL0     O57851   1.088   7.891   3.087 -0.7623 -0.4012 -0.4019
  439MOL0     C57852   1.101   7.998   2.988  0.5793  0.2118  0.4752
  439MOL0     C57853   0.968   8.005   2.916 -0.0318  0.4795  0.0093
  439MOL0     C57854   0.936   7.873   2.846  0.0472 -0.1145  0.9462
  439MOL0     C57855   0.789   7.859   2.790 -0.3955  1.4298 -0.0350
  439MOL0     C57856   0.770   7.716   2.717  0.5755 -0.7453 -0.0559
  439MOL0     C57857   0.622   7.690   2.685  0.2798  0.0020  0.2613
  439MOL0     C57858   0.533   7.675   2.807  0.5681  0.9507  0.3899
  439MOL0     C57859   0.400   7.603   2.753 -0.4737 -0.0693 -0.4791
  439MOL0    Cl57860   0.277   7.613   2.891 -0.0438 -0.3250 -0.1125
  439MOL0     C57861   1.247   7.730   2.989  0.1185  0.3718 -0.2078
  439MOL0     C57862   1.363   7.644   3.000 -0.3101 -0.3128  0.1562
  439MOL0     O57863   1.427   7.352   3.157 -0.6561 -0.2679 -0.3065
  439MOL0     C57864   1.777   7.422   3.243 -0.5165 -0.7429  0.7752
  439MOL0     C57865   1.903   7.359   3.261 -0.5197 -0.3469 -0.6959
  439MOL0     N57866   2.562   7.469   3.503  0.2734 -0.1432  0.7722
  439MOL0     N57867   2.632   7.533   3.594  0.5446  0.5172  0.2142
  439MOL0     C57868   3.769   7.453   3.440  0.6499 -0.2858 -0.8148
  439MOL0     C57869   3.894   7.496   3.402 -0.0901  0.5540 -0.1847
  439MOL0     C57870   4.196   7.751   3.197  0.7487 -0.1501  0.5949
  439MOL0     C57871   4.222   7.758   3.058  0.0574  0.3488 -0.2513
  439MOL0     C57872   4.340   7.814   3.006  0.3228 -0.2412  0.0755
  439MOL0     C57873   4.438   7.855   3.087 -0.2788 -0.3822 -0.2782
  439MOL0     O57874   4.557   7.916   3.048 -0.9791 -0.5412  0.1530
  439MOL0     C57875   4.593   7.920   2.914  0.5326  0.4502  0.7614
  439MOL0     C57876   4.656   7.783   2.873 -0.6403 -0.1124  0.3676
  439MOL0     C57877   4.802   7.784   2.931  0.0792  0.7786  0.1050
  439MOL0     C57878   4.816   7.783   3.084  0.2220 -0.2548  0.5314
  439MOL0     C57879   4.952   7.759   3.136 -1.0692  0.7508  0.0365
  439MOL0     C57880   5.062   7.747   3.197  0.5047 -0.6634 -0.9129
  439MOL0     C57881   4.414   7.866   3.227 -0.6791  0.5731 -0.0157
  439MOL0     C57882   4.298   7.813   3.278 -0.1183  0.1750  0.2986
  439MOL0     H57883   3.874   7.822   3.509  2.6887 -1.0175  0.6543
  439MOL0     H57884   3.645   7.755   3.548  0.3523  0.4722 -0.8841
  439MOL0     H57885   3.406   7.623   3.568 -0.3600 -0.8752 -0.5555
  439MOL0     H57886   3.514   7.595   3.704 -1.3818  1.9123 -0.4422
  439MOL0     H57887   3.435   7.366   3.738  2.0856  1.3511 -1.7854
  439MOL0     H57888   3.359   7.356   3.584  2.5118  0.5399 -1.4431
  439MOL0     H57889   3.189   7.547   3.668 -0.3235  0.5428 -0.1879
  439MOL0     H57890   3.280   7.553   3.811  2.1765 -0.2942 -1.3647
  439MOL0     H57891   3.129   7.314   3.691 -0.7205 -3.4480  1.9387
  439MOL0     H57892   3.224   7.300   3.836  1.0187  1.8645 -0.0391
  439MOL0     H57893   3.080   7.482   3.945 -3.4970  5.3793 -1.7340
  439MOL0     H57894   3.009   7.316   3.910  0.6786 -0.4663 -1.8135
  439MOL0     H57895   2.893   7.399   3.715 -3.7429 -0.6328  0.7641
  439MOL0     H57896   2.933   7.562   3.774  0.7310  0.1773 -0.6449
  439MOL0     H57897   2.777   7.347   3.921  1.4523 -1.1262  0.4105
  439MOL0     H57898   2.827   7.512   3.978 -1.9105 -0.0842  1.5074
  439MOL0     H57899   2.697   7.635   3.820  1.1691 -0.8306 -0.4564
  439MOL0     H57900   2.588   7.537   3.911 -1.1709  2.3452 -0.3168
  439MOL0     H57901   2.466   7.319   3.781 -1.1004  2.6242  1.9966
  439MOL0     H57902   2.387   7.180   3.564 -4.3686 -0.9528 -1.6981
  439MOL0     H57903   2.431   7.245   3.404 -0.9994 -2.7601  0.1351
  439MOL0     H57904   2.282   7.435   3.447 -1.0905 -1.3542 -1.4921
  439MOL0     H57905   2.245   7.370   3.617 -1.1062 -2.6183  0.6364
  439MOL0     H57906   2.110   7.188   3.535  0.9336  0.5306  1.1170
  439MOL0     H57907   2.046   7.333   3.479  0.7875  1.1159  0.9096
  439MOL0     H57908   2.236   7.163   3.309  0.8486  1.1998 -0.4698
  439MOL0     H57909   2.180   7.309   3.253  1.1498  0.4366  1.9574
  439MOL0     H57910   1.803   7.037   3.212  1.8376  0.3232 -1.4558
  439MOL0     H57911   1.573   7.150   3.207  0.5037 -2.3785  2.8286
  439MOL0     H57912   1.415   7.691   3.337 -0.8350 -2.1164  2.0528
  439MOL0     H57913   1.226   7.829   3.311 -0.8274 -0.7434  1.2419
  439MOL0     H57914   1.182   7.994   2.914 -0.6415 -0.3422 -0.8895
  439MOL0     H57915   1.120   8.093   3.038 -2.4813  0.4477  1.3790
  439MOL0     H57916   0.978   8.094   2.853  3.1422  1.0796  1.1621
  439MOL0     H57917   0.886   8.028   2.985 -1.7939  0.1029 -1.8564
  439MOL0     H57918   0.959   7.800   2.924  1.1376  0.9194  1.6154
  439MOL0     H57919   1.005   7.863   2.762 -1.1222 -1.0126  0.0467
  439MOL0     H57920   0.729   7.864   2.882  0.7718 -0.4729  0.8973
  439MOL0     H57921   0.772   7.944   2.723 -0.1808  1.4101 -0.1140
  439MOL0     H57922   0.809   7.632   2.774  1.5271 -0.4002 -0.1776
  439MOL0     H57923   0.833   7.708   2.629  0.8649 -0.2453  0.0984
  439MOL0     H57924   0.619   7.604   2.617 -4.2691 -0.4175  0.7439
  439MOL0     H57925   0.584   7.771   2.622  0.4158  0.6837  1.0401
  439MOL0     H57926   0.574   7.614   2.888  0.7508 -2.7155 -2.2371
  439MOL0     H57927   0.494   7.771   2.843 -4.1921 -0.1480 -1.1725
  439MOL0     H57928   0.414   7.498   2.727  2.2433 -0.4920  2.1416
  439MOL0     H57929   0.363   7.662   2.669  0.5998  1.3444  0.0007
  439MOL0     H57930   1.196   7.733   2.893  0.2314  1.9173 -0.2353
  439MOL0     H57931   1.404   7.593   2.913  2.6753 -2.7511  2.7475
  439MOL0     H57932   1.762   7.530   3.238 -0.8724 -0.8105  0.3834
  439MOL0     H57933   1.989   7.423   3.243 -1.0698  0.6885  0.3016
  439MOL0     H57934   3.751   7.348   3.418  0.0583 -0.3785  0.0892
  439MOL0     H57935   3.951   7.430   3.337 -5.0960 -0.8324 -3.8137
  439MOL0     H57936   4.151   7.718   2.987  0.7087  0.5337 -1.0211
  439MOL0     H57937   4.353   7.822   2.899  2.3495 -1.6596  0.1511
  439MOL0     H57938   4.673   7.992   2.892  0.8559 -0.9868 -3.8477
  439MOL0     H57939   4.512   7.961   2.854  1.7140 -0.1057 -1.3182
  439MOL0     H57940   4.602   7.704   2.928  1.1836 -0.9585  1.0154
  439MOL0     H57941   4.654   7.767   2.765 -1.9527 -1.7558  0.5769
  439MOL0     H57942   4.862   7.866   2.891 -0.1311  0.8012 -0.1684
  439MOL0     H57943   4.849   7.690   2.903  1.1285  1.9074 -2.1922
  439MOL0     H57944   4.780   7.877   3.126  0.9731 -0.7494  2.3893
  439MOL0     H57945   4.748   7.701   3.111 -0.3298  0.1545  0.4148
  439MOL0     H57946   5.141   7.748   3.270 -1.4500 -0.9761  1.3456
  439MOL0     H57947   4.492   7.917   3.282 -0.4412  0.8670 -0.6112
  439MOL0     H57948   4.276   7.823   3.383  1.3513 -0.7609  0.7279
  440MOL0     O57949   6.685   7.644   4.853 -0.4098  0.0584 -0.0430
  440MOL0     C57950   6.684   7.765   4.829  0.7891  0.0816  0.1125
  440MOL0     O57951   6.593   7.830   4.762  0.4618  0.0021  0.1891
  440MOL0     C57952   6.483   7.763   4.703 -0.7664 -0.5563  0.3269
  440MOL0     C57953   6.495   7.659   4.609 -0.5375  0.4783  0.6525
  440MOL0     C57954   6.380   7.605   4.548 -0.5215  0.3105  0.5181
  440MOL0     C57955   6.254   7.654   4.574  0.0582 -0.2002 -0.6804
  440MOL0     O57956   6.138   7.600   4.523 -0.2040 -0.7543  0.3712
  440MOL0     C57957   6.141   7.470   4.457  0.0478  0.4101 -0.3494
  440MOL0     C57958   6.010   7.442   4.398  0.4647 -0.3213  0.8046
  440MOL0     C57959   6.004   7.309   4.323 -0.0353 -0.3643 -0.7056
  440MOL0     C57960   5.857   7.297   4.256 -0.2678  0.0893 -0.6123
  440MOL0     C57961   5.725   7.292   4.344  0.4708 -0.1611 -0.4635
  440MOL0     C57962   5.719   7.179   4.439  0.4723 -0.8144 -0.2112
  440MOL0     C57963   5.668   7.051   4.363  0.0070 -0.5108 -0.4437
  440MOL0     C57964   5.531   7.050   4.296 -0.8547  0.2083 -0.5167
  440MOL0     N57965   5.416   7.057   4.389 -0.2564  0.4180  0.8852
  440MOL0     C57966   5.334   7.171   4.400  0.0047  0.4003  1.0798
  440MOL0     C57967   5.226   7.118   4.466  0.1577 -0.1990 -0.0777
  440MOL0     C57968   5.104   7.205   4.507  0.0039 -0.2982 -0.2315
  440MOL0     C57969   4.970   7.125   4.518  0.8718 -0.3437  0.0404
  440MOL0     C57970   4.912   7.104   4.380  0.9979  0.0276  0.9360
  440MOL0     C57971   4.768   7.043   4.374 -0.2865 -0.4501 -0.1869
  440MOL0     O57972   4.684   7.121   4.455  0.4149 -0.6633 -0.2560
  440MOL0     C57973   4.547   7.096   4.444  0.0750 -0.3060  0.6807
  440MOL0     C57974   4.480   7.019   4.351 -0.2905 -0.2415 -0.0621
  440MOL0     C57975   4.340   7.035   4.336 -0.0297  0.2099 -0.3158
  440MOL0     C57976   4.270   7.120   4.416 -0.3093 -0.4894 -0.2819
  440MOL0     C57977   4.121   7.115   4.422  0.0809  0.0016  0.5681
  440MOL0     O57978   4.069   7.017   4.345  0.6259  0.3732 -0.7594
  440MOL0     C57979   3.930   6.995   4.336 -0.6202 -0.0366 -0.5240
  440MOL0     C57980   3.887   6.874   4.384 -0.4394 -0.0780  0.1328
  440MOL0     C57981   3.753   6.833   4.371  0.4780  0.3668  0.4129
  440MOL0     C57982   3.661   6.920   4.309 -0.4724  1.0294  0.5395
  440MOL0     O57983   3.534   6.894   4.271 -0.5692 -0.1433 -0.8414
  440MOL0     C57984   3.485   6.757   4.294  0.3598  0.5264  0.2147
  440MOL0     C57985   3.331   6.752   4.261 -0.8490 -0.8936 -0.5548
  440MOL0     C57986   3.253   6.645   4.328 -0.3438  0.2109 -0.4892
  440MOL0     C57987   3.119   6.629   4.270  0.6750 -0.3360 -0.5250
  440MOL0     C57988   3.016   6.566   4.362  0.2387  0.6987  0.5587
  440MOL0     C57989   3.047   6.410   4.372  0.5473  0.5154  0.6728
  440MOL0     C57990   2.973   6.339   4.492 -0.0580 -0.3156 -0.1976
  440MOL0     C57991   2.956   6.188   4.477 -0.3336  1.1454  0.2950
  440MOL0    Cl57992   2.865   6.104   4.611 -0.0791 -0.5973 -0.2781
  440MOL0     C57993   3.695   7.048   4.261  0.3459  0.3774 -1.1203
  440MOL0     C57994   3.826   7.088   4.273 -0.6135  1.0347 -1.5292
  440MOL0     O57995   4.058   7.200   4.485 -0.1127  0.4704 -0.5215
  440MOL0     C57996   4.345   7.194   4.513  0.1355 -0.0905 -0.0647
  440MOL0     C57997   4.477   7.187   4.524 -1.3592 -0.6216  0.0382
  440MOL0     N57998   5.247   6.986   4.494  0.1867 -0.2604 -0.3119
  440MOL0     N57999   5.354   6.951   4.445 -0.1996  0.6133 -0.3111
  440MOL0     C58000   6.242   7.762   4.672  0.5095  1.1244  0.0910
  440MOL0     C58001   6.353   7.804   4.732 -0.5016  0.2094  0.1029
  440MOL0     C58002   6.803   7.845   4.870  0.2142  0.2890  0.1726
  440MOL0     C58003   6.918   7.791   4.926  0.3429  0.2372 -0.7051
  440MOL0     C58004   7.012   7.872   4.988  0.1128 -0.4763  0.5792
  440MOL0     C58005   7.006   8.013   4.978 -0.2543 -0.0012  0.6267
  440MOL0     O58006   7.097   8.101   5.037  0.3363 -0.1748 -0.1829
  440MOL0     C58007   7.195   8.051   5.125  0.3522  0.1255 -0.6651
  440MOL0     C58008   7.238   8.156   5.213 -0.1749 -0.0464 -0.6868
  440MOL0     C58009   7.388   8.145   5.258 -0.2145 -0.2194 -0.3008
  440MOL0     C58010   7.403   8.049   5.373 -0.0722  0.2776 -0.8059
  440MOL0     C58011   7.536   8.085   5.424 -1.0706  0.0693 -1.3755
  440MOL0     C58012   7.647   8.120   5.467  0.2324  0.9637  0.4425
  440MOL0     C58013   6.903   8.067   4.909  1.0577  0.0296  0.1817
  440MOL0     C58014   6.799   7.984   4.849 -0.0943  0.3107  0.3691
  440MOL0     H58015   6.591   7.620   4.577 -1.3294 -1.0619  0.0638
  440MOL0     H58016   6.400   7.543   4.461  1.5347  2.3759 -0.5998
  440MOL0     H58017   6.174   7.398   4.533  0.9969 -1.3559 -2.3195
  440MOL0     H58018   6.207   7.465   4.370  0.8012 -1.1514  0.2798
  440MOL0     H58019   5.992   7.520   4.324  3.1149 -0.2574  0.1287
  440MOL0     H58020   5.934   7.440   4.477 -1.7320 -2.6194 -1.1707
  440MOL0     H58021   6.023   7.234   4.400  2.6578  2.0682  1.2369
  440MOL0     H58022   6.085   7.290   4.252  1.5450 -1.3912  1.2569
  440MOL0     H58023   5.838   7.372   4.179 -0.5302  3.5514  2.5642
  440MOL0     H58024   5.855   7.200   4.205 -1.1055  0.4487 -1.2835
  440MOL0     H58025   5.634   7.286   4.285 -0.5719  1.6331  0.8797
  440MOL0     H58026   5.714   7.387   4.397 -1.1476  0.0541 -1.1210
  440MOL0     H58027   5.642   7.199   4.515  1.3906 -0.6208  0.6798
  440MOL0     H58028   5.817   7.166   4.485  0.0244  2.1374  1.8219
  440MOL0     H58029   5.743   7.035   4.286  1.4243 -1.9401  1.1444
  440MOL0     H58030   5.673   6.963   4.429  2.5139  1.1955  1.8763
  440MOL0     H58031   5.526   6.958   4.237  2.8467 -0.5882  0.2071
  440MOL0     H58032   5.522   7.127   4.219 -0.4829 -0.0771 -0.8484
  440MOL0     H58033   5.353   7.273   4.366 -0.8416 -0.2687 -1.7339
  440MOL0     H58034   5.089   7.293   4.445 -1.0153  0.6778  1.3525
  440MOL0     H58035   5.133   7.244   4.605 -0.7514  0.2679 -0.2309
  440MOL0     H58036   4.906   7.198   4.569  2.5719  0.0847  1.6819
  440MOL0     H58037   4.963   7.032   4.575 -2.9942  0.0079  0.4501
  440MOL0     H58038   4.912   7.200   4.328  2.6071  0.3498  1.4944
  440MOL0     H58039   4.983   7.044   4.323  1.4985  2.2774 -0.9343
  440MOL0     H58040   4.759   6.939   4.406 -1.4262 -0.0885  0.7580
  440MOL0     H58041   4.738   7.034   4.270  1.2550 -0.3731 -0.6621
  440MOL0     H58042   4.520   6.950   4.277 -1.5392  1.7795 -2.7975
  440MOL0     H58043   4.283   6.972   4.267 -0.6710 -0.3705  0.7149
  440MOL0     H58044   3.970   6.807   4.407  0.8801  1.4850  0.1291
  440MOL0     H58045   3.719   6.739   4.413  0.0706  0.8168  1.1169
  440MOL0     H58046   3.499   6.732   4.400  2.7877 -0.3023 -0.2191
  440MOL0     H58047   3.543   6.689   4.230 -1.0871  0.0269 -0.6024
  440MOL0     H58048   3.320   6.757   4.152  0.6454  1.9076 -0.6715
  440MOL0     H58049   3.296   6.849   4.299 -0.3985 -0.6854 -0.6667
  440MOL0     H58050   3.248   6.671   4.434 -1.5105  0.7266 -0.6575
  440MOL0     H58051   3.294   6.543   4.324 -0.9418  0.0023 -1.8147
  440MOL0     H58052   3.079   6.727   4.246 -0.8805 -0.9921 -0.7421
  440MOL0     H58053   3.141   6.584   4.173 -0.7031  0.1409 -1.0620
  440MOL0     H58054   2.919   6.579   4.314  0.6546  0.1304 -0.4748
  440MOL0     H58055   3.008   6.614   4.460  0.6788  0.2968  0.7956
  440MOL0     H58056   3.150   6.385   4.400  1.2118  0.8472 -1.3179
  440MOL0     H58057   3.025   6.355   4.280 -0.0464  1.3406  0.3124
  440MOL0     H58058   3.028   6.371   4.580  0.1450  3.1933 -1.4565
  440MOL0     H58059   2.877   6.388   4.513 -1.1230 -2.8347  1.2615
  440MOL0     H58060   3.053   6.142   4.458 -2.4406 -2.5540 -3.4916
  440MOL0     H58061   2.896   6.160   4.389  1.8224 -0.6697 -0.7066
  440MOL0     H58062   3.623   7.112   4.212  1.3412  0.0628 -3.1165
  440MOL0     H58063   3.863   7.179   4.227  2.0832  1.4117  1.0742
  440MOL0     H58064   4.282   7.256   4.577 -1.2309  1.0562 -2.3856
  440MOL0     H58065   4.531   7.259   4.585 -0.2135 -1.3284 -0.1162
  440MOL0     H58066   6.143   7.780   4.714 -1.0687 -1.8234 -1.9500
  440MOL0     H58067   6.344   7.878   4.812  0.4612  0.9044 -0.4154
  440MOL0     H58068   6.938   7.686   4.945  4.5275  0.6504 -1.7765
  440MOL0     H58069   7.105   7.836   5.030  0.7744 -0.7426 -1.0595
  440MOL0     H58070   7.272   8.007   5.062 -1.4908 -1.8176 -1.6649
  440MOL0     H58071   7.173   7.969   5.195  1.3861  3.1059  3.5707
  440MOL0     H58072   7.236   8.255   5.166  0.3232 -0.8740 -2.5572
  440MOL0     H58073   7.172   8.182   5.296  2.5509  0.7103  1.4228
  440MOL0     H58074   7.417   8.248   5.282 -2.6623 -0.1316  2.9172
  440MOL0     H58075   7.444   8.116   5.169  0.2574 -2.3103  0.6250
  440MOL0     H58076   7.330   8.065   5.453 -0.0221 -2.6945 -0.0217
  440MOL0     H58077   7.398   7.944   5.340 -0.8846  0.4298 -1.1938
  440MOL0     H58078   7.730   8.155   5.525  1.5741 -2.5640  0.8825
  440MOL0     H58079   6.903   8.175   4.906 -1.3298  0.0650 -0.6289
  440MOL0     H58080   6.710   8.032   4.808 -0.8831 -0.2108  1.4070
  441MOL0     O58081   4.356   5.507   3.332  0.2811 -0.0299 -0.6367
  441MOL0     C58082   4.367   5.556   3.220  0.7805  0.0996 -0.0520
  441MOL0     O58083   4.270   5.555   3.120 -0.3997 -0.2090 -0.0540
  441MOL0     C58084   4.143   5.506   3.133  0.2457  1.0240 -0.6961
  441MOL0     C58085   4.053   5.540   3.035 -0.2513  0.2508 -0.4107
  441MOL0     C58086   3.917   5.508   3.041  0.3131 -0.4355  0.3327
  441MOL0     C58087   3.867   5.445   3.149 -0.0708 -0.7190  0.5078
  441MOL0     O58088   3.732   5.433   3.151  0.0143  0.6240  0.6464
  441MOL0     C58089   3.659   5.378   3.263 -0.4478  0.6474 -0.1999
  441MOL0     C58090   3.516   5.336   3.215  0.0374 -0.0026  0.1724
  441MOL0     C58091   3.417   5.327   3.331 -0.2571  0.0664 -0.2722
  441MOL0     C58092   3.278   5.290   3.290 -0.3747 -0.3908 -0.5541
  441MOL0     C58093   3.203   5.410   3.235 -0.0873  0.3977 -0.7601
  441MOL0     C58094   3.056   5.374   3.223  0.2731 -0.0889 -0.3156
  441MOL0     C58095   2.956   5.479   3.154 -0.2575 -1.1033 -0.0399
  441MOL0     C58096   2.967   5.494   3.001  0.7215  1.1465  1.0084
  441MOL0     N58097   2.924   5.365   2.939 -0.0078 -0.2427 -0.1477
  441MOL0     C58098   2.788   5.335   2.918  0.3095  0.0516  0.8223
  441MOL0     C58099   2.799   5.218   2.848 -0.5459  0.1902 -0.0355
  441MOL0     C58100   2.678   5.133   2.822 -0.0996  0.7850  0.1469
  441MOL0     C58101   2.563   5.210   2.755  0.5031  0.4053  0.2905
  441MOL0     C58102   2.462   5.109   2.706  0.1368  0.1572  0.7534
  441MOL0     C58103   2.337   5.173   2.674 -0.6222 -1.5922  0.2315
  441MOL0     O58104   2.263   5.077   2.599 -0.4009  0.7511 -0.1015
  441MOL0     C58105   2.142   5.104   2.548  0.4234 -0.8018 -0.3753
  441MOL0     C58106   2.075   5.000   2.486 -0.4499  0.4716  0.2029
  441MOL0     C58107   1.940   5.003   2.450 -1.0348  0.2951 -0.8263
  441MOL0     C58108   1.858   5.115   2.483 -0.3161 -0.5564 -0.1510
  441MOL0     C58109   1.722   5.123   2.453  0.5122 -0.1383  0.2252
  441MOL0     O58110   1.672   5.022   2.374  0.2343 -0.0224 -0.0882
  441MOL0     C58111   1.545   5.013   2.332 -0.4203 -0.2388  0.1287
  441MOL0     C58112   1.435   5.005   2.420  0.3805 -0.3476  0.0328
  441MOL0     C58113   1.304   4.999   2.368 -0.3719  0.0403  0.0719
  441MOL0     C58114   1.274   5.011   2.229  0.2054  1.1964 -0.7691
  441MOL0     O58115   1.152   4.995   2.171  0.5184 -0.1824 -0.8392
  441MOL0     C58116   1.120   5.077   2.054  0.6813 -1.4232  0.2157
  441MOL0     C58117   0.970   5.037   2.019 -0.5048 -0.1746  0.6625
  441MOL0     C58118   0.856   5.101   2.101 -0.8819  0.6217  0.5923
  441MOL0     C58119   0.734   5.028   2.054 -0.9692  0.5531 -0.0491
  441MOL0     C58120   0.623   5.073   2.148  0.4529 -0.1020  0.2367
  441MOL0     C58121   0.495   5.047   2.071  0.1426  0.8999 -0.2877
  441MOL0     C58122   0.371   5.108   2.140 -1.1615  0.8871  0.2234
  441MOL0     C58123   0.244   5.058   2.071  0.0485  0.9974  1.0115
  441MOL0    Cl58124   0.088   5.116   2.141 -0.3284  0.2642  0.1109
  441MOL0     C58125   1.386   5.022   2.144 -0.5769 -0.2016 -0.4743
  441MOL0     C58126   1.514   5.021   2.196 -0.8690 -0.5191  0.3976
  441MOL0     O58127   1.660   5.217   2.496  0.0676 -0.4637  0.2614
  441MOL0     C58128   1.929   5.234   2.540 -0.7742  0.3142 -0.7211
  441MOL0     C58129   2.067   5.225   2.569  0.4639  0.0607 -0.0144
  441MOL0     N58130   2.928   5.196   2.819  0.1652  0.5971 -0.0423
  441MOL0     N58131   3.007   5.272   2.891 -0.0286 -0.2353 -0.0247
  441MOL0     C58132   3.953   5.405   3.248 -0.6613  0.0740 -0.2435
  441MOL0     C58133   4.087   5.440   3.244 -0.0563 -0.7878 -0.0150
  441MOL0     C58134   4.502   5.620   3.185 -0.4763  1.4053 -0.6431
  441MOL0     C58135   4.598   5.642   3.280  0.1349  0.0986  0.7017
  441MOL0     C58136   4.730   5.676   3.242  0.9706 -0.1981 -0.8980
  441MOL0     C58137   4.761   5.687   3.108  0.2217 -0.1648 -0.2937
  441MOL0     O58138   4.891   5.733   3.084  0.0008 -0.3763 -0.5019
  441MOL0     C58139   4.945   5.735   2.951 -0.4036  0.0716  0.5253
  441MOL0     C58140   4.982   5.586   2.903 -0.4590 -0.0676 -0.0824
  441MOL0     C58141   5.073   5.574   2.785 -0.3312 -0.2487  0.2766
  441MOL0     C58142   5.025   5.560   2.645 -0.2025 -0.1139 -0.5355
  441MOL0     C58143   4.912   5.652   2.611  0.1568  0.3652  0.2505
  441MOL0     C58144   4.819   5.719   2.575 -0.2783  0.1212  0.7327
  441MOL0     C58145   4.668   5.659   3.009  0.7445 -0.7362 -0.3098
  441MOL0     C58146   4.539   5.624   3.051 -1.2268 -0.5459 -0.0343
  441MOL0     H58147   4.091   5.594   2.949 -0.7538 -0.4470 -1.0778
  441MOL0     H58148   3.856   5.542   2.958 -0.8542 -0.2286  1.2579
  441MOL0     H58149   3.661   5.456   3.340  1.6808  3.3825 -2.7540
  441MOL0     H58150   3.707   5.284   3.292 -2.7613 -0.4019  0.4411
  441MOL0     H58151   3.517   5.254   3.143  2.1520  0.8085 -0.8170
  441MOL0     H58152   3.463   5.416   3.162 -4.2121 -1.2012  2.1383
  441MOL0     H58153   3.421   5.422   3.386  1.1676 -2.0024  3.5912
  441MOL0     H58154   3.461   5.263   3.407 -2.9692  1.5543  2.8010
  441MOL0     H58155   3.281   5.221   3.205 -2.0767 -1.9228  0.5598
  441MOL0     H58156   3.231   5.240   3.375  1.7442 -1.7712 -0.1237
  441MOL0     H58157   3.240   5.441   3.137  0.1595  0.1045 -0.7619
  441MOL0     H58158   3.212   5.501   3.295  0.1582 -1.2587  1.8866
  441MOL0     H58159   3.005   5.353   3.318  0.0637 -1.2093 -0.6526
  441MOL0     H58160   3.045   5.279   3.169 -0.6372  0.5574 -1.3130
  441MOL0     H58161   2.854   5.448   3.181  0.9466 -5.4418  0.2069
  441MOL0     H58162   2.980   5.579   3.190  2.4058 -0.8728 -2.1395
  441MOL0     H58163   3.069   5.523   2.977  0.4512 -0.5940 -3.0472
  441MOL0     H58164   2.901   5.575   2.967  0.5537  1.5493  2.2233
  441MOL0     H58165   2.705   5.392   2.958  0.4650  0.7317  0.1957
  441MOL0     H58166   2.640   5.091   2.916  0.3022  0.6842  0.2622
  441MOL0     H58167   2.713   5.048   2.763 -1.5332 -0.1369  0.5680
  441MOL0     H58168   2.598   5.269   2.670 -0.2164  1.6118  0.8040
  441MOL0     H58169   2.504   5.271   2.825  0.4280  0.9126 -0.2160
  441MOL0     H58170   2.499   5.065   2.613  1.0184  2.9283 -0.2941
  441MOL0     H58171   2.460   5.029   2.781  2.4665  0.6137  1.3827
  441MOL0     H58172   2.357   5.264   2.616 -0.1613 -1.5611  0.4376
  441MOL0     H58173   2.280   5.213   2.758 -1.6805  0.7023 -1.4570
  441MOL0     H58174   2.139   4.913   2.473  1.5603  1.8787  0.2651
  441MOL0     H58175   1.897   4.920   2.395  0.9803 -1.1425 -0.3213
  441MOL0     H58176   1.453   4.997   2.526  0.5682  0.9018  0.1103
  441MOL0     H58177   1.221   4.978   2.435 -2.5623  1.5789 -1.9733
  441MOL0     H58178   1.181   5.044   1.970 -1.7974  0.5465 -2.5405
  441MOL0     H58179   1.142   5.184   2.066  0.5779 -1.1939 -1.4819
  441MOL0     H58180   0.972   4.928   2.018  1.6166 -0.1765 -0.0989
  441MOL0     H58181   0.965   5.064   1.913  0.4897  0.4689  0.7615
  441MOL0     H58182   0.838   5.204   2.072  0.0101  0.7867  0.6023
  441MOL0     H58183   0.882   5.095   2.207  0.0043 -1.1178  0.3169
  441MOL0     H58184   0.707   5.059   1.952 -1.0422 -0.8442 -0.4835
  441MOL0     H58185   0.738   4.920   2.072  1.2447 -0.0758 -3.3649
  441MOL0     H58186   0.637   5.181   2.157 -0.7264  0.1150 -0.3919
  441MOL0     H58187   0.609   5.030   2.247 -0.1931  2.5309  1.3481
  441MOL0     H58188   0.479   4.939   2.063  0.0007  0.6749  2.1412
  441MOL0     H58189   0.497   5.086   1.969 -1.0333  0.5631 -0.4537
  441MOL0     H58190   0.363   5.071   2.243 -0.3914  1.8876  0.6582
  441MOL0     H58191   0.365   5.217   2.137 -0.6209  0.9252  0.3755
  441MOL0     H58192   0.237   4.950   2.087 -1.8411  0.5629 -1.9298
  441MOL0     H58193   0.254   5.074   1.963 -0.0190 -1.0277  0.6519
  441MOL0     H58194   1.381   5.015   2.036 -0.2178 -0.7534 -0.4587
  441MOL0     H58195   1.592   5.047   2.125 -2.0454  2.2547 -0.0109
  441MOL0     H58196   1.881   5.330   2.555  4.0341  2.7822  1.2413
  441MOL0     H58197   2.121   5.301   2.625  1.7447 -2.1458  1.8999
  441MOL0     H58198   3.924   5.346   3.334  0.3619  0.3564  0.3179
  441MOL0     H58199   4.149   5.402   3.324 -0.6843  1.0950  1.4454
  441MOL0     H58200   4.572   5.629   3.384 -4.9710  0.5857 -0.2414
  441MOL0     H58201   4.809   5.694   3.314  0.6896  2.8490 -1.2336
  441MOL0     H58202   5.037   5.795   2.948 -0.3717  0.0490  0.9266
  441MOL0     H58203   4.877   5.780   2.879 -0.3981 -0.1447  0.3836
  441MOL0     H58204   5.027   5.538   2.990  0.2247 -0.7998 -0.8301
  441MOL0     H58205   4.889   5.533   2.881 -0.2351 -1.2858  1.6976
  441MOL0     H58206   5.126   5.479   2.803  0.5568  0.0305 -0.7845
  441MOL0     H58207   5.147   5.654   2.789  0.8679 -1.3345  0.6821
  441MOL0     H58208   5.105   5.570   2.571 -0.3711 -0.1032 -0.7188
  441MOL0     H58209   4.984   5.459   2.632  1.1373 -0.6973 -0.3508
  441MOL0     H58210   4.732   5.769   2.536  0.7887  0.2152 -1.7045
  441MOL0     H58211   4.691   5.661   2.903  0.5882 -1.5967 -0.3688
  441MOL0     H58212   4.463   5.602   2.977  0.7702 -1.7491 -1.8327
  442MOL0     O58213   1.466   3.746   8.806  0.5800  0.1767  0.0405
  442MOL0     C58214   1.374   3.728   8.888 -0.8553  1.0649  0.3327
  442MOL0     O58215   1.292   3.613   8.894 -1.1270 -0.3832 -0.2418
  442MOL0     C58216   1.254   3.575   8.770  0.2119 -0.2995  0.8851
  442MOL0     C58217   1.322   3.478   8.699 -0.3110  0.2536  0.4175
  442MOL0     C58218   1.272   3.444   8.571  0.2075  0.4982 -0.3396
  442MOL0     C58219   1.170   3.514   8.506  0.9547  0.4431 -0.4650
  442MOL0     O58220   1.134   3.469   8.378 -0.7880 -0.7480  1.2568
  442MOL0     C58221   1.017   3.525   8.309 -0.1260 -0.6462  0.0340
  442MOL0     C58222   0.880   3.465   8.358 -0.8012 -0.2988 -0.0904
  442MOL0     C58223   0.758   3.561   8.323 -0.7776 -0.2237  0.2972
  442MOL0     C58224   0.625   3.476   8.321  0.2496  0.1038  0.1622
  442MOL0     C58225   0.581   3.409   8.451 -0.9742  0.0918  0.5317
  442MOL0     C58226   0.477   3.296   8.428 -1.1616  0.4401 -0.1711
  442MOL0     C58227   0.332   3.347   8.459  0.6201  0.1819 -0.0861
  442MOL0     C58228   0.227   3.227   8.473 -0.5185 -0.3328  0.2873
  442MOL0     N58229   0.114   3.260   8.565 -0.8254 -0.4252 -0.1361
  442MOL0     C58230   0.114   3.241   8.700 -0.4432  0.4806 -0.3487
  442MOL0     C58231   0.007   3.316   8.741 -0.0334  0.2570 -0.8171
  442MOL0     C58232  -0.027   3.328   8.887  0.4603 -0.0246 -0.5520
  442MOL0     C58233  -0.176   3.308   8.884 -0.1622  0.2612 -0.2316
  442MOL0     C58234  -0.212   3.327   9.031 -0.2743 -0.0318 -0.3098
  442MOL0     C58235  -0.359   3.325   9.047 -0.2192  0.3875 -0.2261
  442MOL0     O58236  -0.374   3.384   9.174  0.2919  0.2258  0.2428
  442MOL0     C58237  -0.502   3.420   9.212  0.3370 -0.7921 -0.4444
  442MOL0     C58238  -0.511   3.536   9.281 -0.4070 -0.7594 -0.4253
  442MOL0     C58239  -0.629   3.569   9.350 -0.6349  0.1722 -0.3588
  442MOL0     C58240  -0.743   3.484   9.342 -0.1689  0.0112 -0.0922
  442MOL0     C58241  -0.860   3.526   9.423  0.6968 -0.2413 -0.7312
  442MOL0     O58242  -0.897   3.661   9.432 -0.3834 -0.8437  0.4074
  442MOL0     C58243  -1.003   3.690   9.512 -0.4236 -0.2657  0.0597
  442MOL0     C58244  -1.132   3.713   9.463 -1.6095  0.6046 -0.5015
  442MOL0     C58245  -1.235   3.744   9.549  0.8500 -1.1057 -0.9215
  442MOL0     C58246  -1.211   3.762   9.685  0.3898  0.0332 -0.1310
  442MOL0     O58247  -1.310   3.786   9.773 -0.1715  0.6744 -0.0544
  442MOL0     C58248  -1.328   3.920   9.810  0.2946 -0.4239 -0.4018
  442MOL0     C58249  -1.463   3.949   9.878 -0.3996 -0.4306 -0.3605
  442MOL0     C58250  -1.465   3.913  10.030  0.2639 -0.3421 -0.0903
  442MOL0     C58251  -1.424   3.770  10.052 -0.8343  0.3245  0.4923
  442MOL0     C58252  -1.447   3.730  10.198  0.4130  0.5814 -0.0458
  442MOL0     C58253  -1.396   3.588  10.229  1.0927  0.0601  0.4122
  442MOL0     C58254  -1.390   3.550  10.382 -0.1234  0.1701  0.1059
  442MOL0     C58255  -1.439   3.411  10.416  0.5662 -1.2812  0.0277
  442MOL0    Cl58256  -1.616   3.419  10.413 -0.0644  0.5104 -0.0235
  442MOL0     C58257  -1.086   3.751   9.735 -1.4198  0.1599  0.3642
  442MOL0     C58258  -0.983   3.710   9.648  1.0561 -0.5648 -0.5731
  442MOL0     O58259  -0.930   3.432   9.463  0.1797 -0.0369  0.4508
  442MOL0     C58260  -0.729   3.356   9.283  0.2732  0.3799 -0.4859
  442MOL0     C58261  -0.608   3.326   9.219 -0.5999 -0.7358  0.8313
  442MOL0     N58262  -0.057   3.357   8.630  0.0674 -0.3547  0.7337
  442MOL0     N58263   0.010   3.339   8.532 -0.2852  0.7483  0.6765
  442MOL0     C58264   1.095   3.611   8.583  1.0209  1.0371 -0.3541
  442MOL0     C58265   1.149   3.639   8.711  0.1493  0.1818  0.0399
  442MOL0     C58266   1.354   3.841   8.987 -0.3943  1.3151  0.3716
  442MOL0     C58267   1.449   3.940   8.999  0.0696 -0.5111  0.0796
  442MOL0     C58268   1.431   4.041   9.094  0.4513 -0.1279 -0.7748
  442MOL0     C58269   1.325   4.035   9.187  0.1445 -0.4284  1.0771
  442MOL0     O58270   1.291   4.126   9.279  0.4093 -0.1837 -0.1449
  442MOL0     C58271   1.364   4.248   9.283 -0.1146  0.1311 -0.1548
  442MOL0     C58272   1.489   4.233   9.359 -0.7495 -0.9203  0.6061
  442MOL0     C58273   1.588   4.356   9.342 -0.2117 -0.0984 -0.4353
  442MOL0     C58274   1.524   4.490   9.381  0.1322  0.3891 -1.3048
  442MOL0     C58275   1.528   4.497   9.528 -0.1373  1.0905 -0.0790
  442MOL0     C58276   1.542   4.496   9.651 -0.3210 -0.3111 -0.1454
  442MOL0     C58277   1.229   3.938   9.176 -0.3889  0.4621 -0.1274
  442MOL0     C58278   1.248   3.840   9.075 -0.4116 -0.2960 -0.3784
  442MOL0     H58279   1.413   3.434   8.738 -1.4938 -1.2592  1.5980
  442MOL0     H58280   1.293   3.347   8.527 -2.6036 -0.9107  1.1418
  442MOL0     H58281   1.032   3.513   8.201  0.6104 -1.1526  0.1855
  442MOL0     H58282   1.026   3.630   8.335  2.2236 -1.1658  1.6118
  442MOL0     H58283   0.887   3.450   8.467 -0.1044 -1.3594 -0.2707
  442MOL0     H58284   0.859   3.366   8.318 -2.0304  0.1477 -0.6006
  442MOL0     H58285   0.767   3.611   8.226  0.9095 -0.2703  0.4003
  442MOL0     H58286   0.764   3.636   8.403 -0.4491  1.5269 -1.3188
  442MOL0     H58287   0.538   3.531   8.284 -1.5420 -3.8081 -2.1180
  442MOL0     H58288   0.636   3.392   8.252  0.2979  1.0820 -1.0382
  442MOL0     H58289   0.540   3.493   8.508 -1.4594 -0.3889  0.8951
  442MOL0     H58290   0.658   3.349   8.501 -0.6935 -1.0355 -1.1634
  442MOL0     H58291   0.499   3.213   8.495  1.0018  2.5478  1.9271
  442MOL0     H58292   0.476   3.267   8.322 -2.7821 -0.5016  0.0706
  442MOL0     H58293   0.331   3.396   8.556  0.9697  1.1197 -0.5449
  442MOL0     H58294   0.296   3.411   8.377 -0.5772  0.0912  0.3492
  442MOL0     H58295   0.278   3.140   8.515  3.2941  1.5303 -0.0094
  442MOL0     H58296   0.182   3.206   8.376 -1.4014 -1.5743  0.9422
  442MOL0     H58297   0.190   3.192   8.760 -1.7149 -0.5454  0.4856
  442MOL0     H58298  -0.002   3.429   8.922 -1.2158  0.0948  0.4092
  442MOL0     H58299   0.018   3.252   8.951 -2.0958 -0.8843  0.3052
  442MOL0     H58300  -0.195   3.208   8.844  2.3478  0.9410 -3.5378
  442MOL0     H58301  -0.223   3.382   8.819  2.0646 -0.4794 -2.8575
  442MOL0     H58302  -0.172   3.255   9.103 -2.2871  0.9748  1.9369
  442MOL0     H58303  -0.180   3.425   9.066 -0.5745  0.8535 -2.3537
  442MOL0     H58304  -0.400   3.224   9.040  0.2360  0.3190 -2.4817
  442MOL0     H58305  -0.403   3.378   8.962  1.9050 -0.8503 -2.1990
  442MOL0     H58306  -0.425   3.600   9.300 -2.8979  1.8732  3.4597
  442MOL0     H58307  -0.612   3.648   9.421  3.7742 -1.2982  0.5810
  442MOL0     H58308  -1.141   3.698   9.356 -0.2896 -1.5804 -0.3609
  442MOL0     H58309  -1.332   3.749   9.503  0.0168 -0.0279  0.8314
  442MOL0     H58310  -1.318   3.984   9.722  1.1409 -0.9596 -0.7129
  442MOL0     H58311  -1.246   3.966   9.866 -1.1210  1.4235  0.2474
  442MOL0     H58312  -1.550   3.905   9.828 -1.0835 -1.6005  1.7048
  442MOL0     H58313  -1.465   4.058   9.875 -0.5730 -0.4512 -1.4516
  442MOL0     H58314  -1.563   3.935  10.072  0.8068  1.2779  0.4289
  442MOL0     H58315  -1.402   3.983  10.086  1.1990 -0.6437 -0.7256
  442MOL0     H58316  -1.473   3.707   9.978 -0.0289 -0.1663  0.3695
  442MOL0     H58317  -1.318   3.760  10.028 -0.7563 -0.2503  1.0426
  442MOL0     H58318  -1.554   3.727  10.221  0.4325  0.2398  0.0018
  442MOL0     H58319  -1.392   3.795  10.267  1.6866 -0.7823  0.2736
  442MOL0     H58320  -1.298   3.567  10.185  0.9059 -0.6751  0.3300
  442MOL0     H58321  -1.455   3.520  10.167  2.3578  0.6688 -1.5664
  442MOL0     H58322  -1.286   3.566  10.413 -1.2071  5.0489  2.2472
  442MOL0     H58323  -1.452   3.622  10.438  1.9010  3.9289 -2.0857
  442MOL0     H58324  -1.401   3.388  10.516  1.2130 -0.6946 -0.0742
  442MOL0     H58325  -1.409   3.337  10.340  0.6863 -1.1052 -0.0969
  442MOL0     H58326  -1.074   3.767   9.841 -0.5334 -1.1467  0.4773
  442MOL0     H58327  -0.886   3.701   9.696 -1.1534 -1.7158  4.2321
  442MOL0     H58328  -0.816   3.291   9.279  0.4866 -0.0583  1.3222
  442MOL0     H58329  -0.585   3.228   9.180  1.5212  0.2868 -0.6626
  442MOL0     H58330   1.007   3.660   8.543  0.6145 -0.0142 -0.7815
  442MOL0     H58331   1.093   3.712   8.769 -0.7320 -0.0852 -0.4647
  442MOL0     H58332   1.532   3.955   8.930 -0.1673 -1.4279 -0.4175
  442MOL0     H58333   1.495   4.128   9.077  1.4753 -0.1520  2.3804
  442MOL0     H58334   1.299   4.315   9.340 -0.1798 -0.4930  0.5170
  442MOL0     H58335   1.379   4.286   9.181  1.0775 -1.4820 -0.6030
  442MOL0     H58336   1.475   4.208   9.464 -0.0674 -1.2004  0.6299
  442MOL0     H58337   1.545   4.146   9.325 -0.4391 -0.7785  0.7536
  442MOL0     H58338   1.615   4.365   9.236 -2.5005  0.0104 -1.0773
  442MOL0     H58339   1.675   4.341   9.407 -1.0249  0.7558  0.8856
  442MOL0     H58340   1.570   4.580   9.341  1.5803  0.7967  1.0525
  442MOL0     H58341   1.416   4.493   9.361 -0.2898 -0.7216  0.5723
  442MOL0     H58342   1.546   4.502   9.758  0.4079  0.9839 -0.2142
  442MOL0     H58343   1.150   3.932   9.250 -0.9314  1.3112 -0.6250
  442MOL0     H58344   1.177   3.758   9.070  0.2672 -1.0769  1.8251
  443MOL0     O58345   5.847   7.062   6.215 -0.8854  0.2452  0.2022
  443MOL0     C58346   5.847   7.162   6.292  0.4014  0.0922  0.5664
  443MOL0     O58347   5.736   7.208   6.362 -0.5150  0.2546  0.2814
  443MOL0     C58348   5.614   7.149   6.336  0.3841  0.4418 -0.8780
  443MOL0     C58349   5.540   7.101   6.451 -0.2071 -0.4051 -0.6945
  443MOL0     C58350   5.418   7.027   6.430 -0.4520 -0.4763 -0.4269
  443MOL0     C58351   5.364   7.004   6.306  0.2511  0.2959  0.3862
  443MOL0     O58352   5.243   6.931   6.308  0.0573  0.4178 -0.0463
  443MOL0     C58353   5.139   6.959   6.215  0.9195 -1.0161  0.1264
  443MOL0     C58354   5.057   7.071   6.282  0.4940 -0.5212  0.0508
  443MOL0     C58355   4.987   7.025   6.415  0.2547  0.5286  0.4297
  443MOL0     C58356   4.859   6.942   6.384  0.1411  0.2834 -0.5466
  443MOL0     C58357   4.805   6.913   6.523  0.8598 -0.1472  0.0569
  443MOL0     C58358   4.674   6.819   6.521  0.7396 -0.6136  0.9131
  443MOL0     C58359   4.582   6.848   6.643 -0.1708  0.2170 -0.1640
  443MOL0     C58360   4.495   6.734   6.672  0.2188 -0.5944  0.9407
  443MOL0     N58361   4.382   6.750   6.763 -0.6378 -0.2764  0.4361
  443MOL0     C58362   4.273   6.675   6.765  0.1954  0.4040  0.1999
  443MOL0     C58363   4.203   6.701   6.875  0.1104 -0.1513 -0.0508
  443MOL0     C58364   4.083   6.621   6.921 -0.5102  0.0703  0.4280
  443MOL0     C58365   4.013   6.685   7.035 -0.1394 -0.0935 -0.2837
  443MOL0     C58366   3.874   6.620   7.076  0.5352 -0.0304 -0.5141
  443MOL0     C58367   3.808   6.694   7.184 -0.4528 -0.4349 -0.7584
  443MOL0     O58368   3.723   6.595   7.247  0.4692  0.1691  0.2642
  443MOL0     C58369   3.584   6.604   7.246 -0.0853  0.5437 -0.6941
  443MOL0     C58370   3.510   6.497   7.302 -0.0723  0.0679 -0.0634
  443MOL0     C58371   3.373   6.503   7.314  0.0951 -0.5551 -0.2713
  443MOL0     C58372   3.302   6.610   7.256 -0.0334  0.5471  0.8698
  443MOL0     C58373   3.154   6.632   7.278 -0.0198  0.0061 -0.3378
  443MOL0     O58374   3.094   6.553   7.380  0.7661 -0.3825  0.1060
  443MOL0     C58375   2.955   6.554   7.379  0.2664  0.4801  0.0331
  443MOL0     C58376   2.900   6.442   7.436  0.4459  0.6825 -1.1836
  443MOL0     C58377   2.762   6.433   7.464 -1.3907  0.4876  1.2243
  443MOL0     C58378   2.685   6.550   7.448  0.0231 -0.7997 -0.4077
  443MOL0     O58379   2.559   6.538   7.493  0.2133  0.0584 -0.2908
  443MOL0     C58380   2.462   6.619   7.423  0.3717  0.7457  1.1451
  443MOL0     C58381   2.317   6.578   7.461  1.2503  0.2327  1.1648
  443MOL0     C58382   2.294   6.433   7.431 -0.1195  0.6622  1.1073
  443MOL0     C58383   2.144   6.389   7.453 -0.1968 -0.2235  0.3957
  443MOL0     C58384   2.130   6.238   7.470 -0.0291 -0.8667 -0.2338
  443MOL0     C58385   1.987   6.204   7.489  0.2223 -1.1208  0.4561
  443MOL0     C58386   1.976   6.063   7.535  0.3964  0.3443  1.2508
  443MOL0     C58387   1.836   6.010   7.544  0.0719  0.7011 -0.7346
  443MOL0    Cl58388   1.840   5.835   7.598  0.1776  0.7674 -0.1554
  443MOL0     C58389   2.734   6.661   7.386  0.6084  0.8767 -0.2973
  443MOL0     C58390   2.872   6.666   7.364 -0.5401  0.3646  0.6432
  443MOL0     O58391   3.101   6.713   7.206  0.6528 -0.1096 -0.7171
  443MOL0     C58392   3.379   6.704   7.186 -0.3364 -0.3667 -0.8980
  443MOL0     C58393   3.515   6.701   7.183 -0.4769 -1.1957 -0.2962
  443MOL0     N58394   4.287   6.783   6.954  0.2920  0.3017 -0.0641
  443MOL0     N58395   4.376   6.822   6.879 -0.4601  0.2737  0.9637
  443MOL0     C58396   5.423   7.078   6.204  0.1794 -0.3188  0.0877
  443MOL0     C58397   5.555   7.132   6.212 -1.1505 -0.1442  0.7068
  443MOL0     C58398   5.972   7.230   6.329 -0.1434  0.4336  0.5329
  443MOL0     C58399   6.098   7.178   6.279  1.0377  0.3966 -0.2286
  443MOL0     C58400   6.214   7.245   6.304  0.2913 -0.1737  0.3504
  443MOL0     C58401   6.217   7.360   6.379  0.5084  0.1389  0.3334
  443MOL0     O58402   6.329   7.421   6.423 -0.0220  0.0386 -0.2916
  443MOL0     C58403   6.437   7.441   6.328  0.1322  1.0537 -0.3339
  443MOL0     C58404   6.547   7.336   6.363  0.4716  0.9763 -1.6996
  443MOL0     C58405   6.641   7.310   6.245 -0.7807  0.2194 -0.2353
  443MOL0     C58406   6.739   7.193   6.270  0.8304 -0.0166 -0.2474
  443MOL0     C58407   6.853   7.185   6.182  0.3245 -0.0543  1.3755
  443MOL0     C58408   6.956   7.174   6.115 -0.2536 -0.0197  0.0272
  443MOL0     C58409   6.096   7.407   6.432  0.2770  0.3026  0.1994
  443MOL0     C58410   5.972   7.349   6.411 -0.2905  0.2556 -0.1693
  443MOL0     H58411   5.572   7.114   6.554 -1.6914 -0.4204 -0.2105
  443MOL0     H58412   5.370   6.984   6.518  0.4792 -0.6549  0.0156
  443MOL0     H58413   5.088   6.862   6.216 -0.1038 -0.4866  0.1637
  443MOL0     H58414   5.177   6.987   6.116  1.6747  2.3797  1.2659
  443MOL0     H58415   4.984   7.105   6.208  1.3018  0.6972 -0.2279
  443MOL0     H58416   5.121   7.158   6.303 -1.2201  0.3429  2.0198
  443MOL0     H58417   4.934   7.110   6.458 -0.0557 -1.0104  3.3475
  443MOL0     H58418   5.059   6.984   6.487  0.6996 -1.8063 -1.2152
  443MOL0     H58419   4.790   7.002   6.324 -2.8867 -0.9411  1.4955
  443MOL0     H58420   4.878   6.847   6.334  0.3853  0.8513 -1.5623
  443MOL0     H58421   4.778   7.004   6.576  3.1700  0.7322 -0.1454
  443MOL0     H58422   4.878   6.857   6.583 -0.8106 -0.5551  1.7969
  443MOL0     H58423   4.710   6.715   6.524  1.2550 -0.4502  0.5260
  443MOL0     H58424   4.619   6.844   6.430 -1.0413 -0.3679  2.0302
  443MOL0     H58425   4.646   6.861   6.731 -0.7476 -2.1023  0.6836
  443MOL0     H58426   4.525   6.940   6.627 -1.1831 -0.5266 -0.9898
  443MOL0     H58427   4.563   6.653   6.702  1.8545 -1.0203 -3.1868
  443MOL0     H58428   4.448   6.699   6.579  1.3240 -3.2497  1.2685
  443MOL0     H58429   4.248   6.602   6.689 -0.9356  0.8916  0.0767
  443MOL0     H58430   4.116   6.522   6.954  5.8005  2.4018  2.5786
  443MOL0     H58431   4.017   6.620   6.833  1.3729  0.3831 -1.0571
  443MOL0     H58432   4.002   6.789   7.006 -0.3609 -0.1773 -0.5046
  443MOL0     H58433   4.083   6.675   7.119 -2.9786 -3.4063  2.0221
  443MOL0     H58434   3.804   6.616   6.992  0.1779  1.6818 -0.3401
  443MOL0     H58435   3.892   6.517   7.108 -0.6471  0.4263  1.8235
  443MOL0     H58436   3.761   6.776   7.130 -1.5666 -0.5287  0.0305
  443MOL0     H58437   3.869   6.744   7.260 -1.1731 -0.8931  0.1451
  443MOL0     H58438   3.557   6.409   7.345 -0.3514 -1.8020 -3.2910
  443MOL0     H58439   3.335   6.420   7.373  1.6164 -2.1817 -1.4737
  443MOL0     H58440   2.964   6.358   7.462 -0.8487  0.4302  1.4774
  443MOL0     H58441   2.716   6.340   7.495  0.8269 -0.0019  3.3485
  443MOL0     H58442   2.470   6.615   7.314  2.7377  0.9238  1.2710
  443MOL0     H58443   2.478   6.721   7.461  2.9798  0.3422  1.2576
  443MOL0     H58444   2.238   6.626   7.403 -0.5902 -2.6017  1.1305
  443MOL0     H58445   2.297   6.584   7.569 -0.5638  1.0750  0.8259
  443MOL0     H58446   2.363   6.378   7.495  0.8239 -0.8156 -1.0431
  443MOL0     H58447   2.322   6.405   7.329  0.4016  0.5930  1.2685
  443MOL0     H58448   2.094   6.441   7.536 -0.5993 -0.1216  0.0974
  443MOL0     H58449   2.087   6.417   7.364 -0.0991 -0.5024  0.2457
  443MOL0     H58450   2.189   6.209   7.557  1.9687 -0.6534 -1.4745
  443MOL0     H58451   2.162   6.179   7.383  0.3375  0.4453 -1.0107
  443MOL0     H58452   1.927   6.217   7.398  2.2814 -2.8905 -1.2617
  443MOL0     H58453   1.949   6.276   7.563 -1.0448 -3.7378  2.5291
  443MOL0     H58454   2.025   6.003   7.458 -0.9707 -1.0607  1.4172
  443MOL0     H58455   2.029   6.062   7.631  0.1899  2.9468  1.4491
  443MOL0     H58456   1.779   6.018   7.450 -0.4463 -0.0656 -0.5051
  443MOL0     H58457   1.783   6.065   7.622  1.6692 -0.0862  0.9685
  443MOL0     H58458   2.676   6.753   7.389 -2.3091 -0.8415  0.1011
  443MOL0     H58459   2.914   6.762   7.339 -0.7005  0.1698 -0.4635
  443MOL0     H58460   3.341   6.795   7.141  0.5060  0.6501  0.3842
  443MOL0     H58461   3.551   6.790   7.133 -2.1423  0.1299  0.7354
  443MOL0     H58462   5.383   7.084   6.103  2.8686 -3.0844 -1.3435
  443MOL0     H58463   5.601   7.178   6.125 -0.0480  0.4142  1.5704
  443MOL0     H58464   6.096   7.097   6.207  3.2510  0.3898 -0.3299
  443MOL0     H58465   6.301   7.211   6.250 -0.0963 -1.4930  0.5136
  443MOL0     H58466   6.477   7.542   6.340 -3.9001  2.6614  1.5596
  443MOL0     H58467   6.397   7.430   6.227 -1.2668  1.2735  0.1661
  443MOL0     H58468   6.610   7.371   6.445 -0.1296 -1.1900 -0.2308
  443MOL0     H58469   6.507   7.237   6.384 -1.1110  1.8831 -0.0873
  443MOL0     H58470   6.712   7.389   6.221  1.1668 -0.8130  1.7438
  443MOL0     H58471   6.589   7.287   6.151 -3.1415 -1.6671  1.4011
  443MOL0     H58472   6.769   7.189   6.375 -1.9325 -1.7430  0.5696
  443MOL0     H58473   6.686   7.099   6.257 -0.8065  0.5816  1.6521
  443MOL0     H58474   7.052   7.149   6.074 -1.9966 -4.4876 -2.0294
  443MOL0     H58475   6.093   7.481   6.512 -1.6966 -0.4773  0.9035
  443MOL0     H58476   5.878   7.387   6.448 -1.1911 -1.2362 -0.8385
  444MOL0     O58477   4.113   7.998   2.814 -0.3650  0.8020  0.5582
  444MOL0     C58478   4.076   8.102   2.854 -0.5955  0.3121  0.3666
  444MOL0     O58479   3.939   8.127   2.876 -0.7990  0.2021 -0.2354
  444MOL0     C58480   3.857   8.024   2.901 -0.4617  0.1987 -0.3006
  444MOL0     C58481   3.896   7.919   2.988 -0.2651  0.0375 -0.2659
  444MOL0     C58482   3.794   7.837   3.046 -0.1547  0.1316 -1.0665
  444MOL0     C58483   3.660   7.852   3.010  0.7075 -0.0570  0.9761
  444MOL0     O58484   3.546   7.785   3.069 -0.3398  0.1497  0.3273
  444MOL0     C58485   3.579   7.669   3.148 -0.0843 -0.9696  0.6249
  444MOL0     C58486   3.458   7.639   3.239 -0.0637 -0.1667  0.7432
  444MOL0     C58487   3.328   7.642   3.175  0.9385 -0.3446 -0.6461
  444MOL0     C58488   3.221   7.606   3.277 -0.7942 -0.0965 -0.7668
  444MOL0     C58489   3.094   7.656   3.208 -0.5582 -0.7032 -0.3201
  444MOL0     C58490   2.987   7.633   3.314 -0.6776  0.3910 -0.3217
  444MOL0     C58491   2.852   7.699   3.272 -0.0182  0.6242  0.0498
  444MOL0     C58492   2.796   7.635   3.145  0.1791 -0.2423 -0.8771
  444MOL0     N58493   2.654   7.672   3.121 -0.1589 -0.3025 -0.1712
  444MOL0     C58494   2.547   7.601   3.173 -0.3157 -0.9479 -0.4269
  444MOL0     C58495   2.438   7.658   3.137  0.1145 -0.2831  1.7724
  444MOL0     C58496   2.299   7.607   3.163  0.3715 -0.0680 -0.7958
  444MOL0     C58497   2.234   7.682   3.281  0.9998 -0.4919  0.3793
  444MOL0     C58498   2.206   7.839   3.242  0.3680  0.0829 -0.2856
  444MOL0     C58499   2.115   7.899   3.347 -0.2849  0.6776  0.8743
  444MOL0     O58500   2.059   8.010   3.289 -0.2770  1.0588  0.3707
  444MOL0     C58501   1.965   8.081   3.350 -0.3539 -1.1913  0.0922
  444MOL0     C58502   1.937   8.091   3.485 -0.5995 -0.2035  0.1756
  444MOL0     C58503   1.839   8.175   3.542  0.6872 -0.1259  0.1412
  444MOL0     C58504   1.754   8.247   3.460 -0.8542  0.5391 -0.9636
  444MOL0     C58505   1.639   8.329   3.515  0.0248 -0.7653  0.1186
  444MOL0     O58506   1.579   8.300   3.627  0.4115  0.2288 -0.1730
  444MOL0     C58507   1.465   8.375   3.657  0.7693  0.1725 -0.2192
  444MOL0     C58508   1.468   8.473   3.751  0.3551 -0.5441 -0.1908
  444MOL0     C58509   1.351   8.548   3.785 -0.0130  0.3695  0.1148
  444MOL0     C58510   1.229   8.517   3.723  0.0974 -0.1689  0.3763
  444MOL0     O58511   1.119   8.582   3.772  0.3132  0.0803  0.1606
  444MOL0     C58512   1.001   8.493   3.777  0.7517 -0.2906 -0.7227
  444MOL0     C58513   0.910   8.522   3.906  0.8757  0.4475 -0.2450
  444MOL0     C58514   0.780   8.442   3.909 -0.0740 -0.1225 -0.5302
  444MOL0     C58515   0.700   8.498   3.793  0.4695  0.1780 -0.9374
  444MOL0     C58516   0.550   8.477   3.830 -0.5563  0.2024  0.3583
  444MOL0     C58517   0.447   8.545   3.733 -0.9778  0.1163 -0.0373
  444MOL0     C58518   0.295   8.527   3.761 -0.4451  0.7979 -0.1450
  444MOL0     C58519   0.198   8.591   3.663  0.5701 -0.4069 -0.3399
  444MOL0    Cl58520   0.032   8.588   3.712  0.1633  0.0239 -0.6466
  444MOL0     C58521   1.234   8.429   3.614  0.2989 -0.3928  0.2733
  444MOL0     C58522   1.345   8.359   3.588 -0.8477 -0.5683 -0.2041
  444MOL0     O58523   1.603   8.418   3.438  0.3173 -0.0102  0.0317
  444MOL0     C58524   1.786   8.247   3.319  0.1313  0.5562  0.4251
  444MOL0     C58525   1.886   8.160   3.267 -0.3867  0.0341 -0.4082
  444MOL0     N58526   2.476   7.771   3.062  0.9297 -0.4255 -0.1436
  444MOL0     N58527   2.597   7.764   3.039 -0.7675 -0.4272 -0.0629
  444MOL0     C58528   3.630   7.936   2.919 -0.1217 -0.3307  0.1839
  444MOL0     C58529   3.724   8.034   2.866 -0.2312  0.1320  0.8906
  444MOL0     C58530   4.172   8.219   2.865  0.4449 -0.3411 -0.7528
  444MOL0     C58531   4.313   8.205   2.830  0.0174 -0.6055 -0.3853
  444MOL0     C58532   4.406   8.312   2.851 -0.8117  0.2557  0.0421
  444MOL0     C58533   4.364   8.436   2.908  1.2292  0.3551 -0.6176
  444MOL0     O58534   4.442   8.544   2.926  0.4355 -0.2136 -0.0191
  444MOL0     C58535   4.565   8.550   2.852  0.2114  0.1144 -0.0166
  444MOL0     C58536   4.635   8.688   2.869 -0.4908  0.4626 -0.3178
  444MOL0     C58537   4.644   8.736   3.024  0.2741  0.0763 -0.4078
  444MOL0     C58538   4.725   8.864   3.059  0.1635  0.0803  0.4292
  444MOL0     C58539   4.727   8.868   3.203  0.0368  0.4068 -0.4155
  444MOL0     C58540   4.729   8.883   3.324  0.0378  0.4118 -0.1547
  444MOL0     C58541   4.236   8.439   2.948  0.7107  0.5971 -0.1682
  444MOL0     C58542   4.136   8.341   2.920 -0.2782  0.0354 -0.4112
  444MOL0     H58543   3.997   7.913   3.027  0.9603 -0.2716 -3.2718
  444MOL0     H58544   3.832   7.763   3.116 -1.8919 -1.9096 -2.1498
  444MOL0     H58545   3.674   7.671   3.202  0.0473 -0.1974  0.3649
  444MOL0     H58546   3.589   7.594   3.069  0.0861 -0.9987  0.6732
  444MOL0     H58547   3.466   7.710   3.322 -0.9972  0.9768 -0.1203
  444MOL0     H58548   3.476   7.545   3.292 -1.3255  0.0999  1.6878
  444MOL0     H58549   3.320   7.577   3.087  0.9824 -4.3811  2.0679
  444MOL0     H58550   3.309   7.746   3.149 -0.7377 -0.6982 -0.9727
  444MOL0     H58551   3.222   7.497   3.281 -1.7524 -0.0876 -0.0019
  444MOL0     H58552   3.236   7.654   3.374 -1.3003  0.1314 -0.8010
  444MOL0     H58553   3.053   7.600   3.123 -2.8537  1.1972 -0.5975
  444MOL0     H58554   3.101   7.764   3.187 -0.5988 -0.4759  0.7706
  444MOL0     H58555   3.025   7.673   3.409  2.7942 -0.7971 -1.0640
  444MOL0     H58556   2.989   7.524   3.313  1.3825  0.3672 -2.7969
  444MOL0     H58557   2.786   7.668   3.354 -0.8626 -3.9341 -2.0381
  444MOL0     H58558   2.852   7.808   3.266  0.8129  0.6358  0.1105
  444MOL0     H58559   2.804   7.527   3.161  0.5774  0.3117  4.3077
  444MOL0     H58560   2.854   7.665   3.057  3.0314 -0.2136  0.9100
  444MOL0     H58561   2.553   7.504   3.221  1.7586 -0.7704 -0.2229
  444MOL0     H58562   2.299   7.506   3.206 -3.4568  0.0046 -0.2582
  444MOL0     H58563   2.231   7.604   3.078 -2.1278  0.9642  1.0170
  444MOL0     H58564   2.300   7.669   3.367  0.8299 -0.9965  0.4368
  444MOL0     H58565   2.137   7.639   3.307  1.1808 -2.1069 -1.3788
  444MOL0     H58566   2.297   7.897   3.224 -0.7572  2.0791  0.1215
  444MOL0     H58567   2.149   7.833   3.148  2.9651  0.7199 -2.0126
  444MOL0     H58568   2.176   7.937   3.430  0.6413 -0.8884  0.9503
  444MOL0     H58569   2.040   7.823   3.371 -2.2365  2.1694 -0.2017
  444MOL0     H58570   1.987   8.025   3.555  0.9194 -1.9518 -2.4382
  444MOL0     H58571   1.820   8.159   3.648 -0.9640 -2.1616 -0.3886
  444MOL0     H58572   1.563   8.481   3.805  0.0451  0.5551  0.2119
  444MOL0     H58573   1.349   8.625   3.862 -2.7246  0.1234  0.3776
  444MOL0     H58574   1.036   8.389   3.784  0.2822 -0.3344  3.4119
  444MOL0     H58575   0.943   8.504   3.685  0.7386  1.5071 -0.5245
  444MOL0     H58576   0.884   8.626   3.930  1.2453  0.1703  1.4954
  444MOL0     H58577   0.975   8.484   3.985  1.6803 -2.2622 -2.0690
  444MOL0     H58578   0.726   8.453   4.004  1.1428  2.6963 -0.0848
  444MOL0     H58579   0.812   8.339   3.889 -1.0169 -0.7529  0.9937
  444MOL0     H58580   0.715   8.605   3.778  1.7454 -0.3409 -4.1240
  444MOL0     H58581   0.719   8.453   3.695  1.3550  0.8070 -1.0680
  444MOL0     H58582   0.537   8.526   3.927  0.2215  0.1922  0.4766
  444MOL0     H58583   0.528   8.370   3.839  1.5094 -0.5013 -1.8159
  444MOL0     H58584   0.479   8.515   3.633  0.3626  1.7165 -0.1466
  444MOL0     H58585   0.486   8.647   3.722  4.5534 -1.7609 -1.0942
  444MOL0     H58586   0.284   8.418   3.761 -3.5555  0.8004  4.2276
  444MOL0     H58587   0.281   8.569   3.861 -0.8642 -1.2953  0.7297
  444MOL0     H58588   0.214   8.535   3.571  0.3408 -1.8320  0.4519
  444MOL0     H58589   0.228   8.695   3.648 -0.6214  0.0265  0.1097
  444MOL0     H58590   1.141   8.401   3.565  0.3641  0.1821 -0.1846
  444MOL0     H58591   1.353   8.281   3.512  4.5973 -0.3515 -0.2406
  444MOL0     H58592   1.726   8.297   3.244  2.7682  1.9866 -0.8477
  444MOL0     H58593   1.872   8.159   3.159 -1.9285  1.1403 -0.2423
  444MOL0     H58594   3.526   7.949   2.889 -0.4761 -4.7942 -1.2669
  444MOL0     H58595   3.683   8.113   2.803  1.8355 -0.7739 -1.7841
  444MOL0     H58596   4.350   8.111   2.789 -0.0029 -1.6868  1.9274
  444MOL0     H58597   4.511   8.296   2.827 -1.3560 -0.4267 -2.0334
  444MOL0     H58598   4.537   8.540   2.747 -1.6349  0.0908  0.4402
  444MOL0     H58599   4.634   8.467   2.870  0.5014  0.2005 -0.6970
  444MOL0     H58600   4.737   8.669   2.834 -0.0467 -0.3986  1.3469
  444MOL0     H58601   4.584   8.758   2.802  0.9094  3.4326  1.4927
  444MOL0     H58602   4.682   8.650   3.081 -1.2615 -2.0733 -2.4221
  444MOL0     H58603   4.543   8.747   3.064  0.5654 -2.0764  1.0858
  444MOL0     H58604   4.827   8.858   3.022  0.0730 -1.4208  0.3522
  444MOL0     H58605   4.672   8.943   3.005  1.8325  1.5096  0.7863
  444MOL0     H58606   4.711   8.908   3.427  0.9180  2.2235 -0.4039
  444MOL0     H58607   4.199   8.536   2.982 -0.2809 -0.8796  3.3634
  444MOL0     H58608   4.041   8.355   2.971  0.9642  0.5166  1.9131
  445MOL0     O58609   9.925  10.952   7.995  0.3569 -0.0884 -0.1905
  445MOL0     C58610   9.989  10.851   7.962 -0.4140 -0.4340  0.8073
  445MOL0     O58611   9.936  10.725   7.941 -0.0299  0.5611  0.2036
  445MOL0     C58612   9.804  10.697   7.922  0.1985 -0.4412 -0.2681
  445MOL0     C58613   9.774  10.569   7.892 -0.6207 -0.8264  0.5831
  445MOL0     C58614   9.653  10.519   7.860  0.4038  0.8139 -0.1377
  445MOL0     C58615   9.541  10.609   7.856 -0.8586  0.3484  0.2865
  445MOL0     O58616   9.419  10.559   7.834 -0.3560 -0.6392  0.6040
  445MOL0     C58617   9.305  10.646   7.828 -0.0637 -0.5784 -1.3062
  445MOL0     C58618   9.171  10.569   7.841 -0.3999  0.6095 -0.0511
  445MOL0     C58619   9.049  10.652   7.801  0.4721  0.8332  1.1751
  445MOL0     C58620   8.917  10.573   7.791  0.4485 -1.2989  0.2976
  445MOL0     C58621   8.886  10.508   7.921 -0.1515 -0.5496 -0.1053
  445MOL0     C58622   8.854  10.593   8.045 -1.0619  0.5051 -0.6928
  445MOL0     C58623   8.740  10.693   8.030  0.4522  0.5402 -0.0075
  445MOL0     C58624   8.617  10.640   7.960  0.0190 -0.1942 -0.4757
  445MOL0     N58625   8.499  10.721   7.981  0.6153 -0.1850 -0.0928
  445MOL0     C58626   8.362  10.699   7.975 -0.0431 -0.4752  1.5802
  445MOL0     C58627   8.299  10.819   8.000  0.4734  0.4380  0.2578
  445MOL0     C58628   8.151  10.844   8.007 -0.0894 -0.4963  0.6499
  445MOL0     C58629   8.087  10.868   7.877  0.1011 -0.9524  0.2875
  445MOL0     C58630   7.981  10.980   7.898 -0.2212  0.1675  0.9169
  445MOL0     C58631   7.841  10.905   7.924  0.0976  0.3784  0.7657
  445MOL0     O58632   7.745  11.005   7.958 -0.2881 -0.8992 -0.6329
  445MOL0     C58633   7.612  10.982   7.946  0.0016 -0.3054  1.0933
  445MOL0     C58634   7.533  11.014   8.052  0.3166 -0.7576  0.1336
  445MOL0     C58635   7.398  11.002   8.045  1.1218 -0.3933  0.5318
  445MOL0     C58636   7.334  10.939   7.936 -0.9227 -0.1175 -0.2999
  445MOL0     C58637   7.192  10.907   7.929  0.8050 -0.7167  0.8423
  445MOL0     O58638   7.100  10.992   8.000 -0.6186 -0.1699  0.0394
  445MOL0     C58639   6.974  10.949   8.008 -0.0158  0.7481  0.0968
  445MOL0     C58640   6.895  10.898   7.897  0.3901  0.2272  0.2824
  445MOL0     C58641   6.764  10.862   7.917  0.0903 -0.1500 -0.1744
  445MOL0     C58642   6.703  10.881   8.042  0.2781 -0.5576 -0.4045
  445MOL0     O58643   6.577  10.838   8.054 -0.5867  0.2084 -0.1107
  445MOL0     C58644   6.499  10.934   8.127  0.1043  0.9049  0.8568
  445MOL0     C58645   6.350  10.905   8.116 -0.4567 -0.0246  0.7347
  445MOL0     C58646   6.261  11.003   8.192 -0.4827  0.5959 -1.1419
  445MOL0     C58647   6.285  10.984   8.350 -0.3698  0.5941 -0.2301
  445MOL0     C58648   6.196  11.070   8.450 -0.0214  0.4338 -0.5094
  445MOL0     C58649   6.064  11.003   8.473 -0.4904  0.1438 -1.0515
  445MOL0     C58650   5.979  11.096   8.562 -0.0151 -0.1471  0.4963
  445MOL0     C58651   5.863  11.014   8.616  0.3428 -1.0549  0.0784
  445MOL0    Cl58652   5.750  10.972   8.475 -0.1592  0.0944 -0.0344
  445MOL0     C58653   6.778  10.931   8.145 -0.5628  0.6841  0.7184
  445MOL0     C58654   6.913  10.968   8.123  0.2313  0.4801 -0.9432
  445MOL0     O58655   7.157  10.814   7.852  0.2977 -0.3296  0.3011
  445MOL0     C58656   7.409  10.895   7.830  0.7224 -0.1426 -0.3745
  445MOL0     C58657   7.554  10.916   7.839  0.9845  0.6218  0.2490
  445MOL0     N58658   8.396  10.905   8.023 -0.2183  0.1358  0.3106
  445MOL0     N58659   8.511  10.853   8.015 -0.6073  0.0544 -0.0847
  445MOL0     C58660   9.577  10.745   7.870 -0.3474 -0.0483 -0.1228
  445MOL0     C58661   9.703  10.790   7.901  0.1055  0.4417 -1.1499
  445MOL0     C58662  10.133  10.872   7.930 -0.2042 -0.2065 -0.3825
  445MOL0     C58663  10.216  10.762   7.878  0.6332  0.1390 -1.1743
  445MOL0     C58664  10.349  10.767   7.850 -1.5115  0.0093 -0.0844
  445MOL0     C58665  10.414  10.885   7.891 -0.4546 -0.3148  0.6452
  445MOL0     O58666  10.554  10.889   7.878 -0.4291  0.4380  0.1603
  445MOL0     C58667  10.631  11.010   7.916 -0.2983  0.0837 -0.2468
  445MOL0     C58668  10.784  10.987   7.905 -0.1319 -0.1994  0.3665
  445MOL0     C58669  10.863  11.088   7.989 -0.1624 -1.2601  0.2599
  445MOL0     C58670  10.892  11.220   7.917 -0.6245  0.1581  0.7805
  445MOL0     C58671  10.926  11.338   8.002 -0.2603 -0.0574  0.7408
  445MOL0     C58672  10.974  11.500   8.099  0.0133  0.5138  0.5457
  445MOL0     C58673  10.342  11.000   7.935  0.1238 -0.2952 -0.2252
  445MOL0     C58674  10.204  10.997   7.949  0.7369  0.4881 -1.3051
  445MOL0     H58675   9.868  10.514   7.890 -0.2324 -0.3964 -3.7045
  445MOL0     H58676   9.650  10.412   7.846  2.1253  0.6765  0.2807
  445MOL0     H58677   9.289  10.703   7.735 -3.5204 -0.4010 -0.7332
  445MOL0     H58678   9.308  10.716   7.912  1.1911 -0.9448 -1.0261
  445MOL0     H58679   9.173  10.508   7.932 -1.7863 -0.9813 -1.0277
  445MOL0     H58680   9.177  10.488   7.767  2.3304  0.0717  0.6449
  445MOL0     H58681   9.071  10.690   7.701  2.9627  0.9943  1.7093
  445MOL0     H58682   9.050  10.732   7.875 -0.6436  1.1722  0.8368
  445MOL0     H58683   8.840  10.636   7.746  0.2573 -0.6288  1.5114
  445MOL0     H58684   8.930  10.499   7.711  1.5833  0.6160 -1.4046
  445MOL0     H58685   8.963  10.436   7.951  1.1067  0.8168  0.0628
  445MOL0     H58686   8.801  10.441   7.911  0.2916 -0.9449 -1.4538
  445MOL0     H58687   8.940  10.653   8.076 -0.6506  0.1212 -1.0784
  445MOL0     H58688   8.828  10.527   8.128  2.7758 -0.2218  0.1210
  445MOL0     H58689   8.720  10.732   8.130 -2.0837 -1.8708  0.5489
  445MOL0     H58690   8.787  10.777   7.978  1.8218 -1.5715 -2.4020
  445MOL0     H58691   8.591  10.542   8.003  1.6666 -0.1914  0.6194
  445MOL0     H58692   8.640  10.617   7.855  1.3486 -1.7050  0.1039
  445MOL0     H58693   8.315  10.605   7.945  2.7091 -2.0194  1.7459
  445MOL0     H58694   8.138  10.931   8.071  0.5102 -0.9242  1.3768
  445MOL0     H58695   8.096  10.767   8.062 -1.6398 -0.3888 -0.6939
  445MOL0     H58696   8.056  10.776   7.826 -1.7079 -1.7567  2.6058
  445MOL0     H58697   8.162  10.923   7.820 -1.3873  3.1327  1.8629
  445MOL0     H58698   8.007  11.050   7.978 -1.4399  2.9355 -0.9736
  445MOL0     H58699   7.968  11.037   7.806  3.2423  2.9820  1.9328
  445MOL0     H58700   7.850  10.830   8.004 -1.1273 -0.3642  0.2446
  445MOL0     H58701   7.809  10.851   7.834  1.4396 -0.7055  0.8891
  445MOL0     H58702   7.570  11.062   8.142  0.2443 -0.1938 -0.1340
  445MOL0     H58703   7.334  11.037   8.125  1.2437  0.6827  0.1768
  445MOL0     H58704   6.937  10.879   7.798 -0.9292 -2.5945  0.1581
  445MOL0     H58705   6.705  10.815   7.840 -0.7583  1.5246 -0.5795
  445MOL0     H58706   6.519  11.036   8.093  1.9008  0.2844 -0.0440
  445MOL0     H58707   6.521  10.915   8.232  1.4770 -0.2149  0.3838
  445MOL0     H58708   6.328  10.804   8.154 -3.0954  0.8256  1.6545
  445MOL0     H58709   6.314  10.890   8.014 -0.0835 -0.0440  0.6023
  445MOL0     H58710   6.153  10.990   8.179 -0.4277  0.8195 -1.8632
  445MOL0     H58711   6.282  11.106   8.163 -1.8454  1.3420  0.3976
  445MOL0     H58712   6.274  10.876   8.366 -4.1632  1.1338  1.7816
  445MOL0     H58713   6.388  11.006   8.381 -1.4846  0.9192  3.8154
  445MOL0     H58714   6.181  11.169   8.406 -0.5876  0.1626 -0.9377
  445MOL0     H58715   6.246  11.083   8.546 -2.1196 -0.3071  0.7491
  445MOL0     H58716   6.084  10.913   8.533  0.3271  3.2237  3.8432
  445MOL0     H58717   6.009  10.982   8.381 -2.3666  0.7870 -0.1367
  445MOL0     H58718   6.016  11.153   8.648 -2.6110  1.6457  0.5404
  445MOL0     H58719   5.941  11.170   8.491 -2.5182 -0.9921  0.8602
  445MOL0     H58720   5.808  11.073   8.691 -1.9366  2.0132 -3.6107
  445MOL0     H58721   5.907  10.927   8.665 -2.7688 -3.6462 -1.3206
  445MOL0     H58722   6.743  10.945   8.247  0.3517  0.6390  1.0434
  445MOL0     H58723   6.969  11.015   8.202  0.6805  1.0112 -1.5616
  445MOL0     H58724   7.371  10.837   7.746 -0.1791  1.2366 -0.9464
  445MOL0     H58725   7.614  10.880   7.755 -0.2821  0.3029 -0.5410
  445MOL0     H58726   9.508  10.826   7.846  0.7952  2.3705  3.7696
  445MOL0     H58727   9.723  10.896   7.913  0.7716  0.1705  0.4313
  445MOL0     H58728  10.159  10.676   7.846  0.3175 -0.5466  1.0472
  445MOL0     H58729  10.394  10.674   7.817 -2.4761  0.3934 -2.6872
  445MOL0     H58730  10.598  11.055   8.010  1.9253  1.5152 -0.0591
  445MOL0     H58731  10.619  11.090   7.842  0.6785  2.0336  1.6068
  445MOL0     H58732  10.811  10.888   7.944  1.6788 -0.6378 -1.7892
  445MOL0     H58733  10.817  10.986   7.800  1.8541 -0.8912  0.9378
  445MOL0     H58734  10.960  11.043   8.013 -0.6877 -2.6914 -0.1824
  445MOL0     H58735  10.806  11.112   8.079 -0.0279  1.4150 -0.2910
  445MOL0     H58736  10.966  11.201   7.838 -0.1229  0.7913  1.0927
  445MOL0     H58737  10.806  11.259   7.861 -0.3299  1.0225  0.9222
  445MOL0     H58738  11.009  11.574   8.168 -3.2531  1.3225  1.5039
  445MOL0     H58739  10.382  11.098   7.957  0.4659 -0.4648 -0.0857
  445MOL0     H58740  10.142  11.082   7.977  0.9924  0.7895 -1.6385
  446MOL0     O58741   8.627   8.706   4.341  0.0818  0.3345 -0.1033
  446MOL0     C58742   8.688   8.810   4.370 -0.8153  0.2421 -0.5485
  446MOL0     O58743   8.647   8.946   4.356  0.0073 -0.4127 -0.1727
  446MOL0     C58744   8.528   8.977   4.294 -1.1175 -0.0496 -0.6754
  446MOL0     C58745   8.434   9.076   4.343 -1.0612 -0.8188  0.3273
  446MOL0     C58746   8.317   9.101   4.268 -1.1096  0.4268  0.0193
  446MOL0     C58747   8.293   9.023   4.156  0.4418  0.3230 -0.2352
  446MOL0     O58748   8.199   9.046   4.058  0.7825  0.3166 -0.3700
  446MOL0     C58749   8.067   9.100   4.084 -0.3169  0.7067  0.0994
  446MOL0     C58750   7.979   9.017   3.990  0.1628  0.3640  1.0544
  446MOL0     C58751   7.837   9.091   4.000 -1.3069  0.4802  0.4858
  446MOL0     C58752   7.737   9.002   3.935  0.0487  0.1374  0.3220
  446MOL0     C58753   7.599   9.067   3.940 -0.3750 -0.3507  0.3355
  446MOL0     C58754   7.502   8.979   3.873 -0.8991 -0.2078 -0.2084
  446MOL0     C58755   7.360   9.042   3.877 -0.3468  1.6154 -0.5056
  446MOL0     C58756   7.261   8.963   3.773 -0.7899  0.4339  1.1258
  446MOL0     N58757   7.154   9.044   3.726 -0.3170 -1.0346  0.0937
  446MOL0     C58758   7.110   9.034   3.595 -0.3668 -0.0798 -0.7155
  446MOL0     C58759   7.000   9.111   3.585 -0.3611  0.2880 -0.7826
  446MOL0     C58760   6.910   9.109   3.460  0.2092  0.8905  0.1298
  446MOL0     C58761   6.761   9.087   3.520 -1.1741 -0.3125  0.5717
  446MOL0     C58762   6.751   8.950   3.587  0.3449  0.1380  0.1423
  446MOL0     C58763   6.606   8.906   3.581  0.1794 -0.2604 -0.8586
  446MOL0     O58764   6.594   8.762   3.556  0.0360 -0.6785  0.3332
  446MOL0     C58765   6.469   8.702   3.570 -0.1468 -0.2659 -0.4835
  446MOL0     C58766   6.342   8.768   3.559 -0.6192  0.4019  0.3097
  446MOL0     C58767   6.218   8.692   3.558 -0.9162  0.0303  0.2251
  446MOL0     C58768   6.224   8.555   3.591  0.4855  0.4543  0.2379
  446MOL0     C58769   6.102   8.483   3.603  0.4797  0.2870 -0.1546
  446MOL0     O58770   5.996   8.543   3.533 -0.7197  0.2146 -0.1621
  446MOL0     C58771   5.886   8.462   3.516  0.0007  0.4251 -0.3127
  446MOL0     C58772   5.862   8.392   3.401 -0.9818  0.9791  0.2428
  446MOL0     C58773   5.736   8.326   3.384  0.5316  0.0628 -0.0224
  446MOL0     C58774   5.632   8.328   3.482 -0.9637  0.4742  0.2644
  446MOL0     O58775   5.513   8.263   3.472 -0.0599 -0.4882 -0.5053
  446MOL0     C58776   5.444   8.267   3.342 -0.2376  0.6311 -0.1190
  446MOL0     C58777   5.440   8.123   3.291  0.2331  0.7684 -0.3499
  446MOL0     C58778   5.365   8.119   3.167  0.2812  0.4525 -0.5259
  446MOL0     C58779   5.341   7.975   3.116  0.4386 -0.5307  0.0206
  446MOL0     C58780   5.250   7.968   2.990  0.8639  0.7298 -0.0362
  446MOL0     C58781   5.297   7.850   2.888  1.2417 -0.7771  0.3184
  446MOL0     C58782   5.216   7.850   2.755  0.1873  0.0357  0.0014
  446MOL0     C58783   5.235   7.712   2.685 -0.1734 -0.1136  0.4753
  446MOL0    Cl58784   5.410   7.669   2.671 -0.0984 -0.8749  0.1128
  446MOL0     C58785   5.663   8.394   3.598 -0.0260  0.3783 -0.3158
  446MOL0     C58786   5.784   8.456   3.615 -0.7693 -0.1601  0.3523
  446MOL0     O58787   6.099   8.376   3.666  0.3441 -0.2269 -0.7963
  446MOL0     C58788   6.348   8.494   3.630  0.3358 -0.1786  0.1703
  446MOL0     C58789   6.469   8.569   3.607 -0.1594  1.2211  0.7732
  446MOL0     N58790   6.983   9.185   3.699  0.2034 -0.8230  0.7902
  446MOL0     N58791   7.077   9.146   3.787  0.3123  0.3152  0.3527
  446MOL0     C58792   8.385   8.937   4.111  1.0143 -0.6092  0.7873
  446MOL0     C58793   8.496   8.913   4.180  0.1333 -0.0655  0.3999
  446MOL0     C58794   8.831   8.799   4.438  0.3440 -0.3464 -0.0686
  446MOL0     C58795   8.904   8.682   4.436 -0.1766 -0.3472  1.1002
  446MOL0     C58796   9.029   8.682   4.495 -0.3125 -0.4619  0.8256
  446MOL0     C58797   9.087   8.794   4.560 -0.7080  0.1563  0.4367
  446MOL0     O58798   9.215   8.784   4.608  0.8666 -0.3994  0.5056
  446MOL0     C58799   9.284   8.900   4.655  0.0372 -0.0559  0.0682
  446MOL0     C58800   9.428   8.881   4.683  0.2713  0.5928  0.0014
  446MOL0     C58801   9.507   9.011   4.695 -0.1324  0.8041  0.0925
  446MOL0     C58802   9.659   9.004   4.694 -0.5346 -0.2145  0.3746
  446MOL0     C58803   9.738   9.124   4.735  0.6679 -0.2482  0.1429
  446MOL0     C58804   9.805   9.221   4.760 -0.5049  0.3737 -0.4687
  446MOL0     C58805   9.007   8.908   4.573  0.1600 -0.0825  0.4395
  446MOL0     C58806   8.876   8.907   4.513  0.1265  0.3078  0.0268
  446MOL0     H58807   8.462   9.132   4.432 -0.0459 -2.8945  1.3994
  446MOL0     H58808   8.237   9.167   4.300 -0.6656 -0.1693  2.6111
  446MOL0     H58809   8.062   9.207   4.061 -0.7812  0.6512 -0.0568
  446MOL0     H58810   8.041   9.096   4.190  2.8108  1.1636  1.0006
  446MOL0     H58811   7.977   8.915   4.029 -0.7973  0.1269  0.4241
  446MOL0     H58812   8.016   9.011   3.887 -2.4968 -1.9248  0.1067
  446MOL0     H58813   7.832   9.192   3.958 -1.0290  0.7344  1.0395
  446MOL0     H58814   7.817   9.101   4.107  0.1083  2.2893  0.6380
  446MOL0     H58815   7.764   8.987   3.830 -1.8433 -0.5655 -0.0987
  446MOL0     H58816   7.744   8.902   3.981 -1.4065 -0.9645 -1.7242
  446MOL0     H58817   7.607   9.151   3.870 -0.5875  0.8860  1.7359
  446MOL0     H58818   7.562   9.097   4.038 -1.0570 -0.7413  0.2068
  446MOL0     H58819   7.499   8.886   3.930 -0.1520  1.1448  2.1932
  446MOL0     H58820   7.531   8.954   3.770 -2.8271 -0.9892 -0.6061
  446MOL0     H58821   7.327   9.038   3.981  1.2177  0.4189 -0.0156
  446MOL0     H58822   7.370   9.147   3.847  2.4658  1.2316 -1.1116
  446MOL0     H58823   7.216   8.870   3.809  1.9788 -1.5366 -0.1328
  446MOL0     H58824   7.311   8.945   3.678 -4.6918 -1.3226 -0.8420
  446MOL0     H58825   7.148   8.964   3.522 -4.6365 -2.1687 -1.2353
  446MOL0     H58826   6.933   9.024   3.396  3.5123 -0.4119  2.7621
  446MOL0     H58827   6.925   9.201   3.401  2.7365  0.3499 -0.2065
  446MOL0     H58828   6.699   9.089   3.430 -0.5369  1.5433  0.1281
  446MOL0     H58829   6.736   9.171   3.586  2.8929  0.7656  0.9815
  446MOL0     H58830   6.806   8.870   3.536 -0.2294 -0.9781  1.2213
  446MOL0     H58831   6.774   8.963   3.693  0.3684  2.1794 -0.0663
  446MOL0     H58832   6.548   8.959   3.505 -2.1857 -4.1421 -2.0668
  446MOL0     H58833   6.568   8.937   3.679 -1.1562 -0.9469 -1.1377
  446MOL0     H58834   6.339   8.873   3.534  0.5659  1.0715  2.6668
  446MOL0     H58835   6.128   8.750   3.538  0.4587  1.0495 -4.0202
  446MOL0     H58836   5.928   8.380   3.316  0.5878 -2.4576  1.7374
  446MOL0     H58837   5.718   8.266   3.295 -0.3391  0.3185 -0.0353
  446MOL0     H58838   5.492   8.346   3.283 -1.4333  2.5164  1.3427
  446MOL0     H58839   5.340   8.295   3.361 -0.4692 -0.5454  0.3998
  446MOL0     H58840   5.388   8.063   3.366 -1.0742  1.0219 -1.0264
  446MOL0     H58841   5.535   8.076   3.264  1.1536  2.8437 -0.9867
  446MOL0     H58842   5.410   8.178   3.087  2.6720  0.7531  0.9375
  446MOL0     H58843   5.263   8.155   3.182  0.4931  1.7587 -1.9932
  446MOL0     H58844   5.433   7.920   3.094  0.6086  0.1432 -1.0028
  446MOL0     H58845   5.289   7.920   3.196 -3.7894  0.5585 -1.6906
  446MOL0     H58846   5.255   8.062   2.935  1.5766 -0.0508 -1.3515
  446MOL0     H58847   5.146   7.952   3.017  0.4646 -1.9595 -2.7285
  446MOL0     H58848   5.272   7.752   2.930 -3.5791  0.0112 -0.1303
  446MOL0     H58849   5.399   7.881   2.864  0.2754  3.3673  0.8454
  446MOL0     H58850   5.109   7.859   2.777 -0.0735 -0.3455 -1.0732
  446MOL0     H58851   5.248   7.933   2.692  1.5987  0.9080  1.7519
  446MOL0     H58852   5.188   7.715   2.586  0.3577  1.5657  0.2431
  446MOL0     H58853   5.191   7.622   2.729  2.3424 -2.9716 -2.3769
  446MOL0     H58854   5.589   8.383   3.677 -1.3804 -3.0147 -1.9016
  446MOL0     H58855   5.805   8.509   3.708  3.7325 -1.1449  0.1141
  446MOL0     H58856   6.348   8.389   3.657 -3.1033 -0.7058 -1.2517
  446MOL0     H58857   6.563   8.520   3.628 -0.5378 -0.3567 -0.9589
  446MOL0     H58858   8.352   8.887   4.021  0.2362  0.8276  0.2406
  446MOL0     H58859   8.563   8.837   4.141  0.7552  1.8742 -2.7109
  446MOL0     H58860   8.867   8.589   4.396 -1.0408  0.8466 -1.0326
  446MOL0     H58861   9.075   8.583   4.496 -3.3650 -2.0177  0.1682
  446MOL0     H58862   9.239   8.947   4.743 -1.9959 -0.2065 -0.8469
  446MOL0     H58863   9.270   8.959   4.565 -3.5307 -0.4347  0.2469
  446MOL0     H58864   9.439   8.817   4.770 -1.3461  0.2778  0.0113
  446MOL0     H58865   9.466   8.828   4.594 -0.0025  3.4029 -1.9282
  446MOL0     H58866   9.476   9.063   4.786  2.0802  1.9525  0.2436
  446MOL0     H58867   9.475   9.080   4.616 -2.9868  0.9428  1.2577
  446MOL0     H58868   9.688   8.926   4.766  2.9063  0.3197 -0.2387
  446MOL0     H58869   9.695   8.976   4.595  2.0687  2.9578  0.2615
  446MOL0     H58870   9.867   9.304   4.788 -0.9247 -0.0838  2.0357
  446MOL0     H58871   9.036   8.989   4.639 -0.6715  1.9199 -1.5215
  446MOL0     H58872   8.803   8.983   4.541 -0.5429 -0.5150  0.5623
  447MOL0     O58873   7.826   2.106   7.318 -0.6749  0.3606 -0.6345
  447MOL0     C58874   7.915   2.184   7.353  0.0129  0.0623  0.7882
  447MOL0     O58875   7.895   2.299   7.414  0.0823 -0.4565  1.0629
  447MOL0     C58876   7.768   2.361   7.395 -0.9498  0.1724 -0.6651
  447MOL0     C58877   7.713   2.372   7.267 -0.3175 -0.1134  0.4422
  447MOL0     C58878   7.580   2.414   7.257  0.1026 -0.1598 -0.2382
  447MOL0     C58879   7.503   2.459   7.365  0.4477 -0.6731 -0.0967
  447MOL0     O58880   7.370   2.487   7.351 -0.5133 -0.4030 -0.1935
  447MOL0     C58881   7.320   2.510   7.223  0.1493 -1.0670  0.2876
  447MOL0     C58882   7.214   2.621   7.223 -0.0384 -0.3591 -0.2739
  447MOL0     C58883   7.075   2.561   7.247  0.0659 -0.7953  0.3155
  447MOL0     C58884   6.958   2.667   7.222  0.1455 -0.2249  0.1189
  447MOL0     C58885   6.828   2.587   7.256 -0.6832 -0.2535 -0.5377
  447MOL0     C58886   6.715   2.682   7.251  0.3223  0.7647 -0.2843
  447MOL0     C58887   6.578   2.623   7.285 -0.2574  0.3059 -0.0773
  447MOL0     C58888   6.459   2.708   7.232  0.1646  0.1735  0.1992
  447MOL0     N58889   6.346   2.728   7.317  0.5238  0.5739  0.4170
  447MOL0     C58890   6.289   2.850   7.350 -0.3075 -0.5958 -0.1822
  447MOL0     C58891   6.204   2.832   7.455  0.0268 -0.8854  0.9191
  447MOL0     C58892   6.110   2.924   7.526  0.1841  0.4137  0.8693
  447MOL0     C58893   6.180   2.981   7.650 -0.3522  0.1284  1.0108
  447MOL0     C58894   6.231   2.886   7.760 -0.1618  0.7310  0.2239
  447MOL0     C58895   6.131   2.803   7.829  0.2507  0.5490  0.6327
  447MOL0     O58896   6.044   2.880   7.914 -0.2775 -0.4685  0.4377
  447MOL0     C58897   5.968   2.810   8.010 -0.4157 -0.4531  0.4514
  447MOL0     C58898   5.895   2.892   8.089 -1.0154  0.5806  0.5378
  447MOL0     C58899   5.794   2.853   8.176  0.2106  0.1644 -0.4063
  447MOL0     C58900   5.768   2.715   8.187  0.4228  0.8027 -0.4019
  447MOL0     C58901   5.666   2.659   8.275  0.0797  0.2070 -0.5556
  447MOL0     O58902   5.581   2.745   8.331 -0.5486  0.2618  0.2725
  447MOL0     C58903   5.445   2.722   8.323 -0.5025  0.2764  0.0116
  447MOL0     C58904   5.383   2.620   8.245  0.0521  0.3882 -0.0542
  447MOL0     C58905   5.243   2.596   8.257  0.6299 -1.1617 -0.1318
  447MOL0     C58906   5.156   2.671   8.338  0.1143  1.0042 -0.6809
  447MOL0     O58907   5.023   2.655   8.341 -0.1375 -0.1784 -0.2501
  447MOL0     C58908   4.974   2.536   8.277 -0.0106 -0.3145  0.2443
  447MOL0     C58909   4.819   2.543   8.291  0.5520  0.6734 -0.5561
  447MOL0     C58910   4.745   2.444   8.193  0.6268 -0.6310 -0.5038
  447MOL0     C58911   4.603   2.424   8.244  1.5194 -0.5096  0.3026
  447MOL0     C58912   4.512   2.335   8.146  0.2053  0.4527 -0.4234
  447MOL0     C58913   4.381   2.320   8.223 -0.4048 -0.2234 -0.0041
  447MOL0     C58914   4.274   2.252   8.132  0.4546 -0.3896 -0.5088
  447MOL0     C58915   4.137   2.261   8.210 -0.3576  0.3817 -0.3694
  447MOL0    Cl58916   4.020   2.134   8.162 -0.0498 -0.1419  0.3062
  447MOL0     C58917   5.220   2.766   8.416 -0.1935 -0.0433  0.7613
  447MOL0     C58918   5.360   2.799   8.405  0.1634 -0.2914 -0.2684
  447MOL0     O58919   5.656   2.535   8.285  0.0128 -0.4295 -0.4788
  447MOL0     C58920   5.854   2.630   8.108 -0.3393 -0.0272  0.3021
  447MOL0     C58921   5.956   2.672   8.014  0.0320  0.8415  0.4688
  447MOL0     N58922   6.187   2.693   7.460 -0.4200  0.1172 -0.3354
  447MOL0     N58923   6.276   2.628   7.386  0.3550 -0.2665  1.0765
  447MOL0     C58924   7.563   2.470   7.492  0.6281  0.6266  0.6751
  447MOL0     C58925   7.695   2.412   7.505 -0.3747 -0.5169 -1.6722
  447MOL0     C58926   8.054   2.147   7.319  0.1717  0.1716 -0.4078
  447MOL0     C58927   8.162   2.232   7.331  0.3347 -0.8291 -0.8932
  447MOL0     C58928   8.298   2.201   7.295  0.0726  0.7484  0.7649
  447MOL0     C58929   8.320   2.077   7.226  0.4916 -1.8687 -0.7251
  447MOL0     O58930   8.441   2.027   7.182 -0.2720  0.7651  0.1014
  447MOL0     C58931   8.559   2.087   7.236 -0.2017  0.5859 -0.1099
  447MOL0     C58932   8.689   2.018   7.182  0.9060 -0.6199  0.6003
  447MOL0     C58933   8.805   2.108   7.226 -0.3970 -0.3528  0.2525
  447MOL0     C58934   8.932   2.030   7.220  0.3259 -0.4873 -0.2502
  447MOL0     C58935   8.946   1.920   7.318  1.0091 -0.5592 -0.4587
  447MOL0     C58936   8.960   1.819   7.384 -1.1671  0.2146 -0.0935
  447MOL0     C58937   8.208   1.995   7.209  0.0771 -0.2818 -0.3554
  447MOL0     C58938   8.076   2.026   7.249 -0.8404 -1.0874 -0.9365
  447MOL0     H58939   7.771   2.338   7.182  0.5198 -0.0005  0.9614
  447MOL0     H58940   7.532   2.405   7.160  0.7552 -1.1503 -0.4881
  447MOL0     H58941   7.271   2.426   7.174  0.7917 -1.7880  0.8581
  447MOL0     H58942   7.392   2.560   7.158 -0.8144  1.3930  0.9760
  447MOL0     H58943   7.200   2.659   7.121  0.2109  1.4536  0.3277
  447MOL0     H58944   7.243   2.709   7.282  0.7625  0.2175 -1.4905
  447MOL0     H58945   7.075   2.528   7.351  2.1986 -0.0344  0.6112
  447MOL0     H58946   7.065   2.467   7.192 -2.2850  0.3552 -1.3866
  447MOL0     H58947   6.967   2.752   7.289 -0.4040 -3.1719  4.2810
  447MOL0     H58948   6.956   2.706   7.120  0.3138 -0.6448 -0.0488
  447MOL0     H58949   6.843   2.542   7.354 -0.2971 -1.0597 -0.9540
  447MOL0     H58950   6.811   2.501   7.190 -3.9675  0.7623 -1.1968
  447MOL0     H58951   6.705   2.735   7.155 -0.6082 -1.7734 -1.6728
  447MOL0     H58952   6.743   2.750   7.332 -2.7542 -0.0522  1.5892
  447MOL0     H58953   6.567   2.523   7.240 -1.0863 -0.6102  2.0358
  447MOL0     H58954   6.563   2.600   7.390 -2.1304 -4.0299 -1.0522
  447MOL0     H58955   6.421   2.663   7.140 -0.6606 -0.9864  1.0754
  447MOL0     H58956   6.511   2.801   7.208  1.1102 -0.7606 -1.5919
  447MOL0     H58957   6.311   2.946   7.305 -2.2213  1.0627  2.1527
  447MOL0     H58958   6.016   2.874   7.551  1.7354 -3.1135  0.2743
  447MOL0     H58959   6.083   3.013   7.469 -1.8884  0.3843  1.7172
  447MOL0     H58960   6.109   3.051   7.695 -0.5461  1.5417 -1.3429
  447MOL0     H58961   6.272   3.033   7.622 -0.8638  0.8302  0.6079
  447MOL0     H58962   6.316   2.831   7.720  1.2879  1.9630  1.4666
  447MOL0     H58963   6.280   2.948   7.836 -1.8650  0.0072  2.0188
  447MOL0     H58964   6.181   2.723   7.884  1.1718  0.3193 -0.5032
  447MOL0     H58965   6.072   2.763   7.746  1.6121 -2.7045  1.0848
  447MOL0     H58966   5.915   2.998   8.075 -0.6256  0.4318 -0.0321
  447MOL0     H58967   5.728   2.926   8.222 -2.5884 -1.0093 -2.2547
  447MOL0     H58968   5.443   2.551   8.186  0.3217 -0.2566  0.9383
  447MOL0     H58969   5.208   2.509   8.201 -0.9056 -0.3270 -0.5227
  447MOL0     H58970   5.021   2.450   8.326 -1.4934 -3.1489 -2.9006
  447MOL0     H58971   4.998   2.543   8.170  1.3907  1.3015  0.6106
  447MOL0     H58972   4.777   2.642   8.268 -2.4165 -0.3724 -0.0327
  447MOL0     H58973   4.796   2.525   8.396 -1.0683 -0.5094 -1.0800
  447MOL0     H58974   4.785   2.342   8.186  0.9925 -0.6148  1.0031
  447MOL0     H58975   4.749   2.477   8.089  2.3529 -1.2169 -0.6562
  447MOL0     H58976   4.600   2.369   8.339 -0.6665 -1.1990 -0.1219
  447MOL0     H58977   4.559   2.522   8.259  2.2213 -0.6540  4.4857
  447MOL0     H58978   4.551   2.234   8.126 -1.0454 -0.3814  1.1405
  447MOL0     H58979   4.483   2.395   8.060 -0.0679  3.5654  1.6781
  447MOL0     H58980   4.347   2.419   8.254  0.6158 -0.3519  1.6573
  447MOL0     H58981   4.395   2.270   8.320 -0.6832  1.4918  0.9700
  447MOL0     H58982   4.258   2.302   8.036 -0.7659 -1.8938 -1.1361
  447MOL0     H58983   4.299   2.146   8.120 -0.7900 -0.6526 -0.9602
  447MOL0     H58984   4.082   2.355   8.201 -1.0445  0.2842  1.9860
  447MOL0     H58985   4.165   2.239   8.314 -0.5996 -2.0559 -0.7650
  447MOL0     H58986   5.150   2.828   8.470 -1.0575 -1.1053  0.8951
  447MOL0     H58987   5.396   2.887   8.458  0.4133 -1.3383  1.3445
  447MOL0     H58988   5.845   2.522   8.096  0.7214  0.0769 -2.1297
  447MOL0     H58989   6.008   2.603   7.948  1.9741  1.5079  1.2129
  447MOL0     H58990   7.506   2.511   7.574 -1.3705  1.0665 -0.8453
  447MOL0     H58991   7.750   2.410   7.599  2.2070  0.2521 -3.0683
  447MOL0     H58992   8.141   2.329   7.375 -1.8655 -1.5050 -0.3375
  447MOL0     H58993   8.371   2.280   7.304 -0.2534  1.5459 -2.4440
  447MOL0     H58994   8.552   2.069   7.343 -0.9461 -0.2380 -0.2875
  447MOL0     H58995   8.556   2.191   7.202 -1.3990  0.7841  0.5329
  447MOL0     H58996   8.692   1.920   7.232 -0.5166 -0.3849  1.2108
  447MOL0     H58997   8.687   1.991   7.076 -1.3842 -2.1832  0.9581
  447MOL0     H58998   8.794   2.156   7.323 -2.6281 -0.6107  0.1655
  447MOL0     H58999   8.811   2.193   7.158  4.2833  1.5895  2.6112
  447MOL0     H59000   8.952   1.990   7.121  1.3733 -3.2163  0.9601
  447MOL0     H59001   9.019   2.094   7.234  1.0270 -1.4130 -0.2761
  447MOL0     H59002   8.967   1.728   7.439  0.3449  1.5824  2.1471
  447MOL0     H59003   8.237   1.900   7.164  1.0333  0.6421 -1.8078
  447MOL0     H59004   8.001   1.947   7.254 -2.2352  0.2194 -0.2977
  448MOL0     O59005   8.059   1.614   8.571  0.1873  0.2032 -0.2232
  448MOL0     C59006   8.139   1.700   8.558 -0.5170 -0.7772 -0.0201
  448MOL0     O59007   8.119   1.830   8.577 -0.6985  1.1355  0.2218
  448MOL0     C59008   7.991   1.870   8.600  0.1122  0.0983  0.7814
  448MOL0     C59009   7.944   1.870   8.735 -0.1061  0.1042  0.0296
  448MOL0     C59010   7.819   1.912   8.765  0.0976  0.9432 -0.2199
  448MOL0     C59011   7.729   1.956   8.668  0.1381  0.5226  0.6064
  448MOL0     O59012   7.608   1.988   8.706 -0.2011  0.0649 -0.1626
  448MOL0     C59013   7.505   1.895   8.672 -0.5657 -0.7264 -0.4635
  448MOL0     C59014   7.370   1.971   8.663  0.7484 -0.8256 -0.3746
  448MOL0     C59015   7.327   2.034   8.800  0.4535  0.2857 -0.0324
  448MOL0     C59016   7.194   2.106   8.776 -0.5232  0.8907 -0.0712
  448MOL0     C59017   7.136   2.166   8.912  0.5556 -0.8433  0.4750
  448MOL0     C59018   7.011   2.249   8.869 -0.1499  0.8088  0.9382
  448MOL0     C59019   6.935   2.280   8.999 -0.6522  0.0380  0.3652
  448MOL0     C59020   6.799   2.343   8.965 -0.2198 -0.0715 -0.5550
  448MOL0     N59021   6.813   2.477   8.914 -0.5166 -0.5175  0.3959
  448MOL0     C59022   6.810   2.587   8.992  0.2054 -0.3396  0.3213
  448MOL0     C59023   6.823   2.691   8.909 -0.1782 -0.2595  0.7495
  448MOL0     C59024   6.840   2.832   8.964 -0.0489  0.2142  0.3408
  448MOL0     C59025   6.981   2.856   9.036  0.0737  0.4484  0.2913
  448MOL0     C59026   7.087   2.872   8.923 -1.2955 -1.0334 -0.8715
  448MOL0     C59027   7.234   2.848   8.965 -0.6202 -0.0392 -0.1077
  448MOL0     O59028   7.277   2.963   9.038 -0.8407  0.3936  0.0410
  448MOL0     C59029   7.413   2.975   9.054 -0.1486 -0.6443  0.4052
  448MOL0     C59030   7.509   2.874   9.044  0.1412 -0.0292  0.4642
  448MOL0     C59031   7.639   2.893   9.089 -0.2296 -0.1518 -0.3247
  448MOL0     C59032   7.680   3.011   9.154  0.1769 -0.2799 -0.0770
  448MOL0     C59033   7.828   3.036   9.174 -0.3898  0.4478 -0.0816
  448MOL0     O59034   7.913   2.940   9.135  0.7492  0.3890 -0.0965
  448MOL0     C59035   8.048   2.946   9.161 -0.0537  0.1299  0.5988
  448MOL0     C59036   8.130   3.066   9.175  0.4976  0.8397  0.0071
  448MOL0     C59037   8.270   3.062   9.193  0.7391 -0.2531  0.9769
  448MOL0     C59038   8.335   2.940   9.205  0.1981 -0.6234  0.6568
  448MOL0     O59039   8.471   2.930   9.226  0.9450  1.1672  0.5533
  448MOL0     C59040   8.569   2.987   9.130  0.0826  0.8453 -0.1295
  448MOL0     C59041   8.657   3.076   9.220  0.6552  0.8443  0.0109
  448MOL0     C59042   8.786   3.135   9.154  0.0909  0.2446 -0.2714
  448MOL0     C59043   8.884   3.186   9.263  0.6314 -0.2680  0.2358
  448MOL0     C59044   8.995   3.262   9.193 -0.7628  0.2530 -0.1112
  448MOL0     C59045   9.086   3.327   9.298 -0.2473  0.1636  0.0271
  448MOL0     C59046   9.203   3.390   9.211 -0.3375  0.3620 -0.6094
  448MOL0     C59047   9.305   3.465   9.300 -0.3504  0.0755  0.5841
  448MOL0    Cl59048   9.356   3.344   9.424  0.0619  0.0940 -0.0229
  448MOL0     C59049   8.259   2.818   9.196  0.3936  0.6568 -0.0211
  448MOL0     C59050   8.119   2.821   9.169  0.2391  0.3949  0.4158
  448MOL0     O59051   7.857   3.123   9.261  0.4045  0.7433 -0.2209
  448MOL0     C59052   7.590   3.116   9.157  0.0310  0.3127  0.1118
  448MOL0     C59053   7.461   3.095   9.111 -0.0884 -0.2766  0.2543
  448MOL0     N59054   6.828   2.644   8.784  0.2982 -0.2791 -0.4681
  448MOL0     N59055   6.840   2.515   8.788  0.3094  0.1727 -0.0255
  448MOL0     C59056   7.780   1.967   8.542 -0.0296 -0.6460  1.0832
  448MOL0     C59057   7.905   1.923   8.505 -0.6095 -0.3049  1.0413
  448MOL0     C59058   8.280   1.660   8.527 -0.2798  0.3600  0.0150
  448MOL0     C59059   8.313   1.519   8.521  0.6384 -1.0470  0.4608
  448MOL0     C59060   8.431   1.472   8.471 -0.5008 -0.7503 -0.5453
  448MOL0     C59061   8.534   1.558   8.445 -0.6965 -0.6517 -0.0202
  448MOL0     O59062   8.667   1.529   8.422 -0.2308 -0.1246 -0.5414
  448MOL0     C59063   8.701   1.394   8.432 -0.6077 -0.1512  0.1264
  448MOL0     C59064   8.851   1.371   8.422 -0.0256 -0.3856 -0.1630
  448MOL0     C59065   8.935   1.424   8.541  0.3014 -0.6258 -0.1894
  448MOL0     C59066   9.068   1.340   8.540  0.4722  0.0844  0.1718
  448MOL0     C59067   9.169   1.425   8.612  0.3086  0.4900  0.2000
  448MOL0     C59068   9.273   1.480   8.650 -0.1796 -0.3563  0.3654
  448MOL0     C59069   8.510   1.698   8.450 -0.7109  0.0074 -0.5100
  448MOL0     C59070   8.384   1.745   8.488 -0.0916  0.2299 -0.8205
  448MOL0     H59071   8.011   1.838   8.814 -0.9578 -0.8356  0.3944
  448MOL0     H59072   7.788   1.921   8.868  0.0258 -0.6944 -0.0777
  448MOL0     H59073   7.516   1.824   8.754 -0.0930 -0.1982 -0.0614
  448MOL0     H59074   7.519   1.848   8.574  3.4586  0.2102 -0.5329
  448MOL0     H59075   7.304   1.891   8.629 -0.6494  0.1722 -0.1084
  448MOL0     H59076   7.378   2.051   8.588  0.4884  0.5791  1.0235
  448MOL0     H59077   7.400   2.104   8.841 -0.5090  0.4404  1.4922
  448MOL0     H59078   7.306   1.949   8.866  0.1796 -0.0391 -0.5290
  448MOL0     H59079   7.206   2.189   8.706  0.0806  0.3123 -0.6636
  448MOL0     H59080   7.122   2.038   8.729  1.0852  0.2901 -1.7727
  448MOL0     H59081   7.201   2.232   8.970 -2.1976  2.8985 -0.3354
  448MOL0     H59082   7.107   2.082   8.975 -0.8891 -0.3272  0.5202
  448MOL0     H59083   6.957   2.185   8.799  0.8844 -0.9068  1.6621
  448MOL0     H59084   7.045   2.342   8.822 -2.5655  0.8876 -0.8307
  448MOL0     H59085   6.938   2.182   9.049  2.0085  0.2056  0.6754
  448MOL0     H59086   6.987   2.351   9.063 -3.1200  1.9597  0.4199
  448MOL0     H59087   6.736   2.345   9.054  0.4219 -2.7307  0.0445
  448MOL0     H59088   6.750   2.280   8.890 -3.2881  2.7935 -1.1667
  448MOL0     H59089   6.807   2.594   9.100  0.6634  0.3948  0.2942
  448MOL0     H59090   6.762   2.847   9.040 -1.5516 -2.0939 -0.6230
  448MOL0     H59091   6.821   2.906   8.886 -0.7527 -2.0441 -1.7275
  448MOL0     H59092   7.006   2.770   9.098  2.2678  1.1693  0.4952
  448MOL0     H59093   6.984   2.949   9.093  1.7469 -0.8423  2.4231
  448MOL0     H59094   7.055   2.804   8.843  2.0449  0.9224 -4.1544
  448MOL0     H59095   7.085   2.976   8.889 -1.7870 -0.5524  0.5684
  448MOL0     H59096   7.299   2.829   8.880  0.9203  0.3538  0.9456
  448MOL0     H59097   7.228   2.759   9.029  0.1327  0.6956  1.0245
  448MOL0     H59098   7.479   2.775   9.011  2.2907  0.1018 -2.2185
  448MOL0     H59099   7.713   2.814   9.084 -1.0735 -0.8946 -1.4452
  448MOL0     H59100   8.080   3.163   9.179  1.7312  1.5026 -0.2621
  448MOL0     H59101   8.310   3.162   9.211 -2.4460  1.2542  0.5403
  448MOL0     H59102   8.519   3.037   9.047 -0.9733 -0.4848 -0.3351
  448MOL0     H59103   8.629   2.905   9.088 -3.3541 -1.6275 -0.6857
  448MOL0     H59104   8.687   3.006   9.298 -1.1212 -0.3861 -0.3472
  448MOL0     H59105   8.593   3.157   9.256  1.5587  1.8518 -0.5664
  448MOL0     H59106   8.757   3.221   9.092  0.7790  2.4477  2.2894
  448MOL0     H59107   8.833   3.050   9.104  0.9493  1.0277 -0.8303
  448MOL0     H59108   8.822   3.258   9.316 -1.0607 -0.7719 -0.9533
  448MOL0     H59109   8.922   3.104   9.325  0.8969 -1.0501 -0.9295
  448MOL0     H59110   8.950   3.346   9.138  1.7078  1.4767 -0.3877
  448MOL0     H59111   9.060   3.206   9.125 -2.2058 -2.3231  0.4918
  448MOL0     H59112   9.120   3.258   9.376 -0.2957  0.6676  0.5021
  448MOL0     H59113   9.033   3.404   9.355  1.7139  1.5713  0.0632
  448MOL0     H59114   9.256   3.313   9.153  0.0271  1.2136 -1.4513
  448MOL0     H59115   9.164   3.468   9.144  1.1786  1.6002 -0.1278
  448MOL0     H59116   9.247   3.547   9.344 -1.0724 -0.1942  0.1470
  448MOL0     H59117   9.387   3.499   9.237  0.2095  3.9676  3.0395
  448MOL0     H59118   8.317   2.727   9.209  0.3302  0.5625 -0.4009
  448MOL0     H59119   8.071   2.724   9.167  2.6702 -0.8904  1.0613
  448MOL0     H59120   7.620   3.209   9.205  0.1861 -0.2031  1.0348
  448MOL0     H59121   7.392   3.172   9.144 -0.4825 -1.9396  3.9020
  448MOL0     H59122   7.712   2.005   8.466 -0.7810  0.3087  2.1953
  448MOL0     H59123   7.938   1.924   8.402 -1.0134 -1.9345  0.8757
  448MOL0     H59124   8.240   1.448   8.560  0.6179 -0.5509  1.3512
  448MOL0     H59125   8.432   1.365   8.452 -1.8129 -0.3493 -3.2507
  448MOL0     H59126   8.647   1.344   8.351  0.7372  0.1781 -1.0102
  448MOL0     H59127   8.675   1.363   8.534  1.8687 -0.9818  0.5833
  448MOL0     H59128   8.875   1.265   8.432  2.9111  0.3337  1.3078
  448MOL0     H59129   8.889   1.422   8.333  1.0260 -0.1265  0.4226
  448MOL0     H59130   8.882   1.412   8.636 -1.4130 -1.5285 -1.2040
  448MOL0     H59131   8.947   1.531   8.521 -2.7649 -0.4205 -1.4639
  448MOL0     H59132   9.052   1.244   8.590 -3.5772 -0.8549 -2.4313
  448MOL0     H59133   9.109   1.321   8.441  2.8410  0.1925  1.0645
  448MOL0     H59134   9.355   1.547   8.665 -1.8924  1.8329  0.5080
  448MOL0     H59135   8.594   1.763   8.428  0.2215 -0.9309  0.1627
  448MOL0     H59136   8.377   1.853   8.496 -3.2550  0.3960 -3.4676
  449MOL0     O59137   5.870   3.920   7.685  0.0170 -0.0899  0.1506
  449MOL0     C59138   5.899   3.811   7.639 -0.7494 -0.2356  0.8168
  449MOL0     O59139   5.830   3.697   7.649  0.5891 -0.2098 -0.2861
  449MOL0     C59140   5.713   3.721   7.716  0.7966  0.0594  0.7740
  449MOL0     C59141   5.710   3.693   7.854  0.3184  0.1445  0.2279
  449MOL0     C59142   5.587   3.708   7.930  0.0463 -0.2120 -0.1507
  449MOL0     C59143   5.466   3.767   7.879 -1.3461  0.6840  0.1152
  449MOL0     O59144   5.363   3.789   7.963 -0.2984 -0.8411 -0.0939
  449MOL0     C59145   5.244   3.855   7.924 -0.1943  0.7700 -1.4056
  449MOL0     C59146   5.146   3.895   8.035 -0.8296  0.1333  0.2624
  449MOL0     C59147   5.099   3.782   8.116  0.7657  0.3135  0.0205
  449MOL0     C59148   5.010   3.839   8.235 -0.1533 -0.0363 -0.2964
  449MOL0     C59149   4.998   3.726   8.336  0.5017 -0.0406 -0.9979
  449MOL0     C59150   4.916   3.761   8.459 -0.5171  0.4343  0.0356
  449MOL0     C59151   4.940   3.658   8.571 -0.1333  0.3744  0.6125
  449MOL0     C59152   4.829   3.646   8.678 -1.0028  0.7913  0.0963
  449MOL0     N59153   4.714   3.583   8.627 -0.4737 -0.2225 -0.4230
  449MOL0     C59154   4.673   3.459   8.588 -0.6226 -0.7154  0.3882
  449MOL0     C59155   4.557   3.480   8.525 -0.2790 -0.2249 -0.3459
  449MOL0     C59156   4.476   3.362   8.482  0.4212 -0.4286  0.1535
  449MOL0     C59157   4.326   3.375   8.523 -0.1790 -0.1568 -0.2688
  449MOL0     C59158   4.241   3.242   8.546 -0.1903 -0.9459 -0.3640
  449MOL0     C59159   4.093   3.275   8.567 -0.5394 -0.0898 -0.0097
  449MOL0     O59160   4.041   3.144   8.555 -0.7334 -0.6136 -0.0060
  449MOL0     C59161   3.915   3.107   8.592 -0.5046  0.0975  0.3175
  449MOL0     C59162   3.880   2.972   8.607  0.5600 -0.2224  0.5793
  449MOL0     C59163   3.748   2.931   8.634  0.1046  0.6390  0.0596
  449MOL0     C59164   3.648   3.033   8.635  0.7542  0.2847  0.3902
  449MOL0     C59165   3.508   3.001   8.675  0.1644  0.3558  1.2204
  449MOL0     O59166   3.484   2.875   8.711 -0.2798 -0.7634 -0.2364
  449MOL0     C59167   3.350   2.837   8.736  1.1746  0.4039  0.2325
  449MOL0     C59168   3.245   2.855   8.640  0.1321 -0.1241 -0.9262
  449MOL0     C59169   3.117   2.794   8.663  0.6588 -0.2439 -0.2890
  449MOL0     C59170   3.100   2.720   8.777 -0.3068  0.5934  0.6970
  449MOL0     O59171   2.971   2.675   8.810  0.0402  0.5418 -0.1742
  449MOL0     C59172   2.874   2.780   8.819  0.1201 -0.1167 -0.1092
  449MOL0     C59173   2.750   2.702   8.860 -0.8762  0.2099 -0.3771
  449MOL0     C59174   2.625   2.791   8.865 -0.2744  0.6016  0.1848
  449MOL0     C59175   2.499   2.725   8.916  0.5862 -0.3003 -1.0147
  449MOL0     C59176   2.477   2.589   8.863 -0.0502  0.1863 -0.0994
  449MOL0     C59177   2.343   2.533   8.914 -0.5348  0.0252 -0.1966
  449MOL0     C59178   2.228   2.575   8.821  0.0104  0.1756 -0.0615
  449MOL0     C59179   2.098   2.501   8.860 -0.2171 -0.1360 -0.6334
  449MOL0    Cl59180   2.120   2.323   8.878  0.6148 -0.2638  0.4771
  449MOL0     C59181   3.198   2.706   8.877  0.2949 -0.3101 -0.2183
  449MOL0     C59182   3.322   2.764   8.855  0.3794  1.1059 -0.7266
  449MOL0     O59183   3.424   3.090   8.660  0.4874 -0.2507  0.0570
  449MOL0     C59184   3.682   3.163   8.604 -0.7584  0.2867  0.5446
  449MOL0     C59185   3.814   3.194   8.576  0.5908  0.7288 -0.7719
  449MOL0     N59186   4.528   3.613   8.529 -0.3982 -0.4194 -0.8534
  449MOL0     N59187   4.627   3.676   8.595  0.5184  0.0948  0.3935
  449MOL0     C59188   5.477   3.792   7.739  0.1433 -0.2228 -0.9231
  449MOL0     C59189   5.592   3.771   7.664 -0.1051 -0.5300 -0.4076
  449MOL0     C59190   6.036   3.792   7.583  0.1432  0.0121 -0.8215
  449MOL0     C59191   6.087   3.665   7.542  0.2654  0.3235  0.2015
  449MOL0     C59192   6.207   3.653   7.480 -0.3761 -0.2472 -0.0681
  449MOL0     C59193   6.291   3.770   7.466 -0.7091  0.0379 -0.7778
  449MOL0     O59194   6.409   3.770   7.393 -0.3644  0.1279 -0.4328
  449MOL0     C59195   6.479   3.643   7.376  0.4047  0.4884 -0.0072
  449MOL0     C59196   6.607   3.679   7.301 -0.1340  0.1940 -0.3489
  449MOL0     C59197   6.708   3.758   7.400  0.2909  0.1773 -0.3359
  449MOL0     C59198   6.851   3.751   7.333  0.3274  0.5260 -0.4852
  449MOL0     C59199   6.957   3.815   7.416 -0.0791  0.3481 -0.1002
  449MOL0     C59200   7.053   3.859   7.469  0.0944  0.0455 -0.1014
  449MOL0     C59201   6.249   3.894   7.507 -0.4025 -0.1692  0.3041
  449MOL0     C59202   6.121   3.901   7.554  0.4757 -0.6499 -0.6056
  449MOL0     H59203   5.798   3.658   7.907 -0.5581 -0.0657  1.5976
  449MOL0     H59204   5.585   3.686   8.036  1.8022  2.7007  0.5914
  449MOL0     H59205   5.184   3.798   7.852 -2.1685  0.9498  0.0365
  449MOL0     H59206   5.276   3.949   7.878 -0.1140  0.6010 -1.6989
  449MOL0     H59207   5.054   3.937   7.993 -0.3547 -0.6620 -1.6794
  449MOL0     H59208   5.197   3.971   8.095  1.5197 -2.2525  1.4964
  449MOL0     H59209   5.183   3.720   8.148  0.6391 -0.6814 -1.5029
  449MOL0     H59210   5.024   3.721   8.065  2.2556 -0.7622 -0.9602
  449MOL0     H59211   5.064   3.925   8.276 -0.2463 -0.1991  0.1684
  449MOL0     H59212   4.913   3.880   8.205 -1.6148 -0.9389  2.8133
  449MOL0     H59213   5.100   3.696   8.362 -0.0988  0.3481  2.1791
  449MOL0     H59214   4.950   3.640   8.288  0.7415 -1.8603  1.8109
  449MOL0     H59215   4.809   3.766   8.435  0.1652  1.9350 -3.2344
  449MOL0     H59216   4.936   3.858   8.507  2.4650 -0.8009  1.5354
  449MOL0     H59217   4.955   3.560   8.525 -1.2794  0.1679  0.6496
  449MOL0     H59218   5.029   3.680   8.630  3.7148 -0.4144 -4.2297
  449MOL0     H59219   4.805   3.748   8.713 -2.4784  0.4916  0.0478
  449MOL0     H59220   4.875   3.593   8.762 -1.5448  1.3162  0.7407
  449MOL0     H59221   4.716   3.364   8.618  0.6026  0.2017  1.6657
  449MOL0     H59222   4.515   3.275   8.535 -2.8859 -1.1854  1.5910
  449MOL0     H59223   4.476   3.363   8.373  1.5156 -2.0145  0.1175
  449MOL0     H59224   4.278   3.439   8.448 -0.6470  0.1037  0.2421
  449MOL0     H59225   4.323   3.437   8.613 -3.6416 -2.6960  1.6215
  449MOL0     H59226   4.268   3.175   8.464  0.5931  0.3944 -1.2466
  449MOL0     H59227   4.278   3.196   8.638  0.3971 -1.7603 -0.9915
  449MOL0     H59228   4.052   3.347   8.495 -1.0955 -0.4210 -0.0357
  449MOL0     H59229   4.071   3.324   8.662 -3.9066 -1.5398  0.1039
  449MOL0     H59230   3.966   2.905   8.602  1.3520  0.8701 -1.5194
  449MOL0     H59231   3.727   2.824   8.635  0.0393  0.6514 -0.0793
  449MOL0     H59232   3.279   2.906   8.551  2.7454 -1.6778 -0.9360
  449MOL0     H59233   3.032   2.798   8.595 -0.4388 -3.8660  0.6158
  449MOL0     H59234   2.859   2.842   8.730  1.6460  0.7855  0.2200
  449MOL0     H59235   2.895   2.847   8.903 -1.1010  2.9797 -2.0967
  449MOL0     H59236   2.777   2.660   8.958 -1.5591  0.1695 -0.2032
  449MOL0     H59237   2.736   2.610   8.803 -2.1628 -1.0611  1.8658
  449MOL0     H59238   2.597   2.814   8.762  0.2290  0.7555  0.0780
  449MOL0     H59239   2.642   2.888   8.912 -3.6285  1.1925  0.4098
  449MOL0     H59240   2.508   2.726   9.025 -1.2633  0.9084 -0.8165
  449MOL0     H59241   2.417   2.792   8.886  0.7167  0.5313  0.3996
  449MOL0     H59242   2.556   2.525   8.904 -1.6308 -1.0263  1.1468
  449MOL0     H59243   2.492   2.583   8.754  0.0101 -2.1311 -0.0138
  449MOL0     H59244   2.329   2.558   9.019  2.9957  1.9934 -0.0396
  449MOL0     H59245   2.356   2.424   8.909 -2.4078 -0.3001  0.9151
  449MOL0     H59246   2.212   2.683   8.831 -1.4202  0.0652 -0.7898
  449MOL0     H59247   2.262   2.558   8.719  0.3742  0.7237 -0.0311
  449MOL0     H59248   2.025   2.512   8.779 -0.3761  0.0239 -0.4691
  449MOL0     H59249   2.064   2.554   8.949  0.6544 -2.4992  1.2109
  449MOL0     H59250   3.167   2.641   8.958  0.7104 -1.8172 -1.2275
  449MOL0     H59251   3.391   2.752   8.938  0.0825  1.2174 -0.4646
  449MOL0     H59252   3.603   3.236   8.590 -1.3504 -0.4532 -0.1152
  449MOL0     H59253   3.828   3.294   8.537 -2.6997  0.7779 -2.1136
  449MOL0     H59254   5.388   3.834   7.694  0.8498  2.4372 -0.0572
  449MOL0     H59255   5.592   3.795   7.559 -2.2413  1.4568 -0.0483
  449MOL0     H59256   6.032   3.572   7.553 -0.6189  0.7760 -0.3226
  449MOL0     H59257   6.240   3.559   7.437 -0.1206 -0.9661  1.6325
  449MOL0     H59258   6.423   3.577   7.310  1.0748  1.4859 -1.6366
  449MOL0     H59259   6.488   3.590   7.471 -2.4896  1.6691  1.0314
  449MOL0     H59260   6.649   3.583   7.268  2.1262  0.1491  2.2426
  449MOL0     H59261   6.579   3.747   7.220 -0.9036 -1.1472 -1.2585
  449MOL0     H59262   6.714   3.710   7.498 -0.8060  1.9859  0.6697
  449MOL0     H59263   6.677   3.861   7.417 -0.6850 -0.6509  4.2691
  449MOL0     H59264   6.879   3.646   7.316  1.5090  1.0096 -1.7073
  449MOL0     H59265   6.847   3.808   7.240  0.2351 -0.9424 -1.4120
  449MOL0     H59266   7.142   3.899   7.513 -0.2507  0.1985  0.4774
  449MOL0     H59267   6.323   3.972   7.490  3.1502 -3.4685 -0.7988
  449MOL0     H59268   6.085   4.001   7.577 -0.4749 -0.0816 -4.0976
  450MOL0     O59269   4.229  10.741  10.716  0.4257  0.8684 -0.4540
  450MOL0     C59270   4.257  10.629  10.660 -0.4614 -0.4300 -1.2696
  450MOL0     O59271   4.183  10.569  10.563 -0.0868 -0.2871  0.2693
  450MOL0     C59272   4.061  10.624  10.534  0.4899 -1.4072 -0.1315
  450MOL0     C59273   4.051  10.743  10.463 -0.6402  0.4444  0.6751
  450MOL0     C59274   3.927  10.800  10.442  0.2107 -0.7810 -0.0800
  450MOL0     C59275   3.806  10.744  10.492 -0.4274  0.1616 -0.4558
  450MOL0     O59276   3.687  10.818  10.485 -0.6457  0.6461 -0.0840
  450MOL0     C59277   3.559  10.749  10.494  0.1143  0.0688  0.3881
  450MOL0     C59278   3.456  10.837  10.421  1.6020 -0.3076  0.0354
  450MOL0     C59279   3.401  10.948  10.511  0.1768  0.1270 -0.6227
  450MOL0     C59280   3.467  11.075  10.474  0.0010  0.3426  0.8364
  450MOL0     C59281   3.415  11.179  10.568  0.3504 -0.0633 -0.2452
  450MOL0     C59282   3.497  11.309  10.569 -0.3213 -0.6076 -0.4114
  450MOL0     C59283   3.623  11.293  10.655 -0.0718 -0.2879 -0.0613
  450MOL0     C59284   3.718  11.395  10.606 -0.2574 -0.4909 -0.2714
  450MOL0     N59285   3.772  11.355  10.481 -0.8876 -0.0985 -0.0764
  450MOL0     C59286   3.887  11.279  10.457  0.9181 -0.6737  0.6523
  450MOL0     C59287   3.898  11.292  10.320  0.5711 -0.0677  0.2719
  450MOL0     C59288   3.978  11.208  10.225  0.0079 -0.1220  0.1628
  450MOL0     C59289   4.051  11.284  10.117  0.4459  0.4615  0.3487
  450MOL0     C59290   4.161  11.352  10.190 -0.6166 -0.6347 -0.8157
  450MOL0     C59291   4.255  11.433  10.100 -0.3629 -0.1204  0.7548
  450MOL0     O59292   4.186  11.530  10.020  0.5129  0.8829 -0.5558
  450MOL0     C59293   4.236  11.639   9.962 -0.2294 -0.4451  0.0818
  450MOL0     C59294   4.150  11.747   9.947  0.2772 -0.3302 -0.4751
  450MOL0     C59295   4.198  11.873   9.909 -0.8811  0.0588  0.1151
  450MOL0     C59296   4.335  11.886   9.876 -0.4293 -0.8567 -0.9532
  450MOL0     C59297   4.391  12.015   9.820 -1.1087 -0.3635  0.1945
  450MOL0     O59298   4.524  12.038   9.845 -0.0806 -0.1054  0.2081
  450MOL0     C59299   4.599  12.127   9.773 -0.5454  0.0829 -0.4283
  450MOL0     C59300   4.729  12.091   9.718 -0.1439 -0.7577 -0.3191
  450MOL0     C59301   4.793  12.179   9.646 -0.7268 -0.4349  0.1754
  450MOL0     C59302   4.755  12.312   9.615  0.7267  0.0959 -0.8715
  450MOL0     O59303   4.840  12.382   9.530  0.3984 -0.6724  0.9962
  450MOL0     C59304   4.780  12.483   9.454  0.0701  0.0162 -1.1438
  450MOL0     C59305   4.905  12.539   9.372  1.0275 -0.6289 -0.2203
  450MOL0     C59306   4.865  12.669   9.301  0.0226 -0.4421  0.8771
  450MOL0     C59307   4.979  12.758   9.242  0.5093  0.4468 -0.1782
  450MOL0     C59308   4.904  12.865   9.157  0.2965  0.0262 -0.9103
  450MOL0     C59309   4.990  12.970   9.106 -0.5241 -0.1000  0.7043
  450MOL0     C59310   4.916  13.086   9.052 -0.0163  1.1303  0.6082
  450MOL0     C59311   4.995  13.177   8.949 -0.4233 -0.6846  0.5642
  450MOL0    Cl59312   5.028  13.101   8.803 -0.3507  0.3561  0.1646
  450MOL0     C59313   4.627  12.351   9.664  0.9120  0.0630  0.3139
  450MOL0     C59314   4.554  12.262   9.747  0.4638 -0.1904  0.0023
  450MOL0     O59315   4.313  12.102   9.786  0.3525 -0.0956 -0.0205
  450MOL0     C59316   4.424  11.779   9.896 -0.0276 -0.1179  0.4729
  450MOL0     C59317   4.371  11.651   9.930 -0.9891  0.6117 -0.2298
  450MOL0     N59318   3.793  11.372  10.278 -0.2241  0.2122 -0.3857
  450MOL0     N59319   3.720  11.418  10.367  0.1905  0.1976 -0.4152
  450MOL0     C59320   3.805  10.623  10.554  0.0838 -0.0127 -0.7984
  450MOL0     C59321   3.937  10.563  10.577  0.1274 -0.2385  0.0598
  450MOL0     C59322   4.389  10.574  10.700  0.4069  0.7658 -0.0873
  450MOL0     C59323   4.434  10.444  10.669 -0.2562  1.2149  0.3876
  450MOL0     C59324   4.564  10.402  10.703 -1.1975 -0.1212 -0.4334
  450MOL0     C59325   4.650  10.487  10.769  0.7480 -0.1215  0.6831
  450MOL0     O59326   4.771  10.441  10.813  0.3185 -0.4279  0.4190
  450MOL0     C59327   4.870  10.532  10.874  0.4161  0.6203 -0.6139
  450MOL0     C59328   5.001  10.452  10.905  0.7958 -0.5829 -0.7859
  450MOL0     C59329   5.074  10.414  10.780 -0.8447  0.2863 -1.0302
  450MOL0     C59330   5.143  10.523  10.693  0.0386  0.5853  0.4339
  450MOL0     C59331   5.253  10.585  10.771  0.7370 -0.0001 -0.2596
  450MOL0     C59332   5.334  10.638  10.838  0.1635  0.8446 -0.1638
  450MOL0     C59333   4.603  10.609  10.803 -0.5373 -0.2146  1.4512
  450MOL0     C59334   4.477  10.648  10.765  0.5424 -0.4696  0.0360
  450MOL0     H59335   4.141  10.797  10.434 -0.4993  0.0048  0.2651
  450MOL0     H59336   3.927  10.896  10.391 -1.6878 -1.1897 -0.9166
  450MOL0     H59337   3.534  10.730  10.599 -0.9620  1.7348  0.4729
  450MOL0     H59338   3.569  10.657  10.437  2.6935 -0.0772  0.9153
  450MOL0     H59339   3.372  10.774  10.391  2.2069 -0.0722 -2.3375
  450MOL0     H59340   3.503  10.877  10.331  0.1103  1.7103  0.0719
  450MOL0     H59341   3.418  10.929  10.617 -0.9686  3.4666  0.3022
  450MOL0     H59342   3.293  10.959  10.494  0.2382  2.5883  0.1655
  450MOL0     H59343   3.576  11.069  10.474  0.0014 -1.4580 -1.8605
  450MOL0     H59344   3.445  11.093  10.368  0.3125  0.0816  0.7253
  450MOL0     H59345   3.413  11.138  10.670 -0.1004  0.1064 -0.1842
  450MOL0     H59346   3.315  11.206  10.536  0.3631  1.6322  1.0093
  450MOL0     H59347   3.433  11.387  10.611  2.8769  2.1554 -0.2571
  450MOL0     H59348   3.503  11.344  10.466 -0.7668  1.6288  0.2706
  450MOL0     H59349   3.612  11.319  10.761  1.3426 -0.1799  0.0742
  450MOL0     H59350   3.669  11.194  10.643  2.3392  0.9761 -2.4290
  450MOL0     H59351   3.792  11.423  10.681 -1.8365  2.0788  0.4459
  450MOL0     H59352   3.663  11.485  10.577  0.3284 -0.7369 -2.3114
  450MOL0     H59353   3.941  11.209  10.520 -2.3205 -3.2507  0.8238
  450MOL0     H59354   3.906  11.137  10.185  2.1981 -1.3686 -1.7831
  450MOL0     H59355   4.060  11.151  10.271  0.0125 -0.7583 -0.6178
  450MOL0     H59356   3.985  11.355  10.066 -2.6638 -2.0798  0.5361
  450MOL0     H59357   4.092  11.218  10.040 -0.0478  0.3878  0.1423
  450MOL0     H59358   4.119  11.423  10.263 -0.5392 -1.1258 -0.2905
  450MOL0     H59359   4.227  11.285  10.245 -2.6793 -1.4907  0.7404
  450MOL0     H59360   4.302  11.364  10.029  0.8647 -0.3309  1.7402
  450MOL0     H59361   4.331  11.476  10.165  0.7073 -0.1874 -0.3986
  450MOL0     H59362   4.046  11.732   9.974  0.5960  0.9942  1.7776
  450MOL0     H59363   4.125  11.952   9.893  1.4191  2.5598  1.0649
  450MOL0     H59364   4.760  11.988   9.734  3.3171  0.3976  1.4308
  450MOL0     H59365   4.889  12.152   9.603 -0.6015 -1.2080  0.9057
  450MOL0     H59366   4.732  12.556   9.519  1.0634  1.8243 -2.3519
  450MOL0     H59367   4.702  12.444   9.388 -0.0668  0.1058 -1.0329
  450MOL0     H59368   4.925  12.464   9.295  0.2114 -0.5035 -0.5697
  450MOL0     H59369   4.992  12.556   9.436  0.2963 -0.0571  0.6518
  450MOL0     H59370   4.805  12.717   9.379 -2.5816 -0.1454 -1.1743
  450MOL0     H59371   4.799  12.642   9.219  1.9077  3.7133 -2.3796
  450MOL0     H59372   5.044  12.795   9.322 -2.1591 -0.7598  2.7612
  450MOL0     H59373   5.044  12.701   9.175  5.0783  2.8849  1.7576
  450MOL0     H59374   4.830  12.916   9.220  4.2522  7.0706 -0.8705
  450MOL0     H59375   4.852  12.822   9.071 -0.5422  1.7146 -1.2896
  450MOL0     H59376   5.043  12.924   9.022  3.0032  0.8475  2.2009
  450MOL0     H59377   5.056  13.001   9.188 -0.5754  2.0231  0.0048
  450MOL0     H59378   4.822  13.052   9.008  1.1329  1.1412 -2.0467
  450MOL0     H59379   4.899  13.152   9.138 -3.3315  1.3423 -0.0650
  450MOL0     H59380   5.089  13.216   8.989 -0.5553  0.9697 -0.6506
  450MOL0     H59381   4.931  13.263   8.930  0.9057  0.3128  0.4390
  450MOL0     H59382   4.586  12.450   9.646  0.7908  0.2876  1.7675
  450MOL0     H59383   4.466  12.293   9.802  0.2421  0.2284 -0.5773
  450MOL0     H59384   4.529  11.787   9.872  0.6380  1.4112  3.4124
  450MOL0     H59385   4.429  11.559   9.939 -0.8532  0.7696  0.5425
  450MOL0     H59386   3.716  10.571  10.587  0.5147 -1.1439 -1.3850
  450MOL0     H59387   3.924  10.469  10.629  0.1536  0.1118  0.7070
  450MOL0     H59388   4.360  10.377  10.627 -1.5106  0.2240  3.8842
  450MOL0     H59389   4.591  10.297  10.689  2.8243  0.5078  1.2274
  450MOL0     H59390   4.816  10.552  10.967 -2.4857 -0.6916 -1.8863
  450MOL0     H59391   4.886  10.621  10.813  1.2581  1.4249  0.7325
  450MOL0     H59392   5.068  10.499  10.977 -1.3459  0.0144  0.9511
  450MOL0     H59393   4.967  10.358  10.949 -0.0396 -0.5972 -1.4308
  450MOL0     H59394   5.006  10.346  10.728 -0.1385 -0.6029 -0.8155
  450MOL0     H59395   5.158  10.353  10.813  0.4230  1.6299 -1.6106
  450MOL0     H59396   5.179  10.484  10.598 -1.1715 -1.7972  0.8685
  450MOL0     H59397   5.073  10.603  10.666  1.8077  1.3258 -2.3707
  450MOL0     H59398   5.405  10.691  10.900  2.9955 -1.4050 -1.2422
  450MOL0     H59399   4.660  10.686  10.854  1.6436 -0.8993  0.1835
  450MOL0     H59400   4.451  10.747  10.799  2.3697  0.2970 -0.6684
  451MOL0     O59401   8.591  11.237   3.434 -0.1821 -0.1118  0.7281
  451MOL0     C59402   8.601  11.140   3.359  0.4543 -0.3330  0.3717
  451MOL0     O59403   8.502  11.082   3.291  0.4358 -0.2224 -0.0294
  451MOL0     C59404   8.379  11.129   3.314  0.1136 -0.3776 -1.5677
  451MOL0     C59405   8.315  11.106   3.442 -0.4196  0.6870  0.5870
  451MOL0     C59406   8.183  11.140   3.462 -0.0675 -0.2665  0.4965
  451MOL0     C59407   8.110  11.200   3.365 -0.3661 -0.4007 -0.7328
  451MOL0     O59408   7.993  11.254   3.414  0.5609 -0.2767  0.0508
  451MOL0     C59409   7.892  11.291   3.313  0.0250  0.3334  0.3059
  451MOL0     C59410   7.839  11.172   3.225 -0.0354 -0.5101  0.0972
  451MOL0     C59411   7.714  11.210   3.142 -0.3683 -0.3143  0.1002
  451MOL0     C59412   7.759  11.270   3.013  0.5271  0.2122  0.2283
  451MOL0     C59413   7.636  11.286   2.919 -0.1066  0.2225  0.4534
  451MOL0     C59414   7.536  11.400   2.965  0.3431  0.5710  0.3277
  451MOL0     C59415   7.430  11.422   2.856 -0.6406  0.2088 -1.2691
  451MOL0     C59416   7.332  11.525   2.895  0.4670 -0.0070 -1.0493
  451MOL0     N59417   7.218  11.526   2.798  0.9500 -0.2511 -1.1710
  451MOL0     C59418   7.108  11.447   2.808  0.5436 -0.2409  0.1901
  451MOL0     C59419   7.047  11.461   2.697  0.9144  0.5381 -0.5078
  451MOL0     C59420   6.925  11.381   2.652 -0.2141 -0.4744  0.2518
  451MOL0     C59421   6.792  11.437   2.710  0.8721  0.3373 -0.7172
  451MOL0     C59422   6.749  11.563   2.642  0.0128  0.3775  0.0406
  451MOL0     C59423   6.694  11.564   2.496 -0.5087 -0.1112 -0.9257
  451MOL0     O59424   6.591  11.470   2.490 -0.2746  0.2853  0.7353
  451MOL0     C59425   6.466  11.513   2.532  0.4452  0.0510  0.2919
  451MOL0     C59426   6.403  11.627   2.475  0.9578  0.7689  0.3988
  451MOL0     C59427   6.287  11.679   2.534 -1.3144 -0.6093 -0.0907
  451MOL0     C59428   6.221  11.618   2.641  0.1019 -0.2353 -1.0759
  451MOL0     C59429   6.087  11.667   2.696  0.0894  0.8465  0.5895
  451MOL0     O59430   6.059  11.797   2.663  0.2974  0.0650 -0.2159
  451MOL0     C59431   5.948  11.863   2.694  0.4013  0.3546 -1.0605
  451MOL0     C59432   5.843  11.829   2.785  0.1525 -0.3924  0.1746
  451MOL0     C59433   5.721  11.905   2.802 -0.3774 -0.2860 -0.5760
  451MOL0     C59434   5.712  12.031   2.758 -0.8473  0.1886  0.7834
  451MOL0     O59435   5.598  12.102   2.808 -0.7793  0.3282 -0.4439
  451MOL0     C59436   5.559  12.214   2.730  0.3038  0.7411  0.7299
  451MOL0     C59437   5.433  12.287   2.782 -0.8516 -1.4782 -0.2718
  451MOL0     C59438   5.447  12.291   2.933 -0.2703 -0.4724  0.1381
  451MOL0     C59439   5.328  12.361   2.998 -0.0154  0.1632  0.3570
  451MOL0     C59440   5.344  12.364   3.158 -0.2345 -0.0722 -0.5750
  451MOL0     C59441   5.318  12.225   3.220 -0.3671 -0.4741  0.0264
  451MOL0     C59442   5.173  12.211   3.258  1.0390 -0.2018  0.2484
  451MOL0     C59443   5.149  12.083   3.327 -1.2198  0.3271  0.9951
  451MOL0    Cl59444   5.221  12.096   3.487  0.4254  0.4894 -0.1206
  451MOL0     C59445   5.815  12.075   2.671  0.0170  0.3646  0.1992
  451MOL0     C59446   5.932  11.994   2.641  0.2344  0.2910 -0.6611
  451MOL0     O59447   6.012  11.597   2.759  0.5615 -0.1983  0.0685
  451MOL0     C59448   6.288  11.509   2.700  0.1954 -0.0278 -0.0798
  451MOL0     C59449   6.398  11.454   2.639 -0.2751 -0.7968 -0.7841
  451MOL0     N59450   7.108  11.565   2.628 -0.1267  0.2806 -0.2726
  451MOL0     N59451   7.214  11.593   2.685 -0.1687 -0.2780  0.2040
  451MOL0     C59452   8.172  11.221   3.241 -0.8001  0.2477  0.4961
  451MOL0     C59453   8.305  11.188   3.216 -0.0988 -0.1403  0.5008
  451MOL0     C59454   8.737  11.084   3.337  0.6223  0.3813 -0.3740
  451MOL0     C59455   8.752  10.947   3.304 -0.3872 -0.1236  0.6374
  451MOL0     C59456   8.888  10.896   3.294  0.1493 -0.6224 -0.3076
  451MOL0     C59457   9.001  10.987   3.311  1.1335 -0.0886  0.6541
  451MOL0     O59458   9.124  10.928   3.317 -0.1764  0.4613  0.3617
  451MOL0     C59459   9.236  11.020   3.317 -0.5003  0.3793 -0.2047
  451MOL0     C59460   9.352  10.954   3.256 -0.3916 -0.5831 -0.0775
  451MOL0     C59461   9.336  10.916   3.104 -0.3002 -0.5401 -0.0580
  451MOL0     C59462   9.453  10.865   3.026  0.1708  0.1919  1.2402
  451MOL0     C59463   9.536  10.967   2.967 -0.5443  1.0555  0.5312
  451MOL0     C59464   9.627  11.040   2.919  0.0115  0.5004 -0.8337
  451MOL0     C59465   8.975  11.123   3.349 -0.2675  0.2517  0.6060
  451MOL0     C59466   8.845  11.167   3.354  0.3713 -0.6855 -0.2871
  451MOL0     H59467   8.367  11.063   3.527 -2.2827 -0.6661  1.1104
  451MOL0     H59468   8.144  11.125   3.562 -3.4841  1.1892 -0.4810
  451MOL0     H59469   7.942  11.358   3.243  0.6051 -0.1008  0.3022
  451MOL0     H59470   7.807  11.343   3.358  0.7630  2.6832 -0.8777
  451MOL0     H59471   7.822  11.089   3.295 -0.5709 -1.7066 -1.3942
  451MOL0     H59472   7.915  11.124   3.164  0.2373 -1.2805  1.0147
  451MOL0     H59473   7.641  11.277   3.188 -0.1336 -0.6867  1.0508
  451MOL0     H59474   7.655  11.119   3.124 -0.3772  0.0054 -1.6795
  451MOL0     H59475   7.812  11.366   3.020 -2.0604  2.0103 -2.2998
  451MOL0     H59476   7.831  11.200   2.970  0.9512 -0.0970  1.4167
  451MOL0     H59477   7.581  11.192   2.907  1.4221 -0.4747 -1.7535
  451MOL0     H59478   7.671  11.305   2.817 -1.7690  2.0357  0.1619
  451MOL0     H59479   7.596  11.491   2.975  0.8987  0.3760 -1.0380
  451MOL0     H59480   7.487  11.368   3.058 -4.1307 -2.4855 -2.6627
  451MOL0     H59481   7.480  11.445   2.762  0.9536  2.3977  0.0230
  451MOL0     H59482   7.371  11.331   2.842 -0.8886  0.3490 -1.1453
  451MOL0     H59483   7.378  11.622   2.914  0.9192 -0.2051 -1.1200
  451MOL0     H59484   7.285  11.503   2.991  0.2141 -0.4150 -1.2633
  451MOL0     H59485   7.087  11.371   2.883  1.1306  2.2427  3.0144
  451MOL0     H59486   6.940  11.282   2.697 -3.4291 -0.6670  1.1214
  451MOL0     H59487   6.921  11.377   2.542 -0.3365 -0.2685  0.2504
  451MOL0     H59488   6.790  11.451   2.818 -1.4747 -0.9069 -0.5247
  451MOL0     H59489   6.717  11.363   2.681  2.2079 -1.0632 -0.7078
  451MOL0     H59490   6.661  11.592   2.701 -0.4326  0.5841 -0.7035
  451MOL0     H59491   6.831  11.634   2.656 -1.3752  2.3387 -1.1440
  451MOL0     H59492   6.777  11.531   2.433  3.4308  0.2685  3.5094
  451MOL0     H59493   6.654  11.661   2.464  0.9249  1.3032  1.2882
  451MOL0     H59494   6.442  11.673   2.385  2.0720 -2.6655 -1.0259
  451MOL0     H59495   6.236  11.758   2.479  0.5094  1.3431  0.8430
  451MOL0     H59496   5.845  11.736   2.841 -1.3842  0.4647  1.7328
  451MOL0     H59497   5.640  11.861   2.858 -0.7592  1.1197  0.0426
  451MOL0     H59498   5.542  12.180   2.627  0.9052 -0.3428  0.9791
  451MOL0     H59499   5.637  12.291   2.735 -1.1431  2.4155 -0.7374
  451MOL0     H59500   5.339  12.236   2.759 -1.5589 -0.4180  0.2064
  451MOL0     H59501   5.430  12.387   2.737  2.8299 -1.8515 -1.6584
  451MOL0     H59502   5.531  12.350   2.972 -1.6065  0.6233  1.5126
  451MOL0     H59503   5.452  12.189   2.973 -2.3009 -0.1532  1.3849
  451MOL0     H59504   5.300  12.461   2.964 -3.2933 -1.1248 -1.1873
  451MOL0     H59505   5.239  12.304   2.971  0.1136  1.0356 -2.2257
  451MOL0     H59506   5.280  12.436   3.208 -0.0382 -0.1029 -0.2772
  451MOL0     H59507   5.438  12.415   3.181 -0.7468  0.6536 -0.0370
  451MOL0     H59508   5.376  12.219   3.312 -0.7193  2.8253  0.5926
  451MOL0     H59509   5.346  12.139   3.158  1.3624 -1.8023  2.4828
  451MOL0     H59510   5.134  12.290   3.324  1.3287 -0.4848  0.7597
  451MOL0     H59511   5.126  12.212   3.159  3.0675  1.5760 -0.7893
  451MOL0     H59512   5.194  12.002   3.269 -1.6165  2.7055 -3.0038
  451MOL0     H59513   5.041  12.068   3.327 -1.2705  0.6840  0.8064
  451MOL0     H59514   5.812  12.174   2.626 -1.3826 -0.4017 -1.4765
  451MOL0     H59515   6.009  12.031   2.574 -1.5601 -0.0594 -3.0676
  451MOL0     H59516   6.246  11.448   2.780  0.1011 -0.8738 -0.7511
  451MOL0     H59517   6.447  11.378   2.698  1.8686  2.3497  1.8968
  451MOL0     H59518   8.115  11.263   3.158 -0.0603  0.9145  0.3185
  451MOL0     H59519   8.336  11.198   3.113 -2.9862 -3.5399 -0.8914
  451MOL0     H59520   8.667  10.879   3.307 -1.2302  0.9147  3.0023
  451MOL0     H59521   8.892  10.788   3.280  0.8688 -0.7976  1.0345
  451MOL0     H59522   9.265  11.055   3.417  0.1132 -2.2445  0.6255
  451MOL0     H59523   9.210  11.108   3.258 -1.9029 -0.8294 -1.4795
  451MOL0     H59524   9.448  10.998   3.283  0.5933 -2.5356 -0.1588
  451MOL0     H59525   9.365  10.857   3.306 -0.0945  0.8695  2.8626
  451MOL0     H59526   9.305  11.008   3.054  0.8390 -0.5056 -0.7337
  451MOL0     H59527   9.253  10.846   3.111 -1.8906  1.4581  4.3614
  451MOL0     H59528   9.513  10.797   3.088  1.0942 -2.0682 -1.8833
  451MOL0     H59529   9.417  10.800   2.946 -0.7695  1.0198  0.9764
  451MOL0     H59530   9.714  11.095   2.891  1.6442 -1.1085  0.8088
  451MOL0     H59531   9.051  11.193   3.379 -2.5780  2.1890  2.3929
  451MOL0     H59532   8.829  11.274   3.365  0.1903 -0.8018  0.6200
  452MOL0     O59533   0.326   0.123   4.167 -0.2052 -1.3667  0.0352
  452MOL0     C59534   0.395   0.020   4.143  0.1750  0.1621  0.6568
  452MOL0     O59535   0.354  -0.112   4.140 -0.4374  0.6396 -0.1971
  452MOL0     C59536   0.236  -0.124   4.204 -1.0668  0.3883  0.6177
  452MOL0     C59537   0.134  -0.182   4.144  0.8266 -0.6108  0.5201
  452MOL0     C59538   0.017  -0.218   4.212  0.0072 -0.6037  0.0940
  452MOL0     C59539   0.010  -0.193   4.352  0.0388 -0.1200  0.6357
  452MOL0     O59540  -0.103  -0.228   4.420 -0.3436 -0.4092  0.0693
  452MOL0     C59541  -0.099  -0.292   4.548 -0.6590  0.1214 -0.8983
  452MOL0     C59542  -0.199  -0.402   4.547  0.2684 -0.2853  0.8978
  452MOL0     C59543  -0.236  -0.450   4.687  0.3937  0.3071  0.4234
  452MOL0     C59544  -0.315  -0.582   4.692  0.3789 -0.3119  0.7491
  452MOL0     C59545  -0.333  -0.642   4.834  0.1694  0.1735  1.0975
  452MOL0     C59546  -0.415  -0.541   4.927  0.6470  0.2029 -0.8867
  452MOL0     C59547  -0.450  -0.604   5.065  0.1447  0.2837 -0.1934
  452MOL0     C59548  -0.340  -0.659   5.139 -0.7359  0.9841 -0.1911
  452MOL0     N59549  -0.379  -0.716   5.268  0.1615  0.2288 -0.2369
  452MOL0     C59550  -0.486  -0.689   5.345  0.1657 -0.0166  0.1383
  452MOL0     C59551  -0.485  -0.780   5.443  0.8342 -0.2390 -0.0898
  452MOL0     C59552  -0.579  -0.785   5.563 -0.1761 -0.1171 -0.3664
  452MOL0     C59553  -0.496  -0.773   5.687 -0.4773 -0.1584  0.5068
  452MOL0     C59554  -0.585  -0.759   5.814 -0.1675  0.2995  0.1518
  452MOL0     C59555  -0.680  -0.872   5.820 -0.0777 -1.0999  0.0859
  452MOL0     O59556  -0.741  -0.857   5.948 -0.8463  0.1581 -0.1919
  452MOL0     C59557  -0.863  -0.905   5.970 -0.8266  0.4230  0.0345
  452MOL0     C59558  -0.929  -0.992   5.879 -0.3498  0.1438 -0.4363
  452MOL0     C59559  -1.069  -1.022   5.915 -0.2381 -0.2952 -0.5402
  452MOL0     C59560  -1.129  -0.982   6.040  0.8349  0.2648  0.5086
  452MOL0     C59561  -1.269  -1.025   6.061 -0.0581 -0.2439  0.4892
  452MOL0     O59562  -1.330  -0.985   6.178 -0.0370  0.3546 -0.7566
  452MOL0     C59563  -1.456  -1.035   6.200  0.2482  0.1827  0.1831
  452MOL0     C59564  -1.507  -1.160   6.166  0.7851  0.4493  0.5015
  452MOL0     C59565  -1.643  -1.185   6.189  0.5588  0.2271  0.7142
  452MOL0     C59566  -1.729  -1.086   6.234  0.0765  0.2388  0.4429
  452MOL0     O59567  -1.861  -1.110   6.251  0.0934 -0.1806 -0.7431
  452MOL0     C59568  -1.907  -1.250   6.272 -0.0314 -0.8992 -0.1059
  452MOL0     C59569  -2.064  -1.261   6.262 -0.8481 -0.3011 -0.3183
  452MOL0     C59570  -2.087  -1.411   6.276 -0.5353  0.3244  0.1198
  452MOL0     C59571  -2.236  -1.450   6.274 -0.0574 -0.4861  0.2958
  452MOL0     C59572  -2.254  -1.607   6.271  0.2046 -0.1239  0.5195
  452MOL0     C59573  -2.404  -1.637   6.279  0.1579 -0.0800  0.8241
  452MOL0     C59574  -2.419  -1.787   6.283  0.2923 -0.5621 -0.6221
  452MOL0     C59575  -2.568  -1.818   6.280  0.4488 -0.2612 -0.4829
  452MOL0    Cl59576  -2.639  -1.740   6.423  0.0075 -0.1128  0.2684
  452MOL0     C59577  -1.677  -0.961   6.267  0.5206 -0.0605  0.1173
  452MOL0     C59578  -1.540  -0.940   6.246 -0.0737 -0.7703 -1.0797
  452MOL0     O59579  -1.325  -1.083   5.975  0.2772 -0.3393  0.4650
  452MOL0     C59580  -1.057  -0.896   6.121  0.7474 -0.5480 -0.3304
  452MOL0     C59581  -0.930  -0.854   6.081 -0.3864 -0.4131 -0.1974
  452MOL0     N59582  -0.374  -0.855   5.433 -0.1989  0.0587 -0.9261
  452MOL0     N59583  -0.318  -0.826   5.327 -0.2008  0.0473 -0.3251
  452MOL0     C59584   0.112  -0.138   4.422 -0.0185 -0.6371  0.1367
  452MOL0     C59585   0.222  -0.095   4.346  0.6489  0.4740 -0.5338
  452MOL0     C59586   0.537   0.030   4.149  0.2166  0.1885 -0.5529
  452MOL0     C59587   0.598   0.151   4.139 -0.6125  0.1549  0.3830
  452MOL0     C59588   0.732   0.177   4.172 -0.0131  0.2103  0.1808
  452MOL0     C59589   0.814   0.063   4.203  0.1855 -0.4495  0.3016
  452MOL0     O59590   0.950   0.094   4.206 -0.0740  0.3444 -0.3291
  452MOL0     C59591   1.051   0.001   4.243  0.9802 -0.2965  0.1905
  452MOL0     C59592   1.186   0.044   4.205  0.6787 -0.4898 -0.6086
  452MOL0     C59593   1.221   0.170   4.279 -0.4807  0.6091 -0.0295
  452MOL0     C59594   1.369   0.219   4.255 -0.5640  0.1982  1.0328
  452MOL0     C59595   1.469   0.137   4.326  0.2832 -0.7665  0.4994
  452MOL0     C59596   1.562   0.079   4.374  0.2338  0.7649 -0.1726
  452MOL0     C59597   0.756  -0.067   4.214 -0.1326 -0.4968 -0.1293
  452MOL0     C59598   0.622  -0.084   4.184  0.0718  0.1664 -0.2557
  452MOL0     H59599   0.141  -0.196   4.036  0.9051 -0.0486  0.4507
  452MOL0     H59600  -0.075  -0.258   4.170 -3.3131  3.2783  2.8151
  452MOL0     H59601  -0.119  -0.228   4.635  0.4663 -3.1259  1.9744
  452MOL0     H59602   0.003  -0.327   4.566 -0.5184  0.7032 -0.5476
  452MOL0     H59603  -0.168  -0.487   4.486  1.2853  1.3524 -0.9905
  452MOL0     H59604  -0.289  -0.365   4.496  1.0667  2.9780  1.6268
  452MOL0     H59605  -0.305  -0.375   4.727  0.4062  0.4039  0.2641
  452MOL0     H59606  -0.145  -0.466   4.745  1.9736 -0.1040 -2.0264
  452MOL0     H59607  -0.417  -0.564   4.655  1.1978  0.3974 -1.2734
  452MOL0     H59608  -0.271  -0.654   4.623 -1.8788  2.0691 -3.5909
  452MOL0     H59609  -0.230  -0.647   4.869  1.9482  0.4284 -3.3600
  452MOL0     H59610  -0.384  -0.738   4.822  0.3009  0.1027  1.0950
  452MOL0     H59611  -0.503  -0.497   4.879 -0.1209  3.3868  2.9511
  452MOL0     H59612  -0.352  -0.454   4.949 -1.2539  1.2737  0.5686
  452MOL0     H59613  -0.503  -0.530   5.124 -0.4671  1.3884 -2.0401
  452MOL0     H59614  -0.520  -0.688   5.056  1.9747 -1.7876  2.8267
  452MOL0     H59615  -0.271  -0.576   5.156  0.9909 -0.5018  0.3772
  452MOL0     H59616  -0.278  -0.725   5.077  2.5481  1.8536  1.8742
  452MOL0     H59617  -0.555  -0.607   5.330  0.9610  0.3009 -2.1269
  452MOL0     H59618  -0.641  -0.875   5.562 -0.3951  0.0151  0.6359
  452MOL0     H59619  -0.643  -0.696   5.568 -1.6706 -1.2039  0.8374
  452MOL0     H59620  -0.431  -0.687   5.671 -0.2585  0.0124  2.1901
  452MOL0     H59621  -0.431  -0.860   5.686 -0.0065  0.1865  0.7142
  452MOL0     H59622  -0.529  -0.758   5.908  2.6615  1.6150 -1.4472
  452MOL0     H59623  -0.631  -0.661   5.800 -0.2962  0.2561  0.2713
  452MOL0     H59624  -0.624  -0.966   5.814 -0.7614 -1.5632  0.8720
  452MOL0     H59625  -0.757  -0.863   5.743 -0.8343  0.4404  0.9722
  452MOL0     H59626  -0.889  -1.023   5.783 -0.3428 -0.6701 -0.1847
  452MOL0     H59627  -1.129  -1.088   5.854 -0.7644 -0.7300  0.4165
  452MOL0     H59628  -1.433  -1.231   6.132  0.2287  0.9419 -1.9055
  452MOL0     H59629  -1.681  -1.286   6.178 -1.1701  0.9500 -0.3315
  452MOL0     H59630  -1.865  -1.289   6.365  2.3730 -0.1243 -0.7856
  452MOL0     H59631  -1.882  -1.314   6.187  1.2500  0.4706 -0.8130
  452MOL0     H59632  -2.107  -1.208   6.176 -0.9187  0.4660  0.1840
  452MOL0     H59633  -2.104  -1.207   6.348 -0.0425 -0.7998  0.3836
  452MOL0     H59634  -2.050  -1.456   6.368 -1.1304 -0.1339  0.1380
  452MOL0     H59635  -2.031  -1.454   6.193 -2.0679 -2.0825  0.2258
  452MOL0     H59636  -2.282  -1.412   6.366  0.9527 -0.3193  0.7412
  452MOL0     H59637  -2.298  -1.409   6.193  1.7835  1.6844 -0.1236
  452MOL0     H59638  -2.205  -1.649   6.359 -0.6026  0.4659  1.2702
  452MOL0     H59639  -2.212  -1.639   6.174 -0.5090 -0.2634  0.2545
  452MOL0     H59640  -2.451  -1.590   6.193  3.0258  1.7176  0.1049
  452MOL0     H59641  -2.445  -1.590   6.369 -0.6213  0.0094  0.4270
  452MOL0     H59642  -2.368  -1.834   6.198  1.5839 -1.6125  0.6741
  452MOL0     H59643  -2.387  -1.819   6.383  0.2187  0.0686 -0.3931
  452MOL0     H59644  -2.588  -1.926   6.285 -1.2087 -0.1099 -2.5679
  452MOL0     H59645  -2.610  -1.773   6.190 -3.0944 -1.7050  0.2892
  452MOL0     H59646  -1.732  -0.875   6.303 -3.2057 -0.9337 -2.7917
  452MOL0     H59647  -1.500  -0.846   6.282 -0.1967 -0.7271 -1.0527
  452MOL0     H59648  -1.116  -0.862   6.206 -3.5364 -2.6086 -2.1361
  452MOL0     H59649  -0.878  -0.790   6.152 -1.1364  0.4238 -0.3901
  452MOL0     H59650   0.097  -0.123   4.528  2.1129 -0.3964  0.4452
  452MOL0     H59651   0.306  -0.054   4.401 -0.3585  4.3839 -1.5421
  452MOL0     H59652   0.544   0.246   4.137  3.0515  2.5691  3.1776
  452MOL0     H59653   0.775   0.276   4.164 -0.2044  0.3038  0.3160
  452MOL0     H59654   1.035  -0.098   4.198  1.9495 -0.5236  0.3053
  452MOL0     H59655   1.045  -0.012   4.351  2.4182 -0.3203  0.2896
  452MOL0     H59656   1.255  -0.038   4.228 -1.1889 -1.7323  0.9278
  452MOL0     H59657   1.196   0.063   4.098  0.9774  0.9138 -0.3457
  452MOL0     H59658   1.212   0.161   4.388 -0.5815  3.2525  0.2561
  452MOL0     H59659   1.158   0.255   4.250 -0.2350 -0.0414 -2.6464
  452MOL0     H59660   1.395   0.214   4.149 -0.3243 -2.3474  1.1537
  452MOL0     H59661   1.383   0.321   4.290  1.4902  0.2639  0.1387
  452MOL0     H59662   1.645   0.018   4.404 -0.3389 -0.1288 -0.3465
  452MOL0     H59663   0.810  -0.156   4.244  1.6282  0.4696 -0.2763
  452MOL0     H59664   0.577  -0.183   4.190  0.6016 -0.0021  2.4793
  453MOL0     O59665  10.730   8.493   7.717  0.0056  0.3443 -0.0574
  453MOL0     C59666  10.668   8.458   7.617 -0.2390  0.5145  0.2832
  453MOL0     O59667  10.715   8.405   7.513  0.8176 -0.0460 -0.2414
  453MOL0     C59668  10.851   8.403   7.494  0.1658 -0.4825 -0.2968
  453MOL0     C59669  10.949   8.482   7.558  0.6767 -0.6631  0.2479
  453MOL0     C59670  11.091   8.473   7.520  0.7536  0.1828 -0.0374
  453MOL0     C59671  11.132   8.366   7.436  0.1439 -0.3414 -1.0326
  453MOL0     O59672  11.266   8.362   7.395 -0.4666 -0.1699 -0.7128
  453MOL0     C59673  11.367   8.421   7.479 -0.2764  0.3658  0.6200
  453MOL0     C59674  11.500   8.383   7.422 -0.3300  0.4204  0.0191
  453MOL0     C59675  11.529   8.225   7.414 -0.5721  0.2294 -0.4880
  453MOL0     C59676  11.679   8.201   7.417  0.2130  0.0066  0.0968
  453MOL0     C59677  11.708   8.058   7.404  0.0580 -0.2128 -0.4869
  453MOL0     C59678  11.849   8.022   7.428 -0.6250 -0.4739 -0.2396
  453MOL0     C59679  11.915   8.075   7.562 -0.4201  0.1129 -0.0667
  453MOL0     C59680  12.025   7.980   7.617  0.2225  0.3741  0.4167
  453MOL0     N59681  12.134   7.959   7.515 -0.0845 -0.6277 -0.2407
  453MOL0     C59682  12.224   8.058   7.476 -0.2911  1.2793  0.2541
  453MOL0     C59683  12.304   7.985   7.387  0.6867 -1.0660  0.0380
  453MOL0     C59684  12.415   8.056   7.299 -0.4478  0.1327 -0.3729
  453MOL0     C59685  12.556   7.981   7.303  0.3274 -1.2658  0.6712
  453MOL0     C59686  12.602   7.962   7.450 -0.9937 -0.4933  0.9683
  453MOL0     C59687  12.734   7.880   7.461 -0.0069  1.0077 -0.5942
  453MOL0     O59688  12.849   7.964   7.434 -0.9046  0.5796 -0.1944
  453MOL0     C59689  12.971   7.926   7.488  0.0972  0.1444 -0.0953
  453MOL0     C59690  13.077   8.006   7.456  0.2365 -0.4294  0.8058
  453MOL0     C59691  13.207   7.984   7.510  0.2702 -0.5318 -1.0416
  453MOL0     C59692  13.225   7.866   7.587  0.5214  0.2278 -0.6523
  453MOL0     C59693  13.360   7.827   7.637  0.2392 -1.2066  0.0758
  453MOL0     O59694  13.455   7.916   7.604  0.1506 -0.3938 -0.5506
  453MOL0     C59695  13.587   7.892   7.624  0.0297  0.0360  0.7587
  453MOL0     C59696  13.642   7.764   7.616  0.3167  0.1265 -0.3476
  453MOL0     C59697  13.779   7.746   7.600  0.5368  0.1381 -0.4009
  453MOL0     C59698  13.857   7.856   7.604  0.0427 -0.7906 -0.0336
  453MOL0     O59699  13.990   7.849   7.593 -0.6034  0.0040 -0.5849
  453MOL0     C59700  14.059   7.720   7.592 -0.1956 -0.8528  0.4486
  453MOL0     C59701  14.208   7.714   7.567 -0.4433  0.1351  0.9274
  453MOL0     C59702  14.292   7.736   7.696  0.2223  0.6708  0.5368
  453MOL0     C59703  14.438   7.738   7.658 -0.0813 -0.4045 -0.3206
  453MOL0     C59704  14.507   7.604   7.617 -0.2332 -1.2938  0.0578
  453MOL0     C59705  14.657   7.621   7.612  0.2494  1.3663 -0.5018
  453MOL0     C59706  14.724   7.479   7.583  0.4107  0.2230  0.0475
  453MOL0     C59707  14.876   7.505   7.590 -0.0363  0.8025 -0.5080
  453MOL0    Cl59708  14.943   7.621   7.480 -0.2049  0.3118  0.1922
  453MOL0     C59709  13.807   7.992   7.620 -0.3313  0.5998  0.9367
  453MOL0     C59710  13.670   8.002   7.631 -0.0431  0.5408 -0.1851
  453MOL0     O59711  13.374   7.721   7.695  0.2129  0.3054  0.6498
  453MOL0     C59712  13.119   7.780   7.613  0.6841 -0.2561 -0.7691
  453MOL0     C59713  12.998   7.812   7.566 -0.3928  0.3052 -0.2904
  453MOL0     N59714  12.265   7.860   7.375 -0.1809  0.8205  0.1226
  453MOL0     N59715  12.166   7.841   7.451  0.0874  0.0259 -0.7186
  453MOL0     C59716  11.033   8.287   7.385 -0.9109  0.3744 -0.7175
  453MOL0     C59717  10.894   8.307   7.409 -0.8230  0.3381 -0.8878
  453MOL0     C59718  10.523   8.478   7.637 -0.8508  0.3803  0.7287
  453MOL0     C59719  10.437   8.501   7.532 -0.0340 -0.1630 -0.3985
  453MOL0     C59720  10.294   8.522   7.545  0.0205  0.5311  0.2592
  453MOL0     C59721  10.238   8.510   7.671 -0.5371  0.6452 -0.0833
  453MOL0     O59722  10.101   8.512   7.676 -1.0766 -0.1204  0.9472
  453MOL0     C59723  10.038   8.469   7.797  0.1182 -0.2212  0.5968
  453MOL0     C59724   9.900   8.432   7.758 -0.4137 -0.0527  0.1267
  453MOL0     C59725   9.901   8.292   7.705 -0.1553  0.5212 -0.4870
  453MOL0     C59726   9.770   8.247   7.643  0.5053  0.0342 -1.1474
  453MOL0     C59727   9.660   8.256   7.737 -0.0575  0.3153  0.8137
  453MOL0     C59728   9.583   8.283   7.826 -0.5832 -0.5348  0.4923
  453MOL0     C59729  10.329   8.488   7.781  0.5143 -0.4799  0.1887
  453MOL0     C59730  10.471   8.474   7.762  0.4175 -0.3726 -0.3059
  453MOL0     H59731  10.932   8.571   7.618 -2.4408 -0.5101 -0.6642
  453MOL0     H59732  11.169   8.540   7.553  1.6954  0.0108 -1.7998
  453MOL0     H59733  11.358   8.388   7.583 -0.9065 -0.5748  0.2805
  453MOL0     H59734  11.354   8.530   7.479 -0.4526  0.3595  1.8879
  453MOL0     H59735  11.581   8.430   7.477 -0.3973  1.6751 -0.9143
  453MOL0     H59736  11.502   8.419   7.318 -0.9554  1.7393  0.4399
  453MOL0     H59737  11.483   8.176   7.328  0.1354 -1.4513  0.0421
  453MOL0     H59738  11.487   8.180   7.505  2.2467  2.7725  2.3551
  453MOL0     H59739  11.736   8.254   7.340  0.2859 -0.9947 -0.5451
  453MOL0     H59740  11.723   8.235   7.511  1.8710 -1.9364  0.0837
  453MOL0     H59741  11.686   8.017   7.305 -1.0604 -2.5552  0.6595
  453MOL0     H59742  11.648   8.005   7.478  0.7083  1.4043  1.2767
  453MOL0     H59743  11.915   8.067   7.353 -1.0797  0.3181 -0.1762
  453MOL0     H59744  11.852   7.914   7.415 -1.3488 -0.4147 -0.9776
  453MOL0     H59745  11.941   8.181   7.554 -0.1666  0.4255  3.2875
  453MOL0     H59746  11.834   8.094   7.633 -0.2472 -1.8671  0.7116
  453MOL0     H59747  11.984   7.881   7.640  1.4802  0.2395  2.3185
  453MOL0     H59748  12.071   8.016   7.710  0.0829  0.4260  0.4660
  453MOL0     H59749  12.231   8.162   7.508 -0.8562  0.3760  3.7321
  453MOL0     H59750  12.429   8.155   7.343 -1.0190 -0.3309  0.9186
  453MOL0     H59751  12.369   8.065   7.200 -1.0477 -1.7033 -0.3031
  453MOL0     H59752  12.625   8.038   7.240 -2.9898  2.6381  0.1863
  453MOL0     H59753  12.533   7.890   7.247  0.6604  0.2703 -2.1858
  453MOL0     H59754  12.618   8.064   7.486 -1.0678 -0.1863  0.1623
  453MOL0     H59755  12.530   7.903   7.507 -2.3434  0.1095 -0.0468
  453MOL0     H59756  12.724   7.796   7.392 -0.3863 -0.2911  0.9871
  453MOL0     H59757  12.737   7.835   7.560 -2.6812 -0.4300 -1.0774
  453MOL0     H59758  13.052   8.073   7.374  0.2592 -3.4188 -1.8474
  453MOL0     H59759  13.289   8.051   7.485 -1.6893  0.6913 -5.0168
  453MOL0     H59760  13.583   7.674   7.604  1.8194 -0.9222 -0.2232
  453MOL0     H59761  13.813   7.643   7.595  0.9982  0.3144 -0.8751
  453MOL0     H59762  14.009   7.683   7.502 -0.4702  0.7303 -0.0662
  453MOL0     H59763  14.034   7.649   7.672  0.1723  0.5935  1.8877
  453MOL0     H59764  14.244   7.785   7.494  0.1299  0.8257  1.8618
  453MOL0     H59765  14.239   7.620   7.520  2.2326  1.3724  0.0767
  453MOL0     H59766  14.270   7.675   7.784  1.7605  2.0574  1.9446
  453MOL0     H59767  14.272   7.838   7.728  2.4371  2.0623 -2.0672
  453MOL0     H59768  14.443   7.809   7.575 -2.2222  1.1460  0.7969
  453MOL0     H59769  14.493   7.779   7.743 -2.5829  3.8530 -0.4758
  453MOL0     H59770  14.474   7.579   7.516 -1.1150  3.7860 -1.1537
  453MOL0     H59771  14.475   7.527   7.689 -2.3937 -0.2455  0.3072
  453MOL0     H59772  14.685   7.664   7.708 -1.5982 -0.8171  1.1216
  453MOL0     H59773  14.682   7.683   7.525 -0.5941  0.2144 -1.6037
  453MOL0     H59774  14.693   7.407   7.659 -1.8261  1.1200  0.0490
  453MOL0     H59775  14.701   7.429   7.489  0.5224 -2.6209  1.4292
  453MOL0     H59776  14.915   7.408   7.560 -1.6342 -0.1435  0.2746
  453MOL0     H59777  14.899   7.530   7.694 -0.0460  0.3987 -0.4078
  453MOL0     H59778  13.877   8.075   7.618  1.9865 -1.2276  1.4501
  453MOL0     H59779  13.622   8.099   7.621 -0.0410  0.9554  3.0200
  453MOL0     H59780  13.142   7.695   7.677  1.1673  0.9341  0.6954
  453MOL0     H59781  12.916   7.752   7.604 -1.2523  1.4399 -0.2927
  453MOL0     H59782  11.084   8.208   7.330  3.2677  2.4013 -0.1689
  453MOL0     H59783  10.814   8.240   7.380 -0.6522 -1.8614  2.9772
  453MOL0     H59784  10.478   8.516   7.432  0.5779  0.8561 -0.0122
  453MOL0     H59785  10.241   8.522   7.449  0.5044 -0.3759 -0.0204
  453MOL0     H59786  10.035   8.551   7.870 -2.0016  2.3797 -2.1991
  453MOL0     H59787  10.088   8.376   7.825  2.5410  0.2357 -1.7724
  453MOL0     H59788   9.831   8.444   7.843 -0.9583 -1.3825 -0.0959
  453MOL0     H59789   9.860   8.504   7.686 -0.1109  0.9574  0.9427
  453MOL0     H59790   9.924   8.226   7.789 -2.6487  1.3469  0.9478
  453MOL0     H59791   9.981   8.274   7.632  0.8481 -0.0529  0.7067
  453MOL0     H59792   9.750   8.302   7.551  2.3629  0.5852 -1.2605
  453MOL0     H59793   9.789   8.144   7.612  1.5202 -0.0260 -0.3417
  453MOL0     H59794   9.519   8.304   7.909 -2.0748  0.6277 -0.8849
  453MOL0     H59795  10.282   8.476   7.879 -1.4623 -1.8211 -0.8596
  453MOL0     H59796  10.527   8.448   7.851  0.9324 -1.1883 -0.8574
  454MOL0     O59797   1.235   6.058   7.197 -0.1042  1.2555 -0.5972
  454MOL0     C59798   1.271   6.158   7.137  0.9072 -0.6468 -0.6074
  454MOL0     O59799   1.187   6.256   7.092  0.3496 -0.1956 -0.5930
  454MOL0     C59800   1.051   6.272   7.119 -0.1777 -0.7915 -0.4963
  454MOL0     C59801   1.003   6.402   7.117  0.7905  0.0955 -0.5720
  454MOL0     C59802   0.866   6.434   7.135 -0.0209  0.5587 -0.6531
  454MOL0     C59803   0.776   6.325   7.167 -0.6654  0.3008  0.0701
  454MOL0     O59804   0.638   6.340   7.187 -0.7488 -0.2788 -0.0199
  454MOL0     C59805   0.602   6.468   7.220  0.8941 -0.1419 -0.6264
  454MOL0     C59806   0.458   6.477   7.288 -0.0039 -0.1828  0.5117
  454MOL0     C59807   0.333   6.437   7.196  0.2586 -0.3294  0.0885
  454MOL0     C59808   0.201   6.413   7.269 -0.1700 -0.0473  0.1858
  454MOL0     C59809   0.086   6.456   7.164  0.6570 -0.1506  0.0166
  454MOL0     C59810   0.055   6.342   7.073 -0.1697 -0.2517 -0.3421
  454MOL0     C59811  -0.061   6.366   6.988 -0.3860  0.2131 -0.5864
  454MOL0     C59812  -0.082   6.241   6.902 -1.0702  0.4949  0.1419
  454MOL0     N59813  -0.227   6.247   6.854  0.0959 -0.2825 -0.1034
  454MOL0     C59814  -0.277   6.328   6.757  0.0934  0.2998  0.1297
  454MOL0     C59815  -0.399   6.287   6.730  0.6182 -0.0964  0.8835
  454MOL0     C59816  -0.475   6.341   6.610 -0.7890 -0.5869  0.5636
  454MOL0     C59817  -0.513   6.487   6.632  0.3490 -0.2932 -0.1856
  454MOL0     C59818  -0.617   6.523   6.525  0.5493 -0.5199  0.2973
  454MOL0     C59819  -0.760   6.483   6.542 -0.3384  0.5393  0.9416
  454MOL0     O59820  -0.809   6.531   6.662 -0.4602 -0.1556  0.7231
  454MOL0     C59821  -0.941   6.554   6.684 -0.0716  0.2607 -0.1423
  454MOL0     C59822  -1.047   6.500   6.614 -0.8670  0.4174 -0.8432
  454MOL0     C59823  -1.174   6.532   6.646  0.5867  0.6498  0.4613
  454MOL0     C59824  -1.205   6.615   6.749  0.1093  0.6937  0.6677
  454MOL0     C59825  -1.341   6.649   6.777 -0.1383  0.6005 -0.4720
  454MOL0     O59826  -1.418   6.683   6.674 -0.5152  0.0183 -0.3968
  454MOL0     C59827  -1.547   6.719   6.686 -0.7275 -0.2726  0.2023
  454MOL0     C59828  -1.637   6.637   6.754  0.1091  0.4239 -2.0893
  454MOL0     C59829  -1.767   6.674   6.784 -0.6651  0.9321  0.2849
  454MOL0     C59830  -1.816   6.794   6.737 -0.2671 -0.0831 -0.1824
  454MOL0     O59831  -1.943   6.842   6.756 -0.0773  0.3087  0.2333
  454MOL0     C59832  -2.024   6.793   6.876 -0.1373  0.5406 -0.1557
  454MOL0     C59833  -2.145   6.881   6.900 -0.3359 -0.1908  0.8694
  454MOL0     C59834  -2.239   6.928   6.782 -0.4781  0.9187  0.0403
  454MOL0     C59835  -2.371   6.997   6.829 -0.3438  0.6955 -0.5873
  454MOL0     C59836  -2.428   7.084   6.712  0.7689 -0.4726 -0.0663
  454MOL0     C59837  -2.547   7.166   6.755  0.5650  0.1665 -0.0674
  454MOL0     C59838  -2.519   7.279   6.856 -0.6077  0.2428 -0.9238
  454MOL0     C59839  -2.647   7.371   6.872  1.1637  0.3683 -0.2519
  454MOL0    Cl59840  -2.797   7.283   6.927  0.1874 -0.3793 -0.0128
  454MOL0     C59841  -1.737   6.873   6.652 -0.9299 -0.8438  0.0787
  454MOL0     C59842  -1.598   6.833   6.627  0.5239 -0.1687 -0.4208
  454MOL0     O59843  -1.383   6.633   6.894 -0.0497 -0.2058 -0.4183
  454MOL0     C59844  -1.101   6.671   6.821 -0.1749 -0.0189  0.1142
  454MOL0     C59845  -0.972   6.634   6.792 -0.3888  0.1832  0.6078
  454MOL0     N59846  -0.434   6.185   6.815  0.3981 -0.3778 -0.1831
  454MOL0     N59847  -0.326   6.157   6.887 -0.1818 -0.2293 -1.0273
  454MOL0     C59848   0.832   6.197   7.196 -0.1761  0.2331 -0.4002
  454MOL0     C59849   0.964   6.173   7.160  0.2233  0.0180 -0.9880
  454MOL0     C59850   1.416   6.172   7.113  0.1314  0.2519 -1.2921
  454MOL0     C59851   1.478   6.280   7.055  0.1170 -0.6174 -0.1612
  454MOL0     C59852   1.615   6.283   7.064 -0.5213  0.5164  0.5443
  454MOL0     C59853   1.707   6.184   7.122  1.3980  0.7291 -0.2058
  454MOL0     O59854   1.841   6.195   7.115 -0.3035  0.1071 -0.2749
  454MOL0     C59855   1.910   6.070   7.122  0.9135  0.1375  0.2288
  454MOL0     C59856   2.056   6.099   7.096 -0.4511 -0.2989  0.2376
  454MOL0     C59857   2.162   5.987   7.096  0.3899  0.4849 -0.1629
  454MOL0     C59858   2.150   5.902   6.972 -0.4846 -0.2118 -0.1785
  454MOL0     C59859   2.282   5.839   6.953  0.1661 -0.2687  0.0973
  454MOL0     C59860   2.391   5.787   6.946  0.5432  0.6835  0.3249
  454MOL0     C59861   1.646   6.077   7.177  0.0197 -0.6894 -0.4190
  454MOL0     C59862   1.499   6.078   7.169 -0.3632 -0.4761 -0.3947
  454MOL0     H59863   1.071   6.482   7.090 -1.8790  3.2018  1.1847
  454MOL0     H59864   0.844   6.539   7.117 -0.6987  0.3481 -1.1117
  454MOL0     H59865   0.603   6.543   7.140  2.6262  0.4631 -0.0829
  454MOL0     H59866   0.666   6.512   7.297  1.5997  1.0977 -1.8712
  454MOL0     H59867   0.439   6.582   7.309 -1.1819  0.0214 -1.3220
  454MOL0     H59868   0.462   6.415   7.378 -0.8890  0.3241  0.9119
  454MOL0     H59869   0.352   6.341   7.146 -0.1423 -0.8613  0.9457
  454MOL0     H59870   0.331   6.509   7.113  1.9997  1.4071  1.4586
  454MOL0     H59871   0.196   6.307   7.296  1.8931 -0.7888 -2.0433
  454MOL0     H59872   0.186   6.481   7.354 -0.4210 -0.5832  0.5762
  454MOL0     H59873   0.106   6.548   7.107  0.1565  0.3488  0.6347
  454MOL0     H59874   0.000   6.483   7.226  0.0002  1.0203 -1.3250
  454MOL0     H59875   0.040   6.251   7.131  1.4371  1.3611  2.8297
  454MOL0     H59876   0.142   6.323   7.009  0.3358 -0.9684  0.5360
  454MOL0     H59877  -0.144   6.376   7.059 -1.3724 -0.0602 -1.6718
  454MOL0     H59878  -0.060   6.456   6.925 -2.8431  0.3349 -0.5692
  454MOL0     H59879  -0.070   6.154   6.967 -0.9325  2.8815  3.5975
  454MOL0     H59880  -0.001   6.241   6.830  0.1183  0.9045  1.4349
  454MOL0     H59881  -0.215   6.405   6.712  0.5065  0.9398  1.7227
  454MOL0     H59882  -0.562   6.275   6.597 -2.3375  1.2282  1.1928
  454MOL0     H59883  -0.407   6.334   6.525 -0.8597 -0.4008  0.4925
  454MOL0     H59884  -0.429   6.556   6.618  1.2969 -1.2724  0.5163
  454MOL0     H59885  -0.559   6.509   6.729 -0.6771  0.5397 -0.8320
  454MOL0     H59886  -0.631   6.630   6.511  0.7962 -0.3526  1.2691
  454MOL0     H59887  -0.578   6.492   6.428  1.1745  0.7806  0.1240
  454MOL0     H59888  -0.773   6.374   6.539  0.4057  0.4686 -1.0340
  454MOL0     H59889  -0.815   6.524   6.457  0.9065  0.6544  0.1632
  454MOL0     H59890  -1.021   6.442   6.526  1.4064  0.4286 -0.2502
  454MOL0     H59891  -1.260   6.501   6.588 -0.5141  1.6607  1.4931
  454MOL0     H59892  -1.589   6.549   6.796  1.1344  2.2071  0.7413
  454MOL0     H59893  -1.831   6.612   6.846 -0.3329  0.8063  0.5028
  454MOL0     H59894  -1.961   6.779   6.964 -0.7064  2.7928  0.6821
  454MOL0     H59895  -2.063   6.695   6.847  1.2836 -0.1016  0.0418
  454MOL0     H59896  -2.103   6.971   6.946  1.0141 -0.4110  0.1379
  454MOL0     H59897  -2.201   6.840   6.985 -1.4999 -1.0613 -0.2707
  454MOL0     H59898  -2.263   6.838   6.726 -1.2185  1.2704 -0.2243
  454MOL0     H59899  -2.178   6.993   6.719  2.5959  0.8841  2.6985
  454MOL0     H59900  -2.434   6.908   6.838 -1.7532  1.7098 -0.1019
  454MOL0     H59901  -2.359   7.054   6.921 -2.5325 -0.7169  0.6443
  454MOL0     H59902  -2.455   7.032   6.620  0.9465 -0.4033 -0.1582
  454MOL0     H59903  -2.360   7.167   6.691 -0.1839  0.5535  0.7304
  454MOL0     H59904  -2.622   7.097   6.794  3.8654 -2.5361  2.0443
  454MOL0     H59905  -2.588   7.211   6.664  1.1040 -0.5571 -0.6849
  454MOL0     H59906  -2.493   7.242   6.955  1.0613 -0.7206 -1.6825
  454MOL0     H59907  -2.438   7.341   6.815 -1.7968 -0.5645 -4.9293
  454MOL0     H59908  -2.673   7.414   6.775 -1.0383 -3.3811 -1.5288
  454MOL0     H59909  -2.621   7.459   6.931  0.8206  0.3771 -0.1125
  454MOL0     H59910  -1.774   6.966   6.609  2.9438  0.2457 -1.2835
  454MOL0     H59911  -1.525   6.893   6.575 -0.1148 -0.1242 -1.2884
  454MOL0     H59912  -1.129   6.737   6.902 -0.4557  0.7292 -0.5770
  454MOL0     H59913  -0.899   6.703   6.836 -0.6809  0.3991  0.7584
  454MOL0     H59914   0.763   6.121   7.230  0.6397 -0.5856 -0.5449
  454MOL0     H59915   1.001   6.071   7.154 -1.6987 -0.8110  0.1064
  454MOL0     H59916   1.424   6.363   7.010  1.9917  1.1124  0.6201
  454MOL0     H59917   1.666   6.365   7.014 -0.2313 -1.1638 -2.1050
  454MOL0     H59918   1.871   5.999   7.049 -1.8946  1.9697 -0.1913
  454MOL0     H59919   1.904   6.020   7.219 -0.2044  0.1765  0.1921
  454MOL0     H59920   2.049   6.162   7.007  1.9461 -1.2645 -0.6941
  454MOL0     H59921   2.090   6.168   7.174 -1.3521  0.3921  0.0457
  454MOL0     H59922   2.152   5.926   7.187 -0.9746  1.7860  0.5999
  454MOL0     H59923   2.262   6.031   7.098  0.7374 -0.2411 -0.9926
  454MOL0     H59924   2.068   5.830   6.982 -1.6519  1.1942  0.5819
  454MOL0     H59925   2.124   5.966   6.888 -3.4507  1.1368  1.6243
  454MOL0     H59926   2.480   5.727   6.947  0.1057  0.0188 -0.0076
  454MOL0     H59927   1.706   5.994   7.213  1.4398 -0.2045 -1.5820
  454MOL0     H59928   1.453   6.000   7.229 -2.4568  0.1192 -1.1506
  455MOL0     O59929   0.085   4.772   8.039 -0.3042  0.2269 -0.1516
  455MOL0     C59930   0.105   4.888   8.038 -0.0122 -0.3394 -0.1554
  455MOL0     O59931   0.013   4.978   8.046 -0.1461  0.3030 -0.0376
  455MOL0     C59932  -0.116   4.949   8.077  0.1267  0.6035 -0.0364
  455MOL0     C59933  -0.206   4.897   7.984 -0.1357  0.1850 -0.2390
  455MOL0     C59934  -0.336   4.882   8.019  0.1848 -0.2009 -0.9717
  455MOL0     C59935  -0.376   4.920   8.148  0.2559  0.0460 -0.7378
  455MOL0     O59936  -0.511   4.917   8.188  0.0124  0.0480  0.2912
  455MOL0     C59937  -0.586   4.997   8.086  0.1205  0.9513 -0.5173
  455MOL0     C59938  -0.716   5.054   8.152 -0.4228  0.1368 -0.4379
  455MOL0     C59939  -0.817   4.947   8.212 -0.2105 -0.0151 -0.0099
  455MOL0     C59940  -0.943   5.023   8.256 -1.1716  0.3094 -0.5865
  455MOL0     C59941  -1.038   4.941   8.348 -0.0018 -0.8023 -0.5025
  455MOL0     C59942  -1.079   4.816   8.286  0.0656  1.0616 -0.3669
  455MOL0     C59943  -1.152   4.837   8.152 -0.5965  0.1756  0.4899
  455MOL0     C59944  -1.184   4.705   8.088  1.0048 -0.1189  0.3376
  455MOL0     N59945  -1.271   4.622   8.174 -0.4589 -0.2774 -0.6781
  455MOL0     C59946  -1.238   4.495   8.220 -0.1269 -0.3184  0.6224
  455MOL0     C59947  -1.353   4.445   8.283 -0.0323 -0.7351  0.9427
  455MOL0     C59948  -1.373   4.310   8.329  0.4651 -0.2134  0.1323
  455MOL0     C59949  -1.519   4.257   8.292  0.0150 -0.2163 -0.4424
  455MOL0     C59950  -1.546   4.116   8.352 -0.7995 -0.2342 -0.0676
  455MOL0     C59951  -1.688   4.075   8.319  0.6438  0.4070  0.6702
  455MOL0     O59952  -1.721   3.964   8.400 -0.1393 -0.5292 -0.8691
  455MOL0     C59953  -1.829   3.883   8.373 -0.5317 -1.1744  0.9598
  455MOL0     C59954  -1.872   3.806   8.468  0.3442 -0.4849 -0.9664
  455MOL0     C59955  -1.984   3.719   8.452  1.0037 -0.0641 -0.4524
  455MOL0     C59956  -2.050   3.711   8.323 -1.0772 -0.0748  0.7422
  455MOL0     C59957  -2.171   3.628   8.293  0.4246  0.5731  0.1860
  455MOL0     O59958  -2.245   3.663   8.185  0.1419 -0.2491  0.6558
  455MOL0     C59959  -2.364   3.610   8.145  0.2018  0.1763 -0.0465
  455MOL0     C59960  -2.450   3.523   8.215 -0.4639  0.7311  0.5472
  455MOL0     C59961  -2.566   3.470   8.148  0.2769 -0.6761  0.0207
  455MOL0     C59962  -2.589   3.509   8.011  0.2091  0.0347  0.2581
  455MOL0     O59963  -2.686   3.468   7.928 -0.0628  0.7517 -0.4032
  455MOL0     C59964  -2.715   3.322   7.947  0.2642  0.8307  0.1668
  455MOL0     C59965  -2.836   3.266   7.863 -0.3524 -0.1922 -0.1273
  455MOL0     C59966  -2.972   3.330   7.904 -0.6332  0.3180  0.6984
  455MOL0     C59967  -3.078   3.270   7.813 -0.6504  0.2662  0.0643
  455MOL0     C59968  -3.218   3.314   7.863 -0.1213 -0.9701  0.4974
  455MOL0     C59969  -3.316   3.198   7.860  0.2943 -0.1696 -0.0906
  455MOL0     C59970  -3.456   3.243   7.852  0.9272  0.5444  0.3401
  455MOL0     C59971  -3.536   3.124   7.892  0.7464  0.5648  0.3517
  455MOL0    Cl59972  -3.717   3.140   7.874  0.1230  0.1972  0.1527
  455MOL0     C59973  -2.515   3.607   7.959 -0.1122 -0.4241  0.2159
  455MOL0     C59974  -2.402   3.650   8.024  0.4419  0.0654 -0.0968
  455MOL0     O59975  -2.178   3.521   8.363 -0.0687 -0.6049 -0.0946
  455MOL0     C59976  -1.999   3.787   8.222 -0.1148  0.4221 -0.6490
  455MOL0     C59977  -1.895   3.878   8.249  0.0746 -0.3630  0.0823
  455MOL0     N59978  -1.451   4.545   8.273 -0.9994  0.3123  0.2903
  455MOL0     N59979  -1.403   4.654   8.220 -0.2102  0.2452 -0.3385
  455MOL0     C59980  -0.287   4.969   8.242  0.1261 -0.1775 -0.1759
  455MOL0     C59981  -0.154   4.991   8.203  0.3078  0.1880  0.1400
  455MOL0     C59982   0.243   4.929   8.008 -0.1233  0.1348  0.4852
  455MOL0     C59983   0.345   4.840   7.990  0.2894  0.2278  0.5116
  455MOL0     C59984   0.474   4.889   8.007 -0.0198 -0.5693  0.3973
  455MOL0     C59985   0.513   5.027   8.034 -0.1336 -0.1294  0.0373
  455MOL0     O59986   0.645   5.065   8.035  0.1173 -0.0105 -0.5247
  455MOL0     C59987   0.679   5.124   7.911 -0.4818  0.1922 -0.0447
  455MOL0     C59988   0.820   5.101   7.881  0.3602 -0.5527  1.1261
  455MOL0     C59989   0.903   5.189   7.974  0.3227  0.4033  0.3793
  455MOL0     C59990   1.058   5.155   7.964 -0.8277 -0.1825  0.4740
  455MOL0     C59991   1.084   5.032   8.043  0.5191 -0.7134  0.2274
  455MOL0     C59992   1.112   4.940   8.115 -0.1249  0.3486  0.5432
  455MOL0     C59993   0.402   5.114   8.027  0.7025  0.6111 -0.1322
  455MOL0     C59994   0.274   5.068   8.017 -0.2444  0.4020 -0.3556
  455MOL0     H59995  -0.173   4.878   7.883  2.7963 -0.6863  0.7829
  455MOL0     H59996  -0.413   4.856   7.947 -1.7458  1.6691  0.2786
  455MOL0     H59997  -0.622   4.928   8.010 -0.6175  0.1612  0.5148
  455MOL0     H59998  -0.533   5.080   8.039 -2.1399  2.2542 -0.8643
  455MOL0     H59999  -0.773   5.106   8.075  1.7553  0.1492 -2.1547
  455MOL0     H60000  -0.689   5.130   8.227 -2.0334  0.7214 -0.4093
  455MOL0     H60001  -0.772   4.900   8.300  2.1464 -0.2863 -1.2752
  455MOL0     H60002  -0.841   4.864   8.145  1.0706 -3.3007  3.2334
  455MOL0     H60003  -0.902   5.112   8.304 -2.2705 -0.3518  1.7111
  455MOL0     H60004  -1.006   5.051   8.172 -1.2228 -2.6899 -1.6842
  455MOL0     H60005  -1.124   5.009   8.355  1.2026  0.7062  0.4254
  455MOL0     H60006  -0.999   4.936   8.450 -0.6430 -1.5017 -0.2868
  455MOL0     H60007  -1.154   4.775   8.354 -0.9881  1.6070 -1.1736
  455MOL0     H60008  -0.997   4.743   8.285  0.2819  1.2315 -3.1756
  455MOL0     H60009  -1.231   4.913   8.151 -1.0911 -0.2888  1.6226
  455MOL0     H60010  -1.081   4.875   8.078  0.6655  1.3533  2.2300
  455MOL0     H60011  -1.090   4.651   8.073  0.9757  0.4260 -2.1029
  455MOL0     H60012  -1.239   4.730   7.998  2.4289  1.3614 -0.1744
  455MOL0     H60013  -1.141   4.448   8.206  0.9032  2.2083 -1.5168
  455MOL0     H60014  -1.358   4.304   8.437 -3.0173 -1.1415  0.7143
  455MOL0     H60015  -1.304   4.243   8.276  0.8966 -1.9766  2.7370
  455MOL0     H60016  -1.548   4.265   8.187  0.2929  0.6967 -0.4626
  455MOL0     H60017  -1.590   4.309   8.357  0.5415 -1.1822  0.9636
  455MOL0     H60018  -1.479   4.036   8.320 -1.8458 -2.3197  2.5915
  455MOL0     H60019  -1.539   4.135   8.459  1.4532  0.1122 -0.2199
  455MOL0     H60020  -1.687   4.052   8.212  2.1645 -0.4220  0.8389
  455MOL0     H60021  -1.769   4.146   8.338 -0.9077 -1.7382  2.4780
  455MOL0     H60022  -1.813   3.814   8.558 -3.0181  0.4500  1.3688
  455MOL0     H60023  -2.029   3.649   8.521  2.0681  0.9985  1.3974
  455MOL0     H60024  -2.423   3.506   8.318  0.7189 -1.6954 -0.0999
  455MOL0     H60025  -2.619   3.391   8.201  1.2622  0.5034  2.9619
  455MOL0     H60026  -2.743   3.306   8.052 -0.4106  1.5544  0.1030
  455MOL0     H60027  -2.630   3.260   7.918 -0.3055 -0.0901  0.3976
  455MOL0     H60028  -2.831   3.157   7.867  1.1309 -0.1899 -1.2281
  455MOL0     H60029  -2.822   3.284   7.756  0.5161 -1.1553 -0.1932
  455MOL0     H60030  -2.960   3.437   7.883 -1.5733 -0.1419 -2.8098
  455MOL0     H60031  -3.003   3.303   8.005 -0.4276  0.2010  0.7304
  455MOL0     H60032  -3.063   3.292   7.707  0.0285  0.6579  0.2378
  455MOL0     H60033  -3.082   3.164   7.837 -0.1725  0.7747  2.6843
  455MOL0     H60034  -3.252   3.397   7.800 -1.6248  0.4085  2.9270
  455MOL0     H60035  -3.226   3.350   7.966 -2.4204 -1.5255  0.5623
  455MOL0     H60036  -3.300   3.133   7.946 -1.3125  0.4775  0.7410
  455MOL0     H60037  -3.295   3.138   7.771 -1.2439 -0.1375 -0.4984
  455MOL0     H60038  -3.472   3.323   7.925 -4.5498 -0.7582  0.9886
  455MOL0     H60039  -3.468   3.272   7.748  1.7586 -0.5761 -0.0945
  455MOL0     H60040  -3.515   3.102   7.997  0.7338  0.2188  0.2806
  455MOL0     H60041  -3.507   3.039   7.830  1.8688  0.6065  0.7863
  455MOL0     H60042  -2.531   3.668   7.871  0.6742 -0.0648  0.3150
  455MOL0     H60043  -2.337   3.722   7.975  1.3842 -0.7970 -0.1682
  455MOL0     H60044  -2.040   3.783   8.121 -2.6174  1.0505  0.2490
  455MOL0     H60045  -1.856   3.940   8.169  0.7867 -1.1920 -0.2246
  455MOL0     H60046  -0.321   5.001   8.340  0.8698 -2.0153  0.7353
  455MOL0     H60047  -0.081   5.033   8.271  1.3171  2.7835 -2.3717
  455MOL0     H60048   0.327   4.734   7.975  1.8410  0.1363 -1.1253
  455MOL0     H60049   0.554   4.816   7.999  0.0954 -0.2742 -1.5625
  455MOL0     H60050   0.658   5.231   7.910 -0.9089  0.1099  0.0038
  455MOL0     H60051   0.619   5.079   7.831  0.3703 -1.5493  0.2398
  455MOL0     H60052   0.832   4.993   7.891 -1.4289 -0.7991  0.9794
  455MOL0     H60053   0.846   5.127   7.777  3.6748  1.8962  2.3570
  455MOL0     H60054   0.868   5.175   8.076 -0.6826  0.6281  0.0675
  455MOL0     H60055   0.885   5.294   7.950  2.7108  1.2358  1.8825
  455MOL0     H60056   1.095   5.141   7.862 -1.0591  0.8133  0.2481
  455MOL0     H60057   1.110   5.244   7.999 -2.5510  0.9069  0.3687
  455MOL0     H60058   1.130   4.851   8.171  1.5830 -1.7090 -2.9170
  455MOL0     H60059   0.409   5.218   8.058 -1.8307  0.6098  0.6989
  455MOL0     H60060   0.194   5.141   8.033 -0.5572  0.1486 -0.7462
  456MOL0     O60061   4.876   6.507   1.058  1.3048 -0.1762 -0.1013
  456MOL0     C60062   4.837   6.622   1.060 -0.2826 -0.1146 -0.3173
  456MOL0     O60063   4.702   6.666   1.046  0.6349  0.0844  0.3251
  456MOL0     C60064   4.596   6.582   1.006 -1.8015 -0.9981 -0.3326
  456MOL0     C60065   4.574   6.554   0.871 -0.3171  0.2512 -0.5415
  456MOL0     C60066   4.467   6.480   0.818  0.6836  0.3048 -0.2168
  456MOL0     C60067   4.362   6.445   0.905  0.8422  0.9247 -0.2757
  456MOL0     O60068   4.244   6.378   0.872  0.0152 -0.4109  0.0762
  456MOL0     C60069   4.187   6.390   0.742  0.0931 -0.0542 -0.6269
  456MOL0     C60070   4.052   6.325   0.747  0.1383  1.3656  0.4119
  456MOL0     C60071   3.981   6.328   0.611 -0.0871  0.5331  0.1142
  456MOL0     C60072   3.842   6.269   0.610  0.6990 -0.0356  0.5858
  456MOL0     C60073   3.832   6.115   0.624 -0.2185  0.6825  0.4201
  456MOL0     C60074   3.784   6.041   0.498 -0.9421  0.0614 -0.3566
  456MOL0     C60075   3.634   6.056   0.465 -0.7789 -0.8874  0.4830
  456MOL0     C60076   3.588   5.962   0.355  0.1157  0.6662 -0.4118
  456MOL0     N60077   3.442   5.941   0.364  0.2130  0.3946  0.3988
  456MOL0     C60078   3.357   6.016   0.283  0.5554  0.4896 -0.4389
  456MOL0     C60079   3.248   5.945   0.291  0.9365 -0.0390  0.4212
  456MOL0     C60080   3.127   5.988   0.211 -0.5930 -0.3078 -0.2334
  456MOL0     C60081   3.040   6.082   0.292 -0.1569  0.2089 -0.5697
  456MOL0     C60082   2.920   6.142   0.222 -1.2749 -0.3999  0.3714
  456MOL0     C60083   2.798   6.065   0.236  0.1680 -0.0797  0.5448
  456MOL0     O60084   2.801   5.982   0.118 -0.4353 -0.5394  0.4712
  456MOL0     C60085   2.691   5.941   0.051  0.2006 -0.0698  0.3361
  456MOL0     C60086   2.714   5.915  -0.085 -0.3798 -0.3206 -0.0309
  456MOL0     C60087   2.611   5.852  -0.154  0.6163 -0.6170  0.2964
  456MOL0     C60088   2.490   5.815  -0.095  0.4204  0.4019 -0.5101
  456MOL0     C60089   2.374   5.771  -0.164 -0.6918  0.1790  0.5091
  456MOL0     O60090   2.253   5.798  -0.104  0.1661  0.4050  0.1369
  456MOL0     C60091   2.136   5.744  -0.159 -0.6853  0.0394  0.0204
  456MOL0     C60092   2.069   5.629  -0.103  0.0663 -0.2283 -0.1281
  456MOL0     C60093   1.941   5.598  -0.151  1.3441  0.4106  0.7725
  456MOL0     C60094   1.891   5.664  -0.264  0.4050 -1.1207 -0.2897
  456MOL0     O60095   1.758   5.625  -0.291 -0.8645  0.5526 -0.3330
  456MOL0     C60096   1.694   5.668  -0.420 -0.3316  1.0763  0.1727
  456MOL0     C60097   1.619   5.798  -0.418  1.0884  0.7993 -0.7406
  456MOL0     C60098   1.547   5.831  -0.556 -1.0341  0.2532  0.0974
  456MOL0     C60099   1.479   5.969  -0.547  0.5440  0.1152 -0.8305
  456MOL0     C60100   1.339   5.978  -0.626 -0.3397 -0.0998 -0.1221
  456MOL0     C60101   1.356   5.916  -0.765 -0.7521  0.0913 -0.4832
  456MOL0     C60102   1.455   5.987  -0.856  0.5828  1.0487 -0.2529
  456MOL0     C60103   1.413   6.121  -0.912  0.0930 -0.5477  0.5405
  456MOL0    Cl60104   1.545   6.198  -1.002 -0.0999 -0.3439  0.5361
  456MOL0     C60105   1.959   5.776  -0.319  0.7128 -0.1687  0.6165
  456MOL0     C60106   2.084   5.811  -0.270 -0.1844 -0.9235  0.1921
  456MOL0     O60107   2.391   5.722  -0.275  0.2469 -0.4702 -0.4946
  456MOL0     C60108   2.475   5.830   0.049 -0.6981 -0.1379 -0.2023
  456MOL0     C60109   2.578   5.898   0.117  0.3920 -0.5882  0.2401
  456MOL0     N60110   3.260   5.827   0.365  0.5911  0.4137 -0.2216
  456MOL0     N60111   3.379   5.828   0.407 -0.4947 -0.4067 -0.1212
  456MOL0     C60112   4.387   6.466   1.041  0.4125  0.1866 -0.2880
  456MOL0     C60113   4.498   6.538   1.092 -1.5616 -0.0446 -0.0306
  456MOL0     C60114   4.934   6.734   1.069  0.0309  0.5991  0.1237
  456MOL0     C60115   5.063   6.716   1.127  0.5816 -0.1532 -0.1741
  456MOL0     C60116   5.140   6.831   1.149 -0.1278 -0.2248  0.1338
  456MOL0     C60117   5.098   6.952   1.101  0.0490 -0.1222  0.0726
  456MOL0     O60118   5.175   7.066   1.107  0.3518 -0.0694  0.5116
  456MOL0     C60119   5.317   7.056   1.124  0.0754 -0.1284  0.0357
  456MOL0     C60120   5.377   6.983   0.997 -0.2350 -0.0296 -0.0751
  456MOL0     C60121   5.502   6.897   1.025 -0.0448 -0.4149 -1.5611
  456MOL0     C60122   5.630   6.977   1.048  0.1096 -0.2139 -0.0722
  456MOL0     C60123   5.635   7.043   1.184 -0.4601 -0.1906  0.3713
  456MOL0     C60124   5.630   7.099   1.293  0.3543 -0.3249  0.8353
  456MOL0     C60125   4.976   6.971   1.044  0.3472  1.1235 -0.2742
  456MOL0     C60126   4.887   6.870   1.039  0.1868  1.6501  0.2546
  456MOL0     H60127   4.648   6.585   0.798 -1.6922 -0.6676 -2.4009
  456MOL0     H60128   4.466   6.465   0.710  1.0906  3.0829 -0.6820
  456MOL0     H60129   4.245   6.342   0.663 -1.9481 -0.2661 -2.0781
  456MOL0     H60130   4.170   6.492   0.706  0.0798 -0.5666 -2.1308
  456MOL0     H60131   3.984   6.356   0.827 -0.8125  1.2060 -0.3134
  456MOL0     H60132   4.065   6.223   0.784  0.8437  1.2627 -0.1187
  456MOL0     H60133   4.040   6.278   0.533 -0.5604  2.2745 -1.4379
  456MOL0     H60134   3.965   6.431   0.577 -0.9983  0.2095 -0.4915
  456MOL0     H60135   3.773   6.319   0.678 -3.3212 -0.6143 -2.6738
  456MOL0     H60136   3.790   6.294   0.517 -1.9185 -2.6278  1.2104
  456MOL0     H60137   3.769   6.105   0.713  0.9101  1.3675  1.3178
  456MOL0     H60138   3.930   6.079   0.655 -0.9106 -0.9628  0.8550
  456MOL0     H60139   3.818   5.940   0.521 -0.6495  0.2852  0.2210
  456MOL0     H60140   3.848   6.063   0.413 -1.4167 -1.3751 -1.1127
  456MOL0     H60141   3.566   6.037   0.549 -1.6801  0.6721  0.1449
  456MOL0     H60142   3.624   6.160   0.431 -2.9869 -0.0302  3.3152
  456MOL0     H60143   3.624   5.859   0.364 -0.7616  0.5379  2.4157
  456MOL0     H60144   3.622   5.986   0.254  1.8257 -0.1232 -0.0611
  456MOL0     H60145   3.374   6.083   0.199 -1.2106 -0.6229 -1.7480
  456MOL0     H60146   3.063   5.913   0.164 -2.6097  0.9757  0.3186
  456MOL0     H60147   3.158   6.042   0.120 -1.2215  0.1048 -0.2096
  456MOL0     H60148   3.103   6.163   0.331  1.1476 -1.4083  0.8527
  456MOL0     H60149   3.017   6.020   0.379  1.0723 -1.4984 -1.4058
  456MOL0     H60150   2.905   6.238   0.272 -4.8682  0.6609 -2.3204
  456MOL0     H60151   2.954   6.159   0.119  3.3180  0.1645  1.7541
  456MOL0     H60152   2.707   6.125   0.236 -0.8289 -1.4338 -1.9487
  456MOL0     H60153   2.793   6.004   0.327 -1.4971 -0.7487  0.0444
  456MOL0     H60154   2.805   5.947  -0.136 -0.4232  0.4250  0.3481
  456MOL0     H60155   2.607   5.848  -0.263  1.3004 -1.0655  0.2818
  456MOL0     H60156   2.104   5.594  -0.006 -0.9731  0.3148  0.4649
  456MOL0     H60157   1.882   5.527  -0.094  0.2540  0.6315 -0.0555
  456MOL0     H60158   1.617   5.597  -0.452  0.3395  0.2115  0.4385
  456MOL0     H60159   1.771   5.676  -0.498  0.9434 -0.0273  1.2716
  456MOL0     H60160   1.692   5.878  -0.400  2.1240 -0.2821  0.0615
  456MOL0     H60161   1.550   5.792  -0.333  2.9390  3.4102  1.1213
  456MOL0     H60162   1.476   5.748  -0.557  0.8383 -1.6746  4.0840
  456MOL0     H60163   1.620   5.824  -0.637  1.0569 -0.8191  1.9794
  456MOL0     H60164   1.461   5.985  -0.441 -1.0765  1.4608 -1.2649
  456MOL0     H60165   1.531   6.059  -0.582 -1.8277  0.8865 -2.6007
  456MOL0     H60166   1.312   6.082  -0.641  0.6953  0.7531  3.1158
  456MOL0     H60167   1.258   5.933  -0.568 -1.5835 -0.3366 -1.9596
  456MOL0     H60168   1.254   5.924  -0.804 -0.1123 -1.8893 -2.8275
  456MOL0     H60169   1.389   5.812  -0.755  2.2950  1.1171  1.7248
  456MOL0     H60170   1.544   6.004  -0.794 -1.0829  3.0766  1.7994
  456MOL0     H60171   1.476   5.916  -0.936 -2.2334 -0.2952  0.0642
  456MOL0     H60172   1.390   6.194  -0.834 -0.8559 -1.0653  0.7689
  456MOL0     H60173   1.321   6.105  -0.969 -0.3853  0.0334  1.1375
  456MOL0     H60174   1.906   5.837  -0.391 -2.2815 -4.1726 -0.9523
  456MOL0     H60175   2.132   5.899  -0.311 -0.4532 -0.4651  0.8486
  456MOL0     H60176   2.380   5.806   0.097 -1.4116  3.9357  0.8775
  456MOL0     H60177   2.572   5.905   0.225 -0.1632 -1.0435  0.2413
  456MOL0     H60178   4.314   6.432   1.114  2.8745 -1.1470  1.6628
  456MOL0     H60179   4.502   6.561   1.198  1.9067  0.6371 -0.2120
  456MOL0     H60180   5.100   6.622   1.167 -1.1400 -1.7136 -2.0311
  456MOL0     H60181   5.232   6.830   1.207  0.7826 -0.0076 -1.2529
  456MOL0     H60182   5.341   6.997   1.213 -0.0552 -0.7260 -0.3179
  456MOL0     H60183   5.357   7.157   1.128  0.1764 -0.0585 -1.8880
  456MOL0     H60184   5.299   6.925   0.947  0.8944  0.0373 -1.9953
  456MOL0     H60185   5.402   7.064   0.928 -1.5381  0.0570 -0.4667
  456MOL0     H60186   5.517   6.835   0.937 -3.2320  0.1820 -2.6737
  456MOL0     H60187   5.467   6.830   1.104 -1.1774  0.0931 -1.6147
  456MOL0     H60188   5.719   6.915   1.031  0.9746  0.5662  1.4247
  456MOL0     H60189   5.628   7.053   0.970  3.6467 -1.8064 -1.8959
  456MOL0     H60190   5.643   7.158   1.382 -0.8059  0.6923  0.3581
  456MOL0     H60191   4.943   7.069   1.012  0.7533  0.6401 -2.3300
  456MOL0     H60192   4.785   6.899   1.014  0.3109  0.8043 -1.3611
  457MOL0     O60193   8.257   6.630   9.375  0.9176 -0.3727 -0.0474
  457MOL0     C60194   8.227   6.517   9.419 -0.1636 -0.2069  0.0204
  457MOL0     O60195   8.108   6.480   9.453  0.6237  0.3319 -1.1742
  457MOL0     C60196   8.006   6.570   9.461 -0.2727 -0.5544  0.3605
  457MOL0     C60197   7.985   6.679   9.380 -0.0615  0.2935 -0.3167
  457MOL0     C60198   7.876   6.766   9.393 -0.1741  0.0544 -0.1437
  457MOL0     C60199   7.790   6.742   9.499  0.1920  0.1087 -0.5936
  457MOL0     O60200   7.694   6.844   9.515  0.1460 -0.0337 -0.0974
  457MOL0     C60201   7.584   6.822   9.602 -0.8431 -0.3477  0.7154
  457MOL0     C60202   7.493   6.943   9.602  0.5124 -0.5061 -0.6763
  457MOL0     C60203   7.394   6.945   9.723 -0.5468  0.5197  0.3880
  457MOL0     C60204   7.307   7.069   9.715 -0.4841 -0.1710  0.0597
  457MOL0     C60205   7.383   7.208   9.712  0.6464 -0.7408  0.0655
  457MOL0     C60206   7.277   7.309   9.703  0.4960 -0.1663 -0.5289
  457MOL0     C60207   7.333   7.448   9.676 -0.0081  0.1955 -0.0205
  457MOL0     C60208   7.348   7.470   9.525  0.0324  0.6985 -0.2335
  457MOL0     N60209   7.421   7.595   9.522 -0.7375 -0.3085  0.5303
  457MOL0     C60210   7.553   7.610   9.519  0.1048 -0.5871 -1.0027
  457MOL0     C60211   7.574   7.736   9.541 -0.1450  0.4391 -0.5487
  457MOL0     C60212   7.718   7.788   9.539  0.1972 -0.0747 -0.3704
  457MOL0     C60213   7.750   7.927   9.604  0.1249 -0.0175 -0.6246
  457MOL0     C60214   7.704   7.930   9.751  0.0055  0.0817 -0.3781
  457MOL0     C60215   7.749   8.066   9.821  1.1455 -0.0773 -0.2502
  457MOL0     O60216   7.726   8.089   9.964  0.3294  0.9276  0.2408
  457MOL0     C60217   7.603   8.121  10.016  0.4115 -0.4703 -0.0492
  457MOL0     C60218   7.485   8.108   9.939 -0.9413 -0.6450  0.1975
  457MOL0     C60219   7.360   8.111   9.999  0.4540  0.1532 -0.0101
  457MOL0     C60220   7.347   8.140  10.135  0.7669  0.4020 -0.1328
  457MOL0     C60221   7.208   8.168  10.182  0.3423  0.9574 -0.1990
  457MOL0     O60222   7.111   8.152  10.096  0.0941  0.5353 -0.7349
  457MOL0     C60223   6.977   8.195  10.124  0.6666  0.3521 -0.2632
  457MOL0     C60224   6.900   8.123  10.219  0.2264 -0.4518 -0.3780
  457MOL0     C60225   6.775   8.157  10.256  0.2801  0.7474 -0.1115
  457MOL0     C60226   6.703   8.258  10.192 -0.7674  0.0539 -0.2092
  457MOL0     O60227   6.574   8.289  10.205  0.2159  0.8248 -0.1870
  457MOL0     C60228   6.470   8.207  10.265  0.1757  0.7082  0.4265
  457MOL0     C60229   6.333   8.275  10.263  1.3844 -0.3406 -0.1225
  457MOL0     C60230   6.328   8.409  10.188  0.3427  1.4720 -0.2252
  457MOL0     C60231   6.181   8.454  10.180  0.2017 -0.2364 -1.0729
  457MOL0     C60232   6.129   8.520  10.317 -0.1427  0.5965  0.7437
  457MOL0     C60233   5.980   8.553  10.303  0.1129 -0.0930 -0.3846
  457MOL0     C60234   5.942   8.604  10.448 -0.1692  0.1203  0.1184
  457MOL0     C60235   5.802   8.654  10.454 -0.4632  0.0641 -0.3674
  457MOL0    Cl60236   5.794   8.803  10.368  0.4360  0.3409 -0.0791
  457MOL0     C60237   6.772   8.330  10.098 -0.7535 -0.4818 -0.6134
  457MOL0     C60238   6.906   8.302  10.056 -0.4101  0.5289 -0.2308
  457MOL0     O60239   7.194   8.186  10.304 -0.4737  0.0922  0.4056
  457MOL0     C60240   7.468   8.143  10.210  1.0103 -0.5018  0.5361
  457MOL0     C60241   7.590   8.140  10.149 -0.0377  0.0478 -0.0985
  457MOL0     N60242   7.451   7.804   9.549  0.6020  0.0305 -0.3973
  457MOL0     N60243   7.365   7.711   9.548  0.2107  0.0033  0.3831
  457MOL0     C60244   7.800   6.629   9.581 -0.4998  0.1928  0.6923
  457MOL0     C60245   7.916   6.549   9.563  0.4706 -0.4011  0.6803
  457MOL0     C60246   8.327   6.407   9.430 -0.3097 -0.7229  0.0494
  457MOL0     C60247   8.459   6.408   9.384 -1.0241 -1.2382 -0.2898
  457MOL0     C60248   8.540   6.298   9.394  0.1219 -0.5666 -0.4750
  457MOL0     C60249   8.502   6.184   9.457  1.3883  0.7660 -0.5045
  457MOL0     O60250   8.582   6.074   9.474 -0.1771 -0.1053  0.3745
  457MOL0     C60251   8.721   6.093   9.444 -0.4241 -0.9244 -0.0555
  457MOL0     C60252   8.809   6.000   9.519  0.2941 -0.5271 -0.1211
  457MOL0     C60253   8.796   5.870   9.453 -0.1738  0.4177 -0.2683
  457MOL0     C60254   8.886   5.750   9.506  0.8988  0.5695 -0.0056
  457MOL0     C60255   8.835   5.613   9.478  0.1289 -0.1685  0.1405
  457MOL0     C60256   8.786   5.503   9.460  0.4570  0.0258 -0.3828
  457MOL0     C60257   8.379   6.179   9.508  1.1317  0.2933 -0.6026
  457MOL0     C60258   8.293   6.288   9.497 -0.6834 -0.6668  0.3916
  457MOL0     H60259   8.054   6.709   9.301 -0.5468  4.0357  0.4908
  457MOL0     H60260   7.877   6.850   9.324 -0.4122 -0.6385 -1.0138
  457MOL0     H60261   7.625   6.799   9.701 -1.0111  1.8783  1.3607
  457MOL0     H60262   7.529   6.741   9.554 -1.5177  0.1295  0.6624
  457MOL0     H60263   7.428   6.948   9.514  0.3504  1.3717 -0.5026
  457MOL0     H60264   7.548   7.037   9.616 -1.4819  0.5729  0.4117
  457MOL0     H60265   7.459   6.947   9.810 -0.0336 -1.5493  0.1044
  457MOL0     H60266   7.328   6.858   9.717  2.1181 -1.6000  0.0494
  457MOL0     H60267   7.250   7.057   9.623  1.6511 -1.3173 -1.1964
  457MOL0     H60268   7.231   7.067   9.794  0.8455 -2.0452  1.3965
  457MOL0     H60269   7.440   7.205   9.619  1.2281 -4.4043  0.3932
  457MOL0     H60270   7.445   7.229   9.800 -0.2721  2.7075  0.0370
  457MOL0     H60271   7.229   7.315   9.801  0.2120 -0.5025 -0.6450
  457MOL0     H60272   7.197   7.272   9.638 -2.0634 -0.9322  2.7834
  457MOL0     H60273   7.276   7.518   9.738  1.2372  0.5669  0.7473
  457MOL0     H60274   7.428   7.447   9.730 -1.1099  0.5421  2.0660
  457MOL0     H60275   7.246   7.485   9.488  0.6046  1.8264 -1.4443
  457MOL0     H60276   7.403   7.395   9.467 -0.9131  0.4175 -0.7766
  457MOL0     H60277   7.624   7.531   9.494  0.0677 -0.7649 -0.5626
  457MOL0     H60278   7.738   7.793   9.431 -2.2852  3.3989 -0.8380
  457MOL0     H60279   7.786   7.719   9.591 -0.4073  0.4523  1.1485
  457MOL0     H60280   7.696   8.003   9.548 -0.2314  0.3423  0.1922
  457MOL0     H60281   7.859   7.942   9.603 -0.0829  1.7740  0.3843
  457MOL0     H60282   7.595   7.918   9.758 -0.0523  1.4377  3.6707
  457MOL0     H60283   7.745   7.845   9.806 -0.1361 -0.5923 -1.2891
  457MOL0     H60284   7.691   8.140   9.765 -0.0329 -1.0340 -0.3350
  457MOL0     H60285   7.855   8.082   9.802  1.7194  1.2364  3.2913
  457MOL0     H60286   7.482   8.072   9.836 -0.2640  3.3550 -1.4101
  457MOL0     H60287   7.272   8.108   9.936  0.2745  0.0482  0.2463
  457MOL0     H60288   6.948   8.052  10.286 -3.2074 -2.1598  0.4961
  457MOL0     H60289   6.731   8.089  10.329  3.5027 -2.9547 -1.2603
  457MOL0     H60290   6.500   8.187  10.368  2.3557  1.1690 -0.0765
  457MOL0     H60291   6.460   8.108  10.219 -0.7715  0.9952 -0.0107
  457MOL0     H60292   6.307   8.299  10.366  1.9350 -3.1750  0.7734
  457MOL0     H60293   6.254   8.208  10.228 -0.6854  0.8071  2.0621
  457MOL0     H60294   6.358   8.388  10.085  1.5829  3.8146 -0.4128
  457MOL0     H60295   6.391   8.484  10.237 -0.9230  2.5171 -0.1500
  457MOL0     H60296   6.172   8.525  10.097 -2.6588 -0.6357 -1.1903
  457MOL0     H60297   6.117   8.368  10.161 -1.4671  0.6201  0.4164
  457MOL0     H60298   6.194   8.605  10.340 -0.3365  0.9912 -0.1486
  457MOL0     H60299   6.133   8.442  10.395  2.5970 -0.7024 -0.5748
  457MOL0     H60300   5.924   8.460  10.291  1.6905 -1.0084 -0.8962
  457MOL0     H60301   5.960   8.626  10.224 -2.9966  2.2090  2.2740
  457MOL0     H60302   5.958   8.531  10.527 -2.6917 -0.0764  0.5460
  457MOL0     H60303   6.010   8.683  10.479 -1.2985  1.5133 -0.7895
  457MOL0     H60304   5.783   8.666  10.561  0.9882 -1.8381  0.1678
  457MOL0     H60305   5.736   8.574  10.419  0.6655 -1.7520  1.3992
  457MOL0     H60306   6.721   8.402  10.035  1.8916  1.3307 -0.8287
  457MOL0     H60307   6.957   8.346   9.971  2.3900 -2.2611 -0.1808
  457MOL0     H60308   7.454   8.156  10.317 -0.3099 -0.6723  0.4019
  457MOL0     H60309   7.680   8.145  10.209 -1.3955 -0.8605  2.1218
  457MOL0     H60310   7.734   6.604   9.664  0.7514  0.2390  1.7301
  457MOL0     H60311   7.942   6.471   9.634 -1.7266  0.6317  2.7734
  457MOL0     H60312   8.483   6.493   9.321  0.7207 -0.8640  0.8053
  457MOL0     H60313   8.637   6.307   9.346  0.5553  1.5675  0.6751
  457MOL0     H60314   8.758   6.195   9.457 -0.2255 -1.1014  0.8033
  457MOL0     H60315   8.740   6.077   9.337  3.1763  2.1851 -0.0971
  457MOL0     H60316   8.916   6.022   9.518  0.3828 -0.8369  1.0478
  457MOL0     H60317   8.781   6.001   9.625  1.5271 -0.2223  0.2176
  457MOL0     H60318   8.819   5.887   9.348  0.3665  2.9345  0.1982
  457MOL0     H60319   8.692   5.836   9.464  0.2007 -0.2625  1.5828
  457MOL0     H60320   8.983   5.761   9.456  0.1703  0.8732 -1.4021
  457MOL0     H60321   8.901   5.767   9.613  0.8082  0.7016 -0.0134
  457MOL0     H60322   8.747   5.405   9.444  3.2021 -1.6402  2.0471
  457MOL0     H60323   8.339   6.096   9.565  1.2782 -1.3812 -2.8244
  457MOL0     H60324   8.204   6.286   9.560 -0.1954 -2.8371  1.1022
  458MOL0     O60325  10.531   2.408   0.892 -0.9117  0.2966 -0.1287
  458MOL0     C60326  10.556   2.300   0.842  0.0432  0.4864 -0.0632
  458MOL0     O60327  10.476   2.195   0.839  0.2052  1.0738 -0.2430
  458MOL0     C60328  10.356   2.198   0.895 -0.4128  0.4547  0.2451
  458MOL0     C60329  10.346   2.178   1.026  0.2454 -0.4881 -0.7216
  458MOL0     C60330  10.219   2.175   1.096  0.2860  0.4236  0.4306
  458MOL0     C60331  10.106   2.196   1.020 -0.5345  0.2148 -0.1148
  458MOL0     O60332   9.989   2.207   1.092 -0.9159  0.1276 -0.1986
  458MOL0     C60333   9.898   2.095   1.074  0.2655 -0.4818  0.0264
  458MOL0     C60334   9.769   2.142   1.012  0.0654  0.2269  0.5939
  458MOL0     C60335   9.669   2.023   1.013 -0.3577  0.6037 -0.3685
  458MOL0     C60336   9.557   2.094   0.928  0.0255 -0.5440 -0.7806
  458MOL0     C60337   9.453   1.984   0.913  0.3680  0.0363 -0.3255
  458MOL0     C60338   9.366   2.026   0.787 -0.3411  0.8779  1.1476
  458MOL0     C60339   9.278   2.151   0.807  0.2054 -0.1359 -1.2108
  458MOL0     C60340   9.140   2.128   0.865  0.0403  0.3065  0.3525
  458MOL0     N60341   9.045   2.055   0.777 -1.1673 -0.2928 -0.1593
  458MOL0     C60342   8.933   2.000   0.816  0.3154  0.2615 -0.2054
  458MOL0     C60343   8.858   1.976   0.708  0.6691  0.7703  0.0648
  458MOL0     C60344   8.714   1.938   0.698 -0.8392 -0.3626 -0.3185
  458MOL0     C60345   8.633   1.996   0.812 -0.0025  0.1752 -0.2082
  458MOL0     C60346   8.488   1.954   0.806 -0.4361  0.3633  0.2687
  458MOL0     C60347   8.409   2.005   0.925  0.1263 -0.5971  0.3609
  458MOL0     O60348   8.277   1.964   0.915 -0.0327 -0.3669  0.5408
  458MOL0     C60349   8.185   2.000   1.014  0.7997 -0.3249 -0.7264
  458MOL0     C60350   8.053   1.963   0.977  0.3049  0.1824 -0.3825
  458MOL0     C60351   7.953   1.992   1.071  0.5870 -0.1076 -0.3501
  458MOL0     C60352   7.989   2.048   1.191  0.0035 -0.2330 -0.6270
  458MOL0     C60353   7.878   2.054   1.301 -0.9339  1.3717 -1.3503
  458MOL0     O60354   7.762   1.982   1.289 -0.2437  0.5641 -0.4184
  458MOL0     C60355   7.681   1.958   1.394 -0.3653  0.0296  0.2668
  458MOL0     C60356   7.717   1.927   1.531  0.2131  0.0529 -0.5450
  458MOL0     C60357   7.621   1.908   1.628 -0.1851  0.5159 -0.3357
  458MOL0     C60358   7.484   1.899   1.596  0.6318  0.4231  0.3155
  458MOL0     O60359   7.394   1.858   1.686  0.0423  0.2542  0.0098
  458MOL0     C60360   7.336   1.950   1.777  0.4918  0.0360  0.6074
  458MOL0     C60361   7.281   1.885   1.900  0.8305  0.5688  0.2779
  458MOL0     C60362   7.391   1.814   1.974 -1.1581  0.2471 -0.4018
  458MOL0     C60363   7.327   1.752   2.094 -0.1433 -0.6428 -0.3509
  458MOL0     C60364   7.447   1.707   2.171 -0.6037  0.3450  0.1069
  458MOL0     C60365   7.519   1.584   2.112 -0.9295  0.0389  0.2432
  458MOL0     C60366   7.436   1.457   2.104  0.1328  0.3405  0.6735
  458MOL0     C60367   7.528   1.336   2.076 -0.5402  0.1110  0.2449
  458MOL0    Cl60368   7.626   1.355   1.932 -0.2018 -0.0428 -0.0088
  458MOL0     C60369   7.449   1.934   1.461 -0.3838  0.7737 -0.5035
  458MOL0     C60370   7.546   1.961   1.356 -0.0461  0.0462  0.2464
  458MOL0     O60371   7.904   2.124   1.400 -0.4450  0.1047  0.7465
  458MOL0     C60372   8.121   2.078   1.224  0.8467  0.8025  0.0685
  458MOL0     C60373   8.223   2.055   1.134  0.4356 -0.4390 -0.7601
  458MOL0     N60374   8.943   1.997   0.598  0.0264  0.2802  0.2224
  458MOL0     N60375   9.048   2.053   0.645 -0.2015 -0.8514  0.2328
  458MOL0     C60376  10.118   2.204   0.884  0.0054  0.1438  0.2635
  458MOL0     C60377  10.242   2.213   0.821  0.4723  0.7163  0.4262
  458MOL0     C60378  10.687   2.280   0.783 -0.3660 -0.2791 -0.4242
  458MOL0     C60379  10.726   2.149   0.757 -1.3260  0.1567  1.4142
  458MOL0     C60380  10.858   2.121   0.713 -0.3890 -0.5839 -0.3255
  458MOL0     C60381  10.949   2.225   0.684  0.0096 -0.4680 -0.2910
  458MOL0     O60382  11.084   2.195   0.645  0.7532  0.3565 -0.7378
  458MOL0     C60383  11.128   2.060   0.650  0.0779  0.2694 -1.0133
  458MOL0     C60384  11.284   2.064   0.632  0.1717  0.9960 -0.1301
  458MOL0     C60385  11.346   2.115   0.760 -0.3086  0.3515  0.2695
  458MOL0     C60386  11.496   2.093   0.759  0.3908  0.1415 -0.3136
  458MOL0     C60387  11.554   2.141   0.890  0.3359 -0.5510  0.3137
  458MOL0     C60388  11.609   2.190   0.992  0.0454  0.1325  0.3218
  458MOL0     C60389  10.899   2.360   0.700  1.3756 -0.0493  0.4664
  458MOL0     C60390  10.774   2.385   0.759  0.1097 -0.4085  0.0185
  458MOL0     H60391  10.438   2.169   1.083  1.1390  1.7281 -1.6718
  458MOL0     H60392  10.217   2.160   1.203 -0.5165 -1.0020  0.2428
  458MOL0     H60393   9.873   2.059   1.174  2.3062  3.7264  2.3028
  458MOL0     H60394   9.952   2.018   1.019  0.3320 -1.3880  1.3338
  458MOL0     H60395   9.784   2.173   0.909 -1.1195  0.0575  0.3467
  458MOL0     H60396   9.744   2.230   1.072 -0.2475 -0.0946  0.9465
  458MOL0     H60397   9.631   2.012   1.115 -1.4401 -0.3779 -0.8505
  458MOL0     H60398   9.704   1.927   0.974  0.5093  1.2849 -1.3268
  458MOL0     H60399   9.526   2.179   0.990  0.4020 -0.9297 -0.0465
  458MOL0     H60400   9.593   2.141   0.836  1.4969 -2.3277 -1.1642
  458MOL0     H60401   9.392   1.994   1.003 -1.6176 -1.2242 -1.4675
  458MOL0     H60402   9.492   1.881   0.909 -0.3824 -0.3814  1.8238
  458MOL0     H60403   9.291   1.951   0.761 -0.3229  0.9028  1.0233
  458MOL0     H60404   9.435   2.034   0.703 -0.0595  3.8632  1.5507
  458MOL0     H60405   9.330   2.235   0.854 -0.3331  0.8375 -2.2667
  458MOL0     H60406   9.258   2.186   0.704  0.4674 -0.7834 -1.4821
  458MOL0     H60407   9.090   2.224   0.882  0.8664  0.9177 -0.5823
  458MOL0     H60408   9.152   2.083   0.964  1.3202  3.8448  1.9489
  458MOL0     H60409   8.890   2.001   0.915  1.9486  0.4460  0.5444
  458MOL0     H60410   8.707   1.829   0.702  4.5657 -0.9424  0.3801
  458MOL0     H60411   8.675   1.966   0.600 -0.0315  1.5869 -0.1395
  458MOL0     H60412   8.649   2.105   0.808  1.1852  0.0122 -0.3668
  458MOL0     H60413   8.678   1.959   0.905  0.9003 -0.7663 -0.9974
  458MOL0     H60414   8.447   1.982   0.709  1.6657  0.0347 -0.7530
  458MOL0     H60415   8.479   1.845   0.802  4.0835 -0.1824 -0.2652
  458MOL0     H60416   8.410   2.115   0.924  1.0440 -0.5699 -1.5013
  458MOL0     H60417   8.466   1.966   1.010 -0.9402 -0.3539  1.2033
  458MOL0     H60418   8.039   1.915   0.880 -0.4995 -1.4965  0.5199
  458MOL0     H60419   7.847   1.971   1.061  0.8149 -0.3670 -2.6754
  458MOL0     H60420   7.814   1.901   1.571  1.2318 -0.8431 -3.3666
  458MOL0     H60421   7.647   1.890   1.732 -1.9940  3.5227  0.7986
  458MOL0     H60422   7.251   1.987   1.718  0.7570 -0.5848 -0.1723
  458MOL0     H60423   7.407   2.029   1.803  2.2609 -1.4461  0.4122
  458MOL0     H60424   7.199   1.814   1.883  0.4308  0.0506  3.7607
  458MOL0     H60425   7.233   1.963   1.960 -0.7528  0.5824 -0.9203
  458MOL0     H60426   7.468   1.890   1.992 -0.9147  0.7777 -3.2222
  458MOL0     H60427   7.420   1.737   1.902 -1.0104 -2.6006  2.5054
  458MOL0     H60428   7.284   1.822   2.166  2.1426  0.6885 -0.1822
  458MOL0     H60429   7.247   1.679   2.078  1.1503 -3.2453  3.3481
  458MOL0     H60430   7.416   1.683   2.274  1.2214  0.1060  0.6288
  458MOL0     H60431   7.514   1.791   2.192  1.4258 -1.6140  2.1136
  458MOL0     H60432   7.612   1.564   2.167  0.4229  0.2892 -1.8419
  458MOL0     H60433   7.565   1.606   2.015  4.5963  2.4427  2.9662
  458MOL0     H60434   7.385   1.450   2.201 -2.4038  1.0908 -0.5198
  458MOL0     H60435   7.358   1.461   2.027  2.1427 -0.5016 -1.5219
  458MOL0     H60436   7.473   1.242   2.075 -3.6472  1.7119 -2.9544
  458MOL0     H60437   7.606   1.341   2.152  0.9565  2.0763 -1.3213
  458MOL0     H60438   7.344   1.941   1.437 -0.3574  3.6100 -0.0755
  458MOL0     H60439   7.520   1.980   1.253 -0.0224 -1.0054  0.0329
  458MOL0     H60440   8.146   2.115   1.323  0.3664  1.8110 -0.1660
  458MOL0     H60441   8.325   2.059   1.173  0.2623 -2.4384 -0.0011
  458MOL0     H60442  10.025   2.207   0.828 -0.0416 -1.3240  0.2260
  458MOL0     H60443  10.249   2.229   0.714 -0.2521 -0.5828  0.1675
  458MOL0     H60444  10.660   2.066   0.782 -0.6090 -0.8822 -0.0272
  458MOL0     H60445  10.889   2.018   0.707  0.6077 -0.2715 -0.6297
  458MOL0     H60446  11.087   2.000   0.568  0.0212 -0.6155 -0.3571
  458MOL0     H60447  11.110   2.027   0.753  0.2278  1.8063 -0.4634
  458MOL0     H60448  11.325   1.963   0.623  1.3038  1.3776  0.4255
  458MOL0     H60449  11.312   2.120   0.543  2.3777 -0.0591 -0.1785
  458MOL0     H60450  11.298   2.056   0.839 -0.1134 -0.6897 -0.3673
  458MOL0     H60451  11.328   2.222   0.773  3.2782  1.1259 -0.1758
  458MOL0     H60452  11.512   1.985   0.750 -1.1726 -0.1875  0.4762
  458MOL0     H60453  11.538   2.145   0.673 -1.9081  0.0745 -1.5500
  458MOL0     H60454  11.651   2.233   1.081 -2.6340  0.7519  1.3797
  458MOL0     H60455  10.955   2.445   0.663  0.6010  0.8903  1.3756
  458MOL0     H60456  10.737   2.487   0.771  2.1035  0.2653  1.0674
  459MOL0     O60457   6.572   2.473   4.057  0.2155  0.1447  0.2062
  459MOL0     C60458   6.636   2.373   4.041  0.0586  1.5277 -0.3547
  459MOL0     O60459   6.594   2.246   4.061  0.6508 -0.1032 -0.1874
  459MOL0     C60460   6.463   2.230   4.085 -0.1019  0.2512  0.3468
  459MOL0     C60461   6.423   2.181   4.203 -0.2202  0.8954  0.2714
  459MOL0     C60462   6.290   2.148   4.229  0.1488 -0.6033 -0.0040
  459MOL0     C60463   6.187   2.156   4.135  0.5499 -0.0486 -0.9306
  459MOL0     O60464   6.060   2.118   4.161  0.7156  0.0142  1.0719
  459MOL0     C60465   6.038   2.004   4.234  0.3107 -0.3185  0.1908
  459MOL0     C60466   5.908   1.937   4.181 -0.6243  0.7281  0.4268
  459MOL0     C60467   5.788   2.028   4.181  0.5859 -0.5958 -0.1900
  459MOL0     C60468   5.658   1.962   4.132  0.1501  0.0039  0.1342
  459MOL0     C60469   5.523   2.038   4.140  0.4389  0.2364 -0.1698
  459MOL0     C60470   5.499   2.112   4.272 -0.2485  0.2269  0.0516
  459MOL0     C60471   5.362   2.189   4.280 -0.1954  0.0920  0.0168
  459MOL0     C60472   5.251   2.090   4.323  1.1045 -0.8495  0.6505
  459MOL0     N60473   5.255   2.082   4.469  0.1953 -0.2582  0.0768
  459MOL0     C60474   5.255   1.962   4.536  0.4203 -0.4122 -0.1516
  459MOL0     C60475   5.248   2.000   4.669 -1.0622 -0.3516  0.6942
  459MOL0     C60476   5.249   1.906   4.782  0.0075 -0.4668  0.7780
  459MOL0     C60477   5.110   1.849   4.813  0.1573  0.5932 -0.5999
  459MOL0     C60478   5.046   1.771   4.701 -0.0752  0.2061 -0.5460
  459MOL0     C60479   4.927   1.686   4.759  0.1720 -0.4099 -0.6286
  459MOL0     O60480   4.857   1.590   4.668 -0.0856 -0.1272  0.0998
  459MOL0     C60481   4.727   1.629   4.631  0.8153  0.5695 -0.4914
  459MOL0     C60482   4.695   1.767   4.597  0.5100  0.5485 -0.3713
  459MOL0     C60483   4.570   1.801   4.551 -0.4734 -0.2784 -0.0886
  459MOL0     C60484   4.472   1.698   4.532 -0.6694 -0.3466  1.0221
  459MOL0     C60485   4.342   1.740   4.476 -0.1212  1.0160 -0.3990
  459MOL0     O60486   4.253   1.643   4.435 -0.2392 -0.0129 -0.1179
  459MOL0     C60487   4.120   1.658   4.402 -0.7248  0.0042  0.1293
  459MOL0     C60488   4.045   1.753   4.473 -0.3162  0.1353  0.4190
  459MOL0     C60489   3.915   1.782   4.435  0.9912  0.5544 -0.7410
  459MOL0     C60490   3.853   1.715   4.332  0.0217  0.8665  0.3812
  459MOL0     O60491   3.730   1.752   4.301  0.5425  0.4430 -0.2235
  459MOL0     C60492   3.685   1.725   4.164  0.1290  0.4503  1.0197
  459MOL0     C60493   3.560   1.812   4.140 -0.3792  0.3619  0.5407
  459MOL0     C60494   3.435   1.769   4.221 -0.0977  1.0514  0.1305
  459MOL0     C60495   3.313   1.845   4.183  0.7564  0.7837  0.1497
  459MOL0     C60496   3.195   1.823   4.272 -0.2462  0.1286 -0.5255
  459MOL0     C60497   3.076   1.903   4.219  0.2942  0.1364 -0.1653
  459MOL0     C60498   2.953   1.872   4.304  0.5911  0.4141  0.2656
  459MOL0     C60499   2.893   1.733   4.277 -0.2261  0.4033 -0.1401
  459MOL0    Cl60500   2.734   1.717   4.349  0.0512 -0.1985 -0.0909
  459MOL0     C60501   3.920   1.607   4.269  0.2734 -0.1219  0.4536
  459MOL0     C60502   4.055   1.578   4.302  0.7212  0.1730 -0.1329
  459MOL0     O60503   4.326   1.856   4.451 -0.3845 -1.0111 -0.3320
  459MOL0     C60504   4.494   1.569   4.562  0.1737  0.2017 -0.9309
  459MOL0     C60505   4.626   1.530   4.605 -0.2488 -0.3128 -1.0813
  459MOL0     N60506   5.224   2.137   4.673 -0.9077  0.5232  0.8532
  459MOL0     N60507   5.233   2.185   4.555  0.0602  0.0042  0.9117
  459MOL0     C60508   6.231   2.219   4.023  0.3859 -0.0476  0.1394
  459MOL0     C60509   6.362   2.260   3.988 -1.5264 -1.2527  0.2664
  459MOL0     C60510   6.777   2.379   4.002  0.8830 -0.2650 -1.3483
  459MOL0     C60511   6.848   2.496   4.024  0.2720  0.1446 -0.2344
  459MOL0     C60512   6.971   2.511   3.968 -0.1505  0.0893  0.2899
  459MOL0     C60513   7.033   2.398   3.907 -0.6357 -0.7027 -0.5154
  459MOL0     O60514   7.159   2.405   3.851  0.7704 -0.0228  0.3067
  459MOL0     C60515   7.237   2.296   3.808  0.0330  0.1126 -1.0544
  459MOL0     C60516   7.337   2.342   3.706  0.0365  0.3089 -0.7721
  459MOL0     C60517   7.398   2.212   3.643 -0.3185 -0.1740  0.9036
  459MOL0     C60518   7.506   2.244   3.535 -0.5135 -0.1818  0.0616
  459MOL0     C60519   7.571   2.120   3.498 -0.3825  0.6014  0.4803
  459MOL0     C60520   7.617   2.006   3.481 -0.6975  0.5694  0.9167
  459MOL0     C60521   6.965   2.277   3.901 -0.5269  0.6468 -1.1669
  459MOL0     C60522   6.835   2.267   3.942 -0.2247  0.4407  0.3041
  459MOL0     H60523   6.492   2.165   4.285  0.6598  0.0985 -0.5997
  459MOL0     H60524   6.269   2.103   4.326  0.0896  2.8139  1.7438
  459MOL0     H60525   6.022   2.040   4.336  1.2678  0.9881 -0.0913
  459MOL0     H60526   6.128   1.941   4.227 -0.7703 -1.8043 -0.9030
  459MOL0     H60527   5.890   1.855   4.251 -2.7586  0.2129 -0.6394
  459MOL0     H60528   5.931   1.896   4.083  1.8434 -1.0339  1.6432
  459MOL0     H60529   5.794   2.112   4.112 -1.8854 -0.1904  0.0129
  459MOL0     H60530   5.764   2.070   4.279 -3.3987 -0.9765 -0.8260
  459MOL0     H60531   5.668   1.940   4.026 -1.8738  2.0624 -0.5507
  459MOL0     H60532   5.652   1.871   4.193 -0.9797  0.6589  1.0457
  459MOL0     H60533   5.442   1.965   4.126  0.0730 -0.0556  2.7570
  459MOL0     H60534   5.504   2.117   4.067 -0.8942  3.0837  3.0216
  459MOL0     H60535   5.571   2.188   4.303  1.2266 -1.0993 -0.0049
  459MOL0     H60536   5.506   2.036   4.349  2.0648 -0.4164 -0.7100
  459MOL0     H60537   5.381   2.275   4.344  0.4343  1.6522 -2.1548
  459MOL0     H60538   5.357   2.233   4.181  2.6154  2.0205  0.6168
  459MOL0     H60539   5.252   1.993   4.271 -1.8644  0.6924 -2.7085
  459MOL0     H60540   5.153   2.135   4.308  0.7763 -1.4126  1.0870
  459MOL0     H60541   5.261   1.864   4.490  2.3133  0.7837 -2.6570
  459MOL0     H60542   5.297   1.948   4.871  1.5255  0.8327 -0.5950
  459MOL0     H60543   5.310   1.823   4.746  0.7402  0.2576  0.3433
  459MOL0     H60544   5.049   1.939   4.828  0.3613  0.4070  1.6413
  459MOL0     H60545   5.124   1.793   4.905  3.0654  1.7469 -0.2209
  459MOL0     H60546   5.017   1.827   4.612 -0.4161 -1.0942 -1.2826
  459MOL0     H60547   5.130   1.703   4.684  1.2795  0.5365  3.6361
  459MOL0     H60548   4.854   1.756   4.802  0.9166 -0.0639  0.1002
  459MOL0     H60549   4.960   1.621   4.840  0.2520  1.2217  0.7040
  459MOL0     H60550   4.779   1.836   4.604  0.1630  0.8889  0.6467
  459MOL0     H60551   4.548   1.905   4.530 -0.6752  0.4222  3.1279
  459MOL0     H60552   4.091   1.806   4.556  1.7568 -1.0131  0.0877
  459MOL0     H60553   3.852   1.846   4.496  0.1540 -1.2889  0.4075
  459MOL0     H60554   3.657   1.619   4.153  0.9120  0.1915  1.4724
  459MOL0     H60555   3.764   1.745   4.091 -0.0550 -1.0817  0.3547
  459MOL0     H60556   3.544   1.806   4.032  3.7962  0.1184 -0.2398
  459MOL0     H60557   3.574   1.916   4.172 -0.6638  1.0964 -1.5769
  459MOL0     H60558   3.456   1.777   4.328 -1.7825  1.0840  0.4751
  459MOL0     H60559   3.410   1.663   4.208 -2.2065  1.6846 -1.4974
  459MOL0     H60560   3.319   1.954   4.178 -3.0238  1.1705  1.2270
  459MOL0     H60561   3.284   1.802   4.087 -1.5291 -3.1888  2.3129
  459MOL0     H60562   3.231   1.862   4.367  1.4490 -2.5110  0.0049
  459MOL0     H60563   3.189   1.714   4.279  1.8007  0.0795  1.5730
  459MOL0     H60564   3.055   1.868   4.118  0.3860  0.2054 -0.2081
  459MOL0     H60565   3.099   2.009   4.239  0.1708 -0.0738  1.2115
  459MOL0     H60566   2.964   1.885   4.412 -1.0284 -2.0023  0.7980
  459MOL0     H60567   2.876   1.945   4.276  1.0455  0.8584  0.1555
  459MOL0     H60568   2.957   1.667   4.335 -0.4490 -0.1238 -0.4877
  459MOL0     H60569   2.898   1.705   4.171 -0.6308 -1.7167  0.3599
  459MOL0     H60570   3.884   1.548   4.185 -1.3426 -0.9888  1.6937
  459MOL0     H60571   4.105   1.498   4.247  2.5094  2.1174 -1.4802
  459MOL0     H60572   4.421   1.489   4.560  1.3556 -1.0796  1.7380
  459MOL0     H60573   4.634   1.422   4.616 -2.7964 -0.6277 -1.5182
  459MOL0     H60574   6.158   2.230   3.944  0.8796  1.0415 -0.1906
  459MOL0     H60575   6.399   2.304   3.896 -1.4267 -1.9141 -0.0210
  459MOL0     H60576   6.800   2.584   4.064  0.0883 -1.2355  2.8901
  459MOL0     H60577   7.027   2.604   3.974 -0.3145  0.8437 -5.1325
  459MOL0     H60578   7.173   2.223   3.757 -1.4063  1.4379 -1.2201
  459MOL0     H60579   7.282   2.254   3.899  0.8052  2.9656  0.0041
  459MOL0     H60580   7.298   2.413   3.634  0.1268  1.5680  0.3818
  459MOL0     H60581   7.413   2.398   3.761  3.1066 -3.5217 -0.6235
  459MOL0     H60582   7.314   2.159   3.597 -2.4447  3.0686  0.7808
  459MOL0     H60583   7.447   2.161   3.727  1.1778 -0.6902 -0.2545
  459MOL0     H60584   7.467   2.281   3.439 -1.8030  0.1952  0.7185
  459MOL0     H60585   7.586   2.315   3.558  1.6151 -1.7132 -2.0246
  459MOL0     H60586   7.658   1.911   3.456 -2.6373 -1.3387  4.2147
  459MOL0     H60587   6.995   2.184   3.855 -0.9689 -0.8534  1.4250
  459MOL0     H60588   6.784   2.173   3.927  1.5385 -0.4984 -0.0182
  460MOL0     O60589   6.333   0.814   4.295  0.1607 -0.8104  0.0278
  460MOL0     C60590   6.251   0.873   4.219 -0.1347 -0.3517 -0.5499
  460MOL0     O60591   6.259   0.997   4.169 -0.3418 -0.3856 -0.1269
  460MOL0     C60592   6.361   1.081   4.206  0.0469  0.3292  0.5975
  460MOL0     C60593   6.495   1.054   4.222  0.1712  0.0689  0.2809
  460MOL0     C60594   6.588   1.150   4.262 -0.2600 -0.8812  0.1828
  460MOL0     C60595   6.547   1.278   4.292  0.3047  0.4009  0.2800
  460MOL0     O60596   6.622   1.373   4.359 -0.5172 -0.7867 -0.1616
  460MOL0     C60597   6.709   1.333   4.462 -0.0535  0.0308  0.4929
  460MOL0     C60598   6.818   1.435   4.497 -0.0887 -0.3283  0.1753
  460MOL0     C60599   6.934   1.426   4.398 -1.5345  0.3524 -0.0163
  460MOL0     C60600   7.036   1.528   4.435 -0.4856  0.7976 -1.0249
  460MOL0     C60601   7.168   1.514   4.360 -0.3331  0.1132  0.3104
  460MOL0     C60602   7.248   1.382   4.373  0.4157 -0.2033  0.3467
  460MOL0     C60603   7.284   1.329   4.511  1.1928 -0.4498  0.5558
  460MOL0     C60604   7.345   1.193   4.508  0.4514  0.2739 -0.1777
  460MOL0     N60605   7.457   1.179   4.416 -0.2521 -0.3913  0.2210
  460MOL0     C60606   7.480   1.074   4.329 -0.0469 -0.4029  1.0488
  460MOL0     C60607   7.598   1.107   4.275 -0.4745  0.1183  0.0567
  460MOL0     C60608   7.686   1.011   4.193  0.2776  0.5555  0.6209
  460MOL0     C60609   7.603   0.962   4.071 -0.1096  0.4087 -0.0888
  460MOL0     C60610   7.673   0.831   4.011  0.0419  0.0519  0.1260
  460MOL0     C60611   7.654   0.806   3.856  0.7957 -0.4751 -0.0798
  460MOL0     O60612   7.516   0.805   3.823 -0.1433  0.3618  0.0868
  460MOL0     C60613   7.441   0.690   3.860  0.1549 -0.2719  0.8235
  460MOL0     C60614   7.480   0.553   3.848 -0.2707 -0.8169  0.7247
  460MOL0     C60615   7.387   0.453   3.865  0.6899 -0.5433  0.9472
  460MOL0     C60616   7.251   0.472   3.873  0.1540  0.0820 -0.1792
  460MOL0     C60617   7.154   0.363   3.870  0.1276  0.9849 -0.2289
  460MOL0     O60618   7.020   0.405   3.864  1.0520 -0.2864  0.2714
  460MOL0     C60619   6.906   0.327   3.884 -0.7313  0.5749  0.4369
  460MOL0     C60620   6.902   0.190   3.867 -0.1615  0.2353 -0.0772
  460MOL0     C60621   6.778   0.114   3.881  0.4183  0.0387  0.4881
  460MOL0     C60622   6.662   0.183   3.920  0.0890  0.8727 -0.5451
  460MOL0     O60623   6.541   0.118   3.942 -0.5498  0.3171  0.0588
  460MOL0     C60624   6.538  -0.019   3.974 -0.7574  0.8519  0.5010
  460MOL0     C60625   6.411  -0.077   4.034 -0.1212 -0.4009 -0.1084
  460MOL0     C60626   6.409  -0.229   4.037 -0.3044 -0.1227  0.3562
  460MOL0     C60627   6.272  -0.279   4.090  0.3944 -0.1066  0.7520
  460MOL0     C60628   6.276  -0.424   4.131  0.2295 -0.0493  0.2210
  460MOL0     C60629   6.145  -0.493   4.163  0.9004 -0.2697  0.1166
  460MOL0     C60630   6.153  -0.650   4.173 -0.3346  0.1741 -0.2015
  460MOL0     C60631   6.009  -0.685   4.202  0.5322  0.1168  0.7105
  460MOL0    Cl60632   5.916  -0.706   4.050  0.5713 -0.6892  0.6492
  460MOL0     C60633   6.662   0.320   3.945 -1.3562 -0.1691  0.4075
  460MOL0     C60634   6.789   0.388   3.922 -0.0625 -0.1540 -0.4728
  460MOL0     O60635   7.186   0.243   3.881 -0.3666 -0.7928  0.0848
  460MOL0     C60636   7.208   0.605   3.901 -0.7650 -0.0563 -0.4224
  460MOL0     C60637   7.308   0.709   3.902 -0.3308 -0.9214  0.0720
  460MOL0     N60638   7.642   1.232   4.318 -0.1344 -0.3495  0.2829
  460MOL0     N60639   7.564   1.272   4.410  0.2841  0.2885 -0.4672
  460MOL0     C60640   6.413   1.314   4.266  0.7216 -0.5650 -0.6491
  460MOL0     C60641   6.321   1.214   4.226 -0.6343 -0.1345  0.0360
  460MOL0     C60642   6.132   0.789   4.177  1.0282 -0.2642 -0.2075
  460MOL0     C60643   6.035   0.843   4.089  0.5158  0.3035  0.8344
  460MOL0     C60644   5.922   0.766   4.056  0.2334  0.0577  0.3503
  460MOL0     C60645   5.896   0.644   4.107  0.0510 -1.0332  0.1183
  460MOL0     O60646   5.778   0.583   4.073 -0.1723 -0.1133 -0.3203
  460MOL0     C60647   5.700   0.539   4.181  0.0337  0.8108  0.5118
  460MOL0     C60648   5.624   0.411   4.153  0.7775  0.0346 -1.2618
  460MOL0     C60649   5.487   0.427   4.082  0.0273  0.4915 -0.0856
  460MOL0     C60650   5.498   0.493   3.950  0.1093 -0.9625  0.3683
  460MOL0     C60651   5.560   0.394   3.859  0.1294  0.4493 -0.6460
  460MOL0     C60652   5.616   0.310   3.789  0.1374 -0.3718  0.5025
  460MOL0     C60653   5.996   0.586   4.185 -0.3362 -0.8914 -0.6793
  460MOL0     C60654   6.114   0.653   4.217 -0.4801  0.2074 -0.5374
  460MOL0     H60655   6.524   0.951   4.206  1.4477  0.5138 -0.3892
  460MOL0     H60656   6.691   1.115   4.266 -0.0944 -0.3014  1.5324
  460MOL0     H60657   6.767   1.243   4.441  1.7577  1.4071 -0.7523
  460MOL0     H60658   6.654   1.326   4.556 -0.0342 -4.5189  0.4130
  460MOL0     H60659   6.844   1.402   4.598  3.1033  0.0326 -0.4353
  460MOL0     H60660   6.775   1.535   4.490  2.4254  0.7167 -3.2504
  460MOL0     H60661   6.900   1.435   4.295  0.3582 -3.8568 -1.2313
  460MOL0     H60662   6.979   1.327   4.395 -1.4475  0.3406  1.2338
  460MOL0     H60663   7.008   1.633   4.427  0.8684  1.6393  3.0644
  460MOL0     H60664   7.065   1.519   4.540  2.0668 -0.1948 -1.7341
  460MOL0     H60665   7.236   1.596   4.388 -0.5994  0.3005  0.4094
  460MOL0     H60666   7.142   1.516   4.254 -0.8504 -2.7232  0.3180
  460MOL0     H60667   7.348   1.391   4.330  0.9192  1.1673  1.7158
  460MOL0     H60668   7.200   1.307   4.309  3.8292 -1.3458 -1.1372
  460MOL0     H60669   7.353   1.402   4.555  0.5856  0.9660 -0.7497
  460MOL0     H60670   7.195   1.329   4.575  1.3087 -0.0051  0.7207
  460MOL0     H60671   7.265   1.125   4.478  0.3994  0.5192 -0.6057
  460MOL0     H60672   7.379   1.182   4.611 -0.2539  1.2646  0.1792
  460MOL0     H60673   7.417   0.988   4.312 -3.9889  2.2070  1.0940
  460MOL0     H60674   7.724   0.926   4.250  1.5406  0.8476  0.2477
  460MOL0     H60675   7.765   1.072   4.148  1.1935 -1.7392 -1.1103
  460MOL0     H60676   7.590   1.029   3.985 -4.2547 -0.8867 -0.7085
  460MOL0     H60677   7.508   0.920   4.108 -0.2487  0.9099  0.1247
  460MOL0     H60678   7.779   0.849   4.033 -0.5934  2.7164  1.5572
  460MOL0     H60679   7.629   0.745   4.062 -1.8394  0.4404 -0.7652
  460MOL0     H60680   7.708   0.713   3.835  3.1238  1.2366 -2.2483
  460MOL0     H60681   7.696   0.896   3.811  0.0391  0.7893  1.6322
  460MOL0     H60682   7.573   0.525   3.800 -0.5712 -0.1596 -0.2700
  460MOL0     H60683   7.421   0.354   3.834 -0.0813 -0.0715 -1.6522
  460MOL0     H60684   6.975   0.120   3.828 -0.9905 -0.8021  0.2167
  460MOL0     H60685   6.772   0.006   3.873  0.9840  0.1373 -2.1640
  460MOL0     H60686   6.613  -0.049   4.047  1.8061 -1.6378 -2.7947
  460MOL0     H60687   6.564  -0.070   3.881 -1.2879  3.8300 -1.4061
  460MOL0     H60688   6.330  -0.046   3.968  0.8800 -0.1438 -1.2575
  460MOL0     H60689   6.392  -0.039   4.135 -1.7278 -3.2871  0.7954
  460MOL0     H60690   6.478  -0.266   4.114  1.4217  2.0192 -0.0517
  460MOL0     H60691   6.434  -0.258   3.934  0.0995  0.3136  0.3241
  460MOL0     H60692   6.243  -0.231   4.185 -0.5757 -1.0570  0.9555
  460MOL0     H60693   6.187  -0.268   4.023 -1.9560  0.2884  3.5637
  460MOL0     H60694   6.334  -0.428   4.224 -0.5563 -2.5291  0.6892
  460MOL0     H60695   6.331  -0.479   4.053  1.5853 -0.2541  1.2767
  460MOL0     H60696   6.080  -0.466   4.080 -2.6027  0.2679  2.8192
  460MOL0     H60697   6.100  -0.452   4.254  1.3527 -0.0663  0.2538
  460MOL0     H60698   6.197  -0.693   4.082  1.7782  0.9006  0.4139
  460MOL0     H60699   6.222  -0.675   4.254  1.4962 -0.1197 -1.7686
  460MOL0     H60700   5.966  -0.602   4.259 -0.6044  1.2848 -1.7001
  460MOL0     H60701   6.002  -0.779   4.259 -0.3276  1.1948  2.4616
  460MOL0     H60702   6.565   0.361   3.972 -0.2142  2.4032  0.8414
  460MOL0     H60703   6.791   0.494   3.946 -0.3461 -0.8455  3.1893
  460MOL0     H60704   7.107   0.631   3.931 -0.0640 -0.4265  2.6399
  460MOL0     H60705   7.282   0.814   3.914  0.7548 -0.7044  0.6384
  460MOL0     H60706   6.371   1.413   4.282  1.4810  0.6411 -4.8759
  460MOL0     H60707   6.222   1.253   4.203 -0.8631 -1.8266 -2.1330
  460MOL0     H60708   6.027   0.949   4.068 -1.9467  0.3958  1.8724
  460MOL0     H60709   5.838   0.814   4.008 -0.5599 -0.5481  1.1116
  460MOL0     H60710   5.626   0.615   4.207  0.6909  0.9340  2.1456
  460MOL0     H60711   5.761   0.525   4.272  0.3123 -0.4818  0.1429
  460MOL0     H60712   5.687   0.349   4.089  1.9280  0.8761 -0.9818
  460MOL0     H60713   5.612   0.362   4.250  0.1514 -0.0414 -1.3760
  460MOL0     H60714   5.438   0.496   4.152  2.8142  1.3840  1.1339
  460MOL0     H60715   5.427   0.336   4.088  3.1049 -1.7128 -0.2343
  460MOL0     H60716   5.408   0.532   3.902  0.2945  0.4108  1.0646
  460MOL0     H60717   5.574   0.570   3.964 -1.9854  0.7713  3.5740
  460MOL0     H60718   5.659   0.238   3.722 -1.3201  0.9934 -2.0681
  460MOL0     H60719   5.982   0.484   4.218 -0.0626  0.1513  3.1909
  460MOL0     H60720   6.185   0.593   4.274 -0.9692 -0.5969 -0.7490
  461MOL0     O60721   1.609   8.402   2.234 -0.6673  0.5565 -0.5340
  461MOL0     C60722   1.663   8.443   2.338 -0.1750  0.4867  0.0863
  461MOL0     O60723   1.610   8.456   2.464 -0.2347  0.6001 -0.4934
  461MOL0     C60724   1.477   8.415   2.495  0.0760  0.0708  0.1034
  461MOL0     C60725   1.403   8.309   2.436  0.2184 -0.6010 -0.9922
  461MOL0     C60726   1.293   8.263   2.506  0.3121  0.8787 -0.3129
  461MOL0     C60727   1.235   8.338   2.607 -0.4821 -0.4758  0.3837
  461MOL0     O60728   1.112   8.294   2.644  0.1646 -0.2566 -0.2331
  461MOL0     C60729   1.029   8.375   2.733  0.4690  0.1443 -0.6054
  461MOL0     C60730   0.954   8.485   2.661 -0.2303 -0.0319  0.5776
  461MOL0     C60731   0.857   8.417   2.566 -1.0968  0.0726  0.5617
  461MOL0     C60732   0.737   8.499   2.523 -0.1390 -0.0384 -0.1459
  461MOL0     C60733   0.673   8.446   2.397  0.3124  0.1246 -0.1756
  461MOL0     C60734   0.539   8.513   2.359  0.0027 -0.3940 -1.1213
  461MOL0     C60735   0.483   8.445   2.235  0.5913 -0.3498 -0.0094
  461MOL0     C60736   0.349   8.498   2.175 -0.7025  0.0231  0.2816
  461MOL0     N60737   0.240   8.524   2.273 -0.5501  0.8644  0.0802
  461MOL0     C60738   0.229   8.637   2.347  0.4618 -0.2541 -0.2204
  461MOL0     C60739   0.114   8.627   2.421  0.4778 -0.2399  0.3615
  461MOL0     C60740   0.061   8.732   2.513 -0.1128  0.1805  0.9483
  461MOL0     C60741  -0.049   8.812   2.444  0.2777 -0.3052  0.3325
  461MOL0     C60742  -0.131   8.907   2.534  0.1880  0.3612  0.1324
  461MOL0     C60743  -0.220   8.844   2.637  0.8299 -0.6326 -0.1235
  461MOL0     O60744  -0.305   8.757   2.564  0.7526 -0.2615 -0.0532
  461MOL0     C60745  -0.409   8.707   2.642 -1.1340  0.4420  0.8817
  461MOL0     C60746  -0.414   8.713   2.787 -0.0641  0.0668  0.1178
  461MOL0     C60747  -0.531   8.667   2.845 -0.3209 -0.5511  0.3449
  461MOL0     C60748  -0.637   8.610   2.774 -0.8231 -0.0673 -0.4470
  461MOL0     C60749  -0.764   8.572   2.833 -0.7647  0.4922 -0.4673
  461MOL0     O60750  -0.866   8.539   2.753  0.6117 -0.4906 -0.3647
  461MOL0     C60751  -0.985   8.519   2.805  0.4925  0.3527  0.0163
  461MOL0     C60752  -1.099   8.561   2.737 -0.6038 -1.4922  0.2560
  461MOL0     C60753  -1.224   8.551   2.796  0.6387  0.1564 -0.0236
  461MOL0     C60754  -1.247   8.485   2.916 -0.3372 -0.1427  0.1948
  461MOL0     O60755  -1.365   8.492   2.971  0.7568 -0.3056  0.3690
  461MOL0     C60756  -1.389   8.448   3.099  0.4399  0.4408  0.0950
  461MOL0     C60757  -1.536   8.435   3.123 -0.2890 -0.5394 -0.4841
  461MOL0     C60758  -1.570   8.354   3.241  0.5754  1.1144  0.8055
  461MOL0     C60759  -1.717   8.325   3.263 -0.5457  1.2515  0.0657
  461MOL0     C60760  -1.794   8.455   3.270 -0.0631 -0.3488 -0.3590
  461MOL0     C60761  -1.923   8.433   3.350  0.3738 -0.1125  0.2137
  461MOL0     C60762  -2.026   8.550   3.314 -0.7565 -0.7215 -0.3545
  461MOL0     C60763  -2.090   8.603   3.439 -0.3789 -0.8714  0.4202
  461MOL0    Cl60764  -2.232   8.513   3.486  0.0294 -0.2073 -0.3404
  461MOL0     C60765  -1.136   8.434   2.980  0.2011  0.0762  0.7199
  461MOL0     C60766  -1.009   8.436   2.920 -0.7066 -0.1647  0.6931
  461MOL0     O60767  -0.760   8.572   2.960  0.4843  0.0527  0.1385
  461MOL0     C60768  -0.618   8.591   2.636  0.6513  0.4987 -0.3012
  461MOL0     C60769  -0.502   8.631   2.572 -0.6863  1.0657  0.1877
  461MOL0     N60770   0.061   8.498   2.383 -0.4836 -0.2570  0.0027
  461MOL0     N60771   0.134   8.436   2.296  0.1573 -0.2954 -0.0089
  461MOL0     C60772   1.312   8.441   2.668  0.5315  1.1296  0.0555
  461MOL0     C60773   1.432   8.471   2.612 -0.2979  0.3300 -1.0167
  461MOL0     C60774   1.802   8.478   2.320  0.0163  0.3028  0.5261
  461MOL0     C60775   1.865   8.543   2.425 -0.0621  0.0813  0.6557
  461MOL0     C60776   2.002   8.587   2.413 -0.4379 -0.0457 -0.5130
  461MOL0     C60777   2.066   8.565   2.290  0.3181  0.0815 -0.1620
  461MOL0     O60778   2.194   8.603   2.253 -0.4905  0.4878  0.0099
  461MOL0     C60779   2.279   8.657   2.355  0.0348 -0.2488  0.3953
  461MOL0     C60780   2.413   8.692   2.300 -0.3761  0.2848  0.0728
  461MOL0     C60781   2.528   8.706   2.403 -0.0557 -0.0014  0.0313
  461MOL0     C60782   2.657   8.649   2.366 -0.3208 -0.0550  0.3203
  461MOL0     C60783   2.770   8.679   2.458 -0.1323  1.3098 -0.2872
  461MOL0     C60784   2.865   8.701   2.536 -0.3171  0.2513 -0.6094
  461MOL0     C60785   1.998   8.505   2.191  0.3577 -0.0047  0.1957
  461MOL0     C60786   1.864   8.462   2.196 -0.3935  0.2021  0.3767
  461MOL0     H60787   1.432   8.267   2.340  0.7623 -1.8805 -0.2867
  461MOL0     H60788   1.224   8.182   2.486 -1.2156  1.8055  0.9814
  461MOL0     H60789   1.084   8.421   2.815  0.1947  1.0211 -0.8949
  461MOL0     H60790   0.958   8.306   2.778 -0.4072  2.0848  1.1743
  461MOL0     H60791   1.029   8.550   2.614  2.0539 -2.2410  0.8995
  461MOL0     H60792   0.904   8.547   2.735  1.4485  2.5750 -0.3426
  461MOL0     H60793   0.822   8.319   2.602 -0.4936 -1.0264 -1.6297
  461MOL0     H60794   0.918   8.375   2.485 -2.2689  1.4232 -1.0866
  461MOL0     H60795   0.663   8.486   2.603  0.8552 -1.3126  0.6252
  461MOL0     H60796   0.767   8.603   2.512  0.2981  0.0406  1.4372
  461MOL0     H60797   0.653   8.341   2.420 -2.0788  0.3400 -0.9612
  461MOL0     H60798   0.745   8.460   2.316 -0.1176 -1.8201 -0.9334
  461MOL0     H60799   0.555   8.621   2.350  1.5124 -0.4233  0.6751
  461MOL0     H60800   0.469   8.504   2.443  1.1486 -2.4218 -0.3021
  461MOL0     H60801   0.553   8.444   2.151  0.1829 -1.6183 -0.3544
  461MOL0     H60802   0.470   8.338   2.254  0.8397 -1.0587 -3.3399
  461MOL0     H60803   0.315   8.421   2.105  0.2349 -0.4399  0.3318
  461MOL0     H60804   0.368   8.593   2.125  0.4726 -0.1549  0.3708
  461MOL0     H60805   0.294   8.722   2.329 -0.4770  0.0482 -2.4685
  461MOL0     H60806   0.136   8.808   2.537  2.0809  0.2101 -4.5511
  461MOL0     H60807   0.026   8.676   2.600 -0.5765  0.0558  0.6850
  461MOL0     H60808  -0.116   8.742   2.391  0.4453 -1.4618  1.5920
  461MOL0     H60809  -0.010   8.886   2.374 -0.7149  1.0209  1.1459
  461MOL0     H60810  -0.074   8.993   2.573 -1.4876  1.7393 -0.3190
  461MOL0     H60811  -0.199   8.955   2.463  2.1192  2.2059 -0.5716
  461MOL0     H60812  -0.274   8.911   2.705  0.5622  1.3152 -2.1322
  461MOL0     H60813  -0.154   8.785   2.702 -0.3379  1.9668  3.8139
  461MOL0     H60814  -0.335   8.761   2.844 -0.3254  0.6668 -0.0083
  461MOL0     H60815  -0.535   8.688   2.952  2.0611 -0.9745  0.5560
  461MOL0     H60816  -1.095   8.601   2.636 -3.3114 -1.9194 -0.0924
  461MOL0     H60817  -1.316   8.600   2.764 -0.4720 -0.3847  2.1772
  461MOL0     H60818  -1.351   8.524   3.168  1.6683 -0.0300 -0.0344
  461MOL0     H60819  -1.344   8.349   3.112  1.2915  0.6966 -0.7880
  461MOL0     H60820  -1.580   8.393   3.033 -0.5518  0.8480 -1.0355
  461MOL0     H60821  -1.580   8.534   3.141 -0.9479 -1.2518  2.2303
  461MOL0     H60822  -1.525   8.414   3.321  2.4717 -1.5111  1.8371
  461MOL0     H60823  -1.517   8.259   3.232  0.0838  0.9961 -1.1925
  461MOL0     H60824  -1.758   8.261   3.185  0.2619 -0.9803  1.3856
  461MOL0     H60825  -1.709   8.268   3.356 -0.2914  1.5562  0.2315
  461MOL0     H60826  -1.814   8.478   3.165  0.5685  0.0369 -0.3961
  461MOL0     H60827  -1.738   8.536   3.318 -0.0551  0.4912 -1.7162
  461MOL0     H60828  -1.890   8.427   3.454 -1.7325 -1.3718  0.8646
  461MOL0     H60829  -1.976   8.339   3.335  1.9912 -1.2413  1.2841
  461MOL0     H60830  -1.973   8.635   3.270 -0.5788 -0.4123  0.4314
  461MOL0     H60831  -2.106   8.527   3.244 -1.6051  0.9442  0.0008
  461MOL0     H60832  -2.139   8.696   3.409  0.6367  0.0715  1.5501
  461MOL0     H60833  -2.018   8.624   3.519 -2.0850 -2.7584  2.5726
  461MOL0     H60834  -1.155   8.385   3.075 -3.9946  2.2436  1.2615
  461MOL0     H60835  -0.921   8.392   2.967 -0.5336  0.1793  0.6945
  461MOL0     H60836  -0.701   8.547   2.581 -1.5577  3.1680  0.6992
  461MOL0     H60837  -0.491   8.610   2.466 -0.0192 -0.6022  0.5643
  461MOL0     H60838   1.288   8.500   2.756  3.0879  0.7545  1.1056
  461MOL0     H60839   1.492   8.548   2.660 -1.6805 -0.3300  2.0887
  461MOL0     H60840   1.816   8.560   2.521 -0.7416  2.1141  0.0130
  461MOL0     H60841   2.056   8.629   2.497 -1.5245 -0.8554  0.6185
  461MOL0     H60842   2.281   8.583   2.436  2.6428  0.4918  1.0898
  461MOL0     H60843   2.218   8.740   2.391 -1.0583 -0.3664 -1.1079
  461MOL0     H60844   2.440   8.612   2.231 -1.5883 -0.6608  0.6428
  461MOL0     H60845   2.406   8.779   2.234 -1.8778 -0.4435 -0.7787
  461MOL0     H60846   2.505   8.668   2.503 -0.9060  0.9255  0.2084
  461MOL0     H60847   2.540   8.814   2.420  1.7349 -0.0411 -0.7632
  461MOL0     H60848   2.652   8.541   2.351  1.9052 -0.4478  1.8752
  461MOL0     H60849   2.699   8.688   2.273  2.7535 -0.9523  1.2155
  461MOL0     H60850   2.946   8.715   2.605 -2.0935  0.4653  1.5578
  461MOL0     H60851   2.050   8.492   2.096  0.4335 -1.5984  0.4354
  461MOL0     H60852   1.814   8.425   2.107  1.4342  1.1505 -1.1041
  462MOL0     O60853   7.801   6.085  10.827  0.1229 -0.2875  0.3995
  462MOL0     C60854   7.739   5.979  10.837  0.2152  0.1426  0.6496
  462MOL0     O60855   7.791   5.856  10.864  0.6260 -0.7534  0.3749
  462MOL0     C60856   7.921   5.839  10.898  0.7322 -0.1724  0.2380
  462MOL0     C60857   7.957   5.710  10.934 -0.0697 -0.2096 -0.5727
  462MOL0     C60858   8.090   5.682  10.965 -0.2055 -0.3191 -1.3234
  462MOL0     C60859   8.184   5.773  10.971 -0.0349 -0.6904  0.2665
  462MOL0     O60860   8.308   5.737  11.020  0.4057 -0.1934  0.6842
  462MOL0     C60861   8.404   5.841  11.038  0.1151  0.6936 -0.1714
  462MOL0     C60862   8.519   5.794  11.138  0.2754  0.4395  0.5079
  462MOL0     C60863   8.593   5.656  11.108 -0.0888 -0.1117  1.2497
  462MOL0     C60864   8.668   5.675  10.978  0.2416  0.0028 -0.4756
  462MOL0     C60865   8.774   5.578  10.955  0.9337 -0.9645 -0.1332
  462MOL0     C60866   8.848   5.601  10.819  0.1360  0.2105 -0.6351
  462MOL0     C60867   8.967   5.500  10.800  0.4147 -0.9371 -0.6204
  462MOL0     C60868   9.074   5.550  10.899 -0.4438  0.6676  0.9897
  462MOL0     N60869   9.206   5.486  10.875  0.5940 -0.6861  0.2678
  462MOL0     C60870   9.232   5.351  10.860 -0.3176 -0.8413 -0.5719
  462MOL0     C60871   9.367   5.348  10.865 -0.4887  0.4221 -0.4204
  462MOL0     C60872   9.462   5.236  10.853  0.5612 -0.1905  1.2540
  462MOL0     C60873   9.502   5.230  10.708 -0.3364 -0.0848 -0.1893
  462MOL0     C60874   9.610   5.130  10.681 -0.3588  0.3190 -0.5359
  462MOL0     C60875   9.568   4.980  10.698 -0.6515  0.8839 -0.5161
  462MOL0     O60876   9.452   4.949  10.622 -0.6332  0.5302 -0.6172
  462MOL0     C60877   9.386   4.826  10.636  0.5206  1.2340  0.1011
  462MOL0     C60878   9.250   4.828  10.599 -0.3323  0.3275 -0.3482
  462MOL0     C60879   9.172   4.718  10.631  0.4693 -0.7619  1.3538
  462MOL0     C60880   9.216   4.601  10.683  0.3555  0.2913 -0.2608
  462MOL0     C60881   9.128   4.488  10.711 -0.4064  0.6173  0.4312
  462MOL0     O60882   9.184   4.380  10.777 -0.7866 -0.3488  0.1109
  462MOL0     C60883   9.099   4.286  10.822  0.1448  0.0710 -0.1978
  462MOL0     C60884   9.023   4.298  10.938 -0.0162 -0.6666  0.7186
  462MOL0     C60885   8.958   4.187  10.993 -0.7993 -0.0730  0.8996
  462MOL0     C60886   8.967   4.065  10.929  0.3081  0.2429 -0.3668
  462MOL0     O60887   8.887   3.968  10.986  0.3336 -0.1428 -0.2691
  462MOL0     C60888   8.806   3.897  10.895  0.4449 -0.0297 -0.5154
  462MOL0     C60889   8.742   3.790  10.982 -0.0834 -0.2775 -1.2028
  462MOL0     C60890   8.626   3.850  11.064 -0.2508 -0.0947  0.9084
  462MOL0     C60891   8.608   3.802  11.207 -1.1207  0.6432 -0.4979
  462MOL0     C60892   8.477   3.846  11.274  0.5149  0.3888 -0.0003
  462MOL0     C60893   8.472   3.814  11.428  0.3981  0.1865 -0.3396
  462MOL0     C60894   8.415   3.676  11.464 -0.1588 -0.3717 -0.3836
  462MOL0     C60895   8.469   3.612  11.594  0.9138 -0.3582 -0.8005
  462MOL0    Cl60896   8.355   3.663  11.729 -0.6111  0.1614  0.2631
  462MOL0     C60897   9.055   4.049  10.827  0.4603  0.0307  0.0869
  462MOL0     C60898   9.120   4.164  10.768  0.0423 -0.1170  0.7456
  462MOL0     O60899   9.011   4.493  10.670  0.0110  0.2406 -0.4480
  462MOL0     C60900   9.348   4.600  10.728  0.1210  1.3496 -0.3571
  462MOL0     C60901   9.430   4.710  10.710 -0.3156 -0.9428  0.4117
  462MOL0     N60902   9.420   5.471  10.883 -0.0117  0.2228 -0.3069
  462MOL0     N60903   9.323   5.556  10.904 -0.0286  0.0846 -0.1054
  462MOL0     C60904   8.154   5.909  10.927 -0.1132 -0.6564  0.5620
  462MOL0     C60905   8.022   5.931  10.888 -0.3692 -0.5243 -0.3849
  462MOL0     C60906   7.605   5.971  10.785  0.5793  0.9872  0.0712
  462MOL0     C60907   7.536   5.847  10.782 -0.0477 -0.5939 -0.1848
  462MOL0     C60908   7.407   5.838  10.716 -0.3402 -0.3522 -0.4735
  462MOL0     C60909   7.341   5.952  10.674  0.2504 -0.3774 -0.3104
  462MOL0     O60910   7.219   5.957  10.610  1.1358  0.7392  0.4663
  462MOL0     C60911   7.127   5.843  10.629  0.0897  0.9353 -0.6054
  462MOL0     C60912   6.979   5.891  10.640  0.1401  0.3567 -0.0729
  462MOL0     C60913   6.861   5.783  10.631 -0.6330  0.6442 -0.0932
  462MOL0     C60914   6.726   5.839  10.641 -0.0200 -0.1905 -0.4168
  462MOL0     C60915   6.689   5.916  10.518  0.2002  0.5049  0.0408
  462MOL0     C60916   6.676   5.996  10.427  0.5555  0.9331  0.4628
  462MOL0     C60917   7.403   6.074  10.697  0.2990 -0.1219  1.1787
  462MOL0     C60918   7.530   6.086  10.745 -0.0620 -1.0583 -0.0296
  462MOL0     H60919   7.878   5.637  10.944  0.6751 -1.3207 -2.3323
  462MOL0     H60920   8.123   5.582  10.993  1.7978  0.2016 -1.6548
  462MOL0     H60921   8.357   5.918  11.100  0.7745 -0.9569  2.5770
  462MOL0     H60922   8.434   5.861  10.935 -0.3053 -0.0439 -0.4502
  462MOL0     H60923   8.472   5.793  11.237 -0.5031 -1.0498  0.1431
  462MOL0     H60924   8.591   5.877  11.134  0.7648 -0.0196 -1.0419
  462MOL0     H60925   8.530   5.567  11.106  2.3181 -1.9162 -0.5898
  462MOL0     H60926   8.670   5.648  11.185  2.3444 -0.5365 -1.0514
  462MOL0     H60927   8.594   5.671  10.898 -0.1855 -0.7949 -0.0562
  462MOL0     H60928   8.702   5.779  10.975  2.7682 -0.6194  1.9841
  462MOL0     H60929   8.731   5.477  10.958 -0.1182 -0.5612 -0.9046
  462MOL0     H60930   8.850   5.580  11.034  0.7991  2.4213  0.0702
  462MOL0     H60931   8.875   5.705  10.799 -0.7946  0.2009 -2.1906
  462MOL0     H60932   8.783   5.580  10.733 -1.0973 -0.3978  0.4145
  462MOL0     H60933   8.929   5.404  10.836 -1.3206  0.3859  1.3540
  462MOL0     H60934   9.000   5.501  10.696 -2.7219 -2.5933 -1.7715
  462MOL0     H60935   9.054   5.521  11.002  1.6743  1.5325  1.7029
  462MOL0     H60936   9.096   5.657  10.899  3.3472  0.0330  0.0091
  462MOL0     H60937   9.170   5.265  10.835  0.2898 -0.8597 -2.1499
  462MOL0     H60938   9.408   5.145  10.883  0.9801 -1.3625 -1.3341
  462MOL0     H60939   9.541   5.262  10.924  1.2767 -1.2675  0.8745
  462MOL0     H60940   9.549   5.328  10.693  0.8690 -0.6813 -0.4083
  462MOL0     H60941   9.420   5.211  10.637  0.5285  1.9189 -1.8375
  462MOL0     H60942   9.642   5.147  10.578 -1.1107  2.1506 -0.4995
  462MOL0     H60943   9.694   5.144  10.749 -0.1678  2.6873 -1.1868
  462MOL0     H60944   9.540   4.967  10.803 -0.8421  3.1046 -0.2248
  462MOL0     H60945   9.652   4.914  10.675  1.3676  3.4110 -0.8499
  462MOL0     H60946   9.201   4.915  10.555 -5.0438 -2.0299 -0.4424
  462MOL0     H60947   9.068   4.717  10.602  0.7126 -4.1883  0.2585
  462MOL0     H60948   8.989   4.395  10.971  0.5040 -0.2145 -0.0339
  462MOL0     H60949   8.898   4.188  11.084 -1.3040  1.4167  0.5796
  462MOL0     H60950   8.868   3.841  10.825 -0.8909 -0.5187 -1.3608
  462MOL0     H60951   8.739   3.962  10.837 -1.1983  0.0721  1.3834
  462MOL0     H60952   8.821   3.745  11.042 -0.6357  0.4556  0.1078
  462MOL0     H60953   8.705   3.711  10.917 -1.9923 -0.9091  0.5519
  462MOL0     H60954   8.539   3.816  11.006  0.1211  2.1121 -1.0831
  462MOL0     H60955   8.624   3.959  11.063 -0.8964  0.2904 -6.0980
  462MOL0     H60956   8.615   3.694  11.223 -0.7241  0.9393  1.5623
  462MOL0     H60957   8.694   3.842  11.262  0.0881 -0.3849 -1.5760
  462MOL0     H60958   8.391   3.794  11.232 -0.0184  0.7283  0.6499
  462MOL0     H60959   8.455   3.951  11.258 -0.6843  0.2023  0.3207
  462MOL0     H60960   8.413   3.896  11.469  1.4179  0.2968  0.9515
  462MOL0     H60961   8.574   3.818  11.466  0.3770  1.3649 -0.3602
  462MOL0     H60962   8.309   3.696  11.480  0.1629  0.6169  0.6100
  462MOL0     H60963   8.417   3.606  11.380 -0.2991  0.1951 -0.8616
  462MOL0     H60964   8.569   3.648  11.621  1.2150 -0.6231 -1.5458
  462MOL0     H60965   8.480   3.504  11.586  0.7340 -0.5159  0.6777
  462MOL0     H60966   9.070   3.949  10.788 -2.3821 -0.9416  1.1882
  462MOL0     H60967   9.190   4.139  10.689 -1.6837 -0.5772 -0.6859
  462MOL0     H60968   9.378   4.505  10.772  0.1190  0.9287 -1.2382
  462MOL0     H60969   9.525   4.719  10.761  0.0657 -0.0917 -0.4146
  462MOL0     H60970   8.226   5.990  10.921  0.0386 -0.8984 -2.8926
  462MOL0     H60971   8.004   6.036  10.867 -1.2915 -0.4361  0.7719
  462MOL0     H60972   7.587   5.757  10.816  0.7258  0.3936  1.3918
  462MOL0     H60973   7.352   5.745  10.702 -2.4511  1.1891 -3.3726
  462MOL0     H60974   7.145   5.785  10.719 -2.7799  0.7572 -0.0498
  462MOL0     H60975   7.130   5.773  10.545 -0.2207 -0.7292  0.7292
  462MOL0     H60976   6.958   5.942  10.735 -0.3426 -0.0016  0.0128
  462MOL0     H60977   6.985   5.962  10.557  1.1077 -0.3882 -0.6602
  462MOL0     H60978   6.871   5.711  10.712  1.3664  0.6095 -0.3229
  462MOL0     H60979   6.871   5.727  10.538  1.5945  2.8751 -1.3225
  462MOL0     H60980   6.655   5.756  10.649 -1.3649  0.9625  0.3377
  462MOL0     H60981   6.715   5.892  10.736 -3.2246  1.2994 -1.4508
  462MOL0     H60982   6.675   6.063  10.343  1.1275 -0.5154 -0.7671
  462MOL0     H60983   7.358   6.171  10.678  4.0911  1.9206  1.5924
  462MOL0     H60984   7.570   6.187  10.739 -0.9754 -0.7909 -3.0086
  463MOL0     O60985   0.412   3.898   2.274  0.3360 -0.2170  0.0745
  463MOL0     C60986   0.438   3.847   2.381  0.5593 -0.4169 -0.8721
  463MOL0     O60987   0.346   3.794   2.475  0.4270  0.1666 -0.6587
  463MOL0     C60988   0.219   3.790   2.437  0.9327 -0.0248 -0.6115
  463MOL0     C60989   0.129   3.868   2.508 -0.7570  0.0534  0.0459
  463MOL0     C60990  -0.009   3.853   2.505  0.7206 -0.6631  0.1590
  463MOL0     C60991  -0.063   3.759   2.420  0.9825 -0.1154 -0.5732
  463MOL0     O60992  -0.208   3.758   2.413 -0.3815 -0.0290  0.7555
  463MOL0     C60993  -0.279   3.692   2.313  0.3921  0.1839 -0.1703
  463MOL0     C60994  -0.425   3.738   2.314 -0.2598 -0.1548  0.2540
  463MOL0     C60995  -0.506   3.678   2.208 -0.1615 -0.0301 -0.8346
  463MOL0     C60996  -0.627   3.763   2.168  0.4086  0.7503  0.6965
  463MOL0     C60997  -0.716   3.679   2.076  0.5004 -0.3066 -0.0549
  463MOL0     C60998  -0.827   3.758   2.012  0.1450 -0.3289 -0.2446
  463MOL0     C60999  -0.930   3.793   2.123 -0.2657  0.3988  0.6304
  463MOL0     C61000  -1.039   3.900   2.077 -0.0649 -0.0058  0.9798
  463MOL0     N61001  -0.983   4.037   2.058 -0.5722  0.4952  0.0009
  463MOL0     C61002  -0.994   4.119   1.952  0.6402  1.1211  0.3849
  463MOL0     C61003  -0.931   4.230   1.996  0.4982 -0.4871  0.5343
  463MOL0     C61004  -0.906   4.348   1.914  0.7212 -0.3054 -0.1543
  463MOL0     C61005  -0.752   4.379   1.903 -0.2948 -0.8189 -0.2726
  463MOL0     C61006  -0.725   4.506   1.810 -0.4650  1.4463  0.5696
  463MOL0     C61007  -0.704   4.640   1.875 -0.6425 -0.2348 -0.1583
  463MOL0     O61008  -0.593   4.643   1.970 -0.0069 -0.0120 -0.3268
  463MOL0     C61009  -0.461   4.650   1.933  1.0640 -0.3313  0.0935
  463MOL0     C61010  -0.391   4.538   1.918 -0.4375  0.5718  0.0138
  463MOL0     C61011  -0.259   4.543   1.881 -0.1384  0.5682 -0.2715
  463MOL0     C61012  -0.190   4.657   1.862 -0.3789 -0.2244 -0.9209
  463MOL0     C61013  -0.065   4.660   1.796 -0.8185 -0.8681 -0.2154
  463MOL0     O61014  -0.042   4.757   1.704 -0.3377 -0.5151  0.4811
  463MOL0     C61015   0.089   4.773   1.662  0.3199  0.4859  0.7024
  463MOL0     C61016   0.161   4.879   1.711 -0.4851  0.8421  0.1040
  463MOL0     C61017   0.296   4.887   1.673 -0.6786 -0.1985  0.8099
  463MOL0     C61018   0.356   4.806   1.579  0.2024 -0.4387  0.4860
  463MOL0     O61019   0.490   4.835   1.557  0.2718  0.2989 -0.0810
  463MOL0     C61020   0.573   4.754   1.472  1.2696 -0.2604 -0.5856
  463MOL0     C61021   0.715   4.799   1.453 -0.2453  0.5279 -0.4386
  463MOL0     C61022   0.793   4.789   1.587  0.6360 -0.1627 -0.3754
  463MOL0     C61023   0.939   4.840   1.568  0.9570 -0.1907 -0.0395
  463MOL0     C61024   1.026   4.781   1.679  0.6969  0.1638 -0.3351
  463MOL0     C61025   1.178   4.826   1.662 -0.0541 -1.1251  0.3096
  463MOL0     C61026   1.240   4.754   1.781 -0.4691  0.3770 -0.4283
  463MOL0     C61027   1.386   4.799   1.808 -0.1563  0.9024 -0.2613
  463MOL0    Cl61028   1.494   4.734   1.679 -0.5213  0.2605 -0.4726
  463MOL0     C61029   0.279   4.697   1.528  0.8166  0.0274 -0.5153
  463MOL0     C61030   0.142   4.688   1.565  0.0009 -0.2618 -0.9470
  463MOL0     O61031   0.017   4.572   1.819 -0.5343  0.5550  0.0100
  463MOL0     C61032  -0.259   4.776   1.889  0.0012 -0.0315  0.1260
  463MOL0     C61033  -0.398   4.770   1.932 -0.3286  0.3063 -0.4130
  463MOL0     N61034  -0.892   4.215   2.123 -0.4795  0.6222 -0.5441
  463MOL0     N61035  -0.925   4.094   2.167 -0.4550  0.2834  0.1459
  463MOL0     C61036   0.017   3.677   2.342 -0.5916  0.0114  0.2884
  463MOL0     C61037   0.159   3.695   2.352  0.3509  0.5982  0.0586
  463MOL0     C61038   0.578   3.849   2.421 -0.4006  0.2667  0.8246
  463MOL0     C61039   0.621   3.747   2.512 -0.0971 -0.1071 -0.1509
  463MOL0     C61040   0.759   3.732   2.530 -0.4209 -0.5531 -0.0013
  463MOL0     C61041   0.853   3.818   2.478 -0.5906  0.0860 -0.1792
  463MOL0     O61042   0.986   3.780   2.493 -0.0019 -0.2855 -0.2392
  463MOL0     C61043   1.079   3.848   2.415 -0.5951  0.3015  0.0178
  463MOL0     C61044   1.210   3.803   2.448 -0.3431  0.3980 -0.1642
  463MOL0     C61045   1.237   3.654   2.429  0.4556 -0.7682 -0.1838
  463MOL0     C61046   1.386   3.622   2.439  0.8398 -0.3885  0.8620
  463MOL0     C61047   1.446   3.648   2.563  0.2600  0.8241  0.0016
  463MOL0     C61048   1.487   3.668   2.674 -0.4586 -0.3551 -0.0181
  463MOL0     C61049   0.815   3.925   2.394  0.3894  0.2616  0.0888
  463MOL0     C61050   0.682   3.936   2.364 -0.2274 -0.6112  0.1588
  463MOL0     H61051   0.164   3.934   2.587 -0.8758  1.1484 -0.8029
  463MOL0     H61052  -0.081   3.905   2.567 -1.4044 -2.2416 -0.8099
  463MOL0     H61053  -0.288   3.585   2.334 -0.6526  0.5912  1.7417
  463MOL0     H61054  -0.233   3.709   2.216  1.1096  0.4134  0.2071
  463MOL0     H61055  -0.431   3.846   2.297  1.4953 -0.1027 -0.1965
  463MOL0     H61056  -0.479   3.717   2.406  0.6511  1.0081  1.0972
  463MOL0     H61057  -0.539   3.584   2.255  1.2310  0.2659  0.8574
  463MOL0     H61058  -0.451   3.643   2.120  0.7658 -1.3177  0.2091
  463MOL0     H61059  -0.681   3.802   2.254 -1.0918  2.3471 -0.8792
  463MOL0     H61060  -0.578   3.847   2.118  2.9893 -0.9975  0.0648
  463MOL0     H61061  -0.760   3.595   2.129  1.3597 -0.3955  0.5237
  463MOL0     H61062  -0.664   3.626   1.996  0.0079 -0.3020 -0.3806
  463MOL0     H61063  -0.880   3.700   1.936  2.1901  0.7163 -2.5973
  463MOL0     H61064  -0.784   3.844   1.961 -1.0515 -0.1621 -1.0076
  463MOL0     H61065  -0.992   3.707   2.152 -0.7526 -0.9703 -3.8155
  463MOL0     H61066  -0.884   3.831   2.215  1.4189  2.0739 -0.8286
  463MOL0     H61067  -1.113   3.902   2.157 -0.8839 -0.5104  0.2506
  463MOL0     H61068  -1.093   3.867   1.988 -2.8702  1.1329  2.1493
  463MOL0     H61069  -1.024   4.094   1.851  0.4654  1.0029  0.4671
  463MOL0     H61070  -0.951   4.435   1.964  2.1124 -0.0690  0.7267
  463MOL0     H61071  -0.949   4.339   1.814 -0.8372 -0.7557  0.5253
  463MOL0     H61072  -0.688   4.302   1.859  0.7931 -0.0100 -0.1655
  463MOL0     H61073  -0.701   4.394   1.999  1.4031 -0.8064 -1.1331
  463MOL0     H61074  -0.640   4.479   1.746  0.4866 -1.6814  2.8864
  463MOL0     H61075  -0.813   4.515   1.745 -0.3161 -0.9067 -0.0840
  463MOL0     H61076  -0.797   4.678   1.919 -0.3457  0.0417  0.2466
  463MOL0     H61077  -0.666   4.702   1.793  0.6689  1.8022  1.8658
  463MOL0     H61078  -0.442   4.443   1.932 -0.1845  0.0740 -1.9944
  463MOL0     H61079  -0.211   4.447   1.860 -2.0344  0.0198 -2.4074
  463MOL0     H61080   0.120   4.949   1.782 -3.5285  0.0378 -0.6777
  463MOL0     H61081   0.363   4.955   1.725 -0.1128 -0.3237  0.2549
  463MOL0     H61082   0.519   4.753   1.377 -1.4725  2.8497  0.7512
  463MOL0     H61083   0.570   4.650   1.507 -0.1181 -0.3515 -0.9272
  463MOL0     H61084   0.726   4.894   1.401 -1.1118  0.1302 -1.3738
  463MOL0     H61085   0.765   4.727   1.388 -0.1580 -1.4943  1.7154
  463MOL0     H61086   0.795   4.687   1.627 -1.8642 -0.1652 -0.0541
  463MOL0     H61087   0.748   4.859   1.658  0.4484 -1.7685  1.1524
  463MOL0     H61088   0.965   4.805   1.468 -1.1112  0.1464 -0.7354
  463MOL0     H61089   0.940   4.949   1.563 -0.1193 -0.1771 -0.2344
  463MOL0     H61090   1.012   4.672   1.678 -1.3213  0.3389  1.5224
  463MOL0     H61091   0.983   4.816   1.773  1.8722  1.3168 -0.2050
  463MOL0     H61092   1.189   4.935   1.657  1.0329 -1.2363  0.0066
  463MOL0     H61093   1.212   4.784   1.567 -1.4701  2.9496 -2.2506
  463MOL0     H61094   1.184   4.777   1.872  0.0805  0.4533 -0.1046
  463MOL0     H61095   1.242   4.647   1.757 -1.0157  0.5704 -1.4163
  463MOL0     H61096   1.424   4.773   1.907 -0.5024  3.2385  0.5575
  463MOL0     H61097   1.375   4.908   1.812 -1.0242  0.7696  1.7458
  463MOL0     H61098   0.320   4.615   1.471 -0.7777 -1.1930  0.0271
  463MOL0     H61099   0.096   4.595   1.532  2.6210 -1.2836 -2.0492
  463MOL0     H61100  -0.229   4.880   1.887 -2.5223  0.8952  2.6776
  463MOL0     H61101  -0.462   4.855   1.949 -2.0643 -0.4500 -2.7235
  463MOL0     H61102  -0.029   3.605   2.275  1.0939 -1.1186  0.2843
  463MOL0     H61103   0.217   3.636   2.283 -0.1596 -1.3861  1.2499
  463MOL0     H61104   0.551   3.671   2.547 -0.3242 -0.6202 -1.6466
  463MOL0     H61105   0.801   3.653   2.591  2.4817  2.0734  1.7095
  463MOL0     H61106   1.080   3.956   2.435  2.0567  0.0422  1.8111
  463MOL0     H61107   1.066   3.827   2.308 -0.5775 -2.2402  0.4584
  463MOL0     H61108   1.274   3.856   2.376 -0.9798  0.8577 -0.3974
  463MOL0     H61109   1.234   3.819   2.554  1.5335 -1.6771 -0.1898
  463MOL0     H61110   1.195   3.605   2.341 -0.0390 -1.9182  0.6720
  463MOL0     H61111   1.193   3.610   2.519  0.3310  0.0136  0.1461
  463MOL0     H61112   1.410   3.519   2.411  2.8687  0.5198 -1.0980
  463MOL0     H61113   1.442   3.680   2.365  1.0809 -1.2205  0.3750
  463MOL0     H61114   1.521   3.709   2.767  1.3231  0.9463 -1.1646
  463MOL0     H61115   0.888   3.995   2.356  2.2593 -1.9421 -0.5917
  463MOL0     H61116   0.665   4.023   2.300  1.4697  0.0450  0.5376
  464MOL0     O61117   2.617   3.117   6.195  0.2560 -0.0061 -0.1923
  464MOL0     C61118   2.642   3.197   6.283  0.0381  0.3613 -0.0520
  464MOL0     O61119   2.546   3.272   6.340 -0.7229 -0.0963  0.3415
  464MOL0     C61120   2.411   3.288   6.312  0.3148  0.7988  0.0220
  464MOL0     C61121   2.362   3.277   6.181 -0.4155 -0.0126  0.3344
  464MOL0     C61122   2.226   3.285   6.161  0.4024 -0.4207 -0.2351
  464MOL0     C61123   2.134   3.319   6.264  0.9400 -0.3570 -0.4101
  464MOL0     O61124   1.998   3.337   6.252 -0.0332  0.0141 -0.7516
  464MOL0     C61125   1.952   3.391   6.138  0.3220 -0.3161  0.2207
  464MOL0     C61126   1.805   3.357   6.093 -0.1510 -0.1918 -0.6620
  464MOL0     C61127   1.765   3.434   5.967 -0.2476 -0.0990 -0.3367
  464MOL0     C61128   1.809   3.364   5.830 -0.6553  0.5204 -0.0885
  464MOL0     C61129   1.809   3.469   5.715 -0.3887 -0.7015 -0.6461
  464MOL0     C61130   1.680   3.428   5.642  0.0117 -0.7216  0.2509
  464MOL0     C61131   1.564   3.480   5.719 -0.2783 -1.0928  0.2136
  464MOL0     C61132   1.441   3.505   5.629  0.2799 -0.5871  0.7074
  464MOL0     N61133   1.318   3.537   5.697  0.4294  0.1779 -0.6652
  464MOL0     C61134   1.248   3.447   5.773 -0.7209  0.0831 -0.3796
  464MOL0     C61135   1.122   3.501   5.777 -0.2763  0.2842  0.0012
  464MOL0     C61136   1.004   3.444   5.855 -0.0106  0.8898  0.9674
  464MOL0     C61137   0.936   3.333   5.774 -0.2373  1.4270  1.0635
  464MOL0     C61138   0.809   3.281   5.836 -0.3163 -0.5051 -0.3766
  464MOL0     C61139   0.697   3.384   5.845  0.4884  0.5082 -0.2319
  464MOL0     O61140   0.585   3.313   5.892 -0.9861  0.4408 -0.6304
  464MOL0     C61141   0.470   3.376   5.887  0.8822 -0.9754  0.5505
  464MOL0     C61142   0.352   3.306   5.859 -0.2987 -0.3830  0.0012
  464MOL0     C61143   0.218   3.350   5.884  0.4180 -0.2808  0.0892
  464MOL0     C61144   0.201   3.484   5.923  0.0506  0.0808  0.9717
  464MOL0     C61145   0.063   3.532   5.955  1.0930  0.5712 -0.1423
  464MOL0     O61146  -0.046   3.453   5.907 -0.0407 -0.6016 -0.5668
  464MOL0     C61147  -0.163   3.504   5.946 -0.2561 -0.6033  0.3506
  464MOL0     C61148  -0.227   3.608   5.868  0.2975 -0.2755 -1.8003
  464MOL0     C61149  -0.357   3.652   5.917 -0.2798  0.8284 -0.8355
  464MOL0     C61150  -0.412   3.597   6.030 -0.4764  0.6444  0.4857
  464MOL0     O61151  -0.546   3.625   6.052  0.6202  0.4162  0.0191
  464MOL0     C61152  -0.627   3.506   6.069  0.0456  0.7775  0.1792
  464MOL0     C61153  -0.782   3.542   6.085 -0.6561  0.0046 -0.6400
  464MOL0     C61154  -0.808   3.629   6.210  0.8290  0.6576  0.0877
  464MOL0     C61155  -0.954   3.683   6.197 -0.3889 -0.3289 -0.7612
  464MOL0     C61156  -1.016   3.750   6.325 -0.2405  0.4222  1.0689
  464MOL0     C61157  -1.127   3.840   6.275 -0.4561 -0.6230  0.2337
  464MOL0     C61158  -1.231   3.855   6.383 -0.7055  0.2942 -0.4041
  464MOL0     C61159  -1.336   3.961   6.375  0.5459  0.0873  0.5852
  464MOL0    Cl61160  -1.282   4.091   6.254 -0.0772  0.1307  0.4154
  464MOL0     C61161  -0.338   3.504   6.111  0.7637 -0.0491  0.0825
  464MOL0     C61162  -0.212   3.461   6.065  0.4097  0.4609 -0.4105
  464MOL0     O61163   0.063   3.642   6.006 -0.1015 -0.2321 -0.2947
  464MOL0     C61164   0.316   3.558   5.942  0.1229 -0.9495 -0.8318
  464MOL0     C61165   0.444   3.506   5.932 -0.5974  0.3609 -0.1805
  464MOL0     N61166   1.114   3.613   5.703 -0.7562  0.1072  0.2952
  464MOL0     N61167   1.241   3.636   5.669  0.2047  0.0207  0.2422
  464MOL0     C61168   2.184   3.328   6.395  0.4664 -0.4642  0.4677
  464MOL0     C61169   2.321   3.308   6.418  0.1355 -0.0573  0.2151
  464MOL0     C61170   2.778   3.202   6.345 -0.3820 -0.6322  0.1671
  464MOL0     C61171   2.894   3.153   6.276 -0.1084  0.5864  0.2498
  464MOL0     C61172   3.020   3.150   6.333  0.5004 -0.2493 -0.3876
  464MOL0     C61173   3.034   3.178   6.470  0.4317 -0.8063 -0.3827
  464MOL0     O61174   3.151   3.185   6.542 -0.2522 -0.3948  0.3816
  464MOL0     C61175   3.278   3.161   6.470  1.1067 -0.9234  0.1475
  464MOL0     C61176   3.387   3.177   6.579 -0.1446 -0.1732  0.5951
  464MOL0     C61177   3.524   3.172   6.518 -0.1109 -0.4564  0.3877
  464MOL0     C61178   3.624   3.162   6.634 -0.9400  0.2056 -0.2313
  464MOL0     C61179   3.765   3.148   6.576  0.1590 -0.1035 -0.5166
  464MOL0     C61180   3.891   3.159   6.553  1.0656 -0.4236  0.5918
  464MOL0     C61181   2.918   3.210   6.548  0.3837 -0.0974 -0.0561
  464MOL0     C61182   2.789   3.228   6.484  0.0916  0.7055  0.9378
  464MOL0     H61183   2.422   3.250   6.094 -0.7487 -1.4844  0.5253
  464MOL0     H61184   2.193   3.265   6.059  1.8016 -0.5582 -0.6939
  464MOL0     H61185   2.013   3.368   6.049 -2.8340 -2.7039 -1.5286
  464MOL0     H61186   1.964   3.499   6.149 -0.6503 -0.4822  4.3157
  464MOL0     H61187   1.740   3.381   6.178  3.6756 -0.7377  2.7786
  464MOL0     H61188   1.803   3.248   6.083  1.3926 -0.1925 -1.2059
  464MOL0     H61189   1.812   3.531   5.985  0.9392 -0.0360 -3.2150
  464MOL0     H61190   1.657   3.447   5.970 -0.1185  1.9704 -2.0877
  464MOL0     H61191   1.913   3.332   5.835 -1.1782 -1.0568  1.3467
  464MOL0     H61192   1.742   3.280   5.809  0.4833  0.2935 -3.5311
  464MOL0     H61193   1.892   3.446   5.647  0.8475  0.8695  0.2741
  464MOL0     H61194   1.821   3.572   5.749  0.4984 -1.0440  0.1143
  464MOL0     H61195   1.667   3.322   5.622 -2.1823 -0.5200  0.2962
  464MOL0     H61196   1.689   3.483   5.548  1.3573 -0.0382  0.7546
  464MOL0     H61197   1.533   3.415   5.801 -1.8551 -0.1686  0.4023
  464MOL0     H61198   1.587   3.581   5.752  0.3812 -1.6521  1.5135
  464MOL0     H61199   1.414   3.417   5.569 -4.2521 -0.0980  1.6238
  464MOL0     H61200   1.470   3.589   5.565  0.1052 -0.9797  0.0983
  464MOL0     H61201   1.278   3.350   5.813 -3.4586  0.1250  2.0396
  464MOL0     H61202   0.937   3.529   5.869  1.0989  2.3287 -1.6629
  464MOL0     H61203   1.036   3.403   5.951  0.1669  0.8206  0.8794
  464MOL0     H61204   1.002   3.248   5.754 -2.9417  0.0697 -3.8026
  464MOL0     H61205   0.911   3.365   5.672  1.2547 -1.2249 -0.2481
  464MOL0     H61206   0.785   3.191   5.778  1.6067 -0.8724 -0.6850
  464MOL0     H61207   0.827   3.254   5.941  0.8415 -0.8857 -0.6545
  464MOL0     H61208   0.671   3.430   5.750 -0.6370 -1.6414 -1.0389
  464MOL0     H61209   0.718   3.454   5.926  3.6807 -2.0946  1.4412
  464MOL0     H61210   0.363   3.202   5.831  2.0172 -1.0412  2.8143
  464MOL0     H61211   0.123   3.298   5.881  0.8489 -1.4895  3.3840
  464MOL0     H61212  -0.181   3.650   5.780  2.5677  0.1634 -0.4736
  464MOL0     H61213  -0.412   3.722   5.855  0.5750 -0.2695 -2.9557
  464MOL0     H61214  -0.597   3.460   6.164 -1.2032 -1.3603 -0.3998
  464MOL0     H61215  -0.610   3.437   5.986  1.1066  2.8716 -1.4229
  464MOL0     H61216  -0.845   3.453   6.085 -0.3571 -0.2087 -0.8727
  464MOL0     H61217  -0.809   3.592   5.991 -2.9552 -0.3654 -0.2384
  464MOL0     H61218  -0.736   3.711   6.199  1.4638 -0.2353 -4.4981
  464MOL0     H61219  -0.805   3.574   6.305  0.4105  2.2408  1.0610
  464MOL0     H61220  -0.954   3.753   6.114 -2.1889  0.6243 -0.0113
  464MOL0     H61221  -1.017   3.595   6.179 -1.1127 -0.3490  1.5313
  464MOL0     H61222  -0.940   3.809   6.379 -0.0964  3.5417 -2.1760
  464MOL0     H61223  -1.054   3.663   6.379  0.7668 -0.3459  0.5741
  464MOL0     H61224  -1.176   3.792   6.190  0.0486 -0.6675 -0.0372
  464MOL0     H61225  -1.092   3.933   6.229 -1.4098 -1.2446 -1.8947
  464MOL0     H61226  -1.279   3.757   6.396 -1.4649  0.4153 -2.0627
  464MOL0     H61227  -1.180   3.885   6.476 -3.4668 -1.9492  2.0467
  464MOL0     H61228  -1.369   4.004   6.469 -1.8309  0.3436 -0.3158
  464MOL0     H61229  -1.423   3.911   6.331 -0.2203  0.0891  2.0471
  464MOL0     H61230  -0.385   3.455   6.196  0.4660 -0.5666 -0.3700
  464MOL0     H61231  -0.155   3.384   6.115  1.3249  1.5826  0.3379
  464MOL0     H61232   0.297   3.660   5.973  1.1101 -1.1818  0.6718
  464MOL0     H61233   0.526   3.571   5.961 -1.6496  2.0271 -0.7824
  464MOL0     H61234   2.118   3.350   6.478  0.1950 -1.6448  0.5775
  464MOL0     H61235   2.355   3.333   6.518  2.0418 -0.9302 -0.1811
  464MOL0     H61236   2.891   3.125   6.171  2.0808  0.4787  0.1704
  464MOL0     H61237   3.108   3.117   6.278  0.8170  0.5943 -0.4013
  464MOL0     H61238   3.289   3.237   6.393 -1.3906 -1.5370 -0.9288
  464MOL0     H61239   3.283   3.057   6.435 -0.7621 -0.2255 -2.5089
  464MOL0     H61240   3.372   3.272   6.630  0.6354 -0.1668  0.8372
  464MOL0     H61241   3.368   3.101   6.655 -5.0399 -0.0572 -0.2005
  464MOL0     H61242   3.538   3.263   6.459  1.8103 -0.3047  1.0025
  464MOL0     H61243   3.530   3.081   6.458 -0.6768 -0.6787  0.6641
  464MOL0     H61244   3.622   3.248   6.702 -0.4836 -0.1565  0.2442
  464MOL0     H61245   3.611   3.080   6.705  3.4124  0.9762  1.7738
  464MOL0     H61246   3.997   3.171   6.542  0.8746 -0.9960 -3.6020
  464MOL0     H61247   2.922   3.243   6.652  0.7658 -1.3080  0.3278
  464MOL0     H61248   2.715   3.270   6.551  0.5773  1.0644  1.2558
  465MOL0     O61249   8.440   0.318   6.643 -0.1808  0.1368  0.0787
  465MOL0     C61250   8.423   0.330   6.770 -0.7329 -0.0275 -0.0388
  465MOL0     O61251   8.305   0.309   6.837  0.0093 -0.0350  0.1586
  465MOL0     C61252   8.182   0.292   6.771 -0.6820 -0.4076 -0.3224
  465MOL0     C61253   8.154   0.336   6.646  0.3659  0.3477  0.6400
  465MOL0     C61254   8.018   0.329   6.594  0.3059 -0.5631  0.9634
  465MOL0     C61255   7.918   0.272   6.669  0.4454  0.2623 -0.5704
  465MOL0     O61256   7.799   0.256   6.612  0.7206 -0.1399  0.1122
  465MOL0     C61257   7.678   0.236   6.697 -0.4645  0.0281 -0.0052
  465MOL0     C61258   7.558   0.314   6.638 -0.5750 -0.1901  0.3337
  465MOL0     C61259   7.449   0.349   6.744 -0.2783  0.8131  0.1885
  465MOL0     C61260   7.340   0.434   6.683  0.5508  0.2198  1.5708
  465MOL0     C61261   7.274   0.538   6.772 -0.2998  0.0060  0.1494
  465MOL0     C61262   7.152   0.617   6.716 -0.5494  0.0041 -0.0061
  465MOL0     C61263   7.079   0.705   6.816 -0.4676  0.3696  0.5068
  465MOL0     C61264   6.953   0.781   6.772  0.1600  1.1980 -0.3526
  465MOL0     N61265   6.866   0.707   6.682  0.5672 -0.7371 -0.4188
  465MOL0     C61266   6.813   0.583   6.693 -0.0925 -0.4050 -0.3199
  465MOL0     C61267   6.741   0.558   6.579 -1.1136  0.0741  0.6265
  465MOL0     C61268   6.690   0.428   6.534  0.1680  0.0007 -0.3957
  465MOL0     C61269   6.548   0.446   6.478 -0.4744  1.2054  0.0590
  465MOL0     C61270   6.447   0.405   6.589 -0.5311 -0.6783 -0.2967
  465MOL0     C61271   6.304   0.437   6.551 -0.6396  0.4352  0.0360
  465MOL0     O61272   6.254   0.339   6.455  0.3857  0.6713  0.1055
  465MOL0     C61273   6.122   0.368   6.411 -1.6826  0.2898  0.4473
  465MOL0     C61274   6.019   0.431   6.481 -0.3877  0.4619  0.3355
  465MOL0     C61275   5.903   0.478   6.414 -0.2736 -0.5836  0.2179
  465MOL0     C61276   5.876   0.449   6.277 -1.5406  0.4169  0.4028
  465MOL0     C61277   5.755   0.506   6.218  0.0601  0.8897 -0.2551
  465MOL0     O61278   5.671   0.567   6.312 -0.0136  0.9207 -0.1571
  465MOL0     C61279   5.540   0.615   6.290  0.4186 -0.2851 -0.3304
  465MOL0     C61280   5.513   0.699   6.184  0.4399  0.8028 -0.8076
  465MOL0     C61281   5.383   0.760   6.177 -0.1824  0.2461 -0.7258
  465MOL0     C61282   5.276   0.717   6.261 -0.6346  0.6591  0.2914
  465MOL0     O61283   5.151   0.751   6.227 -0.3056 -0.1247 -0.6306
  465MOL0     C61284   5.057   0.785   6.331 -0.0166  0.6646 -0.2713
  465MOL0     C61285   4.955   0.666   6.336  0.5529  0.0823 -0.0705
  465MOL0     C61286   4.882   0.671   6.469  0.2372 -0.1706  0.1386
  465MOL0     C61287   4.766   0.572   6.468  0.0712  0.7376  0.4285
  465MOL0     C61288   4.773   0.501   6.601 -0.3105 -0.1221  1.0710
  465MOL0     C61289   4.681   0.382   6.603  0.3358  0.1032  0.1185
  465MOL0     C61290   4.669   0.314   6.742  0.0541 -1.1964 -0.7461
  465MOL0     C61291   4.555   0.385   6.815 -0.7629  0.7456  0.2072
  465MOL0    Cl61292   4.398   0.330   6.757  0.5008  0.2760 -0.5036
  465MOL0     C61293   5.313   0.630   6.369  0.0221 -0.0602 -0.0946
  465MOL0     C61294   5.444   0.578   6.384  0.9981  0.0525 -0.9081
  465MOL0     O61295   5.735   0.481   6.104  0.3217  0.5278  0.7262
  465MOL0     C61296   5.972   0.368   6.214 -0.3408 -0.6335  0.2263
  465MOL0     C61297   6.096   0.341   6.272 -0.1166  0.4118 -0.1549
  465MOL0     N61298   6.759   0.672   6.503  0.2757 -1.2488  0.0592
  465MOL0     N61299   6.831   0.757   6.558  0.2398 -0.7138  0.3548
  465MOL0     C61300   7.949   0.213   6.792  1.1790 -0.0528  0.5333
  465MOL0     C61301   8.083   0.229   6.840 -0.0060 -0.1667  0.6734
  465MOL0     C61302   8.543   0.337   6.855  0.8710  0.9858  1.0185
  465MOL0     C61303   8.674   0.351   6.794  0.4562 -0.4236 -0.0588
  465MOL0     C61304   8.791   0.359   6.875 -0.2882 -0.4394 -0.4128
  465MOL0     C61305   8.781   0.360   7.014 -0.4257 -0.6324 -0.3620
  465MOL0     O61306   8.889   0.375   7.088  0.5453  1.0247  0.6659
  465MOL0     C61307   8.884   0.444   7.219  0.6142 -0.4605 -0.2540
  465MOL0     C61308   9.010   0.526   7.241 -0.3743 -0.8236 -0.1195
  465MOL0     C61309   9.000   0.584   7.386 -0.0224 -0.2114 -0.8177
  465MOL0     C61310   9.136   0.645   7.427 -0.1154 -0.4732 -0.0759
  465MOL0     C61311   9.121   0.685   7.572  0.5090 -0.6059 -0.8236
  465MOL0     C61312   9.116   0.738   7.685 -0.4042  0.0465  0.5663
  465MOL0     C61313   8.655   0.359   7.073  0.6166 -0.8661  0.0502
  465MOL0     C61314   8.534   0.334   7.001  0.3037 -0.4646 -0.3589
  465MOL0     H61315   8.225   0.395   6.588  1.1928  0.6695  1.9387
  465MOL0     H61316   8.002   0.366   6.493  0.1194  0.0666  1.2149
  465MOL0     H61317   7.691   0.270   6.800  3.3904 -0.4396 -0.2084
  465MOL0     H61318   7.657   0.129   6.698 -1.0179  0.0964 -1.5348
  465MOL0     H61319   7.511   0.257   6.557 -1.4363  1.4408 -0.3740
  465MOL0     H61320   7.592   0.410   6.598  0.0865 -0.5728 -0.0366
  465MOL0     H61321   7.509   0.406   6.816  2.9906 -3.1973  1.0060
  465MOL0     H61322   7.406   0.259   6.789 -2.7909  1.8020 -0.0678
  465MOL0     H61323   7.376   0.491   6.596 -0.7366 -1.0315  0.1674
  465MOL0     H61324   7.270   0.370   6.629  0.0788  1.8329  0.1722
  465MOL0     H61325   7.353   0.608   6.801 -0.9160  1.0178 -0.5380
  465MOL0     H61326   7.244   0.468   6.850 -1.6470 -0.0670 -0.4001
  465MOL0     H61327   7.089   0.542   6.668 -1.3703  0.3244  0.5389
  465MOL0     H61328   7.186   0.678   6.632  1.1351  1.3176  1.5242
  465MOL0     H61329   7.057   0.638   6.900 -1.7876  0.5067  0.2989
  465MOL0     H61330   7.154   0.779   6.844  1.2047  0.5829 -3.8003
  465MOL0     H61331   6.972   0.879   6.728  0.5534  0.7041 -1.3114
  465MOL0     H61332   6.901   0.800   6.867  0.2701 -0.7764  0.1378
  465MOL0     H61333   6.831   0.513   6.775  0.5584  3.3008  3.0064
  465MOL0     H61334   6.688   0.361   6.621  0.5627  0.3234 -0.1393
  465MOL0     H61335   6.757   0.383   6.460  2.5254 -1.5312  2.4632
  465MOL0     H61336   6.525   0.369   6.404 -3.0773  0.4154  1.5369
  465MOL0     H61337   6.536   0.544   6.431 -0.8539  0.8348 -0.6339
  465MOL0     H61338   6.461   0.299   6.613  4.9669  0.1044  1.4125
  465MOL0     H61339   6.471   0.467   6.676 -1.0314  3.6222 -2.8947
  465MOL0     H61340   6.318   0.535   6.504  2.6734  0.6586  1.2564
  465MOL0     H61341   6.249   0.441   6.646 -2.1352  3.6568 -0.8085
  465MOL0     H61342   6.041   0.447   6.586  1.9569 -0.8235  0.1027
  465MOL0     H61343   5.829   0.540   6.464 -1.0643 -2.0332  0.9015
  465MOL0     H61344   5.596   0.718   6.117  3.1090  1.7398  2.4863
  465MOL0     H61345   5.351   0.822   6.095 -0.5608  2.2005  0.8171
  465MOL0     H61346   4.998   0.873   6.305 -0.9627  0.7801  2.0384
  465MOL0     H61347   5.115   0.811   6.420 -0.3050  2.3286 -0.5389
  465MOL0     H61348   5.003   0.570   6.319 -0.0117 -0.4961  1.4147
  465MOL0     H61349   4.882   0.677   6.255 -0.6466  1.6898  1.1511
  465MOL0     H61350   4.838   0.770   6.487  1.1926  0.4791 -0.9231
  465MOL0     H61351   4.949   0.642   6.550  4.3662 -2.0000 -3.4818
  465MOL0     H61352   4.670   0.623   6.467  0.4280  1.4575  1.2304
  465MOL0     H61353   4.755   0.500   6.386 -1.9061  0.5093  0.8554
  465MOL0     H61354   4.745   0.569   6.682 -1.6729  0.1498  0.3982
  465MOL0     H61355   4.873   0.471   6.632  0.7634 -0.1196 -2.0187
  465MOL0     H61356   4.714   0.305   6.532  2.7656  1.7044 -0.6038
  465MOL0     H61357   4.579   0.416   6.581  1.2527  3.2653  0.3616
  465MOL0     H61358   4.653   0.207   6.754 -0.1460 -0.8896  2.6539
  465MOL0     H61359   4.762   0.333   6.796 -2.1678  2.0837  2.4036
  465MOL0     H61360   4.566   0.494   6.808  3.8982  0.3754 -3.5085
  465MOL0     H61361   4.557   0.361   6.921 -2.8926  2.3732  0.6804
  465MOL0     H61362   5.225   0.614   6.431 -0.1302  0.1737 -0.2483
  465MOL0     H61363   5.460   0.512   6.468 -1.4379 -1.5714 -1.6361
  465MOL0     H61364   5.955   0.330   6.114 -0.7202 -3.8430  1.3889
  465MOL0     H61365   6.168   0.293   6.206  1.3745  1.1962  0.8547
  465MOL0     H61366   7.877   0.155   6.849  2.3352  0.0930  2.2550
  465MOL0     H61367   8.092   0.179   6.936 -0.3578 -1.7964 -0.0984
  465MOL0     H61368   8.678   0.359   6.686  1.9457 -3.1388 -0.2791
  465MOL0     H61369   8.880   0.366   6.813  0.8946  3.1646  1.4059
  465MOL0     H61370   8.868   0.376   7.304 -1.3991 -0.0108 -0.2142
  465MOL0     H61371   8.800   0.514   7.225  0.4358 -0.7799  1.5924
  465MOL0     H61372   9.094   0.456   7.230  0.8886  0.7601 -0.9566
  465MOL0     H61373   9.022   0.608   7.170  2.8480  1.0611  2.3162
  465MOL0     H61374   8.977   0.499   7.450 -1.3148  0.6901 -0.0270
  465MOL0     H61375   8.918   0.654   7.405  0.7069  0.2939  0.6899
  465MOL0     H61376   9.211   0.567   7.417 -1.2779 -1.3260 -3.2285
  465MOL0     H61377   9.156   0.730   7.362 -0.4432 -0.0442  0.3704
  465MOL0     H61378   9.121   0.791   7.778 -2.4857 -1.4728  1.6226
  465MOL0     H61379   8.647   0.353   7.182 -0.4737  0.5652  0.0776
  465MOL0     H61380   8.444   0.307   7.056  0.3314  0.0809 -0.0338
  466MOL0     O61381   4.218  10.244   3.765 -0.1929  0.6439 -0.9514
  466MOL0     C61382   4.249  10.265   3.879  0.5777 -0.2276 -1.1216
  466MOL0     O61383   4.158  10.313   3.975  0.0771 -0.4797 -0.2367
  466MOL0     C61384   4.022  10.314   3.950  0.7419 -0.7742  0.4272
  466MOL0     C61385   3.951  10.312   4.068  0.4790 -0.6724  0.2275
  466MOL0     C61386   3.812  10.340   4.072 -0.0921 -0.1213  0.1416
  466MOL0     C61387   3.733  10.380   3.955  0.0246 -0.7560 -0.6858
  466MOL0     O61388   3.606  10.399   3.974  0.2001  0.3405  0.5380
  466MOL0     C61389   3.526  10.348   3.862  0.9880  0.0715  0.2177
  466MOL0     C61390   3.379  10.352   3.895  0.0245 -0.6354  0.5221
  466MOL0     C61391   3.339  10.245   3.992  0.4510  0.1741 -0.0934
  466MOL0     C61392   3.185  10.238   4.025 -1.4537 -0.2457  0.3259
  466MOL0     C61393   3.141  10.118   4.121 -0.4480 -0.1864 -0.2275
  466MOL0     C61394   2.992  10.095   4.137 -0.0663 -0.1154 -0.4855
  466MOL0     C61395   2.957   9.981   4.230  0.1352  0.0516 -0.1822
  466MOL0     C61396   2.901   9.847   4.163 -0.0086 -0.8462 -0.2397
  466MOL0     N61397   2.859   9.756   4.267 -0.2876 -0.5047  0.0904
  466MOL0     C61398   2.738   9.767   4.328  0.3659 -0.8045 -0.1390
  466MOL0     C61399   2.741   9.681   4.431  0.8664 -0.8931  0.0372
  466MOL0     C61400   2.626   9.667   4.522 -0.3539 -0.0471  0.5960
  466MOL0     C61401   2.620   9.534   4.587 -0.2524  0.4213 -0.2741
  466MOL0     C61402   2.489   9.516   4.677  0.1749 -0.8202  0.4043
  466MOL0     C61403   2.368   9.498   4.586  0.0390  0.5302  0.1877
  466MOL0     O61404   2.386   9.383   4.499 -0.3537  0.1659  0.2927
  466MOL0     C61405   2.279   9.355   4.411 -0.0477 -0.3974 -0.3265
  466MOL0     C61406   2.245   9.219   4.362 -0.4379  0.0574  0.3793
  466MOL0     C61407   2.131   9.203   4.282  0.0205 -1.0951 -1.1034
  466MOL0     C61408   2.038   9.307   4.266  0.7091  0.1425  0.7930
  466MOL0     C61409   1.913   9.273   4.198  0.6375  0.8575  0.3421
  466MOL0     O61410   1.814   9.363   4.221  0.9266 -0.1923  0.2126
  466MOL0     C61411   1.675   9.362   4.218  0.9866 -1.3874 -0.4288
  466MOL0     C61412   1.606   9.476   4.251  1.0173 -0.8314  0.8268
  466MOL0     C61413   1.463   9.481   4.254 -0.6597  0.1705 -0.0716
  466MOL0     C61414   1.396   9.355   4.232 -0.5686 -0.3804  0.0371
  466MOL0     O61415   1.262   9.352   4.227 -0.5028 -0.3842 -0.6631
  466MOL0     C61416   1.196   9.476   4.188  0.8184 -0.6859  0.3090
  466MOL0     C61417   1.052   9.437   4.175 -0.4858  0.4967 -0.0888
  466MOL0     C61418   0.972   9.552   4.129 -0.1525 -0.1138  0.0271
  466MOL0     C61419   0.846   9.503   4.058  0.3163  0.9209 -0.3825
  466MOL0     C61420   0.746   9.453   4.166  0.6682  0.1533 -1.0845
  466MOL0     C61421   0.694   9.562   4.263  0.3955 -0.1857  0.6828
  466MOL0     C61422   0.544   9.549   4.319 -0.4552  0.6563 -0.0430
  466MOL0     C61423   0.508   9.608   4.454 -0.7799  0.9966 -0.3137
  466MOL0    Cl61424   0.543   9.785   4.464 -0.0716 -0.7098 -0.1261
  466MOL0     C61425   1.473   9.239   4.219 -0.5913 -1.0073  0.0670
  466MOL0     C61426   1.610   9.241   4.203  0.7086  0.5688  0.7507
  466MOL0     O61427   1.903   9.167   4.128  0.3424 -0.7155 -0.6619
  466MOL0     C61428   2.069   9.435   4.315 -0.9523 -1.0806 -0.1434
  466MOL0     C61429   2.182   9.460   4.385 -0.1033  0.6188  0.1388
  466MOL0     N61430   2.865   9.628   4.440  0.1561  0.0987  0.4271
  466MOL0     N61431   2.938   9.674   4.342  0.6061  0.6617  0.0310
  466MOL0     C61432   3.813  10.383   3.836  0.0028  0.8156  0.4411
  466MOL0     C61433   3.956  10.344   3.831  1.2748  0.1351 -0.6067
  466MOL0     C61434   4.398  10.265   3.911 -0.1810  0.2160 -0.9670
  466MOL0     C61435   4.457  10.284   4.043  0.2870 -0.0507  0.8994
  466MOL0     C61436   4.594  10.279   4.075  1.1018 -0.1906  0.3488
  466MOL0     C61437   4.688  10.254   3.973  0.2894 -0.2410  0.7181
  466MOL0     O61438   4.823  10.247   4.001  0.6575 -0.7465 -0.0787
  466MOL0     C61439   4.911  10.274   3.900  0.2236  0.0664  0.4561
  466MOL0     C61440   4.905  10.421   3.845 -0.2069 -0.3141  0.2141
  466MOL0     C61441   4.982  10.523   3.936  0.9736  0.3954  0.4706
  466MOL0     C61442   4.892  10.562   4.060 -0.0018  0.1017  0.4113
  466MOL0     C61443   4.967  10.671   4.115  0.0778 -0.2803 -0.6468
  466MOL0     C61444   5.038  10.756   4.168  1.0111 -0.4248  1.1232
  466MOL0     C61445   4.630  10.226   3.850 -0.0087  0.4299 -0.1862
  466MOL0     C61446   4.494  10.229   3.819  0.3055  0.3097  0.4336
  466MOL0     H61447   4.006  10.298   4.160 -0.4491  0.4054  0.9673
  466MOL0     H61448   3.779  10.328   4.174  1.0421  1.8955  0.7983
  466MOL0     H61449   3.548  10.247   3.827 -1.5453  0.1089 -1.7926
  466MOL0     H61450   3.541  10.417   3.778 -4.7394 -0.1323 -1.3980
  466MOL0     H61451   3.321  10.319   3.809 -0.4156 -0.7920  0.8754
  466MOL0     H61452   3.364  10.456   3.927  0.8621 -0.6018  0.8545
  466MOL0     H61453   3.382  10.268   4.090  0.3630  2.4829 -0.5328
  466MOL0     H61454   3.372  10.144   3.966  1.2864  0.4619 -0.1618
  466MOL0     H61455   3.162  10.335   4.071 -1.1724  0.2038 -0.4691
  466MOL0     H61456   3.125  10.234   3.933  0.6780 -0.7276 -1.1267
  466MOL0     H61457   3.191  10.137   4.216  0.5579 -0.1517 -0.7520
  466MOL0     H61458   3.183  10.025   4.083 -1.2958 -0.1551 -1.2895
  466MOL0     H61459   2.936  10.094   4.043 -2.0716 -1.1338  0.6299
  466MOL0     H61460   2.960  10.185   4.191  0.7752 -0.4553  0.6079
  466MOL0     H61461   3.037   9.963   4.303 -1.0326 -1.8949  0.6888
  466MOL0     H61462   2.875  10.019   4.291  2.1858 -0.8465  3.3697
  466MOL0     H61463   2.975   9.813   4.092 -0.9811  0.5302 -2.0113
  466MOL0     H61464   2.815   9.877   4.102 -0.8661  1.3765  1.8714
  466MOL0     H61465   2.662   9.840   4.302  1.5641  0.2751 -0.7284
  466MOL0     H61466   2.535   9.675   4.462  1.6787  1.1175 -2.5684
  466MOL0     H61467   2.630   9.747   4.597 -0.0349  1.1592 -0.6593
  466MOL0     H61468   2.709   9.517   4.649 -0.5397  1.0894  0.3271
  466MOL0     H61469   2.614   9.459   4.507 -1.1295 -1.0375  1.1191
  466MOL0     H61470   2.504   9.433   4.747 -1.0909 -0.6242  0.9319
  466MOL0     H61471   2.472   9.607   4.736  1.1528  0.1506 -0.7617
  466MOL0     H61472   2.357   9.587   4.523  0.6444 -0.5736 -1.5539
  466MOL0     H61473   2.291   9.486   4.663 -0.4863  1.8090 -0.1207
  466MOL0     H61474   2.322   9.143   4.364  0.2481  0.7465  1.5647
  466MOL0     H61475   2.105   9.108   4.236 -3.7498 -0.1522 -1.2141
  466MOL0     H61476   1.666   9.565   4.262 -1.1090  0.7606  0.2967
  466MOL0     H61477   1.402   9.566   4.282 -1.7953 -0.5396 -0.3433
  466MOL0     H61478   1.235   9.507   4.090  0.0211 -3.9181 -1.1430
  466MOL0     H61479   1.201   9.556   4.263 -2.2929  1.9247 -1.9730
  466MOL0     H61480   1.018   9.394   4.269  0.4187  0.6656  0.3326
  466MOL0     H61481   1.050   9.358   4.099  6.6739 -1.2289  0.7830
  466MOL0     H61482   1.023   9.607   4.050  0.4234  1.7018  1.6017
  466MOL0     H61483   0.957   9.629   4.205 -0.7805  0.8951 -1.0870
  466MOL0     H61484   0.803   9.579   3.993  0.4466  0.4924 -0.9707
  466MOL0     H61485   0.867   9.422   3.987 -0.4523 -0.2745  0.6944
  466MOL0     H61486   0.786   9.381   4.238 -0.9648  0.0608 -0.2252
  466MOL0     H61487   0.667   9.399   4.111  1.1909 -2.7654  0.7961
  466MOL0     H61488   0.687   9.659   4.213  0.5938  0.5837  2.0955
  466MOL0     H61489   0.764   9.576   4.345  0.4764  2.7746  0.2148
  466MOL0     H61490   0.476   9.588   4.243  0.5898  2.7942  0.0588
  466MOL0     H61491   0.539   9.440   4.329  0.0530  0.1596 -3.7950
  466MOL0     H61492   0.568   9.552   4.526  1.8282  1.7138 -1.8006
  466MOL0     H61493   0.403   9.586   4.477 -0.1646  0.5049  2.3507
  466MOL0     H61494   1.425   9.142   4.205 -0.5963 -2.0455  5.1776
  466MOL0     H61495   1.653   9.145   4.177  2.1239  0.8648  1.8416
  466MOL0     H61496   2.013   9.527   4.307  2.5572  1.1208 -1.6607
  466MOL0     H61497   2.195   9.557   4.432 -1.0302  0.2073  1.2945
  466MOL0     H61498   3.751  10.395   3.748  0.8327 -0.6617 -0.3868
  466MOL0     H61499   4.023  10.364   3.748  2.0928  1.2073  0.2746
  466MOL0     H61500   4.379  10.284   4.119 -3.2050 -0.7954 -2.3815
  466MOL0     H61501   4.630  10.290   4.177  1.8205  1.4222 -0.0395
  466MOL0     H61502   4.895  10.205   3.817 -2.7795  1.2992 -0.1129
  466MOL0     H61503   5.013  10.240   3.923  0.4511 -1.3429 -2.2166
  466MOL0     H61504   4.955  10.430   3.748  2.3957  0.8630  1.5521
  466MOL0     H61505   4.803  10.459   3.835  0.5225  1.3220 -1.3845
  466MOL0     H61506   5.000  10.612   3.875 -4.9514  1.3372 -0.5519
  466MOL0     H61507   5.077  10.477   3.965  0.0296 -0.9641  1.5242
  466MOL0     H61508   4.793  10.595   4.029  0.6538  0.7582 -1.0748
  466MOL0     H61509   4.870  10.479   4.128  0.3187 -1.5700 -1.4304
  466MOL0     H61510   5.081  10.850   4.197  1.7030 -0.1091 -0.7878
  466MOL0     H61511   4.700  10.203   3.770  0.5115  1.4398 -0.0354
  466MOL0     H61512   4.469  10.221   3.714  0.3562 -2.5755  0.5519
  467MOL0     O61513   0.423   2.337   2.845 -0.1033 -0.6345  0.1613
  467MOL0     C61514   0.457   2.241   2.783 -0.5379  0.2405  0.0890
  467MOL0     O61515   0.372   2.136   2.749 -0.1150 -0.1914 -0.0558
  467MOL0     C61516   0.237   2.150   2.759  0.3360  0.6151 -0.6091
  467MOL0     C61517   0.174   2.178   2.880  0.3688  0.6599 -0.2415
  467MOL0     C61518   0.033   2.177   2.882  0.3309  0.1817 -1.0199
  467MOL0     C61519  -0.045   2.150   2.768  0.0299 -0.3487  0.6522
  467MOL0     O61520  -0.186   2.137   2.764 -0.5545 -0.1152 -0.5360
  467MOL0     C61521  -0.258   2.227   2.857  0.0273  0.0717  0.0930
  467MOL0     C61522  -0.406   2.220   2.810  0.5334 -0.4451 -0.2510
  467MOL0     C61523  -0.472   2.347   2.868  0.4113  0.4922  0.6427
  467MOL0     C61524  -0.621   2.348   2.855  0.7197 -0.4582 -0.0647
  467MOL0     C61525  -0.679   2.477   2.919 -0.9904 -0.0549 -0.0659
  467MOL0     C61526  -0.825   2.505   2.908 -0.0613 -0.3914 -0.1706
  467MOL0     C61527  -0.857   2.574   2.767  0.5059  0.6798  0.6194
  467MOL0     C61528  -1.002   2.527   2.710  0.4055  0.5974 -0.6759
  467MOL0     N61529  -1.112   2.585   2.796 -0.4505 -0.5055 -0.9552
  467MOL0     C61530  -1.119   2.720   2.829 -0.6112  0.0861 -0.2093
  467MOL0     C61531  -1.214   2.725   2.928 -0.6442  0.0295 -0.4077
  467MOL0     C61532  -1.259   2.853   2.988 -0.6687  0.2323  1.3106
  467MOL0     C61533  -1.327   2.942   2.883 -0.8730 -0.1942  0.8185
  467MOL0     C61534  -1.375   3.070   2.948 -0.1285 -0.0828  0.0539
  467MOL0     C61535  -1.462   3.063   3.072 -0.0197  0.1173  0.5016
  467MOL0     O61536  -1.528   3.193   3.088  0.3109  0.0050  0.2241
  467MOL0     C61537  -1.663   3.210   3.124 -0.7734  0.0652  0.4029
  467MOL0     C61538  -1.716   3.333   3.116  0.1150  0.3237 -0.2598
  467MOL0     C61539  -1.850   3.358   3.162  1.2950  0.0008  1.4012
  467MOL0     C61540  -1.924   3.264   3.224 -0.0921 -0.5040  0.1767
  467MOL0     C61541  -2.070   3.284   3.258  0.2902  0.4059 -0.0221
  467MOL0     O61542  -2.117   3.412   3.287 -0.2332 -0.2955 -0.5014
  467MOL0     C61543  -2.248   3.424   3.335 -0.6643 -0.2341 -0.2147
  467MOL0     C61544  -2.301   3.338   3.436  0.1129  0.3265  0.4958
  467MOL0     C61545  -2.431   3.350   3.478 -0.0541  0.3768 -0.4012
  467MOL0     C61546  -2.506   3.471   3.439 -0.0041  0.7273 -0.7219
  467MOL0     O61547  -2.628   3.494   3.481 -0.2603 -0.0273  0.4892
  467MOL0     C61548  -2.720   3.389   3.471  0.2620  0.0345 -0.5899
  467MOL0     C61549  -2.843   3.414   3.557  0.9487 -0.8210  0.4040
  467MOL0     C61550  -2.916   3.558   3.548 -0.3636  0.2802  0.2429
  467MOL0     C61551  -3.056   3.544   3.608 -0.0650 -0.9065  0.3117
  467MOL0     C61552  -3.127   3.683   3.601  0.1659  0.9778 -0.9870
  467MOL0     C61553  -3.275   3.675   3.602  1.0021  0.4316 -0.1726
  467MOL0     C61554  -3.339   3.816   3.610  0.0812 -0.0946 -0.3489
  467MOL0     C61555  -3.483   3.799   3.609 -0.6779  0.2420 -0.0220
  467MOL0    Cl61556  -3.571   3.953   3.608  0.2690  0.7761  0.3762
  467MOL0     C61557  -2.454   3.553   3.342 -0.1200  1.2390 -0.1665
  467MOL0     C61558  -2.326   3.531   3.281 -0.1316  0.2029 -1.1312
  467MOL0     O61559  -2.136   3.176   3.252  0.0040  0.6731  0.3122
  467MOL0     C61560  -1.859   3.139   3.246  0.7285 -0.1326  0.3962
  467MOL0     C61561  -1.736   3.112   3.193 -0.5274  0.5066 -0.4247
  467MOL0     N61562  -1.254   2.594   2.952 -0.0922 -0.5202 -0.2634
  467MOL0     N61563  -1.189   2.508   2.879 -1.0448  0.2902 -0.1757
  467MOL0     C61564   0.021   2.145   2.649  0.2022  0.6408  0.3872
  467MOL0     C61565   0.160   2.152   2.639 -0.3413  0.0828  0.7048
  467MOL0     C61566   0.600   2.232   2.748 -0.0627 -0.0267 -0.1269
  467MOL0     C61567   0.655   2.114   2.700  0.2481 -0.9171 -0.0088
  467MOL0     C61568   0.790   2.110   2.674  0.3931 -0.0549  0.6492
  467MOL0     C61569   0.867   2.219   2.710 -0.5158  0.0168 -0.4026
  467MOL0     O61570   1.005   2.217   2.686  0.4848  0.0432  0.1722
  467MOL0     C61571   1.072   2.101   2.634 -0.0499  0.1288 -0.0895
  467MOL0     C61572   1.220   2.119   2.627 -0.8931 -0.2194  0.0756
  467MOL0     C61573   1.285   1.985   2.587  0.6660 -0.1605  0.0760
  467MOL0     C61574   1.438   1.992   2.615  1.5087 -0.1312  0.2615
  467MOL0     C61575   1.515   2.031   2.496  0.0777 -0.3413  0.5155
  467MOL0     C61576   1.572   2.044   2.385 -0.2121 -0.0789 -0.3075
  467MOL0     C61577   0.814   2.322   2.766  0.1117 -0.6530 -0.2697
  467MOL0     C61578   0.682   2.339   2.777 -0.0117  0.1455  0.4064
  467MOL0     H61579   0.228   2.193   2.973 -1.1628  0.7263  0.6730
  467MOL0     H61580  -0.018   2.203   2.973 -0.2307  1.8938 -1.7883
  467MOL0     H61581  -0.209   2.325   2.847 -0.3892  0.1740 -1.0425
  467MOL0     H61582  -0.255   2.174   2.953 -0.3621 -1.0596 -0.5033
  467MOL0     H61583  -0.441   2.129   2.860 -0.6355  1.4442  2.6701
  467MOL0     H61584  -0.421   2.221   2.702 -2.1021  0.2526  0.0494
  467MOL0     H61585  -0.423   2.429   2.814  1.5981  0.7109  1.9966
  467MOL0     H61586  -0.438   2.385   2.965 -2.1912  0.7248  1.5500
  467MOL0     H61587  -0.666   2.340   2.756 -3.0883  1.3800  1.2846
  467MOL0     H61588  -0.673   2.270   2.912  0.4280 -0.4573 -0.3253
  467MOL0     H61589  -0.619   2.551   2.866  0.6891  0.6710  2.6531
  467MOL0     H61590  -0.644   2.487   3.022 -1.6435  1.6346  0.0133
  467MOL0     H61591  -0.843   2.577   2.988  1.5263  0.2535 -0.3577
  467MOL0     H61592  -0.874   2.408   2.923  1.9442 -2.0870 -3.3841
  467MOL0     H61593  -0.833   2.680   2.778 -0.1738  0.8424  0.5693
  467MOL0     H61594  -0.784   2.537   2.694  0.7483  1.5824  0.3949
  467MOL0     H61595  -1.013   2.418   2.714  0.5093  0.5846 -0.7646
  467MOL0     H61596  -1.017   2.561   2.608 -0.8054  0.5626 -0.5266
  467MOL0     H61597  -1.078   2.813   2.791 -0.7450 -0.0108 -0.5965
  467MOL0     H61598  -1.171   2.898   3.037  0.2529  1.2277 -1.1013
  467MOL0     H61599  -1.329   2.825   3.067  0.9345 -2.3547  1.9453
  467MOL0     H61600  -1.410   2.889   2.837 -0.6948  1.4211 -1.5346
  467MOL0     H61601  -1.250   2.961   2.807 -0.6954 -1.6967  0.5806
  467MOL0     H61602  -1.291   3.138   2.965  0.8029 -1.5000  1.3705
  467MOL0     H61603  -1.441   3.120   2.876 -2.2263 -1.3061  1.0519
  467MOL0     H61604  -1.400   3.059   3.162  2.2684  0.0593 -0.9868
  467MOL0     H61605  -1.528   2.976   3.071  0.4776 -0.2651 -0.6279
  467MOL0     H61606  -1.654   3.399   3.057  0.0565  1.0966  0.5231
  467MOL0     H61607  -1.882   3.462   3.156  0.8783 -0.2057 -0.7330
  467MOL0     H61608  -2.229   3.268   3.475  3.0140  2.4212 -0.7575
  467MOL0     H61609  -2.462   3.266   3.539  0.1635  1.8122  1.8585
  467MOL0     H61610  -2.674   3.293   3.499  3.0873  1.5415  0.2549
  467MOL0     H61611  -2.756   3.387   3.368 -0.3386 -0.7162 -0.3782
  467MOL0     H61612  -2.810   3.403   3.661  1.8962  2.9743  0.6603
  467MOL0     H61613  -2.925   3.344   3.537 -0.8832  1.8880 -2.6144
  467MOL0     H61614  -2.912   3.586   3.442 -1.1218 -0.3139  0.0450
  467MOL0     H61615  -2.861   3.629   3.609  1.3952 -2.3090  1.8306
  467MOL0     H61616  -3.116   3.480   3.543  1.3058 -3.1169  1.1131
  467MOL0     H61617  -3.066   3.510   3.711 -1.4931  1.6895  1.1078
  467MOL0     H61618  -3.092   3.730   3.508  1.1226 -0.5270 -1.4144
  467MOL0     H61619  -3.098   3.742   3.688 -1.4647  0.5897 -0.1287
  467MOL0     H61620  -3.312   3.623   3.691 -1.7608 -0.4572 -1.7064
  467MOL0     H61621  -3.306   3.624   3.510 -1.6882  2.7857 -0.7414
  467MOL0     H61622  -3.303   3.869   3.699 -4.0092 -1.7935  2.6203
  467MOL0     H61623  -3.313   3.866   3.516  3.8971  2.5169  1.7830
  467MOL0     H61624  -3.523   3.752   3.700  0.4304 -3.1485 -1.1495
  467MOL0     H61625  -3.513   3.742   3.521  1.1172 -1.4332  0.3895
  467MOL0     H61626  -2.505   3.642   3.306 -1.4586  0.6447  0.1998
  467MOL0     H61627  -2.293   3.602   3.206  1.2904  0.2697 -0.4711
  467MOL0     H61628  -1.921   3.058   3.283 -0.9643  0.5989 -0.7379
  467MOL0     H61629  -1.704   3.010   3.210 -2.9986 -0.1382  0.7770
  467MOL0     H61630  -0.044   2.125   2.564  0.8449 -2.0020  0.4151
  467MOL0     H61631   0.213   2.143   2.545 -1.7025  0.8396 -0.1770
  467MOL0     H61632   0.581   2.038   2.675 -1.9715  1.5421 -1.4916
  467MOL0     H61633   0.828   2.019   2.630 -1.4843 -0.7677  0.4194
  467MOL0     H61634   1.046   2.081   2.530  2.9237 -0.4636 -0.8310
  467MOL0     H61635   1.050   2.011   2.692 -1.8256  0.6811  0.1572
  467MOL0     H61636   1.248   2.191   2.550  0.5909 -0.8974 -0.0581
  467MOL0     H61637   1.251   2.157   2.725  3.1165  0.1595 -1.1550
  467MOL0     H61638   1.256   1.964   2.483 -2.4201  3.3592 -0.0074
  467MOL0     H61639   1.239   1.906   2.647  0.1829 -0.2169 -0.3647
  467MOL0     H61640   1.453   2.065   2.695  1.4583  1.6308 -1.2684
  467MOL0     H61641   1.481   1.900   2.654  2.9524  0.9883  1.4217
  467MOL0     H61642   1.630   2.047   2.295 -0.4528 -1.6737 -0.5402
  467MOL0     H61643   0.884   2.402   2.790 -0.9876 -0.3596  2.3883
  467MOL0     H61644   0.642   2.434   2.810 -2.2099  0.2499 -2.2332
  468MOL0     O61645   1.738   4.064   6.888  0.5027 -0.2863  0.5134
  468MOL0     C61646   1.764   4.098   6.771  0.7151  0.4820 -0.4716
  468MOL0     O61647   1.671   4.096   6.666  0.0749  0.8344 -0.0535
  468MOL0     C61648   1.545   4.043   6.693 -0.4540  0.3959 -0.0572
  468MOL0     C61649   1.467   4.113   6.789  0.5167  0.2295  0.3267
  468MOL0     C61650   1.335   4.066   6.821  0.1587 -1.0379  0.0892
  468MOL0     C61651   1.277   3.960   6.754  0.3889 -0.3509 -0.6839
  468MOL0     O61652   1.155   3.902   6.792  0.0390 -0.4329  0.1702
  468MOL0     C61653   1.085   3.955   6.901  0.0302 -0.2199 -0.6588
  468MOL0     C61654   0.936   3.913   6.877  0.4449 -0.1802  0.3664
  468MOL0     C61655   0.848   3.946   6.989  0.1219 -0.5652  0.8047
  468MOL0     C61656   0.697   3.922   6.964  0.1834  0.0075  0.0378
  468MOL0     C61657   0.635   4.002   6.849  0.7282 -0.5449  0.3430
  468MOL0     C61658   0.479   3.971   6.840 -0.2793  0.2319  0.3987
  468MOL0     C61659   0.405   4.064   6.743 -0.5406 -0.8083 -0.8368
  468MOL0     C61660   0.248   4.051   6.748 -0.6835  0.9995  1.3343
  468MOL0     N61661   0.184   4.142   6.648 -0.5039  0.6769 -0.1847
  468MOL0     C61662   0.132   4.265   6.674 -0.8337 -0.3214 -0.1792
  468MOL0     C61663   0.096   4.316   6.555  0.8719  1.2962  0.4193
  468MOL0     C61664   0.025   4.450   6.537 -0.4660  1.3407  0.2444
  468MOL0     C61665  -0.120   4.426   6.558  0.1331 -0.4751  0.0084
  468MOL0     C61666  -0.199   4.422   6.429  0.0024 -0.3325 -0.3512
  468MOL0     C61667  -0.344   4.418   6.467  0.2730  0.1029  0.6904
  468MOL0     O61668  -0.430   4.470   6.363 -0.3822  0.2531 -0.5257
  468MOL0     C61669  -0.550   4.521   6.399 -0.5419  0.0974  0.1866
  468MOL0     C61670  -0.610   4.505   6.523 -0.3776  1.4968 -0.0470
  468MOL0     C61671  -0.735   4.556   6.546 -0.0109 -0.1603  0.0744
  468MOL0     C61672  -0.808   4.629   6.442 -1.0538  0.0730 -0.1270
  468MOL0     C61673  -0.935   4.702   6.455 -0.3195 -0.2120  0.2716
  468MOL0     O61674  -0.984   4.783   6.350 -0.0090 -0.7801  0.0781
  468MOL0     C61675  -1.075   4.890   6.366 -0.4637  0.1581  0.9235
  468MOL0     C61676  -1.104   4.956   6.246  0.3031 -1.0110  0.7543
  468MOL0     C61677  -1.191   5.066   6.246 -0.4743 -0.2475  0.5178
  468MOL0     C61678  -1.233   5.127   6.364  1.0543 -0.6007  0.0329
  468MOL0     O61679  -1.305   5.245   6.349 -0.8022  0.4508  0.7624
  468MOL0     C61680  -1.327   5.315   6.473  0.1634 -0.3428 -0.0367
  468MOL0     C61681  -1.466   5.270   6.529  0.0718 -0.3390  0.4297
  468MOL0     C61682  -1.508   5.334   6.659 -0.5981 -0.0899  0.2174
  468MOL0     C61683  -1.656   5.322   6.671  0.8585  0.0313 -0.3213
  468MOL0     C61684  -1.716   5.372   6.803 -0.1773  0.5622  1.4861
  468MOL0     C61685  -1.865   5.351   6.816  0.7438  0.3581 -0.3287
  468MOL0     C61686  -1.928   5.385   6.952 -0.2301 -0.4779 -0.4254
  468MOL0     C61687  -2.080   5.395   6.934 -0.3481 -0.2740 -1.2257
  468MOL0    Cl61688  -2.164   5.478   7.068  0.0939 -0.7798 -0.2940
  468MOL0     C61689  -1.221   5.049   6.484 -0.4079 -0.1118  0.1234
  468MOL0     C61690  -1.139   4.937   6.481  0.5627 -0.7849  0.0364
  468MOL0     O61691  -0.987   4.692   6.559 -0.2011 -0.5479 -0.0667
  468MOL0     C61692  -0.738   4.633   6.314  0.4451 -0.7204  0.6989
  468MOL0     C61693  -0.613   4.590   6.297  0.3626  0.7557 -0.1825
  468MOL0     N61694   0.128   4.223   6.455  0.2217  0.5660  0.5576
  468MOL0     N61695   0.184   4.123   6.515  0.3757  0.0792 -0.2280
  468MOL0     C61696   1.358   3.884   6.671 -0.8121  0.6272  0.9527
  468MOL0     C61697   1.490   3.930   6.631 -1.1289 -0.1592  0.3134
  468MOL0     C61698   1.894   4.152   6.735 -0.8130  1.2348  0.4994
  468MOL0     C61699   1.988   4.160   6.840  0.0562  0.2672  0.1411
  468MOL0     C61700   2.117   4.190   6.819 -0.0644  0.4041  0.2970
  468MOL0     C61701   2.168   4.195   6.684  0.7925  0.1870  0.1560
  468MOL0     O61702   2.305   4.193   6.663 -0.4962  0.1042 -0.0398
  468MOL0     C61703   2.356   4.146   6.536 -0.0219 -0.3542 -0.0484
  468MOL0     C61704   2.504   4.136   6.551 -0.4711 -0.5157 -1.0294
  468MOL0     C61705   2.589   4.170   6.421 -0.8173  0.4014 -0.8331
  468MOL0     C61706   2.737   4.143   6.444 -0.3726  0.7365  0.1490
  468MOL0     C61707   2.803   4.123   6.305  0.3079 -0.6914 -1.2504
  468MOL0     C61708   2.867   4.115   6.205  0.3170  0.5866  0.1939
  468MOL0     C61709   2.076   4.205   6.580 -0.1648  0.9322  0.3150
  468MOL0     C61710   1.944   4.187   6.602  0.0871  0.6277 -0.2702
  468MOL0     H61711   1.505   4.207   6.828 -0.5586  0.2879  1.3054
  468MOL0     H61712   1.282   4.117   6.899 -1.8084 -2.4731 -0.2322
  468MOL0     H61713   1.084   4.064   6.909  0.3447 -0.3508  2.4141
  468MOL0     H61714   1.125   3.918   6.996  1.6599 -0.1152 -1.2737
  468MOL0     H61715   0.930   3.805   6.861 -0.6602 -0.0114 -0.5077
  468MOL0     H61716   0.915   3.949   6.776 -0.8221 -1.7361  0.0246
  468MOL0     H61717   0.867   4.051   7.013  0.1919 -0.4151  0.1021
  468MOL0     H61718   0.893   3.895   7.075 -2.2604 -1.5439  1.5614
  468MOL0     H61719   0.682   3.817   6.936 -3.5360  0.9480 -2.1222
  468MOL0     H61720   0.637   3.948   7.051 -1.3726 -1.0374 -0.6761
  468MOL0     H61721   0.677   3.983   6.750 -0.5309 -0.9724 -0.1352
  468MOL0     H61722   0.644   4.107   6.878 -1.8857  0.0389 -0.6597
  468MOL0     H61723   0.438   3.965   6.941 -2.7004  1.4620 -0.4280
  468MOL0     H61724   0.468   3.869   6.803  1.1316 -0.5672  2.0851
  468MOL0     H61725   0.414   4.171   6.767  0.0938 -1.0265 -0.0419
  468MOL0     H61726   0.452   4.058   6.644 -1.5251 -0.1795 -1.3564
  468MOL0     H61727   0.207   4.059   6.849 -0.2984 -0.8069  1.6808
  468MOL0     H61728   0.221   3.946   6.730  1.3734  0.6858 -0.2821
  468MOL0     H61729   0.126   4.315   6.770 -3.8613  2.7164 -1.7243
  468MOL0     H61730   0.027   4.477   6.431  1.8747 -2.4885 -0.9054
  468MOL0     H61731   0.070   4.528   6.599 -0.2224  2.6177 -1.4902
  468MOL0     H61732  -0.147   4.503   6.631 -3.1741 -3.0419  1.7672
  468MOL0     H61733  -0.144   4.341   6.622 -2.0211  0.3681  0.4154
  468MOL0     H61734  -0.178   4.521   6.388 -2.0927  1.1284  1.8467
  468MOL0     H61735  -0.164   4.339   6.366  2.8437  1.1011 -0.7841
  468MOL0     H61736  -0.363   4.468   6.562  3.3036  0.0681  1.4114
  468MOL0     H61737  -0.357   4.310   6.475 -0.3085 -0.0762 -1.7328
  468MOL0     H61738  -0.562   4.459   6.608  2.1796  3.0905 -0.5051
  468MOL0     H61739  -0.779   4.553   6.645 -0.6827 -1.9918 -0.2485
  468MOL0     H61740  -1.066   4.917   6.152  1.9601  1.9242  0.0457
  468MOL0     H61741  -1.226   5.110   6.153  0.7950 -1.0389 -0.3781
  468MOL0     H61742  -1.331   5.422   6.451  0.8366 -0.0814  1.0568
  468MOL0     H61743  -1.248   5.303   6.547 -0.3609 -1.3453  0.3796
  468MOL0     H61744  -1.468   5.161   6.538 -2.9380 -0.2794  1.6821
  468MOL0     H61745  -1.541   5.292   6.453  0.7857  0.3291 -0.0966
  468MOL0     H61746  -1.480   5.440   6.650 -1.0537  0.1566  1.4839
  468MOL0     H61747  -1.454   5.282   6.738  0.2322 -1.2711 -1.0825
  468MOL0     H61748  -1.716   5.357   6.586  0.2722  0.8954  0.4334
  468MOL0     H61749  -1.683   5.216   6.674  2.7968 -0.4763  1.0906
  468MOL0     H61750  -1.682   5.476   6.810 -0.6626  0.8027  0.4133
  468MOL0     H61751  -1.666   5.326   6.890 -0.6607  0.3346  1.6450
  468MOL0     H61752  -1.886   5.244   6.807 -0.7595  0.5624  0.4647
  468MOL0     H61753  -1.905   5.406   6.730  2.0578 -1.0709 -1.9330
  468MOL0     H61754  -1.892   5.311   7.023 -2.7615 -3.0163 -1.6190
  468MOL0     H61755  -1.896   5.485   6.985 -1.9022 -0.4792  1.3736
  468MOL0     H61756  -2.125   5.295   6.930 -0.9063 -0.2276  1.6474
  468MOL0     H61757  -2.105   5.451   6.844  2.7077  0.3038 -1.8210
  468MOL0     H61758  -1.248   5.088   6.582  0.0703 -0.4063  0.3785
  468MOL0     H61759  -1.119   4.882   6.572  0.3954 -2.1204 -0.6944
  468MOL0     H61760  -0.783   4.687   6.231  3.0102 -1.6759 -1.4346
  468MOL0     H61761  -0.566   4.610   6.201  1.2071  2.0634  0.4653
  468MOL0     H61762   1.326   3.789   6.631 -2.0946  1.6446 -0.5718
  468MOL0     H61763   1.550   3.878   6.557 -1.0114 -0.8444  0.8767
  468MOL0     H61764   1.965   4.145   6.945 -0.0386 -1.9597 -0.1586
  468MOL0     H61765   2.186   4.183   6.903  0.0314 -0.4595  0.1608
  468MOL0     H61766   2.328   4.209   6.451  3.1261 -1.3264 -1.9740
  468MOL0     H61767   2.312   4.049   6.510  1.2183 -0.7049 -0.9216
  468MOL0     H61768   2.536   4.214   6.621 -0.9764 -1.8911  0.7947
  468MOL0     H61769   2.520   4.039   6.599 -0.6960  0.7509  1.8185
  468MOL0     H61770   2.574   4.276   6.402  2.1462  1.5813  2.2709
  468MOL0     H61771   2.559   4.117   6.330 -0.1117  1.2450 -1.5823
  468MOL0     H61772   2.781   4.229   6.496  0.8439  0.5108 -0.4655
  468MOL0     H61773   2.768   4.054   6.498 -0.7657  0.1966 -0.4943
  468MOL0     H61774   2.927   4.111   6.116 -2.1980 -1.8807 -1.5409
  468MOL0     H61775   2.108   4.236   6.482 -0.4723 -1.1778 -0.4993
  468MOL0     H61776   1.871   4.197   6.521 -0.2996 -0.1309 -0.0187
  469MOL0     O61777   4.538   1.243   6.752  0.0571  0.3946 -0.4408
  469MOL0     C61778   4.473   1.177   6.670  0.5882 -1.2648  0.1473
  469MOL0     O61779   4.335   1.170   6.667  0.2405 -0.5654  0.9768
  469MOL0     C61780   4.248   1.238   6.748  0.3659  0.1172 -0.2100
  469MOL0     C61781   4.280   1.315   6.863  0.5159 -1.1152 -0.7098
  469MOL0     C61782   4.183   1.387   6.934 -0.2579  0.2391 -0.2674
  469MOL0     C61783   4.052   1.398   6.896 -0.3163  0.4063 -0.2010
  469MOL0     O61784   3.970   1.474   6.975  0.1499 -0.7232 -0.1364
  469MOL0     C61785   3.837   1.455   6.960  0.1317  0.0436 -0.1263
  469MOL0     C61786   3.754   1.522   7.078 -0.2268  0.3242  0.4811
  469MOL0     C61787   3.613   1.557   7.025  0.0304  0.3933  0.4199
  469MOL0     C61788   3.517   1.564   7.142  0.6218 -0.2089 -0.5073
  469MOL0     C61789   3.387   1.635   7.124 -0.3995 -0.4603  0.1547
  469MOL0     C61790   3.315   1.586   6.999  0.4283 -0.0753 -0.3973
  469MOL0     C61791   3.173   1.650   6.999  0.4867  0.6850  0.7647
  469MOL0     C61792   3.101   1.615   6.869  0.3685  0.5726 -0.2867
  469MOL0     N61793   2.950   1.600   6.886 -0.5807  0.3033  0.6338
  469MOL0     C61794   2.862   1.697   6.932  0.0492 -0.4893 -1.1902
  469MOL0     C61795   2.736   1.638   6.917 -1.0897 -0.4776  0.1693
  469MOL0     C61796   2.598   1.701   6.940  0.0637  0.6778 -0.4513
  469MOL0     C61797   2.491   1.600   6.914  0.1503 -0.0961 -0.1669
  469MOL0     C61798   2.351   1.669   6.905 -0.2135  0.0133 -0.0953
  469MOL0     C61799   2.266   1.563   6.831 -0.4262 -0.5470 -0.4158
  469MOL0     O61800   2.135   1.620   6.797 -0.0951 -0.5872  0.2906
  469MOL0     C61801   2.048   1.544   6.735 -0.2891  0.2570  0.6271
  469MOL0     C61802   2.048   1.401   6.727  0.0943 -0.6804  0.6406
  469MOL0     C61803   1.933   1.328   6.689 -0.1049  0.6099  0.0880
  469MOL0     C61804   1.819   1.398   6.663  0.6093  0.5685 -0.0253
  469MOL0     C61805   1.691   1.327   6.644  0.4686 -0.3606 -0.2208
  469MOL0     O61806   1.690   1.195   6.604  0.2029  0.1840 -0.2999
  469MOL0     C61807   1.580   1.115   6.584  0.3207  0.7027 -0.5451
  469MOL0     C61808   1.438   1.145   6.573  0.3310  0.0799 -0.3039
  469MOL0     C61809   1.335   1.051   6.558  0.8862  0.2700  0.5146
  469MOL0     C61810   1.379   0.918   6.557 -0.1509  0.4418  0.1162
  469MOL0     O61811   1.293   0.809   6.534 -0.1167  0.4552  0.1541
  469MOL0     C61812   1.183   0.815   6.635 -0.4949 -0.0158  0.0116
  469MOL0     C61813   1.105   0.687   6.634  0.6852  1.2153  0.6012
  469MOL0     C61814   1.024   0.660   6.501  1.1539  0.8196 -0.9479
  469MOL0     C61815   0.889   0.732   6.491  0.4134  0.1673 -0.4677
  469MOL0     C61816   0.788   0.672   6.396 -0.1204  0.9392 -1.0492
  469MOL0     C61817   0.828   0.683   6.246 -0.1494  0.6728 -0.2556
  469MOL0     C61818   0.845   0.834   6.219  0.7350  0.1758  0.1404
  469MOL0     C61819   0.887   0.876   6.084 -0.0964 -0.0172  0.5291
  469MOL0    Cl61820   1.042   0.787   6.055 -0.1923  0.4956 -0.4276
  469MOL0     C61821   1.514   0.884   6.547 -0.0480  0.6073 -0.3741
  469MOL0     C61822   1.615   0.982   6.571 -0.4719 -0.6425 -0.8278
  469MOL0     O61823   1.586   1.390   6.674 -0.4839 -0.7901  0.0884
  469MOL0     C61824   1.812   1.541   6.666  0.6320  0.1217  0.4437
  469MOL0     C61825   1.928   1.612   6.703  0.8385  0.0082 -0.8388
  469MOL0     N61826   2.759   1.509   6.862  0.3221  0.4628 -0.3484
  469MOL0     N61827   2.878   1.491   6.847  0.2636  0.0521  0.3182
  469MOL0     C61828   4.012   1.310   6.794  0.2561  0.2014  0.1926
  469MOL0     C61829   4.112   1.243   6.716 -0.8915  0.7239 -0.0112
  469MOL0     C61830   4.542   1.106   6.553  0.3193 -0.3098  0.3059
  469MOL0     C61831   4.684   1.073   6.547  0.0410 -0.6196  0.5715
  469MOL0     C61832   4.737   1.022   6.432  0.6149  0.0531 -0.7162
  469MOL0     C61833   4.655   0.993   6.329 -0.2419 -0.0127  0.4544
  469MOL0     O61834   4.715   0.919   6.226 -0.9738  0.5792 -0.3637
  469MOL0     C61835   4.647   0.877   6.106  0.0434  0.4719  0.5879
  469MOL0     C61836   4.565   0.753   6.150 -0.3599 -0.0237 -0.6149
  469MOL0     C61837   4.440   0.740   6.074  0.2179 -0.3055  0.0676
  469MOL0     C61838   4.393   0.593   6.067  0.3523  0.0567  0.3259
  469MOL0     C61839   4.375   0.533   6.194 -0.3975  0.9240  0.3134
  469MOL0     C61840   4.391   0.499   6.309 -0.0493 -0.3933  0.2274
  469MOL0     C61841   4.522   1.026   6.325 -0.0637  0.3520  0.2856
  469MOL0     C61842   4.471   1.094   6.431  0.6356 -0.2248 -0.3496
  469MOL0     H61843   4.374   1.308   6.916 -1.4441  0.4476  3.4156
  469MOL0     H61844   4.203   1.430   7.032 -4.2002  0.4111  0.6274
  469MOL0     H61845   3.814   1.349   6.958  0.7626 -0.0990 -0.0221
  469MOL0     H61846   3.812   1.504   6.865  0.3967 -0.4041 -0.4281
  469MOL0     H61847   3.802   1.612   7.118 -3.1028  2.7169 -1.0083
  469MOL0     H61848   3.751   1.448   7.158  2.1834  1.4598  1.7412
  469MOL0     H61849   3.593   1.479   6.951  1.5515 -2.7074  3.0157
  469MOL0     H61850   3.612   1.660   6.987 -1.1824 -0.1600 -1.1317
  469MOL0     H61851   3.508   1.471   7.199 -0.5039  2.0701  3.5167
  469MOL0     H61852   3.571   1.629   7.212  1.5715  1.1049 -2.3842
  469MOL0     H61853   3.408   1.743   7.122 -0.2110 -0.5002 -0.0592
  469MOL0     H61854   3.331   1.621   7.217 -3.7994  2.4612 -1.2204
  469MOL0     H61855   3.303   1.479   7.013 -1.9801  0.4186  2.1042
  469MOL0     H61856   3.364   1.627   6.909  2.1553  1.6889  1.2366
  469MOL0     H61857   3.109   1.611   7.079 -2.3710  1.4032 -1.0259
  469MOL0     H61858   3.169   1.759   6.999 -1.4692  0.6492  0.7957
  469MOL0     H61859   3.132   1.515   6.837 -1.7468 -0.6749  1.3585
  469MOL0     H61860   3.113   1.689   6.788 -0.3028  0.9073 -0.0884
  469MOL0     H61861   2.880   1.795   6.975  2.0259 -2.5834  3.4946
  469MOL0     H61862   2.584   1.792   6.881  1.4434  1.9683  1.1158
  469MOL0     H61863   2.582   1.725   7.046 -1.8286 -0.8121 -0.3415
  469MOL0     H61864   2.493   1.523   6.992  0.4430 -0.1990 -0.2757
  469MOL0     H61865   2.517   1.545   6.823  1.4390 -0.7004  0.5395
  469MOL0     H61866   2.311   1.688   7.005 -0.8751 -0.7787 -0.2008
  469MOL0     H61867   2.359   1.762   6.848 -3.2225 -0.4975 -1.5375
  469MOL0     H61868   2.260   1.467   6.882  1.7769  0.1885  1.3732
  469MOL0     H61869   2.317   1.530   6.740 -0.9358 -3.1266  0.1674
  469MOL0     H61870   2.143   1.348   6.736  0.3226 -0.1086  1.8835
  469MOL0     H61871   1.931   1.220   6.680 -1.0714  0.8052 -2.7538
  469MOL0     H61872   1.403   1.247   6.577 -0.9052 -0.3227 -0.4794
  469MOL0     H61873   1.230   1.061   6.535  0.7617 -4.3902 -2.1958
  469MOL0     H61874   1.110   0.891   6.609 -1.4039 -0.8940 -0.0551
  469MOL0     H61875   1.228   0.827   6.734 -0.7499 -1.0023  0.2550
  469MOL0     H61876   1.040   0.687   6.721 -1.5714 -0.1215 -0.9937
  469MOL0     H61877   1.175   0.603   6.643  0.1079  0.8817  2.2501
  469MOL0     H61878   1.014   0.553   6.485  1.8595  0.2605  1.8547
  469MOL0     H61879   1.096   0.701   6.429  4.0740 -1.0183  0.7120
  469MOL0     H61880   0.849   0.720   6.593  1.9463  0.4225  0.1852
  469MOL0     H61881   0.901   0.839   6.475 -0.7134  0.2226 -1.0836
  469MOL0     H61882   0.689   0.716   6.414  1.3847  3.7285  1.1782
  469MOL0     H61883   0.779   0.567   6.428 -1.4511  1.2833 -0.1792
  469MOL0     H61884   0.755   0.624   6.191  0.3274  0.1028 -0.2866
  469MOL0     H61885   0.924   0.634   6.228 -1.7596 -2.8908  0.1213
  469MOL0     H61886   0.754   0.892   6.237 -1.0318 -2.2529 -0.4437
  469MOL0     H61887   0.930   0.853   6.285  0.6931 -0.8896  0.5091
  469MOL0     H61888   0.900   0.983   6.066  1.6393 -0.2331  0.3967
  469MOL0     H61889   0.820   0.842   6.004  1.2869  1.5762 -1.4251
  469MOL0     H61890   1.541   0.781   6.530  0.8378  0.9140 -0.8784
  469MOL0     H61891   1.720   0.954   6.572 -0.6028 -1.1506 -0.2455
  469MOL0     H61892   1.722   1.594   6.640  0.5738 -1.2190 -2.4871
  469MOL0     H61893   1.927   1.720   6.702  0.0492  0.0148 -0.6951
  469MOL0     H61894   3.909   1.301   6.762 -0.1450 -0.0968  1.5019
  469MOL0     H61895   4.078   1.176   6.638 -0.6082 -0.4620  0.8711
  469MOL0     H61896   4.739   1.092   6.638  0.6171 -1.8615  0.4890
  469MOL0     H61897   4.844   1.004   6.430  0.3227 -2.0636 -0.1883
  469MOL0     H61898   4.706   0.850   6.018 -0.1272 -0.2868  0.6979
  469MOL0     H61899   4.576   0.953   6.074 -2.3844 -1.6868  0.4705
  469MOL0     H61900   4.617   0.662   6.121 -2.3318 -1.6448  0.6533
  469MOL0     H61901   4.540   0.756   6.257  4.2351 -0.6954  0.7110
  469MOL0     H61902   4.460   0.782   5.975  2.9418 -2.8961 -0.5891
  469MOL0     H61903   4.367   0.799   6.131  1.5876  0.9311  0.5962
  469MOL0     H61904   4.301   0.565   6.015  0.1312 -0.1746  0.8445
  469MOL0     H61905   4.457   0.540   5.996  0.2682 -0.0234  0.3095
  469MOL0     H61906   4.395   0.463   6.410 -0.2113  0.7091  0.6440
  469MOL0     H61907   4.466   1.000   6.237  1.9763 -2.0069 -0.4217
  469MOL0     H61908   4.367   1.122   6.420  0.5001  0.8250  2.6744
  470MOL0     O61909  10.774   5.209   5.508  0.6772  0.6601  0.0057
  470MOL0     C61910  10.799   5.162   5.621 -0.5225 -0.3439 -0.7737
  470MOL0     O61911  10.733   5.195   5.733 -0.0646 -0.9641 -0.0033
  470MOL0     C61912  10.652   5.314   5.725  0.0516  0.5045 -1.1192
  470MOL0     C61913  10.684   5.421   5.804  0.8373  0.1671  0.4442
  470MOL0     C61914  10.586   5.530   5.802 -0.7214 -0.7635 -0.0293
  470MOL0     C61915  10.455   5.526   5.742 -0.5100 -0.7994  0.3684
  470MOL0     O61916  10.356   5.620   5.747 -0.1201  0.2015 -0.6589
  470MOL0     C61917  10.313   5.644   5.877 -0.5593  0.0311  0.4087
  470MOL0     C61918  10.204   5.751   5.873  0.8037  1.1969  0.4068
  470MOL0     C61919  10.085   5.695   5.805 -0.1158  0.7985  0.8506
  470MOL0     C61920   9.951   5.734   5.860 -0.2538 -0.2750 -0.1827
  470MOL0     C61921   9.834   5.716   5.753  0.5425  0.7588  0.4342
  470MOL0     C61922   9.684   5.736   5.806 -0.2189 -0.1928 -0.1592
  470MOL0     C61923   9.581   5.775   5.688 -0.0774 -0.1364 -0.4999
  470MOL0     C61924   9.539   5.659   5.595  0.0860 -0.4236  0.2311
  470MOL0     N61925   9.577   5.687   5.453  0.8338 -0.1148 -0.4234
  470MOL0     C61926   9.499   5.738   5.354  0.2119 -0.2593  0.2279
  470MOL0     C61927   9.564   5.713   5.243 -0.9154 -0.7947  0.7945
  470MOL0     C61928   9.538   5.748   5.096 -1.1537 -0.5116 -0.1767
  470MOL0     C61929   9.398   5.709   5.058  0.7104 -0.0306 -0.3575
  470MOL0     C61930   9.362   5.766   4.916 -1.1650  0.8520  0.5692
  470MOL0     C61931   9.213   5.755   4.899 -0.9611 -0.7835 -0.3730
  470MOL0     O61932   9.151   5.625   4.917  0.1533 -0.6729  0.2009
  470MOL0     C61933   9.026   5.612   4.865 -0.7240  0.5621  0.6754
  470MOL0     C61934   8.930   5.708   4.881 -0.5925 -0.9466 -0.3200
  470MOL0     C61935   8.798   5.692   4.828  1.1043  0.0670 -0.7677
  470MOL0     C61936   8.773   5.579   4.751 -0.9958  0.9313  0.6617
  470MOL0     C61937   8.632   5.539   4.697  0.4502 -0.3903 -0.1783
  470MOL0     O61938   8.626   5.424   4.620  0.3386 -0.0919  0.0261
  470MOL0     C61939   8.510   5.351   4.593  0.5559  0.8735  0.1081
  470MOL0     C61940   8.388   5.364   4.667 -1.2019  0.4599  0.5336
  470MOL0     C61941   8.278   5.298   4.627 -0.1816  0.7716 -0.4897
  470MOL0     C61942   8.282   5.196   4.531 -0.0063 -1.2140  0.3683
  470MOL0     O61943   8.176   5.112   4.499 -0.1862 -0.5736 -0.4642
  470MOL0     C61944   8.040   5.157   4.526 -0.4833  0.9416  0.3571
  470MOL0     C61945   7.952   5.041   4.464 -0.2112  0.4605  0.6159
  470MOL0     C61946   7.935   5.015   4.307 -0.2505  0.4894  0.0009
  470MOL0     C61947   7.812   4.930   4.269  0.8890 -0.5827  0.6263
  470MOL0     C61948   7.673   5.010   4.291 -0.0595  0.7879 -0.4102
  470MOL0     C61949   7.557   4.931   4.241  0.3036 -0.2511 -0.4940
  470MOL0     C61950   7.423   5.009   4.231  0.8189 -0.1635 -0.2704
  470MOL0     C61951   7.358   5.025   4.374  0.3887 -0.2158  0.1657
  470MOL0    Cl61952   7.336   4.864   4.462  0.1053  0.3828  0.3502
  470MOL0     C61953   8.393   5.176   4.458 -0.0891 -0.4045 -0.4415
  470MOL0     C61954   8.508   5.255   4.484  0.1638 -0.3826  0.0492
  470MOL0     O61955   8.534   5.607   4.717  1.3186  0.6598  0.2655
  470MOL0     C61956   8.877   5.480   4.742 -0.4565 -0.2426  0.0456
  470MOL0     C61957   9.002   5.496   4.800  0.9104  0.2306  0.5477
  470MOL0     N61958   9.680   5.640   5.270 -0.3295 -0.6491 -0.5031
  470MOL0     N61959   9.687   5.633   5.395  0.6190  0.2628  0.2380
  470MOL0     C61960  10.432   5.410   5.663  0.1721 -0.3052  0.1741
  470MOL0     C61961  10.530   5.313   5.657  0.2307 -0.4715  0.6551
  470MOL0     C61962  10.914   5.059   5.640 -0.0241 -0.1148  0.7602
  470MOL0     C61963  10.968   4.988   5.530 -0.4586 -0.8602  0.2409
  470MOL0     C61964  11.073   4.899   5.559  0.4296  0.1239 -0.7400
  470MOL0     C61965  11.116   4.857   5.683  0.3821 -0.0404  0.8179
  470MOL0     O61966  11.198   4.743   5.703 -0.6164  0.2488 -0.1506
  470MOL0     C61967  11.345   4.766   5.676  0.4422 -0.6916 -0.7147
  470MOL0     C61968  11.402   4.870   5.773  0.5469 -0.7886 -0.3277
  470MOL0     C61969  11.393   4.825   5.920 -0.2801  0.0280  0.5032
  470MOL0     C61970  11.524   4.748   5.949 -0.3654 -0.2951 -0.7269
  470MOL0     C61971  11.508   4.673   6.075 -0.1532  0.2463 -0.7552
  470MOL0     C61972  11.489   4.626   6.189  0.0946  0.1300 -0.3683
  470MOL0     C61973  11.054   4.922   5.791 -0.0365 -0.1051 -0.2956
  470MOL0     C61974  10.959   5.026   5.766  0.3957 -0.2319  0.8972
  470MOL0     H61975  10.776   5.431   5.860  1.4805 -3.3445  0.2835
  470MOL0     H61976  10.607   5.611   5.872  1.1260  1.7496 -3.2443
  470MOL0     H61977  10.398   5.691   5.928  0.4717 -0.5705 -0.7117
  470MOL0     H61978  10.268   5.558   5.927 -1.5314  1.2158  1.6496
  470MOL0     H61979  10.243   5.841   5.825 -2.1855  0.9972 -2.8150
  470MOL0     H61980  10.167   5.764   5.975 -3.2583 -1.5787 -0.4858
  470MOL0     H61981  10.084   5.586   5.817 -0.6620  0.9884  2.8080
  470MOL0     H61982  10.089   5.726   5.700  0.3475  2.2879  1.2799
  470MOL0     H61983   9.926   5.674   5.948 -0.0091 -1.7477 -1.0843
  470MOL0     H61984   9.955   5.835   5.901 -0.3486 -0.5442  0.5026
  470MOL0     H61985   9.843   5.616   5.708 -0.8263  1.1462 -0.7609
  470MOL0     H61986   9.853   5.788   5.673 -1.6607  0.0071 -0.8454
  470MOL0     H61987   9.681   5.819   5.878 -1.5781  1.2877 -1.8348
  470MOL0     H61988   9.652   5.644   5.856 -3.1610  1.2014  0.7536
  470MOL0     H61989   9.492   5.822   5.729  0.9775  1.2426  0.2863
  470MOL0     H61990   9.628   5.855   5.630  0.7054  0.3509  0.7759
  470MOL0     H61991   9.430   5.649   5.605  0.1056 -1.0925 -0.1483
  470MOL0     H61992   9.575   5.562   5.630 -3.2410 -0.5981  3.9618
  470MOL0     H61993   9.408   5.797   5.367  0.5216  0.1135  0.7470
  470MOL0     H61994   9.603   5.699   5.024 -2.1070 -1.6605 -0.2949
  470MOL0     H61995   9.559   5.855   5.087  0.3093 -0.2044  4.1738
  470MOL0     H61996   9.329   5.745   5.134  1.2950 -0.7291  0.5252
  470MOL0     H61997   9.388   5.600   5.060  1.5535 -0.1034  0.5652
  470MOL0     H61998   9.381   5.874   4.924 -0.2208  0.5968  2.1355
  470MOL0     H61999   9.410   5.710   4.835 -0.8975  0.1506  1.1952
  470MOL0     H62000   9.184   5.777   4.796  2.1073 -1.0136 -1.3890
  470MOL0     H62001   9.179   5.833   4.968  1.7039  1.2063 -1.1621
  470MOL0     H62002   8.956   5.804   4.924 -0.2593 -0.5017 -1.4914
  470MOL0     H62003   8.716   5.759   4.851 -0.2787 -1.7177 -0.3863
  470MOL0     H62004   8.376   5.440   4.744 -3.5080  0.8015 -0.0801
  470MOL0     H62005   8.189   5.301   4.689 -0.6793 -0.3548 -1.1224
  470MOL0     H62006   8.013   5.247   4.470 -2.7058  0.1788  0.1196
  470MOL0     H62007   8.021   5.167   4.633 -5.1336  1.8214 -0.3658
  470MOL0     H62008   7.853   5.061   4.506  0.0080 -2.3132  2.7426
  470MOL0     H62009   7.990   4.952   4.514  0.0962  1.8962  3.0758
  470MOL0     H62010   8.021   4.956   4.275 -0.6488  1.1011 -2.3433
  470MOL0     H62011   7.943   5.108   4.251  0.0500 -2.0659 -4.7506
  470MOL0     H62012   7.820   4.907   4.163 -1.7304  0.8876  0.0153
  470MOL0     H62013   7.805   4.839   4.330 -2.9854 -0.7711  0.1802
  470MOL0     H62014   7.670   5.103   4.233 -1.0905  0.7022 -0.5259
  470MOL0     H62015   7.655   5.035   4.396 -0.5484  3.0028 -0.9612
  470MOL0     H62016   7.541   4.842   4.303 -0.3762 -0.6845 -1.2777
  470MOL0     H62017   7.584   4.889   4.144  1.5897 -2.2573  0.6720
  470MOL0     H62018   7.435   5.108   4.185  3.0948  0.9177  2.3715
  470MOL0     H62019   7.341   4.963   4.175 -1.3411  1.3689  1.4446
  470MOL0     H62020   7.265   5.081   4.363  0.8420  0.3816 -0.8904
  470MOL0     H62021   7.427   5.079   4.440  2.4964 -0.3971 -1.7304
  470MOL0     H62022   8.401   5.096   4.385  0.1974  0.9779 -1.9846
  470MOL0     H62023   8.598   5.232   4.429 -0.2429 -0.6131 -0.5249
  470MOL0     H62024   8.858   5.382   4.698 -0.6737 -2.8614  5.2041
  470MOL0     H62025   9.070   5.412   4.788  1.0000  0.5657 -1.6075
  470MOL0     H62026  10.337   5.393   5.615  0.9128  0.6333 -1.7212
  470MOL0     H62027  10.509   5.218   5.608  2.1606 -0.0609 -1.1247
  470MOL0     H62028  10.949   4.999   5.424 -0.2292 -1.8407  0.0874
  470MOL0     H62029  11.120   4.846   5.476 -0.5242 -0.8622 -0.6856
  470MOL0     H62030  11.366   4.779   5.570 -0.1571  0.6838 -0.6911
  470MOL0     H62031  11.397   4.672   5.699  1.9916 -0.3773 -2.6472
  470MOL0     H62032  11.507   4.900   5.759  0.1166  1.2157  0.5018
  470MOL0     H62033  11.347   4.964   5.764  2.7812  0.8420  1.7665
  470MOL0     H62034  11.303   4.772   5.952  0.0023 -1.1394 -0.5856
  470MOL0     H62035  11.401   4.919   5.976  0.4537  0.1991  0.1235
  470MOL0     H62036  11.545   4.673   5.872 -0.7877  0.3255 -1.4627
  470MOL0     H62037  11.598   4.827   5.938  0.2981 -0.9266 -0.9073
  470MOL0     H62038  11.478   4.576   6.283 -1.6368 -0.6180 -0.9142
  470MOL0     H62039  11.069   4.890   5.893  2.5864  0.6036 -0.3967
  470MOL0     H62040  10.905   5.072   5.848 -0.7482 -0.1014  0.0971
  471MOL0     O62041   8.179   2.781   6.215  1.1379  0.1351 -0.5823
  471MOL0     C62042   8.217   2.687   6.288 -0.1321  0.4173 -0.5734
  471MOL0     O62043   8.136   2.621   6.373  0.4610 -0.0650 -0.4172
  471MOL0     C62044   7.997   2.627   6.365 -0.8828  0.2628  0.4746
  471MOL0     C62045   7.925   2.508   6.369 -0.2626 -0.1052 -0.0691
  471MOL0     C62046   7.788   2.505   6.372 -0.6709 -0.0019  0.0187
  471MOL0     C62047   7.719   2.623   6.372 -0.0129  0.7354  0.0534
  471MOL0     O62048   7.583   2.634   6.387  0.6096 -0.2546  0.2590
  471MOL0     C62049   7.500   2.521   6.405  0.6062  0.0064 -0.0865
  471MOL0     C62050   7.353   2.562   6.418  0.0380  0.1444  0.5910
  471MOL0     C62051   7.279   2.430   6.435 -0.3123  1.1547  0.6003
  471MOL0     C62052   7.137   2.456   6.472 -0.6453 -0.1397 -0.0734
  471MOL0     C62053   7.068   2.325   6.500  0.3685  0.4980 -0.1089
  471MOL0     C62054   6.920   2.345   6.532 -0.0882 -0.0193  0.1571
  471MOL0     C62055   6.834   2.215   6.520  0.5353 -0.8903 -0.6621
  471MOL0     C62056   6.731   2.229   6.634 -0.0308  1.1602  0.3684
  471MOL0     N62057   6.612   2.308   6.604  0.0415 -0.6141 -0.0331
  471MOL0     C62058   6.504   2.252   6.540 -0.9404  0.2894  0.6391
  471MOL0     C62059   6.405   2.342   6.552 -0.4134  0.0586  0.6431
  471MOL0     C62060   6.259   2.324   6.507 -0.5192 -0.4731  0.2765
  471MOL0     C62061   6.149   2.352   6.605  0.0211 -0.3154  0.0033
  471MOL0     C62062   6.137   2.492   6.662 -0.0629 -0.5880  0.0276
  471MOL0     C62063   5.999   2.528   6.722 -0.0369 -0.0382  0.6744
  471MOL0     O62064   5.949   2.421   6.804  1.1800  0.0868  0.4924
  471MOL0     C62065   5.848   2.460   6.890 -0.0264 -0.2276  0.8963
  471MOL0     C62066   5.830   2.402   7.015 -0.8676  1.1253  0.4208
  471MOL0     C62067   5.720   2.427   7.098  0.4193 -0.3912 -0.3398
  471MOL0     C62068   5.615   2.510   7.060 -0.4438  0.5376 -0.0625
  471MOL0     C62069   5.504   2.536   7.161 -0.4702 -0.4750 -0.0685
  471MOL0     O62070   5.517   2.501   7.291 -0.2834 -0.6151  1.0614
  471MOL0     C62071   5.412   2.476   7.368  0.0574 -0.5071  0.6878
  471MOL0     C62072   5.377   2.568   7.463 -0.0818 -1.1562  0.2540
  471MOL0     C62073   5.265   2.544   7.551 -0.1293 -0.5752  0.1515
  471MOL0     C62074   5.187   2.435   7.529 -1.2387 -0.2413 -0.0275
  471MOL0     O62075   5.076   2.419   7.611  0.1683  0.1850 -0.1038
  471MOL0     C62076   4.976   2.328   7.570 -0.3083  0.6177  0.2102
  471MOL0     C62077   4.857   2.331   7.657  0.3557  0.8579  0.4688
  471MOL0     C62078   4.756   2.225   7.614  0.0518 -0.4771 -0.3653
  471MOL0     C62079   4.627   2.242   7.709  0.0422  0.3279 -0.2093
  471MOL0     C62080   4.514   2.161   7.650 -0.3374 -0.3974  0.5130
  471MOL0     C62081   4.375   2.182   7.743  0.3307 -0.7110  0.2575
  471MOL0     C62082   4.283   2.065   7.715  0.2043 -0.5577  1.0161
  471MOL0     C62083   4.143   2.085   7.782  0.0556  0.2516  0.4114
  471MOL0    Cl62084   4.010   1.990   7.725 -0.2111 -0.0820 -0.3436
  471MOL0     C62085   5.227   2.335   7.431  0.0078 -0.1297  0.2768
  471MOL0     C62086   5.340   2.359   7.355  0.2432  1.0318  0.5914
  471MOL0     O62087   5.411   2.590   7.110 -0.6430 -0.1045  0.0855
  471MOL0     C62088   5.633   2.566   6.931  0.6037 -0.4904 -0.6555
  471MOL0     C62089   5.751   2.549   6.851 -0.2673 -0.7379  1.0468
  471MOL0     N62090   6.462   2.442   6.631  1.2132 -0.0879 -0.2442
  471MOL0     N62091   6.578   2.428   6.663 -0.8894  0.5002  0.2461
  471MOL0     C62092   7.788   2.741   6.353  0.5009  0.4431  0.5319
  471MOL0     C62093   7.929   2.749   6.353 -0.0397  0.4996  0.5345
  471MOL0     C62094   8.355   2.649   6.272 -1.3792  0.1827  0.2843
  471MOL0     C62095   8.448   2.737   6.207  0.3169  0.2191 -0.9866
  471MOL0     C62096   8.586   2.696   6.179  0.8562 -0.5829 -0.3400
  471MOL0     C62097   8.639   2.573   6.218  0.1532 -0.3233 -0.2031
  471MOL0     O62098   8.765   2.533   6.192  0.4805  0.4291 -0.2519
  471MOL0     C62099   8.873   2.629   6.150  0.6042  0.8734  0.3115
  471MOL0     C62100   9.006   2.547   6.138  0.2375 -0.6791  0.8581
  471MOL0     C62101   9.000   2.406   6.073 -0.2339  1.0612  0.1147
  471MOL0     C62102   9.012   2.405   5.915 -0.3105 -0.4073 -0.0516
  471MOL0     C62103   9.140   2.448   5.877 -1.1339  0.3083  0.4071
  471MOL0     C62104   9.247   2.490   5.836  0.5212  0.3532  1.0720
  471MOL0     C62105   8.544   2.496   6.293 -0.2212 -0.0358 -0.1358
  471MOL0     C62106   8.412   2.526   6.309  0.9270 -0.3417  0.3380
  471MOL0     H62107   7.983   2.418   6.390  0.2051 -0.0697 -1.1683
  471MOL0     H62108   7.738   2.410   6.381  1.3524 -1.2127 -0.9011
  471MOL0     H62109   7.530   2.470   6.497  0.3957  0.4560  0.2394
  471MOL0     H62110   7.501   2.455   6.318 -2.2465 -0.5960  0.2204
  471MOL0     H62111   7.315   2.610   6.328  0.1048  0.2080  0.5964
  471MOL0     H62112   7.325   2.625   6.503 -0.9832 -0.5021  0.7510
  471MOL0     H62113   7.320   2.370   6.517  1.2150  1.4303  0.0651
  471MOL0     H62114   7.290   2.372   6.343  0.9472  3.1928 -0.6077
  471MOL0     H62115   7.143   2.513   6.566 -0.5395  2.0024 -1.3069
  471MOL0     H62116   7.088   2.523   6.401  0.8308  0.0285 -0.9846
  471MOL0     H62117   7.119   2.270   6.580  2.9044 -0.5964 -2.3107
  471MOL0     H62118   7.073   2.264   6.409 -0.4769 -2.3640  1.6322
  471MOL0     H62119   6.891   2.414   6.452  2.6126 -0.0099 -0.9032
  471MOL0     H62120   6.907   2.396   6.628 -0.7650  1.0250 -0.4677
  471MOL0     H62121   6.778   2.206   6.426 -4.2195  2.2569  1.4673
  471MOL0     H62122   6.904   2.133   6.538  1.6402  0.6562  3.1325
  471MOL0     H62123   6.775   2.275   6.723 -0.3675  0.5203  0.8770
  471MOL0     H62124   6.704   2.126   6.660 -1.2451  1.7080  1.4141
  471MOL0     H62125   6.495   2.160   6.483  0.4123  1.4317 -1.5775
  471MOL0     H62126   6.243   2.223   6.470  0.5410 -0.3161 -0.6491
  471MOL0     H62127   6.245   2.389   6.420 -0.8559 -0.8177  0.0716
  471MOL0     H62128   6.173   2.291   6.692 -0.5779  0.7261  0.9266
  471MOL0     H62129   6.050   2.331   6.564 -0.2884  0.2063  0.4667
  471MOL0     H62130   6.203   2.501   6.749  0.6149 -1.6906 -0.3600
  471MOL0     H62131   6.168   2.562   6.584 -1.6791 -1.9068 -1.8869
  471MOL0     H62132   5.931   2.532   6.636  2.0385 -0.6122 -1.1009
  471MOL0     H62133   5.997   2.626   6.770  0.8193 -0.1169  0.8869
  471MOL0     H62134   5.898   2.331   7.060 -0.0780  1.8615  0.4222
  471MOL0     H62135   5.710   2.368   7.188 -0.3310 -1.9400 -1.3939
  471MOL0     H62136   5.427   2.661   7.487 -2.1922 -0.4757  2.3803
  471MOL0     H62137   5.237   2.608   7.635  0.5605  1.3358 -1.0028
  471MOL0     H62138   5.021   2.228   7.566  0.1481  0.7785  1.1167
  471MOL0     H62139   4.944   2.368   7.473 -0.1108  0.0167 -0.1082
  471MOL0     H62140   4.822   2.434   7.646 -1.5834 -0.0417 -4.3602
  471MOL0     H62141   4.884   2.327   7.763  1.3606  3.1577  0.3467
  471MOL0     H62142   4.804   2.127   7.620  1.8680  0.3638 -0.3338
  471MOL0     H62143   4.731   2.242   7.509 -2.4245  0.2792  0.2818
  471MOL0     H62144   4.654   2.191   7.802 -0.3720  2.5886  1.2366
  471MOL0     H62145   4.598   2.345   7.729 -0.0608  0.0907  0.9175
  471MOL0     H62146   4.544   2.056   7.646 -2.3401 -0.9846 -0.6934
  471MOL0     H62147   4.488   2.195   7.550 -1.3230  1.7406  1.4336
  471MOL0     H62148   4.319   2.272   7.714  1.4842 -0.1895 -0.4414
  471MOL0     H62149   4.410   2.188   7.846  0.3901  0.5280  0.1808
  471MOL0     H62150   4.283   2.045   7.608 -1.6858 -1.4692  1.1418
  471MOL0     H62151   4.333   1.976   7.754 -1.5259 -1.8424  0.4276
  471MOL0     H62152   4.099   2.183   7.764 -3.8075 -1.8217 -3.3077
  471MOL0     H62153   4.155   2.075   7.891 -1.6030  2.5624  0.8816
  471MOL0     H62154   5.165   2.246   7.430 -1.7007  0.9593 -1.9361
  471MOL0     H62155   5.376   2.284   7.285 -0.4046  2.4260 -1.3261
  471MOL0     H62156   5.559   2.635   6.891 -2.0662 -2.1798  0.9793
  471MOL0     H62157   5.754   2.610   6.761  2.0157 -1.9496  0.2229
  471MOL0     H62158   7.729   2.831   6.340  0.6936  0.2831 -2.0958
  471MOL0     H62159   7.979   2.846   6.350  1.2742 -0.1701  0.1342
  471MOL0     H62160   8.413   2.833   6.171 -2.0176 -0.5270 -0.8793
  471MOL0     H62161   8.653   2.766   6.129 -1.3193  1.6144 -0.3533
  471MOL0     H62162   8.877   2.702   6.232 -0.4756 -0.7528  1.8750
  471MOL0     H62163   8.844   2.686   6.061 -3.1920 -1.0421  0.1377
  471MOL0     H62164   9.075   2.618   6.093 -1.1445 -0.5081 -1.1254
  471MOL0     H62165   9.046   2.527   6.238  5.1342 -0.5088 -0.8128
  471MOL0     H62166   8.911   2.347   6.095  2.0935 -3.4658 -1.1871
  471MOL0     H62167   9.079   2.342   6.115 -0.3079  0.1099 -1.1104
  471MOL0     H62168   8.997   2.305   5.872  0.8977 -0.0517 -1.3415
  471MOL0     H62169   8.934   2.467   5.870 -0.1412 -1.3499 -1.7350
  471MOL0     H62170   9.346   2.525   5.816  0.5172 -0.2134 -0.0053
  471MOL0     H62171   8.575   2.400   6.333 -2.4532 -1.3520 -1.2963
  471MOL0     H62172   8.348   2.453   6.357  0.0173  0.4862  0.4025
  472MOL0     O62173   0.396   5.809   8.757  0.4524 -0.6360  0.1747
  472MOL0     C62174   0.378   5.719   8.836  1.4621  0.6002  0.1622
  472MOL0     O62175   0.271   5.626   8.833 -0.2026  0.6353 -0.3901
  472MOL0     C62176   0.150   5.661   8.772 -0.3117 -0.1650 -0.7699
  472MOL0     C62177   0.042   5.660   8.855 -0.9041 -0.1779 -0.9733
  472MOL0     C62178  -0.081   5.690   8.813 -0.2483 -0.4750  0.3388
  472MOL0     C62179  -0.105   5.733   8.680 -0.8259  0.1724  0.6307
  472MOL0     O62180  -0.233   5.757   8.639 -0.2976  0.8165  0.8062
  472MOL0     C62181  -0.251   5.817   8.501  0.5143  0.6999 -0.7565
  472MOL0     C62182  -0.394   5.860   8.489  0.3855  0.1672 -0.7726
  472MOL0     C62183  -0.435   5.876   8.347 -0.3138 -1.1279 -0.5143
  472MOL0     C62184  -0.576   5.941   8.348  0.5650  0.7676 -0.7902
  472MOL0     C62185  -0.640   5.948   8.205 -0.2859 -0.5330 -1.4709
  472MOL0     C62186  -0.786   5.980   8.215  0.0549 -0.8016 -0.3592
  472MOL0     C62187  -0.801   6.133   8.218  0.3156  0.0333  1.0172
  472MOL0     C62188  -0.926   6.170   8.302  0.9551 -0.3927 -0.0930
  472MOL0     N62189  -1.056   6.109   8.254 -0.3211 -1.0696  0.0455
  472MOL0     C62190  -1.120   6.004   8.316 -0.0925  0.4475  0.8186
  472MOL0     C62191  -1.235   5.998   8.266  0.2589  0.2452 -0.1704
  472MOL0     C62192  -1.341   5.898   8.308  0.1883 -0.3745  0.0845
  472MOL0     C62193  -1.479   5.973   8.308 -0.2904  0.3807  0.0516
  472MOL0     C62194  -1.596   5.875   8.309  0.2443  0.6216  0.2305
  472MOL0     C62195  -1.729   5.947   8.285 -0.4741  0.2944  0.6529
  472MOL0     O62196  -1.839   5.861   8.278 -0.6521  0.9210 -0.1439
  472MOL0     C62197  -1.964   5.906   8.309  1.0544  0.3193 -0.2065
  472MOL0     C62198  -2.063   5.810   8.327 -0.5616  0.0903  0.2541
  472MOL0     C62199  -2.197   5.848   8.329  0.2192 -0.1386 -0.6255
  472MOL0     C62200  -2.238   5.981   8.320 -0.5454 -0.7654 -0.0884
  472MOL0     C62201  -2.375   6.027   8.315  0.3583 -0.3131  0.2864
  472MOL0     O62202  -2.407   6.146   8.261  1.1545 -0.3429  0.9080
  472MOL0     C62203  -2.526   6.204   8.297 -0.1552 -0.2728 -0.3737
  472MOL0     C62204  -2.559   6.213   8.433  0.1791 -0.8468  0.0859
  472MOL0     C62205  -2.683   6.257   8.478  0.6549  0.0686  0.0429
  472MOL0     C62206  -2.780   6.289   8.374 -0.8051  0.8070 -0.1535
  472MOL0     O62207  -2.906   6.302   8.423 -0.6265  0.0811 -0.3704
  472MOL0     C62208  -2.990   6.397   8.366 -0.0365 -0.5144  0.7488
  472MOL0     C62209  -3.077   6.470   8.476 -0.5035  0.0198  1.2349
  472MOL0     C62210  -3.201   6.546   8.424 -0.9491 -0.6961  0.4894
  472MOL0     C62211  -3.271   6.636   8.522  0.9028 -0.4162 -0.2927
  472MOL0     C62212  -3.408   6.712   8.478  0.0389 -1.0336 -0.1605
  472MOL0     C62213  -3.429   6.840   8.571 -1.2042  0.3663  0.9217
  472MOL0     C62214  -3.560   6.918   8.548  0.3794  0.4240  0.2124
  472MOL0     C62215  -3.685   6.835   8.565  0.9353 -0.1748  0.0620
  472MOL0    Cl62216  -3.818   6.939   8.550 -0.5772 -0.0435  0.0784
  472MOL0     C62217  -2.736   6.289   8.241 -0.7235  0.1526  0.4708
  472MOL0     C62218  -2.611   6.250   8.205 -0.3242  0.0120 -0.0159
  472MOL0     O62219  -2.459   5.945   8.354  0.0635  0.0134  0.6609
  472MOL0     C62220  -2.138   6.083   8.316 -0.2319 -0.0542 -0.1605
  472MOL0     C62221  -2.004   6.043   8.300  0.9075 -0.2091  0.3496
  472MOL0     N62222  -1.242   6.089   8.163 -0.2749  0.6069  0.7654
  472MOL0     N62223  -1.130   6.153   8.149 -0.4589 -0.8017  0.5839
  472MOL0     C62224   0.009   5.735   8.591 -0.8837  0.0608  0.0319
  472MOL0     C62225   0.135   5.709   8.642 -0.5526 -0.3171  0.5008
  472MOL0     C62226   0.480   5.705   8.945 -0.3783 -0.1611 -0.4308
  472MOL0     C62227   0.471   5.607   9.049 -1.0173 -0.4649 -0.0053
  472MOL0     C62228   0.576   5.604   9.135  0.2458 -0.4966 -0.8259
  472MOL0     C62229   0.686   5.693   9.138 -0.1936 -0.0347 -1.3498
  472MOL0     O62230   0.790   5.671   9.226  0.1190  1.0174  0.0910
  472MOL0     C62231   0.928   5.706   9.189 -0.3202 -0.0170 -0.5281
  472MOL0     C62232   0.981   5.602   9.079 -1.6257 -0.5297  0.4492
  472MOL0     C62233   1.133   5.632   9.042  0.7851 -0.4696  0.5134
  472MOL0     C62234   1.215   5.502   9.032  1.2641  0.2402 -0.2467
  472MOL0     C62235   1.206   5.414   9.151  0.6550  0.7801 -0.1726
  472MOL0     C62236   1.223   5.355   9.260 -0.0443 -0.2874 -0.3089
  472MOL0     C62237   0.685   5.788   9.041 -0.2377  0.1485  0.0294
  472MOL0     C62238   0.595   5.790   8.936 -0.8473  0.4337 -0.0833
  472MOL0     H62239   0.048   5.620   8.956  0.4813  0.2717 -0.8533
  472MOL0     H62240  -0.171   5.694   8.872 -0.8247  1.0372 -0.5777
  472MOL0     H62241  -0.226   5.745   8.423 -0.2285 -0.9710  0.4914
  472MOL0     H62242  -0.195   5.911   8.510 -2.2312  2.2394  3.1676
  472MOL0     H62243  -0.423   5.948   8.548  1.4524 -0.8678  1.4247
  472MOL0     H62244  -0.465   5.789   8.532 -0.8627  0.9659 -1.4690
  472MOL0     H62245  -0.455   5.779   8.299 -1.8553  0.2643 -2.8948
  472MOL0     H62246  -0.357   5.932   8.295 -0.6535 -0.0491  0.1167
  472MOL0     H62247  -0.648   5.896   8.417 -1.4184  1.0177 -2.5913
  472MOL0     H62248  -0.568   6.043   8.387  1.4960  1.2851 -2.2502
  472MOL0     H62249  -0.641   5.849   8.159  0.5583  0.3548 -3.5252
  472MOL0     H62250  -0.587   6.011   8.133 -0.9575 -0.1236 -1.6128
  472MOL0     H62251  -0.834   5.934   8.301 -0.5114 -1.1009 -0.8299
  472MOL0     H62252  -0.834   5.938   8.126 -0.7521 -2.5939  0.8568
  472MOL0     H62253  -0.714   6.172   8.272  0.9419  1.2032 -0.7338
  472MOL0     H62254  -0.822   6.190   8.126 -2.7608  0.4194  1.8552
  472MOL0     H62255  -0.934   6.279   8.310  0.5861 -0.3971 -0.4157
  472MOL0     H62256  -0.910   6.135   8.405 -2.8456 -2.3365  0.0007
  472MOL0     H62257  -1.062   5.944   8.386  3.0199 -1.7040 -3.1683
  472MOL0     H62258  -1.314   5.850   8.402 -1.9025 -2.3883 -0.2634
  472MOL0     H62259  -1.340   5.821   8.231  0.7109  0.4930 -0.8069
  472MOL0     H62260  -1.487   6.028   8.213  0.8073  2.2965  1.0068
  472MOL0     H62261  -1.474   6.038   8.396 -1.9316  1.5792 -0.6782
  472MOL0     H62262  -1.585   5.793   8.237 -3.5859 -1.1754  1.4117
  472MOL0     H62263  -1.607   5.826   8.406  1.2563 -1.1822 -0.5107
  472MOL0     H62264  -1.727   5.991   8.185 -0.7513  0.0792  0.5528
  472MOL0     H62265  -1.751   6.027   8.356 -1.6155  1.5109 -0.9930
  472MOL0     H62266  -2.045   5.704   8.320 -0.0011  0.2136 -0.4049
  472MOL0     H62267  -2.272   5.774   8.351 -4.5070  4.3562  0.3745
  472MOL0     H62268  -2.477   6.199   8.503 -0.0828  4.8449  2.0517
  472MOL0     H62269  -2.708   6.251   8.583 -0.9763  0.6170 -0.2822
  472MOL0     H62270  -3.068   6.333   8.323  2.0064 -1.9127 -1.1060
  472MOL0     H62271  -2.938   6.460   8.293  2.0609 -2.2935  0.6034
  472MOL0     H62272  -3.007   6.529   8.535  1.2536  0.1693 -0.8785
  472MOL0     H62273  -3.105   6.392   8.547 -1.6253  0.8140  1.7091
  472MOL0     H62274  -3.280   6.478   8.393 -0.7675 -1.4595  1.6745
  472MOL0     H62275  -3.174   6.605   8.336 -0.5068 -0.8266  0.5338
  472MOL0     H62276  -3.315   6.573   8.600 -1.7120  1.1211 -0.4000
  472MOL0     H62277  -3.200   6.706   8.567  0.7088 -1.3722  1.6294
  472MOL0     H62278  -3.491   6.641   8.481 -0.1617 -0.9711 -2.2780
  472MOL0     H62279  -3.391   6.757   8.379  0.6290 -0.2506  0.2816
  472MOL0     H62280  -3.353   6.911   8.535 -0.9310 -0.8862 -1.1760
  472MOL0     H62281  -3.409   6.814   8.675 -1.2948 -0.9956  0.6137
  472MOL0     H62282  -3.569   7.002   8.618  1.9226  1.5662 -0.8891
  472MOL0     H62283  -3.552   6.974   8.454  0.4094  0.9472  0.5204
  472MOL0     H62284  -3.671   6.803   8.668  0.1037  1.9099  0.8732
  472MOL0     H62285  -3.695   6.761   8.485 -1.8037  1.7262 -1.5092
  472MOL0     H62286  -2.812   6.314   8.168 -0.8939  0.9566  0.9242
  472MOL0     H62287  -2.585   6.234   8.101  0.5277 -1.6264  0.4043
  472MOL0     H62288  -2.164   6.188   8.326  1.9408  0.4299  1.0736
  472MOL0     H62289  -1.936   6.125   8.280 -1.4861  1.7625 -0.1617
  472MOL0     H62290  -0.001   5.771   8.489 -1.7918  0.3490  0.2136
  472MOL0     H62291   0.218   5.738   8.578 -3.2570  1.9172 -2.3072
  472MOL0     H62292   0.402   5.524   9.040 -0.8489 -0.5007 -1.1600
  472MOL0     H62293   0.587   5.533   9.216  0.9055  2.0923  1.5494
  472MOL0     H62294   0.992   5.713   9.278 -0.5682  3.3536 -0.4714
  472MOL0     H62295   0.929   5.810   9.154 -1.8489 -0.0412 -0.6900
  472MOL0     H62296   0.969   5.501   9.119  1.0000 -2.9734 -4.1249
  472MOL0     H62297   0.932   5.604   8.982  1.7050  1.7565 -1.4051
  472MOL0     H62298   1.178   5.688   9.125  1.6298 -0.4236  0.0371
  472MOL0     H62299   1.143   5.679   8.944 -3.3452 -2.0983 -0.9171
  472MOL0     H62300   1.182   5.441   8.947  4.7552 -1.4210 -0.5931
  472MOL0     H62301   1.317   5.523   8.998  0.9133 -1.8949 -3.0522
  472MOL0     H62302   1.243   5.304   9.353 -0.1919  0.4959  0.1584
  472MOL0     H62303   0.758   5.867   9.025  1.5121 -1.9024 -3.0432
  472MOL0     H62304   0.615   5.847   8.846  1.7577 -2.6038 -1.6434
  473MOL0     O62305   9.515   2.194   4.482  0.0893  0.5988  0.1502
  473MOL0     C62306   9.605   2.275   4.470 -0.6399  0.8978  0.1972
  473MOL0     O62307   9.601   2.408   4.523  0.1653  0.2430 -0.4035
  473MOL0     C62308   9.501   2.443   4.599 -0.7508 -0.5624  0.1592
  473MOL0     C62309   9.476   2.580   4.591 -0.4692 -0.1048  0.4202
  473MOL0     C62310   9.389   2.645   4.677 -0.1162  0.3666  0.2925
  473MOL0     C62311   9.318   2.572   4.771  0.0926 -0.2394  0.1363
  473MOL0     O62312   9.241   2.654   4.857  0.1224 -0.5898 -0.4482
  473MOL0     C62313   9.171   2.609   4.967  0.2152 -0.1055  0.4814
  473MOL0     C62314   9.262   2.558   5.083 -0.1201  0.4814 -0.2108
  473MOL0     C62315   9.175   2.521   5.199 -0.4837  0.1521  0.2406
  473MOL0     C62316   9.245   2.442   5.312 -0.4472 -0.2910 -1.0769
  473MOL0     C62317   9.153   2.404   5.422  0.1274  0.2889  0.3565
  473MOL0     C62318   9.191   2.272   5.472 -0.0595  0.5266 -0.2225
  473MOL0     C62319   9.106   2.225   5.592 -0.6859  1.0538  0.7352
  473MOL0     C62320   8.978   2.135   5.543 -0.5326 -0.8539 -0.0635
  473MOL0     N62321   8.998   1.994   5.519 -0.5586  0.6388 -0.0562
  473MOL0     C62322   9.118   1.921   5.491  1.4461 -0.2701 -0.6448
  473MOL0     C62323   9.070   1.796   5.466 -1.2711 -0.0612 -0.8432
  473MOL0     C62324   9.153   1.674   5.435  0.1055 -0.5424 -0.9764
  473MOL0     C62325   9.282   1.693   5.346  0.1557  0.0542  0.1627
  473MOL0     C62326   9.346   1.554   5.319  0.6845 -0.4592 -0.7216
  473MOL0     C62327   9.455   1.548   5.205 -1.8304 -1.1754  0.1933
  473MOL0     O62328   9.575   1.589   5.271 -0.3969 -0.1039  0.3616
  473MOL0     C62329   9.687   1.584   5.185  0.1155  0.2678 -0.3047
  473MOL0     C62330   9.697   1.680   5.081 -0.2606  0.9994 -0.4780
  473MOL0     C62331   9.823   1.690   5.016  0.4976 -1.2486 -0.3617
  473MOL0     C62332   9.932   1.611   5.050  0.3623  0.4110 -0.2642
  473MOL0     C62333  10.054   1.620   4.979  0.4039 -0.7967 -0.1825
  473MOL0     O62334  10.159   1.554   5.035 -0.6643  0.2872  0.3526
  473MOL0     C62335  10.288   1.537   4.986 -0.0514 -1.3126 -0.8503
  473MOL0     C62336  10.324   1.565   4.856 -0.4817 -0.4634  0.3548
  473MOL0     C62337  10.457   1.544   4.814 -0.5702  0.2842 -0.7760
  473MOL0     C62338  10.558   1.500   4.903 -0.2189 -0.4498  0.1786
  473MOL0     O62339  10.690   1.496   4.865 -0.4042 -0.2187  0.4371
  473MOL0     C62340  10.736   1.576   4.764 -1.2853 -0.0047  0.0852
  473MOL0     C62341  10.885   1.549   4.765  0.1995 -0.2105 -0.3016
  473MOL0     C62342  10.950   1.664   4.828 -0.2719  0.2485  1.0455
  473MOL0     C62343  11.107   1.661   4.822 -0.7791 -1.0025  0.2389
  473MOL0     C62344  11.162   1.786   4.898 -0.4949 -0.3426 -0.2769
  473MOL0     C62345  11.320   1.797   4.898 -0.0752  0.2507 -0.9123
  473MOL0     C62346  11.392   1.678   4.964 -0.4825  0.2618 -0.6592
  473MOL0     C62347  11.379   1.671   5.117 -0.0503 -0.0403 -0.8236
  473MOL0    Cl62348  11.436   1.819   5.211  0.0054  0.3781 -0.3486
  473MOL0     C62349  10.522   1.470   5.034  0.9520  0.7422  0.4265
  473MOL0     C62350  10.389   1.493   5.077  0.1364  0.2740 -0.5310
  473MOL0     O62351  10.063   1.699   4.883 -0.3471  0.0553 -0.5652
  473MOL0     C62352   9.917   1.525   5.166  0.6092  0.2555  1.2224
  473MOL0     C62353   9.795   1.504   5.227  0.5365 -0.6997  0.0977
  473MOL0     N62354   8.934   1.796   5.479 -0.3627 -0.0544  0.2270
  473MOL0     N62355   8.891   1.910   5.513 -0.4956 -0.0710  0.2948
  473MOL0     C62356   9.333   2.430   4.775 -0.5587 -0.1579  0.0281
  473MOL0     C62357   9.430   2.364   4.687  1.0921  0.1064 -0.0939
  473MOL0     C62358   9.700   2.237   4.368 -0.3942 -0.0873 -0.1865
  473MOL0     C62359   9.802   2.334   4.322 -0.3062  0.6601 -0.1218
  473MOL0     C62360   9.899   2.302   4.228  0.0436  0.6404 -0.2830
  473MOL0     C62361   9.899   2.172   4.169 -1.5189 -0.4675 -0.2582
  473MOL0     O62362   9.985   2.133   4.070  0.5243  0.0158  0.0832
  473MOL0     C62363  10.068   2.024   4.110  0.0022 -0.1622 -0.1522
  473MOL0     C62364  10.182   2.063   4.204 -0.0406  0.1446  1.6278
  473MOL0     C62365  10.272   2.153   4.128  0.7256 -0.3764  0.2710
  473MOL0     C62366  10.405   2.160   4.204 -0.5496  0.4692  0.2077
  473MOL0     C62367  10.513   2.090   4.130  0.6283 -1.2377 -0.2260
  473MOL0     C62368  10.605   2.046   4.070 -0.2635  0.1887  0.0146
  473MOL0     C62369   9.790   2.089   4.194  1.2308  0.1225  0.0529
  473MOL0     C62370   9.692   2.125   4.292 -0.0326  0.5882  0.2858
  473MOL0     H62371   9.530   2.639   4.518 -2.3222  3.1874  1.4912
  473MOL0     H62372   9.369   2.751   4.663  1.0111  0.5888  0.3073
  473MOL0     H62373   9.090   2.541   4.939 -1.1972  1.9371 -0.6809
  473MOL0     H62374   9.122   2.699   5.004  0.7717  0.4112 -0.0147
  473MOL0     H62375   9.335   2.631   5.118  1.5242 -1.4545  0.6665
  473MOL0     H62376   9.314   2.469   5.046  1.6139  0.6906  1.5364
  473MOL0     H62377   9.090   2.459   5.169  0.8535 -1.7193  0.1157
  473MOL0     H62378   9.128   2.604   5.253 -1.5092 -0.8636  0.9717
  473MOL0     H62379   9.309   2.358   5.282  0.6399 -0.5848  1.7338
  473MOL0     H62380   9.319   2.508   5.359  1.0166 -0.9311 -2.3655
  473MOL0     H62381   9.050   2.410   5.385 -0.0085  2.8201  0.9784
  473MOL0     H62382   9.149   2.471   5.508 -2.1008 -1.1282  1.4633
  473MOL0     H62383   9.295   2.271   5.508  0.3934  1.8602 -1.4070
  473MOL0     H62384   9.194   2.189   5.401  0.1408 -1.1465  1.6270
  473MOL0     H62385   9.169   2.160   5.654 -2.8264 -2.0688 -0.1244
  473MOL0     H62386   9.057   2.299   5.655 -2.4790  0.6174 -0.0756
  473MOL0     H62387   8.921   2.166   5.455  1.8315 -0.3764 -1.4930
  473MOL0     H62388   8.905   2.162   5.621  1.2794  0.6603  1.1958
  473MOL0     H62389   9.222   1.950   5.479  0.6193  2.7386 -1.3519
  473MOL0     H62390   9.093   1.591   5.397 -0.2216 -1.0747  0.6163
  473MOL0     H62391   9.200   1.641   5.529  0.2302 -2.7842 -1.7733
  473MOL0     H62392   9.354   1.756   5.398  0.3174 -1.7311  2.2553
  473MOL0     H62393   9.253   1.737   5.250  1.8445 -0.2738 -0.5455
  473MOL0     H62394   9.387   1.522   5.415 -1.3793  1.3818  0.8594
  473MOL0     H62395   9.262   1.489   5.291 -0.3115  0.9981 -1.2349
  473MOL0     H62396   9.437   1.621   5.125 -0.6138  0.4229  1.3246
  473MOL0     H62397   9.465   1.446   5.165 -1.1537 -1.4486  1.0306
  473MOL0     H62398   9.614   1.745   5.054  0.7410  1.6164 -2.2517
  473MOL0     H62399   9.824   1.772   4.944 -2.4731 -1.1187 -0.3954
  473MOL0     H62400  10.255   1.598   4.780  0.5853  1.5329  0.1798
  473MOL0     H62401  10.480   1.574   4.712 -2.7883 -0.4680 -1.5509
  473MOL0     H62402  10.721   1.682   4.790  3.2578  0.7363  0.5546
  473MOL0     H62403  10.692   1.547   4.669  2.1310 -0.5630 -1.4785
  473MOL0     H62404  10.931   1.539   4.667 -1.9634  1.2969 -1.5493
  473MOL0     H62405  10.906   1.459   4.823  1.7269  1.4702  1.9023
  473MOL0     H62406  10.918   1.670   4.932 -1.3392  1.1498  0.6814
  473MOL0     H62407  10.920   1.760   4.785 -1.0774  0.6550  2.4737
  473MOL0     H62408  11.137   1.564   4.863  1.4585 -1.8635 -2.9925
  473MOL0     H62409  11.138   1.665   4.717 -0.7690 -2.6712  0.1515
  473MOL0     H62410  11.128   1.777   5.002  3.6531  0.6259  1.3350
  473MOL0     H62411  11.125   1.877   4.850 -1.0214 -0.6967 -0.5608
  473MOL0     H62412  11.348   1.890   4.949  2.0780  0.5983 -2.6137
  473MOL0     H62413  11.350   1.806   4.793 -1.4733  3.1499 -1.1900
  473MOL0     H62414  11.362   1.578   4.930  3.5581 -1.4411  0.2090
  473MOL0     H62415  11.494   1.676   4.925 -1.0664 -0.4263 -2.2445
  473MOL0     H62416  11.451   1.598   5.155  0.7536  1.8853  1.6616
  473MOL0     H62417  11.277   1.651   5.151  0.4034 -1.6628 -0.3009
  473MOL0     H62418  10.598   1.425   5.096 -2.4735 -0.5442  4.1131
  473MOL0     H62419  10.348   1.469   5.175 -1.7237 -3.0958 -1.9421
  473MOL0     H62420  10.005   1.473   5.204  0.2641  0.0303  1.7157
  473MOL0     H62421   9.803   1.434   5.310 -0.5687 -1.6956 -0.6070
  473MOL0     H62422   9.265   2.382   4.845 -0.3380  2.0375  1.8531
  473MOL0     H62423   9.441   2.257   4.698  1.1671 -0.0099 -1.1921
  473MOL0     H62424   9.816   2.432   4.365 -0.4372 -1.3733  5.2732
  473MOL0     H62425   9.980   2.371   4.209  1.0874  0.5238  2.9894
  473MOL0     H62426  10.101   1.989   4.012 -0.7402 -0.2287 -0.3838
  473MOL0     H62427  10.008   1.944   4.156  1.4511 -1.2463 -0.0750
  473MOL0     H62428  10.156   2.109   4.300  1.9328  0.8075  1.8925
  473MOL0     H62429  10.226   1.964   4.217  0.3329 -0.1841 -1.4276
  473MOL0     H62430  10.229   2.253   4.137  2.1650  0.6406 -2.8333
  473MOL0     H62431  10.269   2.128   4.022 -1.1219 -1.2811  0.4868
  473MOL0     H62432  10.439   2.264   4.208 -1.1640  0.6965 -0.2145
  473MOL0     H62433  10.406   2.121   4.306  0.6706  0.7564  0.3237
  473MOL0     H62434  10.672   1.998   4.002 -1.1079  0.2360 -0.8728
  473MOL0     H62435   9.776   2.002   4.130 -0.3125 -1.7086  2.6483
  473MOL0     H62436   9.609   2.056   4.306  1.3780 -1.3011 -0.1729
  474MOL0     O62437   8.741   1.055   4.302  0.6995 -0.9603 -0.3678
  474MOL0     C62438   8.779   1.069   4.182 -0.6125 -0.4180 -0.0902
  474MOL0     O62439   8.719   1.149   4.090  0.2724  0.4411 -0.0181
  474MOL0     C62440   8.601   1.219   4.119  0.2499 -0.4252 -0.3490
  474MOL0     C62441   8.509   1.237   4.015 -0.7155  0.1420  0.3179
  474MOL0     C62442   8.402   1.320   4.024 -0.0514 -0.8162 -0.4007
  474MOL0     C62443   8.368   1.381   4.152 -0.3399  0.0256  0.8021
  474MOL0     O62444   8.246   1.439   4.173 -0.5795  0.4392  0.4155
  474MOL0     C62445   8.236   1.514   4.292  0.0678  0.5258 -0.3570
  474MOL0     C62446   8.138   1.636   4.281  0.8853 -0.2995  0.5784
  474MOL0     C62447   8.101   1.664   4.426 -0.3409  0.4960 -0.4125
  474MOL0     C62448   8.036   1.797   4.462  0.0691  0.2619 -0.3661
  474MOL0     C62449   7.975   1.805   4.606 -0.2653  0.3756  0.2038
  474MOL0     C62450   7.890   1.932   4.597 -0.0806  0.3650  0.4419
  474MOL0     C62451   7.734   1.915   4.595 -0.1364  0.2869  0.7748
  474MOL0     C62452   7.684   1.814   4.698  0.4045  0.4319 -0.0468
  474MOL0     N62453   7.541   1.814   4.704  1.0907  0.0315  0.5148
  474MOL0     C62454   7.460   1.917   4.749  0.9586  0.0222  0.2753
  474MOL0     C62455   7.338   1.893   4.689  0.5745  0.0958  0.2799
  474MOL0     C62456   7.212   1.970   4.689 -0.1833  0.8877 -0.9925
  474MOL0     C62457   7.095   1.912   4.763  0.2623 -0.3207  0.6283
  474MOL0     C62458   7.031   1.796   4.685 -0.5884 -0.7696 -0.5795
  474MOL0     C62459   6.888   1.760   4.730 -0.7590 -0.0568 -0.3065
  474MOL0     O62460   6.882   1.728   4.875 -0.3640  0.0643 -0.1499
  474MOL0     C62461   6.770   1.659   4.922 -0.1186 -0.5702 -0.3158
  474MOL0     C62462   6.786   1.564   5.026 -0.1261  1.1590  1.1915
  474MOL0     C62463   6.673   1.490   5.077 -0.6076  1.4124  0.0135
  474MOL0     C62464   6.542   1.508   5.034 -0.8107 -1.0970 -0.0788
  474MOL0     C62465   6.432   1.426   5.080  0.7663 -0.1438  0.3022
  474MOL0     O62466   6.435   1.387   5.215 -0.3525 -0.3582  0.0817
  474MOL0     C62467   6.323   1.328   5.277 -1.1780 -0.7098 -1.2005
  474MOL0     C62468   6.350   1.225   5.365 -0.0822 -0.6033  0.4870
  474MOL0     C62469   6.244   1.157   5.422 -0.2825  0.2427 -0.6460
  474MOL0     C62470   6.108   1.189   5.400 -0.2283  0.4455 -0.1565
  474MOL0     O62471   6.003   1.118   5.468  0.3906  0.1008  0.4588
  474MOL0     C62472   5.881   1.112   5.392  0.5148 -0.9571 -0.8079
  474MOL0     C62473   5.803   1.003   5.460 -0.2136 -0.3856  0.5182
  474MOL0     C62474   5.662   0.980   5.420  0.6181  0.8173 -0.1294
  474MOL0     C62475   5.556   1.101   5.423 -0.0535 -0.5497 -0.4508
  474MOL0     C62476   5.442   1.045   5.327 -0.1505  0.5617 -0.0421
  474MOL0     C62477   5.321   1.140   5.304  0.4323  1.0763  0.4297
  474MOL0     C62478   5.220   1.057   5.233  0.3573 -0.5673  0.6146
  474MOL0     C62479   5.262   1.004   5.099  0.6210  0.0551  0.0442
  474MOL0    Cl62480   5.144   0.893   5.031 -0.4269  0.3679 -0.3086
  474MOL0     C62481   6.084   1.312   5.332 -0.0985  0.0341 -0.7819
  474MOL0     C62482   6.191   1.374   5.264 -0.2976  1.2848  0.5963
  474MOL0     O62483   6.340   1.403   5.004 -0.1780  0.2202  0.4583
  474MOL0     C62484   6.530   1.613   4.938  0.5291  0.9388 -0.2520
  474MOL0     C62485   6.639   1.686   4.888 -0.5586 -0.2000 -0.1492
  474MOL0     N62486   7.344   1.773   4.627 -0.5179 -1.6455  0.3221
  474MOL0     N62487   7.469   1.723   4.629 -0.5897 -0.5924 -0.0268
  474MOL0     C62488   8.461   1.363   4.253 -0.4862  0.3001 -0.4366
  474MOL0     C62489   8.578   1.298   4.236 -0.4024  0.7536  0.1371
  474MOL0     C62490   8.913   1.008   4.142  1.2546 -0.3733  0.3375
  474MOL0     C62491   8.924   0.960   4.013 -0.2695 -0.0988 -0.7971
  474MOL0     C62492   9.044   0.891   3.977 -0.0098  0.4763 -0.5891
  474MOL0     C62493   9.138   0.855   4.075  0.0932 -0.4795  0.0293
  474MOL0     O62494   9.266   0.819   4.055 -0.1818 -0.5073 -0.1667
  474MOL0     C62495   9.300   0.762   3.923 -0.6368 -1.0462  0.0448
  474MOL0     C62496   9.455   0.779   3.893 -0.0717 -0.9526 -0.2406
  474MOL0     C62497   9.542   0.705   3.991  0.0398 -0.2729 -0.2555
  474MOL0     C62498   9.691   0.704   3.959 -0.6205 -0.0464  0.4152
  474MOL0     C62499   9.744   0.828   3.923 -0.8634 -0.0384  1.1387
  474MOL0     C62500   9.799   0.932   3.879  0.2088  0.0786  0.1238
  474MOL0     C62501   9.124   0.913   4.206  0.0896  0.5639 -0.4088
  474MOL0     C62502   9.003   0.972   4.240 -0.0113 -0.5400  0.3480
  474MOL0     H62503   8.545   1.195   3.922 -0.9774 -0.8720  0.6596
  474MOL0     H62504   8.333   1.331   3.941 -3.6349 -0.4003  2.3836
  474MOL0     H62505   8.327   1.558   4.335 -0.7926  1.3951  0.6338
  474MOL0     H62506   8.198   1.445   4.368  1.1262  0.5348  0.1994
  474MOL0     H62507   8.045   1.617   4.226 -1.5822  0.1957  4.2881
  474MOL0     H62508   8.197   1.715   4.232  1.3065 -1.8373 -1.5582
  474MOL0     H62509   8.192   1.654   4.486  0.4285  1.8966 -1.2783
  474MOL0     H62510   8.036   1.580   4.452  1.4126 -1.1494 -1.1882
  474MOL0     H62511   8.111   1.876   4.452  2.1005 -1.5107  0.0099
  474MOL0     H62512   7.958   1.820   4.390  0.5360  0.9793 -0.6537
  474MOL0     H62513   8.054   1.837   4.674 -0.3075 -1.1899  1.0385
  474MOL0     H62514   7.922   1.714   4.637 -3.1100  0.5627 -3.4253
  474MOL0     H62515   7.913   1.999   4.514 -2.0602  3.7776  2.4042
  474MOL0     H62516   7.918   1.989   4.686 -1.4809  0.7858  0.6407
  474MOL0     H62517   7.687   2.012   4.614 -0.7583 -0.3003  2.4449
  474MOL0     H62518   7.699   1.888   4.495  0.5389  0.9205  0.3579
  474MOL0     H62519   7.738   1.845   4.788  0.8991 -0.5961  0.0270
  474MOL0     H62520   7.713   1.709   4.685 -3.2122 -0.8186  0.6292
  474MOL0     H62521   7.503   1.998   4.809 -1.3844  0.2151  1.8167
  474MOL0     H62522   7.176   1.979   4.586 -0.4513 -2.8329 -1.3447
  474MOL0     H62523   7.230   2.072   4.724  0.5074  0.6457 -0.6141
  474MOL0     H62524   7.027   1.995   4.780  0.1714  0.9076 -4.1705
  474MOL0     H62525   7.128   1.868   4.857  2.1772  0.5413  0.4179
  474MOL0     H62526   7.014   1.822   4.579  0.0583  0.9688 -0.2940
  474MOL0     H62527   7.086   1.703   4.695  0.5615  0.1455  2.4039
  474MOL0     H62528   6.853   1.672   4.674  0.2593 -2.0334  1.9811
  474MOL0     H62529   6.826   1.847   4.709 -2.1333 -0.4357  1.8915
  474MOL0     H62530   6.885   1.540   5.063  0.6498  0.4127 -1.1452
  474MOL0     H62531   6.690   1.413   5.152  1.2144 -0.3536 -2.0704
  474MOL0     H62532   6.450   1.189   5.388  2.1133  2.6895 -2.6715
  474MOL0     H62533   6.266   1.069   5.481  0.8494  0.9291 -0.0057
  474MOL0     H62534   5.889   1.081   5.287  2.1411 -0.2386 -0.9373
  474MOL0     H62535   5.825   1.205   5.405  0.0930 -1.2934 -0.1878
  474MOL0     H62536   5.807   1.032   5.566  3.2654 -1.9558  0.9488
  474MOL0     H62537   5.857   0.909   5.448 -1.3792 -1.1678  1.1482
  474MOL0     H62538   5.625   0.904   5.490 -0.6507  0.5273 -1.0880
  474MOL0     H62539   5.660   0.935   5.320  1.6103  1.8811 -0.6511
  474MOL0     H62540   5.518   1.122   5.523 -1.5510  0.7687 -1.2451
  474MOL0     H62541   5.594   1.193   5.377  1.1769 -0.7751  0.0800
  474MOL0     H62542   5.412   0.946   5.361  1.2082 -0.4828 -1.7096
  474MOL0     H62543   5.487   1.024   5.229 -1.4433 -1.1642 -0.3192
  474MOL0     H62544   5.345   1.232   5.248  1.7150  0.4751 -0.0546
  474MOL0     H62545   5.293   1.177   5.403 -4.0083 -1.1706  0.2422
  474MOL0     H62546   5.186   0.972   5.293 -4.5306  0.2706 -0.5775
  474MOL0     H62547   5.137   1.127   5.223  0.8641  0.1666  1.4319
  474MOL0     H62548   5.356   0.950   5.108  0.4296  0.0214  2.2162
  474MOL0     H62549   5.262   1.091   5.031 -0.3337  0.4023  0.4745
  474MOL0     H62550   5.988   1.361   5.324 -0.2450  0.1637  1.3345
  474MOL0     H62551   6.176   1.463   5.203 -2.8561  0.6998  0.2382
  474MOL0     H62552   6.432   1.642   4.902 -1.0302 -2.9370  0.3389
  474MOL0     H62553   6.609   1.752   4.807 -0.9114  0.2154  0.3173
  474MOL0     H62554   8.445   1.402   4.353 -0.1914 -1.1283  0.1945
  474MOL0     H62555   8.658   1.300   4.309 -1.2553  3.0518  1.1053
  474MOL0     H62556   8.854   0.971   3.931 -0.6171  1.1188 -0.3540
  474MOL0     H62557   9.054   0.847   3.878 -2.1715 -2.2844  0.2925
  474MOL0     H62558   9.239   0.801   3.841 -1.7381  1.9909  2.1600
  474MOL0     H62559   9.284   0.654   3.929 -3.4626 -0.6291  2.1481
  474MOL0     H62560   9.465   0.731   3.794  0.9093  1.4923 -1.4154
  474MOL0     H62561   9.489   0.881   3.873 -0.8199 -0.9101 -1.3689
  474MOL0     H62562   9.515   0.599   3.999 -1.4235  0.2040  2.1296
  474MOL0     H62563   9.534   0.747   4.092  3.5600 -1.3304  0.6084
  474MOL0     H62564   9.740   0.666   4.049  2.3847  0.7206 -0.7970
  474MOL0     H62565   9.703   0.629   3.881  1.9766  0.3950  0.3049
  474MOL0     H62566   9.837   1.023   3.838  1.9723 -0.9378 -0.5907
  474MOL0     H62567   9.207   0.894   4.273  1.4335  0.0394 -2.1466
  474MOL0     H62568   8.978   0.995   4.343  2.6444 -0.3410  1.0162
  475MOL0     O62569   8.774   7.713   5.070 -0.1470  0.1058  0.3296
  475MOL0     C62570   8.796   7.599   5.104 -0.3538 -0.0048 -0.1321
  475MOL0     O62571   8.728   7.534   5.200 -0.0870 -0.6383  0.2532
  475MOL0     C62572   8.612   7.577   5.260  0.1094  0.4953  0.1916
  475MOL0     C62573   8.536   7.474   5.325 -0.5168  0.4691 -0.0072
  475MOL0     C62574   8.416   7.502   5.397 -0.1247 -0.4168 -1.1010
  475MOL0     C62575   8.374   7.632   5.410 -0.6497 -0.1151 -0.0643
  475MOL0     O62576   8.267   7.652   5.499  0.1890 -0.7708  0.3784
  475MOL0     C62577   8.216   7.773   5.547 -0.0601  0.0798 -0.4803
  475MOL0     C62578   8.111   7.838   5.455  0.2943 -0.8972  0.5448
  475MOL0     C62579   7.985   7.775   5.423  1.0936  0.0184  0.2864
  475MOL0     C62580   7.904   7.732   5.556 -0.7227  0.4021 -0.5424
  475MOL0     C62581   7.785   7.660   5.511  1.1166 -0.5761  0.3460
  475MOL0     C62582   7.687   7.722   5.406  0.2767  0.1354 -0.0046
  475MOL0     C62583   7.552   7.657   5.396 -0.8579  0.3886 -0.0529
  475MOL0     C62584   7.486   7.679   5.537 -0.4102 -0.2248  0.6789
  475MOL0     N62585   7.347   7.707   5.519  0.4948 -0.3485 -0.0413
  475MOL0     C62586   7.259   7.676   5.419  0.2616  0.8238 -0.3964
  475MOL0     C62587   7.146   7.736   5.444  1.1627  0.6920  0.6772
  475MOL0     C62588   7.028   7.751   5.346 -0.3956  0.1933  0.5680
  475MOL0     C62589   6.893   7.786   5.411  1.0589 -0.1113  1.0970
  475MOL0     C62590   6.785   7.799   5.303  0.0482  0.1513 -0.0679
  475MOL0     C62591   6.654   7.841   5.361 -0.0991  0.0410  0.0084
  475MOL0     O62592   6.561   7.839   5.253 -0.4650 -0.3281 -0.2694
  475MOL0     C62593   6.434   7.852   5.300 -0.5648 -0.4353 -1.0416
  475MOL0     C62594   6.380   7.909   5.429 -0.4963  1.1592  0.0396
  475MOL0     C62595   6.243   7.946   5.434  0.7341 -0.9641 -0.1893
  475MOL0     C62596   6.157   7.909   5.335  0.8117 -0.4780  0.7680
  475MOL0     C62597   6.014   7.941   5.341  0.1547 -0.4277  0.4678
  475MOL0     O62598   5.931   7.876   5.256  0.3530 -0.3290 -1.1510
  475MOL0     C62599   5.794   7.886   5.255 -0.0890 -0.1668  0.0489
  475MOL0     C62600   5.724   7.773   5.205 -0.3782  0.0953 -1.1779
  475MOL0     C62601   5.586   7.770   5.188  0.4426  0.0830  0.2704
  475MOL0     C62602   5.510   7.880   5.237  1.0994 -0.6421  0.4316
  475MOL0     O62603   5.371   7.884   5.225  0.6664 -0.2191  0.1777
  475MOL0     C62604   5.296   7.762   5.217 -0.5432 -0.6255  1.0194
  475MOL0     C62605   5.150   7.794   5.216  0.2017  1.0165  0.4763
  475MOL0     C62606   5.069   7.701   5.133  0.4703  0.1435 -0.2374
  475MOL0     C62607   4.919   7.708   5.158  0.1606  0.0420 -0.6961
  475MOL0     C62608   4.848   7.608   5.069 -0.2028 -0.0487  0.9903
  475MOL0     C62609   4.706   7.590   5.114  0.4756  0.5384  0.3544
  475MOL0     C62610   4.614   7.711   5.079  0.7685 -0.4238 -0.5490
  475MOL0     C62611   4.464   7.674   5.066  0.2403  0.4335 -0.1557
  475MOL0    Cl62612   4.416   7.614   5.221  0.4428  0.1465  0.2351
  475MOL0     C62613   5.577   7.988   5.282  0.8478 -0.2200 -0.0199
  475MOL0     C62614   5.713   8.004   5.293 -0.0933  0.1092  0.0899
  475MOL0     O62615   5.982   8.022   5.430  0.0317  0.0407  0.3670
  475MOL0     C62616   6.198   7.838   5.224  0.2831 -0.4852 -0.0382
  475MOL0     C62617   6.336   7.823   5.204 -0.0671 -0.2088 -0.2658
  475MOL0     N62618   7.160   7.817   5.561  0.6128  0.1230 -0.1204
  475MOL0     N62619   7.285   7.801   5.605  0.5227  0.8964 -0.2245
  475MOL0     C62620   8.453   7.732   5.349  0.5023 -0.3728 -0.1885
  475MOL0     C62621   8.562   7.709   5.274 -0.6890  0.0540  0.0526
  475MOL0     C62622   8.908   7.535   5.035 -0.5661  0.5237 -0.3700
  475MOL0     C62623   8.968   7.419   5.093  0.3173 -0.4318  0.1038
  475MOL0     C62624   9.087   7.366   5.045 -0.1028  0.2423 -1.1393
  475MOL0     C62625   9.133   7.411   4.930 -0.3986  0.5200  0.1142
  475MOL0     O62626   9.250   7.378   4.870  0.6665  0.3158 -0.2103
  475MOL0     C62627   9.310   7.251   4.900 -0.1056 -0.9904  0.1791
  475MOL0     C62628   9.209   7.132   4.851 -0.0515  0.0249  0.0006
  475MOL0     C62629   9.171   7.158   4.705  0.7896 -0.1502 -0.1515
  475MOL0     C62630   9.087   7.051   4.639 -0.7609 -0.3356 -0.0432
  475MOL0     C62631   8.958   7.033   4.713 -0.2172  0.3398  0.1484
  475MOL0     C62632   8.854   7.019   4.774 -0.4022 -0.2175 -0.5758
  475MOL0     C62633   9.072   7.507   4.862  0.3487  0.0934 -0.0791
  475MOL0     C62634   8.957   7.578   4.919  0.2443 -0.6591  0.3298
  475MOL0     H62635   8.576   7.374   5.326 -0.1184  0.6274  0.2419
  475MOL0     H62636   8.349   7.422   5.426 -2.1235  1.3684 -0.4861
  475MOL0     H62637   8.297   7.846   5.561  1.6832 -0.5546 -5.3905
  475MOL0     H62638   8.172   7.760   5.646 -1.6779  0.9855 -1.0435
  475MOL0     H62639   8.160   7.848   5.358 -0.0451 -0.4861  0.4144
  475MOL0     H62640   8.087   7.936   5.496 -1.4344 -1.3439  0.6542
  475MOL0     H62641   7.994   7.686   5.361  0.0551 -0.4753  0.8261
  475MOL0     H62642   7.928   7.844   5.361  1.2101  1.4351  1.6862
  475MOL0     H62643   7.957   7.666   5.626  0.2667 -0.5337 -2.1338
  475MOL0     H62644   7.888   7.818   5.621  3.5059 -1.4958  3.6788
  475MOL0     H62645   7.727   7.654   5.603 -0.6177 -1.4917 -0.7501
  475MOL0     H62646   7.813   7.558   5.480  0.0541 -0.8287  0.1722
  475MOL0     H62647   7.732   7.706   5.307  1.3976 -0.1346  0.5296
  475MOL0     H62648   7.682   7.831   5.414  0.5046  0.1683 -0.2723
  475MOL0     H62649   7.492   7.697   5.314 -1.6535 -1.7585 -0.5746
  475MOL0     H62650   7.566   7.553   5.365 -0.6835  0.2767  0.3787
  475MOL0     H62651   7.536   7.765   5.581  0.4128  1.3446 -2.9651
  475MOL0     H62652   7.496   7.589   5.599 -0.1774  2.0660  4.2671
  475MOL0     H62653   7.271   7.604   5.339 -2.7501 -1.3155  0.8862
  475MOL0     H62654   7.023   7.648   5.309  1.4197 -1.1932  3.8375
  475MOL0     H62655   7.054   7.819   5.264 -0.1803 -0.3543  0.1724
  475MOL0     H62656   6.903   7.883   5.461  0.1685  0.6389 -0.1467
  475MOL0     H62657   6.854   7.705   5.474 -1.1298 -0.5117 -0.6758
  475MOL0     H62658   6.816   7.861   5.218  2.1818 -0.8053 -0.0651
  475MOL0     H62659   6.776   7.702   5.252  1.9573  0.3770 -0.9352
  475MOL0     H62660   6.673   7.943   5.397  0.9406 -0.3653  0.6806
  475MOL0     H62661   6.618   7.786   5.449 -0.6291 -0.6108 -0.6032
  475MOL0     H62662   6.439   7.927   5.518 -0.4389 -0.3637  0.3308
  475MOL0     H62663   6.207   8.001   5.520  0.6674  0.1869 -0.9292
  475MOL0     H62664   5.771   7.680   5.174 -1.2311 -1.7803  2.5130
  475MOL0     H62665   5.534   7.692   5.134  0.8406 -2.5495  3.3844
  475MOL0     H62666   5.318   7.702   5.306 -0.5511 -0.3072  1.2374
  475MOL0     H62667   5.328   7.720   5.122  1.8736  2.7258  0.1603
  475MOL0     H62668   5.126   7.895   5.182  0.6999  0.5985 -1.2395
  475MOL0     H62669   5.119   7.776   5.319 -0.6649 -0.9411 -0.0665
  475MOL0     H62670   5.107   7.600   5.155  2.2285  0.6915 -0.6387
  475MOL0     H62671   5.085   7.731   5.029 -2.7042 -2.2089 -1.5592
  475MOL0     H62672   4.892   7.679   5.259 -2.0943 -0.1383 -1.3066
  475MOL0     H62673   4.878   7.808   5.147 -0.1659  0.2554  1.9151
  475MOL0     H62674   4.899   7.512   5.064 -1.8295 -0.9318  0.6681
  475MOL0     H62675   4.848   7.648   4.967  0.0275  2.2797  1.8276
  475MOL0     H62676   4.710   7.570   5.222  2.4172 -0.1741  0.1911
  475MOL0     H62677   4.672   7.496   5.071  1.5361  0.2854  0.0387
  475MOL0     H62678   4.621   7.775   5.167  1.0549 -1.2970  0.0813
  475MOL0     H62679   4.654   7.754   4.987 -0.7075 -1.8917 -1.9524
  475MOL0     H62680   4.447   7.598   4.990  1.3951  0.5563 -0.5519
  475MOL0     H62681   4.396   7.754   5.036  0.1610  0.2527 -0.4659
  475MOL0     H62682   5.529   8.080   5.315  3.7481  1.2922  0.2311
  475MOL0     H62683   5.766   8.091   5.330 -0.7890 -0.0273  1.4535
  475MOL0     H62684   6.138   7.800   5.142  2.6360 -2.6525 -0.8988
  475MOL0     H62685   6.366   7.766   5.116  4.6977  1.0903  0.2413
  475MOL0     H62686   8.410   7.830   5.369  0.3780 -0.2097 -1.1753
  475MOL0     H62687   8.618   7.789   5.228  0.6228 -0.9064 -0.0739
  475MOL0     H62688   8.915   7.372   5.175 -0.1636 -0.1489 -0.0401
  475MOL0     H62689   9.147   7.294   5.099  2.0064  1.8158 -1.2386
  475MOL0     H62690   9.339   7.253   5.006  4.2864 -0.0187 -0.8587
  475MOL0     H62691   9.405   7.235   4.848  2.0926 -2.6655  4.2356
  475MOL0     H62692   9.259   7.035   4.857  1.6077  0.6463 -2.3253
  475MOL0     H62693   9.119   7.136   4.912 -0.2096  0.5273 -0.2578
  475MOL0     H62694   9.253   7.163   4.633 -0.3705 -1.0244 -1.6031
  475MOL0     H62695   9.117   7.253   4.702  1.5926  0.2968 -1.7709
  475MOL0     H62696   9.076   7.067   4.531 -0.1544 -0.4001 -0.1166
  475MOL0     H62697   9.149   6.962   4.646 -0.2624  0.1405  1.9793
  475MOL0     H62698   8.769   6.994   4.833  0.9825 -0.0255  1.5971
  475MOL0     H62699   9.114   7.559   4.777  0.2502 -0.7526 -0.6547
  475MOL0     H62700   8.924   7.665   4.864 -1.3733 -1.5565 -0.1828
  476MOL0     O62701   7.087   3.523   4.531  0.2969  0.1457 -0.0886
  476MOL0     C62702   7.021   3.595   4.458  0.1364 -0.8844  0.1887
  476MOL0     O62703   6.880   3.586   4.439  0.4169 -1.1241 -0.4809
  476MOL0     C62704   6.809   3.504   4.514  0.8509 -0.0136 -0.4008
  476MOL0     C62705   6.699   3.560   4.590  0.2824 -0.1218 -0.8119
  476MOL0     C62706   6.613   3.469   4.662 -0.5589 -0.0937 -0.3811
  476MOL0     C62707   6.642   3.340   4.670 -0.2855  0.8045 -0.0866
  476MOL0     O62708   6.555   3.255   4.739  0.9674 -0.9954  0.2552
  476MOL0     C62709   6.601   3.132   4.792 -0.2963  0.1111 -0.3511
  476MOL0     C62710   6.498   3.088   4.897 -0.3588  0.1388  1.0361
  476MOL0     C62711   6.368   3.036   4.842 -0.4603 -0.4381 -0.2686
  476MOL0     C62712   6.293   2.945   4.940 -0.0296  0.0591  0.5095
  476MOL0     C62713   6.156   2.902   4.882 -0.1897 -0.2595 -0.5910
  476MOL0     C62714   6.110   2.758   4.909 -0.9186 -0.3029 -0.8666
  476MOL0     C62715   6.036   2.693   4.787  0.4003 -0.0890  0.0685
  476MOL0     C62716   5.974   2.563   4.818 -0.0701  0.0820  0.2099
  476MOL0     N62717   5.858   2.567   4.906  0.1178 -0.4299 -0.0966
  476MOL0     C62718   5.737   2.628   4.888 -0.4105 -0.0488 -0.7402
  476MOL0     C62719   5.678   2.640   5.004  0.7187  0.9617  0.5827
  476MOL0     C62720   5.535   2.687   5.026  0.0682  0.2111  0.9332
  476MOL0     C62721   5.430   2.577   5.022 -0.8104 -0.6089  0.2806
  476MOL0     C62722   5.469   2.451   4.948  1.0284 -0.5159  0.1916
  476MOL0     C62723   5.356   2.338   4.962 -0.1299  0.3678 -0.3514
  476MOL0     O62724   5.354   2.297   5.098  0.2251 -0.1655  0.2123
  476MOL0     C62725   5.232   2.298   5.160 -0.4786  0.6112 -0.8060
  476MOL0     C62726   5.110   2.277   5.090 -0.7989  0.3660 -0.8645
  476MOL0     C62727   4.990   2.309   5.143  0.2323 -0.5203  0.2213
  476MOL0     C62728   4.976   2.354   5.274  0.4571 -0.4397 -0.1795
  476MOL0     C62729   4.841   2.402   5.333  0.0879  0.5585  0.4538
  476MOL0     O62730   4.728   2.376   5.260  0.3317  0.2668 -0.1383
  476MOL0     C62731   4.593   2.398   5.305 -1.0031 -0.7449  0.7737
  476MOL0     C62732   4.551   2.420   5.437 -0.7831 -0.4942 -0.2299
  476MOL0     C62733   4.415   2.439   5.465  0.0128 -0.6748  0.3193
  476MOL0     C62734   4.326   2.413   5.363 -0.4489 -0.1011 -0.7588
  476MOL0     O62735   4.195   2.411   5.403 -0.2928 -0.3146 -0.3224
  476MOL0     C62736   4.092   2.485   5.341 -0.5789 -0.2912 -0.4277
  476MOL0     C62737   3.954   2.464   5.395  0.9831 -0.1492 -0.6466
  476MOL0     C62738   3.935   2.556   5.519 -0.6035  0.5453 -0.2791
  476MOL0     C62739   3.800   2.527   5.599 -0.4685 -0.1375 -0.8740
  476MOL0     C62740   3.681   2.585   5.515  0.6893  0.1574 -0.5577
  476MOL0     C62741   3.547   2.551   5.588 -0.3341  0.1074 -0.6173
  476MOL0     C62742   3.447   2.647   5.508 -0.6748 -0.1319 -0.1980
  476MOL0     C62743   3.301   2.620   5.547 -0.2757 -0.5181 -1.1526
  476MOL0    Cl62744   3.230   2.460   5.493  0.3358  0.2969  0.3764
  476MOL0     C62745   4.364   2.409   5.233 -0.0145  0.6734  0.0095
  476MOL0     C62746   4.500   2.394   5.206  0.3333  0.2349  0.4313
  476MOL0     O62747   4.847   2.472   5.435 -0.0027 -0.2249 -0.3890
  476MOL0     C62748   5.096   2.357   5.348 -0.0318  0.6296  0.3301
  476MOL0     C62749   5.229   2.342   5.293  0.2277  0.4406 -0.0926
  476MOL0     N62750   5.768   2.586   5.097  0.1192  0.6787  0.0056
  476MOL0     N62751   5.878   2.551   5.037  0.9225 -0.2468 -0.0007
  476MOL0     C62752   6.765   3.290   4.612 -0.4036 -0.1751 -0.4683
  476MOL0     C62753   6.850   3.375   4.539 -1.1307  0.2378 -0.3136
  476MOL0     C62754   7.113   3.673   4.361  0.5416 -0.3381 -0.3653
  476MOL0     C62755   7.068   3.734   4.243 -0.4567  0.0350 -0.4113
  476MOL0     C62756   7.152   3.817   4.164 -0.8040 -0.1333  0.5169
  476MOL0     C62757   7.290   3.841   4.195  0.4051  0.0213  0.5864
  476MOL0     O62758   7.376   3.896   4.098 -0.1220  0.2965 -0.1615
  476MOL0     C62759   7.520   3.903   4.129 -0.6658 -0.0930  0.5556
  476MOL0     C62760   7.584   3.945   3.996  0.2016  0.4721  0.1471
  476MOL0     C62761   7.740   3.922   3.996 -0.4239 -0.8591  0.9598
  476MOL0     C62762   7.778   3.774   3.995 -0.3827 -0.0132 -0.1432
  476MOL0     C62763   7.926   3.770   3.988 -0.2268  0.0584  0.1718
  476MOL0     C62764   8.043   3.779   3.969  0.0039 -1.2456 -0.4045
  476MOL0     C62765   7.331   3.787   4.315 -0.4724 -0.3862  0.1420
  476MOL0     C62766   7.250   3.704   4.401  0.6513  0.3929 -0.0600
  476MOL0     H62767   6.684   3.666   4.576  2.2542  0.0382 -2.1313
  476MOL0     H62768   6.520   3.502   4.708 -0.9438 -2.0101  0.3006
  476MOL0     H62769   6.698   3.148   4.840 -0.7029 -1.3092  0.9948
  476MOL0     H62770   6.614   3.064   4.707  1.8229  1.0049 -0.8019
  476MOL0     H62771   6.483   3.179   4.955  1.0691  0.2011  1.3440
  476MOL0     H62772   6.533   3.011   4.966 -2.4964 -1.3708  0.5535
  476MOL0     H62773   6.392   2.982   4.750 -0.0099  1.6311 -1.4116
  476MOL0     H62774   6.300   3.118   4.815 -0.3405  1.4448  4.3127
  476MOL0     H62775   6.349   2.852   4.935 -0.1411  0.0564 -0.9859
  476MOL0     H62776   6.299   2.989   5.040  1.1639 -1.3294  1.0830
  476MOL0     H62777   6.163   2.913   4.773  1.9940 -1.6254 -0.6600
  476MOL0     H62778   6.077   2.972   4.911 -0.6717 -1.6820  1.7360
  476MOL0     H62779   6.043   2.762   4.995  1.3174 -3.5705  1.2600
  476MOL0     H62780   6.203   2.710   4.941 -0.0186  0.9091 -1.5370
  476MOL0     H62781   5.967   2.768   4.748 -1.4226 -0.5655  2.2275
  476MOL0     H62782   6.108   2.665   4.709 -0.1239 -2.2457  0.2747
  476MOL0     H62783   6.047   2.494   4.862 -2.1629 -2.6011 -0.2086
  476MOL0     H62784   5.942   2.508   4.729 -1.8897 -2.4097  2.2263
  476MOL0     H62785   5.693   2.658   4.793 -0.3702  3.5968  0.2489
  476MOL0     H62786   5.505   2.752   4.943 -0.7092 -2.2187 -0.7906
  476MOL0     H62787   5.529   2.742   5.120  1.7427  0.5293  0.8936
  476MOL0     H62788   5.342   2.616   4.970  1.6171  1.7759 -2.3503
  476MOL0     H62789   5.405   2.547   5.124 -0.2163  1.6909  1.1586
  476MOL0     H62790   5.475   2.471   4.841 -1.4406  5.6979  0.8034
  476MOL0     H62791   5.563   2.411   4.986  0.9057  0.4028  1.5235
  476MOL0     H62792   5.376   2.254   4.895 -1.2055  0.2763 -0.5638
  476MOL0     H62793   5.265   2.384   4.923  0.7188  4.2391  1.6659
  476MOL0     H62794   5.111   2.228   4.993  0.3783 -0.3535 -0.5099
  476MOL0     H62795   4.910   2.298   5.070  0.2050  0.6109  0.0518
  476MOL0     H62796   4.614   2.425   5.525 -3.3734 -0.2306  1.7348
  476MOL0     H62797   4.365   2.452   5.561 -1.8713 -1.0582 -0.5633
  476MOL0     H62798   4.091   2.475   5.233  0.2757  2.1538 -0.7286
  476MOL0     H62799   4.116   2.590   5.357 -1.3597 -0.2622  0.6606
  476MOL0     H62800   3.939   2.359   5.422  1.1911 -0.1358 -0.4744
  476MOL0     H62801   3.869   2.495   5.334 -1.8483  2.6216  4.0640
  476MOL0     H62802   3.948   2.661   5.492 -0.4226  0.2377 -1.4144
  476MOL0     H62803   4.024   2.538   5.579 -0.2805 -3.1063 -1.6281
  476MOL0     H62804   3.792   2.418   5.607 -2.2314  0.0899  1.2551
  476MOL0     H62805   3.805   2.560   5.702 -0.1644 -1.7744 -0.3282
  476MOL0     H62806   3.675   2.531   5.420  3.4721 -0.1038 -0.6819
  476MOL0     H62807   3.686   2.692   5.493 -0.5821  0.2642 -0.3795
  476MOL0     H62808   3.535   2.569   5.695 -2.3584  0.8922 -0.9321
  476MOL0     H62809   3.518   2.447   5.571 -0.0875  0.3093 -2.6335
  476MOL0     H62810   3.467   2.750   5.538  2.4593 -0.5806 -0.4165
  476MOL0     H62811   3.455   2.634   5.400 -1.0567 -0.9080 -0.1447
  476MOL0     H62812   3.251   2.700   5.493 -1.7775  1.2887  2.5953
  476MOL0     H62813   3.283   2.633   5.654 -0.6325  0.8413 -1.3570
  476MOL0     H62814   4.290   2.394   5.154  0.5297 -1.1116 -0.2104
  476MOL0     H62815   4.532   2.386   5.102  0.7444  2.8680  0.2762
  476MOL0     H62816   5.095   2.397   5.449  0.2946  0.7001  0.3085
  476MOL0     H62817   5.326   2.361   5.338  0.8010  1.1827 -1.5853
  476MOL0     H62818   6.809   3.192   4.620  1.8375  0.8493  0.6503
  476MOL0     H62819   6.940   3.331   4.497 -1.0031  0.3774 -0.1897
  476MOL0     H62820   6.968   3.720   4.204 -1.2308 -0.9733  1.7389
  476MOL0     H62821   7.115   3.855   4.070  4.9857  2.6121 -1.1452
  476MOL0     H62822   7.561   3.809   4.166  0.5442  0.2168  0.0480
  476MOL0     H62823   7.533   3.972   4.212  0.2986  0.4611 -0.0425
  476MOL0     H62824   7.532   3.885   3.921 -0.1702  0.0732  0.7110
  476MOL0     H62825   7.574   4.052   3.977  1.8013  0.9809  1.8285
  476MOL0     H62826   7.793   3.978   4.074  0.0660  0.0253  0.0135
  476MOL0     H62827   7.765   3.965   3.898  0.6127 -0.8160  1.2381
  476MOL0     H62828   7.744   3.732   4.091 -0.8507  2.8658  1.0715
  476MOL0     H62829   7.740   3.725   3.906 -1.4375  0.0610  0.2505
  476MOL0     H62830   8.144   3.795   3.937  0.0297  0.7211  0.5137
  476MOL0     H62831   7.436   3.791   4.340 -0.4026  1.7206 -0.3266
  476MOL0     H62832   7.292   3.671   4.495  1.6983  0.4121 -0.5007
  477MOL0     O62833   2.670   9.170   4.515 -0.0889  0.3473  0.5874
  477MOL0     C62834   2.716   9.146   4.630  0.2119 -0.2217  0.5784
  477MOL0     O62835   2.652   9.072   4.725  0.3278 -0.5288  0.2869
  477MOL0     C62836   2.520   9.034   4.690 -0.0357 -0.1516  0.0135
  477MOL0     C62837   2.411   9.116   4.717 -0.4664  0.5422  0.3900
  477MOL0     C62838   2.283   9.076   4.678  0.9506 -0.7306  0.1282
  477MOL0     C62839   2.254   8.954   4.616 -1.0449  0.1514 -0.1646
  477MOL0     O62840   2.124   8.913   4.588  0.1400 -0.3676 -0.1680
  477MOL0     C62841   2.011   9.003   4.582 -0.1832 -0.0691 -0.0862
  477MOL0     C62842   1.898   8.943   4.502  0.7451  0.4204 -0.7736
  477MOL0     C62843   1.759   8.999   4.546  0.1955  0.0631 -0.3455
  477MOL0     C62844   1.656   8.906   4.477 -0.0136 -0.5050  0.6493
  477MOL0     C62845   1.512   8.958   4.517  0.6517  0.3858  0.3349
  477MOL0     C62846   1.406   8.881   4.451  0.4308  0.2768  0.2406
  477MOL0     C62847   1.267   8.908   4.510 -0.3274 -0.6431  0.2588
  477MOL0     C62848   1.220   9.056   4.490 -0.8267 -0.2699 -0.3610
  477MOL0     N62849   1.075   9.057   4.479 -0.4849  0.5943 -0.0415
  477MOL0     C62850   0.979   8.990   4.546 -0.4800 -0.1351 -0.3703
  477MOL0     C62851   0.867   9.047   4.497  0.4326 -0.2613 -0.5054
  477MOL0     C62852   0.722   9.029   4.535 -0.1616  0.7970 -0.9155
  477MOL0     C62853   0.661   9.160   4.589  0.3485 -0.1178  0.0921
  477MOL0     C62854   0.511   9.136   4.628  0.1482 -0.4416  0.3696
  477MOL0     C62855   0.423   9.144   4.508  0.9932  0.0269  0.4128
  477MOL0     O62856   0.409   9.285   4.455  1.0962  0.5542 -0.6550
  477MOL0     C62857   0.285   9.308   4.401 -0.2397  0.7640 -0.0537
  477MOL0     C62858   0.267   9.316   4.264 -0.0720 -0.4584 -0.2965
  477MOL0     C62859   0.141   9.333   4.217 -0.2287 -0.4434  0.5801
  477MOL0     C62860   0.028   9.349   4.292  0.3876 -0.4307 -0.2907
  477MOL0     C62861  -0.096   9.401   4.231  0.6828 -0.0757  0.0900
  477MOL0     O62862  -0.109   9.367   4.102  0.1592 -0.5645  0.2935
  477MOL0     C62863  -0.219   9.414   4.033  0.9011  0.5814 -0.0188
  477MOL0     C62864  -0.256   9.346   3.919  1.5829 -0.1855  0.1958
  477MOL0     C62865  -0.360   9.392   3.827  0.6884 -0.1625 -0.3365
  477MOL0     C62866  -0.428   9.508   3.854  0.2047 -0.2033  1.1693
  477MOL0     O62867  -0.517   9.557   3.764  0.3130 -0.1615  0.4918
  477MOL0     C62868  -0.653   9.534   3.802  0.6622 -1.0183 -0.1265
  477MOL0     C62869  -0.761   9.543   3.691 -0.8060  0.0262 -1.2604
  477MOL0     C62870  -0.898   9.541   3.736  0.3373  0.0819 -0.4386
  477MOL0     C62871  -0.923   9.436   3.848 -1.1437  0.1703  0.6036
  477MOL0     C62872  -1.070   9.452   3.899  0.6149 -0.2980 -0.4560
  477MOL0     C62873  -1.106   9.323   3.968 -0.0107  0.2840  0.7792
  477MOL0     C62874  -1.123   9.200   3.873  0.3806 -1.1101 -0.1194
  477MOL0     C62875  -1.190   9.085   3.951 -0.6379 -0.8255  1.3716
  477MOL0    Cl62876  -1.179   8.935   3.847  0.2088 -0.1738  0.0756
  477MOL0     C62877  -0.407   9.570   3.978 -0.5193 -0.6423  0.3946
  477MOL0     C62878  -0.299   9.529   4.064  0.2748 -0.2278  0.4026
  477MOL0     O62879  -0.178   9.454   4.305 -0.8633 -0.6183  0.2383
  477MOL0     C62880   0.048   9.340   4.432  0.0989 -0.0705  0.9699
  477MOL0     C62881   0.173   9.317   4.481  0.1007 -0.0516 -0.3779
  477MOL0     N62882   0.897   9.124   4.387 -0.5937 -0.1210 -0.5809
  477MOL0     N62883   1.021   9.136   4.384 -0.0222 -0.6379  0.4696
  477MOL0     C62884   2.356   8.860   4.620  0.3846  0.0215  0.2380
  477MOL0     C62885   2.491   8.899   4.654  0.4021  0.5200 -0.6124
  477MOL0     C62886   2.847   9.194   4.666  0.0730 -1.0157 -0.6062
  477MOL0     C62887   2.903   9.312   4.603 -0.3914 -0.1964  0.5263
  477MOL0     C62888   3.028   9.360   4.646 -0.5153  0.8815  0.2488
  477MOL0     C62889   3.105   9.298   4.746 -0.0033  0.0612  0.3770
  477MOL0     O62890   3.229   9.326   4.793 -0.1937 -0.0582  0.1332
  477MOL0     C62891   3.295   9.445   4.745  0.4756  0.5775  0.2774
  477MOL0     C62892   3.415   9.477   4.842  0.1148  1.1448  0.6971
  477MOL0     C62893   3.524   9.374   4.827 -0.5011  0.9726 -0.2674
  477MOL0     C62894   3.603   9.354   4.705  0.3518 -0.0187 -0.5870
  477MOL0     C62895   3.665   9.222   4.699 -0.3527 -0.3293 -0.2251
  477MOL0     C62896   3.739   9.124   4.686 -0.0045 -0.1128 -0.4799
  477MOL0     C62897   3.045   9.191   4.811  1.1069 -0.9233 -0.4209
  477MOL0     C62898   2.914   9.142   4.777  0.1378  0.5628 -0.3938
  477MOL0     H62899   2.415   9.216   4.758  2.4054 -0.3006  2.4856
  477MOL0     H62900   2.203   9.148   4.695  1.4556 -0.3472  0.9700
  477MOL0     H62901   2.033   9.098   4.533  0.5202 -0.3341 -0.3145
  477MOL0     H62902   1.971   9.020   4.682 -1.8598 -1.0016 -0.5663
  477MOL0     H62903   1.910   8.837   4.523 -1.1979 -0.0570 -1.7775
  477MOL0     H62904   1.905   8.964   4.395  1.8018  0.7351 -0.6471
  477MOL0     H62905   1.742   9.097   4.501 -0.8428 -0.2688 -0.7139
  477MOL0     H62906   1.739   8.999   4.653  0.0466  0.8785 -0.3667
  477MOL0     H62907   1.672   8.897   4.369  2.2629 -1.0477  0.9931
  477MOL0     H62908   1.667   8.800   4.503 -1.9463 -1.4726 -2.0203
  477MOL0     H62909   1.502   9.056   4.469  2.3657  0.5844  0.3334
  477MOL0     H62910   1.497   8.959   4.626 -2.2726 -1.9486  0.0686
  477MOL0     H62911   1.430   8.774   4.458 -0.7175  0.1053  2.4839
  477MOL0     H62912   1.407   8.899   4.343 -1.8009  2.8622  0.5540
  477MOL0     H62913   1.192   8.848   4.458 -2.3336  1.1090  0.9771
  477MOL0     H62914   1.265   8.888   4.618  1.0275  0.8174  0.5996
  477MOL0     H62915   1.268   9.081   4.395  2.7058 -2.9200  0.5464
  477MOL0     H62916   1.244   9.124   4.573  1.2668 -2.6798  1.1278
  477MOL0     H62917   0.994   8.922   4.629 -3.2568 -0.7696 -0.2865
  477MOL0     H62918   0.733   8.954   4.614  0.9406  0.3902 -1.4385
  477MOL0     H62919   0.661   9.001   4.449 -0.0525  2.9933 -1.7943
  477MOL0     H62920   0.674   9.233   4.509 -1.0921 -1.7659 -1.7374
  477MOL0     H62921   0.716   9.206   4.671 -0.7622  0.4201  0.5671
  477MOL0     H62922   0.507   9.038   4.677 -1.1624  1.1806  3.8583
  477MOL0     H62923   0.480   9.202   4.710  2.1975 -0.0633  0.9229
  477MOL0     H62924   0.323   9.106   4.532 -0.4856  3.1452 -0.2766
  477MOL0     H62925   0.469   9.077   4.435 -0.8174 -1.3291  0.4509
  477MOL0     H62926   0.356   9.306   4.203  0.4097  0.0806  0.2958
  477MOL0     H62927   0.128   9.348   4.110  2.5442  0.7717  0.3227
  477MOL0     H62928  -0.200   9.255   3.897  0.9985 -0.4107 -0.3784
  477MOL0     H62929  -0.379   9.336   3.737 -0.7189 -0.4140  0.1030
  477MOL0     H62930  -0.681   9.606   3.880 -1.6126 -0.2559 -1.5409
  477MOL0     H62931  -0.656   9.434   3.847  2.2126 -0.3475  1.5839
  477MOL0     H62932  -0.740   9.461   3.622  2.8971 -0.0419 -0.2223
  477MOL0     H62933  -0.730   9.637   3.645  3.2835 -0.7862 -0.5512
  477MOL0     H62934  -0.960   9.509   3.652 -0.9499 -2.0463  1.2336
  477MOL0     H62935  -0.929   9.640   3.771  2.3966  0.5079  0.3539
  477MOL0     H62936  -0.916   9.340   3.795 -0.2949  1.0254 -0.9180
  477MOL0     H62937  -0.856   9.431   3.934 -1.6173 -0.3789  0.9496
  477MOL0     H62938  -1.129   9.460   3.807  0.3239 -1.6750 -0.4148
  477MOL0     H62939  -1.084   9.532   3.972  0.6680 -0.2782 -0.4671
  477MOL0     H62940  -1.202   9.332   4.020 -0.7377 -0.8707 -0.3060
  477MOL0     H62941  -1.025   9.301   4.038 -1.0002 -3.1902  0.9994
  477MOL0     H62942  -1.178   9.233   3.784  0.5779  1.8877  0.7563
  477MOL0     H62943  -1.023   9.169   3.842  0.8719  0.3844 -0.1027
  477MOL0     H62944  -1.291   9.120   3.974 -0.3408  2.2511 -1.3462
  477MOL0     H62945  -1.125   9.062   4.037  1.8048  1.8373  0.3831
  477MOL0     H62946  -0.462   9.663   3.991  0.4843  0.7028 -3.4772
  477MOL0     H62947  -0.282   9.596   4.148  0.3158 -1.2017  1.1844
  477MOL0     H62948  -0.031   9.358   4.504 -0.0805  2.1343  0.2873
  477MOL0     H62949   0.201   9.321   4.586  1.0468 -0.5275 -0.5992
  477MOL0     H62950   2.335   8.759   4.588 -1.9697  0.8665 -1.1529
  477MOL0     H62951   2.568   8.823   4.655 -0.9154 -0.8756 -1.0773
  477MOL0     H62952   2.845   9.365   4.529 -1.9537 -2.4068  0.0600
  477MOL0     H62953   3.048   9.449   4.587 -2.1273  0.9669 -0.2194
  477MOL0     H62954   3.229   9.531   4.730  0.3415  0.0204 -3.4747
  477MOL0     H62955   3.331   9.415   4.646 -2.1878  0.2938 -0.7124
  477MOL0     H62956   3.450   9.579   4.820 -0.9508  1.1462 -1.2875
  477MOL0     H62957   3.378   9.466   4.944 -1.5245 -0.8937 -0.0346
  477MOL0     H62958   3.468   9.281   4.843 -1.3405  1.3061 -1.1995
  477MOL0     H62959   3.600   9.381   4.906  0.1647 -1.7720 -0.5462
  477MOL0     H62960   3.545   9.369   4.614  2.6757  1.4806 -1.9243
  477MOL0     H62961   3.677   9.434   4.704  0.4432 -0.0985 -2.2267
  477MOL0     H62962   3.808   9.042   4.679  0.0215 -0.2347  0.9778
  477MOL0     H62963   3.094   9.136   4.890  1.5320 -0.9132 -0.6750
  477MOL0     H62964   2.879   9.057   4.835  2.2237  0.2737  0.5489
  478MOL0     O62965  10.394   4.752   0.816  0.8507 -0.3484  0.1932
  478MOL0     C62966  10.386   4.714   0.703 -0.3781  0.6752  0.7074
  478MOL0     O62967  10.275   4.679   0.637 -0.0194  0.2685  0.2328
  478MOL0     C62968  10.152   4.662   0.693 -0.1208  0.3155  0.4099
  478MOL0     C62969  10.119   4.628   0.819  0.9170 -1.2301 -0.4493
  478MOL0     C62970   9.984   4.612   0.858  0.8609  0.8017 -0.6671
  478MOL0     C62971   9.874   4.612   0.771 -0.2010  0.6159 -1.0713
  478MOL0     O62972   9.743   4.606   0.805 -0.1998 -0.4299 -1.1137
  478MOL0     C62973   9.707   4.611   0.943 -0.0504 -0.2874  0.9437
  478MOL0     C62974   9.554   4.619   0.966 -0.5518 -0.4679 -0.5857
  478MOL0     C62975   9.486   4.749   0.941 -0.3399 -0.6172 -0.2026
  478MOL0     C62976   9.337   4.742   0.964  0.5135  0.1594 -0.4746
  478MOL0     C62977   9.261   4.868   0.917 -0.2224 -0.9542  0.1903
  478MOL0     C62978   9.115   4.865   0.955  0.5458 -0.3050 -0.2387
  478MOL0     C62979   9.041   4.972   0.866 -0.2429 -0.3473 -0.2294
  478MOL0     C62980   8.919   5.015   0.937 -0.7432 -0.1778 -0.0491
  478MOL0     N62981   8.816   4.910   0.952  0.5763  0.2848 -0.4994
  478MOL0     C62982   8.730   4.860   0.862  0.3759  0.0033 -0.5893
  478MOL0     C62983   8.684   4.744   0.906 -0.3608 -0.2594  0.3648
  478MOL0     C62984   8.559   4.678   0.851 -0.3932 -0.0873 -0.5205
  478MOL0     C62985   8.582   4.522   0.854  0.0534  0.1815 -0.3514
  478MOL0     C62986   8.475   4.446   0.779  0.3176  0.0027  0.0460
  478MOL0     C62987   8.337   4.448   0.841  0.3972  0.4546 -0.3488
  478MOL0     O62988   8.266   4.575   0.837  0.1362 -0.2965  0.2371
  478MOL0     C62989   8.181   4.595   0.735  1.2036  0.2959  0.1387
  478MOL0     C62990   8.046   4.562   0.730  0.3188  0.4435 -0.7304
  478MOL0     C62991   7.965   4.576   0.619 -0.3101 -0.2358  0.8135
  478MOL0     C62992   8.021   4.627   0.504  0.6217  0.5832  0.4541
  478MOL0     C62993   7.940   4.625   0.379 -0.0005 -0.8100 -0.4411
  478MOL0     O62994   7.862   4.521   0.350 -0.3083 -0.8922  0.2949
  478MOL0     C62995   7.818   4.506   0.216  0.2660  0.3785 -0.4231
  478MOL0     C62996   7.754   4.600   0.133 -0.5644 -0.3290  0.1466
  478MOL0     C62997   7.688   4.557   0.014  0.7042  0.3250  0.2017
  478MOL0     C62998   7.697   4.426  -0.036 -0.0445  0.1196  0.1931
  478MOL0     O62999   7.633   4.400  -0.162 -0.3171 -0.5076  0.3537
  478MOL0     C63000   7.639   4.264  -0.217 -0.8201 -0.5266 -0.3666
  478MOL0     C63001   7.523   4.259  -0.321  0.1505 -0.5676 -1.0802
  478MOL0     C63002   7.501   4.123  -0.396 -0.3513 -0.2753 -0.6049
  478MOL0     C63003   7.384   4.125  -0.500 -0.1123 -0.3910  0.4479
  478MOL0     C63004   7.410   4.052  -0.629 -0.5700  0.0302  0.8870
  478MOL0     C63005   7.415   3.898  -0.602  0.1733 -0.0145  0.6427
  478MOL0     C63006   7.560   3.851  -0.587  0.2335 -0.3915  1.0907
  478MOL0     C63007   7.575   3.697  -0.582  0.4147 -0.1163 -0.1762
  478MOL0    Cl63008   7.466   3.611  -0.465 -0.6535  0.0406  0.1151
  478MOL0     C63009   7.761   4.334   0.044  0.0323 -0.4787 -0.4921
  478MOL0     C63010   7.822   4.369   0.165 -0.8014  0.1542 -1.0380
  478MOL0     O63011   7.982   4.714   0.306  0.6743  0.4911  0.1654
  478MOL0     C63012   8.152   4.662   0.495 -0.3416 -0.1546  0.1760
  478MOL0     C63013   8.226   4.650   0.611 -0.5293 -0.5253 -0.9520
  478MOL0     N63014   8.727   4.723   1.033  0.0335 -0.5214 -0.4443
  478MOL0     N63015   8.814   4.819   1.055 -0.3107 -0.3545 -0.0404
  478MOL0     C63016   9.909   4.643   0.643 -0.2343 -0.1672  0.6259
  478MOL0     C63017  10.043   4.669   0.610 -0.1449  0.5529 -0.2970
  478MOL0     C63018  10.510   4.716   0.631  0.1566 -0.3444 -0.4043
  478MOL0     C63019  10.507   4.680   0.495  0.6899  0.2041 -0.1823
  478MOL0     C63020  10.622   4.669   0.420  0.2284  0.5282  0.2926
  478MOL0     C63021  10.746   4.692   0.487  0.1505  0.3782  0.2857
  478MOL0     O63022  10.875   4.667   0.426  0.4694  0.0302 -0.1329
  478MOL0     C63023  10.881   4.698   0.285 -0.1082  0.5535 -0.4263
  478MOL0     C63024  11.022   4.728   0.238 -0.5448  1.0199  0.3280
  478MOL0     C63025  11.069   4.859   0.292 -0.3424  0.6280  0.1429
  478MOL0     C63026  11.214   4.883   0.244  0.0360  0.1653  0.5553
  478MOL0     C63027  11.252   5.025   0.261 -0.2704  0.4600  0.7142
  478MOL0     C63028  11.293   5.136   0.283 -0.4499 -0.2859 -0.3345
  478MOL0     C63029  10.756   4.723   0.618  0.3775 -0.4285 -0.2118
  478MOL0     C63030  10.636   4.728   0.695 -0.9647  0.6007  0.4190
  478MOL0     H63031  10.192   4.613   0.897  0.5575 -0.0508  0.1466
  478MOL0     H63032   9.966   4.594   0.964 -0.8758 -0.9567 -1.1901
  478MOL0     H63033   9.753   4.693   0.999 -0.5309  0.0904  0.7928
  478MOL0     H63034   9.731   4.517   0.993  2.2395  1.2370  2.9329
  478MOL0     H63035   9.531   4.599   1.071  1.3520 -0.6526 -0.1743
  478MOL0     H63036   9.515   4.534   0.908 -1.1084 -0.4784 -0.2061
  478MOL0     H63037   9.500   4.777   0.836 -0.0010 -3.5578 -1.0273
  478MOL0     H63038   9.529   4.834   0.996 -0.5224 -0.1724 -0.7436
  478MOL0     H63039   9.298   4.661   0.903 -3.1534 -1.1172  3.0845
  478MOL0     H63040   9.312   4.720   1.069 -1.0449 -1.4170 -1.1172
  478MOL0     H63041   9.278   4.892   0.812  2.0378  1.3033  0.9634
  478MOL0     H63042   9.299   4.959   0.966 -2.5958 -0.4095  1.1566
  478MOL0     H63043   9.095   4.887   1.060 -0.4633  0.4010 -0.5584
  478MOL0     H63044   9.085   4.764   0.928  2.1809 -0.5005 -1.4618
  478MOL0     H63045   9.110   5.052   0.839 -0.9955  0.1070 -0.8283
  478MOL0     H63046   9.007   4.924   0.774 -0.8939 -0.9555  0.3157
  478MOL0     H63047   8.880   5.092   0.869 -4.1650 -1.5987  0.1158
  478MOL0     H63048   8.945   5.052   1.036 -1.1719 -0.5317  0.1972
  478MOL0     H63049   8.699   4.920   0.776 -3.0292  0.8199  1.0314
  478MOL0     H63050   8.546   4.710   0.747 -2.7719  0.9861  0.0269
  478MOL0     H63051   8.469   4.705   0.907  0.9977 -1.0565  2.3917
  478MOL0     H63052   8.587   4.482   0.955 -2.9690 -3.2969 -1.3702
  478MOL0     H63053   8.675   4.496   0.804  0.3423  1.4625 -0.5135
  478MOL0     H63054   8.464   4.478   0.675 -1.5708  0.0548  0.2254
  478MOL0     H63055   8.503   4.341   0.788 -0.4783 -0.0659  2.9338
  478MOL0     H63056   8.361   4.431   0.947  3.3556 -0.5570 -1.0648
  478MOL0     H63057   8.275   4.365   0.807 -0.5371  1.1757 -0.4467
  478MOL0     H63058   7.993   4.524   0.817 -1.6457 -0.2737 -2.1644
  478MOL0     H63059   7.859   4.555   0.624  0.1967 -3.1694  0.8075
  478MOL0     H63060   7.730   4.700   0.167 -0.9338 -0.3126 -0.1515
  478MOL0     H63061   7.631   4.627  -0.046 -0.4863  0.8484  1.8813
  478MOL0     H63062   7.636   4.189  -0.137 -0.0753 -1.7424 -1.4427
  478MOL0     H63063   7.729   4.250  -0.277 -0.0513 -1.0253  0.8640
  478MOL0     H63064   7.547   4.339  -0.391 -3.7995  1.3187 -0.5491
  478MOL0     H63065   7.433   4.295  -0.271 -0.6526 -0.5282 -2.5023
  478MOL0     H63066   7.480   4.048  -0.319  1.6101 -2.7985 -2.3142
  478MOL0     H63067   7.595   4.096  -0.446  1.7842  3.5714  0.9164
  478MOL0     H63068   7.294   4.092  -0.448 -0.9767  3.0506  1.3800
  478MOL0     H63069   7.377   4.229  -0.533 -1.9738 -0.2534  1.1883
  478MOL0     H63070   7.507   4.084  -0.668  0.7401 -2.4359  1.8307
  478MOL0     H63071   7.330   4.048  -0.703  1.6463  1.2438 -1.7407
  478MOL0     H63072   7.367   3.841  -0.682 -1.2846  0.6755  0.9885
  478MOL0     H63073   7.350   3.868  -0.519 -0.2129 -1.0030 -0.0003
  478MOL0     H63074   7.607   3.890  -0.678 -0.2268 -0.1333  0.9589
  478MOL0     H63075   7.608   3.884  -0.494 -0.6308  0.7307  1.1631
  478MOL0     H63076   7.677   3.664  -0.561 -0.4826 -2.4905  0.9331
  478MOL0     H63077   7.551   3.663  -0.683  1.6206  0.5501 -0.7000
  478MOL0     H63078   7.764   4.230   0.014 -0.1391 -0.7462  0.3850
  478MOL0     H63079   7.866   4.299   0.235 -0.9438  2.3831  1.4564
  478MOL0     H63080   8.205   4.696   0.406  1.1835 -4.7923 -0.9195
  478MOL0     H63081   8.332   4.675   0.616 -0.5341 -0.4606 -1.1544
  478MOL0     H63082   9.826   4.650   0.573  1.4251 -1.2681 -1.5595
  478MOL0     H63083  10.056   4.680   0.503 -0.9700  0.0075 -0.4613
  478MOL0     H63084  10.413   4.651   0.449  0.9081 -1.8422  0.5804
  478MOL0     H63085  10.628   4.651   0.313  1.4027  1.1255  0.2398
  478MOL0     H63086  10.818   4.787   0.277  0.2784  1.0474  1.5085
  478MOL0     H63087  10.839   4.617   0.224  2.8915 -0.0354 -1.8842
  478MOL0     H63088  11.089   4.653   0.280 -2.7670 -1.2595  0.0828
  478MOL0     H63089  11.033   4.727   0.129 -0.3244 -0.8031  0.3428
  478MOL0     H63090  11.063   4.852   0.401 -4.2685 -0.2402  0.0015
  478MOL0     H63091  11.010   4.949   0.270 -0.7469  1.3993  3.7450
  478MOL0     H63092  11.275   4.817   0.307  0.6863 -0.1843 -0.4070
  478MOL0     H63093  11.229   4.854   0.139  0.4195  0.6215  0.4777
  478MOL0     H63094  11.324   5.234   0.314 -1.0849 -1.0787  3.1883
  478MOL0     H63095  10.839   4.759   0.677 -1.5841  1.2579  1.6860
  478MOL0     H63096  10.632   4.748   0.801 -1.2007 -2.3431  1.0574
  479MOL0     O63097   6.581   6.965   9.419 -0.0394  0.0638  0.2465
  479MOL0     C63098   6.583   6.925   9.536  0.5618 -0.1175  0.1504
  479MOL0     O63099   6.474   6.929   9.627  0.1162 -0.1985 -0.6628
  479MOL0     C63100   6.361   6.994   9.602 -0.2863  0.5746  0.4703
  479MOL0     C63101   6.346   7.101   9.508 -0.5311 -0.4365  0.1084
  479MOL0     C63102   6.217   7.161   9.481 -0.0130  0.1085 -0.6984
  479MOL0     C63103   6.099   7.111   9.539  0.4581  0.7973  0.1885
  479MOL0     O63104   5.972   7.150   9.510 -0.6677 -0.0310 -0.3205
  479MOL0     C63105   5.965   7.230   9.392 -0.8871  0.3230  0.2647
  479MOL0     C63106   5.825   7.286   9.344  0.1462  1.0517 -0.8750
  479MOL0     C63107   5.750   7.356   9.456  0.0693 -0.0734 -1.0280
  479MOL0     C63108   5.607   7.407   9.410 -0.2106 -0.0585 -0.3438
  479MOL0     C63109   5.515   7.285   9.389 -0.0819 -0.1570 -1.0140
  479MOL0     C63110   5.379   7.337   9.337  0.2831 -0.2546 -0.2258
  479MOL0     C63111   5.389   7.359   9.185  0.3968  0.8173 -0.0460
  479MOL0     C63112   5.267   7.413   9.113 -0.0244 -0.1320  0.3301
  479MOL0     N63113   5.157   7.329   9.141 -0.2637 -0.1955 -0.0270
  479MOL0     C63114   5.053   7.357   9.222  0.5321  0.1627  0.4304
  479MOL0     C63115   4.959   7.257   9.195 -0.3666  0.3517 -0.1703
  479MOL0     C63116   4.825   7.246   9.268 -0.0151  0.4031  0.4763
  479MOL0     C63117   4.713   7.245   9.164  0.4297 -1.0956  0.1144
  479MOL0     C63118   4.688   7.364   9.072 -0.7304 -0.0223  1.1430
  479MOL0     C63119   4.664   7.497   9.158  0.7733  0.0313 -0.6953
  479MOL0     O63120   4.659   7.623   9.085 -0.2674 -0.6521 -0.1273
  479MOL0     C63121   4.558   7.660   9.001 -1.1115 -0.0162  0.0362
  479MOL0     C63122   4.434   7.610   9.006 -0.4284  0.0137 -0.5205
  479MOL0     C63123   4.325   7.659   8.932 -0.6584 -1.1460 -0.1008
  479MOL0     C63124   4.351   7.763   8.836 -0.5981 -0.2010 -0.5622
  479MOL0     C63125   4.252   7.826   8.756  0.2367 -0.4614 -0.8538
  479MOL0     O63126   4.268   7.954   8.722 -0.6267  0.4595 -0.6475
  479MOL0     C63127   4.205   8.005   8.616  0.0794  0.5107 -0.1150
  479MOL0     C63128   4.267   7.972   8.491 -0.1943 -0.1581  0.5023
  479MOL0     C63129   4.215   8.022   8.373  1.0076 -0.0473  0.4035
  479MOL0     C63130   4.108   8.108   8.377  0.1637 -0.1673  0.3815
  479MOL0     O63131   4.047   8.163   8.270  0.0529  0.3494  0.6786
  479MOL0     C63132   4.082   8.132   8.137 -0.2337  0.2028 -0.1968
  479MOL0     C63133   3.967   8.141   8.036  0.5201  0.1573 -1.2628
  479MOL0     C63134   3.891   8.273   8.050  0.1173  0.2472 -0.5830
  479MOL0     C63135   3.784   8.279   7.937  0.2565  0.5833 -0.0416
  479MOL0     C63136   3.695   8.402   7.946  0.6629  0.4039 -0.1288
  479MOL0     C63137   3.773   8.538   7.916 -0.9631  0.9598 -0.2634
  479MOL0     C63138   3.675   8.661   7.912  0.1292  0.0146 -1.3163
  479MOL0     C63139   3.659   8.730   7.780 -0.0582 -0.1276  0.7868
  479MOL0    Cl63140   3.671   8.604   7.657 -0.0506  0.0160  0.1274
  479MOL0     C63141   4.040   8.125   8.494 -0.9467 -1.2511 -0.3137
  479MOL0     C63142   4.088   8.074   8.620  0.9456 -0.2061  0.2918
  479MOL0     O63143   4.155   7.756   8.731 -0.2313  0.2139 -0.1107
  479MOL0     C63144   4.478   7.822   8.833 -0.5415  0.2203  0.6076
  479MOL0     C63145   4.581   7.767   8.912 -0.4945  0.5018 -0.7591
  479MOL0     N63146   5.023   7.168   9.103 -0.4178 -0.5476  0.8088
  479MOL0     N63147   5.135   7.221   9.073  0.2675 -0.3193  0.1270
  479MOL0     C63148   6.116   7.007   9.625 -0.1465 -0.0969 -0.3647
  479MOL0     C63149   6.242   6.947   9.656  0.2640 -0.0738 -0.5642
  479MOL0     C63150   6.705   6.866   9.596 -0.5513 -0.0814  0.9700
  479MOL0     C63151   6.689   6.764   9.694 -0.9929  0.2744 -0.8212
  479MOL0     C63152   6.798   6.702   9.750  0.5482  0.8762  0.2086
  479MOL0     C63153   6.927   6.731   9.700  0.5221  0.2362  0.1262
  479MOL0     O63154   7.037   6.681   9.762  0.3823  0.1638  0.5286
  479MOL0     C63155   7.049   6.536   9.742  0.1630 -0.7147  0.5128
  479MOL0     C63156   7.199   6.503   9.779 -0.2233 -0.4329 -0.1252
  479MOL0     C63157   7.289   6.514   9.654  0.2859 -0.8920  0.3971
  479MOL0     C63158   7.319   6.398   9.560  0.5978  0.5908  0.7181
  479MOL0     C63159   7.453   6.335   9.571 -0.3293  0.9212 -0.4636
  479MOL0     C63160   7.553   6.271   9.599 -0.3706  0.7119 -0.4859
  479MOL0     C63161   6.948   6.823   9.602  0.2392 -0.2797  0.1218
  479MOL0     C63162   6.836   6.899   9.552 -0.1862  0.0291 -0.1763
  479MOL0     H63163   6.428   7.145   9.452  0.6941  0.2181  2.3042
  479MOL0     H63164   6.210   7.246   9.415  0.7815 -0.5054 -1.5959
  479MOL0     H63165   6.007   7.176   9.307 -1.9571 -0.4254  0.1888
  479MOL0     H63166   6.020   7.324   9.402  0.1169 -0.0543 -1.3019
  479MOL0     H63167   5.765   7.196   9.324 -0.7739  1.0121  1.7171
  479MOL0     H63168   5.838   7.347   9.254 -0.1801  0.2854 -1.4619
  479MOL0     H63169   5.800   7.447   9.491 -2.0964  0.0214  2.2195
  479MOL0     H63170   5.754   7.296   9.547  2.0682  1.3217 -0.1176
  479MOL0     H63171   5.575   7.473   9.491  2.2517  1.0204 -0.1255
  479MOL0     H63172   5.616   7.462   9.315  0.1266 -1.8849 -1.4202
  479MOL0     H63173   5.519   7.224   9.479  0.3185  1.5197  0.1360
  479MOL0     H63174   5.553   7.221   9.309 -2.4751 -0.7903 -1.7552
  479MOL0     H63175   5.334   7.423   9.387  0.8949 -0.6479  1.0636
  479MOL0     H63176   5.312   7.254   9.361  0.7975 -0.3123  1.1239
  479MOL0     H63177   5.477   7.418   9.157  0.6770  0.0823 -0.7542
  479MOL0     H63178   5.399   7.255   9.152 -0.1609 -0.0244  2.2600
  479MOL0     H63179   5.278   7.410   9.004 -4.0561  2.0124 -0.3219
  479MOL0     H63180   5.261   7.518   9.141 -0.2483  0.8104 -2.8553
  479MOL0     H63181   5.048   7.432   9.301  2.3391 -0.7301  1.4420
  479MOL0     H63182   4.816   7.326   9.341 -0.1986 -0.9309  1.9685
  479MOL0     H63183   4.822   7.150   9.320  4.1854  1.4507  3.1299
  479MOL0     H63184   4.620   7.229   9.220  0.6395 -1.6720  0.3048
  479MOL0     H63185   4.734   7.156   9.104  0.9377 -2.1454  1.8019
  479MOL0     H63186   4.782   7.377   9.018 -2.1323 -0.8419 -1.7250
  479MOL0     H63187   4.622   7.330   8.991  1.7721  1.4395 -1.6997
  479MOL0     H63188   4.749   7.504   9.226 -0.7151 -0.4380  1.3020
  479MOL0     H63189   4.576   7.476   9.219 -0.5104 -0.9527 -2.7896
  479MOL0     H63190   4.405   7.523   9.064 -2.2234 -0.7972 -2.5067
  479MOL0     H63191   4.228   7.616   8.953 -1.6917  1.1197  0.1373
  479MOL0     H63192   4.359   7.914   8.489 -1.1640 -1.8740  2.4134
  479MOL0     H63193   4.279   8.010   8.286  2.2070  3.0749  0.7315
  479MOL0     H63194   4.120   8.031   8.125  0.0202 -0.2307  3.2554
  479MOL0     H63195   4.165   8.199   8.112  2.1063 -2.5029 -0.2013
  479MOL0     H63196   3.904   8.052   8.038 -0.7653  1.0435 -1.4914
  479MOL0     H63197   4.023   8.130   7.942  1.1140 -2.9951 -0.6512
  479MOL0     H63198   3.962   8.357   8.048  1.3544 -0.7232 -3.3461
  479MOL0     H63199   3.844   8.279   8.148 -0.6530  1.1741 -1.0003
  479MOL0     H63200   3.839   8.259   7.846  0.0811 -1.5395  0.2779
  479MOL0     H63201   3.728   8.186   7.953  3.2025 -2.2538 -4.2437
  479MOL0     H63202   3.657   8.400   8.048  2.6229 -0.5607  0.6263
  479MOL0     H63203   3.611   8.386   7.876  0.7682  0.4513 -0.2661
  479MOL0     H63204   3.846   8.528   7.835  0.4238 -0.5166  1.0950
  479MOL0     H63205   3.835   8.554   8.006 -1.9575  1.0722  0.4189
  479MOL0     H63206   3.582   8.630   7.960 -0.0518  0.7192 -1.2071
  479MOL0     H63207   3.727   8.737   7.971 -0.6979  0.2906 -0.9325
  479MOL0     H63208   3.733   8.809   7.762 -1.8270  1.4697  0.2892
  479MOL0     H63209   3.564   8.782   7.790 -0.0629 -0.1707  0.9599
  479MOL0     H63210   3.955   8.192   8.491 -1.3522 -1.6985  0.5718
  479MOL0     H63211   4.041   8.081   8.717  3.1620  0.9113  1.3482
  479MOL0     H63212   4.503   7.897   8.758  2.8213 -0.6972  0.6269
  479MOL0     H63213   4.674   7.823   8.915 -0.1497  0.0248 -1.9330
  479MOL0     H63214   6.027   6.962   9.668  0.2829 -0.4711  0.1406
  479MOL0     H63215   6.263   6.879   9.738 -1.9601  1.5226  1.4436
  479MOL0     H63216   6.593   6.744   9.741 -0.3331  0.7788  0.8030
  479MOL0     H63217   6.781   6.635   9.834  1.2946  1.6928  1.0245
  479MOL0     H63218   7.034   6.501   9.639  0.8675 -1.1497  0.5479
  479MOL0     H63219   6.980   6.488   9.812 -1.8474 -1.7153 -1.9777
  479MOL0     H63220   7.241   6.568   9.856  1.0364 -1.5687  0.2072
  479MOL0     H63221   7.201   6.399   9.814 -1.0185 -0.5604 -0.4492
  479MOL0     H63222   7.384   6.539   9.701  1.2936 -1.5916 -1.1688
  479MOL0     H63223   7.268   6.601   9.591 -2.8632 -1.1129  0.9747
  479MOL0     H63224   7.252   6.313   9.578  0.0970  1.0664  1.1531
  479MOL0     H63225   7.302   6.428   9.456 -0.9511 -0.9560  0.4671
  479MOL0     H63226   7.645   6.226   9.629 -0.0856  2.4691  1.5518
  479MOL0     H63227   7.052   6.849   9.585  0.0003  1.4552  0.9991
  479MOL0     H63228   6.861   6.966   9.470  1.3017 -0.0981  0.1435
  480MOL0     O63229   2.020   2.851   5.218 -0.6169  0.3488 -0.1266
  480MOL0     C63230   2.004   2.752   5.284  0.0834  0.1205 -1.0498
  480MOL0     O63231   1.891   2.682   5.290  0.5113 -0.4075 -0.5259
  480MOL0     C63232   1.771   2.724   5.245 -0.0741 -0.9267 -0.6511
  480MOL0     C63233   1.660   2.735   5.327  0.5105 -0.5823 -1.5402
  480MOL0     C63234   1.537   2.771   5.276  0.1944  0.5294 -0.5940
  480MOL0     C63235   1.523   2.824   5.145  0.5772 -0.7780  0.2682
  480MOL0     O63236   1.395   2.851   5.115  0.5336 -0.9188  0.3733
  480MOL0     C63237   1.375   2.892   4.977 -0.0588  0.1506  0.3740
  480MOL0     C63238   1.240   2.957   4.953 -0.1826 -0.3725 -0.5021
  480MOL0     C63239   1.220   3.010   4.816 -0.1613  0.2095 -1.0144
  480MOL0     C63240   1.113   3.120   4.824 -0.5643  0.1185  0.4152
  480MOL0     C63241   1.054   3.172   4.694 -0.3847  0.0558 -0.0052
  480MOL0     C63242   0.945   3.278   4.704  0.5046  0.1555 -0.1594
  480MOL0     C63243   0.939   3.373   4.578 -0.6149 -0.2964  0.0520
  480MOL0     C63244   0.920   3.310   4.439  0.6664 -0.0968  0.4366
  480MOL0     N63245   0.792   3.227   4.438 -0.5489 -0.5233 -0.0639
  480MOL0     C63246   0.666   3.289   4.437  0.2713 -0.2155  0.4130
  480MOL0     C63247   0.587   3.196   4.499  0.3401 -0.0945  0.0914
  480MOL0     C63248   0.442   3.193   4.534  0.4649 -0.0236 -0.4885
  480MOL0     C63249   0.431   3.251   4.671  0.0775 -0.1726 -0.8076
  480MOL0     C63250   0.476   3.160   4.789  0.8031 -0.7027 -0.0879
  480MOL0     C63251   0.357   3.092   4.855 -0.2202  1.0679 -0.3144
  480MOL0     O63252   0.279   3.189   4.938  0.2374  0.4577  0.5943
  480MOL0     C63253   0.157   3.148   4.980  0.7995  0.5470  0.4005
  480MOL0     C63254   0.079   3.244   5.046 -1.0758  0.0524  0.1424
  480MOL0     C63255  -0.037   3.207   5.090  0.3416  0.3050 -1.0531
  480MOL0     C63256  -0.094   3.074   5.084 -0.0502 -0.8671 -0.0398
  480MOL0     C63257  -0.223   3.039   5.147  0.4484  0.0415 -0.4926
  480MOL0     O63258  -0.234   2.908   5.194 -0.3520 -0.4306  0.8546
  480MOL0     C63259  -0.354   2.869   5.256 -0.0140  0.0967  0.8024
  480MOL0     C63260  -0.466   2.825   5.184  0.7076 -0.2256  0.1562
  480MOL0     C63261  -0.571   2.770   5.259  0.6929  0.6682  0.3588
  480MOL0     C63262  -0.577   2.758   5.399  0.2258  0.6165  0.6228
  480MOL0     O63263  -0.695   2.711   5.447 -0.1437 -0.3929 -0.7643
  480MOL0     C63264  -0.702   2.680   5.588 -0.5598  0.7951  0.3516
  480MOL0     C63265  -0.844   2.708   5.646  0.5048 -0.6391 -0.3379
  480MOL0     C63266  -0.852   2.853   5.688 -0.3171 -0.8035  0.0287
  480MOL0     C63267  -0.996   2.899   5.710  1.1532 -0.3076  0.6445
  480MOL0     C63268  -1.004   3.055   5.696 -0.6872  0.4541 -0.7490
  480MOL0     C63269  -1.140   3.112   5.737 -0.4760 -1.1354 -0.3664
  480MOL0     C63270  -1.178   3.112   5.888  0.3152  1.0606  2.0002
  480MOL0     C63271  -1.293   3.019   5.925  0.0692  0.1398 -0.5768
  480MOL0    Cl63272  -1.394   3.054   6.070  0.1514 -0.0971 -0.3834
  480MOL0     C63273  -0.460   2.807   5.468  0.3372  0.5383 -0.5895
  480MOL0     C63274  -0.355   2.864   5.390  0.1324 -0.0533 -0.0602
  480MOL0     O63275  -0.305   3.124   5.157  0.0713  0.4122  0.2041
  480MOL0     C63276  -0.022   2.983   5.011 -1.0525  0.8882  0.7188
  480MOL0     C63277   0.107   3.020   4.965  0.0705  0.6178  0.1332
  480MOL0     N63278   0.672   3.087   4.524 -0.3158  0.4884  0.5764
  480MOL0     N63279   0.782   3.099   4.481  0.6474  0.1256 -0.4331
  480MOL0     C63280   1.641   2.810   5.062  0.1572 -0.6071  0.1762
  480MOL0     C63281   1.751   2.756   5.112 -0.1717 -0.4565  0.5869
  480MOL0     C63282   2.108   2.710   5.381 -0.3798  1.2405  0.3517
  480MOL0     C63283   2.220   2.793   5.393 -0.3285 -0.0641  0.0688
  480MOL0     C63284   2.334   2.755   5.461 -0.6282  0.0441 -1.0099
  480MOL0     C63285   2.337   2.643   5.536 -0.2640  0.4622 -0.4587
  480MOL0     O63286   2.460   2.614   5.604  0.6405  0.0756  0.2139
  480MOL0     C63287   2.458   2.482   5.672 -0.0834 -0.8980  0.6871
  480MOL0     C63288   2.577   2.442   5.766 -1.0673  0.0091 -0.0361
  480MOL0     C63289   2.543   2.431   5.914  0.3565  0.0534  1.3806
  480MOL0     C63290   2.543   2.559   5.990 -0.2650  0.5268  1.1688
  480MOL0     C63291   2.501   2.535   6.132 -0.0055  0.3566 -1.0108
  480MOL0     C63292   2.467   2.521   6.247 -0.0797 -0.0561  0.4632
  480MOL0     C63293   2.233   2.559   5.521 -0.4601 -0.2307 -0.0957
  480MOL0     C63294   2.121   2.589   5.449  0.2234  0.4367 -0.2684
  480MOL0     H63295   1.674   2.701   5.429  1.9549  0.8743 -1.2224
  480MOL0     H63296   1.457   2.764   5.349  1.1362 -1.1321  0.3395
  480MOL0     H63297   1.376   2.802   4.914 -0.8907  0.3098  0.1187
  480MOL0     H63298   1.454   2.962   4.949  0.7279 -1.2206 -1.0232
  480MOL0     H63299   1.217   3.037   5.025 -0.1836 -0.7650 -0.0616
  480MOL0     H63300   1.167   2.877   4.964  2.1154 -2.3438  1.7495
  480MOL0     H63301   1.178   2.926   4.760 -0.7424  0.1660 -0.5246
  480MOL0     H63302   1.314   3.046   4.773 -0.3145  2.0810  0.1214
  480MOL0     H63303   1.025   3.073   4.869 -3.6342  3.7686 -1.2413
  480MOL0     H63304   1.133   3.203   4.891  1.5519 -0.5868  0.7446
  480MOL0     H63305   1.010   3.096   4.629  1.0626  1.4410 -2.7675
  480MOL0     H63306   1.144   3.205   4.641 -0.6433 -0.9690 -1.1234
  480MOL0     H63307   0.972   3.337   4.792  1.0654  2.7684 -1.9705
  480MOL0     H63308   0.845   3.234   4.704  1.5525 -2.3674  0.2815
  480MOL0     H63309   0.857   3.444   4.589  1.6659  2.4842  0.1511
  480MOL0     H63310   1.028   3.435   4.571 -0.2435 -0.9754 -1.8797
  480MOL0     H63311   0.998   3.236   4.418 -0.7787 -2.0367  1.4791
  480MOL0     H63312   0.917   3.392   4.367  2.4681 -1.2577 -1.0328
  480MOL0     H63313   0.632   3.386   4.403 -1.4851 -0.7961  0.3694
  480MOL0     H63314   0.404   3.091   4.527  1.1117 -0.1495 -3.2273
  480MOL0     H63315   0.388   3.254   4.461  2.5192  0.6265 -1.5404
  480MOL0     H63316   0.328   3.284   4.686  0.1767  0.5092 -1.5314
  480MOL0     H63317   0.497   3.338   4.666  2.9185 -2.2349 -1.5487
  480MOL0     H63318   0.544   3.077   4.767  0.9609 -0.3861 -0.8323
  480MOL0     H63319   0.516   3.224   4.869 -0.5869 -1.3628  1.1742
  480MOL0     H63320   0.386   3.022   4.933 -0.0610 -2.7639 -3.5019
  480MOL0     H63321   0.293   3.035   4.788 -0.4913 -0.0288  0.8583
  480MOL0     H63322   0.115   3.344   5.068  1.2004 -0.9788  1.5409
  480MOL0     H63323  -0.097   3.273   5.152 -0.7426 -0.8974 -0.7576
  480MOL0     H63324  -0.461   2.813   5.077  1.6277 -0.0457  0.1666
  480MOL0     H63325  -0.653   2.729   5.199  2.1120 -1.6521 -0.1250
  480MOL0     H63326  -0.613   2.715   5.641 -1.1868  1.1962  1.1681
  480MOL0     H63327  -0.695   2.571   5.589  1.3421  0.8753  0.2281
  480MOL0     H63328  -0.870   2.641   5.729  0.4642 -1.4800 -1.0127
  480MOL0     H63329  -0.922   2.682   5.573 -1.0852 -0.0131  1.0845
  480MOL0     H63330  -0.794   2.914   5.618  2.1730  0.9086  3.3088
  480MOL0     H63331  -0.801   2.866   5.784  3.1312 -0.4709 -1.6805
  480MOL0     H63332  -1.060   2.869   5.626  1.5228  1.4926 -0.3370
  480MOL0     H63333  -1.034   2.854   5.802  1.1449 -2.9123 -0.5165
  480MOL0     H63334  -0.978   3.086   5.594 -1.1575  0.9221 -0.7334
  480MOL0     H63335  -0.931   3.099   5.765 -1.2538  0.1964  0.0287
  480MOL0     H63336  -1.209   3.058   5.673  0.5078 -0.2423 -2.2564
  480MOL0     H63337  -1.163   3.215   5.708 -2.6617 -1.3699  0.3439
  480MOL0     H63338  -1.089   3.078   5.942  3.0035 -1.5918 -3.3320
  480MOL0     H63339  -1.206   3.216   5.909 -0.4452  1.2779  0.1107
  480MOL0     H63340  -1.255   2.919   5.950 -0.9082  0.3278  1.9536
  480MOL0     H63341  -1.359   3.005   5.839  2.2138  0.9875 -2.4365
  480MOL0     H63342  -0.437   2.816   5.574  2.0346  1.7643 -1.0130
  480MOL0     H63343  -0.266   2.901   5.441 -0.2156  2.1151 -0.9379
  480MOL0     H63344  -0.056   2.880   5.004 -0.5434  0.8006 -1.0889
  480MOL0     H63345   0.168   2.936   4.932  1.2041  1.8597 -1.0571
  480MOL0     H63346   1.641   2.847   4.960  1.8905  1.5205  0.8719
  480MOL0     H63347   1.833   2.756   5.042  0.1999  3.1237  0.8772
  480MOL0     H63348   2.241   2.884   5.337  1.1830 -1.1876 -1.3117
  480MOL0     H63349   2.418   2.824   5.462  0.1208 -0.7513  2.1709
  480MOL0     H63350   2.450   2.402   5.598  2.2795 -0.1677 -0.4417
  480MOL0     H63351   2.366   2.470   5.731 -0.3773 -1.5085  0.1258
  480MOL0     H63352   2.630   2.349   5.744 -1.2841 -0.4006  1.1337
  480MOL0     H63353   2.659   2.513   5.752  0.9671 -2.0851  0.6864
  480MOL0     H63354   2.611   2.357   5.959  1.4514  0.7973  0.9737
  480MOL0     H63355   2.441   2.393   5.926 -1.1298  1.6608 -3.9442
  480MOL0     H63356   2.641   2.607   5.989  1.5862 -2.9246  1.3281
  480MOL0     H63357   2.469   2.623   5.942 -0.2291 -1.9853 -2.6380
  480MOL0     H63358   2.422   2.495   6.341  1.0524 -2.4588  0.4352
  480MOL0     H63359   2.245   2.458   5.558  1.9916 -1.0290 -2.7016
  480MOL0     H63360   2.042   2.514   5.449  3.8903 -4.1005  3.6033
  481MOL0     O63361   0.159   5.051   5.424  0.7522 -1.1099  0.1319
  481MOL0     C63362   0.222   5.115   5.343  0.3879 -0.3812  0.4010
  481MOL0     O63363   0.183   5.155   5.217  0.3563 -0.8975 -0.7612
  481MOL0     C63364   0.051   5.145   5.184  0.2014  0.5382  0.1137
  481MOL0     C63365   0.016   5.104   5.055 -0.3875  0.1865  0.1938
  481MOL0     C63366  -0.115   5.108   5.017 -1.2616  0.2712  0.4351
  481MOL0     C63367  -0.223   5.140   5.104  0.3903 -0.1886  0.5656
  481MOL0     O63368  -0.355   5.132   5.056  0.9005 -0.0612 -0.7646
  481MOL0     C63369  -0.465   5.201   5.114  0.2279  1.2678  0.4900
  481MOL0     C63370  -0.591   5.169   5.030 -1.3455  0.5766  0.4688
  481MOL0     C63371  -0.711   5.235   5.086 -0.4797 -0.0493  0.6124
  481MOL0     C63372  -0.832   5.228   4.980 -0.2110  0.6725  0.5284
  481MOL0     C63373  -0.964   5.273   5.048  0.5783  0.0379  0.8347
  481MOL0     C63374  -1.087   5.278   4.952  0.2756 -0.2439 -1.1361
  481MOL0     C63375  -1.217   5.285   5.039 -0.8604  0.2454  0.1994
  481MOL0     C63376  -1.335   5.284   4.941 -0.0963  0.2704  0.4234
  481MOL0     N63377  -1.458   5.246   5.008  0.2161 -0.6417 -0.3439
  481MOL0     C63378  -1.545   5.336   5.060 -0.1987 -0.2536 -0.0369
  481MOL0     C63379  -1.660   5.269   5.073  0.9650 -0.7576  0.1656
  481MOL0     C63380  -1.796   5.328   5.127 -0.3352 -0.4578 -0.4730
  481MOL0     C63381  -1.837   5.266   5.260 -0.6522  0.7564 -0.0846
  481MOL0     C63382  -1.888   5.358   5.366  0.0312  0.1555 -0.4358
  481MOL0     C63383  -2.022   5.422   5.324  0.3835 -0.2578 -0.2953
  481MOL0     O63384  -2.060   5.521   5.418 -0.0517  0.5793  0.3057
  481MOL0     C63385  -2.157   5.614   5.383  0.0010 -0.3534  0.5498
  481MOL0     C63386  -2.197   5.705   5.476 -0.5381  0.7329  0.0175
  481MOL0     C63387  -2.305   5.790   5.458 -0.2737  0.2749  0.0299
  481MOL0     C63388  -2.366   5.798   5.335  0.1911  0.2832 -0.1598
  481MOL0     C63389  -2.487   5.884   5.318  0.2110 -0.1300  0.0058
  481MOL0     O63390  -2.544   5.872   5.199 -0.4980 -0.5067 -0.7316
  481MOL0     C63391  -2.655   5.940   5.170 -0.4277 -0.3944 -0.4700
  481MOL0     C63392  -2.766   5.929   5.256  0.5087  0.5395 -1.6718
  481MOL0     C63393  -2.885   5.997   5.228  0.5155  0.5525  0.7236
  481MOL0     C63394  -2.899   6.065   5.106  0.0906 -0.1211  0.2833
  481MOL0     O63395  -3.008   6.146   5.073  0.1898 -0.1968 -0.3271
  481MOL0     C63396  -3.141   6.116   5.118 -0.1671  0.2904 -0.5602
  481MOL0     C63397  -3.252   6.196   5.061 -0.5193  0.4622  0.4003
  481MOL0     C63398  -3.270   6.339   5.110 -1.2378 -0.0068  0.1419
  481MOL0     C63399  -3.147   6.424   5.096  0.6044 -0.0408  0.1698
  481MOL0     C63400  -3.175   6.570   5.125  0.2264  0.0331 -0.1745
  481MOL0     C63401  -3.035   6.647   5.125 -0.9911  1.0314  0.1092
  481MOL0     C63402  -2.943   6.613   5.245 -0.0107  0.1906  0.4304
  481MOL0     C63403  -2.948   6.727   5.348  0.8658  0.1874  0.2810
  481MOL0    Cl63404  -3.110   6.736   5.425  0.0871 -0.2158 -0.3075
  481MOL0     C63405  -2.784   6.068   5.027 -0.1494 -0.0630  0.1085
  481MOL0     C63406  -2.668   6.007   5.055 -0.4820 -0.6342 -0.2044
  481MOL0     O63407  -2.502   5.977   5.393 -0.4894 -0.9364 -0.1182
  481MOL0     C63408  -2.316   5.715   5.229 -0.3121 -0.3058 -0.0998
  481MOL0     C63409  -2.217   5.621   5.261  0.6152  0.7995 -0.0194
  481MOL0     N63410  -1.649   5.141   5.021 -0.2602 -0.6334  0.4035
  481MOL0     N63411  -1.528   5.131   4.979  0.1038  0.2914  0.2617
  481MOL0     C63412  -0.186   5.185   5.229  0.4734 -0.2201  0.0216
  481MOL0     C63413  -0.052   5.188   5.271  0.2716  0.2444 -0.4301
  481MOL0     C63414   0.371   5.145   5.364  0.9158 -0.2765 -1.1065
  481MOL0     C63415   0.453   5.213   5.279 -0.9713  0.5234  0.2432
  481MOL0     C63416   0.582   5.256   5.308 -0.4681 -1.2747  0.4936
  481MOL0     C63417   0.633   5.223   5.439 -0.1865 -0.4499 -0.5269
  481MOL0     O63418   0.758   5.275   5.475 -0.2652  0.2563  0.2980
  481MOL0     C63419   0.767   5.422   5.486 -0.2394 -0.4638  0.4773
  481MOL0     C63420   0.883   5.463   5.572 -0.1238 -0.4753  0.0753
  481MOL0     C63421   0.877   5.406   5.719  0.1377  0.3595  0.2073
  481MOL0     C63422   0.977   5.450   5.808 -0.2139 -0.2580  0.5983
  481MOL0     C63423   1.112   5.405   5.765 -0.5772 -0.4191 -0.0916
  481MOL0     C63424   1.225   5.372   5.721  0.1111  0.0512 -0.6095
  481MOL0     C63425   0.553   5.148   5.527 -1.0237 -0.3369 -0.1903
  481MOL0     C63426   0.427   5.108   5.493  0.7098 -1.0534  0.2758
  481MOL0     H63427   0.089   5.063   4.986 -0.0406  1.4249 -0.1974
  481MOL0     H63428  -0.149   5.079   4.918  2.3773  0.3340 -0.9889
  481MOL0     H63429  -0.454   5.310   5.108 -2.6704  1.6045 -0.0942
  481MOL0     H63430  -0.479   5.179   5.221  0.7444 -0.1474  0.2938
  481MOL0     H63431  -0.599   5.061   5.037  1.8328  0.2091 -0.0981
  481MOL0     H63432  -0.578   5.208   4.929  1.0867  0.6749  0.7445
  481MOL0     H63433  -0.692   5.337   5.124  2.5317 -0.4443  0.3973
  481MOL0     H63434  -0.737   5.173   5.173 -0.6274  0.3739  0.8755
  481MOL0     H63435  -0.800   5.296   4.900  2.1363 -2.2483 -1.2430
  481MOL0     H63436  -0.845   5.126   4.943 -1.6465  0.2896  1.9960
  481MOL0     H63437  -0.942   5.364   5.104 -0.7212  1.3207 -0.6359
  481MOL0     H63438  -0.969   5.197   5.126 -1.0909 -1.3037 -0.4983
  481MOL0     H63439  -1.083   5.190   4.888  2.5635 -1.5787  0.6976
  481MOL0     H63440  -1.077   5.368   4.891  0.3547  0.0821 -0.6465
  481MOL0     H63441  -1.222   5.189   5.093  1.7552 -0.2288 -0.2786
  481MOL0     H63442  -1.221   5.368   5.110 -3.5207 -0.8732  1.5336
  481MOL0     H63443  -1.309   5.214   4.860  1.9593  0.5661  0.7882
  481MOL0     H63444  -1.345   5.386   4.904  4.0594  1.7038  2.6932
  481MOL0     H63445  -1.523   5.436   5.096 -3.8662  0.4030  0.8079
  481MOL0     H63446  -1.872   5.326   5.049 -0.9380  0.5623  0.0740
  481MOL0     H63447  -1.783   5.435   5.149  0.6466 -0.6871  0.1388
  481MOL0     H63448  -1.744   5.219   5.294 -0.0252  1.8992 -0.1430
  481MOL0     H63449  -1.911   5.192   5.230  0.8198 -0.1812 -1.5485
  481MOL0     H63450  -1.894   5.312   5.466  0.4596 -0.8941 -0.8790
  481MOL0     H63451  -1.811   5.434   5.375 -0.7528  1.0137 -0.8408
  481MOL0     H63452  -2.093   5.339   5.329  2.1041 -1.8275 -0.5027
  481MOL0     H63453  -2.014   5.472   5.227 -5.8418  0.4043 -0.8835
  481MOL0     H63454  -2.151   5.694   5.574 -3.2060  2.0804  1.5194
  481MOL0     H63455  -2.335   5.855   5.540 -0.7866 -1.3214  1.1720
  481MOL0     H63456  -2.759   5.863   5.342 -1.4657  1.2305 -0.9232
  481MOL0     H63457  -2.968   5.988   5.297  1.5700  0.0650  1.9965
  481MOL0     H63458  -3.152   6.139   5.225 -1.2646 -3.0972  0.1744
  481MOL0     H63459  -3.165   6.011   5.100 -1.3695  0.4715 -0.1116
  481MOL0     H63460  -3.349   6.151   5.085  0.0964 -0.6113  0.9246
  481MOL0     H63461  -3.234   6.197   4.953  4.2799 -1.7023  0.9333
  481MOL0     H63462  -3.296   6.331   5.216 -2.9842  2.7058  0.0089
  481MOL0     H63463  -3.351   6.399   5.068 -0.3952  2.3778  1.7803
  481MOL0     H63464  -3.077   6.385   5.170  1.3803 -4.6701 -2.6422
  481MOL0     H63465  -3.104   6.403   4.997  1.1876 -0.5243  0.5225
  481MOL0     H63466  -3.218   6.579   5.225  1.9601  1.6574  0.4969
  481MOL0     H63467  -3.247   6.618   5.058  0.8518  1.5825  0.2165
  481MOL0     H63468  -3.061   6.753   5.115  0.9913  1.3296 -3.4542
  481MOL0     H63469  -2.986   6.633   5.028  0.0606  0.5418  0.6935
  481MOL0     H63470  -2.959   6.514   5.291 -2.0623 -2.2165 -4.7153
  481MOL0     H63471  -2.842   6.612   5.204  0.1799 -3.7348  0.5686
  481MOL0     H63472  -2.926   6.826   5.306 -3.3226  0.8937 -0.8054
  481MOL0     H63473  -2.872   6.714   5.425 -0.2106  0.5058  1.4486
  481MOL0     H63474  -2.791   6.115   4.929 -2.2454 -3.1207 -1.3567
  481MOL0     H63475  -2.582   6.014   4.989  0.5069 -0.6364  1.0459
  481MOL0     H63476  -2.360   5.713   5.130 -0.3272 -1.2878 -0.0835
  481MOL0     H63477  -2.196   5.551   5.180  0.2402  0.7371 -0.0607
  481MOL0     H63478  -0.259   5.225   5.298  0.3506 -0.5482  0.0831
  481MOL0     H63479  -0.042   5.223   5.373 -1.6106  1.7528 -0.6974
  481MOL0     H63480   0.411   5.220   5.179  1.0580 -3.4836 -1.1313
  481MOL0     H63481   0.648   5.311   5.242 -0.0731 -1.1248  0.9990
  481MOL0     H63482   0.673   5.461   5.526 -1.2704 -1.3219 -1.0360
  481MOL0     H63483   0.783   5.467   5.388 -1.8088 -1.2380 -0.1607
  481MOL0     H63484   0.974   5.426   5.523  1.0640  1.9609  0.2879
  481MOL0     H63485   0.894   5.572   5.571 -1.0815 -0.3120  2.2235
  481MOL0     H63486   0.860   5.298   5.718  1.2706  0.1018  2.7264
  481MOL0     H63487   0.784   5.440   5.767  0.0005 -1.0450  0.9725
  481MOL0     H63488   0.977   5.559   5.817  0.3564 -0.3738  2.2450
  481MOL0     H63489   0.960   5.397   5.902 -2.5020 -1.3145 -0.3414
  481MOL0     H63490   1.318   5.331   5.688 -0.8865 -2.1430 -0.8645
  481MOL0     H63491   0.603   5.119   5.619 -1.9894 -0.6973  0.2390
  481MOL0     H63492   0.364   5.048   5.558  2.1362 -3.5787 -0.5142
  482MOL0     O63493  10.677   8.693   9.599  0.0924  0.5474  0.2286
  482MOL0     C63494  10.768   8.763   9.554  0.9670 -0.9617  0.1645
  482MOL0     O63495  10.746   8.891   9.507 -0.8478 -0.2983 -0.8829
  482MOL0     C63496  10.635   8.958   9.548  0.3644  0.3700 -0.0564
  482MOL0     C63497  10.595   8.969   9.685 -0.2279  0.7644  0.4854
  482MOL0     C63498  10.485   9.055   9.717  0.2642  0.0893 -0.5155
  482MOL0     C63499  10.426   9.139   9.617 -0.3524  0.0124 -0.7020
  482MOL0     O63500  10.311   9.225   9.631  0.1788  0.8220  0.6891
  482MOL0     C63501  10.259   9.229   9.767 -0.6400  0.3611 -0.5753
  482MOL0     C63502  10.133   9.305   9.787  0.0469 -0.0870  0.1866
  482MOL0     C63503  10.098   9.333   9.922  0.0617  0.1044 -0.7339
  482MOL0     C63504   9.974   9.422   9.925  0.1309  0.3474 -0.3706
  482MOL0     C63505   9.931   9.453  10.063 -0.0400 -0.6625  0.3078
  482MOL0     C63506   9.811   9.543  10.049 -0.5761 -0.9398 -0.4049
  482MOL0     C63507   9.678   9.468  10.016  0.4049 -0.0589  0.2602
  482MOL0     C63508   9.556   9.554   9.969 -0.0768  0.2019  0.2237
  482MOL0     N63509   9.463   9.472   9.885  0.3196 -1.1390 -0.7226
  482MOL0     C63510   9.398   9.359   9.944 -0.2324  0.1540 -0.1049
  482MOL0     C63511   9.328   9.320   9.831  0.0263  0.0008  0.3554
  482MOL0     C63512   9.248   9.190   9.836  0.2143 -0.2148 -0.1208
  482MOL0     C63513   9.108   9.213   9.873  1.0207 -0.1910 -0.1676
  482MOL0     C63514   9.094   9.266  10.017  0.8281 -0.1948  0.3396
  482MOL0     C63515   8.946   9.224  10.060 -0.0788  0.7769  0.1741
  482MOL0     O63516   8.855   9.273   9.968 -0.2523 -0.4013 -0.0071
  482MOL0     C63517   8.727   9.232   9.967  0.0910  0.0658  0.4813
  482MOL0     C63518   8.654   9.251   9.848  0.5839 -1.0314 -1.0007
  482MOL0     C63519   8.519   9.220   9.849 -0.5058 -0.6076  1.0906
  482MOL0     C63520   8.460   9.163   9.960  0.7459 -0.0175  0.6187
  482MOL0     C63521   8.308   9.147   9.951  0.1012  0.1634 -0.1840
  482MOL0     O63522   8.251   9.177   9.832 -0.2844  1.0113  0.1242
  482MOL0     C63523   8.113   9.171   9.814  0.4368 -0.2232  0.0304
  482MOL0     C63524   8.065   9.105   9.695  0.1899  0.3353 -0.1539
  482MOL0     C63525   7.932   9.119   9.662 -0.0683  0.1665  1.4195
  482MOL0     C63526   7.842   9.184   9.747  0.1066  0.4826 -0.3601
  482MOL0     O63527   7.717   9.213   9.714 -0.1944  0.0478  0.7257
  482MOL0     C63528   7.648   9.098   9.650  0.3714  0.7585 -0.9206
  482MOL0     C63529   7.503   9.082   9.707  0.1194  0.0095  0.3200
  482MOL0     C63530   7.489   9.055   9.861  0.2522 -0.2575  0.8122
  482MOL0     C63531   7.344   9.069   9.913 -0.2707 -0.4742  1.0642
  482MOL0     C63532   7.327   9.032  10.064 -0.4989  0.1337  0.2954
  482MOL0     C63533   7.182   9.058  10.104  0.1505 -1.1470 -0.1040
  482MOL0     C63534   7.149   9.082  10.259 -0.0253  0.2942  0.1451
  482MOL0     C63535   6.995   9.119  10.267  0.2162 -0.3775  0.5474
  482MOL0    Cl63536   6.975   9.294  10.232  0.0535 -0.1075  0.1552
  482MOL0     C63537   7.887   9.238   9.868  1.3838  0.2523 -0.0627
  482MOL0     C63538   8.020   9.240   9.900 -0.0243  0.5096 -1.0644
  482MOL0     O63539   8.252   9.105  10.050 -0.4023 -0.1690 -1.1678
  482MOL0     C63540   8.530   9.141  10.077 -0.8775 -0.2255 -0.0013
  482MOL0     C63541   8.667   9.168  10.079  0.3063 -0.0135  0.1799
  482MOL0     N63542   9.362   9.397   9.719 -0.2702  0.4977  0.1683
  482MOL0     N63543   9.442   9.488   9.754 -0.3424  0.5448 -0.0053
  482MOL0     C63544  10.481   9.138   9.498 -0.5648  0.6571  0.2857
  482MOL0     C63545  10.576   9.044   9.454  0.0673  0.3872  0.4054
  482MOL0     C63546  10.904   8.706   9.537 -0.5515 -0.3851 -0.0872
  482MOL0     C63547  10.940   8.582   9.594  0.4327  0.1547 -0.2052
  482MOL0     C63548  11.063   8.519   9.560  0.5150  0.2910 -0.2942
  482MOL0     C63549  11.161   8.601   9.488  0.2421 -0.5678  0.4941
  482MOL0     O63550  11.285   8.564   9.450  0.2224  0.1470  1.0369
  482MOL0     C63551  11.324   8.426   9.467 -0.1844 -1.1084  0.3464
  482MOL0     C63552  11.463   8.391   9.412 -0.7848  0.0037 -0.6564
  482MOL0     C63553  11.565   8.501   9.421 -0.5540 -0.1102  0.0798
  482MOL0     C63554  11.710   8.456   9.391 -0.1366  0.3385  0.8307
  482MOL0     C63555  11.739   8.415   9.251  0.5336  0.0122 -1.0509
  482MOL0     C63556  11.766   8.383   9.139 -0.0466 -0.1070  0.5357
  482MOL0     C63557  11.125   8.730   9.448  0.5171 -0.6610 -0.3193
  482MOL0     C63558  10.995   8.775   9.457  0.4975 -0.1626  0.7930
  482MOL0     H63559  10.634   8.905   9.763 -0.5368 -0.1052 -0.0543
  482MOL0     H63560  10.454   9.066   9.821  2.8552 -0.6989  0.4310
  482MOL0     H63561  10.338   9.252   9.839  0.5631 -1.3973 -1.2586
  482MOL0     H63562  10.246   9.122   9.788  1.7394  0.4980  2.2374
  482MOL0     H63563  10.051   9.260   9.730 -0.6873  2.8648 -1.2931
  482MOL0     H63564  10.146   9.402   9.739  1.6511 -1.5526 -2.6541
  482MOL0     H63565  10.188   9.380   9.963 -1.1302  2.1767 -0.3754
  482MOL0     H63566  10.076   9.242   9.980  0.9103  0.9389  0.9780
  482MOL0     H63567  10.007   9.515   9.878 -0.5168 -0.0267 -1.6425
  482MOL0     H63568   9.894   9.381   9.862  1.0073 -1.4188 -0.3981
  482MOL0     H63569   9.997   9.525  10.113 -0.9828 -0.2360  0.9726
  482MOL0     H63570   9.905   9.369  10.128 -0.2157  0.3735  1.6119
  482MOL0     H63571   9.825   9.612   9.966 -0.5717 -1.3378 -0.7399
  482MOL0     H63572   9.800   9.597  10.143 -2.8569 -0.9310 -0.6144
  482MOL0     H63573   9.701   9.388   9.945 -0.8172 -0.4561  0.2890
  482MOL0     H63574   9.640   9.420  10.107  0.1702  3.3442  2.0954
  482MOL0     H63575   9.584   9.642   9.910 -0.6643  1.5485  1.8927
  482MOL0     H63576   9.502   9.594  10.055  1.0895  0.4396  0.8641
  482MOL0     H63577   9.399   9.311  10.041 -2.1723 -0.8903 -0.5343
  482MOL0     H63578   9.293   9.119   9.906 -1.3873 -0.1439  1.0450
  482MOL0     H63579   9.245   9.133   9.742  1.0636 -0.2748 -0.1155
  482MOL0     H63580   9.051   9.120   9.866 -1.2311  1.1197 -0.2062
  482MOL0     H63581   9.058   9.280   9.803 -1.3356  1.5085  2.9067
  482MOL0     H63582   9.175   9.240  10.086 -1.2260 -1.3466  2.4395
  482MOL0     H63583   9.102   9.375  10.015  3.7022 -0.3327  0.2126
  482MOL0     H63584   8.922   9.268  10.158  1.1396  1.5256  0.1501
  482MOL0     H63585   8.937   9.116  10.073  0.0025  0.4366 -2.1471
  482MOL0     H63586   8.695   9.304   9.762 -0.7093 -0.6052 -1.3746
  482MOL0     H63587   8.453   9.249   9.768 -0.0939  2.1661  1.6435
  482MOL0     H63588   8.146   9.060   9.637  0.3761 -2.6398  2.1635
  482MOL0     H63589   7.896   9.085   9.565  2.7248 -1.0593  0.7205
  482MOL0     H63590   7.705   9.005   9.662  2.4837  2.0880 -0.0861
  482MOL0     H63591   7.634   9.112   9.543 -0.2384 -0.9840 -1.1001
  482MOL0     H63592   7.445   9.001   9.660  2.8688 -2.2756  0.6149
  482MOL0     H63593   7.449   9.172   9.677  3.1410  1.7688 -0.2811
  482MOL0     H63594   7.547   9.121   9.925  0.1785 -0.6986  1.3385
  482MOL0     H63595   7.521   8.951   9.871 -1.3522 -0.8484  0.0992
  482MOL0     H63596   7.330   9.176   9.895 -0.5615 -0.8897 -1.5628
  482MOL0     H63597   7.273   9.014   9.850 -0.0001  0.5843 -0.2270
  482MOL0     H63598   7.381   9.104  10.126 -0.3878 -0.3620  0.7817
  482MOL0     H63599   7.355   8.931  10.095  1.8787  1.0576  1.4005
  482MOL0     H63600   7.118   8.979  10.062 -0.3389 -0.1899 -1.2319
  482MOL0     H63601   7.148   9.153  10.061  0.9892 -0.7512  0.0933
  482MOL0     H63602   7.155   8.988  10.315 -3.0262 -0.3253 -0.4225
  482MOL0     H63603   7.215   9.159  10.301  3.6021 -1.2550 -2.1642
  482MOL0     H63604   6.951   9.097  10.365 -1.1468 -1.5280 -0.2612
  482MOL0     H63605   6.936   9.058  10.198  2.9639 -0.2108 -2.1289
  482MOL0     H63606   7.812   9.279   9.935  3.7725 -0.5097  3.3238
  482MOL0     H63607   8.059   9.288   9.989  3.4030 -1.4904 -1.2820
  482MOL0     H63608   8.481   9.084  10.154 -1.0251 -3.2724 -2.1917
  482MOL0     H63609   8.723   9.133  10.165  2.9023 -0.7491 -1.6790
  482MOL0     H63610  10.452   9.210   9.423 -1.7601 -0.4204 -0.3257
  482MOL0     H63611  10.610   9.036   9.351  3.0875  3.2352  1.0177
  482MOL0     H63612  10.871   8.541   9.666 -2.4471  2.7759 -1.2588
  482MOL0     H63613  11.088   8.420   9.599 -0.2971 -0.8523 -2.5049
  482MOL0     H63614  11.250   8.354   9.432  1.2516 -3.3852  1.7496
  482MOL0     H63615  11.330   8.406   9.575  0.2819  0.7887  0.7142
  482MOL0     H63616  11.500   8.293   9.442  2.2012  0.5215 -2.2600
  482MOL0     H63617  11.447   8.378   9.305 -0.1991  0.1400 -0.7643
  482MOL0     H63618  11.577   8.536   9.524  2.2918  1.0831 -0.5767
  482MOL0     H63619  11.535   8.590   9.365 -2.0801 -2.0376 -2.3871
  482MOL0     H63620  11.782   8.532   9.424 -0.2378 -0.2899  2.5739
  482MOL0     H63621  11.748   8.372   9.449  0.2837  0.1643  0.3167
  482MOL0     H63622  11.788   8.337   9.045 -3.0268  0.6194 -0.6463
  482MOL0     H63623  11.191   8.806   9.408 -2.3291  2.6154  0.8040
  482MOL0     H63624  10.966   8.867   9.407 -0.5578  0.7021  2.8912
  483MOL0     O63625   3.702   6.972   6.271  0.1318  0.1310 -0.3070
  483MOL0     C63626   3.709   6.940   6.151  0.0107  0.0388 -0.2356
  483MOL0     O63627   3.605   6.893   6.083 -0.9633 -0.3192 -0.4463
  483MOL0     C63628   3.493   6.841   6.139 -1.4137 -0.3946 -0.7600
  483MOL0     C63629   3.376   6.838   6.063 -0.1302  0.1237 -0.4194
  483MOL0     C63630   3.252   6.797   6.123  0.7703  0.7835 -0.2433
  483MOL0     C63631   3.239   6.763   6.256 -0.8543  0.5181 -0.2783
  483MOL0     O63632   3.120   6.723   6.303  0.5702  0.7553 -0.4763
  483MOL0     C63633   3.109   6.677   6.440  0.1175  0.1662  0.1356
  483MOL0     C63634   2.957   6.659   6.469  0.2947  0.2132  0.6191
  483MOL0     C63635   2.873   6.600   6.359 -0.7958 -0.2837 -0.0907
  483MOL0     C63636   2.746   6.567   6.445  0.1365 -0.1427  0.3402
  483MOL0     C63637   2.631   6.548   6.342 -1.2577 -0.0743  0.6534
  483MOL0     C63638   2.519   6.470   6.414 -0.2136 -0.2448  0.3847
  483MOL0     C63639   2.431   6.419   6.303 -0.3001  0.5664  0.0448
  483MOL0     C63640   2.365   6.524   6.217  0.1357 -0.1751 -0.0110
  483MOL0     N63641   2.278   6.468   6.118 -0.1709 -0.2750  0.0173
  483MOL0     C63642   2.325   6.445   5.988 -0.1081 -0.0554 -0.3527
  483MOL0     C63643   2.228   6.370   5.935 -0.1565 -0.7013  0.3402
  483MOL0     C63644   2.237   6.308   5.797 -0.4808  0.3347  0.5118
  483MOL0     C63645   2.370   6.308   5.719 -0.0664 -1.2183  0.5360
  483MOL0     C63646   2.361   6.216   5.591  0.9359  0.6529  0.1923
  483MOL0     C63647   2.483   6.212   5.500  0.4521  0.5652 -0.3410
  483MOL0     O63648   2.606   6.189   5.571 -0.7083  0.3813  0.4511
  483MOL0     C63649   2.726   6.200   5.494  0.6300 -0.6322  0.8493
  483MOL0     C63650   2.736   6.246   5.355 -0.2985 -0.6692  0.4397
  483MOL0     C63651   2.857   6.272   5.293 -0.5927  0.7769 -0.7657
  483MOL0     C63652   2.977   6.238   5.364  0.0023 -0.7672 -0.2802
  483MOL0     C63653   3.106   6.235   5.297 -0.3694  0.0869  0.6747
  483MOL0     O63654   3.228   6.191   5.357  0.4230  0.1262  0.0748
  483MOL0     C63655   3.346   6.211   5.293  0.4974 -0.5990  0.3255
  483MOL0     C63656   3.381   6.341   5.227  0.5923 -0.6797 -0.0104
  483MOL0     C63657   3.496   6.342   5.143 -0.2229  0.4385 -0.1049
  483MOL0     C63658   3.571   6.221   5.132  0.2027 -0.6117 -1.1589
  483MOL0     O63659   3.688   6.238   5.052 -0.4528  0.1174 -0.0961
  483MOL0     C63660   3.807   6.169   5.091 -0.8785  0.0249 -0.7677
  483MOL0     C63661   3.858   6.062   4.991 -0.2512 -0.4181 -1.1924
  483MOL0     C63662   3.878   6.128   4.849  0.3647  0.1659 -0.0015
  483MOL0     C63663   3.953   6.033   4.755 -0.3410  0.0464 -0.3256
  483MOL0     C63664   3.949   6.096   4.622 -0.1525  0.9405 -0.0441
  483MOL0     C63665   4.012   5.989   4.530 -0.3108  0.4215  0.1306
  483MOL0     C63666   4.013   6.027   4.376  0.2438  0.2214  0.6943
  483MOL0     C63667   4.015   5.904   4.292 -0.4252 -0.0496 -0.4641
  483MOL0    Cl63668   4.032   5.948   4.116  0.3266 -0.1498 -0.1173
  483MOL0     C63669   3.530   6.105   5.189  0.6712 -0.1391  0.2750
  483MOL0     C63670   3.416   6.097   5.269 -0.2056  0.3682 -0.2548
  483MOL0     O63671   3.093   6.267   5.179  0.0043  0.3800  0.5466
  483MOL0     C63672   2.975   6.210   5.501  0.7587  0.1272 -0.2279
  483MOL0     C63673   2.847   6.188   5.557  0.0030 -0.3588 -0.1143
  483MOL0     N63674   2.115   6.377   6.019  0.3565 -0.2421 -0.5574
  483MOL0     N63675   2.148   6.435   6.133 -0.0418  0.2419  0.0824
  483MOL0     C63676   3.365   6.743   6.323  0.4465 -0.1913  0.1248
  483MOL0     C63677   3.487   6.791   6.273 -0.3695  0.0597  0.9516
  483MOL0     C63678   3.832   6.968   6.084 -0.4963  0.5532 -0.2747
  483MOL0     C63679   3.961   6.996   6.147 -0.5511  0.0749 -0.3517
  483MOL0     C63680   4.076   7.014   6.069 -0.2290 -0.6224 -0.4155
  483MOL0     C63681   4.073   7.007   5.933 -0.0697 -0.4409 -0.4115
  483MOL0     O63682   4.195   7.012   5.869  0.0957 -0.7010 -0.4734
  483MOL0     C63683   4.221   6.905   5.768 -0.1243 -0.0828 -0.3887
  483MOL0     C63684   4.341   6.954   5.680  0.4590  0.9071  0.3630
  483MOL0     C63685   4.476   6.948   5.756 -0.8401 -0.0252  0.5203
  483MOL0     C63686   4.530   7.084   5.810 -0.1717 -0.5045  0.5701
  483MOL0     C63687   4.659   7.066   5.875  0.1464 -0.0027 -0.2650
  483MOL0     C63688   4.766   7.052   5.922  0.0236 -0.1987 -0.4958
  483MOL0     C63689   3.953   7.001   5.874  1.0519 -0.5460  0.2165
  483MOL0     C63690   3.834   6.967   5.948  0.1846  0.9040  0.4473
  483MOL0     H63691   3.365   6.867   5.959 -4.7837 -2.6010 -0.9779
  483MOL0     H63692   3.162   6.812   6.065  0.4767  1.5235  0.3954
  483MOL0     H63693   3.152   6.746   6.513  2.9679 -0.3156 -0.9786
  483MOL0     H63694   3.157   6.578   6.446  1.1311  0.6605  0.3480
  483MOL0     H63695   2.922   6.760   6.492  4.4452  2.3971 -1.4281
  483MOL0     H63696   2.951   6.595   6.557  1.3538  0.1556  0.6639
  483MOL0     H63697   2.926   6.516   6.314 -0.3255  0.3794 -0.7997
  483MOL0     H63698   2.844   6.681   6.291 -1.7762  2.3889  3.2376
  483MOL0     H63699   2.755   6.472   6.499  3.4378  1.6142  3.2578
  483MOL0     H63700   2.719   6.640   6.522  0.7903  0.3004  0.1608
  483MOL0     H63701   2.663   6.490   6.255 -3.2779 -2.1189  1.1697
  483MOL0     H63702   2.601   6.646   6.304  0.3649  1.3954  2.8909
  483MOL0     H63703   2.453   6.530   6.477 -0.2316 -0.9118  1.0117
  483MOL0     H63704   2.559   6.391   6.478 -1.4577 -0.8756  0.4099
  483MOL0     H63705   2.489   6.354   6.238  1.0947  2.0428 -0.2652
  483MOL0     H63706   2.353   6.360   6.352  0.6747 -1.5769 -0.8800
  483MOL0     H63707   2.440   6.588   6.170 -1.5318  2.3684  0.6291
  483MOL0     H63708   2.306   6.589   6.282  1.8848  1.6606 -0.1747
  483MOL0     H63709   2.422   6.469   5.944 -0.6811 -1.1298 -2.3190
  483MOL0     H63710   2.179   6.367   5.725  1.8806  0.0943 -1.7287
  483MOL0     H63711   2.209   6.202   5.795  0.8972 -0.0390 -0.2953
  483MOL0     H63712   2.443   6.267   5.790 -0.0190 -1.4841  0.3327
  483MOL0     H63713   2.406   6.408   5.695  1.2768 -1.8839 -0.3501
  483MOL0     H63714   2.344   6.114   5.626  0.5689  0.2849 -1.0007
  483MOL0     H63715   2.276   6.251   5.532  0.6702 -0.3145 -0.0061
  483MOL0     H63716   2.492   6.312   5.455  0.5221  1.7239  2.1254
  483MOL0     H63717   2.462   6.137   5.422 -0.4928 -0.2693  0.6894
  483MOL0     H63718   2.648   6.263   5.293  0.9176  0.5688 -1.0226
  483MOL0     H63719   2.866   6.305   5.190 -2.0204 -0.4278 -1.3107
  483MOL0     H63720   3.320   6.428   5.248  0.6877 -1.1462  2.6187
  483MOL0     H63721   3.516   6.440   5.102 -1.0687  0.5414 -0.2988
  483MOL0     H63722   3.805   6.140   5.196  2.4768  1.3183 -0.2391
  483MOL0     H63723   3.890   6.239   5.103  0.0977 -1.4672  2.4026
  483MOL0     H63724   3.777   5.989   4.995 -1.3912  0.7145 -2.6756
  483MOL0     H63725   3.953   6.030   5.036 -1.3354 -0.0695  1.5346
  483MOL0     H63726   3.939   6.216   4.872 -0.6273  0.2590  2.5529
  483MOL0     H63727   3.781   6.156   4.808 -0.5421 -0.2347  1.7679
  483MOL0     H63728   4.056   6.023   4.793 -0.4079  1.9137  0.4493
  483MOL0     H63729   3.912   5.932   4.756  1.7754 -0.9614  3.2272
  483MOL0     H63730   4.016   6.181   4.633  0.9011  0.0273  0.9663
  483MOL0     H63731   3.845   6.125   4.604 -0.5012 -0.0330  0.3027
  483MOL0     H63732   3.968   5.889   4.531 -1.0276  0.6472 -2.2931
  483MOL0     H63733   4.115   5.977   4.566  1.1215  0.2274 -3.5508
  483MOL0     H63734   3.928   6.087   4.341  1.1566 -0.0004 -2.1826
  483MOL0     H63735   4.101   6.090   4.359  0.7347 -0.8116 -0.7757
  483MOL0     H63736   3.923   5.845   4.298 -0.1722 -0.8271 -3.1103
  483MOL0     H63737   4.097   5.841   4.328 -1.2754 -0.8322  0.1588
  483MOL0     H63738   3.583   6.018   5.150  0.7492 -0.3199  0.7763
  483MOL0     H63739   3.393   6.002   5.315 -1.3116  0.1110 -1.2916
  483MOL0     H63740   3.064   6.206   5.563  1.0179  0.0100 -0.6025
  483MOL0     H63741   2.824   6.164   5.661 -3.1813  1.9768 -0.1173
  483MOL0     H63742   3.357   6.706   6.424 -1.3576  0.4559  0.2639
  483MOL0     H63743   3.582   6.782   6.324 -0.5865  0.9894  1.5589
  483MOL0     H63744   3.963   6.998   6.255 -0.2158  2.9164 -0.3526
  483MOL0     H63745   4.174   7.041   6.107  0.4633  0.9914 -3.0912
  483MOL0     H63746   4.135   6.885   5.703 -1.2191 -1.5779  1.4051
  483MOL0     H63747   4.242   6.813   5.823  0.4397  1.3327  1.8869
  483MOL0     H63748   4.345   6.886   5.594 -1.4105 -0.5505  1.3438
  483MOL0     H63749   4.323   7.059   5.656 -0.8959  0.7124  0.4418
  483MOL0     H63750   4.552   6.910   5.687 -1.0209  0.7653 -0.1287
  483MOL0     H63751   4.461   6.881   5.842  0.5388  0.7362  1.4066
  483MOL0     H63752   4.548   7.150   5.725  0.2524  1.0721  1.8339
  483MOL0     H63753   4.460   7.136   5.876  0.1906  1.6103 -0.6067
  483MOL0     H63754   4.868   7.051   5.955 -0.4857  1.9325  1.3490
  483MOL0     H63755   3.957   7.009   5.766 -0.6831  2.5894  0.2725
  483MOL0     H63756   3.747   6.958   5.885 -0.4615  0.9204  1.3204
  484MOL0     O63757  10.048   6.126   0.078  0.1477 -0.4614  0.1979
  484MOL0     C63758  10.005   6.009   0.081 -0.4220  0.1307  0.1550
  484MOL0     O63759   9.878   5.976   0.120  0.5381 -0.4995 -0.0199
  484MOL0     C63760   9.791   6.060   0.185 -0.3843 -0.7172 -0.0987
  484MOL0     C63761   9.825   6.193   0.241 -0.0395  0.4401 -0.0303
  484MOL0     C63762   9.736   6.254   0.328 -0.6234  0.0701  0.5627
  484MOL0     C63763   9.606   6.211   0.338  0.4825 -0.1101  0.0486
  484MOL0     O63764   9.514   6.269   0.418 -0.0020  0.4928 -0.3328
  484MOL0     C63765   9.501   6.414   0.416 -0.2256 -1.2289  0.6141
  484MOL0     C63766   9.382   6.460   0.497  0.0010 -0.2143 -0.0757
  484MOL0     C63767   9.344   6.607   0.468  0.6939 -0.3420 -0.1218
  484MOL0     C63768   9.190   6.637   0.493 -0.3205 -0.2795 -0.3390
  484MOL0     C63769   9.162   6.798   0.492 -0.1350 -0.0525  0.1325
  484MOL0     C63770   9.017   6.831   0.475 -0.2941  0.3393 -0.5996
  484MOL0     C63771   8.924   6.802   0.590 -0.5397  0.4510 -0.1641
  484MOL0     C63772   8.892   6.926   0.669  0.3243  0.1690  0.2626
  484MOL0     N63773   8.765   6.911   0.753  0.3142  0.6186  0.5553
  484MOL0     C63774   8.753   6.858   0.876  0.2985 -0.0970  0.8003
  484MOL0     C63775   8.619   6.872   0.899 -0.5368  0.1540 -0.1261
  484MOL0     C63776   8.547   6.826   1.025 -0.0480  0.1411  0.4234
  484MOL0     C63777   8.393   6.803   1.018  0.6046  0.7296  0.3166
  484MOL0     C63778   8.321   6.931   1.020 -0.1869  0.8560 -0.2295
  484MOL0     C63779   8.178   6.911   1.005 -0.8416 -0.7993 -0.5207
  484MOL0     O63780   8.102   7.031   1.011  0.4184  0.2493  0.3480
  484MOL0     C63781   7.966   7.029   1.019  0.2832 -0.9966  0.1985
  484MOL0     C63782   7.900   7.149   1.030 -0.1096 -0.2551  0.8632
  484MOL0     C63783   7.770   7.166   1.062 -0.0891  0.6387 -0.5137
  484MOL0     C63784   7.689   7.047   1.065  0.0206 -0.0588 -0.2297
  484MOL0     C63785   7.547   7.050   1.083  0.3965 -0.5851 -0.7085
  484MOL0     O63786   7.490   7.176   1.118  0.2302  0.5515 -0.8216
  484MOL0     C63787   7.355   7.162   1.151 -0.7454  0.1994 -0.0739
  484MOL0     C63788   7.323   7.082   1.264 -0.6763 -0.2905  0.4581
  484MOL0     C63789   7.185   7.062   1.297 -0.8971 -0.4923 -1.5052
  484MOL0     C63790   7.082   7.114   1.212 -1.0074 -0.4594 -0.1225
  484MOL0     O63791   6.955   7.083   1.256  0.0260 -0.3347 -0.1397
  484MOL0     C63792   6.841   7.164   1.208  0.0263  0.1349 -0.2896
  484MOL0     C63793   6.728   7.124   1.315  0.5045 -0.2823  0.0050
  484MOL0     C63794   6.606   7.203   1.268  0.3682  0.5178 -0.2743
  484MOL0     C63795   6.484   7.181   1.356  0.4410 -0.3793 -0.1143
  484MOL0     C63796   6.504   7.228   1.505  0.7329  0.0393 -0.2617
  484MOL0     C63797   6.378   7.213   1.583 -0.2139 -0.8961 -0.0280
  484MOL0     C63798   6.400   7.264   1.737  0.4310 -0.7155  0.4581
  484MOL0     C63799   6.266   7.279   1.810 -0.4025 -0.4424  0.3675
  484MOL0    Cl63800   6.306   7.328   1.980 -0.4351  0.2888 -0.3898
  484MOL0     C63801   7.118   7.196   1.104 -0.1766  0.4092 -1.3026
  484MOL0     C63802   7.253   7.220   1.071  0.4273 -0.1490 -0.7316
  484MOL0     O63803   7.485   6.947   1.063 -0.9314 -0.2655  0.4487
  484MOL0     C63804   7.750   6.924   1.029  0.3918  0.6893  0.6811
  484MOL0     C63805   7.884   6.919   1.007  0.4642 -0.3961  0.1265
  484MOL0     N63806   8.562   6.938   0.800 -0.9221  0.1549 -0.1814
  484MOL0     N63807   8.640   6.953   0.710 -0.3900  0.1420 -0.1060
  484MOL0     C63808   9.564   6.097   0.264  0.0173  0.4492 -0.9075
  484MOL0     C63809   9.652   6.018   0.194 -0.0061  0.9183 -0.0585
  484MOL0     C63810  10.105   5.915   0.020  0.1988 -0.1804  0.1753
  484MOL0     C63811  10.085   5.810  -0.075 -0.7159 -0.6184 -0.0226
  484MOL0     C63812  10.189   5.729  -0.135  0.5385  0.2110 -0.9391
  484MOL0     C63813  10.316   5.760  -0.102  0.0335  0.2114 -0.5236
  484MOL0     O63814  10.406   5.668  -0.152 -0.5208  0.1667 -0.1834
  484MOL0     C63815  10.447   5.576  -0.055 -0.0761 -0.5689 -0.2843
  484MOL0     C63816  10.572   5.607   0.019  0.3658 -1.3442  0.2401
  484MOL0     C63817  10.684   5.637  -0.078 -1.0104 -0.2992 -0.0895
  484MOL0     C63818  10.808   5.687   0.008  1.0551 -0.4811  0.1575
  484MOL0     C63819  10.787   5.819   0.048  0.1712  0.3615  0.4014
  484MOL0     C63820  10.771   5.932   0.082 -0.5554 -0.2291 -0.2481
  484MOL0     C63821  10.341   5.868  -0.010  0.5103 -0.0516 -0.2451
  484MOL0     C63822  10.240   5.947   0.053 -0.5514  0.9421 -1.1627
  484MOL0     H63823   9.920   6.245   0.233 -1.5241  3.5489  0.8769
  484MOL0     H63824   9.771   6.350   0.366  2.3378 -0.4059 -0.6637
  484MOL0     H63825   9.484   6.439   0.311  2.0742  2.4632  0.9474
  484MOL0     H63826   9.594   6.467   0.439 -2.5530  2.7734  1.8015
  484MOL0     H63827   9.387   6.455   0.606 -2.0230  1.8345  0.1915
  484MOL0     H63828   9.304   6.390   0.466  0.0819 -0.2904 -0.1072
  484MOL0     H63829   9.366   6.634   0.365 -0.5850  0.4900 -0.1922
  484MOL0     H63830   9.396   6.679   0.531  0.8852 -0.6361  0.0630
  484MOL0     H63831   9.138   6.595   0.406  3.0345 -2.5637 -1.4717
  484MOL0     H63832   9.159   6.577   0.579  0.9726 -1.1007 -0.4085
  484MOL0     H63833   9.218   6.849   0.412  0.7013 -1.1342 -0.0027
  484MOL0     H63834   9.201   6.837   0.587 -1.0129 -1.3465  1.0544
  484MOL0     H63835   8.975   6.779   0.389  1.1514  0.8347 -1.6473
  484MOL0     H63836   9.018   6.940   0.459  5.0685  0.5292 -0.7933
  484MOL0     H63837   8.833   6.774   0.537 -0.5294  0.2798 -0.0911
  484MOL0     H63838   8.960   6.721   0.654  1.4121  0.1147 -1.6042
  484MOL0     H63839   8.879   7.008   0.599 -2.0422  0.5072  1.0000
  484MOL0     H63840   8.970   6.956   0.739 -1.1533  0.9685  1.6315
  484MOL0     H63841   8.817   6.804   0.944 -0.2671 -0.1931  1.2714
  484MOL0     H63842   8.568   6.911   1.090  1.8542  0.8157 -0.9503
  484MOL0     H63843   8.590   6.736   1.069 -2.0110 -1.0551 -0.0109
  484MOL0     H63844   8.364   6.738   1.101 -3.0940 -0.9988 -2.0461
  484MOL0     H63845   8.365   6.753   0.925 -0.5009  3.2975 -0.8110
  484MOL0     H63846   8.336   6.986   1.113 -1.4159  0.4017  0.2477
  484MOL0     H63847   8.353   7.002   0.942  0.2589 -0.8044 -1.6208
  484MOL0     H63848   8.129   6.849   1.081 -0.6337  0.1862  0.4310
  484MOL0     H63849   8.155   6.861   0.910 -0.9339  0.8000 -1.3749
  484MOL0     H63850   7.970   7.232   1.026 -0.0901 -0.2249  1.7021
  484MOL0     H63851   7.735   7.266   1.082 -3.8148 -0.3028 -1.6149
  484MOL0     H63852   7.403   7.022   1.308 -1.1382 -1.5780 -0.3844
  484MOL0     H63853   7.141   7.001   1.375 -2.1589 -0.4705 -2.1866
  484MOL0     H63854   6.805   7.131   1.110 -2.5161 -2.2844  1.2786
  484MOL0     H63855   6.870   7.269   1.209  0.5647 -0.0108 -0.2237
  484MOL0     H63856   6.762   7.153   1.415  1.0650 -0.1729 -0.2098
  484MOL0     H63857   6.718   7.016   1.322 -0.8878 -0.1281  0.7705
  484MOL0     H63858   6.579   7.189   1.163 -0.4323 -0.3950  0.0431
  484MOL0     H63859   6.626   7.311   1.263 -1.4436  0.8301 -1.9081
  484MOL0     H63860   6.413   7.247   1.307  1.5094  0.0921 -1.0560
  484MOL0     H63861   6.448   7.078   1.347 -0.7318 -0.1065  1.0809
  484MOL0     H63862   6.528   7.334   1.491  1.3062 -0.2548 -1.6490
  484MOL0     H63863   6.584   7.161   1.537 -0.6883 -1.0020  1.2325
  484MOL0     H63864   6.337   7.112   1.589  0.2942 -1.0227  1.6903
  484MOL0     H63865   6.308   7.285   1.537  0.3933  0.3861  1.0066
  484MOL0     H63866   6.460   7.190   1.789  0.7474  0.9187  2.5309
  484MOL0     H63867   6.453   7.357   1.758 -2.3769  0.5662  2.4219
  484MOL0     H63868   6.197   7.194   1.807  1.0353 -1.6460 -0.1670
  484MOL0     H63869   6.204   7.351   1.756  0.5152  0.1849  0.1281
  484MOL0     H63870   7.043   7.252   1.049  0.1861 -0.5177 -2.8146
  484MOL0     H63871   7.271   7.292   0.992 -1.4283  0.9543 -0.2284
  484MOL0     H63872   7.700   6.830   1.007 -1.0580  1.7129 -0.6391
  484MOL0     H63873   7.922   6.823   0.974  2.1111  0.2306  0.1024
  484MOL0     H63874   9.462   6.070   0.288  0.5584  1.2935  2.9742
  484MOL0     H63875   9.608   5.928   0.152 -1.4829  2.1644 -1.3165
  484MOL0     H63876   9.983   5.794  -0.107 -0.1159 -0.2093 -2.2846
  484MOL0     H63877  10.156   5.653  -0.205 -0.2405  0.5843 -0.9773
  484MOL0     H63878  10.469   5.482  -0.107 -1.7210 -2.6137  2.4693
  484MOL0     H63879  10.365   5.560   0.015  0.8842  2.2729  1.6221
  484MOL0     H63880  10.546   5.702   0.068 -1.0442 -1.0998 -0.8988
  484MOL0     H63881  10.602   5.526   0.085 -0.6709 -2.6965 -0.8919
  484MOL0     H63882  10.655   5.708  -0.157  2.4465 -0.9411 -2.1636
  484MOL0     H63883  10.714   5.552  -0.140 -1.3664 -0.1513 -0.4668
  484MOL0     H63884  10.811   5.629   0.101 -1.9807  0.7474  1.1468
  484MOL0     H63885  10.899   5.676  -0.051  0.3733 -1.2620 -0.7940
  484MOL0     H63886  10.762   6.037   0.102  1.8549  0.0668 -0.3614
  484MOL0     H63887  10.445   5.894   0.009  0.5433  0.2229 -0.7820
  484MOL0     H63888  10.280   6.022   0.120  0.0963 -0.3741 -0.0054
  485MOL0     O63889   3.037   1.348   0.236 -0.0023  0.3659 -0.0382
  485MOL0     C63890   3.088   1.261   0.311  0.4272 -0.5661  0.2897
  485MOL0     O63891   3.023   1.172   0.402 -0.5313  0.3784  0.8405
  485MOL0     C63892   2.884   1.147   0.393 -0.0692  1.0842  0.2384
  485MOL0     C63893   2.800   1.176   0.286 -0.7109  0.6753 -0.0213
  485MOL0     C63894   2.665   1.139   0.288  0.5270  0.1003 -0.6087
  485MOL0     C63895   2.609   1.086   0.399 -0.8293 -0.6028 -0.3370
  485MOL0     O63896   2.479   1.064   0.402  0.6390 -0.6286  0.3204
  485MOL0     C63897   2.436   0.940   0.354 -0.4793  0.2748 -0.5384
  485MOL0     C63898   2.294   0.900   0.386  0.0774  0.0880  0.4786
  485MOL0     C63899   2.187   0.985   0.305  0.5878  0.2999  0.0749
  485MOL0     C63900   2.049   0.935   0.343  1.2116  0.4354 -0.6695
  485MOL0     C63901   1.943   1.035   0.287 -0.4143  0.0252  0.3208
  485MOL0     C63902   1.933   1.051   0.135 -0.0826  0.0198  0.0378
  485MOL0     C63903   1.839   1.153   0.097  0.3316 -1.0104 -0.3647
  485MOL0     C63904   1.809   1.166  -0.053 -0.1090  0.3657  0.0820
  485MOL0     N63905   1.724   1.284  -0.090 -0.5337  0.0955 -0.3715
  485MOL0     C63906   1.591   1.306  -0.064  0.6199 -0.6479 -0.7249
  485MOL0     C63907   1.558   1.410  -0.138  0.6572 -0.4449 -0.1999
  485MOL0     C63908   1.423   1.476  -0.130  0.0200  0.7901 -0.3461
  485MOL0     C63909   1.386   1.525   0.020  0.5949 -0.0248  0.1790
  485MOL0     C63910   1.481   1.625   0.082 -0.5491 -0.1436 -0.4099
  485MOL0     C63911   1.602   1.561   0.160  0.1272  0.3137  0.6263
  485MOL0     O63912   1.622   1.627   0.282  0.1721 -0.6301  0.3159
  485MOL0     C63913   1.716   1.569   0.366  0.1490  0.3977 -0.1063
  485MOL0     C63914   1.738   1.430   0.381  0.3690 -0.4703  0.2104
  485MOL0     C63915   1.845   1.379   0.453  0.3069  0.1440  0.0033
  485MOL0     C63916   1.922   1.463   0.533 -0.2216  0.2591 -0.0218
  485MOL0     C63917   2.034   1.412   0.613  0.7878  0.6650 -0.1763
  485MOL0     O63918   2.063   1.271   0.597 -0.3898  0.3627 -0.4426
  485MOL0     C63919   2.192   1.237   0.653  1.3744 -0.4641 -0.1910
  485MOL0     C63920   2.201   1.143   0.756  0.4303  0.4479 -0.0817
  485MOL0     C63921   2.325   1.109   0.815  0.0760  0.0627  1.1905
  485MOL0     C63922   2.447   1.169   0.778  0.3273  0.4588 -0.2583
  485MOL0     O63923   2.559   1.135   0.845  0.2654 -0.4633 -0.3502
  485MOL0     C63924   2.679   1.208   0.820 -0.2401 -0.1476 -0.0901
  485MOL0     C63925   2.792   1.158   0.902 -1.0143  0.7505  0.2020
  485MOL0     C63926   2.903   1.265   0.919 -0.3322 -0.2156 -0.3618
  485MOL0     C63927   3.021   1.202   0.994  0.6551  0.1161 -0.2506
  485MOL0     C63928   3.140   1.301   1.023  0.1570 -0.3078  0.0996
  485MOL0     C63929   3.268   1.233   1.070 -0.2913 -0.0824  0.3230
  485MOL0     C63930   3.390   1.324   1.059  0.6629  0.0384  0.4316
  485MOL0     C63931   3.409   1.409   1.183 -0.1152  0.0908  0.0440
  485MOL0    Cl63932   3.548   1.336   1.271  0.2643  0.2267 -0.6447
  485MOL0     C63933   2.436   1.257   0.671  0.3170  0.1459  0.5433
  485MOL0     C63934   2.307   1.300   0.614  0.4259 -0.6693 -0.8360
  485MOL0     O63935   2.087   1.486   0.690 -0.2032 -1.0792 -0.1061
  485MOL0     C63936   1.897   1.606   0.523  0.7733  0.4937 -0.4637
  485MOL0     C63937   1.791   1.653   0.441 -0.4301  0.3799 -0.4262
  485MOL0     N63938   1.668   1.447  -0.213  0.2740 -0.1447  0.4588
  485MOL0     N63939   1.769   1.377  -0.176 -0.1715  0.2099 -0.2797
  485MOL0     C63940   2.698   1.040   0.500 -0.3735 -0.5318 -1.3433
  485MOL0     C63941   2.830   1.069   0.500 -0.3823  0.3676 -0.0781
  485MOL0     C63942   3.232   1.231   0.292  0.1327  0.1764  0.2756
  485MOL0     C63943   3.286   1.112   0.350 -0.6748 -0.1877 -0.2674
  485MOL0     C63944   3.425   1.087   0.360  0.3961 -0.4089 -0.2150
  485MOL0     C63945   3.515   1.186   0.313  0.6102 -0.3495 -0.6176
  485MOL0     O63946   3.643   1.143   0.316  0.7389  0.0020  0.1730
  485MOL0     C63947   3.744   1.212   0.246  0.3263 -0.2542 -0.4081
  485MOL0     C63948   3.868   1.123   0.239  0.1508  0.7408 -0.2307
  485MOL0     C63949   3.853   1.002   0.139  1.4144 -0.5242 -0.0750
  485MOL0     C63950   3.971   0.910   0.121  0.5269 -0.5734 -0.2693
  485MOL0     C63951   3.971   0.851  -0.011  0.8943 -0.6975 -0.3184
  485MOL0     C63952   3.974   0.804  -0.120  0.2467  0.0077  1.3557
  485MOL0     C63953   3.467   1.311   0.262 -0.2419 -0.3824 -0.0204
  485MOL0     C63954   3.328   1.335   0.251 -0.0403  0.4421  0.1894
  485MOL0     H63955   2.848   1.222   0.200 -2.6976  0.5860 -1.2419
  485MOL0     H63956   2.608   1.173   0.202 -0.5001  2.4872  0.8960
  485MOL0     H63957   2.489   0.862   0.410  0.6672  0.9191 -0.6957
  485MOL0     H63958   2.450   0.923   0.247 -0.7789  1.0398 -0.7075
  485MOL0     H63959   2.287   0.910   0.495 -0.3431  1.1628  0.3669
  485MOL0     H63960   2.285   0.795   0.358  1.7496  0.0322  0.0597
  485MOL0     H63961   2.208   0.966   0.199  2.2371 -0.1810  0.4516
  485MOL0     H63962   2.194   1.092   0.324 -2.1524  0.9127 -1.7838
  485MOL0     H63963   2.031   0.840   0.293 -2.1888  0.9109 -0.6004
  485MOL0     H63964   2.018   0.934   0.448 -2.1047  0.0836 -1.5407
  485MOL0     H63965   1.952   1.130   0.341 -0.6025  0.8668 -1.0691
  485MOL0     H63966   1.840   0.999   0.296 -1.1171  1.3980 -1.5007
  485MOL0     H63967   1.890   0.962   0.087 -0.4649 -1.0919  2.2947
  485MOL0     H63968   2.031   1.070   0.090 -0.4511 -0.0692 -0.8297
  485MOL0     H63969   1.740   1.143   0.142  0.4609 -1.2239 -0.1272
  485MOL0     H63970   1.868   1.255   0.126 -1.8492 -0.5907  0.5542
  485MOL0     H63971   1.755   1.078  -0.091 -0.6442  0.7978 -0.1756
  485MOL0     H63972   1.906   1.168  -0.104 -0.4112  3.9322 -0.6063
  485MOL0     H63973   1.529   1.246   0.003  0.6620  0.3766  0.2620
  485MOL0     H63974   1.347   1.400  -0.151 -0.6199  0.1578  3.5264
  485MOL0     H63975   1.432   1.555  -0.205  0.8411 -0.6167 -1.8010
  485MOL0     H63976   1.373   1.442   0.089  1.6372  0.3382  0.8259
  485MOL0     H63977   1.290   1.575   0.003 -0.5498 -3.0161 -3.6041
  485MOL0     H63978   1.527   1.695   0.011  0.9820 -2.2350 -1.5869
  485MOL0     H63979   1.417   1.692   0.141 -0.5482  2.7502 -3.3778
  485MOL0     H63980   1.694   1.542   0.104 -0.9925 -1.0797 -0.8211
  485MOL0     H63981   1.562   1.466   0.194  0.3993  0.5044  1.5002
  485MOL0     H63982   1.673   1.372   0.317 -1.8607 -0.0174  1.9500
  485MOL0     H63983   1.881   1.277   0.446  2.8811  0.9092  1.0136
  485MOL0     H63984   2.107   1.093   0.777  0.6894  0.8236  2.2256
  485MOL0     H63985   2.336   1.033   0.892  0.9219  0.8691  1.8930
  485MOL0     H63986   2.651   1.307   0.855 -1.2822 -0.6375  0.5266
  485MOL0     H63987   2.704   1.205   0.714  1.4108 -1.0478  0.2795
  485MOL0     H63988   2.825   1.066   0.852 -2.0318  0.2212  0.4706
  485MOL0     H63989   2.762   1.135   1.005  1.8863  0.8588  1.1450
  485MOL0     H63990   2.863   1.360   0.958  0.9557  1.1043 -2.0843
  485MOL0     H63991   2.928   1.290   0.816 -0.2320 -3.1991 -1.1333
  485MOL0     H63992   2.983   1.161   1.088 -1.3592 -0.6038 -1.3007
  485MOL0     H63993   3.055   1.115   0.938 -0.3709 -1.4871  1.4947
  485MOL0     H63994   3.104   1.381   1.088 -0.2994 -0.0663 -0.4443
  485MOL0     H63995   3.149   1.352   0.927 -2.9679 -0.3417 -0.3170
  485MOL0     H63996   3.285   1.148   1.002  4.0471 -0.1293  1.1975
  485MOL0     H63997   3.247   1.191   1.168 -3.5040 -2.4486 -1.1927
  485MOL0     H63998   3.472   1.252   1.062  1.0926  0.5472  1.0964
  485MOL0     H63999   3.392   1.383   0.966 -1.4344 -0.1345  0.2166
  485MOL0     H64000   3.315   1.411   1.238 -0.0687 -0.7857  0.1684
  485MOL0     H64001   3.442   1.509   1.152 -1.2873  0.1856 -0.9683
  485MOL0     H64002   2.521   1.313   0.636 -1.3386  1.9410 -0.8042
  485MOL0     H64003   2.305   1.383   0.543 -1.0353 -0.3260 -0.4223
  485MOL0     H64004   1.954   1.679   0.579  1.5591  1.1740 -2.1057
  485MOL0     H64005   1.782   1.761   0.431 -4.3969  0.0946 -1.3555
  485MOL0     H64006   2.661   0.996   0.592 -1.1129  0.1866 -1.2867
  485MOL0     H64007   2.904   1.032   0.570 -0.3229  1.2619  0.3432
  485MOL0     H64008   3.213   1.045   0.395  0.4732  0.3874  2.6376
  485MOL0     H64009   3.465   0.989   0.387 -0.7614 -0.6826  0.5950
  485MOL0     H64010   3.764   1.312   0.285  0.3150  0.3504 -1.8878
  485MOL0     H64011   3.714   1.218   0.141 -1.6222 -0.3821  0.1129
  485MOL0     H64012   3.961   1.179   0.225  0.3267  0.4985 -0.0258
  485MOL0     H64013   3.873   1.081   0.340  1.7296 -0.3854 -0.7452
  485MOL0     H64014   3.822   1.034   0.039 -0.1702  0.7853  0.7732
  485MOL0     H64015   3.772   0.935   0.170 -1.6020  0.6917 -4.4288
  485MOL0     H64016   4.058   0.976   0.133  0.7617 -0.9106 -0.0756
  485MOL0     H64017   3.966   0.832   0.197  2.0387 -1.1087 -0.6718
  485MOL0     H64018   3.976   0.766  -0.220  0.4524  2.8819  0.1792
  485MOL0     H64019   3.536   1.387   0.225  2.2289 -2.0961  0.7684
  485MOL0     H64020   3.281   1.427   0.218 -1.5525 -0.2557  0.3107
  486MOL0     O64021   8.488   9.973   0.447  0.0681 -0.0404  0.4468
  486MOL0     C64022   8.384  10.031   0.444  0.0002  0.1708  0.0574
  486MOL0     O64023   8.314  10.066   0.552  0.2320 -0.3606 -0.1550
  486MOL0     C64024   8.354  10.050   0.690 -0.1793 -0.1013 -0.2774
  486MOL0     C64025   8.428   9.948   0.742 -0.0756 -0.2547 -0.1451
  486MOL0     C64026   8.474   9.936   0.875  0.3636 -0.6566 -0.2888
  486MOL0     C64027   8.453  10.042   0.961  0.7291 -0.3820 -0.2952
  486MOL0     O64028   8.487  10.040   1.093  0.5494 -0.0046  0.2809
  486MOL0     C64029   8.595   9.967   1.134 -0.9108 -0.5868 -0.2275
  486MOL0     C64030   8.641  10.014   1.271  0.2561  0.6776 -0.6595
  486MOL0     C64031   8.757   9.906   1.311  0.3019  1.0394  0.6106
  486MOL0     C64032   8.845   9.966   1.433 -0.1715 -0.0159  0.1883
  486MOL0     C64033   8.787   9.915   1.573  0.9376 -0.0519 -0.7745
  486MOL0     C64034   8.679  10.016   1.625  0.1589  0.2090  0.7279
  486MOL0     C64035   8.592   9.986   1.752  0.1814 -0.3237 -0.4062
  486MOL0     C64036   8.497  10.110   1.786 -0.7716 -0.5348 -0.8846
  486MOL0     N64037   8.396  10.071   1.877  0.2802  0.7873  0.1019
  486MOL0     C64038   8.368  10.130   1.992 -1.3219 -0.3853 -0.3177
  486MOL0     C64039   8.244  10.086   2.033  0.0495  0.3663  0.2629
  486MOL0     C64040   8.178  10.118   2.157  0.3903  0.0694  0.1082
  486MOL0     C64041   8.029  10.175   2.143  0.3743  0.2163 -0.9404
  486MOL0     C64042   7.974  10.199   2.291  0.5415 -0.1993  0.0245
  486MOL0     C64043   7.847  10.288   2.290  0.8132 -0.8436 -0.0396
  486MOL0     O64044   7.836  10.353   2.419  0.7042 -0.0174 -0.1200
  486MOL0     C64045   7.712  10.382   2.465 -0.0132 -0.2328 -0.1325
  486MOL0     C64046   7.605  10.402   2.372  1.1510  0.3712  0.2959
  486MOL0     C64047   7.477  10.433   2.413  0.0546 -0.2023  0.1817
  486MOL0     C64048   7.446  10.430   2.552  0.7524 -0.8997  0.2713
  486MOL0     C64049   7.307  10.457   2.601 -0.8006  0.8182  0.4843
  486MOL0     O64050   7.206  10.460   2.510 -0.9328 -0.0754 -0.5961
  486MOL0     C64051   7.083  10.495   2.553 -0.2642 -0.0749  1.1448
  486MOL0     C64052   6.977  10.421   2.496  0.0815 -0.7265 -0.4471
  486MOL0     C64053   6.842  10.451   2.525  0.1377  0.3671 -0.3860
  486MOL0     C64054   6.810  10.560   2.598 -0.5472  0.3879  0.5234
  486MOL0     O64055   6.682  10.582   2.634  0.2380  0.1261  0.4664
  486MOL0     C64056   6.581  10.580   2.530 -0.1475  0.7269 -0.6410
  486MOL0     C64057   6.452  10.650   2.572  0.0743 -0.2921  0.1897
  486MOL0     C64058   6.327  10.561   2.550 -0.0127  0.6630  0.1927
  486MOL0     C64059   6.299  10.552   2.398  0.1703 -0.6040  0.3044
  486MOL0     C64060   6.151  10.508   2.365  0.1178  0.5838 -0.2807
  486MOL0     C64061   6.125  10.361   2.419  0.4467  0.2714  0.6279
  486MOL0     C64062   5.983  10.325   2.414 -0.7578  0.4938  0.6554
  486MOL0     C64063   5.910  10.374   2.285  0.1027  0.4926 -0.4434
  486MOL0    Cl64064   5.762  10.283   2.274 -0.1756 -0.2301  0.3934
  486MOL0     C64065   6.913  10.631   2.650  0.2139 -0.1000 -0.4133
  486MOL0     C64066   7.045  10.605   2.636  0.1276  1.0145  0.3881
  486MOL0     O64067   7.297  10.489   2.718 -0.4445 -0.2130  0.3475
  486MOL0     C64068   7.547  10.413   2.640 -0.3128  0.4512 -0.0195
  486MOL0     C64069   7.677  10.397   2.601 -0.0095 -0.0480 -0.6043
  486MOL0     N64070   8.201   9.994   1.937 -0.3092 -0.0053 -0.0928
  486MOL0     N64071   8.292   9.993   1.843 -0.2256  0.2405 -0.0112
  486MOL0     C64072   8.375  10.145   0.914  0.3064  0.2036 -0.0370
  486MOL0     C64073   8.332  10.154   0.781  0.5785  0.8783 -0.2500
  486MOL0     C64074   8.311  10.062   0.320 -0.5504 -0.7664  0.6265
  486MOL0     C64075   8.358  10.013   0.191 -0.2934 -0.0130  0.0859
  486MOL0     C64076   8.288  10.048   0.066  0.5639  0.7556  0.1776
  486MOL0     C64077   8.173  10.125   0.075 -0.1442 -0.7988 -0.1366
  486MOL0     O64078   8.116  10.172  -0.040 -0.5712 -0.0220 -0.7303
  486MOL0     C64079   8.125  10.314  -0.056 -0.5128 -0.2594  0.0487
  486MOL0     C64080   8.227  10.340  -0.164 -1.0281  0.6331  0.4423
  486MOL0     C64081   8.249  10.491  -0.181  0.0751 -0.6266 -0.8136
  486MOL0     C64082   8.133  10.563  -0.255  0.6556  0.0516  0.1403
  486MOL0     C64083   8.040  10.628  -0.164  0.0686  0.5428  0.7329
  486MOL0     C64084   7.955  10.669  -0.089  0.3659  0.3186 -0.0411
  486MOL0     C64085   8.126  10.166   0.198 -0.1571 -0.5479 -0.5131
  486MOL0     C64086   8.192  10.141   0.322 -1.4826 -0.2518  0.5135
  486MOL0     H64087   8.441   9.861   0.678 -0.9396 -0.9469  0.5796
  486MOL0     H64088   8.523   9.849   0.917  0.5262 -0.4121  0.0362
  486MOL0     H64089   8.664   9.988   1.052 -1.4876  2.4576 -0.0559
  486MOL0     H64090   8.579   9.860   1.149  2.7343 -0.9489  2.3024
  486MOL0     H64091   8.554  10.010   1.336  0.6258  2.2895 -0.0169
  486MOL0     H64092   8.689  10.112   1.271 -0.3014  0.9677  0.3924
  486MOL0     H64093   8.827   9.889   1.229  2.4381  2.6823  1.9712
  486MOL0     H64094   8.699   9.817   1.337  0.3495  0.5095 -0.9778
  486MOL0     H64095   8.942   9.916   1.427  0.0407  0.1801  1.7079
  486MOL0     H64096   8.859  10.075   1.436 -1.5130  0.1496  1.9853
  486MOL0     H64097   8.866   9.919   1.648 -0.7333  1.0922  1.0046
  486MOL0     H64098   8.747   9.813   1.568 -3.8713  1.3607  2.3681
  486MOL0     H64099   8.607  10.042   1.547 -2.0897  0.4239  2.7533
  486MOL0     H64100   8.745  10.099   1.652 -0.0923  0.9702 -0.9182
  486MOL0     H64101   8.538   9.891   1.744  0.2653 -0.4544  0.4351
  486MOL0     H64102   8.660   9.988   1.838 -1.0248  1.8375  0.5909
  486MOL0     H64103   8.455  10.158   1.698 -1.6410  1.3456  0.4855
  486MOL0     H64104   8.552  10.187   1.840 -2.6535  0.2217  0.0646
  486MOL0     H64105   8.441  10.190   2.046 -0.6740 -1.2382 -0.2256
  486MOL0     H64106   8.241  10.189   2.210  0.2842  2.1404 -2.3533
  486MOL0     H64107   8.169  10.028   2.219  2.3442 -1.6646 -1.9353
  486MOL0     H64108   7.965  10.107   2.087  2.9601 -0.2990 -3.5555
  486MOL0     H64109   8.023  10.265   2.080  1.8178  0.1243 -1.2523
  486MOL0     H64110   7.943  10.101   2.329  0.4306  0.1978  0.9826
  486MOL0     H64111   8.053  10.249   2.347  0.3674  3.5062 -2.5905
  486MOL0     H64112   7.759  10.225   2.277  1.7621 -2.2185 -0.0124
  486MOL0     H64113   7.850  10.364   2.211  3.4947 -0.8782 -0.0654
  486MOL0     H64114   7.617  10.411   2.264 -0.3771  2.7308  0.2424
  486MOL0     H64115   7.395  10.450   2.345  0.8796 -0.6792 -0.9641
  486MOL0     H64116   6.998  10.335   2.433 -0.1860 -0.0706 -1.4547
  486MOL0     H64117   6.760  10.382   2.505  1.4300 -1.5405  0.6130
  486MOL0     H64118   6.548  10.476   2.521  0.2411  0.5686 -0.2667
  486MOL0     H64119   6.627  10.620   2.439 -1.1620 -0.5306 -1.7562
  486MOL0     H64120   6.441  10.750   2.530 -2.1689  0.3691  2.1238
  486MOL0     H64121   6.445  10.667   2.680  0.5909  1.3862 -0.0127
  486MOL0     H64122   6.235  10.604   2.589 -0.6099 -1.3455  1.1537
  486MOL0     H64123   6.338  10.467   2.605 -0.8814  0.4175 -0.0330
  486MOL0     H64124   6.320  10.650   2.355  0.0919 -1.0896 -0.8814
  486MOL0     H64125   6.370  10.483   2.352 -1.8131 -2.1054 -0.6951
  486MOL0     H64126   6.133  10.516   2.257 -0.3505 -1.0742 -0.3534
  486MOL0     H64127   6.076  10.575   2.409 -0.5715 -1.0854  1.2456
  486MOL0     H64128   6.157  10.353   2.523  3.5173 -0.5487 -0.2580
  486MOL0     H64129   6.178  10.278   2.369  2.5574 -0.3856  3.6684
  486MOL0     H64130   5.981  10.216   2.404 -1.0472  0.5016  0.6216
  486MOL0     H64131   5.927  10.356   2.503 -0.6716  2.2273  0.1534
  486MOL0     H64132   5.967  10.344   2.197  0.3482  0.2851 -0.2154
  486MOL0     H64133   5.903  10.483   2.285 -0.0371  0.5439  2.2833
  486MOL0     H64134   6.891  10.716   2.714 -1.2083  0.0115 -1.0147
  486MOL0     H64135   7.127  10.666   2.669  1.2835 -0.3521  0.1614
  486MOL0     H64136   7.530  10.431   2.746 -0.2941  2.1126 -0.2804
  486MOL0     H64137   7.768  10.412   2.659  0.9488  0.8910 -2.2934
  486MOL0     H64138   8.354  10.225   0.983  0.3677  0.5753 -0.4470
  486MOL0     H64139   8.278  10.247   0.762 -2.6574 -0.3837  1.9662
  486MOL0     H64140   8.449   9.953   0.191 -0.7089 -0.6660  1.5036
  486MOL0     H64141   8.322  10.019  -0.033 -1.9232  0.4470 -0.6451
  486MOL0     H64142   8.151  10.368   0.035  0.2250  0.1036 -0.3629
  486MOL0     H64143   8.028  10.352  -0.089  0.4328  1.6211 -0.7505
  486MOL0     H64144   8.317  10.302  -0.115  0.4826  2.6369 -0.6160
  486MOL0     H64145   8.210  10.294  -0.261 -2.4146 -2.2724  1.9417
  486MOL0     H64146   8.341  10.499  -0.240 -1.2248  0.5419 -2.8008
  486MOL0     H64147   8.272  10.547  -0.089 -3.0677  1.5057 -1.1865
  486MOL0     H64148   8.171  10.633  -0.329 -0.5369  0.1913 -0.3598
  486MOL0     H64149   8.070  10.488  -0.304 -1.1464 -0.4735  2.9995
  486MOL0     H64150   7.875  10.699  -0.024 -0.3308  0.8148 -1.1082
  486MOL0     H64151   8.036  10.225   0.211  0.5489  0.3142  0.6908
  486MOL0     H64152   8.147  10.174   0.414 -2.1452 -1.6222  0.6992
  487MOL0     O64153   7.906   1.437   6.411  0.0881 -0.4571 -0.6402
  487MOL0     C64154   7.942   1.554   6.436 -0.5636  0.7408  0.6303
  487MOL0     O64155   7.874   1.638   6.513  0.2784 -0.4507 -0.1683
  487MOL0     C64156   7.741   1.611   6.549 -0.0945 -0.4102 -0.7191
  487MOL0     C64157   7.658   1.721   6.567  1.2442  0.2085  0.5176
  487MOL0     C64158   7.525   1.708   6.615 -0.0479  0.5988 -0.3061
  487MOL0     C64159   7.477   1.588   6.663  0.3707  0.2458 -0.1827
  487MOL0     O64160   7.358   1.558   6.730  0.8609 -0.8662  0.2589
  487MOL0     C64161   7.235   1.629   6.698 -0.0605 -0.2691 -0.3120
  487MOL0     C64162   7.126   1.558   6.775  0.3285 -0.2803 -0.2616
  487MOL0     C64163   6.985   1.615   6.743 -0.2795  0.8687 -0.3699
  487MOL0     C64164   6.880   1.552   6.840 -0.4639  1.0013  0.2649
  487MOL0     C64165   6.731   1.558   6.790  0.0288  0.3667  0.9204
  487MOL0     C64166   6.627   1.489   6.878 -0.1941  0.6182  0.1455
  487MOL0     C64167   6.484   1.540   6.848 -0.2379 -0.4476 -0.2550
  487MOL0     C64168   6.436   1.668   6.932 -0.5832  0.6742  0.5928
  487MOL0     N64169   6.289   1.697   6.925 -0.2928  0.5141  0.6024
  487MOL0     C64170   6.222   1.813   6.956  0.6410 -0.1181  0.6732
  487MOL0     C64171   6.106   1.811   6.884 -0.0393 -0.3874 -0.8675
  487MOL0     C64172   6.005   1.922   6.879  0.2316 -0.0285  0.2558
  487MOL0     C64173   5.895   1.913   6.986 -0.4681 -0.2798  0.1364
  487MOL0     C64174   5.807   2.030   6.983  0.5152 -0.3705 -0.0059
  487MOL0     C64175   5.666   1.983   7.023  0.1689 -0.4449  0.4234
  487MOL0     O64176   5.662   1.944   7.160  0.4519 -0.8167 -0.5046
  487MOL0     C64177   5.545   1.965   7.224  0.3492 -0.0258  0.2928
  487MOL0     C64178   5.418   1.942   7.162 -0.5619 -0.1186  0.0989
  487MOL0     C64179   5.306   1.949   7.245  1.0044  0.5826  0.5544
  487MOL0     C64180   5.306   1.980   7.381 -0.1354 -0.7430  0.5947
  487MOL0     C64181   5.183   1.956   7.468  0.1180  0.7745 -1.1321
  487MOL0     O64182   5.202   1.956   7.609  0.4902  0.0475  0.0962
  487MOL0     C64183   5.091   1.947   7.688 -0.5721 -0.1644 -0.4537
  487MOL0     C64184   5.057   2.035   7.792  0.0983  0.4164  0.1497
  487MOL0     C64185   4.939   2.010   7.870  0.0346 -0.1983 -0.3084
  487MOL0     C64186   4.854   1.900   7.837 -0.4134  0.0652  0.4498
  487MOL0     O64187   4.741   1.872   7.910 -0.7836 -0.2792  0.1078
  487MOL0     C64188   4.727   1.939   8.036 -0.2259  0.0802  0.7189
  487MOL0     C64189   4.619   1.865   8.110 -0.1098 -0.3191  0.5361
  487MOL0     C64190   4.484   1.869   8.032 -0.1219 -0.7998  0.3356
  487MOL0     C64191   4.364   1.800   8.103  0.6033 -0.5341 -0.5901
  487MOL0     C64192   4.241   1.763   8.017 -0.4997 -0.7912  0.1604
  487MOL0     C64193   4.129   1.697   8.110  0.0994 -0.8856  0.0561
  487MOL0     C64194   3.995   1.749   8.056  0.4262 -0.6317 -0.5172
  487MOL0     C64195   3.879   1.682   8.123 -1.1852 -0.0836 -0.4294
  487MOL0    Cl64196   3.728   1.731   8.057  0.4428 -0.0683 -0.3903
  487MOL0     C64197   4.879   1.828   7.718  0.1837 -0.3111 -0.5026
  487MOL0     C64198   5.006   1.840   7.663 -0.2056 -0.1836 -0.2431
  487MOL0     O64199   5.080   1.938   7.413  0.2034  0.0691  0.0623
  487MOL0     C64200   5.424   2.031   7.427 -0.6277 -0.4599 -0.2918
  487MOL0     C64201   5.544   2.014   7.357 -0.0127 -0.6372 -0.6295
  487MOL0     N64202   6.100   1.691   6.813  0.1134  0.0168 -0.7181
  487MOL0     N64203   6.204   1.621   6.840 -0.0083 -1.0166 -0.3847
  487MOL0     C64204   7.566   1.482   6.657 -0.3804 -0.2151  0.1390
  487MOL0     C64205   7.695   1.487   6.606 -0.8798  0.2262  0.0563
  487MOL0     C64206   8.068   1.597   6.367  0.1722  0.2938 -0.2520
  487MOL0     C64207   8.148   1.515   6.287  0.1551  0.2687  0.2841
  487MOL0     C64208   8.253   1.565   6.214  0.9982 -0.7374  0.2065
  487MOL0     C64209   8.291   1.699   6.216  0.3589  0.3422 -0.2706
  487MOL0     O64210   8.392   1.742   6.132 -0.5410  0.4882 -0.0850
  487MOL0     C64211   8.507   1.652   6.107 -0.3700 -0.2250  0.9018
  487MOL0     C64212   8.639   1.732   6.069  0.5386  0.1956  0.2866
  487MOL0     C64213   8.747   1.628   6.028 -0.1911  0.0274 -0.6345
  487MOL0     C64214   8.741   1.577   5.888  0.6376  0.2384  0.2776
  487MOL0     C64215   8.717   1.679   5.789  0.3524  0.7756 -0.6361
  487MOL0     C64216   8.697   1.762   5.705 -0.7479 -1.3237 -0.0103
  487MOL0     C64217   8.212   1.782   6.307 -0.2675 -0.0880  0.7560
  487MOL0     C64218   8.109   1.731   6.384 -0.6273 -0.0679 -0.5878
  487MOL0     H64219   7.702   1.817   6.544  0.4597  0.7334  1.1254
  487MOL0     H64220   7.463   1.793   6.643 -0.6739  0.6570 -1.7991
  487MOL0     H64221   7.206   1.608   6.595  1.0257 -3.2761 -0.1223
  487MOL0     H64222   7.248   1.737   6.711  1.2158 -0.1810 -2.0239
  487MOL0     H64223   7.132   1.581   6.882 -1.1913  3.4000 -0.8170
  487MOL0     H64224   7.121   1.452   6.747 -0.0692 -0.1925 -0.5404
  487MOL0     H64225   6.957   1.580   6.643 -0.7535  1.1424 -0.3386
  487MOL0     H64226   6.993   1.724   6.748  2.7675  0.6554  3.2817
  487MOL0     H64227   6.901   1.445   6.851  0.4503  0.9695 -1.4373
  487MOL0     H64228   6.893   1.600   6.937 -0.4315  0.9264  0.2976
  487MOL0     H64229   6.711   1.512   6.693 -1.5343  0.5419  1.1256
  487MOL0     H64230   6.689   1.659   6.788 -1.8907 -0.3724  1.6597
  487MOL0     H64231   6.646   1.501   6.985  0.4903  1.7722 -0.0790
  487MOL0     H64232   6.623   1.383   6.852  1.6919  0.9303 -1.7063
  487MOL0     H64233   6.477   1.564   6.741 -2.3767  0.6703  0.0811
  487MOL0     H64234   6.412   1.460   6.864 -0.8150  0.0145 -0.5044
  487MOL0     H64235   6.495   1.757   6.908  2.7325 -1.1384  1.3856
  487MOL0     H64236   6.454   1.634   7.035  2.1503 -0.3092 -0.1291
  487MOL0     H64237   6.250   1.907   7.002 -1.4050 -0.2663  2.3498
  487MOL0     H64238   5.968   1.916   6.777 -1.6403  3.4691  0.5691
  487MOL0     H64239   6.059   2.017   6.881 -0.2846  0.2670  1.6974
  487MOL0     H64240   5.930   1.909   7.089 -1.3799 -0.1832  0.4566
  487MOL0     H64241   5.834   1.823   6.972 -2.2891  1.0174 -0.7405
  487MOL0     H64242   5.827   2.112   7.053 -0.2756  1.6894 -2.0268
  487MOL0     H64243   5.803   2.079   6.885  1.2968 -0.2670  0.0111
  487MOL0     H64244   5.627   1.906   6.955 -2.9241  0.6386  0.7969
  487MOL0     H64245   5.603   2.070   7.001  3.4627  2.2168  0.6018
  487MOL0     H64246   5.410   1.903   7.062 -1.0589 -0.4266  0.2557
  487MOL0     H64247   5.212   1.915   7.203  0.3846  2.2461  0.5087
  487MOL0     H64248   5.130   2.108   7.826  2.7169 -1.8962 -0.0823
  487MOL0     H64249   4.916   2.076   7.953 -0.5284  0.1905 -0.7644
  487MOL0     H64250   4.710   2.047   8.027  1.3337  0.3084  0.0179
  487MOL0     H64251   4.814   1.927   8.102  0.5130  2.8204  0.3601
  487MOL0     H64252   4.598   1.914   8.206 -2.4192  0.2598 -0.1907
  487MOL0     H64253   4.648   1.761   8.125  3.0927  0.6062  1.5198
  487MOL0     H64254   4.508   1.822   7.936  1.7746  0.9832 -0.1219
  487MOL0     H64255   4.453   1.972   8.012  0.6642 -0.3895  1.1498
  487MOL0     H64256   4.413   1.713   8.148  2.3167  1.8083  2.4778
  487MOL0     H64257   4.333   1.856   8.191 -0.7208 -3.7502  1.1337
  487MOL0     H64258   4.270   1.696   7.935 -0.1426  0.6983 -0.9792
  487MOL0     H64259   4.205   1.853   7.968  2.7282 -0.3006 -1.5940
  487MOL0     H64260   4.132   1.719   8.217 -0.7436  0.3804 -0.1532
  487MOL0     H64261   4.131   1.587   8.103 -0.8289 -0.8640 -0.8733
  487MOL0     H64262   3.981   1.855   8.079 -0.5109 -1.3775  3.0421
  487MOL0     H64263   3.990   1.732   7.948  2.0067 -1.6088 -0.4697
  487MOL0     H64264   3.879   1.716   8.227 -2.3176 -1.8893  0.2156
  487MOL0     H64265   3.899   1.575   8.117  1.8597  0.3888 -0.1570
  487MOL0     H64266   4.809   1.751   7.689 -2.5293  2.0355 -0.6666
  487MOL0     H64267   5.033   1.764   7.589  2.7515  1.7495 -1.3376
  487MOL0     H64268   5.418   2.083   7.521  0.0151 -1.7636  0.5094
  487MOL0     H64269   5.635   2.045   7.407 -2.0462 -0.5625  3.4959
  487MOL0     H64270   7.538   1.393   6.713 -0.8088  1.8496  3.4502
  487MOL0     H64271   7.755   1.396   6.608 -1.8554 -0.4228  0.4772
  487MOL0     H64272   8.107   1.417   6.266 -2.3653  0.7587  2.4394
  487MOL0     H64273   8.304   1.503   6.142  1.6325  0.5232 -0.4646
  487MOL0     H64274   8.485   1.591   6.019 -1.7205  2.4029 -0.6936
  487MOL0     H64275   8.530   1.588   6.193  0.9880 -1.2138 -0.1485
  487MOL0     H64276   8.616   1.810   5.996  0.0662  0.9924  1.2657
  487MOL0     H64277   8.673   1.785   6.158 -0.7681 -0.3166  1.1171
  487MOL0     H64278   8.743   1.545   6.099  1.7377 -2.0971 -2.8119
  487MOL0     H64279   8.841   1.678   6.052 -0.3530 -0.8431  2.2494
  487MOL0     H64280   8.829   1.521   5.858  2.8051  4.0662 -1.1803
  487MOL0     H64281   8.656   1.508   5.879 -0.7277  1.8770 -0.0157
  487MOL0     H64282   8.673   1.837   5.632 -0.8333 -0.5070  0.8250
  487MOL0     H64283   8.223   1.889   6.321 -1.7467 -0.0302  1.7037
  487MOL0     H64284   8.046   1.803   6.435  0.8478  0.9308 -0.1108
  488MOL0     O64285   5.340   4.038   5.115  0.2998  0.3072  0.3105
  488MOL0     C64286   5.331   3.918   5.102  0.4516 -0.5724 -0.0770
  488MOL0     O64287   5.231   3.843   5.059 -0.0579 -0.6096 -0.2986
  488MOL0     C64288   5.108   3.895   5.036 -0.3828  0.0405  0.1095
  488MOL0     C64289   5.040   3.989   5.117  0.2774 -0.7678 -0.6983
  488MOL0     C64290   4.917   4.048   5.075 -0.7947 -0.1438 -0.6478
  488MOL0     C64291   4.869   4.023   4.941 -0.7307 -0.1092  0.5852
  488MOL0     O64292   4.757   4.086   4.888 -1.1557 -0.2304  0.0299
  488MOL0     C64293   4.667   4.169   4.970 -0.3864  0.2466 -0.1873
  488MOL0     C64294   4.535   4.202   4.892 -0.9469  0.5097  0.7775
  488MOL0     C64295   4.485   4.087   4.804 -0.4584 -0.4886  0.0350
  488MOL0     C64296   4.462   3.953   4.884  0.8087 -1.0889  0.2634
  488MOL0     C64297   4.381   3.855   4.799 -0.6223  0.4906  0.3266
  488MOL0     C64298   4.236   3.895   4.773 -0.5432 -1.1618  0.0379
  488MOL0     C64299   4.147   3.919   4.896 -0.3747 -0.2801  0.3394
  488MOL0     C64300   4.009   3.914   4.853  0.4606  0.5033 -0.2694
  488MOL0     N64301   3.911   3.918   4.967 -0.9255 -0.8806 -0.0693
  488MOL0     C64302   3.887   3.820   5.060 -0.2307  1.1413 -0.2739
  488MOL0     C64303   3.784   3.864   5.135  0.1917 -0.1452  0.3131
  488MOL0     C64304   3.706   3.781   5.235 -0.9221  0.2005  0.5953
  488MOL0     C64305   3.722   3.827   5.381  0.6021  1.5919  0.7703
  488MOL0     C64306   3.625   3.747   5.472 -0.1490 -0.4767  0.6787
  488MOL0     C64307   3.479   3.794   5.473  0.2149  0.8154 -0.3566
  488MOL0     O64308   3.396   3.710   5.559 -0.8826  0.0682 -0.4788
  488MOL0     C64309   3.262   3.717   5.546  0.3619  1.0550 -0.4115
  488MOL0     C64310   3.184   3.622   5.619 -0.6585 -0.3013  0.3027
  488MOL0     C64311   3.038   3.622   5.609 -0.1694  0.0847  0.7728
  488MOL0     C64312   2.978   3.721   5.531 -0.3488  0.4181 -0.0029
  488MOL0     C64313   2.834   3.721   5.518  0.2403  0.2700 -0.2398
  488MOL0     O64314   2.786   3.847   5.480 -0.2450 -0.1062  0.0676
  488MOL0     C64315   2.664   3.861   5.424  0.2392 -0.1021  0.2539
  488MOL0     C64316   2.657   3.873   5.291 -0.3262  0.1754  0.0782
  488MOL0     C64317   2.529   3.892   5.235 -0.7390 -0.6758 -0.4310
  488MOL0     C64318   2.415   3.912   5.305  0.0595 -0.4321 -0.7545
  488MOL0     O64319   2.288   3.956   5.259 -0.1222  0.3181  0.5808
  488MOL0     C64320   2.257   3.946   5.120  0.3194 -1.0488 -0.3786
  488MOL0     C64321   2.125   4.013   5.081 -1.2639  1.0422 -0.4261
  488MOL0     C64322   2.111   4.158   5.120  0.5875 -0.2068 -0.1853
  488MOL0     C64323   2.010   4.237   5.034  0.5638  0.5389 -0.5126
  488MOL0     C64324   1.865   4.196   5.044 -0.1626  0.1112 -0.1042
  488MOL0     C64325   1.769   4.282   4.965 -0.5724 -0.0001 -0.4168
  488MOL0     C64326   1.627   4.236   4.991 -0.2412 -0.2247 -0.5248
  488MOL0     C64327   1.589   4.102   4.946 -0.2391  1.1318 -0.2163
  488MOL0    Cl64328   1.417   4.085   4.895  0.5284  0.1833  0.1480
  488MOL0     C64329   2.433   3.915   5.444  0.7031 -0.1627  0.2736
  488MOL0     C64330   2.553   3.887   5.505  0.1443  0.1241 -0.1619
  488MOL0     O64331   2.766   3.614   5.532  0.0174  0.4536 -0.0895
  488MOL0     C64332   3.063   3.816   5.458  0.8326  0.4582  0.3222
  488MOL0     C64333   3.196   3.802   5.457 -0.2865  0.5808 -0.4913
  488MOL0     N64334   3.759   3.993   5.089  0.4918  0.0764 -0.5380
  488MOL0     N64335   3.834   4.030   4.993 -0.4873  0.9093  0.2439
  488MOL0     C64336   4.945   3.928   4.868 -0.2122  0.2914  0.2223
  488MOL0     C64337   5.058   3.869   4.911 -0.5833 -0.1772  0.9804
  488MOL0     C64338   5.461   3.850   5.095  0.1844  0.0412  0.6599
  488MOL0     C64339   5.586   3.920   5.095 -0.4048  0.3098  0.1319
  488MOL0     C64340   5.703   3.842   5.073  1.1257  0.1577 -0.4021
  488MOL0     C64341   5.698   3.704   5.041 -0.0844 -0.9511  0.6075
  488MOL0     O64342   5.822   3.649   5.002  0.7116  0.8997  0.6034
  488MOL0     C64343   5.843   3.646   4.855 -0.0907  0.0438 -0.5315
  488MOL0     C64344   5.990   3.611   4.842  0.1541 -0.0455  0.3802
  488MOL0     C64345   6.081   3.717   4.917 -0.4889 -0.2578  0.6707
  488MOL0     C64346   6.234   3.698   4.876 -1.1775 -0.4014 -0.1299
  488MOL0     C64347   6.324   3.798   4.940 -0.4792  0.4238 -0.3389
  488MOL0     C64348   6.404   3.880   4.979  0.1181  0.0701 -0.5108
  488MOL0     C64349   5.575   3.633   5.032  0.2798  0.0211 -0.6401
  488MOL0     C64350   5.463   3.709   5.066  0.0632  0.4706  0.3439
  488MOL0     H64351   5.084   4.030   5.207 -0.6135 -0.7080 -0.2828
  488MOL0     H64352   4.871   4.129   5.130  0.5265  0.5746 -0.5853
  488MOL0     H64353   4.714   4.251   5.025  0.6795 -0.8240  0.5601
  488MOL0     H64354   4.630   4.110   5.055  0.5842  1.0976  0.8638
  488MOL0     H64355   4.547   4.283   4.820 -1.9837 -0.1137 -0.1094
  488MOL0     H64356   4.468   4.225   4.975 -0.4893 -1.8305  1.8876
  488MOL0     H64357   4.547   4.062   4.718 -1.8547  2.2181 -1.8909
  488MOL0     H64358   4.391   4.126   4.763  1.0770  2.2309 -1.2044
  488MOL0     H64359   4.560   3.912   4.909  2.1322  1.1570 -0.9034
  488MOL0     H64360   4.412   3.954   4.981  0.5436  0.2232  0.1400
  488MOL0     H64361   4.396   3.753   4.836 -0.6163  0.6995  0.9014
  488MOL0     H64362   4.424   3.834   4.700 -0.8770 -1.5631  0.5986
  488MOL0     H64363   4.195   3.811   4.716  0.8395 -1.4418 -0.5965
  488MOL0     H64364   4.234   3.988   4.715  0.3145 -1.3286 -0.2836
  488MOL0     H64365   4.182   3.842   4.966 -1.0806 -1.8176 -0.9484
  488MOL0     H64366   4.165   4.020   4.934  2.9874 -0.4221 -0.5559
  488MOL0     H64367   3.995   3.818   4.801 -0.1369 -0.2807  1.2664
  488MOL0     H64368   3.990   3.993   4.780 -0.1738 -0.9970 -1.7862
  488MOL0     H64369   3.942   3.727   5.072  0.2125  1.7627  4.6625
  488MOL0     H64370   3.747   3.679   5.234 -0.4140  0.3970 -0.3977
  488MOL0     H64371   3.598   3.775   5.216 -0.6412 -0.5925 -0.9045
  488MOL0     H64372   3.708   3.935   5.399 -1.0654  1.1038  2.9034
  488MOL0     H64373   3.816   3.791   5.423 -1.2467 -3.9472  0.8853
  488MOL0     H64374   3.638   3.640   5.453  0.5287 -0.1657 -0.8043
  488MOL0     H64375   3.659   3.762   5.574 -1.3947  0.9368  0.9327
  488MOL0     H64376   3.459   3.781   5.366  1.7672  0.0724 -0.5862
  488MOL0     H64377   3.475   3.898   5.507  2.6722  0.1587  2.2598
  488MOL0     H64378   3.243   3.561   5.686  1.7413 -0.0528 -1.4599
  488MOL0     H64379   2.988   3.546   5.669 -3.5446  1.0029 -0.6519
  488MOL0     H64380   2.746   3.858   5.231 -0.5335 -0.3476 -0.1069
  488MOL0     H64381   2.540   3.910   5.128  0.6198  1.4212  0.0021
  488MOL0     H64382   2.244   3.842   5.092 -1.4303 -1.7121  2.5394
  488MOL0     H64383   2.336   3.996   5.062  1.4499 -0.7084  1.3699
  488MOL0     H64384   2.043   3.964   5.134  1.3742 -1.4317  1.6473
  488MOL0     H64385   2.112   3.995   4.974 -0.0418 -2.1246 -0.1270
  488MOL0     H64386   2.209   4.204   5.128  0.0677  1.1382 -1.1025
  488MOL0     H64387   2.068   4.155   5.221 -0.8345 -1.6602 -0.7818
  488MOL0     H64388   2.009   4.339   5.073  0.4221  0.9451 -1.5278
  488MOL0     H64389   2.047   4.235   4.930 -0.7118  1.5690 -1.0080
  488MOL0     H64390   1.844   4.198   5.151 -2.4806 -0.8110 -0.4848
  488MOL0     H64391   1.864   4.093   5.007 -0.0253  0.9261 -2.5385
  488MOL0     H64392   1.806   4.287   4.862  2.4411  3.1544  0.6080
  488MOL0     H64393   1.785   4.384   5.001  2.8627 -1.4014  2.6645
  488MOL0     H64394   1.616   4.234   5.100 -5.2176 -4.2975 -0.7000
  488MOL0     H64395   1.557   4.308   4.947 -0.5295 -0.7520 -0.9414
  488MOL0     H64396   1.625   4.027   5.018 -2.9691 -1.4351 -1.3362
  488MOL0     H64397   1.646   4.072   4.857 -0.7799 -1.7127  0.3094
  488MOL0     H64398   2.351   3.926   5.515  0.3921  0.0277 -0.1080
  488MOL0     H64399   2.564   3.887   5.613 -0.4028 -3.1036 -0.0138
  488MOL0     H64400   3.018   3.897   5.402  0.7085 -0.1708 -0.4971
  488MOL0     H64401   3.256   3.875   5.403  2.4874  1.4971  3.3726
  488MOL0     H64402   4.914   3.914   4.765  2.1809  1.9786 -0.8080
  488MOL0     H64403   5.106   3.795   4.848 -0.2529 -0.6990  1.8326
  488MOL0     H64404   5.594   4.021   5.132  0.6332 -0.0590  0.9737
  488MOL0     H64405   5.801   3.886   5.082  3.1680 -4.1440  1.1417
  488MOL0     H64406   5.806   3.739   4.810  2.3890 -0.4792 -4.0164
  488MOL0     H64407   5.785   3.571   4.800  0.8960 -0.3203 -1.0959
  488MOL0     H64408   6.007   3.508   4.877  0.4682 -0.1161  0.0234
  488MOL0     H64409   6.015   3.623   4.736  0.0414  2.6772  0.6147
  488MOL0     H64410   6.079   3.700   5.025  4.0474 -3.1030  0.5676
  488MOL0     H64411   6.041   3.817   4.896 -0.1073  0.0519  1.3720
  488MOL0     H64412   6.255   3.592   4.894  2.4504 -0.0481 -1.5527
  488MOL0     H64413   6.247   3.728   4.772  0.3691  0.9632  0.4099
  488MOL0     H64414   6.462   3.962   5.016  0.7954 -0.8506  0.5378
  488MOL0     H64415   5.573   3.526   5.015  0.5975 -0.4379  1.8237
  488MOL0     H64416   5.375   3.647   5.070  0.7386 -0.7145 -1.6802
  489MOL0     O64417   1.929  11.068   9.318 -0.7986  0.2312  0.4033
  489MOL0     C64418   1.953  11.110   9.204 -0.7647  0.3358  0.4806
  489MOL0     O64419   1.863  11.119   9.104  0.1502  0.4341  0.0692
  489MOL0     C64420   1.738  11.085   9.142  0.1445  0.7063 -0.1373
  489MOL0     C64421   1.646  11.182   9.175  0.4078  0.0050  0.0589
  489MOL0     C64422   1.512  11.149   9.199  0.6782  0.3845  0.0784
  489MOL0     C64423   1.480  11.012   9.207  0.6344  0.3407 -0.0461
  489MOL0     O64424   1.357  10.977   9.239  0.7182  0.0768 -0.0182
  489MOL0     C64425   1.270  10.919   9.136  0.0135 -0.1528  0.3113
  489MOL0     C64426   1.121  10.967   9.137  0.5267  0.0524 -0.3844
  489MOL0     C64427   1.025  10.874   9.063 -0.2044 -0.1004 -0.3748
  489MOL0     C64428   0.878  10.917   9.065 -0.0129 -0.1307  1.2247
  489MOL0     C64429   0.792  10.822   8.975 -0.0451 -0.5755 -0.2501
  489MOL0     C64430   0.643  10.819   9.014 -0.2798 -0.0461  0.2544
  489MOL0     C64431   0.565  10.762   8.895  0.3184  0.5279  0.0798
  489MOL0     C64432   0.412  10.787   8.894  0.2095 -0.2368 -0.5307
  489MOL0     N64433   0.371  10.839   9.025 -1.1349  0.0730  0.0334
  489MOL0     C64434   0.361  10.765   9.145 -0.5368  0.3161 -0.3817
  489MOL0     C64435   0.303  10.848   9.232 -0.2345 -0.2242 -1.4461
  489MOL0     C64436   0.277  10.835   9.377  0.2390  0.4682  0.3543
  489MOL0     C64437   0.164  10.930   9.436  0.3182 -0.4310 -0.4453
  489MOL0     C64438   0.034  10.932   9.349 -0.3230 -0.6273 -0.0056
  489MOL0     C64439  -0.014  10.796   9.304 -0.3288 -0.3740 -0.4913
  489MOL0     O64440  -0.126  10.827   9.220  0.6318  0.2291 -0.6337
  489MOL0     C64441  -0.244  10.873   9.263 -0.5596  0.3224 -0.0263
  489MOL0     C64442  -0.285  10.879   9.394  0.1732  0.3141  0.3337
  489MOL0     C64443  -0.394  10.958   9.427 -0.1360  0.0712  0.5835
  489MOL0     C64444  -0.467  11.022   9.335  0.1285  0.4062  0.6627
  489MOL0     C64445  -0.580  11.109   9.361 -0.3819 -0.1292  0.0444
  489MOL0     O64446  -0.593  11.212   9.269  0.5093 -0.2686  0.1957
  489MOL0     C64447  -0.706  11.297   9.277  0.0442 -0.2899  0.3820
  489MOL0     C64448  -0.690  11.438   9.259  0.1240 -0.2903  0.1071
  489MOL0     C64449  -0.801  11.528   9.249 -0.3213  0.2500 -0.1591
  489MOL0     C64450  -0.929  11.477   9.257  1.0818 -0.7889  0.2640
  489MOL0     O64451  -1.029  11.566   9.248 -0.1233 -0.0731 -0.5238
  489MOL0     C64452  -1.169  11.525   9.250  0.4486  0.2301 -0.3236
  489MOL0     C64453  -1.262  11.635   9.197 -0.4841 -0.7922 -0.2166
  489MOL0     C64454  -1.264  11.753   9.301  0.3005 -0.5136 -0.5156
  489MOL0     C64455  -1.359  11.866   9.245  0.0344  0.8070  0.2581
  489MOL0     C64456  -1.347  11.993   9.336  0.0414  0.2722  1.1648
  489MOL0     C64457  -1.379  11.962   9.482  0.1612 -0.2580 -0.4797
  489MOL0     C64458  -1.355  12.095   9.553 -1.3726 -0.8385  0.3812
  489MOL0     C64459  -1.381  12.080   9.703 -0.4001 -0.5769 -0.1434
  489MOL0    Cl64460  -1.244  11.987   9.795  0.1183  0.0761  0.4679
  489MOL0     C64461  -0.950  11.340   9.271  1.1179  0.3195  0.5067
  489MOL0     C64462  -0.844  11.253   9.286 -0.3450 -0.2145 -0.1674
  489MOL0     O64463  -0.651  11.094   9.457 -0.6965 -0.4441 -0.0835
  489MOL0     C64464  -0.429  10.996   9.197  0.0481  1.3814  0.0197
  489MOL0     C64465  -0.319  10.923   9.168  0.0261  0.1583  0.0045
  489MOL0     N64466   0.282  10.973   9.170  0.8814  0.1399 -0.1455
  489MOL0     N64467   0.314  10.963   9.046  0.2410  0.7287 -0.6243
  489MOL0     C64468   1.572  10.909   9.181 -0.4902  0.2202 -0.0887
  489MOL0     C64469   1.708  10.950   9.155 -0.4505  0.2296  0.6624
  489MOL0     C64470   2.098  11.135   9.177 -0.2377  0.1658 -0.2807
  489MOL0     C64471   2.140  11.189   9.057 -0.6957  0.1343 -0.2692
  489MOL0     C64472   2.278  11.225   9.028 -0.5471 -0.3871  1.6573
  489MOL0     C64473   2.375  11.189   9.126  0.3819  0.0348 -0.5557
  489MOL0     O64474   2.511  11.225   9.095  0.5744  0.1119 -0.9100
  489MOL0     C64475   2.613  11.177   9.183 -0.3089 -0.0492 -0.9812
  489MOL0     C64476   2.747  11.213   9.137 -0.8123 -0.8498  0.4441
  489MOL0     C64477   2.804  11.354   9.165  0.2906 -0.2428 -0.4300
  489MOL0     C64478   2.943  11.366   9.111 -0.2240 -0.6115 -0.7796
  489MOL0     C64479   2.995  11.500   9.124  0.0579 -0.6778 -0.2142
  489MOL0     C64480   3.038  11.613   9.126 -0.3426  0.2020 -0.1213
  489MOL0     C64481   2.328  11.137   9.248  0.6970  0.4949  0.2567
  489MOL0     C64482   2.193  11.112   9.276 -0.2264  0.0700  0.0104
  489MOL0     H64483   1.678  11.285   9.178 -0.0644  0.4268 -3.7148
  489MOL0     H64484   1.435  11.223   9.219 -0.6805 -0.9640 -0.0045
  489MOL0     H64485   1.260  10.814   9.166 -2.0649 -0.6728 -1.9275
  489MOL0     H64486   1.299  10.926   9.031 -3.4389 -0.1993 -0.7457
  489MOL0     H64487   1.110  11.073   9.113  3.1420  0.4970  0.0264
  489MOL0     H64488   1.087  10.963   9.241 -1.3093 -1.5631 -0.9869
  489MOL0     H64489   1.036  10.771   9.097 -2.7067  0.7986  4.0058
  489MOL0     H64490   1.046  10.897   8.958 -2.4328  1.3483 -0.5755
  489MOL0     H64491   0.835  10.906   9.165 -1.5018 -2.1689  0.4330
  489MOL0     H64492   0.871  11.024   9.043  2.6826 -0.1435 -0.1322
  489MOL0     H64493   0.834  10.721   8.975 -0.0702 -0.6776 -3.1908
  489MOL0     H64494   0.815  10.859   8.874  2.8861 -3.4220 -0.7994
  489MOL0     H64495   0.610  10.922   9.025 -1.7854 -0.3801 -0.7688
  489MOL0     H64496   0.635  10.768   9.110  2.7401 -1.1578  0.0163
  489MOL0     H64497   0.596  10.795   8.796  2.3052  1.4478  0.9635
  489MOL0     H64498   0.578  10.653   8.894 -0.0347  0.4737  0.8768
  489MOL0     H64499   0.347  10.705   8.862 -0.2148  0.6037 -1.9240
  489MOL0     H64500   0.387  10.868   8.825  2.8730  1.2931  0.1539
  489MOL0     H64501   0.402  10.669   9.176  2.5083  0.4400 -3.4883
  489MOL0     H64502   0.373  10.837   9.428  0.8867  0.6562 -0.8357
  489MOL0     H64503   0.246  10.733   9.404 -0.3251 -0.2889 -2.7945
  489MOL0     H64504   0.200  11.033   9.428 -0.0625 -0.4544 -3.3856
  489MOL0     H64505   0.150  10.917   9.544  4.4181  0.8630  0.4362
  489MOL0     H64506  -0.046  10.977   9.408  0.4508 -2.3898  2.5619
  489MOL0     H64507   0.060  10.990   9.260 -0.5864 -1.1665 -0.4492
  489MOL0     H64508  -0.030  10.737   9.395  2.7821 -1.9108 -0.7957
  489MOL0     H64509   0.056  10.748   9.235  0.4653 -0.1806  0.1759
  489MOL0     H64510  -0.223  10.834   9.471 -3.2381  0.1850  3.2522
  489MOL0     H64511  -0.428  10.960   9.530 -1.8555  1.1341  0.0389
  489MOL0     H64512  -0.594  11.487   9.248 -1.1946  2.3373 -0.4592
  489MOL0     H64513  -0.775  11.632   9.232 -1.1236  0.6972  1.2287
  489MOL0     H64514  -1.198  11.497   9.352 -2.2089  1.0963 -0.7730
  489MOL0     H64515  -1.191  11.438   9.186 -0.0617 -0.1955  0.4096
  489MOL0     H64516  -1.365  11.606   9.177 -1.1024  2.0080 -1.6220
  489MOL0     H64517  -1.207  11.675   9.111  0.5883 -0.6297  0.5272
  489MOL0     H64518  -1.163  11.794   9.310  0.0776 -0.0696  0.0523
  489MOL0     H64519  -1.303  11.722   9.399 -1.6984 -0.4265 -1.2515
  489MOL0     H64520  -1.324  11.896   9.146  2.6158 -2.7207 -0.0972
  489MOL0     H64521  -1.459  11.824   9.241 -1.3090  3.5885  1.5668
  489MOL0     H64522  -1.414  12.072   9.300  0.2064 -0.6427 -1.3767
  489MOL0     H64523  -1.243  12.021   9.320  0.3647 -1.4971 -0.2299
  489MOL0     H64524  -1.312  11.884   9.519  1.0560 -0.1549 -1.8209
  489MOL0     H64525  -1.481  11.923   9.486 -0.1486  0.1978 -2.8090
  489MOL0     H64526  -1.251  12.119   9.530 -2.3541  1.9976 -1.5558
  489MOL0     H64527  -1.412  12.176   9.506  1.9131  2.0564  1.0129
  489MOL0     H64528  -1.476  12.028   9.719  0.0927 -1.1915  0.8859
  489MOL0     H64529  -1.398  12.182   9.738  0.0427  0.2712 -2.2288
  489MOL0     H64530  -1.048  11.294   9.264  0.8783  0.8558  0.2942
  489MOL0     H64531  -0.862  11.146   9.298  0.6587 -0.2944  0.7164
  489MOL0     H64532  -0.485  11.033   9.113 -0.5404 -2.3137 -1.3988
  489MOL0     H64533  -0.301  10.907   9.062  1.3841  0.6655  0.1390
  489MOL0     H64534   1.553  10.803   9.194 -0.0234  0.0884 -0.4631
  489MOL0     H64535   1.790  10.881   9.137  1.1095  2.9111 -4.2795
  489MOL0     H64536   2.068  11.197   8.977 -1.7942  0.2856  0.7059
  489MOL0     H64537   2.312  11.278   8.940  0.3295 -1.2750  1.4440
  489MOL0     H64538   2.602  11.070   9.205  0.1792  0.3848  1.7024
  489MOL0     H64539   2.598  11.220   9.282 -1.4310 -0.7054 -0.8363
  489MOL0     H64540   2.813  11.140   9.185  0.8065 -0.3997 -1.0023
  489MOL0     H64541   2.763  11.207   9.029  4.3829 -1.6214  0.9577
  489MOL0     H64542   2.804  11.389   9.269  0.4754 -2.2527  0.2806
  489MOL0     H64543   2.730  11.412   9.108 -1.7813 -1.7792  0.5541
  489MOL0     H64544   3.005  11.300   9.172 -0.2588  1.0509  1.1771
  489MOL0     H64545   2.942  11.348   9.003 -1.6568  1.2763 -1.1396
  489MOL0     H64546   3.085  11.709   9.132 -0.3602  0.3687 -2.0434
  489MOL0     H64547   2.401  11.109   9.324  1.7042 -4.4361 -2.1203
  489MOL0     H64548   2.167  11.066   9.371  1.8044  0.6023  0.8869
  490MOL0     O64549   9.042   7.328   9.391  0.0440 -0.2419 -0.0235
  490MOL0     C64550   9.111   7.284   9.299  0.0092  0.6703  0.2586
  490MOL0     O64551   9.068   7.224   9.182 -0.2439 -0.7267 -0.0318
  490MOL0     C64552   8.933   7.246   9.146  0.1847 -0.7815 -1.0455
  490MOL0     C64553   8.903   7.336   9.041 -0.4440  0.1273 -0.6449
  490MOL0     C64554   8.768   7.364   9.012 -0.4136  0.0219 -0.5680
  490MOL0     C64555   8.654   7.309   9.086  0.3430 -0.0756 -0.5423
  490MOL0     O64556   8.526   7.357   9.058 -0.4053  0.0501  0.7071
  490MOL0     C64557   8.418   7.273   9.102  0.8308 -0.3523  0.2440
  490MOL0     C64558   8.309   7.278   8.996 -0.7458  0.2939 -0.5139
  490MOL0     C64559   8.355   7.185   8.877 -0.2054 -0.1201  0.0609
  490MOL0     C64560   8.259   7.190   8.765 -0.0225  0.1673  0.3283
  490MOL0     C64561   8.124   7.118   8.768  0.7575 -0.0800  0.3525
  490MOL0     C64562   8.018   7.219   8.808  0.1214  0.2945  0.4326
  490MOL0     C64563   7.877   7.149   8.800  0.7138 -0.0833 -0.7596
  490MOL0     C64564   7.846   7.065   8.925  0.2475 -0.0571 -0.5033
  490MOL0     N64565   7.705   7.031   8.919 -0.3188 -0.2598  0.0339
  490MOL0     C64566   7.600   7.126   8.929  0.3181  0.2575  0.8583
  490MOL0     C64567   7.488   7.051   8.932 -0.6988 -0.5060 -1.5101
  490MOL0     C64568   7.346   7.086   8.934 -0.8756 -0.8380 -0.0297
  490MOL0     C64569   7.322   7.238   8.897 -0.9507 -0.2333  0.1523
  490MOL0     C64570   7.183   7.264   8.858  0.1772  0.9009  0.0006
  490MOL0     C64571   7.130   7.201   8.726 -0.4995  0.2993 -0.1111
  490MOL0     O64572   6.995   7.170   8.757 -0.3478 -0.6652  0.6499
  490MOL0     C64573   6.893   7.268   8.742 -0.5569  0.3457  0.7144
  490MOL0     C64574   6.756   7.229   8.755 -0.0634 -0.1611  0.5600
  490MOL0     C64575   6.656   7.316   8.716  0.1813 -0.4461  0.1093
  490MOL0     C64576   6.688   7.444   8.668 -0.3623  0.1059 -0.4730
  490MOL0     C64577   6.580   7.548   8.650 -0.0682  0.2431 -0.1134
  490MOL0     O64578   6.455   7.524   8.702 -0.2407 -0.4687 -0.0293
  490MOL0     C64579   6.355   7.619   8.699 -0.7642 -0.3203 -0.6655
  490MOL0     C64580   6.225   7.570   8.709 -0.5594 -0.8989  0.5279
  490MOL0     C64581   6.123   7.656   8.697  0.2228 -0.1987  0.0637
  490MOL0     C64582   6.137   7.793   8.681  0.3256  0.1996  0.0606
  490MOL0     O64583   6.028   7.884   8.666 -0.4696 -0.0677 -0.3527
  490MOL0     C64584   5.913   7.837   8.607  0.1345 -0.2123  0.3404
  490MOL0     C64585   5.835   7.956   8.554 -0.2494  0.6691 -0.0568
  490MOL0     C64586   5.864   7.967   8.408 -0.0120 -0.2404  0.8402
  490MOL0     C64587   5.818   8.104   8.354  0.3646 -0.8814 -0.0225
  490MOL0     C64588   5.662   8.108   8.326 -0.2807  0.6747  0.3108
  490MOL0     C64589   5.628   8.240   8.270 -0.1623 -0.5942  0.9167
  490MOL0     C64590   5.473   8.262   8.275 -1.4184 -0.1279  0.3082
  490MOL0     C64591   5.425   8.309   8.415 -0.3000  0.0415  0.6659
  490MOL0    Cl64592   5.458   8.476   8.446  0.2339  0.0702 -0.0511
  490MOL0     C64593   6.270   7.838   8.685  0.2407 -0.4819 -0.0247
  490MOL0     C64594   6.379   7.757   8.702 -0.2679  0.0277  0.0652
  490MOL0     O64595   6.608   7.639   8.575 -0.0397  0.0770 -0.3655
  490MOL0     C64596   6.821   7.485   8.665 -0.6623  0.6497  0.3127
  490MOL0     C64597   6.921   7.397   8.687  0.3256 -0.1875  0.4386
  490MOL0     N64598   7.526   6.917   8.922 -0.0617 -0.4995  0.6162
  490MOL0     N64599   7.657   6.907   8.919  0.4283  1.0701 -0.1667
  490MOL0     C64600   8.687   7.225   9.196 -0.3830 -0.7413 -0.6944
  490MOL0     C64601   8.825   7.193   9.226 -0.3759 -0.3286  1.2633
  490MOL0     C64602   9.254   7.283   9.320  0.1139  1.3137  0.3378
  490MOL0     C64603   9.329   7.204   9.229  0.1565  0.1810  1.0668
  490MOL0     C64604   9.471   7.218   9.220  0.9378 -0.1760  0.8625
  490MOL0     C64605   9.542   7.291   9.320  0.1389  0.3898  0.3491
  490MOL0     O64606   9.682   7.308   9.327  0.9190  0.0954 -0.3572
  490MOL0     C64607   9.759   7.253   9.220  0.7268  0.1955  0.1843
  490MOL0     C64608   9.909   7.253   9.248  0.5127  0.4860 -0.0238
  490MOL0     C64609   9.995   7.202   9.135 -0.3871  0.7151 -0.1712
  490MOL0     C64610  10.146   7.231   9.174  0.7583  0.0852  0.3184
  490MOL0     C64611  10.227   7.142   9.094  0.3300 -0.2161  0.1408
  490MOL0     C64612  10.278   7.056   9.027 -0.6117  0.0799 -0.3532
  490MOL0     C64613   9.463   7.363   9.414  0.5254  0.7390 -0.5158
  490MOL0     C64614   9.331   7.362   9.410  0.3141  0.2967  0.3684
  490MOL0     H64615   8.979   7.387   8.982 -1.3238  1.1248 -0.9668
  490MOL0     H64616   8.739   7.429   8.929 -0.2047 -0.3740 -0.9557
  490MOL0     H64617   8.386   7.310   9.200  1.2288  0.8627 -0.0616
  490MOL0     H64618   8.451   7.171   9.124 -1.5668 -0.8609  1.7762
  490MOL0     H64619   8.297   7.381   8.960 -2.5183  0.8430  1.4488
  490MOL0     H64620   8.222   7.245   9.051 -0.4612 -0.4715 -0.5142
  490MOL0     H64621   8.380   7.080   8.898  2.7760 -0.0376 -2.4863
  490MOL0     H64622   8.438   7.237   8.830 -0.7473  2.4822  1.7822
  490MOL0     H64623   8.235   7.295   8.745  0.5884  0.6782  2.0775
  490MOL0     H64624   8.316   7.154   8.679 -2.2538 -0.6809 -0.8696
  490MOL0     H64625   8.121   7.031   8.834  1.7275 -1.1166 -0.9063
  490MOL0     H64626   8.095   7.089   8.666  2.9132 -0.5854 -0.1766
  490MOL0     H64627   8.002   7.292   8.727  0.9005 -0.1770 -0.1682
  490MOL0     H64628   8.033   7.281   8.897 -1.2757 -0.6468  1.3618
  490MOL0     H64629   7.793   7.218   8.792 -0.6742 -1.4903  0.8599
  490MOL0     H64630   7.875   7.079   8.716 -1.1408 -0.9359 -0.0509
  490MOL0     H64631   7.868   7.126   9.013  2.6047 -0.2916 -0.8679
  490MOL0     H64632   7.906   6.974   8.937  0.6008  0.3748  1.4688
  490MOL0     H64633   7.610   7.234   8.916  3.2944  0.0971  1.1217
  490MOL0     H64634   7.315   7.058   9.036  0.7831 -1.0385  0.4464
  490MOL0     H64635   7.282   7.022   8.872 -1.2175 -1.8998  1.3663
  490MOL0     H64636   7.374   7.261   8.803 -1.1567 -1.3023 -0.2324
  490MOL0     H64637   7.368   7.311   8.965  0.5915  1.4475 -2.4585
  490MOL0     H64638   7.128   7.214   8.939  1.7555 -0.4164  0.3077
  490MOL0     H64639   7.153   7.369   8.860  0.3310  0.9442  0.0080
  490MOL0     H64640   7.170   7.101   8.711 -1.6759 -0.1759 -0.2035
  490MOL0     H64641   7.156   7.257   8.636 -1.3495 -1.1308 -1.2807
  490MOL0     H64642   6.734   7.127   8.785 -1.1457 -0.6766 -1.8126
  490MOL0     H64643   6.551   7.290   8.703  0.1728  0.7253 -2.9714
  490MOL0     H64644   6.207   7.464   8.719 -0.3115 -0.9958  0.0163
  490MOL0     H64645   6.025   7.611   8.708 -0.6399  0.6175 -3.1925
  490MOL0     H64646   5.855   7.803   8.694 -0.2638  0.2366  0.2553
  490MOL0     H64647   5.918   7.751   8.540  2.8378  1.1291 -1.3901
  490MOL0     H64648   5.863   8.047   8.609 -0.0135  1.8302 -1.9802
  490MOL0     H64649   5.727   7.945   8.567  0.0650 -0.6324  1.8867
  490MOL0     H64650   5.812   7.895   8.345  0.4411  0.1626 -0.0139
  490MOL0     H64651   5.972   7.954   8.398 -0.2822 -2.2348  0.1497
  490MOL0     H64652   5.856   8.185   8.416  1.1142 -0.9368 -0.3984
  490MOL0     H64653   5.877   8.111   8.263  1.5736 -4.2747  0.3518
  490MOL0     H64654   5.619   8.100   8.426  0.5870  0.2531  0.6600
  490MOL0     H64655   5.636   8.025   8.259  1.0307  1.1046 -0.7855
  490MOL0     H64656   5.668   8.259   8.170  0.6689 -0.1357  1.3212
  490MOL0     H64657   5.675   8.315   8.335 -0.9137  0.4853  0.2505
  490MOL0     H64658   5.451   8.332   8.194  1.1152  0.8072  0.3568
  490MOL0     H64659   5.422   8.168   8.250 -2.5461  0.3736  0.6475
  490MOL0     H64660   5.463   8.252   8.500  1.6930  3.0063  1.9091
  490MOL0     H64661   5.316   8.300   8.419 -0.4385 -0.2901 -1.9195
  490MOL0     H64662   6.299   7.943   8.686  1.0213 -0.6260 -2.0621
  490MOL0     H64663   6.475   7.804   8.719 -1.8239  2.0191  5.2056
  490MOL0     H64664   6.839   7.588   8.633 -4.3983  0.2444 -4.0600
  490MOL0     H64665   7.019   7.440   8.668  2.3541 -3.2254  2.9710
  490MOL0     H64666   8.617   7.182   9.268 -1.0065  0.7576 -0.3762
  490MOL0     H64667   8.849   7.132   9.313 -0.7787 -4.1225 -1.0195
  490MOL0     H64668   9.276   7.139   9.160  1.3945  1.5888 -1.3268
  490MOL0     H64669   9.516   7.166   9.135 -1.2891  1.5136 -1.4860
  490MOL0     H64670   9.723   7.304   9.130 -1.7425 -2.5403 -0.5558
  490MOL0     H64671   9.734   7.147   9.209  1.8621 -0.0098 -0.5052
  490MOL0     H64672   9.940   7.353   9.280 -1.1272  0.7491  0.8414
  490MOL0     H64673   9.930   7.191   9.336 -2.0315  0.1808  0.4409
  490MOL0     H64674   9.978   7.258   9.043 -0.8182  2.4178  0.8963
  490MOL0     H64675   9.974   7.095   9.129  0.8768  0.4482  0.0133
  490MOL0     H64676  10.168   7.337   9.161 -1.4430  1.3043  4.6209
  490MOL0     H64677  10.160   7.209   9.280  2.0922  3.0969  0.8751
  490MOL0     H64678  10.319   6.973   8.974  1.8963  2.0148 -1.6630
  490MOL0     H64679   9.526   7.409   9.490  1.7784 -0.2600 -0.9160
  490MOL0     H64680   9.265   7.424   9.471  0.2496 -0.9996  1.6616
  491MOL0     O64681   9.864   0.800  11.063 -0.1621  0.3368  0.2830
  491MOL0     C64682   9.818   0.857  10.965  0.0879  0.1531 -0.6151
  491MOL0     O64683   9.890   0.904  10.861  0.6733  0.2581 -0.4447
  491MOL0     C64684  10.024   0.881  10.880 -0.1738  0.6433  0.5881
  491MOL0     C64685  10.098   0.968  10.956  1.1676  0.8573  0.3416
  491MOL0     C64686  10.234   0.960  10.990 -0.2688 -0.2335  0.6989
  491MOL0     C64687  10.306   0.850  10.937  0.4012  0.3231 -0.3087
  491MOL0     O64688  10.441   0.835  10.960  0.6620  0.2897  0.4671
  491MOL0     C64689  10.467   0.710  11.024  0.7547 -0.9159  0.4267
  491MOL0     C64690  10.615   0.719  11.058  0.3592  1.2715  0.0857
  491MOL0     C64691  10.656   0.581  11.108  0.3098  0.3772 -0.5938
  491MOL0     C64692  10.603   0.549  11.252  0.3300 -0.3269 -0.0103
  491MOL0     C64693  10.637   0.408  11.298  0.8304 -0.5276 -0.4346
  491MOL0     C64694  10.592   0.390  11.447 -1.0614  0.2636  0.2411
  491MOL0     C64695  10.609   0.237  11.495  0.5548 -0.0669  0.1564
  491MOL0     C64696  10.584   0.220  11.643 -0.3777  0.6065 -0.2509
  491MOL0     N64697  10.452   0.264  11.692  0.6832 -0.2967  0.0089
  491MOL0     C64698  10.334   0.202  11.668 -0.5443  0.5177  0.3335
  491MOL0     C64699  10.239   0.289  11.704 -0.0061 -0.1032 -0.6819
  491MOL0     C64700  10.087   0.269  11.680 -0.1615 -0.2699  0.1084
  491MOL0     C64701  10.072   0.312  11.534 -0.1036  0.3325  0.0972
  491MOL0     C64702   9.932   0.290  11.483  0.5547  0.5587  0.5114
  491MOL0     C64703   9.836   0.385  11.557 -0.3910 -0.0256  1.1456
  491MOL0     O64704   9.710   0.392  11.480 -0.1914 -0.2073 -0.1573
  491MOL0     C64705   9.634   0.509  11.486  0.2473  0.2582  0.2597
  491MOL0     C64706   9.647   0.600  11.585  0.9230 -0.0278 -0.5594
  491MOL0     C64707   9.557   0.704  11.608 -0.2047  0.1734 -0.7286
  491MOL0     C64708   9.446   0.723  11.527  0.9208  0.5190 -0.2396
  491MOL0     C64709   9.345   0.832  11.564  0.2211  0.1238  0.2547
  491MOL0     O64710   9.387   0.923  11.658  1.1547 -0.2680 -0.0206
  491MOL0     C64711   9.307   1.028  11.686  0.1399 -0.3972  0.3571
  491MOL0     C64712   9.170   1.009  11.728  0.1770 -0.1410  0.0371
  491MOL0     C64713   9.090   1.119  11.780  0.1770  0.2387 -0.5636
  491MOL0     C64714   9.153   1.248  11.789  0.1918 -0.8213  0.1499
  491MOL0     O64715   9.073   1.348  11.850 -0.4269 -0.2920 -0.3633
  491MOL0     C64716   9.120   1.483  11.852  0.0129 -0.0512 -0.6889
  491MOL0     C64717   8.999   1.556  11.886 -0.5219 -0.6651 -0.1004
  491MOL0     C64718   8.908   1.557  11.765  1.1576  0.5813  0.0068
  491MOL0     C64719   8.760   1.573  11.796  0.2691 -0.7826 -0.6054
  491MOL0     C64720   8.674   1.567  11.663 -1.0917  0.5056 -0.3203
  491MOL0     C64721   8.523   1.582  11.690  0.4018  0.4657  0.2866
  491MOL0     C64722   8.486   1.734  11.718  0.4251  0.7826  0.6108
  491MOL0     C64723   8.334   1.743  11.758  0.0507  0.5247  0.2521
  491MOL0    Cl64724   8.290   1.681  11.920 -0.2164 -0.3448  0.7454
  491MOL0     C64725   9.291   1.265  11.748  0.7702  0.2226  0.2492
  491MOL0     C64726   9.355   1.157  11.685  0.1600  0.4302  0.2200
  491MOL0     O64727   9.246   0.841  11.489 -0.0007  0.6264 -0.6579
  491MOL0     C64728   9.430   0.634  11.419  0.9429 -0.1664  0.1918
  491MOL0     C64729   9.528   0.533  11.391 -0.0109 -0.1118 -0.1538
  491MOL0     N64730  10.296   0.401  11.765  0.9191  0.0110 -0.1078
  491MOL0     N64731  10.426   0.379  11.768 -0.5028 -0.9984  0.8532
  491MOL0     C64732  10.234   0.761  10.851 -0.4448 -0.2076  0.3165
  491MOL0     C64733  10.094   0.779  10.823  0.4963  1.3169 -0.0919
  491MOL0     C64734   9.670   0.884  10.975 -0.5549 -0.0576 -0.1630
  491MOL0     C64735   9.607   0.999  10.919  0.4163  0.8472 -0.2152
  491MOL0     C64736   9.471   1.019  10.938  1.5796  0.1393  0.0689
  491MOL0     C64737   9.385   0.931  11.005  0.2771  0.3141  1.2272
  491MOL0     O64738   9.252   0.973  11.001  0.0928 -0.3573  0.8915
  491MOL0     C64739   9.148   0.873  11.032 -0.2206 -0.5386  0.1601
  491MOL0     C64740   9.099   0.883  11.172 -0.2630  0.0602 -0.5847
  491MOL0     C64741   9.041   1.019  11.197 -0.6937 -0.7653 -1.1818
  491MOL0     C64742   9.054   1.055  11.350  0.0587  0.2414  0.3494
  491MOL0     C64743   8.979   1.175  11.399  0.1999 -0.4448  0.8797
  491MOL0     C64744   8.938   1.283  11.429  0.4254 -0.0867 -0.3334
  491MOL0     C64745   9.439   0.813  11.057 -0.0779 -0.2414 -0.1202
  491MOL0     C64746   9.582   0.796  11.042 -0.5102  0.5269 -0.4947
  491MOL0     H64747  10.052   1.057  10.999 -0.0768 -0.2509  1.3745
  491MOL0     H64748  10.282   1.033  11.054 -0.0255  1.0249 -0.8670
  491MOL0     H64749  10.443   0.620  10.967  1.6111 -1.4808  0.9408
  491MOL0     H64750  10.411   0.707  11.118  0.1317 -0.1535  0.1003
  491MOL0     H64751  10.644   0.799  11.127  2.0729  0.5698  0.2215
  491MOL0     H64752  10.664   0.733  10.961 -0.4297 -3.6968 -1.3315
  491MOL0     H64753  10.765   0.569  11.116  0.0138 -0.8604  3.6963
  491MOL0     H64754  10.615   0.509  11.037 -2.4210 -0.8811  2.0521
  491MOL0     H64755  10.648   0.623  11.319  0.7604  0.4533 -1.1361
  491MOL0     H64756  10.496   0.569  11.239  0.8681  3.8376  0.7024
  491MOL0     H64757  10.747   0.405  11.301  0.9806  2.2120 -0.5123
  491MOL0     H64758  10.600   0.331  11.231  0.0212 -1.7214  1.3207
  491MOL0     H64759  10.487   0.415  11.463 -1.0259  0.6860 -0.1551
  491MOL0     H64760  10.663   0.442  11.512  0.0032  0.2519 -0.8755
  491MOL0     H64761  10.541   0.183  11.427  1.6787 -0.0765 -0.9951
  491MOL0     H64762  10.707   0.197  11.469 -0.5390 -2.2303 -1.0220
  491MOL0     H64763  10.666   0.274  11.691  0.8892 -2.5862  1.4466
  491MOL0     H64764  10.593   0.116  11.675  0.7177  1.0317  0.8688
  491MOL0     H64765  10.320   0.108  11.616 -1.3096  1.3327 -1.0056
  491MOL0     H64766  10.032   0.329  11.753 -1.9902 -0.7880 -0.7620
  491MOL0     H64767  10.077   0.160  11.691  2.1767 -0.6676 -1.1692
  491MOL0     H64768  10.138   0.260  11.464 -1.2492 -1.6339  0.4009
  491MOL0     H64769  10.104   0.415  11.513  1.9905 -0.7396 -2.6073
  491MOL0     H64770   9.918   0.287  11.375 -0.6054  1.5145  0.6123
  491MOL0     H64771   9.897   0.194  11.523  2.6815 -0.4121  0.1272
  491MOL0     H64772   9.883   0.482  11.573  0.0726  0.3666 -1.8528
  491MOL0     H64773   9.814   0.350  11.658 -0.6886 -1.5528  0.5733
  491MOL0     H64774   9.731   0.590  11.653  1.8384  1.7794 -1.3773
  491MOL0     H64775   9.579   0.788  11.674  0.0834  1.9237 -2.9184
  491MOL0     H64776   9.131   0.909  11.711 -1.2893  0.5397 -0.7880
  491MOL0     H64777   8.984   1.104  11.797  0.1371  1.5838  0.5989
  491MOL0     H64778   9.157   1.507  11.752 -1.4282 -0.1031 -1.2585
  491MOL0     H64779   9.199   1.495  11.926 -0.6976 -1.5620  0.3488
  491MOL0     H64780   9.035   1.658  11.902  0.6307 -1.0144 -0.3844
  491MOL0     H64781   8.947   1.512  11.972  0.6483 -1.2564  0.3285
  491MOL0     H64782   8.909   1.460  11.716  0.3580 -1.8466  4.2738
  491MOL0     H64783   8.948   1.631  11.695  1.0051  0.2227 -0.4588
  491MOL0     H64784   8.732   1.501  11.873 -2.5707 -0.3211 -1.1018
  491MOL0     H64785   8.741   1.673  11.836  0.4954 -1.0970  0.3078
  491MOL0     H64786   8.696   1.470  11.618  2.5125  0.6278  0.8416
  491MOL0     H64787   8.706   1.645  11.593 -2.3066  1.9990  0.7210
  491MOL0     H64788   8.500   1.524  11.781  3.7141 -1.3389  0.1215
  491MOL0     H64789   8.455   1.540  11.616  0.8263 -1.0296  0.7070
  491MOL0     H64790   8.537   1.774  11.806 -0.3358  0.5686  1.1593
  491MOL0     H64791   8.487   1.793  11.626 -3.7924 -1.0211 -0.8493
  491MOL0     H64792   8.279   1.689  11.681  0.1744 -2.1615  1.9290
  491MOL0     H64793   8.312   1.850  11.748  1.4050  0.8805  0.9555
  491MOL0     H64794   9.340   1.361  11.735  1.3378 -0.1199 -0.2116
  491MOL0     H64795   9.455   1.157  11.644 -0.7977  0.3360 -2.2449
  491MOL0     H64796   9.353   0.647  11.344  0.0547 -2.6763  0.5806
  491MOL0     H64797   9.519   0.469  11.304 -0.9996  0.6927 -0.6543
  491MOL0     H64798  10.299   0.703  10.785 -0.3017  0.8666 -0.5021
  491MOL0     H64799  10.061   0.708  10.749  0.9122  1.4471 -0.4042
  491MOL0     H64800   9.651   1.071  10.850  1.9679 -1.0398 -1.2848
  491MOL0     H64801   9.437   1.112  10.892  1.1927 -0.1748 -0.2872
  491MOL0     H64802   9.176   0.769  11.012 -1.7965 -1.0925  0.6241
  491MOL0     H64803   9.063   0.896  10.966 -1.1472  0.7258  1.7223
  491MOL0     H64804   9.021   0.810  11.197 -0.7966  0.5051 -0.9247
  491MOL0     H64805   9.178   0.853  11.242  0.1594  1.4693 -0.4320
  491MOL0     H64806   8.948   1.034  11.142  0.8897  0.1129 -3.8378
  491MOL0     H64807   9.109   1.084  11.141  0.4001 -0.5854  0.3162
  491MOL0     H64808   9.014   0.971  11.407  0.8271  0.6608  1.5465
  491MOL0     H64809   9.159   1.076  11.376  0.2550  2.0582 -1.6252
  491MOL0     H64810   8.893   1.379  11.451 -1.3583 -0.5362 -1.7174
  491MOL0     H64811   9.375   0.742  11.108  1.6914 -2.1863 -0.5011
  491MOL0     H64812   9.627   0.702  11.072  0.2450  1.1892  0.5287
  492MOL0     O64813   9.578   3.868   2.969  0.0843 -0.5771 -0.4384
  492MOL0     C64814   9.654   3.965   2.953  0.0098 -0.2336  0.5783
  492MOL0     O64815   9.621   4.101   2.938  0.4061  1.0227 -0.4584
  492MOL0     C64816   9.492   4.133   2.967  0.2203 -0.6104 -0.5024
  492MOL0     C64817   9.455   4.208   3.084 -0.6280 -0.2030 -0.1850
  492MOL0     C64818   9.323   4.217   3.126  0.5743  0.0000 -1.0293
  492MOL0     C64819   9.223   4.179   3.046  1.1443 -0.1908  1.0619
  492MOL0     O64820   9.094   4.194   3.100 -0.1267 -0.3301  0.0639
  492MOL0     C64821   9.010   4.249   2.991 -0.2880 -0.1639 -0.0387
  492MOL0     C64822   8.872   4.307   3.037 -0.8682  0.3749  0.5506
  492MOL0     C64823   8.879   4.436   3.116 -0.2831  1.2259 -0.0751
  492MOL0     C64824   8.735   4.491   3.154  0.1602  0.2596 -0.0754
  492MOL0     C64825   8.643   4.388   3.229  0.1905 -0.0230  0.1182
  492MOL0     C64826   8.536   4.455   3.314 -0.9577 -0.2001 -0.4131
  492MOL0     C64827   8.437   4.367   3.380 -0.1085  0.4183 -0.1729
  492MOL0     C64828   8.344   4.438   3.476 -0.0025  0.3835  0.5203
  492MOL0     N64829   8.238   4.524   3.421 -0.1321  0.3075  0.0347
  492MOL0     C64830   8.141   4.483   3.332 -0.3501 -0.5799 -1.1392
  492MOL0     C64831   8.076   4.596   3.300 -0.1385 -0.1603 -0.4795
  492MOL0     C64832   7.947   4.592   3.231  0.9813 -0.5051 -0.4061
  492MOL0     C64833   7.910   4.704   3.130 -0.1961 -0.7267 -0.4827
  492MOL0     C64834   7.889   4.852   3.166 -0.0899  0.6788  0.6825
  492MOL0     C64835   7.785   4.850   3.281 -0.1038  0.3751 -0.5862
  492MOL0     O64836   7.747   4.985   3.328 -0.3364  0.0004 -0.2121
  492MOL0     C64837   7.836   5.052   3.416 -0.1738  0.6938  0.2385
  492MOL0     C64838   7.957   5.005   3.472  0.0500  0.2430 -0.0531
  492MOL0     C64839   8.032   5.091   3.546  0.2399 -0.6010 -0.3951
  492MOL0     C64840   7.994   5.219   3.586  0.7192  0.3521 -0.1715
  492MOL0     C64841   8.080   5.305   3.665 -0.0881  0.0633  0.0573
  492MOL0     O64842   8.034   5.428   3.679 -0.4574  0.5733  0.5489
  492MOL0     C64843   8.105   5.529   3.742  0.1139  0.3996  1.4460
  492MOL0     C64844   8.064   5.588   3.855  0.0580 -0.6569 -0.3147
  492MOL0     C64845   8.141   5.679   3.920  0.0777  0.1525 -0.0677
  492MOL0     C64846   8.258   5.728   3.857  0.5559  0.5532 -0.5557
  492MOL0     O64847   8.326   5.830   3.904 -0.0767 -0.7210 -0.1499
  492MOL0     C64848   8.467   5.809   3.925 -0.4438  0.1124 -0.3653
  492MOL0     C64849   8.513   5.681   3.996 -0.9280 -0.1909 -0.2865
  492MOL0     C64850   8.498   5.684   4.153  0.1017 -0.0241 -0.0444
  492MOL0     C64851   8.590   5.784   4.220 -0.3886  0.5208  0.2543
  492MOL0     C64852   8.617   5.761   4.376 -0.3995  0.7001  0.7769
  492MOL0     C64853   8.661   5.894   4.428 -0.1632  0.2820 -0.4737
  492MOL0     C64854   8.719   5.856   4.566  0.5053 -0.6926 -0.7606
  492MOL0     C64855   8.770   5.980   4.638 -0.6387 -0.7502  0.3577
  492MOL0    Cl64856   8.621   6.074   4.664  0.5060  0.4816  0.3081
  492MOL0     C64857   8.307   5.667   3.739 -0.7098 -0.4109  0.0997
  492MOL0     C64858   8.224   5.570   3.689 -0.6851  0.5433 -0.4475
  492MOL0     O64859   8.191   5.262   3.713  1.1708 -0.1619  0.6448
  492MOL0     C64860   7.873   5.269   3.527  0.1335 -0.4123  0.5604
  492MOL0     C64861   7.797   5.179   3.448  0.3881 -0.1491 -0.8677
  492MOL0     N64862   8.145   4.708   3.353 -0.6695 -0.0943 -0.3047
  492MOL0     N64863   8.239   4.660   3.426  0.2394  0.3601  0.9055
  492MOL0     C64864   9.253   4.113   2.922 -0.1098  0.6727 -0.3055
  492MOL0     C64865   9.385   4.090   2.883 -0.1779 -0.6580 -0.1244
  492MOL0     C64866   9.798   3.944   2.936  0.7830 -0.3354  0.1696
  492MOL0     C64867   9.892   4.045   2.984  0.0488  0.4463 -0.1524
  492MOL0     C64868  10.028   4.029   2.963 -0.1487  0.3545  0.5033
  492MOL0     C64869  10.081   3.915   2.910 -0.0479  0.5506 -0.9264
  492MOL0     O64870  10.213   3.890   2.882  0.1909  0.8654  0.9515
  492MOL0     C64871  10.307   4.007   2.871  0.3564  0.3973  0.5893
  492MOL0     C64872  10.439   3.955   2.814  0.0695  0.5985  0.5258
  492MOL0     C64873  10.407   3.930   2.662 -0.5887 -0.1436 -0.4300
  492MOL0     C64874  10.533   3.873   2.582  0.0487  0.6994  0.0508
  492MOL0     C64875  10.556   3.736   2.624 -0.8001  0.3060 -0.1606
  492MOL0     C64876  10.551   3.623   2.669 -0.1258 -0.6255 -0.1854
  492MOL0     C64877   9.990   3.818   2.871 -0.4760 -0.3194  0.8850
  492MOL0     C64878   9.851   3.827   2.881  0.7516 -0.1171 -1.6498
  492MOL0     H64879   9.537   4.251   3.141 -0.4878 -0.9622  0.1971
  492MOL0     H64880   9.304   4.259   3.225 -1.3167  1.2285 -1.8601
  492MOL0     H64881   9.000   4.165   2.922 -2.3369  0.8223 -1.0540
  492MOL0     H64882   9.059   4.331   2.938 -0.2950  1.0458  1.7224
  492MOL0     H64883   8.816   4.239   3.102 -1.3304 -0.2879 -0.5114
  492MOL0     H64884   8.820   4.334   2.945  1.7129 -1.4559 -1.5925
  492MOL0     H64885   8.936   4.504   3.051  0.0115  1.1956  0.1481
  492MOL0     H64886   8.935   4.429   3.210 -1.1435 -1.3357  0.3120
  492MOL0     H64887   8.751   4.580   3.215 -0.3083  1.2054 -1.2900
  492MOL0     H64888   8.691   4.530   3.061 -0.2940  1.6932  0.7150
  492MOL0     H64889   8.696   4.320   3.296  0.5697 -0.0949 -0.2486
  492MOL0     H64890   8.615   4.320   3.149  2.4476 -1.1009  0.1468
  492MOL0     H64891   8.493   4.532   3.249  2.4698  1.0500 -1.3930
  492MOL0     H64892   8.594   4.513   3.386 -0.2620 -0.8517 -0.4421
  492MOL0     H64893   8.385   4.322   3.296  2.4515  0.8497 -2.1398
  492MOL0     H64894   8.494   4.297   3.442  2.6141  2.3935 -0.2387
  492MOL0     H64895   8.414   4.491   3.541  0.2781 -1.3677  1.6971
  492MOL0     H64896   8.301   4.355   3.532 -0.3963 -0.3184 -0.7790
  492MOL0     H64897   8.104   4.384   3.307  1.7603 -0.9642 -3.0145
  492MOL0     H64898   7.868   4.599   3.306  0.6032  1.9797 -0.9734
  492MOL0     H64899   7.939   4.491   3.189 -3.8444 -1.0496  1.2122
  492MOL0     H64900   7.831   4.670   3.061  1.3260  2.2513 -4.0619
  492MOL0     H64901   7.999   4.696   3.066  0.4370  3.1218 -0.3325
  492MOL0     H64902   7.983   4.899   3.195  1.3928 -1.8423  0.2625
  492MOL0     H64903   7.849   4.911   3.083  0.8460  0.1126 -0.1928
  492MOL0     H64904   7.830   4.787   3.358  2.8565  3.0374  0.0502
  492MOL0     H64905   7.693   4.802   3.246 -1.8426  1.6384  1.9937
  492MOL0     H64906   7.992   4.908   3.437  0.8351  0.5747 -0.2068
  492MOL0     H64907   8.128   5.057   3.584 -1.4919 -2.7268  2.5341
  492MOL0     H64908   7.968   5.564   3.899  1.3904 -1.2196  2.5243
  492MOL0     H64909   8.101   5.727   4.008  2.1586 -3.5297  3.1696
  492MOL0     H64910   8.507   5.896   3.978  0.0560  0.5689 -1.4579
  492MOL0     H64911   8.518   5.808   3.828  3.1317  1.7981  1.2840
  492MOL0     H64912   8.619   5.666   3.978 -0.9613 -1.5429  0.4888
  492MOL0     H64913   8.461   5.591   3.962  1.5998 -1.5806 -0.6819
  492MOL0     H64914   8.517   5.580   4.179 -2.2598 -0.4769  0.1164
  492MOL0     H64915   8.397   5.699   4.193  0.8579 -1.3454  2.5925
  492MOL0     H64916   8.691   5.779   4.176  0.2563 -3.3769  1.7956
  492MOL0     H64917   8.560   5.887   4.199  0.4925  0.8255  0.4564
  492MOL0     H64918   8.696   5.686   4.388 -2.1757 -1.2445  0.9562
  492MOL0     H64919   8.527   5.736   4.433 -0.0262  0.8930  1.4483
  492MOL0     H64920   8.578   5.964   4.438  0.7912  1.1587  3.1106
  492MOL0     H64921   8.745   5.944   4.379  1.9349 -2.6078 -0.1362
  492MOL0     H64922   8.633   5.811   4.617  0.7747 -1.4663 -0.9648
  492MOL0     H64923   8.801   5.783   4.557 -1.8457 -3.6542  0.0716
  492MOL0     H64924   8.843   6.036   4.580 -1.3180 -1.1843 -0.9691
  492MOL0     H64925   8.817   5.962   4.735  1.8419 -2.2348 -1.0214
  492MOL0     H64926   8.402   5.686   3.691 -1.0421 -0.5038 -0.6163
  492MOL0     H64927   8.245   5.518   3.597 -0.2799 -0.4890  0.2119
  492MOL0     H64928   7.843   5.373   3.528  2.1427  0.3647 -3.0125
  492MOL0     H64929   7.706   5.221   3.405  1.4525  1.1981 -1.8718
  492MOL0     H64930   9.190   4.056   2.854  1.0456  0.7082 -1.4481
  492MOL0     H64931   9.413   4.028   2.798  0.4178 -1.5554  0.7103
  492MOL0     H64932   9.860   4.137   3.031  2.6848  0.1483  2.5138
  492MOL0     H64933  10.091   4.114   2.984  2.6808 -1.8554  1.6905
  492MOL0     H64934  10.321   4.042   2.974 -2.6330  0.2751  1.1162
  492MOL0     H64935  10.272   4.092   2.811 -1.4550 -0.6846  0.0361
  492MOL0     H64936  10.516   4.024   2.851 -0.7830 -0.4396  4.7897
  492MOL0     H64937  10.452   3.853   2.849 -0.6486  0.3870  0.1945
  492MOL0     H64938  10.374   4.017   2.603  1.0676 -1.0244 -2.8338
  492MOL0     H64939  10.322   3.863   2.647 -1.3559  0.2198  1.8680
  492MOL0     H64940  10.513   3.881   2.475 -0.5341  1.6477  0.2140
  492MOL0     H64941  10.623   3.931   2.606  1.7420 -0.7486 -2.2842
  492MOL0     H64942  10.566   3.525   2.709 -2.7778 -1.5523 -1.3089
  492MOL0     H64943  10.020   3.726   2.822 -0.6919  0.1732 -0.2186
  492MOL0     H64944   9.774   3.756   2.855 -1.8160  1.8330  0.0916
  493MOL0     O64945   2.711   4.563   7.246 -0.2495  1.2777 -0.5134
  493MOL0     C64946   2.750   4.483   7.337  0.5356  0.3120 -0.4275
  493MOL0     O64947   2.879   4.446   7.367 -0.8269 -0.4215  0.2944
  493MOL0     C64948   2.974   4.520   7.309 -0.5344 -1.3810 -0.4681
  493MOL0     C64949   3.074   4.453   7.253  0.0502  0.5489  0.1880
  493MOL0     C64950   3.185   4.510   7.195  0.8663 -0.9065  0.6426
  493MOL0     C64951   3.198   4.652   7.201  0.9500 -0.6461  0.7164
  493MOL0     O64952   3.307   4.706   7.137  0.3171 -0.1028  0.1340
  493MOL0     C64953   3.362   4.830   7.191 -0.1992  0.4779 -0.0719
  493MOL0     C64954   3.501   4.864   7.113 -0.2510  0.9780  0.1088
  493MOL0     C64955   3.600   4.750   7.107  0.3202  0.0496  0.6894
  493MOL0     C64956   3.723   4.790   7.017 -0.0061  0.2012 -0.4234
  493MOL0     C64957   3.815   4.896   7.069  0.2028 -0.2087 -0.4778
  493MOL0     C64958   3.879   4.866   7.211 -0.1897  0.6379 -0.5183
  493MOL0     C64959   3.975   4.752   7.204 -0.2218  0.1165 -0.7351
  493MOL0     C64960   4.081   4.758   7.303  0.4253 -0.4012  0.4119
  493MOL0     N64961   4.018   4.741   7.438  0.4497 -0.1173 -0.7693
  493MOL0     C64962   3.959   4.634   7.493 -0.2927  0.0493  0.4795
  493MOL0     C64963   3.904   4.679   7.609  0.7699  0.2565  0.0398
  493MOL0     C64964   3.809   4.606   7.708 -0.0991 -0.8517 -0.3486
  493MOL0     C64965   3.803   4.671   7.846  0.0602 -0.5269 -0.1631
  493MOL0     C64966   3.698   4.606   7.939 -0.2718 -0.1165  0.4909
  493MOL0     C64967   3.691   4.661   8.079  0.1371  0.8727 -0.4931
  493MOL0     O64968   3.638   4.567   8.175  0.2465 -0.9658  0.0205
  493MOL0     C64969   3.509   4.545   8.186  0.0131  0.4448 -0.0658
  493MOL0     C64970   3.407   4.608   8.115  0.2116  0.1133 -0.9460
  493MOL0     C64971   3.277   4.588   8.152  0.7719 -1.4686 -0.1382
  493MOL0     C64972   3.242   4.502   8.253  0.2480 -0.9362 -0.8246
  493MOL0     C64973   3.104   4.488   8.302  0.3799 -0.2328 -0.4783
  493MOL0     O64974   3.010   4.560   8.229 -0.2114  0.2081 -0.0864
  493MOL0     C64975   2.882   4.542   8.276 -0.3574 -0.1033 -0.7185
  493MOL0     C64976   2.799   4.652   8.289 -0.7823  0.6726 -1.1252
  493MOL0     C64977   2.663   4.644   8.340  0.3190  0.0728  0.1155
  493MOL0     C64978   2.599   4.527   8.345  0.2293  1.0315  0.0120
  493MOL0     O64979   2.460   4.498   8.378  0.2585 -0.9836  0.1972
  493MOL0     C64980   2.414   4.571   8.496  0.3038 -1.2911  0.5326
  493MOL0     C64981   2.331   4.481   8.590 -0.1164 -0.0719 -0.4344
  493MOL0     C64982   2.263   4.564   8.702 -0.1085 -1.0434  0.7632
  493MOL0     C64983   2.166   4.488   8.796 -0.2990 -0.2939 -0.1443
  493MOL0     C64984   2.141   4.552   8.933 -0.1500 -0.0436 -0.0800
  493MOL0     C64985   2.044   4.460   9.018  0.4082 -0.5951  0.4094
  493MOL0     C64986   2.053   4.511   9.163 -0.0042 -0.4640 -1.0241
  493MOL0     C64987   1.933   4.474   9.251  0.0594 -0.5686  0.6165
  493MOL0    Cl64988   1.973   4.554   9.411  0.1572 -0.2661  0.3272
  493MOL0     C64989   2.679   4.412   8.315  0.1544 -0.0528 -0.2335
  493MOL0     C64990   2.815   4.421   8.293 -0.6470 -0.2188 -0.3639
  493MOL0     O64991   3.083   4.424   8.404  0.0401  0.3376  0.8936
  493MOL0     C64992   3.351   4.443   8.326  0.1311  0.3509  0.2869
  493MOL0     C64993   3.481   4.460   8.289 -0.0728 -0.0095  0.3756
  493MOL0     N64994   3.943   4.808   7.623 -0.0989  0.0481 -1.0829
  493MOL0     N64995   4.013   4.846   7.526 -0.4164  0.6231  0.2138
  493MOL0     C64996   3.084   4.728   7.256 -0.0861  0.4165  0.0248
  493MOL0     C64997   2.976   4.664   7.319  0.5941 -0.1826  0.2852
  493MOL0     C64998   2.649   4.410   7.412 -0.3297 -0.4937  0.0832
  493MOL0     C64999   2.518   4.440   7.427 -0.2343  0.1584 -0.7318
  493MOL0     C65000   2.432   4.343   7.488 -0.0559  0.1402  0.1285
  493MOL0     C65001   2.473   4.213   7.521 -0.7353  0.0819  0.1011
  493MOL0     O65002   2.387   4.136   7.586  0.4061 -0.1062 -0.0448
  493MOL0     C65003   2.435   4.010   7.638  0.2695  0.0077 -0.5023
  493MOL0     C65004   2.313   3.950   7.715  0.1419  0.1207  0.4033
  493MOL0     C65005   2.195   3.919   7.619  0.1898  0.2714 -0.0304
  493MOL0     C65006   2.060   3.932   7.690  0.0794 -0.3857  0.3178
  493MOL0     C65007   1.997   4.061   7.690 -0.2891 -1.2935 -0.4538
  493MOL0     C65008   1.935   4.162   7.675  0.2194  0.1294  0.3106
  493MOL0     C65009   2.611   4.185   7.503  0.3871  0.2882 -0.1472
  493MOL0     C65010   2.696   4.278   7.450 -0.5178 -1.0907 -1.1755
  493MOL0     H65011   3.079   4.345   7.253  0.1242  0.5522  0.0915
  493MOL0     H65012   3.261   4.458   7.138  1.8548  1.2212 -0.1160
  493MOL0     H65013   3.394   4.806   7.293  2.0018  2.6453 -0.1647
  493MOL0     H65014   3.294   4.915   7.188 -1.1723 -0.1651  2.2152
  493MOL0     H65015   3.529   4.950   7.175  0.2138 -0.1293  1.4762
  493MOL0     H65016   3.463   4.897   7.016 -2.1874 -0.2599  0.3905
  493MOL0     H65017   3.555   4.660   7.066 -0.0719 -0.2682  1.7710
  493MOL0     H65018   3.639   4.728   7.207  0.3227 -0.5365  0.5581
  493MOL0     H65019   3.790   4.706   7.000  2.2346  1.3976  1.8433
  493MOL0     H65020   3.681   4.812   6.919 -0.8643 -1.0284 -0.3560
  493MOL0     H65021   3.771   4.996   7.067  1.6831  0.4547 -1.3566
  493MOL0     H65022   3.898   4.900   6.999 -0.4975 -1.0136 -1.3949
  493MOL0     H65023   3.804   4.848   7.289 -0.0898 -2.4449 -1.0213
  493MOL0     H65024   3.926   4.958   7.247 -1.6589  1.5565 -0.8368
  493MOL0     H65025   3.922   4.657   7.215 -0.2223  0.3051  1.3881
  493MOL0     H65026   4.022   4.754   7.105  1.1003 -0.8832 -0.1745
  493MOL0     H65027   4.127   4.857   7.302  0.7833 -0.5515 -1.2617
  493MOL0     H65028   4.157   4.683   7.280  0.2247 -0.9232  1.3868
  493MOL0     H65029   3.961   4.536   7.446  0.7857  0.9528 -1.4645
  493MOL0     H65030   3.840   4.503   7.728  0.2504 -0.7245 -0.2316
  493MOL0     H65031   3.711   4.603   7.659 -0.9842 -0.8178  1.3656
  493MOL0     H65032   3.755   4.770   7.844 -0.7533 -0.6349  3.8052
  493MOL0     H65033   3.903   4.690   7.887  2.7575  0.0908 -6.1053
  493MOL0     H65034   3.600   4.607   7.890  0.4079  0.4669 -0.9029
  493MOL0     H65035   3.729   4.501   7.949  4.0858  0.8610 -0.5676
  493MOL0     H65036   3.625   4.748   8.071 -3.4076 -1.5753 -0.1542
  493MOL0     H65037   3.788   4.695   8.116  0.2776 -0.1230  0.0702
  493MOL0     H65038   3.427   4.673   8.030  2.4419  1.6488  0.6208
  493MOL0     H65039   3.207   4.648   8.094 -0.6700 -1.8585  1.1270
  493MOL0     H65040   2.845   4.745   8.257  1.1937 -0.4251 -1.6365
  493MOL0     H65041   2.606   4.735   8.358 -1.0610 -0.4517 -1.3787
  493MOL0     H65042   2.361   4.661   8.464  1.8534 -0.3438  0.5030
  493MOL0     H65043   2.501   4.613   8.548  0.0574 -1.5090  1.1270
  493MOL0     H65044   2.394   4.406   8.639 -0.4308 -1.1979 -1.7104
  493MOL0     H65045   2.254   4.431   8.530 -0.4449 -0.3719  0.2255
  493MOL0     H65046   2.217   4.651   8.653  2.6472  0.1617  0.0932
  493MOL0     H65047   2.345   4.605   8.761  0.1046 -2.2697  1.3337
  493MOL0     H65048   2.075   4.473   8.737  1.1630 -0.1148 -2.6156
  493MOL0     H65049   2.215   4.393   8.818  0.9660  0.7568  1.9537
  493MOL0     H65050   2.096   4.651   8.925 -1.9591 -0.3586  3.9544
  493MOL0     H65051   2.239   4.550   8.983  0.0802 -0.5255 -0.5394
  493MOL0     H65052   2.073   4.355   9.022 -1.6168 -1.4842 -3.4520
  493MOL0     H65053   1.941   4.472   8.983  0.7767 -0.8572 -0.7888
  493MOL0     H65054   2.143   4.466   9.205 -1.2439 -1.1634  1.0695
  493MOL0     H65055   2.053   4.620   9.172 -1.4340 -0.5973  2.0315
  493MOL0     H65056   1.937   4.368   9.277  0.8631 -0.8327 -0.5039
  493MOL0     H65057   1.835   4.506   9.214  2.3443  3.8756 -2.5156
  493MOL0     H65058   2.647   4.309   8.324  0.2902 -0.0336  0.5044
  493MOL0     H65059   2.862   4.323   8.289 -0.6830 -0.2306 -0.4940
  493MOL0     H65060   3.330   4.379   8.411  1.9915  0.2094  0.6970
  493MOL0     H65061   3.570   4.407   8.324 -0.2873 -3.0811 -3.1192
  493MOL0     H65062   3.092   4.836   7.248 -0.2062  0.3882 -0.4885
  493MOL0     H65063   2.902   4.721   7.375  1.5854  2.8289 -1.2779
  493MOL0     H65064   2.477   4.537   7.401 -0.0363  0.2901 -0.5602
  493MOL0     H65065   2.334   4.381   7.515  0.7507  0.8777  2.2228
  493MOL0     H65066   2.508   4.035   7.716 -1.9310  1.6564  1.1572
  493MOL0     H65067   2.490   3.946   7.568  1.0110  2.2485 -2.0766
  493MOL0     H65068   2.349   3.856   7.757  4.2115  1.3187  0.0205
  493MOL0     H65069   2.293   4.015   7.801  1.5110 -1.6865  2.1817
  493MOL0     H65070   2.209   3.814   7.595 -1.7518 -0.0753  0.1861
  493MOL0     H65071   2.206   3.977   7.527  3.0341 -1.8739 -1.1688
  493MOL0     H65072   1.994   3.863   7.636  3.1094 -1.2112 -2.6404
  493MOL0     H65073   2.079   3.904   7.794 -0.0654 -0.1738  0.4029
  493MOL0     H65074   1.872   4.249   7.672 -0.4094 -0.3310 -0.1006
  493MOL0     H65075   2.646   4.086   7.533 -1.4076 -0.0442  0.9727
  493MOL0     H65076   2.798   4.240   7.458 -1.4867 -3.4915  1.7965
  494MOL0     O65077   7.877   0.492   3.210 -0.0900  0.2910  0.3878
  494MOL0     C65078   7.929   0.406   3.275 -0.3668  0.1330  0.4156
  494MOL0     O65079   7.865   0.326   3.369  0.2931 -0.3983 -0.2608
  494MOL0     C65080   7.732   0.330   3.394  0.5739  0.0849 -1.0774
  494MOL0     C65081   7.700   0.324   3.530  0.5870 -0.3579 -0.5905
  494MOL0     C65082   7.561   0.315   3.569 -0.3588  0.8833  0.2788
  494MOL0     C65083   7.461   0.319   3.471 -0.4506  0.0064 -0.2947
  494MOL0     O65084   7.331   0.295   3.526 -0.3086  0.7992 -0.0947
  494MOL0     C65085   7.230   0.270   3.429  0.3872  0.2470 -0.1101
  494MOL0     C65086   7.111   0.203   3.502  0.2017  0.2551  0.2872
  494MOL0     C65087   6.981   0.215   3.432  0.4277  0.0110 -0.1614
  494MOL0     C65088   6.863   0.142   3.514 -0.3050 -0.3020  0.4917
  494MOL0     C65089   6.731   0.152   3.453  0.2308  0.6043  0.2050
  494MOL0     C65090   6.637   0.051   3.526 -0.1108 -0.3009  0.2418
  494MOL0     C65091   6.503   0.063   3.451 -0.2448  0.2473 -1.1709
  494MOL0     C65092   6.395  -0.003   3.541  0.7305  0.3044 -0.5849
  494MOL0     N65093   6.291  -0.056   3.445 -0.2591 -0.1677  0.5289
  494MOL0     C65094   6.298  -0.189   3.414  0.7887 -0.6461  0.6751
  494MOL0     C65095   6.177  -0.209   3.354 -0.0619 -0.4051  0.8082
  494MOL0     C65096   6.122  -0.342   3.306  0.8435 -0.0368  0.0736
  494MOL0     C65097   5.983  -0.370   3.350 -0.1907  0.6091  0.2764
  494MOL0     C65098   5.928  -0.489   3.274  0.4634 -0.3190 -0.1371
  494MOL0     C65099   5.792  -0.530   3.319  0.2615 -0.2658 -0.8537
  494MOL0     O65100   5.702  -0.418   3.325  0.7141 -0.6948 -0.3376
  494MOL0     C65101   5.577  -0.445   3.380  0.1721 -0.6820 -0.4269
  494MOL0     C65102   5.531  -0.562   3.431  0.9194 -0.6517 -0.5409
  494MOL0     C65103   5.398  -0.567   3.481 -0.2846  0.1729 -0.0567
  494MOL0     C65104   5.311  -0.453   3.482  0.1249  0.0679  0.0170
  494MOL0     C65105   5.167  -0.466   3.517 -0.3387  0.4850  0.2116
  494MOL0     O65106   5.125  -0.589   3.552  0.0824 -0.3564 -0.0650
  494MOL0     C65107   4.988  -0.614   3.554  0.0824  0.3249 -0.7217
  494MOL0     C65108   4.898  -0.550   3.646  1.2496 -0.4654 -0.3148
  494MOL0     C65109   4.766  -0.604   3.655  0.4665 -0.6953  0.6960
  494MOL0     C65110   4.715  -0.691   3.552 -0.6428  0.1185  0.2889
  494MOL0     O65111   4.596  -0.746   3.536 -0.2469  1.3396  0.4870
  494MOL0     C65112   4.501  -0.709   3.639 -0.1886 -0.8032 -0.0127
  494MOL0     C65113   4.368  -0.784   3.604 -0.4679 -0.5267 -0.0291
  494MOL0     C65114   4.304  -0.716   3.492  0.2524  0.5415  1.1319
  494MOL0     C65115   4.160  -0.782   3.474  1.0989  0.8802  0.9866
  494MOL0     C65116   4.125  -0.780   3.323 -0.1663  0.8760 -0.1029
  494MOL0     C65117   3.999  -0.875   3.302 -0.0758 -0.1936  1.3160
  494MOL0     C65118   3.993  -0.952   3.166  0.3786 -0.0840 -0.3572
  494MOL0     C65119   3.984  -0.851   3.046 -0.6157  1.0604  0.4848
  494MOL0    Cl65120   3.855  -0.912   2.927  0.4484  0.2047 -0.1885
  494MOL0     C65121   4.805  -0.734   3.454 -0.8138  0.6930  0.1680
  494MOL0     C65122   4.939  -0.696   3.456 -0.1291 -0.5747  0.5922
  494MOL0     O65123   5.092  -0.370   3.499  0.4749 -0.1622  0.3994
  494MOL0     C65124   5.361  -0.341   3.418  0.0160 -0.8644  0.1187
  494MOL0     C65125   5.496  -0.332   3.379  0.7567  0.6301 -0.1344
  494MOL0     N65126   6.115  -0.083   3.326  0.0515  0.1370  0.8253
  494MOL0     N65127   6.183   0.006   3.388 -0.5167  0.7192  0.2613
  494MOL0     C65128   7.499   0.322   3.334  0.0162  0.5964  0.2855
  494MOL0     C65129   7.629   0.334   3.298  0.2470  0.6291 -0.2860
  494MOL0     C65130   8.072   0.391   3.261 -0.0127 -0.0074  0.2587
  494MOL0     C65131   8.138   0.273   3.314  0.0898 -0.2491 -0.3124
  494MOL0     C65132   8.273   0.252   3.281  0.3549  0.4191 -0.0393
  494MOL0     C65133   8.341   0.333   3.196  0.2689  0.6502  0.0614
  494MOL0     O65134   8.470   0.297   3.178  0.1217 -0.2664 -0.3143
  494MOL0     C65135   8.545   0.364   3.070 -1.2702  0.4132 -0.1374
  494MOL0     C65136   8.685   0.294   3.044 -0.4946 -0.6275 -0.3545
  494MOL0     C65137   8.776   0.278   3.173 -0.4576 -0.4557  0.7175
  494MOL0     C65138   8.921   0.232   3.141  0.2620 -0.1691 -0.2594
  494MOL0     C65139   8.924   0.091   3.087  0.5647  0.2703  0.1103
  494MOL0     C65140   8.920  -0.027   3.055 -0.6040 -0.0434 -0.1924
  494MOL0     C65141   8.284   0.450   3.152 -0.3676  0.4526  0.5878
  494MOL0     C65142   8.151   0.478   3.182  0.4500 -0.1314  0.0262
  494MOL0     H65143   7.767   0.316   3.615 -3.6161 -3.8474  2.8849
  494MOL0     H65144   7.528   0.284   3.668 -1.0728 -0.9020 -0.4754
  494MOL0     H65145   7.260   0.203   3.348 -1.4285 -0.6843 -0.0557
  494MOL0     H65146   7.191   0.360   3.381 -0.2806  1.4987  2.5713
  494MOL0     H65147   7.102   0.246   3.602  0.1354 -3.1117  1.8711
  494MOL0     H65148   7.130   0.099   3.529  0.9648 -0.5460 -2.8920
  494MOL0     H65149   6.983   0.159   3.338  0.7433 -2.3925  1.1923
  494MOL0     H65150   6.964   0.323   3.423  2.0871  0.3127  0.0487
  494MOL0     H65151   6.897   0.038   3.518  0.6699  0.0159  1.1035
  494MOL0     H65152   6.850   0.187   3.613 -0.8289  1.0445 -0.1602
  494MOL0     H65153   6.732   0.120   3.348  1.1127 -1.4616  0.7772
  494MOL0     H65154   6.689   0.252   3.457 -3.6007 -0.8799  1.0849
  494MOL0     H65155   6.617   0.077   3.630  2.5633 -0.3440  0.8557
  494MOL0     H65156   6.691  -0.044   3.526 -2.4482 -1.7458 -2.1084
  494MOL0     H65157   6.480   0.167   3.425  0.9327  0.1225 -2.8765
  494MOL0     H65158   6.504   0.002   3.360 -2.9744 -0.2323 -0.9675
  494MOL0     H65159   6.355   0.071   3.611 -0.5724 -1.7852  0.9920
  494MOL0     H65160   6.439  -0.081   3.604 -1.1151  0.1522  0.5856
  494MOL0     H65161   6.368  -0.268   3.440  1.0570 -0.8069 -0.5090
  494MOL0     H65162   6.185  -0.419   3.350  1.4276  0.4165  0.0430
  494MOL0     H65163   6.137  -0.345   3.198  2.1746 -0.7005  0.2527
  494MOL0     H65164   5.927  -0.278   3.330  0.2984  1.0975  1.0822
  494MOL0     H65165   5.978  -0.378   3.459  3.2485 -1.0487  0.4326
  494MOL0     H65166   5.925  -0.475   3.166 -0.8153  0.3323 -0.0343
  494MOL0     H65167   6.001  -0.568   3.296  1.6242  1.0124  1.0600
  494MOL0     H65168   5.806  -0.569   3.420 -1.8386 -1.1900 -0.8785
  494MOL0     H65169   5.747  -0.618   3.272 -1.1980 -1.0811  1.8299
  494MOL0     H65170   5.590  -0.653   3.431 -0.0028 -1.3366 -3.0503
  494MOL0     H65171   5.382  -0.660   3.535 -3.2436 -0.4824 -1.8343
  494MOL0     H65172   4.928  -0.471   3.714  0.5386  1.3434 -1.9955
  494MOL0     H65173   4.703  -0.577   3.739  0.0111  3.0589 -0.6476
  494MOL0     H65174   4.497  -0.601   3.656 -0.4025 -1.2778  3.9748
  494MOL0     H65175   4.536  -0.749   3.735  2.1463  1.5961  0.2214
  494MOL0     H65176   4.300  -0.775   3.689 -1.1953  1.4438 -0.7476
  494MOL0     H65177   4.383  -0.892   3.592 -2.8261 -0.7280 -2.1467
  494MOL0     H65178   4.367  -0.725   3.404 -1.0946  0.0952  0.1743
  494MOL0     H65179   4.275  -0.611   3.501 -2.4692 -0.1229  1.3067
  494MOL0     H65180   4.160  -0.887   3.504  3.1706 -0.0469 -1.7554
  494MOL0     H65181   4.079  -0.731   3.527 -2.7828 -0.9141 -2.6417
  494MOL0     H65182   4.213  -0.807   3.263  0.2944  1.1184  0.4600
  494MOL0     H65183   4.109  -0.678   3.288  0.4836  1.6285  1.6625
  494MOL0     H65184   3.906  -0.819   3.313 -1.2483 -2.0878  1.3475
  494MOL0     H65185   4.002  -0.958   3.373 -0.0166 -1.0568  0.3361
  494MOL0     H65186   4.075  -1.022   3.149 -1.2209 -1.9089 -0.9527
  494MOL0     H65187   3.903  -1.014   3.169  0.3630 -0.3681 -3.7159
  494MOL0     H65188   4.086  -0.853   3.008 -0.0404 -1.5762  1.9340
  494MOL0     H65189   3.957  -0.751   3.080  0.1825  0.4167  3.3523
  494MOL0     H65190   4.765  -0.800   3.378  1.9355 -0.3471 -0.5162
  494MOL0     H65191   4.995  -0.748   3.379 -2.0789 -0.7626 -0.7749
  494MOL0     H65192   5.291  -0.259   3.406  0.0952 -0.8282 -0.1005
  494MOL0     H65193   5.534  -0.242   3.332  2.0475 -0.0399 -0.4143
  494MOL0     H65194   7.421   0.325   3.258  1.6515  0.2856 -1.4606
  494MOL0     H65195   7.648   0.324   3.192 -1.5713  1.2879 -0.7069
  494MOL0     H65196   8.091   0.208   3.387 -1.5837  2.4804  1.1848
  494MOL0     H65197   8.322   0.173   3.336  0.8593  3.0011  3.5389
  494MOL0     H65198   8.577   0.464   3.100  0.5456  0.2913 -1.4703
  494MOL0     H65199   8.495   0.369   2.973 -0.8127 -1.8216 -0.5497
  494MOL0     H65200   8.668   0.198   2.995 -0.1724 -0.2386 -1.2395
  494MOL0     H65201   8.741   0.360   2.978  1.6886 -0.1132  1.8398
  494MOL0     H65202   8.727   0.198   3.230 -0.1005 -0.5469  0.8995
  494MOL0     H65203   8.786   0.368   3.235  1.0624  0.8008 -1.2230
  494MOL0     H65204   8.965   0.308   3.076  0.0019  0.4275  0.2483
  494MOL0     H65205   8.975   0.225   3.236  1.1181  0.2574 -0.6972
  494MOL0     H65206   8.908  -0.130   3.026 -2.2636  0.3126 -0.9154
  494MOL0     H65207   8.343   0.523   3.097  2.2683 -1.8096  0.1887
  494MOL0     H65208   8.111   0.565   3.131 -3.5884  0.1994  3.2014
  495MOL0     O65209  10.791   1.292   6.414  0.0928 -0.1742  0.0761
  495MOL0     C65210  10.712   1.195   6.429  0.4550 -0.2455 -0.0084
  495MOL0     O65211  10.738   1.074   6.491 -0.5551 -0.6078  0.5844
  495MOL0     C65212  10.866   1.055   6.525 -0.1799 -0.1917  0.2547
  495MOL0     C65213  10.894   1.031   6.660  0.1900  0.2305  0.0113
  495MOL0     C65214  11.031   1.016   6.711  1.1178 -0.6754 -0.2555
  495MOL0     C65215  11.140   1.040   6.622  0.2560  0.1072 -0.0479
  495MOL0     O65216  11.268   1.037   6.676  0.2419  0.4785  0.7845
  495MOL0     C65217  11.293   1.098   6.802  0.2071 -0.8766  0.0334
  495MOL0     C65218  11.302   1.257   6.802  0.6197 -0.2491  0.5739
  495MOL0     C65219  11.379   1.308   6.681 -0.0859  0.0644  0.1586
  495MOL0     C65220  11.365   1.460   6.654 -1.0465  0.0122 -0.4233
  495MOL0     C65221  11.481   1.525   6.577 -0.9341 -0.9668  0.0632
  495MOL0     C65222  11.612   1.531   6.664  0.3041  0.5222 -0.2706
  495MOL0     C65223  11.716   1.623   6.584  0.6473 -0.0419 -0.1874
  495MOL0     C65224  11.852   1.583   6.610 -0.1236 -0.1455 -0.3269
  495MOL0     N65225  11.953   1.686   6.618  0.4972 -0.0914  0.5427
  495MOL0     C65226  12.072   1.691   6.547  0.7257  0.1532  0.9008
  495MOL0     C65227  12.143   1.789   6.594 -0.6575 -0.1726  0.4665
  495MOL0     C65228  12.280   1.835   6.550 -0.4637 -0.4726 -0.2184
  495MOL0     C65229  12.280   1.895   6.412 -0.5067 -0.3112  0.0765
  495MOL0     C65230  12.189   2.025   6.426 -0.7392 -1.1043 -0.3228
  495MOL0     C65231  12.155   2.080   6.278 -0.0526  0.7817  0.4465
  495MOL0     O65232  12.088   1.975   6.212 -0.5389 -0.1793 -0.1372
  495MOL0     C65233  11.949   1.981   6.217  0.7296 -0.7790 -0.5198
  495MOL0     C65234  11.874   2.085   6.167  0.8526  0.1333 -0.4712
  495MOL0     C65235  11.729   2.086   6.154 -0.4680 -0.0700 -0.7894
  495MOL0     C65236  11.659   1.970   6.196 -0.0540 -1.2170  0.1463
  495MOL0     C65237  11.514   1.960   6.163  0.3110 -0.7019 -0.5451
  495MOL0     O65238  11.469   2.036   6.065 -0.3060 -0.7116 -0.3484
  495MOL0     C65239  11.331   2.055   6.052 -0.0050  1.1767 -0.3829
  495MOL0     C65240  11.249   2.130   6.141 -0.8928  0.8255  0.4666
  495MOL0     C65241  11.111   2.134   6.130 -0.1704 -0.4445 -0.4140
  495MOL0     C65242  11.054   2.080   6.013  0.7656  0.0533  0.5991
  495MOL0     O65243  10.917   2.096   5.972  0.3302 -0.6487  0.5177
  495MOL0     C65244  10.829   2.178   6.050 -0.0991  0.4986 -1.1241
  495MOL0     C65245  10.699   2.185   5.975 -0.3972  0.2255  0.3013
  495MOL0     C65246  10.586   2.252   6.057  0.3016  0.3708  0.5368
  495MOL0     C65247  10.450   2.243   5.975  1.0587  0.6754 -0.1527
  495MOL0     C65248  10.346   2.359   6.013 -0.8869 -0.0474  0.2631
  495MOL0     C65249  10.328   2.366   6.172 -0.2835  0.8510  0.9191
  495MOL0     C65250  10.260   2.490   6.223 -0.1253 -0.0026 -0.3182
  495MOL0     C65251  10.114   2.502   6.162 -0.0223 -0.0311  0.2421
  495MOL0    Cl65252  10.047   2.648   6.223 -0.1643 -0.2356  0.1700
  495MOL0     C65253  11.135   2.016   5.922 -0.2650 -0.0582  0.6122
  495MOL0     C65254  11.270   2.008   5.937 -0.1286 -0.8063 -0.9646
  495MOL0     O65255  11.446   1.897   6.240  0.2032  0.5694  0.8634
  495MOL0     C65256  11.733   1.864   6.246  0.5434 -0.7820 -0.5660
  495MOL0     C65257  11.876   1.870   6.260  0.2645 -0.4330 -0.3343
  495MOL0     N65258  12.065   1.857   6.693 -0.2090  0.0223 -0.3648
  495MOL0     N65259  11.948   1.794   6.703 -0.5695  0.0388  0.3778
  495MOL0     C65260  11.109   1.063   6.481 -0.4829  1.4062 -0.5537
  495MOL0     C65261  10.977   1.057   6.439  0.2335  0.8495 -0.9480
  495MOL0     C65262  10.569   1.220   6.404  0.8051 -1.2497 -0.1067
  495MOL0     C65263  10.465   1.126   6.426  0.1168  0.3642 -0.8663
  495MOL0     C65264  10.331   1.159   6.403 -0.7561 -0.4318  0.5850
  495MOL0     C65265  10.294   1.292   6.365 -0.7815 -0.2666 -0.4604
  495MOL0     O65266  10.159   1.314   6.362  0.4312 -0.3295  0.2945
  495MOL0     C65267  10.103   1.446   6.355 -0.1958  0.0014 -0.5469
  495MOL0     C65268   9.956   1.438   6.395  0.2349  0.1648 -0.5195
  495MOL0     C65269   9.950   1.390   6.549 -0.1135  0.3401  0.4436
  495MOL0     C65270   9.806   1.338   6.583 -0.2043 -0.0090  0.9602
  495MOL0     C65271   9.782   1.210   6.519  0.6060  0.6245  0.3927
  495MOL0     C65272   9.787   1.086   6.497  0.0626 -0.7984 -0.0760
  495MOL0     C65273  10.397   1.386   6.342 -0.6734 -0.1862 -0.0177
  495MOL0     C65274  10.534   1.351   6.354 -0.1052 -0.8240  0.3032
  495MOL0     H65275  10.809   1.015   6.725  0.7519  0.6361  0.8640
  495MOL0     H65276  11.041   0.983   6.813 -0.2180  0.9582  0.4555
  495MOL0     H65277  11.381   1.058   6.853 -1.9511 -0.2116  4.8689
  495MOL0     H65278  11.218   1.064   6.874  0.6295 -1.9440 -0.0161
  495MOL0     H65279  11.358   1.290   6.890  1.6898  1.3509 -0.6534
  495MOL0     H65280  11.197   1.287   6.798  1.2909  2.2357  0.2683
  495MOL0     H65281  11.339   1.259   6.591  0.3972 -1.4538  0.7497
  495MOL0     H65282  11.480   1.268   6.689 -1.0708 -2.6896 -0.1545
  495MOL0     H65283  11.272   1.469   6.598 -0.1945  1.0965 -1.7375
  495MOL0     H65284  11.355   1.520   6.745 -0.4131 -1.9481  1.0087
  495MOL0     H65285  11.458   1.630   6.553 -0.3493 -0.4253  1.7596
  495MOL0     H65286  11.499   1.467   6.486 -2.1404 -2.9525  1.0201
  495MOL0     H65287  11.647   1.429   6.681 -2.9772 -0.8803 -1.1861
  495MOL0     H65288  11.586   1.581   6.758 -1.0334  1.9984 -1.3624
  495MOL0     H65289  11.691   1.623   6.478  2.0449  2.6353 -0.6195
  495MOL0     H65290  11.700   1.730   6.603 -0.2099 -0.4247  1.3729
  495MOL0     H65291  11.881   1.507   6.537  0.3346  1.2942 -1.7047
  495MOL0     H65292  11.863   1.533   6.706  1.9006 -1.4119 -1.1441
  495MOL0     H65293  12.094   1.627   6.462 -1.3368 -2.1618  1.9615
  495MOL0     H65294  12.354   1.755   6.549  2.3297  1.8234  2.5592
  495MOL0     H65295  12.314   1.909   6.623 -0.9239  0.4022 -0.8747
  495MOL0     H65296  12.228   1.822   6.349 -0.7109  0.4822 -0.7052
  495MOL0     H65297  12.381   1.917   6.376  0.9481  0.4458  4.1383
  495MOL0     H65298  12.095   2.009   6.479 -0.2993  0.4818  1.0189
  495MOL0     H65299  12.231   2.108   6.483 -2.9168  0.8474 -1.3704
  495MOL0     H65300  12.253   2.088   6.231  1.1609 -2.3515  2.1051
  495MOL0     H65301  12.106   2.176   6.264  0.1153  1.0629  1.6673
  495MOL0     H65302  11.928   2.166   6.119  0.0837  0.8044 -0.2309
  495MOL0     H65303  11.692   2.181   6.117 -0.2106  0.7596  0.9906
  495MOL0     H65304  11.295   2.181   6.225 -0.6667  4.1402 -1.5161
  495MOL0     H65305  11.068   2.200   6.205  2.0250  1.4691 -0.7167
  495MOL0     H65306  10.872   2.277   6.062 -0.8650  0.8250 -1.0099
  495MOL0     H65307  10.823   2.116   6.140 -1.8924 -1.7738 -2.6475
  495MOL0     H65308  10.676   2.082   5.945 -1.7663  0.5185  0.2725
  495MOL0     H65309  10.723   2.247   5.888 -1.6641  1.2388  0.6397
  495MOL0     H65310  10.627   2.354   6.064  2.6321 -0.4229 -0.4925
  495MOL0     H65311  10.567   2.202   6.152  0.8346 -1.1343 -0.1274
  495MOL0     H65312  10.470   2.249   5.868  0.5933 -1.0876 -0.3662
  495MOL0     H65313  10.409   2.143   5.996  4.0169 -1.2633 -2.7508
  495MOL0     H65314  10.255   2.361   5.954  0.0665 -0.4179 -1.2655
  495MOL0     H65315  10.399   2.452   5.991 -0.0975  0.1354  2.5864
  495MOL0     H65316  10.423   2.346   6.223  0.3001 -0.1846 -0.5189
  495MOL0     H65317  10.256   2.286   6.194  0.3220 -0.8497 -2.5702
  495MOL0     H65318  10.244   2.495   6.331 -0.6963  1.9421 -0.4565
  495MOL0     H65319  10.319   2.577   6.193  0.3166 -0.1215  0.1866
  495MOL0     H65320  10.055   2.418   6.200  0.1871  1.1463  3.4520
  495MOL0     H65321  10.108   2.508   6.053  0.6924 -1.3967  0.1058
  495MOL0     H65322  11.078   1.985   5.835 -2.0327 -0.3280  1.8241
  495MOL0     H65323  11.335   1.961   5.863  0.1769 -4.6140  1.4078
  495MOL0     H65324  11.695   1.769   6.283 -0.8846  0.4714  1.4226
  495MOL0     H65325  11.928   1.789   6.310  0.8258  1.0415  1.6287
  495MOL0     H65326  11.204   1.068   6.429 -0.2967  1.0850 -0.2502
  495MOL0     H65327  10.951   1.055   6.333 -0.3579 -1.9191 -0.8218
  495MOL0     H65328  10.494   1.023   6.447  1.6560  1.0766  0.7484
  495MOL0     H65329  10.256   1.082   6.418  1.0337 -2.3509  0.1748
  495MOL0     H65330  10.112   1.474   6.250 -2.9012 -0.6097 -1.0301
  495MOL0     H65331  10.152   1.514   6.426 -0.5707 -1.2737  1.0026
  495MOL0     H65332   9.899   1.530   6.382  1.3867  1.1677  1.0669
  495MOL0     H65333   9.913   1.358   6.336  1.9962 -1.8761  0.8025
  495MOL0     H65334   9.969   1.474   6.616  2.0610 -0.5485  1.0056
  495MOL0     H65335  10.017   1.308   6.574 -0.2720 -0.4900 -1.6162
  495MOL0     H65336   9.796   1.326   6.691 -0.5686  1.2032  1.0785
  495MOL0     H65337   9.735   1.413   6.543  2.6854  0.7124 -3.5743
  495MOL0     H65338   9.794   0.981   6.480 -3.5287 -1.3312  0.9139
  495MOL0     H65339  10.364   1.484   6.307  0.9070  1.2731  2.3699
  495MOL0     H65340  10.604   1.421   6.312  1.8498 -3.3844 -1.0023
  496MOL0     O65341   2.820   8.090   5.944  0.7466 -0.8026  0.3555
  496MOL0     C65342   2.859   8.144   5.841  0.7332  0.7339  0.0204
  496MOL0     O65343   2.789   8.189   5.741  0.5197 -0.0461  0.0629
  496MOL0     C65344   2.659   8.138   5.738  0.0559  0.6204  0.8076
  496MOL0     C65345   2.607   8.045   5.643 -0.2759 -0.1042 -0.4082
  496MOL0     C65346   2.477   8.000   5.647  0.9447  0.9938 -0.3087
  496MOL0     C65347   2.386   8.047   5.748  0.6606 -0.0366  0.4661
  496MOL0     O65348   2.254   8.012   5.762  0.0663 -0.0846 -0.8226
  496MOL0     C65349   2.210   7.886   5.702 -0.1859  0.2517 -0.4279
  496MOL0     C65350   2.056   7.899   5.676  0.5562 -0.2121 -0.1370
  496MOL0     C65351   2.028   8.011   5.584 -0.5888  0.4358 -0.1929
  496MOL0     C65352   1.885   8.010   5.524 -0.7678  0.3794 -0.0022
  496MOL0     C65353   1.845   8.157   5.481  0.4869  1.1381  0.7107
  496MOL0     C65354   1.698   8.153   5.420  0.0314  0.6086  0.6263
  496MOL0     C65355   1.597   8.138   5.532 -0.4435 -0.0283 -0.0946
  496MOL0     C65356   1.462   8.172   5.474  0.5555 -0.0510  0.4880
  496MOL0     N65357   1.429   8.073   5.369  0.3735 -0.1197 -0.1911
  496MOL0     C65358   1.417   8.112   5.238 -0.0330 -0.2031  0.3999
  496MOL0     C65359   1.348   8.014   5.173 -0.4010  0.4364  0.7937
  496MOL0     C65360   1.302   8.027   5.029 -0.3843  0.0552 -0.1140
  496MOL0     C65361   1.365   7.910   4.952  0.1538  0.3294  0.0852
  496MOL0     C65362   1.317   7.908   4.802 -0.8796 -0.3587  0.0169
  496MOL0     C65363   1.393   7.805   4.713  0.1454 -0.5829 -0.5772
  496MOL0     O65364   1.340   7.671   4.734  0.7045 -0.0973 -0.3717
  496MOL0     C65365   1.222   7.625   4.669 -1.3419 -0.2319 -0.7588
  496MOL0     C65366   1.143   7.692   4.578 -0.1968 -0.1017 -0.8168
  496MOL0     C65367   1.025   7.630   4.532 -0.2840 -0.2273  0.5527
  496MOL0     C65368   0.994   7.501   4.587 -0.1846 -0.0596  0.0318
  496MOL0     C65369   0.879   7.426   4.530 -1.6911 -0.1096  0.4648
  496MOL0     O65370   0.850   7.316   4.594  0.1511  0.8293  0.5695
  496MOL0     C65371   0.726   7.255   4.582  0.7761 -0.2179 -0.2724
  496MOL0     C65372   0.601   7.321   4.571 -0.2257 -0.3923  0.0141
  496MOL0     C65373   0.484   7.246   4.554 -0.3515 -0.0389 -0.9191
  496MOL0     C65374   0.488   7.106   4.558 -0.1436 -0.4455 -0.4384
  496MOL0     O65375   0.374   7.040   4.537  0.0093 -0.2575 -0.2895
  496MOL0     C65376   0.367   6.975   4.416 -0.0876  0.2193  0.2112
  496MOL0     C65377   0.307   7.056   4.305  0.3283  0.6748 -0.1005
  496MOL0     C65378   0.150   7.080   4.318  1.1306 -0.0049 -0.4524
  496MOL0     C65379   0.097   7.169   4.201  0.3183  0.1529 -0.0204
  496MOL0     C65380  -0.050   7.211   4.227  0.7769 -0.5146  0.1860
  496MOL0     C65381  -0.052   7.351   4.278 -0.6765 -0.4242 -0.4643
  496MOL0     C65382  -0.192   7.378   4.334 -0.5022  0.8968 -0.5284
  496MOL0     C65383  -0.214   7.306   4.465 -0.3728 -0.2311 -0.3697
  496MOL0    Cl65384  -0.347   7.177   4.449 -0.0188 -0.2287  0.1519
  496MOL0     C65385   0.611   7.046   4.579  0.2383 -0.0445 -0.9669
  496MOL0     C65386   0.730   7.121   4.590 -0.2389  0.3762  0.8181
  496MOL0     O65387   0.815   7.478   4.445  0.3412 -0.7496  0.0099
  496MOL0     C65388   1.077   7.434   4.679  0.3822 -0.0216  0.4161
  496MOL0     C65389   1.189   7.501   4.718 -1.2302  0.4031  0.4761
  496MOL0     N65390   1.308   7.918   5.263 -0.9059 -0.0676  0.3161
  496MOL0     N65391   1.366   7.950   5.377  0.6103 -0.6943  0.8717
  496MOL0     C65392   2.438   8.142   5.834  0.6367 -0.1784  0.3667
  496MOL0     C65393   2.568   8.189   5.824 -0.2227  0.4833 -0.0592
  496MOL0     C65394   2.992   8.210   5.849  1.2000  0.1708  0.5850
  496MOL0     C65395   3.095   8.166   5.935  0.3157 -0.0715  0.0831
  496MOL0     C65396   3.225   8.212   5.920 -1.1179 -0.2058 -0.8900
  496MOL0     C65397   3.245   8.329   5.837 -0.2347 -0.1699  0.4885
  496MOL0     O65398   3.373   8.379   5.846 -0.4733 -0.7092 -0.3858
  496MOL0     C65399   3.453   8.393   5.722 -0.3111  0.4325  0.2615
  496MOL0     C65400   3.592   8.426   5.754  0.0280 -0.2763  0.1726
  496MOL0     C65401   3.643   8.354   5.885  0.2108 -0.1012  0.2566
  496MOL0     C65402   3.797   8.364   5.908  0.1145  0.4698 -0.6113
  496MOL0     C65403   3.842   8.486   5.977 -0.2283  0.1737  0.5241
  496MOL0     C65404   3.864   8.591   6.035 -0.6751 -0.3252 -0.1548
  496MOL0     C65405   3.143   8.378   5.755 -0.8669 -0.7279  0.4535
  496MOL0     C65406   3.026   8.311   5.758  0.1220 -0.2687  0.6020
  496MOL0     H65407   2.692   8.012   5.583  0.7352  0.5653  0.6100
  496MOL0     H65408   2.456   7.932   5.565 -0.3843  2.0190 -0.8590
  496MOL0     H65409   2.222   7.799   5.767  3.1569 -0.2187 -1.4721
  496MOL0     H65410   2.253   7.856   5.606 -0.5974 -3.5893  0.3917
  496MOL0     H65411   2.012   7.926   5.773  2.1898 -1.7698  1.1051
  496MOL0     H65412   2.012   7.803   5.646 -0.9327  0.1605  0.7455
  496MOL0     H65413   2.102   8.003   5.504 -0.2101 -0.7491  0.2508
  496MOL0     H65414   2.044   8.102   5.641  2.1066 -1.4659  2.3617
  496MOL0     H65415   1.876   7.938   5.442 -2.0593 -0.1304  0.5528
  496MOL0     H65416   1.822   7.991   5.611 -0.7761  1.0971  0.1487
  496MOL0     H65417   1.907   8.201   5.402  1.6982  2.6230  2.4303
  496MOL0     H65418   1.847   8.215   5.573 -0.7762  0.3782  1.2432
  496MOL0     H65419   1.696   8.068   5.351 -0.0358  1.2301 -0.1428
  496MOL0     H65420   1.662   8.240   5.365 -1.8796  0.9470  2.2562
  496MOL0     H65421   1.604   8.036   5.570  0.6820 -0.3704 -1.1684
  496MOL0     H65422   1.619   8.211   5.610 -0.6360  1.3518 -1.2854
  496MOL0     H65423   1.438   8.273   5.440 -1.8388 -0.5792  0.4262
  496MOL0     H65424   1.387   8.155   5.552 -1.0490  4.9507  0.3864
  496MOL0     H65425   1.465   8.197   5.191 -0.6740  0.4900  0.9751
  496MOL0     H65426   1.327   8.127   4.992 -2.2133  0.6712  0.2370
  496MOL0     H65427   1.193   8.024   5.027 -0.3681 -0.6924 -0.0600
  496MOL0     H65428   1.344   7.817   5.006  3.0980  0.4339  1.5611
  496MOL0     H65429   1.472   7.928   4.943  1.0068 -2.6657  2.3471
  496MOL0     H65430   1.213   7.876   4.812 -0.6144 -1.5278 -0.7457
  496MOL0     H65431   1.313   8.001   4.744 -0.6420 -0.6396 -0.4582
  496MOL0     H65432   1.499   7.813   4.737 -0.4372  3.0899  1.5951
  496MOL0     H65433   1.383   7.832   4.608  1.5578 -2.2084 -1.1764
  496MOL0     H65434   1.160   7.797   4.557 -0.9151  0.2465  0.2478
  496MOL0     H65435   0.948   7.681   4.475 -1.6000 -1.9654  0.7029
  496MOL0     H65436   0.607   7.430   4.573  0.6008 -0.3185 -2.7024
  496MOL0     H65437   0.387   7.289   4.533  0.5204  3.0565  0.8454
  496MOL0     H65438   0.306   6.885   4.429  0.2018 -0.0338 -0.1602
  496MOL0     H65439   0.464   6.942   4.378 -1.0390 -0.4634 -1.7405
  496MOL0     H65440   0.332   6.992   4.220  1.9670 -2.5034  2.5278
  496MOL0     H65441   0.357   7.153   4.305  0.8622  0.4069 -0.6581
  496MOL0     H65442   0.134   7.127   4.415  1.9235 -0.6473  0.0072
  496MOL0     H65443   0.100   6.983   4.322 -0.2821  0.6716 -0.9003
  496MOL0     H65444   0.169   7.250   4.185  0.0793  0.5402  0.7969
  496MOL0     H65445   0.111   7.110   4.110  0.9411 -2.0597  1.4437
  496MOL0     H65446  -0.101   7.142   4.294  0.6506  0.3861  1.0519
  496MOL0     H65447  -0.102   7.217   4.131 -0.1933  2.8874  0.7764
  496MOL0     H65448  -0.039   7.423   4.196  0.6547 -2.3977 -2.0784
  496MOL0     H65449   0.035   7.359   4.344 -0.2970 -3.7837 -0.3992
  496MOL0     H65450  -0.200   7.487   4.342  0.2159  0.9530 -0.5106
  496MOL0     H65451  -0.271   7.339   4.268  1.6482 -2.3113 -1.4681
  496MOL0     H65452  -0.242   7.375   4.545  2.1848 -0.6359  0.9814
  496MOL0     H65453  -0.131   7.249   4.508 -1.1864 -0.5474  0.8318
  496MOL0     H65454   0.611   6.938   4.591 -0.6425  0.0736  0.4572
  496MOL0     H65455   0.820   7.060   4.598  1.7062  2.0441 -4.3311
  496MOL0     H65456   1.057   7.337   4.724 -0.8537 -0.4369 -0.9564
  496MOL0     H65457   1.241   7.446   4.796  2.0097  0.3191 -1.5421
  496MOL0     H65458   2.375   8.187   5.910  2.0973  0.8970  0.9957
  496MOL0     H65459   2.608   8.268   5.887 -0.7006  1.5085 -1.0217
  496MOL0     H65460   3.071   8.091   6.009  2.2643 -2.9204 -1.9558
  496MOL0     H65461   3.310   8.187   5.983 -1.6139  0.3897  0.0350
  496MOL0     H65462   3.416   8.474   5.658 -1.2031  0.6606  1.0540
  496MOL0     H65463   3.452   8.293   5.677  1.6325  0.4154  0.1616
  496MOL0     H65464   3.658   8.398   5.671  0.0852 -2.0453  0.7797
  496MOL0     H65465   3.590   8.535   5.767  0.9313 -0.3424  0.8984
  496MOL0     H65466   3.616   8.249   5.872 -2.2585  0.3017  1.5230
  496MOL0     H65467   3.590   8.393   5.973  1.6921 -2.5781  2.3974
  496MOL0     H65468   3.834   8.282   5.970 -1.3142  0.8262  0.7750
  496MOL0     H65469   3.849   8.359   5.811  1.8743  1.0719  0.2490
  496MOL0     H65470   3.897   8.683   6.078 -1.0328  1.1950 -2.8954
  496MOL0     H65471   3.140   8.463   5.687 -0.9427 -1.0778  0.0215
  496MOL0     H65472   2.957   8.349   5.683 -0.6383 -1.8895  0.4497
  497MOL0     O65473   5.075   5.290   6.568  0.9272  0.3289 -0.4458
  497MOL0     C65474   5.162   5.241   6.498 -0.2112 -1.5970 -0.3786
  497MOL0     O65475   5.151   5.152   6.400  0.0720 -0.7510  0.7348
  497MOL0     C65476   5.028   5.113   6.351  0.1105  1.0375  0.9109
  497MOL0     C65477   5.014   5.123   6.218  0.3232  0.2324 -0.2662
  497MOL0     C65478   4.893   5.080   6.159  0.0021  0.0060  0.1985
  497MOL0     C65479   4.787   5.038   6.241 -0.8969  0.0171 -0.2718
  497MOL0     O65480   4.674   4.984   6.191  0.0107 -0.1849 -0.0097
  497MOL0     C65481   4.607   5.082   6.112 -0.2896 -1.1053  0.2001
  497MOL0     C65482   4.467   5.038   6.078 -0.5649 -0.1800 -0.5415
  497MOL0     C65483   4.456   4.917   5.981 -0.5251  0.4233  0.3341
  497MOL0     C65484   4.313   4.859   5.950  0.3275 -0.8457  1.0339
  497MOL0     C65485   4.230   4.954   5.859 -0.8551 -0.0073 -0.3017
  497MOL0     C65486   4.083   4.920   5.839 -0.5147  0.4440  0.3566
  497MOL0     C65487   4.013   4.888   5.955 -0.0443  0.0031  0.5650
  497MOL0     C65488   3.862   4.872   5.933 -0.1689  0.7204 -0.0429
  497MOL0     N65489   3.784   4.829   6.044 -0.4119  0.7492  0.0972
  497MOL0     C65490   3.824   4.771   6.159 -0.3596 -0.7279 -0.5394
  497MOL0     C65491   3.713   4.748   6.230  0.6281 -0.0031 -0.5397
  497MOL0     C65492   3.708   4.691   6.366  1.1071  0.4853 -0.9509
  497MOL0     C65493   3.698   4.539   6.355  0.0844  0.2306 -0.2019
  497MOL0     C65494   3.561   4.492   6.303 -0.1925  0.3018  0.8387
  497MOL0     C65495   3.532   4.352   6.354 -0.7332  0.0174  0.4587
  497MOL0     O65496   3.410   4.308   6.291 -0.1539  0.5370 -1.0232
  497MOL0     C65497   3.286   4.352   6.326  0.1572  0.3879 -0.0796
  497MOL0     C65498   3.247   4.412   6.447 -0.3966  0.0089 -0.2276
  497MOL0     C65499   3.114   4.450   6.456 -0.3633  0.5455 -0.5667
  497MOL0     C65500   3.026   4.437   6.352  0.1183 -0.1780  0.4349
  497MOL0     C65501   2.900   4.513   6.368  0.1897 -0.3447  0.2430
  497MOL0     O65502   2.849   4.509   6.495 -0.3829 -0.6700  0.3529
  497MOL0     C65503   2.734   4.565   6.542  0.3824 -0.3648 -0.4480
  497MOL0     C65504   2.690   4.691   6.502 -0.7786 -0.3381  0.5071
  497MOL0     C65505   2.566   4.744   6.556 -1.3218 -0.8401  0.1575
  497MOL0     C65506   2.491   4.678   6.652  0.8233 -0.4941  0.2591
  497MOL0     O65507   2.376   4.732   6.697 -0.4148  0.2337  0.4434
  497MOL0     C65508   2.272   4.638   6.739 -0.1370 -0.7981  0.5432
  497MOL0     C65509   2.137   4.703   6.728 -0.7081  0.9419 -0.3008
  497MOL0     C65510   2.018   4.614   6.785  0.1137  0.3894  0.5394
  497MOL0     C65511   1.878   4.680   6.796  0.1866 -0.0802 -0.2790
  497MOL0     C65512   1.785   4.597   6.883  0.0241  0.0109 -0.2941
  497MOL0     C65513   1.662   4.682   6.912  0.6131 -0.0215 -1.0969
  497MOL0     C65514   1.560   4.585   6.971  0.2027  0.6402 -0.1691
  497MOL0     C65515   1.430   4.661   7.009  0.7573  1.2661 -0.2384
  497MOL0    Cl65516   1.469   4.782   7.129 -0.3439 -0.1517  0.0169
  497MOL0     C65517   2.546   4.555   6.686  0.2423 -0.5001 -0.0808
  497MOL0     C65518   2.662   4.497   6.630 -0.2568 -0.6802  0.9578
  497MOL0     O65519   2.843   4.557   6.266  0.5941  0.3460 -0.0929
  497MOL0     C65520   3.061   4.380   6.227 -0.0534 -0.0137 -0.4670
  497MOL0     C65521   3.190   4.338   6.222 -0.4630  0.1140 -0.0592
  497MOL0     N65522   3.602   4.807   6.160 -0.3835  0.6107  0.7702
  497MOL0     N65523   3.650   4.857   6.047  0.4464 -0.0050  0.0140
  497MOL0     C65524   4.808   5.026   6.374 -0.0329  0.5621  0.0656
  497MOL0     C65525   4.928   5.065   6.435 -0.5106  0.1546  0.0462
  497MOL0     C65526   5.303   5.272   6.538 -0.5913  0.3337  0.3273
  497MOL0     C65527   5.412   5.183   6.501 -0.1694 -0.5815  0.5673
  497MOL0     C65528   5.543   5.208   6.542  0.1782  0.1266 -0.2956
  497MOL0     C65529   5.567   5.312   6.623  0.1781  0.0438 -0.2229
  497MOL0     O65530   5.688   5.338   6.672 -0.0237 -0.0216 -1.4684
  497MOL0     C65531   5.807   5.280   6.619 -0.1029 -0.4439  0.8016
  497MOL0     C65532   5.852   5.324   6.484 -0.5841  0.1342  0.1297
  497MOL0     C65533   5.909   5.464   6.462 -1.1199 -0.2353 -0.1893
  497MOL0     C65534   5.798   5.567   6.479 -0.4715 -0.3141  0.4962
  497MOL0     C65535   5.709   5.553   6.375 -0.3422 -0.1867 -0.8961
  497MOL0     C65536   5.613   5.525   6.309  0.1288 -0.6332 -0.7304
  497MOL0     C65537   5.471   5.403   6.660  1.4610  0.8533  0.0296
  497MOL0     C65538   5.337   5.379   6.626  0.1585 -0.6548  0.9833
  497MOL0     H65539   5.095   5.154   6.152  0.1033  1.7683  0.1557
  497MOL0     H65540   4.880   5.088   6.051 -0.8144 -0.4661  0.2514
  497MOL0     H65541   4.653   5.110   6.017 -1.7267  1.1418  0.1079
  497MOL0     H65542   4.597   5.177   6.164 -1.3348 -1.5959  0.9454
  497MOL0     H65543   4.425   5.121   6.021 -2.7742 -2.0131 -1.7586
  497MOL0     H65544   4.413   5.021   6.172  0.2208 -0.3263 -0.1115
  497MOL0     H65545   4.513   4.832   6.022 -2.4911 -1.1463 -0.0156
  497MOL0     H65546   4.509   4.939   5.888 -1.6374 -1.0217 -0.6975
  497MOL0     H65547   4.326   4.757   5.912  0.6031 -0.2428 -0.5963
  497MOL0     H65548   4.265   4.863   6.048  0.6446  1.4887  1.1532
  497MOL0     H65549   4.273   4.970   5.760 -1.3914 -0.0458 -0.5455
  497MOL0     H65550   4.238   5.059   5.889  2.1794  1.2685 -4.5742
  497MOL0     H65551   4.091   4.829   5.778  1.6093  2.3275 -2.4386
  497MOL0     H65552   4.040   5.005   5.784  2.6897  1.9043 -0.0956
  497MOL0     H65553   4.053   4.797   5.999  0.7322  1.2999  2.6684
  497MOL0     H65554   4.028   4.969   6.028  0.3921  1.3414 -0.9421
  497MOL0     H65555   3.831   4.799   5.858 -1.8925  3.4677 -2.1916
  497MOL0     H65556   3.827   4.969   5.895 -0.8991  0.0839 -1.0441
  497MOL0     H65557   3.926   4.739   6.180 -0.2098 -0.3185 -0.6244
  497MOL0     H65558   3.614   4.731   6.405  1.8496  3.1240 -1.6927
  497MOL0     H65559   3.792   4.727   6.426 -0.2694 -0.0586  1.4510
  497MOL0     H65560   3.710   4.498   6.456  0.1074  3.4874  1.2616
  497MOL0     H65561   3.771   4.496   6.287  1.2085  0.8757  0.5548
  497MOL0     H65562   3.490   4.560   6.351  0.6872 -0.9178  4.1061
  497MOL0     H65563   3.558   4.504   6.194 -0.7648 -0.4576  0.7587
  497MOL0     H65564   3.530   4.351   6.463 -0.2933 -1.4908  0.4856
  497MOL0     H65565   3.617   4.292   6.321 -2.0865 -0.4034 -2.6506
  497MOL0     H65566   3.312   4.423   6.532  1.7535  0.8795 -1.8908
  497MOL0     H65567   3.095   4.505   6.547 -3.4968 -3.7147  1.6981
  497MOL0     H65568   2.738   4.751   6.426 -0.3707  0.7864  1.6184
  497MOL0     H65569   2.531   4.842   6.526  1.3248 -0.0501 -0.6191
  497MOL0     H65570   2.302   4.612   6.840  1.7239  3.1222  1.2021
  497MOL0     H65571   2.262   4.549   6.676  1.1138  0.3345 -1.3772
  497MOL0     H65572   2.111   4.723   6.624 -1.1539 -0.2176 -0.4208
  497MOL0     H65573   2.137   4.795   6.788 -2.1814  0.0198  1.1944
  497MOL0     H65574   2.043   4.582   6.887 -0.5565  1.4305  1.0525
  497MOL0     H65575   2.010   4.518   6.733 -0.2931  0.0235  1.2591
  497MOL0     H65576   1.891   4.779   6.841 -2.3129 -0.2429  1.0018
  497MOL0     H65577   1.826   4.688   6.700 -0.1518 -0.7172 -0.1527
  497MOL0     H65578   1.817   4.574   6.985  0.7965  0.3255 -0.4586
  497MOL0     H65579   1.765   4.511   6.818 -0.7103 -0.3558  0.4079
  497MOL0     H65580   1.628   4.727   6.818  3.2947  1.4858 -1.4491
  497MOL0     H65581   1.682   4.767   6.978 -2.5832  0.5561 -0.6802
  497MOL0     H65582   1.534   4.501   6.906  1.0906 -0.2417  0.5840
  497MOL0     H65583   1.596   4.532   7.059 -1.1463  0.4216  0.2694
  497MOL0     H65584   1.361   4.594   7.061  0.9431  2.2463  1.3448
  497MOL0     H65585   1.377   4.693   6.918  1.3986  2.2706 -0.2743
  497MOL0     H65586   2.518   4.514   6.783  3.1839 -2.2044  0.1580
  497MOL0     H65587   2.708   4.403   6.657  1.3335 -0.4621 -0.7776
  497MOL0     H65588   2.992   4.373   6.143  0.5901 -0.2967 -0.9753
  497MOL0     H65589   3.231   4.303   6.128  1.3570  0.6223  0.5121
  497MOL0     H65590   4.724   5.001   6.438 -1.6950  0.9890 -1.8466
  497MOL0     H65591   4.948   5.052   6.541  0.8087  1.5743 -0.0066
  497MOL0     H65592   5.392   5.100   6.435  2.3889 -2.0760  1.5258
  497MOL0     H65593   5.623   5.138   6.517 -0.9098 -1.5265  0.6141
  497MOL0     H65594   5.785   5.173   6.613  0.5968 -0.5345 -0.8453
  497MOL0     H65595   5.892   5.295   6.686 -1.7455  0.4043  2.7934
  497MOL0     H65596   5.928   5.251   6.454  0.5644 -0.0947  3.2669
  497MOL0     H65597   5.766   5.310   6.418  0.1947 -0.0756 -0.8828
  497MOL0     H65598   5.945   5.470   6.359 -1.8358  0.5892 -0.4065
  497MOL0     H65599   5.992   5.482   6.532 -3.6389  0.3402  2.8878
  497MOL0     H65600   5.751   5.563   6.578 -0.1095  0.6996  0.7234
  497MOL0     H65601   5.832   5.671   6.474  1.2330 -0.8866 -0.5271
  497MOL0     H65602   5.526   5.498   6.252  0.8780 -0.1147 -2.1641
  497MOL0     H65603   5.484   5.476   6.740 -1.5245  1.2218  0.2971
  497MOL0     H65604   5.258   5.433   6.676 -0.6658 -1.0127  0.1121
  498MOL0     O65605   8.763   1.133   1.454 -0.3949 -0.5442  0.3868
  498MOL0     C65606   8.776   1.252   1.448 -1.0446  0.6344  0.3124
  498MOL0     O65607   8.667   1.340   1.453  0.7968 -1.0090  0.0819
  498MOL0     C65608   8.533   1.308   1.455  0.2064  0.2695 -0.8581
  498MOL0     C65609   8.477   1.181   1.447  0.4401 -0.3227  0.1722
  498MOL0     C65610   8.345   1.162   1.442 -0.8276  0.2436  0.0271
  498MOL0     C65611   8.256   1.273   1.451 -0.5418  0.3733 -0.0796
  498MOL0     O65612   8.122   1.253   1.456  0.0390 -0.2817 -0.1867
  498MOL0     C65613   8.077   1.130   1.518 -0.4651 -0.8502  0.3779
  498MOL0     C65614   7.926   1.144   1.551 -0.1481 -1.1806 -0.2260
  498MOL0     C65615   7.882   1.027   1.644 -0.1417 -0.1229  0.1632
  498MOL0     C65616   7.731   1.044   1.672 -0.6816  0.3943 -0.1228
  498MOL0     C65617   7.682   0.938   1.780 -0.0742 -0.6566 -0.3310
  498MOL0     C65618   7.740   0.953   1.923 -0.4747  0.5598 -1.0512
  498MOL0     C65619   7.681   0.845   2.015  0.3978 -0.1687 -0.0036
  498MOL0     C65620   7.720   0.855   2.165  0.6197  0.4921 -0.3330
  498MOL0     N65621   7.644   0.970   2.233  0.4374 -0.2394 -0.0834
  498MOL0     C65622   7.678   1.039   2.348  0.1176 -0.3688  0.1156
  498MOL0     C65623   7.570   1.109   2.386  0.4933  0.3138  0.2958
  498MOL0     C65624   7.562   1.206   2.504  1.2900 -0.1414  0.0000
  498MOL0     C65625   7.660   1.336   2.475  0.1261  1.4199 -0.0188
  498MOL0     C65626   7.641   1.450   2.572 -0.8561 -0.9081  0.1122
  498MOL0     C65627   7.694   1.412   2.715  0.4678 -0.5963 -0.3486
  498MOL0     O65628   7.635   1.470   2.832  0.0708  0.5142 -0.4340
  498MOL0     C65629   7.500   1.466   2.861  0.2189  0.3173 -0.2270
  498MOL0     C65630   7.414   1.367   2.818  0.5932 -0.0630  0.2328
  498MOL0     C65631   7.281   1.364   2.863 -0.1601  0.1475  0.6688
  498MOL0     C65632   7.221   1.474   2.935 -0.7122  0.5736  0.2372
  498MOL0     C65633   7.079   1.478   2.976 -0.0529 -0.1897 -0.0893
  498MOL0     O65634   7.033   1.584   3.043 -0.1459  0.4532 -0.0208
  498MOL0     C65635   6.908   1.582   3.098 -0.4578 -0.9589  0.7244
  498MOL0     C65636   6.886   1.549   3.225  0.2417 -0.4309 -0.4916
  498MOL0     C65637   6.764   1.551   3.286  0.8987 -0.2844 -0.3596
  498MOL0     C65638   6.649   1.587   3.212 -0.0266  0.4678 -0.5029
  498MOL0     O65639   6.533   1.596   3.293  0.2057 -0.6551  0.3105
  498MOL0     C65640   6.420   1.641   3.210 -0.6855 -0.9356  0.0941
  498MOL0     C65641   6.303   1.663   3.306  0.0155  0.3579 -0.4130
  498MOL0     C65642   6.262   1.539   3.393 -0.2206  0.4590  0.5308
  498MOL0     C65643   6.158   1.563   3.490  0.2141 -0.4028 -0.1441
  498MOL0     C65644   6.029   1.620   3.440 -0.7520  0.2879 -0.2171
  498MOL0     C65645   5.987   1.551   3.312 -0.1570  0.2000  0.3153
  498MOL0     C65646   5.835   1.577   3.311  0.1369 -0.0540  0.5513
  498MOL0     C65647   5.755   1.440   3.337  0.4592 -0.3357 -0.1156
  498MOL0    Cl65648   5.586   1.492   3.319  0.2010  0.3370  0.3160
  498MOL0     C65649   6.664   1.616   3.076  0.8448 -0.3111 -0.7922
  498MOL0     C65650   6.794   1.623   3.026 -0.2818  0.3989 -0.2933
  498MOL0     O65651   7.013   1.369   2.957 -0.1213 -0.9001  0.9389
  498MOL0     C65652   7.312   1.583   2.968 -0.4158  0.7398  0.0893
  498MOL0     C65653   7.444   1.580   2.914 -0.0946  1.1073 -0.6200
  498MOL0     N65654   7.475   1.092   2.285 -0.5055 -0.6414  0.0978
  498MOL0     N65655   7.520   1.011   2.197  0.4984 -0.3410 -0.6785
  498MOL0     C65656   8.307   1.396   1.446  0.3121 -0.5169 -0.1647
  498MOL0     C65657   8.443   1.415   1.453 -0.3932  0.5890  0.0273
  498MOL0     C65658   8.919   1.295   1.421  0.1140 -0.0616 -0.0049
  498MOL0     C65659   9.008   1.195   1.377  0.3474 -0.2112  0.4320
  498MOL0     C65660   9.145   1.238   1.358  0.7201  0.9471  0.0333
  498MOL0     C65661   9.182   1.366   1.367  0.2105 -0.2002 -0.2221
  498MOL0     O65662   9.315   1.402   1.344 -0.0499 -0.1431  0.4178
  498MOL0     C65663   9.429   1.307   1.342  0.0625  0.0972  0.6757
  498MOL0     C65664   9.551   1.385   1.403  0.2298  0.4514 -0.1446
  498MOL0     C65665   9.669   1.293   1.406 -0.4318  0.0978  0.1531
  498MOL0     C65666   9.671   1.172   1.496  0.1534  0.2281  0.2514
  498MOL0     C65667   9.633   1.041   1.421  0.0463 -1.2657  0.3171
  498MOL0     C65668   9.604   0.945   1.359 -0.5210  0.9384  0.4127
  498MOL0     C65669   9.095   1.462   1.420  0.2422 -0.2685 -0.0051
  498MOL0     C65670   8.963   1.424   1.433  0.1953  0.8194 -0.5329
  498MOL0     H65671   8.538   1.091   1.436  0.3182 -0.2998 -0.8550
  498MOL0     H65672   8.306   1.061   1.450  2.4212 -0.9626  3.1850
  498MOL0     H65673   8.144   1.107   1.602  1.2697  1.4645 -0.2580
  498MOL0     H65674   8.100   1.053   1.444  0.8616  1.9781 -2.4122
  498MOL0     H65675   7.865   1.146   1.461 -1.2521  0.0986  0.5121
  498MOL0     H65676   7.907   1.242   1.596  2.5756  1.2336 -3.8034
  498MOL0     H65677   7.934   1.033   1.740 -2.0781  1.5218  1.1799
  498MOL0     H65678   7.900   0.930   1.598  1.0837  0.2018 -0.0718
  498MOL0     H65679   7.696   1.143   1.702 -1.1399 -0.5766  2.9243
  498MOL0     H65680   7.676   1.019   1.581  0.1663 -0.8412 -0.3291
  498MOL0     H65681   7.701   0.840   1.737 -0.5307 -1.7851  1.9214
  498MOL0     H65682   7.573   0.924   1.785  0.0377 -1.2108  0.7247
  498MOL0     H65683   7.714   1.052   1.961  1.7336 -0.2264  2.9766
  498MOL0     H65684   7.849   0.945   1.922 -0.5929 -3.7282 -0.1922
  498MOL0     H65685   7.572   0.834   2.006  0.6101 -1.5222 -1.4363
  498MOL0     H65686   7.720   0.751   1.975  1.8704  0.9829 -1.4073
  498MOL0     H65687   7.826   0.876   2.182  0.4169  0.2351  1.4550
  498MOL0     H65688   7.688   0.766   2.219  1.7913  1.4705  2.1235
  498MOL0     H65689   7.772   1.054   2.401  0.2028 -3.8968  1.2277
  498MOL0     H65690   7.593   1.160   2.598 -1.1556  0.0978  1.0193
  498MOL0     H65691   7.459   1.241   2.515  2.7903  4.9830  0.3379
  498MOL0     H65692   7.647   1.367   2.371 -2.4836  2.1422  0.4571
  498MOL0     H65693   7.763   1.299   2.471  0.9294  3.6563 -1.7589
  498MOL0     H65694   7.684   1.543   2.535 -0.8509 -1.7158 -2.0106
  498MOL0     H65695   7.536   1.479   2.578 -1.1935 -2.0349 -0.1290
  498MOL0     H65696   7.804   1.410   2.712  0.4987 -1.4153  0.5900
  498MOL0     H65697   7.655   1.310   2.726 -2.6449  0.4411 -0.8302
  498MOL0     H65698   7.447   1.282   2.760  0.4453 -0.3927  0.6342
  498MOL0     H65699   7.220   1.279   2.835  2.8029 -1.5101 -1.3983
  498MOL0     H65700   6.968   1.516   3.288  0.4165  1.2920  0.2273
  498MOL0     H65701   6.753   1.523   3.390 -1.5731  2.5119  0.2564
  498MOL0     H65702   6.392   1.565   3.137  2.6585 -0.5027 -1.8692
  498MOL0     H65703   6.427   1.737   3.157 -1.1931  0.2990  2.1595
  498MOL0     H65704   6.223   1.686   3.236  0.0764 -2.1957 -1.4109
  498MOL0     H65705   6.321   1.754   3.365  2.2616  0.9012 -1.8092
  498MOL0     H65706   6.351   1.525   3.454  0.5567  0.3655 -0.5799
  498MOL0     H65707   6.237   1.453   3.330 -1.2429  0.2925  1.1465
  498MOL0     H65708   6.135   1.467   3.537  2.3948 -1.8109 -1.7309
  498MOL0     H65709   6.192   1.629   3.570 -0.2111  0.1995 -0.4596
  498MOL0     H65710   6.047   1.726   3.424 -1.0998  0.8440  2.5922
  498MOL0     H65711   5.956   1.614   3.521  0.4168 -1.0887  0.8018
  498MOL0     H65712   6.002   1.443   3.318 -2.3855 -0.1557  0.2220
  498MOL0     H65713   6.040   1.601   3.231  0.6095 -3.7865 -1.8695
  498MOL0     H65714   5.798   1.655   3.378  2.0636 -0.6827  2.4646
  498MOL0     H65715   5.819   1.604   3.206  0.1307 -1.0415  0.2886
  498MOL0     H65716   5.774   1.407   3.439 -2.8303 -0.6755  0.4855
  498MOL0     H65717   5.772   1.352   3.275  2.1488 -0.6610  0.7437
  498MOL0     H65718   6.592   1.654   3.004  1.6283  0.6517 -1.0838
  498MOL0     H65719   6.815   1.648   2.922 -0.3738  1.7099 -0.0220
  498MOL0     H65720   7.279   1.667   3.028 -0.6299  1.2343 -0.7029
  498MOL0     H65721   7.505   1.670   2.922  1.3676 -0.0372  3.5749
  498MOL0     H65722   8.241   1.482   1.445  0.2605 -0.5511 -1.3609
  498MOL0     H65723   8.482   1.516   1.469  1.8746 -0.0005 -1.3750
  498MOL0     H65724   8.971   1.094   1.367 -0.2014 -0.0626  0.8997
  498MOL0     H65725   9.215   1.162   1.324  2.8752  1.2414  3.3348
  498MOL0     H65726   9.441   1.275   1.238  0.6128  2.9939 -0.2531
  498MOL0     H65727   9.423   1.212   1.396 -1.0492 -0.3435 -0.1746
  498MOL0     H65728   9.563   1.482   1.353 -0.5549  1.6629  1.8967
  498MOL0     H65729   9.537   1.428   1.502 -2.0578  0.6696 -0.4909
  498MOL0     H65730   9.757   1.352   1.433  0.4237 -0.9197 -0.3456
  498MOL0     H65731   9.679   1.257   1.303 -1.3914 -1.0584  0.4392
  498MOL0     H65732   9.771   1.165   1.539 -1.0494 -2.6450  2.9933
  498MOL0     H65733   9.604   1.196   1.580  4.3942  4.1808  2.9944
  498MOL0     H65734   9.580   0.860   1.298  1.6794  1.4872 -1.3565
  498MOL0     H65735   9.141   1.558   1.442 -1.6215  0.4419  1.0267
  498MOL0     H65736   8.898   1.495   1.483  1.8662  3.3015 -1.6321
  499MOL0     O65737   5.675   0.456   9.500 -0.2149  0.0558 -0.6610
  499MOL0     C65738   5.767   0.423   9.578 -0.9049  0.3930 -0.1814
  499MOL0     O65739   5.755   0.327   9.680  0.2455  0.1604  0.3241
  499MOL0     C65740   5.635   0.264   9.709  0.0923 -0.6158 -0.0373
  499MOL0     C65741   5.521   0.327   9.726  0.0273 -0.7819 -0.5042
  499MOL0     C65742   5.394   0.259   9.737  0.0207 -0.6950  1.2718
  499MOL0     C65743   5.385   0.125   9.755  0.2762 -0.0417  0.0799
  499MOL0     O65744   5.261   0.071   9.773 -0.2408 -0.3139  1.0278
  499MOL0     C65745   5.238  -0.065   9.732 -0.1239 -0.4860  0.2499
  499MOL0     C65746   5.200  -0.079   9.587  0.5120  0.1566  0.0074
  499MOL0     C65747   5.291  -0.009   9.492  0.2063  0.0545 -0.2006
  499MOL0     C65748   5.230  -0.016   9.355  0.3461 -0.0108  0.4133
  499MOL0     C65749   5.333   0.033   9.246  0.4206 -0.3177 -0.5255
  499MOL0     C65750   5.358   0.186   9.260  0.0531  0.0711  0.1469
  499MOL0     C65751   5.489   0.232   9.206 -0.3397  0.4662 -1.0802
  499MOL0     C65752   5.598   0.187   9.310 -0.0541 -0.3247  0.3713
  499MOL0     N65753   5.722   0.183   9.232  0.0447 -0.5843 -0.6599
  499MOL0     C65754   5.792   0.301   9.194 -0.5422  1.0413 -1.2029
  499MOL0     C65755   5.871   0.257   9.098 -0.3690  0.2387  0.0973
  499MOL0     C65756   5.963   0.326   9.009 -0.2809 -0.3003  0.1839
  499MOL0     C65757   6.075   0.410   9.069  1.0747  0.5392  0.1299
  499MOL0     C65758   6.136   0.480   8.957  0.0504 -0.4896  0.0381
  499MOL0     C65759   6.242   0.581   9.004  0.5371  0.4374 -0.2472
  499MOL0     O65760   6.329   0.597   8.888  1.0821 -1.0560  0.2343
  499MOL0     C65761   6.461   0.620   8.917 -0.6533  0.2181 -0.4464
  499MOL0     C65762   6.561   0.562   8.837 -0.0888 -0.0332 -0.5086
  499MOL0     C65763   6.694   0.578   8.865  0.6173  0.1166  0.4532
  499MOL0     C65764   6.732   0.654   8.975 -0.0128 -0.4351  0.9718
  499MOL0     C65765   6.871   0.651   9.013  0.3129 -0.4638 -0.0296
  499MOL0     O65766   6.965   0.623   8.915 -0.1381  0.1378 -0.0382
  499MOL0     C65767   7.097   0.633   8.924  0.2770 -0.6334 -0.1911
  499MOL0     C65768   7.182   0.541   8.867  0.2454 -0.1374  0.2309
  499MOL0     C65769   7.321   0.563   8.861 -0.6235  0.0553 -1.0285
  499MOL0     C65770   7.385   0.670   8.937  0.1833  0.7409  0.4687
  499MOL0     O65771   7.522   0.685   8.952  0.7432 -0.0603  0.0861
  499MOL0     C65772   7.594   0.678   8.829 -1.2052  0.1408  0.9068
  499MOL0     C65773   7.723   0.583   8.827  0.2371  0.1524  0.5827
  499MOL0     C65774   7.698   0.431   8.847 -0.5426 -0.2070  0.4590
  499MOL0     C65775   7.811   0.352   8.910 -0.8423 -0.5536  0.9813
  499MOL0     C65776   7.908   0.287   8.810 -0.5614  0.4070  1.1633
  499MOL0     C65777   7.986   0.402   8.738  0.6116 -0.2318  0.0550
  499MOL0     C65778   8.104   0.333   8.666  0.8985  0.8243  0.4689
  499MOL0     C65779   8.185   0.434   8.589 -0.0684 -0.6291  0.3241
  499MOL0    Cl65780   8.323   0.362   8.504  0.2184  0.2904  0.5442
  499MOL0     C65781   7.300   0.763   8.986 -0.0486 -0.2279 -0.4775
  499MOL0     C65782   7.157   0.744   8.979 -0.4550  0.6113 -0.3153
  499MOL0     O65783   6.892   0.691   9.124 -0.0899  0.5609  0.2559
  499MOL0     C65784   6.635   0.708   9.059 -0.4846 -0.4244  0.5380
  499MOL0     C65785   6.509   0.688   9.032  0.2698  0.7982  0.7596
  499MOL0     N65786   5.863   0.120   9.089  0.6547  0.4930  0.0022
  499MOL0     N65787   5.773   0.078   9.173 -0.9332  0.6388  0.0668
  499MOL0     C65788   5.512   0.056   9.743  0.3013  0.3810  0.0479
  499MOL0     C65789   5.636   0.124   9.722  0.0638 -1.3347 -0.2445
  499MOL0     C65790   5.900   0.490   9.560 -0.5763 -0.1422 -0.2345
  499MOL0     C65791   6.010   0.456   9.644  0.1198  0.3952 -0.3685
  499MOL0     C65792   6.144   0.493   9.615  0.2920  0.0167 -1.4837
  499MOL0     C65793   6.167   0.571   9.496  0.7106  0.1968 -1.0329
  499MOL0     O65794   6.288   0.617   9.447 -0.2282  0.5035  0.0338
  499MOL0     C65795   6.403   0.581   9.512 -0.2590  0.0818  0.6383
  499MOL0     C65796   6.520   0.672   9.458 -0.3159 -0.3156  0.1516
  499MOL0     C65797   6.660   0.623   9.505  0.5224 -0.3746  0.5539
  499MOL0     C65798   6.770   0.706   9.441 -0.5090  0.0148  0.3450
  499MOL0     C65799   6.750   0.848   9.481 -0.2561 -0.0139 -0.2478
  499MOL0     C65800   6.726   0.963   9.517 -1.1370  0.3735 -0.4014
  499MOL0     C65801   6.055   0.624   9.429  0.1015 -0.2595  0.1449
  499MOL0     C65802   5.926   0.575   9.449 -0.5842  0.6622  0.6013
  499MOL0     H65803   5.520   0.435   9.727  2.2267 -0.6971  1.1141
  499MOL0     H65804   5.308   0.323   9.721 -0.1243 -1.3568 -0.9365
  499MOL0     H65805   5.156  -0.112   9.788 -1.2692 -2.3189 -2.7364
  499MOL0     H65806   5.329  -0.124   9.746  1.5496  2.2658  1.6973
  499MOL0     H65807   5.100  -0.038   9.568  0.1135  0.5400  2.5343
  499MOL0     H65808   5.198  -0.183   9.553  1.7934  1.3062 -4.2362
  499MOL0     H65809   5.388  -0.055   9.515  0.5190  0.9629  0.3734
  499MOL0     H65810   5.293   0.099   9.511  1.4940  0.3485 -1.8217
  499MOL0     H65811   5.205  -0.115   9.315 -1.0019  2.0549 -4.6050
  499MOL0     H65812   5.135   0.038   9.352 -0.5533 -1.5429 -1.7022
  499MOL0     H65813   5.296  -0.003   9.149  0.0942 -1.6728  0.0812
  499MOL0     H65814   5.427  -0.019   9.263 -1.4602 -3.0513  3.2031
  499MOL0     H65815   5.361   0.222   9.363  0.1887  0.8672 -0.1306
  499MOL0     H65816   5.272   0.234   9.211 -0.3476 -3.6364 -3.4154
  499MOL0     H65817   5.508   0.199   9.104  0.1581  1.6553 -1.3931
  499MOL0     H65818   5.493   0.341   9.201  1.3358  0.4199 -1.5874
  499MOL0     H65819   5.587   0.090   9.358  1.8115 -0.5342  0.4652
  499MOL0     H65820   5.609   0.256   9.393  0.5944  1.0924 -0.8411
  499MOL0     H65821   5.776   0.405   9.218 -1.3000  0.6064  0.2962
  499MOL0     H65822   5.909   0.399   8.947 -0.0796  1.3991  1.9243
  499MOL0     H65823   6.002   0.251   8.940  1.3620 -0.2542  1.0226
  499MOL0     H65824   6.148   0.347   9.121 -1.1553 -1.7705  0.6815
  499MOL0     H65825   6.031   0.475   9.146  0.2089 -0.8872  0.8764
  499MOL0     H65826   6.184   0.404   8.894  3.3916  2.4989 -1.3966
  499MOL0     H65827   6.061   0.539   8.903  1.3649 -0.0965 -1.4446
  499MOL0     H65828   6.297   0.540   9.089 -1.4859 -2.8038 -0.3551
  499MOL0     H65829   6.188   0.671   9.037  0.2791  0.2058 -0.0272
  499MOL0     H65830   6.531   0.500   8.753 -0.5689  1.0345 -1.1471
  499MOL0     H65831   6.766   0.526   8.803 -0.3389 -2.7313  1.5962
  499MOL0     H65832   7.142   0.453   8.817 -1.1950  2.0952 -2.8535
  499MOL0     H65833   7.389   0.491   8.818  1.0542  0.8385  0.2017
  499MOL0     H65834   7.618   0.781   8.799  2.1127 -0.8833 -0.5046
  499MOL0     H65835   7.534   0.638   8.746  1.4532 -0.3447 -0.9201
  499MOL0     H65836   7.794   0.616   8.903 -0.8175  0.3159  1.5235
  499MOL0     H65837   7.770   0.597   8.729  3.5038  0.2185  2.0395
  499MOL0     H65838   7.692   0.382   8.749  1.0154 -2.1986  1.2924
  499MOL0     H65839   7.606   0.415   8.904  0.3631 -1.7612  1.5589
  499MOL0     H65840   7.872   0.412   8.978  0.2280 -3.1593  2.4518
  499MOL0     H65841   7.756   0.284   8.975 -1.6641  1.6447  2.7504
  499MOL0     H65842   7.848   0.233   8.737 -1.4077  1.0971  1.3306
  499MOL0     H65843   7.980   0.222   8.860  0.6744  0.4071 -0.5430
  499MOL0     H65844   8.022   0.474   8.812  1.1212  0.5825 -0.9583
  499MOL0     H65845   7.929   0.448   8.657  0.0597 -3.5875 -1.6686
  499MOL0     H65846   8.172   0.278   8.732  1.8593 -0.5751 -1.5809
  499MOL0     H65847   8.062   0.261   8.595 -2.2690  2.3563  0.5786
  499MOL0     H65848   8.208   0.513   8.661 -1.0787  0.2396 -0.2737
  499MOL0     H65849   8.127   0.481   8.509  1.7811  1.2060 -0.0032
  499MOL0     H65850   7.339   0.843   9.049 -1.7836 -2.6882  4.2021
  499MOL0     H65851   7.088   0.812   9.027  0.0245 -0.1758  1.5985
  499MOL0     H65852   6.653   0.761   9.152 -0.3452  3.4083 -1.4633
  499MOL0     H65853   6.434   0.737   9.094 -2.8108 -0.4756 -1.6708
  499MOL0     H65854   5.526  -0.052   9.750  2.8137  0.2630 -3.8992
  499MOL0     H65855   5.725   0.062   9.718  0.0778 -1.6040  2.4104
  499MOL0     H65856   6.005   0.400   9.737  0.5297  1.0569  0.0673
  499MOL0     H65857   6.225   0.467   9.682 -1.0235 -0.5370 -0.0550
  499MOL0     H65858   6.412   0.476   9.480  3.2878  0.6084 -0.4784
  499MOL0     H65859   6.393   0.597   9.620 -0.4908  3.3137  0.2318
  499MOL0     H65860   6.513   0.676   9.349 -3.2613  3.2807  0.2757
  499MOL0     H65861   6.514   0.775   9.494  0.4542  0.3042 -1.4120
  499MOL0     H65862   6.667   0.516   9.484 -2.5703 -0.7231  0.9172
  499MOL0     H65863   6.660   0.645   9.612 -2.8007 -0.8598  0.7375
  499MOL0     H65864   6.868   0.667   9.468 -0.7120  0.4383  1.8223
  499MOL0     H65865   6.768   0.695   9.332  3.5313  0.8651  0.0243
  499MOL0     H65866   6.704   1.064   9.543 -0.8847  0.0414  1.1828
  499MOL0     H65867   6.062   0.691   9.344  1.9987  0.1686  0.5946
  499MOL0     H65868   5.849   0.598   9.377 -1.2572 -1.9367  0.3785
  500MOL0     O65869  10.363   8.388   8.308  0.1642  0.4480  0.4061
  500MOL0     C65870  10.433   8.309   8.244 -0.0623 -0.4143 -0.4393
  500MOL0     O65871  10.392   8.190   8.192 -1.0505  0.3704  0.0129
  500MOL0     C65872  10.261   8.162   8.197  0.3387  0.0655 -0.7631
  500MOL0     C65873  10.163   8.226   8.114  0.5235 -0.2567  0.4641
  500MOL0     C65874  10.027   8.194   8.122 -0.2893  0.0091  0.1151
  500MOL0     C65875   9.983   8.100   8.212 -0.1829  0.3789 -0.1788
  500MOL0     O65876   9.859   8.049   8.227  0.7899 -0.1051 -0.2268
  500MOL0     C65877   9.744   8.089   8.145  0.0876  0.0487  0.4952
  500MOL0     C65878   9.612   8.016   8.169  0.3075  0.4971 -0.8023
  500MOL0     C65879   9.617   7.874   8.121  0.3372  0.6397 -0.0616
  500MOL0     C65880   9.469   7.824   8.112  0.4348  0.3807  0.2964
  500MOL0     C65881   9.453   7.726   8.234  0.0606 -0.7437 -0.1318
  500MOL0     C65882   9.321   7.657   8.230  0.1533  0.2999 -0.5047
  500MOL0     C65883   9.327   7.547   8.333  0.5299 -0.0863  0.6766
  500MOL0     C65884   9.189   7.478   8.339  0.2881 -0.3155 -0.0745
  500MOL0     N65885   9.083   7.568   8.386 -1.0299  0.6687  0.1453
  500MOL0     C65886   8.958   7.582   8.335 -0.6461 -0.4282  0.6971
  500MOL0     C65887   8.892   7.648   8.431 -0.1351 -0.2935 -0.2243
  500MOL0     C65888   8.752   7.701   8.435  0.4273  0.2971  0.0764
  500MOL0     C65889   8.738   7.821   8.341  0.2013 -0.9513 -0.4210
  500MOL0     C65890   8.598   7.839   8.290  0.3398  0.4441 -0.4839
  500MOL0     C65891   8.510   7.893   8.404 -0.0991 -0.8394  0.1636
  500MOL0     O65892   8.377   7.896   8.355  0.0848 -0.0890 -0.0159
  500MOL0     C65893   8.272   7.911   8.439  0.3027 -0.5473 -0.2218
  500MOL0     C65894   8.276   7.999   8.549  0.9865  0.8272  0.7028
  500MOL0     C65895   8.162   8.036   8.626 -0.2864  0.4024 -0.0204
  500MOL0     C65896   8.033   7.987   8.588 -0.0437  0.2403 -0.5026
  500MOL0     C65897   7.913   8.031   8.659 -0.6679  0.2976  0.5082
  500MOL0     O65898   7.793   8.020   8.587  0.6359 -0.3699  0.0019
  500MOL0     C65899   7.666   8.038   8.636  0.1004 -0.1092 -0.6970
  500MOL0     C65900   7.616   8.014   8.767 -0.3931 -0.4998 -0.4724
  500MOL0     C65901   7.487   8.028   8.806  0.2400 -0.0669  0.4192
  500MOL0     C65902   7.393   8.079   8.712 -0.2311 -0.5113 -0.1315
  500MOL0     O65903   7.273   8.122   8.759  0.5824 -0.0786  0.7420
  500MOL0     C65904   7.167   8.153   8.655  0.0957 -0.4723 -0.4881
  500MOL0     C65905   7.038   8.170   8.743  0.3494 -0.4627 -0.3291
  500MOL0     C65906   7.050   8.311   8.811 -0.4179  0.2941 -0.6254
  500MOL0     C65907   6.914   8.365   8.846  0.2199  0.3425  0.4955
  500MOL0     C65908   6.926   8.499   8.919 -0.2277  0.0287  1.0549
  500MOL0     C65909   6.794   8.564   8.965  0.3061 -0.6466  0.6788
  500MOL0     C65910   6.726   8.643   8.850  0.2691  0.2092  1.2824
  500MOL0     C65911   6.799   8.755   8.782  0.1505  1.1739  0.8421
  500MOL0    Cl65912   6.701   8.820   8.651  0.1959 -0.4687 -0.2181
  500MOL0     C65913   7.435   8.094   8.585  0.1908  0.2428 -0.2642
  500MOL0     C65914   7.565   8.072   8.542  0.0603  0.5824  0.6906
  500MOL0     O65915   7.927   8.066   8.778  0.2327 -0.4345 -0.2952
  500MOL0     C65916   8.029   7.895   8.476  0.2370 -0.3470  0.3489
  500MOL0     C65917   8.144   7.857   8.409  0.2310 -0.3440  0.3839
  500MOL0     N65918   8.972   7.673   8.536 -0.1123  0.4828  0.1975
  500MOL0     N65919   9.087   7.634   8.507 -0.4189 -0.3290 -0.9931
  500MOL0     C65920  10.073   8.045   8.295  0.2661 -0.3162 -0.7340
  500MOL0     C65921  10.216   8.066   8.289 -0.0134 -0.3470  0.3231
  500MOL0     C65922  10.577   8.356   8.229 -0.0998  0.0152 -0.2500
  500MOL0     C65923  10.642   8.301   8.118 -0.8205  1.0046 -0.3197
  500MOL0     C65924  10.772   8.336   8.081  0.4262 -0.1813  0.2510
  500MOL0     C65925  10.828   8.443   8.161 -0.3630  0.0532  0.5496
  500MOL0     O65926  10.943   8.494   8.128  0.1779 -0.2823  0.3844
  500MOL0     C65927  11.005   8.472   8.004  0.3531 -0.5848 -0.2237
  500MOL0     C65928  11.129   8.567   7.974 -0.8426  0.2735  0.9481
  500MOL0     C65929  11.094   8.709   7.921  0.2416 -0.1956 -0.4626
  500MOL0     C65930  11.206   8.768   7.833 -0.1611 -0.0059 -0.3105
  500MOL0     C65931  11.190   8.912   7.813  0.1467  0.0372  1.2133
  500MOL0     C65932  11.181   9.027   7.777 -0.5546 -0.4261  0.3934
  500MOL0     C65933  10.767   8.501   8.266  0.4993 -0.2387 -0.7369
  500MOL0     C65934  10.636   8.456   8.307 -0.0357 -0.4405  0.1712
  500MOL0     H65935  10.187   8.296   8.034  1.0704  0.5353  1.2930
  500MOL0     H65936   9.961   8.250   8.057  0.4706  2.5898  1.4039
  500MOL0     H65937   9.764   8.065   8.041 -2.7247 -0.1881 -0.0638
  500MOL0     H65938   9.724   8.196   8.156 -0.5366 -0.0162  0.0486
  500MOL0     H65939   9.544   8.075   8.107  1.7432  0.9485 -2.0104
  500MOL0     H65940   9.592   8.019   8.276 -0.3030 -0.8702 -0.8623
  500MOL0     H65941   9.675   7.812   8.190  0.3617 -3.8688 -3.6629
  500MOL0     H65942   9.660   7.864   8.021 -0.8299 -0.4219 -0.4837
  500MOL0     H65943   9.406   7.912   8.122  1.6222  1.5131 -1.5494
  500MOL0     H65944   9.438   7.770   8.022 -0.6813 -2.6198  2.2922
  500MOL0     H65945   9.482   7.782   8.323 -0.6927 -0.3903 -0.0994
  500MOL0     H65946   9.532   7.652   8.217  0.8766  0.4068 -1.6629
  500MOL0     H65947   9.302   7.607   8.134  0.2338  0.4738 -0.6119
  500MOL0     H65948   9.252   7.740   8.248  2.3615  1.9264  1.1137
  500MOL0     H65949   9.401   7.471   8.308  0.0270  0.1089 -1.6083
  500MOL0     H65950   9.356   7.584   8.432 -1.1677  2.1440  0.4230
  500MOL0     H65951   9.193   7.388   8.401 -3.5685 -2.3606 -2.3532
  500MOL0     H65952   9.161   7.442   8.239  2.2174 -0.4837 -0.5955
  500MOL0     H65953   8.912   7.551   8.241 -0.1472  2.9982 -0.8195
  500MOL0     H65954   8.729   7.717   8.540 -2.2300 -0.9142 -0.2630
  500MOL0     H65955   8.679   7.629   8.400 -2.4926  0.8839  4.2775
  500MOL0     H65956   8.804   7.819   8.254 -1.1382 -0.5185 -1.4786
  500MOL0     H65957   8.771   7.911   8.394 -0.0510  0.8504 -3.0977
  500MOL0     H65958   8.604   7.913   8.210  2.0440  2.2000  1.1922
  500MOL0     H65959   8.551   7.746   8.255 -3.2057  1.4349  1.1569
  500MOL0     H65960   8.527   8.000   8.419  0.6033 -0.7165 -1.3564
  500MOL0     H65961   8.525   7.844   8.501 -0.9586  0.0551  0.7700
  500MOL0     H65962   8.374   8.037   8.577  0.3429  0.9719  3.0141
  500MOL0     H65963   8.168   8.105   8.710 -1.8077 -0.5828  0.9263
  500MOL0     H65964   7.683   8.005   8.853  1.4316 -0.4437 -1.8168
  500MOL0     H65965   7.464   8.004   8.910 -1.1852 -1.0346 -0.0888
  500MOL0     H65966   7.138   8.068   8.593 -5.1817  0.1636  0.6958
  500MOL0     H65967   7.187   8.239   8.591 -1.6285 -0.4241 -1.0064
  500MOL0     H65968   7.025   8.088   8.813  2.1623  0.3435  1.0331
  500MOL0     H65969   6.954   8.170   8.673 -0.2710  1.2196  0.3526
  500MOL0     H65970   7.120   8.375   8.757 -1.3089  1.6312 -0.2491
  500MOL0     H65971   7.105   8.301   8.905 -0.0158 -0.4388 -0.9325
  500MOL0     H65972   6.862   8.375   8.750  0.0648 -0.9104  0.4242
  500MOL0     H65973   6.861   8.295   8.912  0.6326 -3.7069 -2.9984
  500MOL0     H65974   6.984   8.567   8.856 -0.3214  0.3593  1.3233
  500MOL0     H65975   6.988   8.481   9.007 -0.0187 -0.6852  0.7693
  500MOL0     H65976   6.816   8.631   9.049  2.5643 -2.5462  1.6861
  500MOL0     H65977   6.710   8.503   8.999 -1.5464  1.0851 -0.5286
  500MOL0     H65978   6.692   8.574   8.773  0.4439 -1.3025  2.5157
  500MOL0     H65979   6.634   8.692   8.884 -0.0958  1.3648 -1.1439
  500MOL0     H65980   6.899   8.726   8.746  0.5801  2.1315  1.2230
  500MOL0     H65981   6.803   8.841   8.849 -0.7422  0.9533  1.1821
  500MOL0     H65982   7.374   8.145   8.511  1.3876  0.4402 -1.1474
  500MOL0     H65983   7.591   8.093   8.439  0.8326  2.4692  1.2311
  500MOL0     H65984   7.933   7.852   8.448  1.2244 -1.5169 -1.5287
  500MOL0     H65985   8.120   7.796   8.323 -0.3453  1.1818 -0.5824
  500MOL0     H65986  10.033   7.979   8.372 -2.0759  0.4392 -1.2149
  500MOL0     H65987  10.288   8.007   8.345 -0.1165 -1.2905 -0.5103
  500MOL0     H65988  10.593   8.215   8.073  0.3316  0.6809 -1.0000
  500MOL0     H65989  10.829   8.277   8.010  0.0381  0.5761 -0.7176
  500MOL0     H65990  10.932   8.482   7.924 -1.1061 -2.2870  0.8241
  500MOL0     H65991  11.036   8.367   8.001 -1.4025 -1.1127 -1.9390
  500MOL0     H65992  11.170   8.587   8.074  0.2541  0.6402  0.4424
  500MOL0     H65993  11.198   8.516   7.907 -1.4385  1.0950 -0.3319
  500MOL0     H65994  11.060   8.771   8.004  1.6391  0.7559 -0.5730
  500MOL0     H65995  11.013   8.688   7.850  0.5916  0.4568 -1.0691
  500MOL0     H65996  11.296   8.744   7.890  1.4131  2.4279 -1.6050
  500MOL0     H65997  11.210   8.713   7.739  0.3833 -2.2923  0.9452
  500MOL0     H65998  11.172   9.126   7.736  1.3341 -0.1238  0.5961
  500MOL0     H65999  10.813   8.580   8.324 -2.0737 -0.6501  2.0882
  500MOL0     H66000  10.579   8.492   8.392 -1.4537 -1.8723 -0.1299
  501MOL0     O66001   8.738   0.296   4.919 -0.0215  0.1838 -0.1686
  501MOL0     C66002   8.735   0.182   4.964  0.1955  0.5237  0.1169
  501MOL0     O66003   8.620   0.122   4.996 -0.2171  0.6986 -0.0131
  501MOL0     C66004   8.494   0.171   4.979  0.2933 -0.7545 -0.2875
  501MOL0     C66005   8.449   0.215   4.857  0.2968 -0.2943 -0.3280
  501MOL0     C66006   8.327   0.285   4.849  0.4003 -0.1792 -0.6283
  501MOL0     C66007   8.243   0.301   4.968 -0.3515 -0.9757  0.0477
  501MOL0     O66008   8.122   0.376   4.981  0.2584  0.2440  0.0378
  501MOL0     C66009   8.101   0.467   4.866 -0.3638  0.1446  0.3510
  501MOL0     C66010   8.009   0.583   4.896 -0.7563  0.8171 -0.3864
  501MOL0     C66011   7.877   0.532   4.955 -0.9130 -0.7674  0.6104
  501MOL0     C66012   7.799   0.648   5.022 -0.9685 -0.4558 -0.7938
  501MOL0     C66013   7.650   0.627   5.020  0.5882 -0.1476  0.4407
  501MOL0     C66014   7.563   0.730   5.091 -0.4355  0.4284 -0.7927
  501MOL0     C66015   7.413   0.686   5.099 -0.3486  0.2920 -0.5490
  501MOL0     C66016   7.324   0.802   5.144 -0.3190 -0.3017  0.0224
  501MOL0     N66017   7.183   0.778   5.116 -0.4178 -0.0016 -0.7470
  501MOL0     C66018   7.119   0.827   5.001 -0.1248 -0.2424 -0.2206
  501MOL0     C66019   6.993   0.799   5.017  0.2897 -0.0809 -0.1736
  501MOL0     C66020   6.891   0.832   4.919  0.1788  0.4135 -0.0092
  501MOL0     C66021   6.782   0.731   4.922  0.6856  0.5643 -0.0484
  501MOL0     C66022   6.681   0.744   4.809 -0.0537 -0.4026 -0.1410
  501MOL0     C66023   6.590   0.623   4.812  0.2668 -0.3112 -1.0759
  501MOL0     O66024   6.492   0.636   4.702  0.0057 -0.2810 -0.3947
  501MOL0     C66025   6.395   0.535   4.683  0.5887 -0.1187  0.4188
  501MOL0     C66026   6.391   0.411   4.761  0.2019  0.0352  0.0445
  501MOL0     C66027   6.301   0.309   4.734  0.0552  0.4712 -0.0543
  501MOL0     C66028   6.199   0.339   4.636 -0.0368 -0.3675 -0.7565
  501MOL0     C66029   6.094   0.247   4.596 -0.1467 -0.9259  0.5425
  501MOL0     O66030   6.095   0.130   4.659 -0.0905 -0.3469  0.3068
  501MOL0     C66031   6.017   0.024   4.607 -0.3065 -0.5640 -0.2286
  501MOL0     C66032   5.897  -0.022   4.658  0.0595  0.1235  0.7570
  501MOL0     C66033   5.824  -0.121   4.591  0.3090  0.6106  0.6585
  501MOL0     C66034   5.856  -0.174   4.463 -0.6487 -0.3840 -0.9482
  501MOL0     O66035   5.763  -0.254   4.394  0.4969  0.1336 -0.0203
  501MOL0     C66036   5.796  -0.307   4.262 -0.3425  0.5415 -0.3213
  501MOL0     C66037   5.767  -0.205   4.158 -0.2571 -0.3119 -0.7201
  501MOL0     C66038   5.620  -0.216   4.119  0.1669  0.9534 -0.2884
  501MOL0     C66039   5.595  -0.105   4.014  0.2791  0.2465  0.6921
  501MOL0     C66040   5.451  -0.114   3.944  0.4970 -0.1838 -0.6987
  501MOL0     C66041   5.336  -0.148   4.047  0.2583  0.0228  0.8737
  501MOL0     C66042   5.194  -0.127   3.989 -0.3456  0.7700 -0.3800
  501MOL0     C66043   5.159  -0.215   3.872  0.1179 -0.4098 -0.1082
  501MOL0    Cl66044   4.987  -0.178   3.835  0.3779  0.1532 -0.1745
  501MOL0     C66045   5.982  -0.125   4.411 -0.0592 -0.5228 -0.2507
  501MOL0     C66046   6.061  -0.029   4.489 -0.5550  0.7752 -0.0186
  501MOL0     O66047   6.007   0.281   4.512  0.1375 -0.0630 -0.1108
  501MOL0     C66048   6.198   0.456   4.558 -0.5153  0.3661 -0.0326
  501MOL0     C66049   6.295   0.550   4.588 -1.2170 -0.0916 -0.7983
  501MOL0     N66050   6.966   0.735   5.138 -0.3818 -0.1105  0.5442
  501MOL0     N66051   7.085   0.715   5.199 -0.8223  0.5390 -0.4986
  501MOL0     C66052   8.289   0.243   5.085 -0.0715  1.5989 -0.4334
  501MOL0     C66053   8.412   0.174   5.094 -0.2215 -0.1592  0.6777
  501MOL0     C66054   8.859   0.100   4.968 -0.6736  1.0205 -0.1813
  501MOL0     C66055   8.986   0.144   4.942  0.4971 -0.5975  0.6635
  501MOL0     C66056   9.104   0.069   4.958  0.4000 -0.2139 -0.5616
  501MOL0     C66057   9.099  -0.056   5.016 -0.2168 -0.3333  0.0157
  501MOL0     O66058   9.215  -0.128   5.028  0.2051  0.1721  0.9863
  501MOL0     C66059   9.225  -0.247   4.953 -0.0983  0.1180 -1.2302
  501MOL0     C66060   9.310  -0.232   4.825 -0.0046  0.4172 -0.1311
  501MOL0     C66061   9.298  -0.362   4.744 -0.1044 -0.2111 -0.6770
  501MOL0     C66062   9.356  -0.344   4.603 -0.3003 -0.2409  0.4733
  501MOL0     C66063   9.491  -0.318   4.599 -0.6823  0.2461 -0.2732
  501MOL0     C66064   9.610  -0.296   4.582 -0.5771  0.9759 -0.1196
  501MOL0     C66065   8.973  -0.103   5.048 -0.0110 -0.0177  0.1415
  501MOL0     C66066   8.854  -0.029   5.032  0.6369 -0.9053  0.8705
  501MOL0     H66067   8.504   0.200   4.765 -1.3456 -1.3935 -1.1722
  501MOL0     H66068   8.301   0.330   4.754  0.9481 -1.8430 -1.6137
  501MOL0     H66069   8.059   0.420   4.778  0.7939  0.9334 -0.6627
  501MOL0     H66070   8.199   0.512   4.843  0.0427 -0.7539  0.2783
  501MOL0     H66071   8.003   0.652   4.812  2.6774 -0.1944 -1.6350
  501MOL0     H66072   8.054   0.633   4.983  0.4452  0.8270 -0.9856
  501MOL0     H66073   7.897   0.452   5.028  1.3871 -0.0585  0.8518
  501MOL0     H66074   7.819   0.488   4.874 -1.3990  0.1993  0.4186
  501MOL0     H66075   7.832   0.647   5.126  1.2032  1.8231 -1.3542
  501MOL0     H66076   7.809   0.750   4.984 -2.1685  0.1009  0.3180
  501MOL0     H66077   7.631   0.527   5.059  0.1061  0.1169  0.8858
  501MOL0     H66078   7.611   0.622   4.917 -0.6682  1.8061  0.7629
  501MOL0     H66079   7.572   0.824   5.036  0.4686  1.4387  0.9934
  501MOL0     H66080   7.605   0.745   5.190  0.9690 -3.3387 -0.6230
  501MOL0     H66081   7.375   0.652   5.002 -1.2076  0.2339 -0.2012
  501MOL0     H66082   7.389   0.600   5.163 -1.3540  0.2933 -0.9052
  501MOL0     H66083   7.351   0.896   5.094 -0.3186 -0.6250 -0.5973
  501MOL0     H66084   7.338   0.821   5.250 -1.6973  2.0306 -0.1463
  501MOL0     H66085   7.174   0.852   4.911  2.6912 -2.5125  0.7190
  501MOL0     H66086   6.938   0.839   4.821  0.9019  2.2169  0.4277
  501MOL0     H66087   6.837   0.924   4.941 -1.8727 -0.2817 -1.8303
  501MOL0     H66088   6.735   0.733   5.020 -1.3905 -1.0399 -0.9331
  501MOL0     H66089   6.816   0.627   4.917 -0.8847  0.0799 -1.8881
  501MOL0     H66090   6.628   0.840   4.817 -2.5783 -1.7925  0.6202
  501MOL0     H66091   6.741   0.745   4.718  0.6831  1.1483  0.3273
  501MOL0     H66092   6.536   0.614   4.906 -0.6058  1.1173 -1.4147
  501MOL0     H66093   6.662   0.542   4.794 -1.4032 -1.7549 -1.4961
  501MOL0     H66094   6.471   0.402   4.834 -0.2228  1.0031  0.6539
  501MOL0     H66095   6.313   0.213   4.783 -1.4327  0.9525  1.3445
  501MOL0     H66096   5.858   0.030   4.745 -1.5624  1.5696 -0.7764
  501MOL0     H66097   5.731  -0.154   4.635  1.3292 -2.4509  0.7935
  501MOL0     H66098   5.735  -0.394   4.235 -0.1968  0.2236  0.3503
  501MOL0     H66099   5.898  -0.348   4.263  0.6568  2.5966 -3.4092
  501MOL0     H66100   5.813  -0.236   4.064 -1.1417 -3.5595 -0.2003
  501MOL0     H66101   5.800  -0.104   4.184  3.4523 -1.8141  1.1217
  501MOL0     H66102   5.551  -0.224   4.204  0.6228 -1.4983 -0.0865
  501MOL0     H66103   5.596  -0.310   4.070  1.4211  0.6780 -0.4123
  501MOL0     H66104   5.596  -0.007   4.063 -0.4465  0.3226  0.5685
  501MOL0     H66105   5.672  -0.114   3.937 -1.4909 -1.9478 -0.9377
  501MOL0     H66106   5.460  -0.193   3.869  2.4779 -1.0675  0.3958
  501MOL0     H66107   5.429  -0.021   3.892 -1.0822 -0.6694 -0.9604
  501MOL0     H66108   5.347  -0.102   4.146  1.3676 -1.2243  1.3771
  501MOL0     H66109   5.350  -0.255   4.068  0.3210 -0.1498 -0.0351
  501MOL0     H66110   5.130  -0.149   4.075  0.4578  0.2168  0.0917
  501MOL0     H66111   5.171  -0.024   3.962 -2.5164  0.5948  0.6063
  501MOL0     H66112   5.164  -0.321   3.901  0.6288  0.4933  3.4977
  501MOL0     H66113   5.229  -0.197   3.790  3.0477 -0.2010  2.2944
  501MOL0     H66114   6.010  -0.134   4.307  0.0076  1.1151 -0.3977
  501MOL0     H66115   6.149   0.006   4.437  1.3211 -2.1895  0.8724
  501MOL0     H66116   6.136   0.481   4.473 -1.2255 -0.6033  0.1821
  501MOL0     H66117   6.296   0.645   4.536 -1.1165  1.8683  2.5011
  501MOL0     H66118   8.236   0.251   5.179  1.0727 -0.4274  0.4761
  501MOL0     H66119   8.450   0.150   5.193  0.8363  2.3024  0.9405
  501MOL0     H66120   9.011   0.245   4.911 -1.4384 -0.1131  0.5769
  501MOL0     H66121   9.204   0.108   4.941 -0.5028  4.0837  2.2953
  501MOL0     H66122   9.122  -0.278   4.929 -1.6322  2.7343  1.2799
  501MOL0     H66123   9.262  -0.321   5.025 -1.2782  0.4973 -0.1979
  501MOL0     H66124   9.285  -0.147   4.762 -0.2211  2.2054  2.2014
  501MOL0     H66125   9.414  -0.219   4.856  0.1605 -2.9639  1.1277
  501MOL0     H66126   9.192  -0.385   4.729  0.1071 -0.8592 -1.2095
  501MOL0     H66127   9.337  -0.453   4.789 -2.3780 -1.7487 -1.6234
  501MOL0     H66128   9.328  -0.421   4.531  0.3360  3.5406 -4.3898
  501MOL0     H66129   9.315  -0.256   4.552  0.8560  0.8141  1.2908
  501MOL0     H66130   9.714  -0.292   4.558 -0.9088  0.3407 -1.7594
  501MOL0     H66131   8.957  -0.196   5.102  0.7233  0.3929  1.1025
  501MOL0     H66132   8.761  -0.057   5.081 -0.6548  3.4712  1.3384
  502MOL0     O66133   9.050   5.699   1.267  0.2535 -0.3828  0.5902
  502MOL0     C66134   9.115   5.721   1.172  0.2523  0.2144  0.1295
  502MOL0     O66135   9.069   5.778   1.064 -0.5887 -0.1154  0.0260
  502MOL0     C66136   8.941   5.822   1.047 -0.2011 -0.1362 -0.0784
  502MOL0     C66137   8.931   5.936   0.970  0.3895  0.8300  0.0647
  502MOL0     C66138   8.813   5.992   0.946 -0.6053  0.6147  0.2594
  502MOL0     C66139   8.699   5.945   1.008 -0.7025  0.6112  0.6993
  502MOL0     O66140   8.587   6.028   1.005 -0.0904  0.4102  0.6312
  502MOL0     C66141   8.467   5.964   1.045 -0.5995  0.2580 -0.1068
  502MOL0     C66142   8.351   6.048   0.990 -0.5428 -0.9931  0.0285
  502MOL0     C66143   8.215   6.009   1.040 -0.9572 -0.3984 -1.2507
  502MOL0     C66144   8.117   6.107   0.973  0.0694 -0.4969 -0.7347
  502MOL0     C66145   7.982   6.060   0.985 -0.1641 -0.0739  0.0695
  502MOL0     C66146   7.875   6.136   0.893  0.3859 -0.7207  0.6158
  502MOL0     C66147   7.737   6.075   0.899 -0.0222 -0.8561 -0.3240
  502MOL0     C66148   7.696   5.990   0.774  0.9370  0.3503 -0.0726
  502MOL0     N66149   7.551   5.969   0.765 -0.5109 -0.2988  0.2788
  502MOL0     C66150   7.453   6.056   0.722  1.0593  0.5898  0.2355
  502MOL0     C66151   7.338   6.005   0.770 -0.7563  0.0352 -0.0458
  502MOL0     C66152   7.208   6.075   0.771 -0.0390 -0.5224  0.4335
  502MOL0     C66153   7.087   6.001   0.824  0.3723 -0.1531 -0.5547
  502MOL0     C66154   6.947   6.066   0.801  0.1734 -0.1536  0.2968
  502MOL0     C66155   6.833   5.965   0.838 -0.2274  0.3866  0.1092
  502MOL0     O66156   6.703   6.020   0.798  0.0307 -0.1375 -0.0416
  502MOL0     C66157   6.586   5.968   0.847 -0.2478 -0.6529  0.5119
  502MOL0     C66158   6.564   5.830   0.863 -0.1518 -0.0155  0.2845
  502MOL0     C66159   6.437   5.778   0.900 -0.6636 -0.6544  0.3544
  502MOL0     C66160   6.336   5.868   0.937 -1.5198  0.0090  0.6460
  502MOL0     C66161   6.212   5.806   0.978 -0.5899  0.5939 -0.1403
  502MOL0     O66162   6.207   5.668   1.001 -0.1171  0.0500  0.1773
  502MOL0     C66163   6.096   5.618   1.060  0.1221  0.6160 -0.5415
  502MOL0     C66164   6.107   5.585   1.196 -0.0368 -0.5873  0.2820
  502MOL0     C66165   5.995   5.521   1.255 -0.6432 -0.6195  0.6338
  502MOL0     C66166   5.874   5.517   1.191 -0.1863  0.0662  0.3535
  502MOL0     O66167   5.760   5.494   1.265  0.3215  0.1255 -0.5922
  502MOL0     C66168   5.752   5.459   1.404  0.4159  0.2751  0.0110
  502MOL0     C66169   5.605   5.422   1.424  0.0389 -0.5308  0.0161
  502MOL0     C66170   5.565   5.403   1.570 -0.6256  0.1343  0.2246
  502MOL0     C66171   5.551   5.542   1.637 -0.3499  0.4745  0.4630
  502MOL0     C66172   5.511   5.531   1.784  0.3210  1.0427 -0.0163
  502MOL0     C66173   5.380   5.452   1.800  0.2726  0.4956 -0.5384
  502MOL0     C66174   5.243   5.507   1.764  0.8257 -0.6563  0.2218
  502MOL0     C66175   5.142   5.392   1.790  0.0092  0.2066 -0.1942
  502MOL0    Cl66176   4.984   5.460   1.828 -0.4055 -0.0049 -0.3157
  502MOL0     C66177   5.860   5.571   1.062  0.4207  0.6496 -0.3697
  502MOL0     C66178   5.971   5.618   0.995  0.1250  0.7001  0.3386
  502MOL0     O66179   6.127   5.888   1.000 -0.5440 -0.2438  0.1362
  502MOL0     C66180   6.360   6.006   0.928 -0.8380  0.6468  0.4482
  502MOL0     C66181   6.486   6.056   0.882  0.0113  0.4185 -0.7116
  502MOL0     N66182   7.369   5.878   0.821 -0.6432 -0.0006  0.9483
  502MOL0     N66183   7.499   5.860   0.824 -0.1064  0.2794  0.8087
  502MOL0     C66184   8.706   5.830   1.083  0.3467  0.4296  0.2474
  502MOL0     C66185   8.827   5.757   1.098  0.6495 -0.6507  0.0399
  502MOL0     C66186   9.258   5.685   1.169 -0.0218 -0.9126  0.2842
  502MOL0     C66187   9.341   5.754   1.077 -0.6666  0.2451 -0.0679
  502MOL0     C66188   9.476   5.724   1.064  0.6517  0.0270 -0.2138
  502MOL0     C66189   9.530   5.621   1.135 -0.2577  0.5062  0.6824
  502MOL0     O66190   9.654   5.563   1.118  0.0386 -0.6609  0.6482
  502MOL0     C66191   9.772   5.656   1.095 -0.3212  0.4784  0.3843
  502MOL0     C66192   9.825   5.636   0.950  0.3280  0.4277 -0.6555
  502MOL0     C66193   9.949   5.715   0.915  0.3764 -0.6337 -0.8432
  502MOL0     C66194  10.059   5.669   0.998 -0.4171 -0.4600  0.5514
  502MOL0     C66195  10.181   5.749   0.961  0.2216 -0.3336 -0.5404
  502MOL0     C66196  10.282   5.814   0.941  0.2437 -0.4938  0.6963
  502MOL0     C66197   9.448   5.550   1.217  0.5862 -0.4555  0.0309
  502MOL0     C66198   9.309   5.579   1.240 -0.4176 -0.4633 -0.3359
  502MOL0     H66199   9.027   5.974   0.935  0.5256 -0.4392 -1.0365
  502MOL0     H66200   8.803   6.087   0.893  0.5808  0.6302  0.0434
  502MOL0     H66201   8.468   5.955   1.154  3.0085 -1.1766 -0.1010
  502MOL0     H66202   8.470   5.866   0.997  1.3961  0.0374  0.3881
  502MOL0     H66203   8.358   6.054   0.881  4.1674  0.2886  0.2032
  502MOL0     H66204   8.368   6.150   1.024  1.0852 -0.9896 -0.7108
  502MOL0     H66205   8.215   6.008   1.149 -1.8450 -0.1703 -1.2484
  502MOL0     H66206   8.194   5.906   1.009  1.1790 -0.8524 -1.3770
  502MOL0     H66207   8.134   6.203   1.023  0.0337 -0.8767  0.0304
  502MOL0     H66208   8.135   6.118   0.866 -0.9438 -0.6366 -0.9318
  502MOL0     H66209   7.959   6.068   1.092 -0.1850  2.0810 -0.0592
  502MOL0     H66210   7.977   5.954   0.958 -1.1677  0.6419 -2.9483
  502MOL0     H66211   7.911   6.131   0.789 -0.2203  1.0072  0.2929
  502MOL0     H66212   7.866   6.241   0.924  0.5987 -0.9295  1.3867
  502MOL0     H66213   7.734   5.988   0.966 -3.5165 -0.8291 -0.2561
  502MOL0     H66214   7.658   6.143   0.929  2.7591  3.1072 -1.1992
  502MOL0     H66215   7.756   5.899   0.772  0.8074  0.2412  0.7773
  502MOL0     H66216   7.717   6.048   0.683  0.1524 -0.6690 -0.9362
  502MOL0     H66217   7.454   6.154   0.675 -1.7062 -0.3813 -2.2077
  502MOL0     H66218   7.183   6.100   0.667 -2.4948  2.4510  1.5808
  502MOL0     H66219   7.222   6.176   0.810  1.0390  1.2847 -4.0398
  502MOL0     H66220   7.107   5.970   0.927  1.3390  2.1890  0.0400
  502MOL0     H66221   7.083   5.905   0.771  3.1426 -1.5246  1.4558
  502MOL0     H66222   6.918   6.156   0.854 -3.4592  0.4233 -2.2434
  502MOL0     H66223   6.934   6.103   0.698 -0.8563 -0.0066  0.4737
  502MOL0     H66224   6.830   5.942   0.945 -3.5627 -0.4259 -0.0485
  502MOL0     H66225   6.855   5.870   0.789  1.2727 -0.1481  1.7383
  502MOL0     H66226   6.642   5.769   0.817  0.3044 -0.1208  1.1683
  502MOL0     H66227   6.426   5.670   0.892  2.4482 -1.2000  1.7053
  502MOL0     H66228   6.203   5.598   1.245  0.1790  1.7013 -0.6091
  502MOL0     H66229   6.001   5.498   1.361  0.7219  3.0226  1.5010
  502MOL0     H66230   5.784   5.543   1.467  1.3156 -1.2380  1.6744
  502MOL0     H66231   5.820   5.375   1.419  1.3997  0.8361 -1.1079
  502MOL0     H66232   5.583   5.328   1.371 -2.2075  0.1553 -0.3761
  502MOL0     H66233   5.539   5.500   1.386  0.5607  0.8591  1.8269
  502MOL0     H66234   5.646   5.352   1.621 -1.0037 -3.0934 -2.0615
  502MOL0     H66235   5.473   5.344   1.578 -0.0777 -0.7983 -0.2995
  502MOL0     H66236   5.645   5.597   1.631  0.4538 -0.8346  0.6319
  502MOL0     H66237   5.474   5.603   1.588 -0.4703  1.1175  1.4248
  502MOL0     H66238   5.500   5.633   1.821 -1.6237  0.4212  1.2486
  502MOL0     H66239   5.596   5.489   1.840  0.2069  1.3939  0.4262
  502MOL0     H66240   5.384   5.445   1.909  1.8543 -0.0558 -0.6019
  502MOL0     H66241   5.389   5.351   1.758 -2.3578 -0.1930  0.3355
  502MOL0     H66242   5.235   5.584   1.842  2.5833 -1.5367  1.3334
  502MOL0     H66243   5.231   5.552   1.665 -2.2493 -0.6461  0.5033
  502MOL0     H66244   5.182   5.333   1.872  2.8961 -0.3529 -1.8386
  502MOL0     H66245   5.131   5.327   1.702 -0.8221 -0.5862  0.4764
  502MOL0     H66246   5.773   5.588   0.999  0.1718 -0.9797 -0.5084
  502MOL0     H66247   5.964   5.664   0.897 -0.9032  0.5202  0.3112
  502MOL0     H66248   6.276   6.066   0.959 -0.5312  0.7816  1.0409
  502MOL0     H66249   6.502   6.163   0.878  0.2696  0.3643 -1.1454
  502MOL0     H66250   8.616   5.782   1.120  1.5628 -3.4004 -1.2778
  502MOL0     H66251   8.827   5.663   1.152 -3.6321  0.0461  1.6573
  502MOL0     H66252   9.299   5.830   1.011  1.3782  0.2951 -1.3895
  502MOL0     H66253   9.536   5.774   0.990  1.3224 -1.4255 -0.6981
  502MOL0     H66254   9.850   5.629   1.166  1.3643 -0.5937 -1.7727
  502MOL0     H66255   9.748   5.761   1.113 -1.6170  1.0690 -3.7561
  502MOL0     H66256   9.840   5.532   0.923  0.7689 -0.4342  2.5449
  502MOL0     H66257   9.744   5.662   0.880  0.3423 -5.6358 -3.5182
  502MOL0     H66258   9.944   5.823   0.933 -0.4992 -0.7373 -0.4206
  502MOL0     H66259   9.968   5.701   0.808  3.6137  0.9686 -0.6113
  502MOL0     H66260  10.038   5.681   1.105 -0.8575 -1.3732  0.5717
  502MOL0     H66261  10.072   5.564   0.973  0.1834 -0.4127  0.6469
  502MOL0     H66262  10.374   5.867   0.926  2.0659 -2.2547  4.3982
  502MOL0     H66263   9.492   5.463   1.263  1.0269  0.9770  2.5022
  502MOL0     H66264   9.239   5.519   1.299 -1.4356  1.0819  0.0871
  503MOL0     O66265   1.079   7.386   2.018  0.2841  0.2651 -0.6112
  503MOL0     C66266   1.127   7.459   1.934 -0.3409 -0.4903 -0.5679
  503MOL0     O66267   1.059   7.563   1.864 -0.8466  0.2507  0.2902
  503MOL0     C66268   0.925   7.561   1.839 -0.2528 -0.1350 -0.4057
  503MOL0     C66269   0.890   7.675   1.765 -1.1350 -0.8756 -0.1679
  503MOL0     C66270   0.759   7.693   1.734  0.2028  0.6336  0.3440
  503MOL0     C66271   0.654   7.612   1.789  0.8277  0.4275  0.4393
  503MOL0     O66272   0.517   7.633   1.757 -0.0891  0.1465  0.3243
  503MOL0     C66273   0.483   7.759   1.706 -0.1827 -0.2041  0.1621
  503MOL0     C66274   0.335   7.801   1.717  0.0504 -0.3418 -0.0222
  503MOL0     C66275   0.231   7.753   1.617  0.5089 -1.3036  0.1574
  503MOL0     C66276   0.094   7.833   1.629  0.0520  0.1320  0.2342
  503MOL0     C66277   0.018   7.797   1.763 -0.9627  0.0602  0.3506
  503MOL0     C66278  -0.135   7.818   1.749  0.1153  0.0182  0.2981
  503MOL0     C66279  -0.210   7.813   1.879  0.2170  0.4513  0.1345
  503MOL0     C66280  -0.362   7.826   1.849  0.4709  0.4619 -0.6130
  503MOL0     N66281  -0.437   7.834   1.978 -0.0219 -0.2327 -0.1367
  503MOL0     C66282  -0.405   7.766   2.101  0.3227  0.5309  0.1012
  503MOL0     C66283  -0.521   7.766   2.173 -0.8215 -0.2680  0.7385
  503MOL0     C66284  -0.551   7.705   2.307 -0.2114 -0.1200  0.3933
  503MOL0     C66285  -0.683   7.729   2.364  0.7739 -0.5735 -1.0444
  503MOL0     C66286  -0.796   7.636   2.311 -0.1214 -0.8941  0.1733
  503MOL0     C66287  -0.931   7.695   2.340  0.8572  0.6350  0.9594
  503MOL0     O66288  -1.031   7.600   2.301  0.9595 -0.1089 -0.2846
  503MOL0     C66289  -1.166   7.621   2.332  0.4263 -1.0083 -0.4611
  503MOL0     C66290  -1.225   7.750   2.367  0.4846 -0.2203 -0.7565
  503MOL0     C66291  -1.364   7.758   2.397  0.1997 -0.3694 -1.4609
  503MOL0     C66292  -1.442   7.646   2.398 -0.4249  0.1077 -0.1497
  503MOL0     C66293  -1.586   7.657   2.436 -0.4111  0.1312 -0.4377
  503MOL0     O66294  -1.642   7.788   2.449 -0.8505  0.1121  1.2155
  503MOL0     C66295  -1.761   7.823   2.510 -0.2550  0.0027 -0.2680
  503MOL0     C66296  -1.819   7.943   2.480  0.5085 -0.4637  0.6620
  503MOL0     C66297  -1.942   7.995   2.538  0.3682 -0.1733 -0.1783
  503MOL0     C66298  -2.004   7.913   2.627  0.1391  0.0413  0.0789
  503MOL0     O66299  -2.107   7.958   2.704  0.9552 -0.0284  0.4278
  503MOL0     C66300  -2.204   8.048   2.652 -0.5689  0.1900  0.8808
  503MOL0     C66301  -2.324   8.064   2.740 -0.1154  0.3375 -0.1493
  503MOL0     C66302  -2.425   8.169   2.697  1.1741 -0.3134  0.0333
  503MOL0     C66303  -2.554   8.164   2.787 -0.2483  0.8127 -1.0975
  503MOL0     C66304  -2.646   8.277   2.756  0.3922 -0.8636 -0.1839
  503MOL0     C66305  -2.690   8.307   2.610 -0.0022 -0.3691  0.2275
  503MOL0     C66306  -2.809   8.405   2.627 -0.0498  0.1318  0.4153
  503MOL0     C66307  -2.768   8.545   2.695 -0.4541 -0.1640 -1.1745
  503MOL0    Cl66308  -2.898   8.674   2.678 -0.1468 -0.0659 -0.2064
  503MOL0     C66309  -1.954   7.783   2.652  0.1671 -0.1538 -0.7079
  503MOL0     C66310  -1.826   7.740   2.599  0.6714 -0.7156 -0.0751
  503MOL0     O66311  -1.648   7.549   2.452 -0.0366  0.5386  0.0674
  503MOL0     C66312  -1.384   7.522   2.364 -0.0289  0.6316  0.2094
  503MOL0     C66313  -1.244   7.507   2.338  0.2921 -0.2515  0.4785
  503MOL0     N66314  -0.616   7.835   2.102  1.2976 -0.0230  0.3266
  503MOL0     N66315  -0.571   7.875   1.990 -0.1812 -0.3281 -0.2452
  503MOL0     C66316   0.698   7.507   1.867  0.2138  1.3735  0.1191
  503MOL0     C66317   0.828   7.480   1.890 -0.1330  0.4674 -0.0256
  503MOL0     C66318   1.270   7.438   1.903 -0.3186  0.1721 -1.2018
  503MOL0     C66319   1.328   7.313   1.930  0.5012  0.6977  0.4675
  503MOL0     C66320   1.463   7.293   1.894 -0.0335  0.5905 -0.0073
  503MOL0     C66321   1.548   7.400   1.852 -0.1652  0.1562 -0.6054
  503MOL0     O66322   1.684   7.394   1.828 -0.3713  0.9088  0.6545
  503MOL0     C66323   1.746   7.266   1.835 -0.5407 -0.0983 -0.3567
  503MOL0     C66324   1.894   7.281   1.798 -0.2459 -0.3393 -0.2130
  503MOL0     C66325   1.980   7.318   1.928 -0.2306  0.2713 -0.6843
  503MOL0     C66326   2.122   7.358   1.875  0.6098  0.3380 -0.3962
  503MOL0     C66327   2.203   7.395   1.985 -0.5538 -0.3181 -0.0308
  503MOL0     C66328   2.271   7.419   2.080 -0.2105  0.4041  0.3824
  503MOL0     C66329   1.496   7.525   1.835  0.8426  0.5615  0.8642
  503MOL0     C66330   1.347   7.546   1.851 -1.4854 -0.3886  0.2256
  503MOL0     H66331   0.965   7.748   1.737 -1.5659 -0.4672 -0.2889
  503MOL0     H66332   0.739   7.777   1.668  0.0958  1.6914  1.6641
  503MOL0     H66333   0.510   7.759   1.600  0.6347  0.4496  0.3590
  503MOL0     H66334   0.542   7.832   1.763 -0.2036 -0.3490  0.3691
  503MOL0     H66335   0.338   7.910   1.718 -0.4973 -0.2295  3.9726
  503MOL0     H66336   0.296   7.775   1.815  1.0601 -3.8126 -0.3920
  503MOL0     H66337   0.213   7.646   1.629 -3.6489 -0.7788 -0.0895
  503MOL0     H66338   0.262   7.774   1.514  0.7148  0.5559  0.5667
  503MOL0     H66339   0.113   7.940   1.623 -1.9109  0.5179  0.0502
  503MOL0     H66340   0.022   7.798   1.554 -0.7590  1.4820  0.3550
  503MOL0     H66341   0.051   7.866   1.841 -1.8740 -0.7619  1.5162
  503MOL0     H66342   0.047   7.697   1.799  2.0827  0.5726 -0.4726
  503MOL0     H66343  -0.168   7.737   1.683  0.7346 -1.6845  1.9783
  503MOL0     H66344  -0.162   7.913   1.702 -1.6892 -0.3073  0.6242
  503MOL0     H66345  -0.189   7.719   1.932  0.5438  0.2518 -0.3399
  503MOL0     H66346  -0.168   7.888   1.946  3.6979 -0.9705 -0.2130
  503MOL0     H66347  -0.392   7.745   1.782  1.0374  0.1266 -0.4650
  503MOL0     H66348  -0.376   7.929   1.813  0.6805  1.3999  1.8020
  503MOL0     H66349  -0.315   7.711   2.125  0.1139 -1.6987 -3.4599
  503MOL0     H66350  -0.482   7.732   2.388 -0.2105 -1.4528  0.8766
  503MOL0     H66351  -0.548   7.596   2.293  1.7902 -0.8305  4.7205
  503MOL0     H66352  -0.719   7.831   2.344 -2.3643 -1.5542 -0.8917
  503MOL0     H66353  -0.677   7.722   2.473  1.1084  0.0430 -1.0179
  503MOL0     H66354  -0.781   7.628   2.203 -2.9583  1.4004 -0.5248
  503MOL0     H66355  -0.797   7.538   2.360  1.6603 -1.0521 -0.0410
  503MOL0     H66356  -0.946   7.784   2.277  1.7484  0.3712  0.3528
  503MOL0     H66357  -0.941   7.720   2.446  0.6046  1.5082  0.7404
  503MOL0     H66358  -1.163   7.838   2.354 -2.0337  1.7405 -0.4837
  503MOL0     H66359  -1.409   7.856   2.415 -0.2690 -0.8892  0.4222
  503MOL0     H66360  -1.775   8.018   2.415 -2.8750  3.0794  2.1186
  503MOL0     H66361  -1.965   8.101   2.536  2.7187  0.5929  3.4412
  503MOL0     H66362  -2.236   8.009   2.555  2.2279  1.0098 -0.4793
  503MOL0     H66363  -2.163   8.146   2.625  2.4069 -1.0599  0.4855
  503MOL0     H66364  -2.285   8.092   2.838 -1.2590 -0.7076  0.6327
  503MOL0     H66365  -2.376   7.967   2.739  1.7870 -0.7577  0.6187
  503MOL0     H66366  -2.452   8.152   2.592  1.9065  1.4595 -0.4920
  503MOL0     H66367  -2.382   8.270   2.701  0.3717  0.0514 -0.2979
  503MOL0     H66368  -2.595   8.063   2.780  2.9053 -1.0443  2.6476
  503MOL0     H66369  -2.531   8.168   2.894 -0.7835  1.2462 -0.9922
  503MOL0     H66370  -2.593   8.367   2.789 -1.1173 -0.0804  0.2419
  503MOL0     H66371  -2.740   8.279   2.813 -0.8475  2.2871 -2.0517
  503MOL0     H66372  -2.735   8.218   2.564 -0.3556  0.3930 -0.9640
  503MOL0     H66373  -2.608   8.344   2.548  0.0074 -0.8605 -0.0625
  503MOL0     H66374  -2.848   8.434   2.529 -2.9841  4.5783  2.5451
  503MOL0     H66375  -2.893   8.356   2.678 -0.8414 -0.1719 -1.1278
  503MOL0     H66376  -2.673   8.574   2.649  2.0055 -4.0680  0.8831
  503MOL0     H66377  -2.741   8.536   2.801  4.5016  2.7370 -1.8768
  503MOL0     H66378  -2.013   7.719   2.717 -0.7213 -0.0102 -1.3619
  503MOL0     H66379  -1.777   7.647   2.627  0.8536 -0.7306 -0.4409
  503MOL0     H66380  -1.450   7.438   2.347 -0.0304  0.3900  1.3168
  503MOL0     H66381  -1.209   7.407   2.313 -0.7852 -0.7142  0.7654
  503MOL0     H66382   0.625   7.439   1.910 -1.0874  2.5646 -0.1259
  503MOL0     H66383   0.843   7.387   1.944 -1.7969 -1.4555 -2.6438
  503MOL0     H66384   1.276   7.235   1.984  1.3096  1.2146  2.0671
  503MOL0     H66385   1.515   7.202   1.923  0.0957  0.6428 -0.0735
  503MOL0     H66386   1.706   7.194   1.763 -0.1301  0.0045 -0.6902
  503MOL0     H66387   1.726   7.224   1.934 -1.9034 -1.6736 -1.2465
  503MOL0     H66388   1.931   7.182   1.771  0.4594  0.2309 -1.4627
  503MOL0     H66389   1.911   7.350   1.714 -1.2748  0.0455 -0.1251
  503MOL0     H66390   2.002   7.238   2.000  3.5462  1.7979  0.0893
  503MOL0     H66391   1.936   7.399   1.986  0.7030  0.4117 -0.1582
  503MOL0     H66392   2.160   7.271   1.820 -0.3913 -0.9552  0.8665
  503MOL0     H66393   2.121   7.445   1.809  1.2266  2.6292  2.4258
  503MOL0     H66394   2.326   7.451   2.167  1.6761  0.4255 -0.7727
  503MOL0     H66395   1.565   7.607   1.817  1.1472 -0.1354 -1.5111
  503MOL0     H66396   1.302   7.643   1.836  0.8418  0.8060  0.4684
  504MOL0     O66397   5.886   6.453   2.310  0.0203  0.3436  0.5201
  504MOL0     C66398   5.942   6.521   2.223 -0.1579 -0.2593 -0.2329
  504MOL0     O66399   5.896   6.645   2.175  0.3134 -0.0225 -0.4302
  504MOL0     C66400   5.768   6.681   2.207 -0.5626  0.1006  0.3933
  504MOL0     C66401   5.732   6.801   2.253  0.0341 -0.6175  0.4689
  504MOL0     C66402   5.608   6.842   2.293  0.3269 -0.2679 -0.7865
  504MOL0     C66403   5.505   6.754   2.288  0.1276 -0.3514 -0.9033
  504MOL0     O66404   5.376   6.780   2.317  0.2495 -0.6126 -0.3413
  504MOL0     C66405   5.315   6.908   2.288 -0.0450  0.1596 -0.3646
  504MOL0     C66406   5.258   6.968   2.421  0.1141 -0.6710  0.8207
  504MOL0     C66407   5.366   6.992   2.528  0.4975  0.6272  0.9822
  504MOL0     C66408   5.313   6.985   2.672  0.7893  0.2583  0.3856
  504MOL0     C66409   5.188   7.066   2.691  0.0456  0.7808 -0.0609
  504MOL0     C66410   5.215   7.219   2.690 -0.2723 -0.8100 -0.2016
  504MOL0     C66411   5.093   7.309   2.689 -0.8087 -0.9189 -0.2364
  504MOL0     C66412   5.026   7.328   2.553  1.1240 -0.2321  0.4632
  504MOL0     N66413   4.908   7.418   2.543  0.4441 -0.7037 -0.8228
  504MOL0     C66414   4.812   7.418   2.441  0.8538 -0.1693 -0.2737
  504MOL0     C66415   4.739   7.528   2.466 -0.2287 -0.2105 -0.1126
  504MOL0     C66416   4.622   7.568   2.379  0.6421  0.2933  0.2932
  504MOL0     C66417   4.520   7.671   2.428  0.1202 -0.9448 -0.2384
  504MOL0     C66418   4.421   7.615   2.536 -0.8965  0.5043  1.0349
  504MOL0     C66419   4.312   7.710   2.597  1.2558  0.5762  0.9562
  504MOL0     O66420   4.260   7.797   2.488  0.4637 -0.0306 -0.5923
  504MOL0     C66421   4.134   7.768   2.442 -0.1572  0.1586 -0.4823
  504MOL0     C66422   4.097   7.769   2.300  0.3149 -0.0272 -0.4890
  504MOL0     C66423   3.964   7.764   2.264  0.1571  0.0732  0.0033
  504MOL0     C66424   3.860   7.747   2.348 -0.0126  1.3707 -0.8923
  504MOL0     C66425   3.722   7.717   2.300 -0.7301  0.2138  0.1992
  504MOL0     O66426   3.628   7.665   2.385 -0.1798 -0.5366  0.2351
  504MOL0     C66427   3.496   7.663   2.342 -0.0354  0.5264  0.5378
  504MOL0     C66428   3.441   7.778   2.281 -0.0396 -0.0291 -0.1284
  504MOL0     C66429   3.308   7.775   2.228 -0.6011  0.1913 -0.1143
  504MOL0     C66430   3.223   7.663   2.239 -0.1555  0.5555 -0.1449
  504MOL0     O66431   3.087   7.668   2.201  0.2295 -0.7961 -0.4604
  504MOL0     C66432   3.035   7.768   2.114 -0.4753 -0.3753  0.0621
  504MOL0     C66433   2.896   7.725   2.062  0.2236 -0.2143  0.0066
  504MOL0     C66434   2.786   7.755   2.164 -0.4653 -0.0345  0.4050
  504MOL0     C66435   2.657   7.690   2.111 -0.7998  0.1164 -0.2561
  504MOL0     C66436   2.531   7.747   2.181  0.9527 -0.1817 -0.2907
  504MOL0     C66437   2.518   7.735   2.331  0.4913 -0.5368 -0.5347
  504MOL0     C66438   2.385   7.795   2.379 -0.5954  0.4365 -0.2603
  504MOL0     C66439   2.269   7.686   2.370  0.5148 -0.4983  0.0871
  504MOL0    Cl66440   2.308   7.575   2.500  0.2151 -0.0836  0.0636
  504MOL0     C66441   3.276   7.547   2.289  0.4147 -0.4520  0.1188
  504MOL0     C66442   3.411   7.548   2.335  0.3612 -0.1747  0.5207
  504MOL0     O66443   3.705   7.743   2.181  0.0672  0.3825  0.1947
  504MOL0     C66444   3.893   7.749   2.484  0.3643 -0.4022  0.0124
  504MOL0     C66445   4.023   7.760   2.532 -0.3887 -0.3641  0.1286
  504MOL0     N66446   4.804   7.600   2.566  0.4051 -0.0344 -0.3518
  504MOL0     N66447   4.898   7.530   2.617  1.2399  0.6506  0.8209
  504MOL0     C66448   5.532   6.634   2.227 -0.1086 -0.2879  0.9146
  504MOL0     C66449   5.662   6.596   2.187  0.3339 -0.6341  0.0644
  504MOL0     C66450   6.077   6.495   2.172 -0.5868 -0.2898  0.4052
  504MOL0     C66451   6.134   6.573   2.065  0.2847 -0.3344  0.2561
  504MOL0     C66452   6.272   6.547   2.026  0.4225 -0.3295 -0.3187
  504MOL0     C66453   6.350   6.456   2.096 -1.1814 -0.2665  0.4448
  504MOL0     O66454   6.485   6.445   2.059  0.0444  0.7297  0.0619
  504MOL0     C66455   6.579   6.503   2.148 -0.5213 -0.1614 -0.8126
  504MOL0     C66456   6.682   6.578   2.066  0.4504  0.2891  0.0050
  504MOL0     C66457   6.785   6.470   2.001 -0.3173 -0.3995 -1.3740
  504MOL0     C66458   6.866   6.531   1.883 -0.4667  0.5901 -1.1197
  504MOL0     C66459   6.975   6.606   1.946  0.1546 -0.5499  0.5414
  504MOL0     C66460   7.056   6.672   2.012  0.1445 -0.4204  0.5509
  504MOL0     C66461   6.302   6.391   2.207 -0.2144  0.0791 -0.2557
  504MOL0     C66462   6.167   6.408   2.248 -0.1074 -1.3170 -0.7086
  504MOL0     H66463   5.809   6.878   2.260 -1.6090  1.3797 -1.7092
  504MOL0     H66464   5.605   6.939   2.341  2.4749 -0.8585  0.6824
  504MOL0     H66465   5.232   6.899   2.218 -1.9816 -2.4062  2.0753
  504MOL0     H66466   5.386   6.977   2.240 -0.1717  0.0918 -0.6520
  504MOL0     H66467   5.177   6.910   2.467 -1.3041  2.3591  2.4043
  504MOL0     H66468   5.221   7.066   2.391  3.1871  0.8914  1.7516
  504MOL0     H66469   5.407   7.092   2.513 -1.6835  1.4590  0.0615
  504MOL0     H66470   5.452   6.928   2.509 -0.6132 -0.7927  0.5197
  504MOL0     H66471   5.287   6.880   2.690 -0.6508  0.8206  1.8003
  504MOL0     H66472   5.400   7.002   2.736  1.3908 -1.4122  0.0727
  504MOL0     H66473   5.166   7.042   2.796 -0.9819 -0.1698 -0.4747
  504MOL0     H66474   5.107   7.031   2.626  0.6329  4.1454 -2.8976
  504MOL0     H66475   5.261   7.238   2.592  0.1452  4.2056  0.6829
  504MOL0     H66476   5.269   7.243   2.782 -0.4983 -2.4219  0.3686
  504MOL0     H66477   5.023   7.266   2.762 -1.1147 -0.6325 -0.3612
  504MOL0     H66478   5.109   7.405   2.738 -0.2513 -0.9791 -0.2938
  504MOL0     H66479   4.989   7.229   2.523 -2.0252  1.2160 -0.9148
  504MOL0     H66480   5.106   7.345   2.480  2.7425  2.1703  2.6190
  504MOL0     H66481   4.788   7.340   2.369  0.1994  0.7985 -1.1261
  504MOL0     H66482   4.564   7.476   2.370  0.2895  0.2731  2.4049
  504MOL0     H66483   4.657   7.607   2.282 -1.8529 -0.2450 -0.9043
  504MOL0     H66484   4.461   7.714   2.347  2.4893 -0.7194 -1.9130
  504MOL0     H66485   4.575   7.753   2.475  1.6481 -1.2957 -1.3439
  504MOL0     H66486   4.359   7.536   2.493 -1.3735  1.2980  0.2261
  504MOL0     H66487   4.467   7.569   2.624 -1.1624 -0.3697  0.7214
  504MOL0     H66488   4.358   7.767   2.678  1.2058 -0.3533  1.6579
  504MOL0     H66489   4.235   7.641   2.633  0.9524 -1.7174 -3.3393
  504MOL0     H66490   4.166   7.781   2.217 -1.7692 -1.6901 -2.5988
  504MOL0     H66491   3.941   7.774   2.158 -0.8009 -0.8417  0.1093
  504MOL0     H66492   3.494   7.873   2.286 -0.6392  0.3172 -0.1857
  504MOL0     H66493   3.257   7.866   2.202 -0.9865  0.6014  1.8941
  504MOL0     H66494   3.101   7.797   2.031  0.8069  1.0012  1.5011
  504MOL0     H66495   3.021   7.865   2.164 -0.9567 -0.6289  0.4266
  504MOL0     H66496   2.897   7.619   2.036 -1.5278 -0.0481 -0.8421
  504MOL0     H66497   2.885   7.784   1.971  3.1792  0.9161  0.2570
  504MOL0     H66498   2.786   7.864   2.173 -0.7857  0.1552 -1.5637
  504MOL0     H66499   2.812   7.732   2.268 -0.4044  4.3315  1.5373
  504MOL0     H66500   2.642   7.699   2.003  1.4496  0.3139 -0.6075
  504MOL0     H66501   2.668   7.583   2.128 -1.8201  0.1969  1.0799
  504MOL0     H66502   2.442   7.704   2.135 -0.3827  1.3639  0.7596
  504MOL0     H66503   2.523   7.856   2.168 -1.0360 -0.0585  1.5358
  504MOL0     H66504   2.604   7.794   2.365  0.0116 -0.0355 -0.1691
  504MOL0     H66505   2.553   7.641   2.375  4.8833  0.3650 -1.5930
  504MOL0     H66506   2.394   7.838   2.479 -1.3687 -0.9141  0.4119
  504MOL0     H66507   2.363   7.882   2.316 -0.7049  0.3873 -0.2913
  504MOL0     H66508   2.259   7.639   2.272 -0.7007 -0.0256 -0.0400
  504MOL0     H66509   2.173   7.736   2.386  1.4322  1.2123  0.4703
  504MOL0     H66510   3.223   7.453   2.297  2.5754 -1.6597  1.0231
  504MOL0     H66511   3.435   7.452   2.379 -2.6390 -0.8598  0.9058
  504MOL0     H66512   3.809   7.738   2.552 -0.2155  1.5708 -0.3283
  504MOL0     H66513   4.034   7.744   2.639  0.2033 -2.1067 -0.1437
  504MOL0     H66514   5.444   6.573   2.209 -0.0462  0.6459 -3.9692
  504MOL0     H66515   5.693   6.497   2.155  3.0564 -0.0139  0.4936
  504MOL0     H66516   6.082   6.652   2.011  2.3320  0.7948 -0.1833
  504MOL0     H66517   6.323   6.600   1.946 -0.7293  1.0903 -0.1537
  504MOL0     H66518   6.628   6.430   2.213  3.4397  0.5250 -2.7262
  504MOL0     H66519   6.526   6.575   2.212  0.2768 -0.0193 -0.3069
  504MOL0     H66520   6.645   6.644   1.986  1.3930  0.5913 -0.2015
  504MOL0     H66521   6.742   6.643   2.131  1.6812  2.5499 -3.1169
  504MOL0     H66522   6.726   6.386   1.964 -1.5633  0.0398 -0.4578
  504MOL0     H66523   6.847   6.432   2.083 -2.8862  2.2869  2.1619
  504MOL0     H66524   6.898   6.447   1.821 -1.4728 -0.8819  0.2550
  504MOL0     H66525   6.799   6.586   1.816 -1.6330  1.7847  0.9256
  504MOL0     H66526   7.121   6.737   2.067 -0.0387  0.3535 -0.1434
  504MOL0     H66527   6.349   6.324   2.278 -1.0182 -0.9924 -0.7230
  504MOL0     H66528   6.128   6.338   2.321  0.0125 -0.8704 -0.2076
  505MOL0     O66529   4.346   6.865   4.029  0.2635 -0.2717 -0.1073
  505MOL0     C66530   4.309   6.762   3.968  0.1152 -0.2060  0.2708
  505MOL0     O66531   4.385   6.697   3.875  1.3015  0.6804 -0.0087
  505MOL0     C66532   4.520   6.705   3.866 -0.1125  0.1733 -0.3956
  505MOL0     C66533   4.567   6.620   3.767 -0.0340  0.3461 -1.1867
  505MOL0     C66534   4.706   6.597   3.761  0.3568 -0.3092 -0.7985
  505MOL0     C66535   4.797   6.678   3.836 -0.2914  1.0409 -0.0576
  505MOL0     O66536   4.926   6.667   3.812  0.3407  0.2959 -0.1234
  505MOL0     C66537   4.965   6.715   3.678  0.4007  0.1745 -0.0978
  505MOL0     C66538   5.036   6.598   3.618  0.0428  0.3957 -0.1970
  505MOL0     C66539   5.122   6.649   3.491 -0.3811 -0.1428  0.0817
  505MOL0     C66540   5.156   6.519   3.408 -0.3232 -0.1750  0.1042
  505MOL0     C66541   5.250   6.554   3.286  0.1992 -0.3543 -0.2493
  505MOL0     C66542   5.185   6.636   3.179  1.2141 -0.2724 -0.5874
  505MOL0     C66543   5.255   6.637   3.042 -0.3126 -0.2621  0.8173
  505MOL0     C66544   5.167   6.702   2.941  0.7014  0.5718 -0.5725
  505MOL0     N66545   5.020   6.672   2.933 -0.3433 -0.5716 -0.0838
  505MOL0     C66546   4.916   6.750   2.949  1.1864 -0.0652  0.2805
  505MOL0     C66547   4.812   6.672   2.908  0.1986  0.7054  0.3205
  505MOL0     C66548   4.668   6.714   2.913 -0.1531 -0.2150  0.1705
  505MOL0     C66549   4.591   6.623   3.020  0.2355  0.2552  0.7076
  505MOL0     C66550   4.451   6.690   3.026 -0.1959  0.4211 -0.4205
  505MOL0     C66551   4.364   6.605   3.121  0.9047 -0.1945  0.2147
  505MOL0     O66552   4.235   6.669   3.125 -0.2087  1.1555  0.1490
  505MOL0     C66553   4.129   6.596   3.169  0.7512  0.3202 -0.2069
  505MOL0     C66554   4.134   6.470   3.217  0.0774  1.0737  0.1967
  505MOL0     C66555   4.019   6.402   3.270  0.2164  0.1545  0.1128
  505MOL0     C66556   3.892   6.472   3.262  0.0347 -0.4004 -0.5920
  505MOL0     C66557   3.769   6.401   3.298  0.2813 -0.2734  0.2571
  505MOL0     O66558   3.778   6.317   3.408  0.3573  0.6685  0.2712
  505MOL0     C66559   3.656   6.261   3.454  0.0798 -1.1825 -0.5071
  505MOL0     C66560   3.525   6.311   3.435 -1.0075 -0.3007  0.6575
  505MOL0     C66561   3.420   6.241   3.498  0.1527  0.1829  0.3501
  505MOL0     C66562   3.450   6.137   3.582  1.3141  0.4055  0.2119
  505MOL0     O66563   3.334   6.074   3.617 -0.5948  0.0910 -0.9087
  505MOL0     C66564   3.339   6.011   3.748  0.4403  0.3202 -1.8305
  505MOL0     C66565   3.197   6.030   3.818  0.5554 -0.4326 -0.1936
  505MOL0     C66566   3.193   5.959   3.955  0.0721  0.5558  0.3858
  505MOL0     C66567   3.072   5.999   4.043 -1.5123 -0.7170  0.3794
  505MOL0     C66568   3.107   5.975   4.195 -0.7124 -0.6565  0.0796
  505MOL0     C66569   3.148   5.833   4.228  0.2275  0.4066  0.2536
  505MOL0     C66570   3.144   5.820   4.376  0.5952 -0.2909  0.2645
  505MOL0     C66571   3.202   5.682   4.411 -0.1059 -0.0827 -0.0093
  505MOL0    Cl66572   3.187   5.661   4.588 -0.1594  0.2680  0.4700
  505MOL0     C66573   3.577   6.091   3.599  0.4789 -0.7399 -0.5847
  505MOL0     C66574   3.682   6.152   3.533  0.4251 -0.6021  0.7992
  505MOL0     O66575   3.672   6.400   3.214  0.5507 -0.7848  0.9204
  505MOL0     C66576   3.887   6.602   3.203 -0.3240 -0.0835 -0.8184
  505MOL0     C66577   4.005   6.658   3.159  0.4941 -0.9997  0.0403
  505MOL0     N66578   4.859   6.548   2.866 -0.1638  0.3555  0.9778
  505MOL0     N66579   4.989   6.550   2.887  0.1985 -0.2495 -0.0358
  505MOL0     C66580   4.748   6.757   3.938  0.0316 -0.7215  0.5029
  505MOL0     C66581   4.607   6.771   3.957 -0.4642  0.3126 -0.1594
  505MOL0     C66582   4.169   6.717   3.978 -1.5148  0.8799 -0.2805
  505MOL0     C66583   4.078   6.791   4.058 -0.2713 -0.5288  0.1331
  505MOL0     C66584   3.939   6.752   4.069 -0.5483  0.2559 -0.0100
  505MOL0     C66585   3.900   6.634   3.999  0.9013 -0.0309 -0.2883
  505MOL0     O66586   3.762   6.611   4.001  0.5516  0.2406  0.0387
  505MOL0     C66587   3.720   6.488   3.926  0.6062  0.3696  0.2640
  505MOL0     C66588   3.569   6.458   3.972 -0.0938  1.0478  0.5303
  505MOL0     C66589   3.510   6.349   3.876  0.3746 -1.1789  0.7200
  505MOL0     C66590   3.353   6.357   3.882 -0.9670 -0.5673  0.6575
  505MOL0     C66591   3.319   6.306   4.014  0.1685 -0.5959 -0.3054
  505MOL0     C66592   3.293   6.287   4.129  0.9791  0.0359  0.8237
  505MOL0     C66593   3.991   6.559   3.932 -0.2909  0.5970  0.4780
  505MOL0     C66594   4.127   6.595   3.926 -0.3352 -0.8011 -0.6716
  505MOL0     H66595   4.496   6.567   3.705 -0.0799 -1.0757  0.0239
  505MOL0     H66596   4.734   6.529   3.682  2.6620  0.8638 -1.0792
  505MOL0     H66597   5.032   6.802   3.681  2.5046 -1.3803  0.4132
  505MOL0     H66598   4.879   6.735   3.613  2.2833 -0.3017 -2.9669
  505MOL0     H66599   4.974   6.517   3.577 -0.0178  2.0460 -3.7153
  505MOL0     H66600   5.091   6.546   3.697 -3.1330 -0.9533  1.3151
  505MOL0     H66601   5.212   6.700   3.526  0.5196 -1.6752  0.0752
  505MOL0     H66602   5.067   6.722   3.430  0.8360  0.6207 -0.1279
  505MOL0     H66603   5.206   6.447   3.474  1.9635 -1.0531 -2.3924
  505MOL0     H66604   5.062   6.473   3.377 -1.5897  2.3718 -0.1004
  505MOL0     H66605   5.292   6.461   3.247 -1.2087 -0.0390 -2.7522
  505MOL0     H66606   5.342   6.609   3.306  0.0800 -0.5937  1.0317
  505MOL0     H66607   5.176   6.740   3.214 -1.7561  0.1902 -2.3644
  505MOL0     H66608   5.085   6.597   3.159  1.4384 -3.0591  2.7998
  505MOL0     H66609   5.354   6.683   3.046 -0.6614  0.6011 -0.1196
  505MOL0     H66610   5.273   6.531   3.022  1.7474  0.3993 -1.2094
  505MOL0     H66611   5.203   6.683   2.840  0.1166  0.0114 -0.6817
  505MOL0     H66612   5.176   6.810   2.953 -0.3662  0.4778  1.9027
  505MOL0     H66613   4.911   6.849   2.995 -3.0942 -0.2302  0.5505
  505MOL0     H66614   4.626   6.711   2.813 -4.2010  2.9182  1.5200
  505MOL0     H66615   4.666   6.819   2.942  2.0147 -0.6690  2.4147
  505MOL0     H66616   4.644   6.614   3.115 -3.0785 -2.6519  2.5214
  505MOL0     H66617   4.574   6.523   2.978  0.7857 -0.0831  1.2800
  505MOL0     H66618   4.467   6.785   3.078  1.8443 -2.1292  4.2287
  505MOL0     H66619   4.403   6.704   2.929  1.5157  1.7692 -1.1281
  505MOL0     H66620   4.424   6.595   3.212  1.6933  0.7202 -0.1885
  505MOL0     H66621   4.348   6.513   3.065 -1.0155  0.6832 -0.7845
  505MOL0     H66622   4.224   6.410   3.226  0.8722  2.1986 -0.0793
  505MOL0     H66623   4.021   6.303   3.314 -0.7063  0.4303  0.8299
  505MOL0     H66624   3.526   6.400   3.373  5.2306  1.3314  2.3728
  505MOL0     H66625   3.319   6.265   3.467  0.7770  0.1398 -1.9350
  505MOL0     H66626   3.404   6.067   3.816 -0.4990 -0.4551 -0.2360
  505MOL0     H66627   3.375   5.908   3.736 -0.9868 -0.3939 -0.3262
  505MOL0     H66628   3.123   5.976   3.758  0.6421 -1.2207  0.3898
  505MOL0     H66629   3.156   6.131   3.830 -4.0144 -1.7241 -2.4843
  505MOL0     H66630   3.280   5.996   4.011  1.1706 -1.0143 -0.2256
  505MOL0     H66631   3.205   5.851   3.946  4.8475  0.9486 -1.0906
  505MOL0     H66632   3.051   6.105   4.031  2.0619  0.3001  1.6572
  505MOL0     H66633   2.982   5.948   4.009 -1.4780  1.2967 -3.2104
  505MOL0     H66634   3.028   6.011   4.261  0.4037  1.3523  0.4128
  505MOL0     H66635   3.194   6.041   4.203 -0.2029 -0.8741 -2.5616
  505MOL0     H66636   3.247   5.812   4.188  0.8079  1.3558  1.1556
  505MOL0     H66637   3.079   5.757   4.189  0.4217  1.6164 -2.7239
  505MOL0     H66638   3.204   5.899   4.424  0.4339  0.6762 -1.0513
  505MOL0     H66639   3.043   5.838   4.414 -0.8595 -0.8602 -2.9908
  505MOL0     H66640   3.307   5.683   4.382 -0.4290 -0.5545 -1.2549
  505MOL0     H66641   3.155   5.597   4.362 -0.8476 -0.7205  1.7380
  505MOL0     H66642   3.585   6.001   3.658  2.1097 -0.1830  0.0806
  505MOL0     H66643   3.783   6.114   3.541  1.2161  1.5537  1.5596
  505MOL0     H66644   3.808   6.677   3.199  1.1816  1.5883 -0.9103
  505MOL0     H66645   4.001   6.761   3.125 -0.6364 -1.1393 -0.2771
  505MOL0     H66646   4.825   6.805   3.997 -2.0716  0.2670  2.5879
  505MOL0     H66647   4.577   6.817   4.050  0.8936  0.5895  0.1708
  505MOL0     H66648   4.108   6.883   4.107  0.9567 -0.7338 -0.1964
  505MOL0     H66649   3.867   6.821   4.113  0.4952  0.9879  0.5843
  505MOL0     H66650   3.778   6.399   3.951  0.8885  0.9859  1.9354
  505MOL0     H66651   3.721   6.504   3.817  2.9617 -1.6922 -0.1050
  505MOL0     H66652   3.576   6.420   4.075 -0.0168 -1.2179 -0.2477
  505MOL0     H66653   3.511   6.551   3.969  0.8783  1.6649 -2.2373
  505MOL0     H66654   3.545   6.248   3.896  4.3796 -0.0238  0.3379
  505MOL0     H66655   3.548   6.371   3.776  1.1727 -1.8960  0.8654
  505MOL0     H66656   3.319   6.457   3.855 -1.7027 -1.2415 -1.0422
  505MOL0     H66657   3.298   6.293   3.812 -1.5656  0.1081  0.5032
  505MOL0     H66658   3.265   6.291   4.233 -4.1564  2.6909 -0.3265
  505MOL0     H66659   3.965   6.466   3.882 -3.4590  0.5984  1.8725
  505MOL0     H66660   4.198   6.534   3.870 -1.3584 -0.0245 -2.9406
  506MOL0     O66661  10.457   0.223   1.312 -0.0845 -0.4353 -1.4891
  506MOL0     C66662  10.489   0.306   1.401 -0.0610 -0.2241 -0.1855
  506MOL0     O66663  10.403   0.398   1.446  0.3441  0.3814 -0.1187
  506MOL0     C66664  10.266   0.398   1.430 -0.0025 -0.5579 -0.7714
  506MOL0     C66665  10.190   0.283   1.437 -0.0707 -1.2208 -0.0059
  506MOL0     C66666  10.051   0.288   1.425  0.0917  0.0242 -0.8582
  506MOL0     C66667   9.985   0.412   1.408 -0.1433 -0.1280  0.2285
  506MOL0     O66668   9.848   0.414   1.403 -0.5988  0.4818  0.2355
  506MOL0     C66669   9.775   0.529   1.421 -0.1610 -0.4664 -0.1189
  506MOL0     C66670   9.630   0.501   1.412  0.0343  0.9619  0.2840
  506MOL0     C66671   9.583   0.445   1.272 -0.5245 -0.7558 -0.4462
  506MOL0     C66672   9.581   0.560   1.168  0.5580 -0.7943  0.7651
  506MOL0     C66673   9.531   0.511   1.026  0.0273 -0.2072  0.2196
  506MOL0     C66674   9.495   0.629   0.946  0.7118 -0.3358  0.0125
  506MOL0     C66675   9.596   0.746   0.932  0.6746  0.4377 -0.2051
  506MOL0     C66676   9.554   0.855   0.841 -0.0615 -0.5764  0.2301
  506MOL0     N66677   9.433   0.927   0.899 -0.4223  0.1129  0.5880
  506MOL0     C66678   9.323   0.960   0.828  0.3483  0.1468  0.2435
  506MOL0     C66679   9.248   1.035   0.909 -0.5095  0.1835 -0.7141
  506MOL0     C66680   9.111   1.082   0.882 -1.1433  0.0216 -0.5674
  506MOL0     C66681   9.035   1.078   1.011 -1.4320 -0.0316 -0.7642
  506MOL0     C66682   8.884   1.075   0.990  0.5381 -0.2176 -0.5570
  506MOL0     C66683   8.846   1.207   0.909  0.4094  0.3506  0.2802
  506MOL0     O66684   8.818   1.171   0.767  0.5516 -0.4469 -0.4803
  506MOL0     C66685   8.695   1.191   0.710  0.1284  0.1412 -0.6468
  506MOL0     C66686   8.674   1.132   0.591  0.7179 -0.1600 -0.2124
  506MOL0     C66687   8.549   1.154   0.524  0.4523  0.3673 -0.1594
  506MOL0     C66688   8.450   1.246   0.570 -0.5783 -0.0392  0.1918
  506MOL0     C66689   8.328   1.283   0.487 -0.0779 -0.2303 -0.0657
  506MOL0     O66690   8.241   1.368   0.556 -0.1343  0.3200 -0.2160
  506MOL0     C66691   8.122   1.404   0.508  0.6742 -0.3676  0.0667
  506MOL0     C66692   8.039   1.460   0.606  0.4509 -0.1016 -0.4786
  506MOL0     C66693   7.912   1.514   0.585  0.3645 -0.4082 -0.4290
  506MOL0     C66694   7.861   1.515   0.454  0.0098 -0.2292 -0.4136
  506MOL0     O66695   7.735   1.568   0.421 -0.0246  0.0128  0.5915
  506MOL0     C66696   7.620   1.545   0.509  0.1595 -0.3945 -0.0315
  506MOL0     C66697   7.593   1.396   0.531  0.0804  0.2340 -0.2700
  506MOL0     C66698   7.579   1.318   0.401  0.0764  0.3255 -1.1891
  506MOL0     C66699   7.483   1.370   0.299 -0.3142 -0.0404  0.1235
  506MOL0     C66700   7.336   1.379   0.342 -0.1909  0.0284 -0.0283
  506MOL0     C66701   7.255   1.418   0.216 -1.3436  0.3296  0.1513
  506MOL0     C66702   7.105   1.459   0.249 -0.4591  0.5457 -0.3958
  506MOL0     C66703   7.022   1.330   0.249  0.0003  0.3976 -0.3025
  506MOL0    Cl66704   6.852   1.373   0.301  0.2729 -0.4990 -0.0574
  506MOL0     C66705   7.937   1.456   0.350 -0.1430 -0.1215 -0.2866
  506MOL0     C66706   8.063   1.393   0.379 -0.3013  0.3068 -0.5738
  506MOL0     O66707   8.324   1.247   0.370 -0.6702  0.4264 -0.0999
  506MOL0     C66708   8.479   1.321   0.688  0.4692  0.3184 -0.3879
  506MOL0     C66709   8.594   1.283   0.754 -1.0405  0.8141 -0.3474
  506MOL0     N66710   9.324   1.056   1.025  0.9218 -0.1355  0.2122
  506MOL0     N66711   9.436   0.993   1.017 -0.2889 -0.4040 -0.1209
  506MOL0     C66712  10.069   0.528   1.413  0.6495 -1.5052  0.5486
  506MOL0     C66713  10.205   0.524   1.421  0.8859  0.9032  0.1799
  506MOL0     C66714  10.629   0.324   1.439 -0.6308 -0.6920 -0.8848
  506MOL0     C66715  10.741   0.260   1.377  0.0836  0.1326 -0.1518
  506MOL0     C66716  10.873   0.291   1.409 -0.4122  0.9805  0.0749
  506MOL0     C66717  10.905   0.389   1.502 -0.0550 -0.4470 -0.3619
  506MOL0     O66718  11.034   0.441   1.528  0.3623  0.1548  0.2662
  506MOL0     C66719  11.146   0.361   1.485  0.1323 -0.3229  0.6698
  506MOL0     C66720  11.273   0.426   1.551  0.4993  0.8544 -0.4256
  506MOL0     C66721  11.398   0.411   1.464 -0.4774 -0.9454  0.9038
  506MOL0     C66722  11.507   0.477   1.540  0.0546 -0.0097  0.6140
  506MOL0     C66723  11.627   0.493   1.453  0.3522 -0.5737  0.2765
  506MOL0     C66724  11.728   0.488   1.382  0.3321 -0.6627  0.2606
  506MOL0     C66725  10.804   0.452   1.567 -0.4018  0.1080  0.6023
  506MOL0     C66726  10.673   0.417   1.546  0.4319  0.5452  1.3572
  506MOL0     H66727  10.239   0.186   1.443  0.5655 -0.9084 -0.1137
  506MOL0     H66728  10.004   0.192   1.445  2.1537 -0.1538  5.3524
  506MOL0     H66729   9.808   0.596   1.341 -2.4803  0.1473 -0.6589
  506MOL0     H66730   9.806   0.576   1.515  1.7056  2.2416 -1.9197
  506MOL0     H66731   9.576   0.595   1.419  0.2067  1.2268 -1.5020
  506MOL0     H66732   9.607   0.420   1.482 -1.3697 -0.6610 -1.9246
  506MOL0     H66733   9.482   0.412   1.297 -0.3164 -0.3109  1.1295
  506MOL0     H66734   9.633   0.355   1.236 -0.2017 -0.6976 -0.1508
  506MOL0     H66735   9.513   0.629   1.219 -1.8857 -1.5341 -1.2857
  506MOL0     H66736   9.678   0.611   1.163 -1.1158  2.6452  0.3572
  506MOL0     H66737   9.449   0.439   1.032 -1.6544  1.1445 -3.6060
  506MOL0     H66738   9.615   0.457   0.981  0.1197 -1.0691  1.3830
  506MOL0     H66739   9.400   0.672   0.979  0.5012 -2.2767  2.2303
  506MOL0     H66740   9.488   0.588   0.845 -3.7932 -1.3717  0.5296
  506MOL0     H66741   9.632   0.786   1.028  1.0729 -2.9792  1.2092
  506MOL0     H66742   9.686   0.708   0.883  1.2218  2.3177 -0.7264
  506MOL0     H66743   9.541   0.825   0.736 -1.3500 -2.2465  0.8174
  506MOL0     H66744   9.636   0.926   0.855  0.0771 -0.2661 -1.8562
  506MOL0     H66745   9.302   0.926   0.728 -0.7523 -1.5539  1.0135
  506MOL0     H66746   9.062   1.004   0.823  0.8850 -2.0860  0.3596
  506MOL0     H66747   9.118   1.180   0.833 -0.9407  0.4656  0.3069
  506MOL0     H66748   9.055   1.163   1.077  0.4072 -2.5707  2.2147
  506MOL0     H66749   9.072   0.994   1.072  0.1745  1.5978  0.6203
  506MOL0     H66750   8.852   0.988   0.932 -0.4032  0.0568 -0.4697
  506MOL0     H66751   8.831   1.076   1.086  1.7963 -0.0530  0.1628
  506MOL0     H66752   8.928   1.278   0.916  0.2698  0.6002 -0.4756
  506MOL0     H66753   8.751   1.229   0.959  0.6877  0.4849  0.7514
  506MOL0     H66754   8.750   1.071   0.543 -1.5962 -2.3666 -1.3233
  506MOL0     H66755   8.530   1.111   0.426  0.3031 -0.1341  0.0881
  506MOL0     H66756   8.078   1.471   0.706 -1.3150 -2.5820  0.5906
  506MOL0     H66757   7.864   1.565   0.667  1.5611  0.5179 -0.2788
  506MOL0     H66758   7.532   1.587   0.459 -0.1231  0.4348  1.1300
  506MOL0     H66759   7.634   1.595   0.605  3.8790 -1.0059 -0.1306
  506MOL0     H66760   7.508   1.390   0.599  2.3547  0.7660  2.8354
  506MOL0     H66761   7.683   1.366   0.586 -0.7044 -1.7032  0.0373
  506MOL0     H66762   7.569   1.217   0.443 -3.0939  1.7620  2.0063
  506MOL0     H66763   7.672   1.327   0.344 -1.1208  0.4033 -3.2421
  506MOL0     H66764   7.524   1.462   0.256 -0.6990 -0.2103 -0.6231
  506MOL0     H66765   7.492   1.311   0.207 -0.9854  2.5622 -1.7192
  506MOL0     H66766   7.318   1.451   0.422 -1.9721  0.3073 -0.6335
  506MOL0     H66767   7.302   1.286   0.390  3.9757 -1.4997  0.4193
  506MOL0     H66768   7.256   1.337   0.142  1.0099  2.5412 -2.4899
  506MOL0     H66769   7.297   1.507   0.167 -0.3084 -0.5365 -0.5905
  506MOL0     H66770   7.095   1.516   0.341  1.1168  0.8109 -0.3554
  506MOL0     H66771   7.055   1.513   0.168 -1.8223 -1.6625 -1.1198
  506MOL0     H66772   7.072   1.256   0.313 -1.4012 -0.2176  0.1222
  506MOL0     H66773   7.013   1.283   0.151  0.4511 -1.0000  0.2851
  506MOL0     H66774   7.904   1.453   0.247 -1.5444 -1.4621  0.1572
  506MOL0     H66775   8.124   1.351   0.299  2.0205  0.1569  1.1547
  506MOL0     H66776   8.405   1.391   0.723 -1.0929  0.0630 -2.9426
  506MOL0     H66777   8.615   1.341   0.843  0.3132  2.6040 -1.7357
  506MOL0     H66778  10.025   0.628   1.407 -0.5342 -1.7717  3.1608
  506MOL0     H66779  10.271   0.610   1.424  0.6155  1.1286  3.2688
  506MOL0     H66780  10.713   0.183   1.305 -0.4601 -2.2623  2.4620
  506MOL0     H66781  10.952   0.225   1.375  0.3552  0.9234  1.8610
  506MOL0     H66782  11.159   0.374   1.377  1.0862 -1.4575  0.6299
  506MOL0     H66783  11.133   0.254   1.507 -0.2280 -1.1329 -2.8274
  506MOL0     H66784  11.266   0.528   1.591  3.1891 -0.1513  3.0513
  506MOL0     H66785  11.292   0.367   1.641  2.2360 -0.4151 -1.5679
  506MOL0     H66786  11.387   0.453   1.364 -0.5258 -3.2320 -0.1303
  506MOL0     H66787  11.420   0.304   1.450 -2.5425 -1.3573  0.5018
  506MOL0     H66788  11.478   0.579   1.568 -0.5620 -0.1158  0.3843
  506MOL0     H66789  11.532   0.424   1.632  1.0088  1.8248  1.4691
  506MOL0     H66790  11.821   0.500   1.330  1.9893  0.0445  3.1685
  506MOL0     H66791  10.821   0.527   1.644 -2.1837 -1.8052  3.0537
  506MOL0     H66792  10.602   0.472   1.608  0.9718 -0.0287  2.5258
  507MOL0     O66793   0.418   9.731   9.409  0.0347  0.1802 -0.2181
  507MOL0     C66794   0.516   9.799   9.383 -0.0831 -0.2554  0.1456
  507MOL0     O66795   0.527   9.936   9.390 -0.4877 -0.4100  0.3980
  507MOL0     C66796   0.425  10.011   9.440  0.2346  0.3766  0.2439
  507MOL0     C66797   0.313   9.979   9.517 -0.2281  0.7404 -0.2942
  507MOL0     C66798   0.225  10.073   9.573  0.0257  0.3023  0.8980
  507MOL0     C66799   0.243  10.207   9.542  0.2413  0.1824  0.6544
  507MOL0     O66800   0.146  10.303   9.567 -0.5316 -0.1350  0.3241
  507MOL0     C66801   0.021  10.259   9.616  0.1787  0.3010  0.6483
  507MOL0     C66802  -0.086  10.373   9.616 -0.5225 -0.0551 -0.0540
  507MOL0     C66803  -0.208  10.328   9.699 -1.4999 -0.1981 -0.2863
  507MOL0     C66804  -0.298  10.457   9.695  0.2686  1.1316 -0.2215
  507MOL0     C66805  -0.428  10.419   9.762  0.0958 -0.0167 -0.1411
  507MOL0     C66806  -0.529  10.543   9.778 -0.1806 -0.4559  0.0642
  507MOL0     C66807  -0.668  10.507   9.830  1.0596  0.5161  0.1674
  507MOL0     C66808  -0.677  10.482   9.978  0.4851 -0.1672  0.5287
  507MOL0     N66809  -0.808  10.441  10.032  0.3789  0.3155 -0.5589
  507MOL0     C66810  -0.842  10.311  10.076 -0.3790  0.1176  0.0213
  507MOL0     C66811  -0.964  10.306  10.121 -1.0602 -0.4347 -0.6324
  507MOL0     C66812  -1.043  10.193  10.185 -0.3500  0.8039  0.6977
  507MOL0     C66813  -1.182  10.162  10.121 -0.0402  0.1702  0.6687
  507MOL0     C66814  -1.290  10.259  10.180  0.1173  0.7545 -0.0097
  507MOL0     C66815  -1.422  10.228  10.113  0.0821 -0.0025 -0.1115
  507MOL0     O66816  -1.459  10.097  10.155 -0.2797 -0.5027 -0.6006
  507MOL0     C66817  -1.593  10.067  10.126  0.6267  1.1925 -0.5387
  507MOL0     C66818  -1.685  10.147  10.066  0.5076 -1.0860  0.2930
  507MOL0     C66819  -1.819  10.108  10.073  0.3539  0.6136 -0.3727
  507MOL0     C66820  -1.847   9.971  10.105 -0.3273 -0.5027 -0.4488
  507MOL0     C66821  -1.986   9.928  10.085  0.4028  0.7373  0.0042
  507MOL0     O66822  -2.022   9.797  10.115  0.2494 -0.6706  0.3318
  507MOL0     C66823  -2.156   9.770  10.090 -0.9104  0.2003 -0.1696
  507MOL0     C66824  -2.184   9.656  10.018  0.7967  0.3401 -0.1683
  507MOL0     C66825  -2.321   9.615   9.997  0.4318 -0.0179  0.3397
  507MOL0     C66826  -2.430   9.681  10.057 -0.4817 -0.1865  0.4446
  507MOL0     O66827  -2.557   9.679  10.024  0.3020 -0.4434 -0.3741
  507MOL0     C66828  -2.603   9.617   9.907  0.3086  0.9307 -0.8554
  507MOL0     C66829  -2.757   9.606   9.929 -0.9658 -0.0866  0.6757
  507MOL0     C66830  -2.820   9.589   9.801 -0.2014 -0.2810  0.2015
  507MOL0     C66831  -2.958   9.528   9.814  0.5026  0.7084 -0.4252
  507MOL0     C66832  -3.060   9.613   9.888  0.1505 -0.5399 -0.1123
  507MOL0     C66833  -3.112   9.706   9.778  0.4190 -0.7399 -0.1271
  507MOL0     C66834  -3.228   9.788   9.835 -0.7222 -0.3030 -0.4632
  507MOL0     C66835  -3.287   9.853   9.712  0.0891  0.3185 -0.5569
  507MOL0    Cl66836  -3.401   9.740   9.633  0.5289  0.1315 -0.6786
  507MOL0     C66837  -2.393   9.780  10.151 -1.1920 -0.1896 -0.0063
  507MOL0     C66838  -2.259   9.832  10.155 -0.4943 -0.9253  0.2097
  507MOL0     O66839  -2.059  10.018  10.046  0.3283  0.1779  0.2814
  507MOL0     C66840  -1.749   9.894  10.161  0.2054  0.6709  0.3555
  507MOL0     C66841  -1.621   9.938  10.168  0.0109  0.0893  0.0220
  507MOL0     N66842  -1.016  10.430  10.082 -0.3554  0.0664 -0.2260
  507MOL0     N66843  -0.927  10.510  10.019  0.2082 -0.2876  0.3392
  507MOL0     C66844   0.366  10.235   9.480 -0.1710 -0.1569 -0.4173
  507MOL0     C66845   0.449  10.142   9.424 -0.2943 -0.2105 -0.7430
  507MOL0     C66846   0.642   9.729   9.338  0.3214 -0.3940 -0.4367
  507MOL0     C66847   0.748   9.797   9.267 -0.0632  0.1740 -0.6547
  507MOL0     C66848   0.854   9.720   9.214 -1.1914 -0.8879 -0.5479
  507MOL0     C66849   0.875   9.590   9.249  0.6157  0.2728 -0.3188
  507MOL0     O66850   0.995   9.533   9.214  0.7967 -0.1880 -1.3350
  507MOL0     C66851   0.985   9.397   9.165  1.0341 -0.0472  0.4311
  507MOL0     C66852   1.128   9.355   9.123  0.0349 -0.1980 -0.3780
  507MOL0     C66853   1.154   9.206   9.118  0.0759 -0.0242  0.5136
  507MOL0     C66854   1.271   9.165   9.022  0.5517 -1.2344 -0.8725
  507MOL0     C66855   1.391   9.242   9.035  0.6704  0.7280  0.2547
  507MOL0     C66856   1.488   9.305   9.053 -0.3810 -0.1919 -0.1378
  507MOL0     C66857   0.775   9.528   9.329 -0.3118 -0.0542 -0.0976
  507MOL0     C66858   0.653   9.591   9.367  1.1527  0.2572  0.6042
  507MOL0     H66859   0.288   9.876   9.542 -1.8198  0.1728 -3.5981
  507MOL0     H66860   0.141  10.043   9.635 -0.1228 -1.1546  0.0291
  507MOL0     H66861   0.032  10.214   9.715  2.8481 -1.2669 -0.2519
  507MOL0     H66862  -0.037  10.184   9.560  0.6126  0.5748 -0.1853
  507MOL0     H66863  -0.119  10.406   9.517  2.1989  0.3827 -0.9065
  507MOL0     H66864  -0.041  10.461   9.662 -0.8178 -0.1678  0.4548
  507MOL0     H66865  -0.168  10.309   9.799  1.8808 -0.5182 -1.5722
  507MOL0     H66866  -0.250  10.236   9.658 -1.2127 -0.9133  0.9611
  507MOL0     H66867  -0.246  10.535   9.751  0.3904  0.0217  1.2692
  507MOL0     H66868  -0.319  10.487   9.591  2.0299 -2.1177 -1.6652
  507MOL0     H66869  -0.399  10.377   9.859 -0.3163 -4.0066 -1.5848
  507MOL0     H66870  -0.471  10.337   9.705  1.2440 -1.0176  0.3860
  507MOL0     H66871  -0.548  10.586   9.680 -1.4015  3.0382  1.6619
  507MOL0     H66872  -0.492  10.625   9.839 -2.2862 -1.3878  2.8228
  507MOL0     H66873  -0.741  10.585   9.808  0.1971 -0.6537 -1.2938
  507MOL0     H66874  -0.704  10.421   9.773  0.4452 -0.4299  1.9191
  507MOL0     H66875  -0.652  10.573  10.034 -3.0364  1.1103  0.2843
  507MOL0     H66876  -0.616  10.395  10.003 -0.6035 -1.5090 -1.2205
  507MOL0     H66877  -0.769  10.230  10.074 -1.9133 -1.3285  0.1579
  507MOL0     H66878  -1.074  10.218  10.288  0.2465  0.6409  0.9195
  507MOL0     H66879  -0.985  10.101  10.180 -0.0977  1.0343 -2.8908
  507MOL0     H66880  -1.209  10.059  10.144 -0.0746  0.2708  1.0965
  507MOL0     H66881  -1.165  10.172  10.013  0.1248  0.6190  0.7333
  507MOL0     H66882  -1.306  10.247  10.288 -3.4886 -2.2925 -0.6917
  507MOL0     H66883  -1.270  10.363  10.152 -0.5172  0.3556 -2.0517
  507MOL0     H66884  -1.431  10.242  10.005  2.0150  0.1415 -0.2915
  507MOL0     H66885  -1.488  10.302  10.158  0.9169  1.5162 -1.2625
  507MOL0     H66886  -1.668  10.247  10.027  2.3004 -0.5432  2.2742
  507MOL0     H66887  -1.888  10.185  10.040  0.1159  0.8830  0.7109
  507MOL0     H66888  -2.108   9.601   9.965  0.3676  1.3498 -1.9155
  507MOL0     H66889  -2.330   9.538   9.921 -1.6543 -0.0058  0.5136
  507MOL0     H66890  -2.569   9.513   9.893 -0.8323  0.1737  1.5436
  507MOL0     H66891  -2.590   9.683   9.821 -1.4214  1.2767 -0.8764
  507MOL0     H66892  -2.799   9.697   9.974  0.1954  0.6619  0.2907
  507MOL0     H66893  -2.781   9.513   9.981  2.6558 -2.9310 -2.1596
  507MOL0     H66894  -2.765   9.517   9.740  0.3279 -1.5967  2.1156
  507MOL0     H66895  -2.820   9.679   9.739  3.5519 -0.9210 -1.0333
  507MOL0     H66896  -3.001   9.501   9.717 -1.0357 -1.9191  0.8508
  507MOL0     H66897  -2.960   9.436   9.874 -0.8322  1.5237  0.8519
  507MOL0     H66898  -3.017   9.666   9.973 -2.8855  1.3128  0.4246
  507MOL0     H66899  -3.135   9.540   9.921  0.5601 -0.9341 -0.0363
  507MOL0     H66900  -3.157   9.655   9.693 -2.3398  0.6291  0.4048
  507MOL0     H66901  -3.036   9.775   9.740 -1.2201  0.2603 -1.7307
  507MOL0     H66902  -3.301   9.719   9.879 -3.5801  2.0327 -1.2521
  507MOL0     H66903  -3.197   9.867   9.905  0.6807 -0.5455 -0.7708
  507MOL0     H66904  -3.211   9.893   9.644  0.4660  3.1712  1.3368
  507MOL0     H66905  -3.340   9.941   9.750  1.2622  0.6702  0.3092
  507MOL0     H66906  -2.464   9.842  10.204 -1.7161 -1.4168  0.7878
  507MOL0     H66907  -2.242   9.912  10.226  0.4896 -0.9666  0.0334
  507MOL0     H66908  -1.774   9.797  10.203 -1.1910  1.0322  0.4045
  507MOL0     H66909  -1.540   9.880  10.212  0.3452  0.7501  0.2918
  507MOL0     H66910   0.386  10.336   9.445  0.1259  0.0737  0.4075
  507MOL0     H66911   0.519  10.173   9.348  0.3052 -1.2964 -0.6486
  507MOL0     H66912   0.753   9.900   9.232  2.2932  0.1910 -0.4105
  507MOL0     H66913   0.932   9.775   9.163 -1.0214  1.3610  1.9329
  507MOL0     H66914   0.916   9.385   9.081 -1.9761  0.6881  2.6072
  507MOL0     H66915   0.958   9.320   9.238  1.2583 -3.5518 -2.8319
  507MOL0     H66916   1.167   9.402   9.032  2.2343  1.1875  1.1771
  507MOL0     H66917   1.196   9.384   9.204 -1.1998  3.0896 -0.3735
  507MOL0     H66918   1.066   9.160   9.072 -0.3610  0.3326  0.9877
  507MOL0     H66919   1.179   9.179   9.221  1.5347 -0.6595  0.0276
  507MOL0     H66920   1.289   9.058   9.029  0.7849 -1.0631  2.8305
  507MOL0     H66921   1.232   9.198   8.925 -1.6652  0.0808  0.3794
  507MOL0     H66922   1.581   9.356   9.060  0.6763 -1.6793 -2.3785
  507MOL0     H66923   0.786   9.425   9.362 -0.9492 -0.4328 -1.0304
  507MOL0     H66924   0.576   9.535   9.418 -0.9500  2.0080 -0.4715
  508MOL0     O66925   4.059   9.523   3.404  0.1068  0.4401 -0.0130
  508MOL0     C66926   4.110   9.497   3.512 -0.8197 -0.2681 -0.9501
  508MOL0     O66927   4.036   9.470   3.625 -0.3564  0.6860 -0.7633
  508MOL0     C66928   3.898   9.491   3.619 -0.6726  0.2569 -0.1582
  508MOL0     C66929   3.837   9.611   3.584 -0.2121 -0.6558 -0.6522
  508MOL0     C66930   3.694   9.628   3.582  0.0764 -0.6029 -0.5953
  508MOL0     C66931   3.611   9.523   3.619 -0.3392  0.2443  0.8445
  508MOL0     O66932   3.470   9.510   3.613  0.0411 -0.5219 -0.0369
  508MOL0     C66933   3.391   9.626   3.571 -0.2431  0.4614 -0.1694
  508MOL0     C66934   3.249   9.592   3.564  0.2032  0.4781  0.7089
  508MOL0     C66935   3.191   9.636   3.431  0.3071 -0.2844  0.5630
  508MOL0     C66936   3.045   9.602   3.395 -0.5644  0.1731 -0.5887
  508MOL0     C66937   3.010   9.660   3.256 -0.1336 -0.9815  0.3380
  508MOL0     C66938   2.968   9.560   3.157 -0.0342 -0.0225  0.7886
  508MOL0     C66939   2.832   9.493   3.208 -0.4403  0.6898 -0.2206
  508MOL0     C66940   2.727   9.467   3.102  0.2747  0.4199 -0.5820
  508MOL0     N66941   2.694   9.592   3.031  0.2359 -0.0779 -0.1783
  508MOL0     C66942   2.611   9.689   3.081 -0.0121 -0.4077 -0.5489
  508MOL0     C66943   2.600   9.775   2.974 -0.3211 -0.0116 -0.5862
  508MOL0     C66944   2.512   9.897   2.985 -0.4564 -0.7762 -0.2289
  508MOL0     C66945   2.367   9.870   3.032  0.3341 -0.6976 -0.2106
  508MOL0     C66946   2.296   9.770   2.955 -0.1744  0.9200  0.2555
  508MOL0     C66947   2.144   9.756   2.986 -1.1321  0.6866  0.3190
  508MOL0     O66948   2.065   9.872   2.950 -0.2503  0.6036 -0.7723
  508MOL0     C66949   1.930   9.863   2.950 -0.0107  0.1820 -0.1672
  508MOL0     C66950   1.866   9.976   2.911 -0.2873  0.5199 -0.6113
  508MOL0     C66951   1.730   9.980   2.906 -0.4224 -0.1623 -0.0840
  508MOL0     C66952   1.654   9.879   2.959 -0.2689  0.1781 -0.0881
  508MOL0     C66953   1.502   9.893   2.973  0.1152  0.1622  0.3586
  508MOL0     O66954   1.437   9.821   3.066 -0.4378 -0.1292 -0.2898
  508MOL0     C66955   1.300   9.816   3.089  0.7931 -0.0145 -0.9738
  508MOL0     C66956   1.261   9.772   3.222 -0.0735 -0.5884  0.3761
  508MOL0     C66957   1.125   9.767   3.263  0.0662  0.3537  0.3912
  508MOL0     C66958   1.021   9.814   3.174 -0.1367  0.2324  0.2426
  508MOL0     O66959   0.895   9.821   3.226  0.4099 -0.0243  0.7295
  508MOL0     C66960   0.799   9.889   3.148  0.4040 -0.1074 -0.9095
  508MOL0     C66961   0.660   9.900   3.210 -1.2217  0.2519 -0.9578
  508MOL0     C66962   0.564   9.784   3.180  0.5518  0.1114  0.9858
  508MOL0     C66963   0.462   9.784   3.296  0.1670 -0.6765 -0.1557
  508MOL0     C66964   0.344   9.702   3.293 -0.5380  0.2029 -0.4474
  508MOL0     C66965   0.230   9.743   3.196  0.5106 -0.1471 -0.2024
  508MOL0     C66966   0.140   9.622   3.162  0.2590  0.2822  0.0678
  508MOL0     C66967   0.016   9.659   3.080  0.0772  0.2980  0.2976
  508MOL0    Cl66968  -0.076   9.522   3.036 -0.3240  0.2119 -0.1558
  508MOL0     C66969   1.068   9.845   3.042  0.0972  0.3682 -0.4705
  508MOL0     C66970   1.195   9.855   3.003 -0.3015 -0.2358  0.8404
  508MOL0     O66971   1.444   9.968   2.892  0.3513  0.5801  0.4100
  508MOL0     C66972   1.715   9.766   3.001 -0.5724 -0.7295  0.1703
  508MOL0     C66973   1.855   9.748   2.985  0.2389  0.2199 -1.2729
  508MOL0     N66974   2.665   9.729   2.860 -0.1932 -0.2840  0.2910
  508MOL0     N66975   2.722   9.619   2.893 -0.5489  0.0476 -1.2758
  508MOL0     C66976   3.671   9.407   3.667 -0.7204  0.1809 -0.5876
  508MOL0     C66977   3.809   9.393   3.659 -0.6208  0.1432  0.5939
  508MOL0     C66978   4.254   9.525   3.528 -0.2494  0.1107  0.9613
  508MOL0     C66979   4.322   9.498   3.636 -0.0570  0.5541 -0.3158
  508MOL0     C66980   4.457   9.522   3.662  0.1801  0.0783 -0.3902
  508MOL0     C66981   4.526   9.601   3.565  1.1217 -0.0945 -0.5887
  508MOL0     O66982   4.654   9.653   3.568 -0.6458  0.5348  0.1823
  508MOL0     C66983   4.737   9.659   3.688  0.3512 -0.2359 -0.0690
  508MOL0     C66984   4.876   9.704   3.624  0.0073  0.3357 -0.0428
  508MOL0     C66985   4.985   9.704   3.733 -0.1889  0.0765 -0.2231
  508MOL0     C66986   4.999   9.833   3.821 -0.0610 -0.2168  0.1167
  508MOL0     C66987   5.140   9.860   3.859  0.0108  0.5246  0.2696
  508MOL0     C66988   5.257   9.883   3.871  0.4866  0.0967 -0.3730
  508MOL0     C66989   4.458   9.621   3.440 -0.3530 -0.3917 -0.3370
  508MOL0     C66990   4.325   9.590   3.424  0.5857  0.0461  0.0864
  508MOL0     H66991   3.907   9.695   3.580  0.9891 -1.5844  0.2147
  508MOL0     H66992   3.662   9.724   3.543 -1.7010  0.5624  3.2503
  508MOL0     H66993   3.430   9.655   3.473 -2.7263  1.3085 -0.9844
  508MOL0     H66994   3.408   9.713   3.636  1.4615  0.9084 -1.1383
  508MOL0     H66995   3.192   9.639   3.645  1.4627  0.9326  1.3653
  508MOL0     H66996   3.224   9.486   3.576 -1.7600  0.8584  0.2798
  508MOL0     H66997   3.256   9.586   3.359 -0.9565 -0.6218 -0.3685
  508MOL0     H66998   3.213   9.743   3.430  2.6945 -0.7092 -1.5844
  508MOL0     H66999   3.031   9.494   3.404 -0.7165 -0.1381 -3.5261
  508MOL0     H67000   2.976   9.650   3.465  0.0747  0.9392 -0.4692
  508MOL0     H67001   3.093   9.721   3.220  1.7040 -2.4880  1.8541
  508MOL0     H67002   2.934   9.736   3.277 -0.9102 -1.1812 -1.5627
  508MOL0     H67003   3.045   9.484   3.140  1.0086  1.7019 -3.9275
  508MOL0     H67004   2.947   9.609   3.061  4.4382 -0.6221 -0.7113
  508MOL0     H67005   2.854   9.413   3.280  1.3078  0.4726 -0.9398
  508MOL0     H67006   2.778   9.563   3.272  0.7706  0.8828  0.6308
  508MOL0     H67007   2.638   9.426   3.151 -0.7990  0.7290 -2.2089
  508MOL0     H67008   2.760   9.389   3.032 -1.2848  0.7932 -1.7994
  508MOL0     H67009   2.572   9.697   3.182  0.2710 -2.6877 -0.2138
  508MOL0     H67010   2.507   9.949   2.889 -0.2864  1.0011  0.6639
  508MOL0     H67011   2.555   9.968   3.057 -3.5777 -0.9266  2.0172
  508MOL0     H67012   2.305   9.959   3.047  1.1612 -0.1001 -0.3196
  508MOL0     H67013   2.384   9.829   3.132  3.0399  1.4751  0.3203
  508MOL0     H67014   2.308   9.798   2.850  0.2789  0.1274  0.0866
  508MOL0     H67015   2.344   9.674   2.977 -1.8334  0.2665  1.2155
  508MOL0     H67016   2.129   9.717   3.087 -0.2170 -0.1113  0.1682
  508MOL0     H67017   2.103   9.682   2.916 -1.9873  0.1467  1.3571
  508MOL0     H67018   1.928  10.050   2.861  0.3162  1.7204  1.7664
  508MOL0     H67019   1.678  10.069   2.873 -1.3692 -0.4617  0.5437
  508MOL0     H67020   1.338   9.747   3.294 -0.1888 -3.4694 -0.3462
  508MOL0     H67021   1.091   9.733   3.360  0.2481 -2.7016 -0.5062
  508MOL0     H67022   0.785   9.862   3.043 -0.9545  2.6455 -1.5268
  508MOL0     H67023   0.842   9.986   3.121  0.0673  0.0587 -0.8646
  508MOL0     H67024   0.616   9.996   3.180 -2.0360  0.3052  0.2987
  508MOL0     H67025   0.688   9.910   3.315 -1.5631 -1.7655 -0.6408
  508MOL0     H67026   0.635   9.701   3.177  3.0722  2.0734  2.3183
  508MOL0     H67027   0.521   9.798   3.080  3.8496 -0.1506 -0.6074
  508MOL0     H67028   0.507   9.753   3.391 -1.6806 -1.0573  0.6434
  508MOL0     H67029   0.434   9.888   3.310 -1.3005 -1.3809  3.1658
  508MOL0     H67030   0.293   9.696   3.390  0.7506 -1.1589  0.1875
  508MOL0     H67031   0.381   9.601   3.271  0.8923  0.3685  1.0795
  508MOL0     H67032   0.272   9.790   3.107  1.2070 -1.8120 -0.7804
  508MOL0     H67033   0.170   9.820   3.247 -0.2556 -1.0790  0.3505
  508MOL0     H67034   0.201   9.553   3.102  0.2445  1.6172 -1.5508
  508MOL0     H67035   0.117   9.576   3.259  1.0593  0.8238  0.5305
  508MOL0     H67036   0.047   9.712   2.989 -0.7926  3.3257  1.6170
  508MOL0     H67037  -0.050   9.722   3.140 -1.3358 -2.3688  1.7114
  508MOL0     H67038   0.990   9.858   2.968  1.2009 -0.5565 -1.8610
  508MOL0     H67039   1.214   9.887   2.901  3.3496 -0.0676  1.4610
  508MOL0     H67040   1.667   9.685   3.056  2.4824 -1.9050  1.3578
  508MOL0     H67041   1.899   9.650   3.001 -1.9380 -0.5747  0.4591
  508MOL0     H67042   3.614   9.316   3.682  0.1576 -0.3345 -0.3031
  508MOL0     H67043   3.856   9.295   3.663 -0.9204 -0.0138  0.3701
  508MOL0     H67044   4.274   9.438   3.712  0.5464 -0.3074 -0.5945
  508MOL0     H67045   4.511   9.489   3.751  0.1520  3.3450  0.9782
  508MOL0     H67046   4.732   9.561   3.736 -0.3791 -0.5378 -0.7382
  508MOL0     H67047   4.706   9.732   3.764  1.7215 -0.6267  0.9099
  508MOL0     H67048   4.906   9.628   3.552 -0.9870  0.1199 -0.2549
  508MOL0     H67049   4.868   9.804   3.579 -2.0529 -0.5388 -1.8337
  508MOL0     H67050   5.083   9.697   3.685  0.7558  0.8523  1.4975
  508MOL0     H67051   4.964   9.614   3.791 -3.1609  1.3663  0.9143
  508MOL0     H67052   4.963   9.922   3.768  0.7232 -1.3569 -2.5196
  508MOL0     H67053   4.939   9.833   3.913 -0.3203 -0.0804 -0.0504
  508MOL0     H67054   5.363   9.900   3.871  0.1377  2.7684  0.3787
  508MOL0     H67055   4.498   9.684   3.361  0.7011 -0.1339  0.3661
  508MOL0     H67056   4.280   9.628   3.333  1.0053 -1.2844 -0.7031
  509MOL0     O67057   3.114   1.577  10.361  0.7115 -0.2328  0.2684
  509MOL0     C67058   3.170   1.513  10.268 -0.2302  0.6253 -0.3663
  509MOL0     O67059   3.124   1.423  10.182  0.5430 -0.0777  0.1141
  509MOL0     C67060   2.996   1.374  10.173 -0.6823 -0.0292  0.8227
  509MOL0     C67061   2.983   1.260  10.102 -0.5114  0.0879 -0.4630
  509MOL0     C67062   2.857   1.193  10.090  1.0224  0.4890  0.9429
  509MOL0     C67063   2.738   1.267  10.122  0.0093  0.5262 -0.4578
  509MOL0     O67064   2.622   1.203  10.102 -0.6945  0.3250  0.3178
  509MOL0     C67065   2.502   1.275  10.113  0.9040 -0.2070 -0.6060
  509MOL0     C67066   2.377   1.207  10.083  0.5266  0.2798  0.1667
  509MOL0     C67067   2.311   1.149  10.207 -0.4404 -0.2091 -0.2630
  509MOL0     C67068   2.162   1.096  10.180  0.4017 -0.5224  0.3351
  509MOL0     C67069   2.121   0.997  10.288  1.0757 -0.0455  1.4604
  509MOL0     C67070   2.100   1.056  10.418 -0.1352  0.2713 -0.1658
  509MOL0     C67071   2.025   0.977  10.526 -1.1668  0.0787 -0.4305
  509MOL0     C67072   1.881   0.968  10.492 -0.0644 -0.5577 -0.9524
  509MOL0     N67073   1.795   0.946  10.607  0.1751 -0.0998 -0.2642
  509MOL0     C67074   1.748   1.046  10.692  0.6505  0.0959 -0.2348
  509MOL0     C67075   1.640   0.991  10.756 -0.2982 -0.0805 -0.9978
  509MOL0     C67076   1.584   1.059  10.875 -0.1910 -0.0558 -0.3190
  509MOL0     C67077   1.440   1.104  10.845 -0.5337 -0.4361 -0.4954
  509MOL0     C67078   1.435   1.209  10.737  0.5547  1.0259  0.9610
  509MOL0     C67079   1.298   1.268  10.703 -0.5567  0.1417 -1.3702
  509MOL0     O67080   1.291   1.346  10.590 -0.2039 -0.7183 -0.2441
  509MOL0     C67081   1.164   1.369  10.529 -0.5107 -0.5915 -0.6229
  509MOL0     C67082   1.160   1.460  10.427  0.3320  0.0862 -0.5719
  509MOL0     C67083   1.045   1.471  10.345 -0.0653 -0.1407  0.2435
  509MOL0     C67084   0.930   1.400  10.367  0.2856 -0.0240 -0.1184
  509MOL0     C67085   0.817   1.404  10.276  0.3339  1.0758 -0.2555
  509MOL0     O67086   0.692   1.354  10.309  0.1411  0.1397  0.0036
  509MOL0     C67087   0.584   1.390  10.236  0.8741 -0.5712 -1.1058
  509MOL0     C67088   0.546   1.521  10.202 -0.2033  0.1237 -0.5076
  509MOL0     C67089   0.425   1.550  10.130  0.3592  0.0106  0.8717
  509MOL0     C67090   0.334   1.443  10.103 -0.5522  0.0719  0.2997
  509MOL0     O67091   0.216   1.469  10.048  0.1515 -1.2443  0.2627
  509MOL0     C67092   0.093   1.420  10.111  0.0176  0.4590 -0.7938
  509MOL0     C67093  -0.032   1.502  10.076 -0.7092  0.7716  0.7426
  509MOL0     C67094  -0.056   1.503   9.921  0.1535  0.2078  1.3149
  509MOL0     C67095  -0.170   1.598   9.893  0.5516 -0.1382  0.6478
  509MOL0     C67096  -0.233   1.573   9.756 -0.2920  1.3481  0.2673
  509MOL0     C67097  -0.317   1.435   9.744  0.1292 -0.0239 -0.2392
  509MOL0     C67098  -0.463   1.438   9.779 -0.7612  0.5103 -0.0650
  509MOL0     C67099  -0.496   1.503   9.911 -0.5492  0.2375  0.7320
  509MOL0    Cl67100  -0.681   1.524   9.923 -0.4678  0.0579 -0.7473
  509MOL0     C67101   0.369   1.311  10.146  0.0722 -0.7620  0.1582
  509MOL0     C67102   0.492   1.287  10.206  0.9484  0.4056  0.9685
  509MOL0     O67103   0.847   1.445  10.164  0.8016 -0.3164  0.2533
  509MOL0     C67104   0.926   1.324  10.488  0.1801 -0.0422 -0.1685
  509MOL0     C67105   1.039   1.309  10.572  0.1011  0.4203 -1.1574
  509MOL0     N67106   1.615   0.871  10.695 -0.5777  0.3696 -0.1142
  509MOL0     N67107   1.709   0.850  10.607 -0.4841 -0.1544  0.0876
  509MOL0     C67108   2.755   1.391  10.180 -0.4202 -1.5405  0.0378
  509MOL0     C67109   2.884   1.442  10.214  0.5484  0.9765  0.4112
  509MOL0     C67110   3.321   1.532  10.260 -0.2329 -0.0780  0.0087
  509MOL0     C67111   3.405   1.443  10.186 -0.0785 -0.0839 -0.1424
  509MOL0     C67112   3.538   1.473  10.182  0.3857  0.4272  1.5853
  509MOL0     C67113   3.599   1.580  10.245  0.5469 -0.6365 -0.3090
  509MOL0     O67114   3.734   1.609  10.250 -0.6332  0.3895  0.1661
  509MOL0     C67115   3.818   1.570  10.139  0.2336 -0.0980 -0.1708
  509MOL0     C67116   3.966   1.589  10.181 -0.7169  0.2942 -0.0251
  509MOL0     C67117   3.992   1.729  10.243 -1.3105 -0.3605  1.1216
  509MOL0     C67118   4.141   1.776  10.241  0.0214  0.3282  0.1724
  509MOL0     C67119   4.230   1.691  10.318 -0.5735  0.8108 -0.1410
  509MOL0     C67120   4.306   1.621  10.391 -0.1308 -0.3235 -1.0180
  509MOL0     C67121   3.505   1.665  10.319 -0.0482  0.1326  0.6200
  509MOL0     C67122   3.372   1.641  10.324 -0.0469  0.3693 -0.7151
  509MOL0     H67123   3.073   1.209  10.069 -0.1389  0.4648 -0.0419
  509MOL0     H67124   2.839   1.093  10.052  2.1532 -0.0281  1.6914
  509MOL0     H67125   2.500   1.361  10.045  0.3988 -1.1136 -1.7811
  509MOL0     H67126   2.500   1.323  10.211  1.1987  0.4797 -0.9292
  509MOL0     H67127   2.384   1.131  10.005 -0.9329  1.4517 -1.1768
  509MOL0     H67128   2.313   1.286  10.043 -1.9219 -0.4481  2.3109
  509MOL0     H67129   2.310   1.224  10.287  0.7980 -1.0216  0.5621
  509MOL0     H67130   2.374   1.068  10.247 -0.4069  0.5985  1.4163
  509MOL0     H67131   2.091   1.177  10.161  0.3650 -1.1382 -2.7190
  509MOL0     H67132   2.157   1.029  10.094  3.5574 -1.7939  1.0112
  509MOL0     H67133   2.191   0.913  10.286 -1.2519 -2.1240  0.2079
  509MOL0     H67134   2.022   0.958  10.260  0.3176  0.8159  2.8342
  509MOL0     H67135   2.044   1.150  10.410 -1.3032 -0.0641  2.8069
  509MOL0     H67136   2.202   1.082  10.449  0.5003  1.0238 -2.6463
  509MOL0     H67137   2.066   0.875  10.531  0.0646  0.5419 -0.7107
  509MOL0     H67138   2.051   1.027  10.620  1.5059  0.6488 -1.3690
  509MOL0     H67139   1.873   0.883  10.424 -4.1419 -0.3028 -1.0393
  509MOL0     H67140   1.846   1.057  10.439  2.2193  1.9714  1.4559
  509MOL0     H67141   1.803   1.138  10.709 -1.2738  1.1089  0.8892
  509MOL0     H67142   1.640   1.148  10.906 -1.6892  0.8935 -0.1856
  509MOL0     H67143   1.602   0.986  10.954  4.5204 -0.5236 -1.5471
  509MOL0     H67144   1.410   1.148  10.940  1.9360 -0.8904  0.5686
  509MOL0     H67145   1.389   1.013  10.812  2.8803 -2.7408  0.1233
  509MOL0     H67146   1.495   1.293  10.774 -1.9721  4.7031 -2.3978
  509MOL0     H67147   1.465   1.171  10.639  0.0698  0.1958  1.1267
  509MOL0     H67148   1.265   1.328  10.789 -0.1754 -0.1821 -0.9895
  509MOL0     H67149   1.229   1.184  10.689 -0.0008 -0.9664  1.7390
  509MOL0     H67150   1.246   1.518  10.398 -0.0803 -0.2529 -2.5776
  509MOL0     H67151   1.040   1.533  10.255  1.3899 -2.5534 -1.6241
  509MOL0     H67152   0.599   1.609  10.239  1.1952 -1.6396  1.9695
  509MOL0     H67153   0.407   1.653  10.105 -0.7653 -0.3203  0.2806
  509MOL0     H67154   0.103   1.418  10.220  1.6469  1.1471 -0.9046
  509MOL0     H67155   0.072   1.319  10.075 -0.4259 -0.3618  1.5699
  509MOL0     H67156  -0.028   1.606  10.111 -1.3615  1.7421 -1.8286
  509MOL0     H67157  -0.115   1.456  10.131 -0.7254  2.4855  2.2650
  509MOL0     H67158  -0.073   1.403   9.879 -1.1127  0.5817  0.9126
  509MOL0     H67159   0.034   1.543   9.872 -1.0614 -0.1186 -1.3729
  509MOL0     H67160  -0.241   1.592   9.976  1.8914  0.1859  1.8637
  509MOL0     H67161  -0.132   1.700   9.907 -1.3423  0.9270 -1.3763
  509MOL0     H67162  -0.157   1.564   9.678 -2.4219 -2.3559 -1.6866
  509MOL0     H67163  -0.287   1.664   9.733  1.9956  3.3410  2.1660
  509MOL0     H67164  -0.264   1.360   9.803 -0.3279 -0.7217 -0.6967
  509MOL0     H67165  -0.310   1.389   9.645 -0.5649  0.9708 -0.7721
  509MOL0     H67166  -0.529   1.491   9.710 -2.9716 -0.2044  1.3964
  509MOL0     H67167  -0.505   1.337   9.780 -3.3809  1.4941 -0.4492
  509MOL0     H67168  -0.448   1.600   9.932 -0.0892  0.0123  0.7211
  509MOL0     H67169  -0.451   1.448   9.994 -0.3265  0.4041  0.7228
  509MOL0     H67170   0.316   1.217  10.130 -1.0336 -0.4575  1.8079
  509MOL0     H67171   0.508   1.186  10.242  1.3444  0.7335  1.7194
  509MOL0     H67172   0.831   1.276  10.508 -0.2510  0.9598  0.2557
  509MOL0     H67173   1.024   1.248  10.661  0.7451  1.3457 -0.3985
  509MOL0     H67174   2.672   1.451  10.217  1.8094  0.0394  2.8698
  509MOL0     H67175   2.893   1.533  10.272  3.4782  0.1123  1.5036
  509MOL0     H67176   3.361   1.355  10.140  0.1139 -0.1534 -0.1927
  509MOL0     H67177   3.601   1.411  10.118  0.0444  1.8787 -0.2411
  509MOL0     H67178   3.800   1.642  10.058  2.1581 -0.6806 -1.1633
  509MOL0     H67179   3.803   1.467  10.106  2.4286 -0.0863 -1.3867
  509MOL0     H67180   3.994   1.513  10.254  2.9182 -0.5680 -2.0201
  509MOL0     H67181   4.037   1.583  10.098  2.1365  1.4423  2.1621
  509MOL0     H67182   3.968   1.721  10.350  0.0544 -1.6121  1.3570
  509MOL0     H67183   3.931   1.797  10.182  1.9643 -0.0286 -2.1570
  509MOL0     H67184   4.192   1.800  10.147  0.1835  1.2864  0.4902
  509MOL0     H67185   4.143   1.877  10.283  2.4113  1.0431 -1.4317
  509MOL0     H67186   4.369   1.561  10.453  0.0513  0.6311 -0.2639
  509MOL0     H67187   3.540   1.749  10.376  1.0201 -0.2165  0.5064
  509MOL0     H67188   3.312   1.708  10.385  2.5393  2.3395 -0.1454
  510MOL0     O67189   3.984   4.466   8.922 -0.3120  0.4264 -0.8565
  510MOL0     C67190   3.978   4.550   9.012  0.5912 -0.1876 -0.4463
  510MOL0     O67191   4.079   4.630   9.044 -0.5620 -0.0548 -0.2862
  510MOL0     C67192   4.203   4.606   8.982  0.4695  0.0638  0.2835
  510MOL0     C67193   4.257   4.702   8.893 -0.3504  0.1799  1.1674
  510MOL0     C67194   4.396   4.694   8.851 -0.0782 -0.5751  0.4224
  510MOL0     C67195   4.474   4.592   8.903 -1.3305 -0.1478  0.2750
  510MOL0     O67196   4.615   4.592   8.877  0.9977 -0.0642 -0.2101
  510MOL0     C67197   4.691   4.479   8.921  0.3392  0.8441  1.2300
  510MOL0     C67198   4.838   4.478   8.880 -0.3463  0.5163 -0.4985
  510MOL0     C67199   4.914   4.610   8.922  0.3123 -0.5378  0.2843
  510MOL0     C67200   4.915   4.665   9.068 -0.2006  1.0694  0.0352
  510MOL0     C67201   4.977   4.550   9.161 -0.1664 -0.4980 -0.2148
  510MOL0     C67202   5.120   4.502   9.132  0.3276 -0.2937 -0.3736
  510MOL0     C67203   5.141   4.358   9.187  0.4550 -0.0466  0.3958
  510MOL0     C67204   5.285   4.312   9.175 -0.2982  0.0871  0.7730
  510MOL0     N67205   5.294   4.169   9.205  0.0552  0.6783  0.6523
  510MOL0     C67206   5.262   4.107   9.328 -0.1777  0.1081  0.6047
  510MOL0     C67207   5.292   3.972   9.315 -0.2862  0.1267 -0.1178
  510MOL0     C67208   5.283   3.860   9.412  0.0874 -0.8497  0.7321
  510MOL0     C67209   5.142   3.845   9.477 -0.0025  0.2468  0.2073
  510MOL0     C67210   5.028   3.849   9.390  0.1419 -0.0208  0.0883
  510MOL0     C67211   4.903   3.827   9.470  0.5786 -0.3684 -0.3045
  510MOL0     O67212   4.780   3.831   9.401 -0.1476 -0.0454 -0.0380
  510MOL0     C67213   4.660   3.825   9.474  0.5159  0.3089 -0.0836
  510MOL0     C67214   4.553   3.867   9.403 -0.4695 -0.3227 -0.5928
  510MOL0     C67215   4.424   3.854   9.445 -0.4728 -0.1614  0.2255
  510MOL0     C67216   4.398   3.798   9.575  0.1910  0.1041 -0.5927
  510MOL0     C67217   4.263   3.793   9.631 -0.0886 -0.4564 -0.0574
  510MOL0     O67218   4.151   3.839   9.560 -0.0315  0.4596 -0.2832
  510MOL0     C67219   4.027   3.812   9.621 -0.1716  0.6393  0.5270
  510MOL0     C67220   3.965   3.692   9.589 -1.1046 -0.2140 -0.9183
  510MOL0     C67221   3.842   3.663   9.646 -0.3480 -0.0154  0.1801
  510MOL0     C67222   3.769   3.769   9.719 -0.4704 -0.3201 -0.5600
  510MOL0     O67223   3.647   3.759   9.778 -0.3458 -0.0807  0.2448
  510MOL0     C67224   3.590   3.630   9.807 -0.4528  0.4517  0.6215
  510MOL0     C67225   3.646   3.576   9.943  0.0588 -0.4849 -0.5008
  510MOL0     C67226   3.743   3.451   9.924  0.0227 -0.5401  0.1573
  510MOL0     C67227   3.761   3.387  10.062  0.1135 -0.6224  0.0798
  510MOL0     C67228   3.846   3.263  10.057  0.5503 -0.2450  0.5130
  510MOL0     C67229   3.761   3.146  10.111 -0.0579  0.5812 -0.7746
  510MOL0     C67230   3.843   3.012  10.115  0.9016  0.9833  0.1742
  510MOL0     C67231   3.752   2.894  10.164  0.1207 -0.2851  0.7412
  510MOL0    Cl67232   3.606   2.873  10.056 -0.0744  0.0896 -0.3315
  510MOL0     C67233   3.833   3.885   9.748 -0.3500 -0.0637  0.3279
  510MOL0     C67234   3.959   3.910   9.691  0.6901 -0.4726  0.3994
  510MOL0     O67235   4.269   3.755   9.744  0.7471 -0.4869 -0.1661
  510MOL0     C67236   4.511   3.745   9.650  0.0201 -0.3332 -0.1046
  510MOL0     C67237   4.642   3.769   9.602 -0.2616 -0.2393 -0.1024
  510MOL0     N67238   5.332   3.955   9.181 -0.5389 -0.0333  0.2206
  510MOL0     N67239   5.341   4.072   9.118  0.7333  0.9328  0.2370
  510MOL0     C67240   4.417   4.492   8.983 -0.5264 -0.4957 -0.2210
  510MOL0     C67241   4.282   4.499   9.023  0.8451 -0.5827 -0.2553
  510MOL0     C67242   3.846   4.554   9.086 -0.6088  0.1034  0.2047
  510MOL0     C67243   3.744   4.471   9.057  0.2101 -0.0760 -0.2588
  510MOL0     C67244   3.629   4.471   9.128  0.1634 -0.1719 -0.0420
  510MOL0     C67245   3.610   4.562   9.238 -0.1224 -0.3550  0.0127
  510MOL0     O67246   3.504   4.563   9.322 -0.1676  0.2415  0.7562
  510MOL0     C67247   3.408   4.453   9.335  0.4218 -0.2572  0.6520
  510MOL0     C67248   3.285   4.492   9.255 -0.3963  0.6215 -0.4142
  510MOL0     C67249   3.159   4.410   9.288 -0.1408 -0.1728 -0.2902
  510MOL0     C67250   3.025   4.453   9.228 -0.0504  0.0175  0.2608
  510MOL0     C67251   2.997   4.590   9.277 -0.2095  0.3802  0.4593
  510MOL0     C67252   2.971   4.696   9.326 -0.1485 -0.8416  0.6047
  510MOL0     C67253   3.712   4.647   9.273  0.0177  0.3760  0.8495
  510MOL0     C67254   3.834   4.649   9.193  0.5787 -0.2013 -0.3026
  510MOL0     H67255   4.207   4.795   8.870  0.5939  0.2866 -0.5923
  510MOL0     H67256   4.446   4.773   8.796  2.3734 -0.9177  2.0249
  510MOL0     H67257   4.649   4.389   8.876  0.8472  1.2012 -0.0093
  510MOL0     H67258   4.680   4.467   9.029 -1.2465 -3.2484  0.7657
  510MOL0     H67259   4.848   4.467   8.772  0.8632 -2.0860 -0.1986
  510MOL0     H67260   4.890   4.393   8.926 -1.9206  0.3665  1.0989
  510MOL0     H67261   4.873   4.685   8.855  1.8590 -2.6965 -3.4040
  510MOL0     H67262   5.015   4.590   8.883 -0.4778 -0.6458 -1.8530
  510MOL0     H67263   4.971   4.758   9.082 -2.2216  2.1095  1.6239
  510MOL0     H67264   4.812   4.670   9.104 -0.2236 -2.6968  0.8732
  510MOL0     H67265   4.905   4.468   9.167 -0.0058 -0.5373  1.9841
  510MOL0     H67266   4.964   4.603   9.256  0.9267  0.4388 -0.5646
  510MOL0     H67267   5.197   4.560   9.185 -1.2466  1.1035  0.4801
  510MOL0     H67268   5.137   4.506   9.024  1.9398 -2.5265 -0.2756
  510MOL0     H67269   5.119   4.369   9.293 -1.1092  3.4882 -0.1767
  510MOL0     H67270   5.067   4.287   9.150 -1.9609  1.0506  2.8074
  510MOL0     H67271   5.335   4.363   9.258  0.2166  1.7332 -0.5044
  510MOL0     H67272   5.330   4.335   9.078  0.0269 -2.3522  0.2659
  510MOL0     H67273   5.227   4.158   9.417 -2.2562 -1.4852  0.7722
  510MOL0     H67274   5.355   3.881   9.491  0.5894  0.8336 -0.1184
  510MOL0     H67275   5.313   3.772   9.354  1.1391 -0.0662  0.0494
  510MOL0     H67276   5.137   3.925   9.551  0.7422  0.3691  0.1401
  510MOL0     H67277   5.133   3.750   9.530  0.3164 -0.4101 -0.8768
  510MOL0     H67278   5.016   3.937   9.326 -2.2165 -0.8965 -0.8066
  510MOL0     H67279   5.051   3.768   9.320  0.6198 -0.8544  1.1912
  510MOL0     H67280   4.894   3.908   9.544 -1.9673 -2.4059  1.8447
  510MOL0     H67281   4.919   3.744   9.540  0.3119  0.5770  0.9333
  510MOL0     H67282   4.579   3.915   9.309 -0.5756 -0.8480 -0.8963
  510MOL0     H67283   4.345   3.886   9.377  1.8021 -0.3381 -2.6899
  510MOL0     H67284   4.021   3.616   9.535  1.5564  0.8015  0.2262
  510MOL0     H67285   3.794   3.567   9.629  1.9018 -1.5186  1.7389
  510MOL0     H67286   3.608   3.559   9.726  1.2595  0.6837  0.7710
  510MOL0     H67287   3.483   3.644   9.824 -0.5404 -1.0649  1.3802
  510MOL0     H67288   3.561   3.552  10.008  0.6903 -3.2957 -0.6051
  510MOL0     H67289   3.695   3.667   9.980 -1.8996  2.1666 -3.9002
  510MOL0     H67290   3.833   3.493   9.880 -1.6982 -1.4741 -4.9157
  510MOL0     H67291   3.710   3.370   9.858  1.2742 -3.2100  2.5728
  510MOL0     H67292   3.799   3.468  10.126  0.4713  0.6926 -1.6985
  510MOL0     H67293   3.666   3.359  10.107 -0.4908 -0.0200 -0.7723
  510MOL0     H67294   3.939   3.274  10.114  1.3015  0.8168 -0.8561
  510MOL0     H67295   3.870   3.242   9.953  0.8133  0.2164  0.4791
  510MOL0     H67296   3.669   3.137  10.053 -0.6690  1.1949  0.0798
  510MOL0     H67297   3.740   3.176  10.214 -0.3749 -1.3499 -0.2437
  510MOL0     H67298   3.871   2.985  10.013  0.8278 -2.6221  0.9727
  510MOL0     H67299   3.930   3.021  10.181  0.6583 -3.6735  1.4538
  510MOL0     H67300   3.720   2.899  10.269  0.7453 -0.5349  0.9502
  510MOL0     H67301   3.813   2.805  10.146  1.0359  0.4110  0.3352
  510MOL0     H67302   3.780   3.963   9.802 -2.5409  0.5832 -2.5111
  510MOL0     H67303   4.008   4.006   9.682 -3.1016  1.5535 -1.0876
  510MOL0     H67304   4.493   3.701   9.748  1.0675 -0.6795 -0.0508
  510MOL0     H67305   4.729   3.754   9.666  0.3716 -4.1052 -1.6023
  510MOL0     H67306   4.464   4.409   9.035  0.7422  0.0253 -0.4890
  510MOL0     H67307   4.227   4.433   9.089 -0.8516  0.6905 -0.3430
  510MOL0     H67308   3.751   4.401   8.974  0.7204 -1.0819  0.6093
  510MOL0     H67309   3.541   4.411   9.107 -1.0069  1.8679 -1.3065
  510MOL0     H67310   3.380   4.436   9.440 -1.5139  0.1658  0.2482
  510MOL0     H67311   3.447   4.361   9.292 -1.1341 -1.5260  1.7988
  510MOL0     H67312   3.267   4.600   9.261  1.9158  1.0236  0.2788
  510MOL0     H67313   3.313   4.464   9.153 -0.9480  1.3545 -0.7732
  510MOL0     H67314   3.149   4.423   9.396  1.6013  3.6509 -0.4345
  510MOL0     H67315   3.172   4.303   9.266 -0.3575 -0.1713 -0.4247
  510MOL0     H67316   3.023   4.458   9.119  1.4559 -1.9489  0.0771
  510MOL0     H67317   2.941   4.389   9.257 -1.1233  1.1165 -0.3327
  510MOL0     H67318   2.942   4.793   9.359  2.1742 -0.3306  1.3180
  510MOL0     H67319   3.684   4.710   9.357  0.2985 -1.4350  2.3691
  510MOL0     H67320   3.921   4.708   9.223  1.9203 -2.4079  0.4044
  511MOL0     O67321   2.685   7.057   5.329 -0.1821 -0.7081 -0.1564
  511MOL0     C67322   2.730   7.107   5.436  0.6478 -1.0094  0.9806
  511MOL0     O67323   2.644   7.138   5.540  0.0041  0.0762  0.4256
  511MOL0     C67324   2.510   7.121   5.516 -1.4093 -0.0701 -0.4944
  511MOL0     C67325   2.440   7.017   5.571 -0.1883  0.0461 -0.0243
  511MOL0     C67326   2.301   7.007   5.551 -0.1789 -0.3008 -0.0634
  511MOL0     C67327   2.231   7.111   5.480 -0.1265  0.7736 -0.5955
  511MOL0     O67328   2.103   7.085   5.467  0.2155 -0.2778 -0.4404
  511MOL0     C67329   2.033   7.149   5.359  0.4351 -0.4374 -0.0018
  511MOL0     C67330   1.884   7.138   5.390 -0.6602  0.2964 -0.2731
  511MOL0     C67331   1.837   6.991   5.401 -0.2239 -0.4058  0.1374
  511MOL0     C67332   1.676   6.978   5.420  0.3740 -0.8887  0.5442
  511MOL0     C67333   1.586   7.027   5.307 -0.0705 -0.7106 -0.2759
  511MOL0     C67334   1.596   6.974   5.165  0.0236  0.5928 -0.5798
  511MOL0     C67335   1.453   6.969   5.098  0.4609 -0.1768 -1.0279
  511MOL0     C67336   1.395   7.113   5.086  0.7943  0.4664  0.1853
  511MOL0     N67337   1.261   7.112   5.024  0.3815  0.0480 -0.2012
  511MOL0     C67338   1.140   7.090   5.077  0.3671 -0.1704  0.0150
  511MOL0     C67339   1.044   7.100   4.976  0.1841  0.7024  0.5503
  511MOL0     C67340   0.890   7.087   4.989 -1.5767 -0.0982  0.4190
  511MOL0     C67341   0.814   7.218   4.963 -0.1921  0.1178  0.1082
  511MOL0     C67342   0.661   7.180   4.963  0.6022 -0.1166  1.0210
  511MOL0     C67343   0.574   7.303   4.960 -0.6350 -0.2206  0.5999
  511MOL0     O67344   0.459   7.313   5.042  0.9895  0.0638 -0.7987
  511MOL0     C67345   0.328   7.278   5.008 -0.6500  0.0977 -0.7921
  511MOL0     C67346   0.291   7.200   4.904 -0.3591  0.3099  0.3545
  511MOL0     C67347   0.154   7.175   4.875 -0.2780  0.2259 -1.0040
  511MOL0     C67348   0.056   7.209   4.970  0.0753  0.1600 -0.1817
  511MOL0     C67349  -0.086   7.169   4.950 -0.0064  0.2362 -0.1048
  511MOL0     O67350  -0.123   7.114   4.830 -1.0726  0.1075  0.1665
  511MOL0     C67351  -0.256   7.079   4.821  0.4228  0.3630  0.1873
  511MOL0     C67352  -0.344   7.184   4.804  0.6191  0.1465  1.0527
  511MOL0     C67353  -0.481   7.159   4.768  0.0092  0.2144 -0.3340
  511MOL0     C67354  -0.529   7.020   4.765 -0.7168 -0.0000  0.1401
  511MOL0     O67355  -0.656   6.981   4.714 -0.2533 -0.0929 -0.3085
  511MOL0     C67356  -0.764   7.069   4.718  0.6366 -0.3332  0.4365
  511MOL0     C67357  -0.891   6.982   4.712  0.0110  0.2484  0.0116
  511MOL0     C67358  -1.015   7.066   4.689  0.2582 -0.3066 -0.3979
  511MOL0     C67359  -1.036   7.154   4.810 -0.7553 -0.0832  0.4674
  511MOL0     C67360  -1.184   7.169   4.839 -0.1173  0.2447  0.1341
  511MOL0     C67361  -1.202   7.257   4.963 -0.6033 -0.4598  0.1591
  511MOL0     C67362  -1.350   7.271   5.008 -0.0305  0.3665 -0.9496
  511MOL0     C67363  -1.454   7.334   4.911 -0.7558  0.2140 -0.0033
  511MOL0    Cl67364  -1.630   7.323   4.968 -0.0413  0.1574  0.2513
  511MOL0     C67365  -0.434   6.917   4.789  0.1715 -0.2929 -0.2637
  511MOL0     C67366  -0.299   6.949   4.815 -0.4403 -0.2527  0.0413
  511MOL0     O67367  -0.162   7.185   5.046 -0.9950  0.2332 -0.1560
  511MOL0     C67368   0.084   7.283   5.086 -0.3518  0.0440 -0.3577
  511MOL0     C67369   0.217   7.324   5.100 -0.3659  0.7913 -0.2290
  511MOL0     N67370   1.111   7.123   4.861  0.7401  0.1169  0.4029
  511MOL0     N67371   1.236   7.126   4.895 -0.1730 -0.5266  0.1622
  511MOL0     C67372   2.299   7.221   5.442  0.0393 -0.3172  0.5943
  511MOL0     C67373   2.435   7.228   5.459 -1.1408  0.2576  0.1554
  511MOL0     C67374   2.876   7.145   5.441  0.1523 -0.3336  0.2258
  511MOL0     C67375   2.964   7.165   5.336  0.2197  0.6149 -0.1206
  511MOL0     C67376   3.098   7.192   5.358  0.1164  0.4868  0.9009
  511MOL0     C67377   3.150   7.216   5.486  0.6837 -0.2003 -0.2810
  511MOL0     O67378   3.280   7.258   5.503 -0.4582 -0.5469  0.5719
  511MOL0     C67379   3.376   7.153   5.531 -0.2448 -0.4135 -0.5006
  511MOL0     C67380   3.352   7.091   5.672  0.1694 -0.6401  0.0209
  511MOL0     C67381   3.475   7.015   5.721 -0.8465 -0.1340 -0.2361
  511MOL0     C67382   3.502   6.887   5.644 -0.1134 -0.4702 -1.1713
  511MOL0     C67383   3.605   6.805   5.712  0.3092 -0.1625 -0.1203
  511MOL0     C67384   3.664   6.715   5.774  0.3995  0.3905  0.6864
  511MOL0     C67385   3.059   7.197   5.594  0.0129 -0.3092  0.4368
  511MOL0     C67386   2.924   7.164   5.568 -0.7262 -0.4929 -0.0706
  511MOL0     H67387   2.483   6.945   5.640 -3.3825 -0.9707  1.0927
  511MOL0     H67388   2.247   6.927   5.600 -0.1760  0.7684  1.7995
  511MOL0     H67389   2.063   7.097   5.267  0.4048  2.0088 -1.4697
  511MOL0     H67390   2.044   7.256   5.338  0.7902 -0.5191 -0.2352
  511MOL0     H67391   1.825   7.192   5.316  0.4836  2.1677  0.1197
  511MOL0     H67392   1.863   7.185   5.486 -0.5464 -0.0952 -0.0509
  511MOL0     H67393   1.879   6.944   5.490 -0.4480 -0.9415 -0.0349
  511MOL0     H67394   1.866   6.930   5.315  0.7090  0.2217 -0.0167
  511MOL0     H67395   1.637   6.876   5.435  0.1176 -0.7454  0.8623
  511MOL0     H67396   1.649   7.034   5.510 -1.5849 -5.1004  2.9220
  511MOL0     H67397   1.604   7.135   5.307  3.9399 -1.2410  0.2586
  511MOL0     H67398   1.485   7.009   5.346  1.0659  0.0409  3.4360
  511MOL0     H67399   1.641   6.874   5.169  2.3016  1.6054  0.6877
  511MOL0     H67400   1.649   7.045   5.102  0.6122  1.3247  0.7070
  511MOL0     H67401   1.457   6.922   5.000 -0.9785  1.6511 -2.0334
  511MOL0     H67402   1.389   6.908   5.163 -0.1772 -0.3734 -1.8259
  511MOL0     H67403   1.462   7.174   5.023  2.4163 -3.1481 -1.9397
  511MOL0     H67404   1.389   7.166   5.182 -0.1678 -0.9713  0.9429
  511MOL0     H67405   1.109   7.085   5.181  1.1159 -2.0400  0.1776
  511MOL0     H67406   0.863   7.060   5.091 -0.0028  0.9008  1.1379
  511MOL0     H67407   0.868   7.013   4.911  3.0884  2.0166 -3.4233
  511MOL0     H67408   0.833   7.267   4.867 -0.6606 -2.6974 -1.5288
  511MOL0     H67409   0.829   7.284   5.049  1.7387 -0.6300  0.3881
  511MOL0     H67410   0.637   7.105   4.888 -2.1932  1.5064  0.1616
  511MOL0     H67411   0.643   7.138   5.063  2.1490 -0.9439  0.9816
  511MOL0     H67412   0.548   7.338   4.860 -0.5248 -1.8829 -0.0472
  511MOL0     H67413   0.641   7.380   4.998 -1.6750  0.0262  2.0183
  511MOL0     H67414   0.360   7.168   4.827 -2.4903  0.5395 -1.7619
  511MOL0     H67415   0.127   7.115   4.788 -1.2572 -2.7056  1.1594
  511MOL0     H67416  -0.290   7.278   4.797  2.8194 -1.1450 -0.8841
  511MOL0     H67417  -0.562   7.226   4.742 -0.5451  1.2722  3.5140
  511MOL0     H67418  -0.761   7.133   4.630 -0.7954  0.2617  0.8031
  511MOL0     H67419  -0.769   7.142   4.799  1.5516  3.0411 -2.3006
  511MOL0     H67420  -0.889   6.912   4.796 -0.5693 -1.5979 -1.4366
  511MOL0     H67421  -0.876   6.910   4.631  0.5519 -0.3571  0.6300
  511MOL0     H67422  -1.096   6.993   4.679  0.2942 -0.0916 -3.2008
  511MOL0     H67423  -1.016   7.118   4.593  1.5339 -2.2040 -1.4939
  511MOL0     H67424  -0.983   7.110   4.895  0.4824  0.6749  0.1165
  511MOL0     H67425  -0.994   7.250   4.776 -1.7247 -0.1357 -0.9534
  511MOL0     H67426  -1.218   7.067   4.857  2.6924 -0.9012 -0.6115
  511MOL0     H67427  -1.228   7.220   4.753 -0.1233  0.4883  0.2805
  511MOL0     H67428  -1.162   7.357   4.946 -0.0189 -0.2486  2.5437
  511MOL0     H67429  -1.148   7.210   5.045  2.8954  0.3893 -1.5023
  511MOL0     H67430  -1.399   7.175   5.027 -2.8072  1.9602  0.4838
  511MOL0     H67431  -1.359   7.333   5.097 -1.9885 -2.2968  0.8793
  511MOL0     H67432  -1.450   7.268   4.824  0.3778 -0.3862  0.4847
  511MOL0     H67433  -1.419   7.434   4.886  0.2000 -0.2074 -0.3852
  511MOL0     H67434  -0.474   6.817   4.793 -1.3256  0.2794 -0.1441
  511MOL0     H67435  -0.223   6.874   4.834 -0.1092 -0.0685 -0.5444
  511MOL0     H67436   0.004   7.323   5.147 -0.3752  0.6843 -0.7935
  511MOL0     H67437   0.243   7.383   5.187 -0.1099 -2.5821  2.1982
  511MOL0     H67438   2.254   7.307   5.393 -3.9511 -1.4872  1.8444
  511MOL0     H67439   2.485   7.319   5.430 -4.6391  1.7661 -1.7393
  511MOL0     H67440   2.937   7.149   5.232  3.7087 -0.1131 -1.0561
  511MOL0     H67441   3.172   7.205   5.280  0.5998 -1.7510  0.9399
  511MOL0     H67442   3.471   7.205   5.516 -0.9818  0.9146 -0.7298
  511MOL0     H67443   3.364   7.072   5.458 -1.3954 -1.0192  0.3307
  511MOL0     H67444   3.338   7.170   5.748 -3.0353 -1.8705  0.8730
  511MOL0     H67445   3.264   7.027   5.670  0.6217 -1.2885  0.3654
  511MOL0     H67446   3.473   7.004   5.830  2.7987  0.0305 -0.0264
  511MOL0     H67447   3.557   7.085   5.704 -0.2100 -0.1784  2.1930
  511MOL0     H67448   3.411   6.825   5.649 -0.5699  0.3093  2.0069
  511MOL0     H67449   3.533   6.895   5.539  3.7460 -1.5838 -0.2510
  511MOL0     H67450   3.709   6.629   5.818 -0.7019  0.9419  3.0974
  511MOL0     H67451   3.106   7.213   5.691  2.1874  1.8026 -0.8644
  511MOL0     H67452   2.854   7.142   5.649 -4.2919 -1.1991 -3.0545
  512MOL0     O67453   9.473   0.830   8.137 -1.0584 -0.0937  0.6546
  512MOL0     C67454   9.566   0.904   8.164 -0.1647  0.2119  0.5729
  512MOL0     O67455   9.551   1.030   8.211 -0.9463 -0.3928 -0.0213
  512MOL0     C67456   9.424   1.084   8.199  0.1694 -0.3488 -0.4195
  512MOL0     C67457   9.402   1.191   8.110  0.5348  0.3073  0.5229
  512MOL0     C67458   9.269   1.244   8.101 -0.2474  1.7782 -0.2509
  512MOL0     C67459   9.169   1.185   8.191 -0.5276 -1.2920  0.5931
  512MOL0     O67460   9.047   1.241   8.191 -0.6057 -0.0489 -0.0436
  512MOL0     C67461   8.979   1.249   8.064 -0.2034 -0.7028 -0.8921
  512MOL0     C67462   8.972   1.114   7.981 -0.2606 -0.1595  0.0336
  512MOL0     C67463   8.931   1.158   7.846  0.6457 -0.4860  0.4129
  512MOL0     C67464   8.875   1.044   7.744 -0.3226  0.0228 -0.9886
  512MOL0     C67465   8.812   1.101   7.615 -0.1163  0.1835 -0.4194
  512MOL0     C67466   8.663   1.136   7.645 -0.4351 -0.6633 -0.4644
  512MOL0     C67467   8.620   1.248   7.560  0.7609  0.2048  0.2579
  512MOL0     C67468   8.473   1.289   7.551 -0.6758  0.1981  0.4687
  512MOL0     N67469   8.385   1.177   7.512 -0.5009  0.4454 -0.1693
  512MOL0     C67470   8.253   1.192   7.512  0.6335 -0.0347  0.4348
  512MOL0     C67471   8.198   1.091   7.448 -0.5015 -0.4886 -0.0062
  512MOL0     C67472   8.054   1.054   7.430 -0.4068  0.0521 -0.3899
  512MOL0     C67473   8.006   1.025   7.284 -0.1601  0.1020  1.7467
  512MOL0     C67474   7.861   0.998   7.280 -0.1468  0.5764  0.6932
  512MOL0     C67475   7.809   0.954   7.146 -0.1342  0.8402  0.5748
  512MOL0     O67476   7.768   1.066   7.067 -0.4128 -0.0389  0.1089
  512MOL0     C67477   7.664   1.144   7.100  0.9465  0.3245 -0.6714
  512MOL0     C67478   7.639   1.241   7.009  0.6775 -1.2101  0.3452
  512MOL0     C67479   7.551   1.346   7.038  0.0068 -0.7741  0.3217
  512MOL0     C67480   7.471   1.349   7.159  0.6367  1.1832 -1.5744
  512MOL0     C67481   7.364   1.448   7.170 -0.9678 -0.5064 -1.0644
  512MOL0     O67482   7.294   1.452   7.284 -0.4815 -0.0082  0.2976
  512MOL0     C67483   7.189   1.542   7.289  0.4295 -0.4750  0.7003
  512MOL0     C67484   7.081   1.518   7.210  0.5572  0.4144  0.0255
  512MOL0     C67485   6.970   1.597   7.226 -0.6745  0.2115 -0.0196
  512MOL0     C67486   6.966   1.695   7.325 -0.3319 -0.1944 -0.8979
  512MOL0     O67487   6.851   1.766   7.331  0.8372 -0.4390  0.5110
  512MOL0     C67488   6.787   1.795   7.461 -0.1119  0.2947 -0.3779
  512MOL0     C67489   6.660   1.879   7.448 -0.1416 -0.4813 -0.6153
  512MOL0     C67490   6.553   1.792   7.388  0.0938 -0.7300  0.0086
  512MOL0     C67491   6.424   1.874   7.391  0.0625 -0.0288 -0.2713
  512MOL0     C67492   6.301   1.778   7.372 -0.5269  0.3054  0.8401
  512MOL0     C67493   6.164   1.849   7.384  0.5672 -0.5358  0.0563
  512MOL0     C67494   6.058   1.740   7.368  0.5191 -0.8942  0.3288
  512MOL0     C67495   5.917   1.787   7.400 -0.0512  0.3042  0.4271
  512MOL0    Cl67496   5.905   1.840   7.567 -0.1698 -0.1133 -0.1129
  512MOL0     C67497   7.073   1.719   7.409  0.5378  0.0534  0.6718
  512MOL0     C67498   7.185   1.644   7.386  0.4710 -0.1601  1.0305
  512MOL0     O67499   7.351   1.524   7.075 -0.1863  0.0549 -0.0008
  512MOL0     C67500   7.489   1.237   7.243 -0.7451  0.8291  0.1627
  512MOL0     C67501   7.581   1.134   7.214 -0.0310 -0.4498 -0.6656
  512MOL0     N67502   8.303   1.007   7.412 -0.2072  0.0745 -0.5938
  512MOL0     N67503   8.411   1.062   7.459  0.0814  0.9744 -0.7385
  512MOL0     C67504   9.200   1.092   8.287 -0.2043  0.7634 -0.0105
  512MOL0     C67505   9.326   1.043   8.286 -1.2423  0.6590  0.1176
  512MOL0     C67506   9.695   0.864   8.126  0.2769  1.1124  0.6356
  512MOL0     C67507   9.710   0.745   8.050  0.1674  0.6904  0.6175
  512MOL0     C67508   9.837   0.706   8.003  0.7049 -0.9950 -0.0648
  512MOL0     C67509   9.950   0.784   8.030  0.4055 -0.0782 -0.5623
  512MOL0     O67510  10.060   0.736   7.969 -0.2868  0.1086 -0.0517
  512MOL0     C67511  10.147   0.670   8.067  0.2426  0.5210  0.3834
  512MOL0     C67512  10.285   0.638   8.005  0.7538 -0.3258  0.2810
  512MOL0     C67513  10.367   0.763   7.963  0.8156 -0.2294 -0.4075
  512MOL0     C67514  10.507   0.722   7.916  0.6695 -0.1712 -0.5975
  512MOL0     C67515  10.498   0.658   7.782 -0.0291  0.3003 -0.7957
  512MOL0     C67516  10.525   0.608   7.675  1.3147 -0.2341  0.5590
  512MOL0     C67517   9.939   0.903   8.105  0.7002 -1.2532  0.1976
  512MOL0     C67518   9.811   0.946   8.146 -0.5070 -0.1464 -0.5432
  512MOL0     H67519   9.481   1.238   8.051  2.2013 -1.6314  1.0799
  512MOL0     H67520   9.238   1.324   8.033 -2.9003  1.6565  0.7089
  512MOL0     H67521   9.028   1.328   8.006 -0.4619  0.2404  0.1499
  512MOL0     H67522   8.879   1.291   8.079 -0.0456  0.3485 -2.4556
  512MOL0     H67523   8.908   1.035   8.021 -0.1456  0.9025  2.5416
  512MOL0     H67524   9.072   1.071   7.976  1.4723  3.5587 -4.4754
  512MOL0     H67525   9.006   1.212   7.788 -1.0549 -1.1831 -2.6372
  512MOL0     H67526   8.849   1.228   7.865  0.4179 -0.4896 -0.5216
  512MOL0     H67527   8.962   0.984   7.717  1.7760  1.7427  1.3580
  512MOL0     H67528   8.812   0.974   7.799  1.4031  0.6569  2.0780
  512MOL0     H67529   8.821   1.028   7.534  3.1097 -1.9327  1.6009
  512MOL0     H67530   8.859   1.192   7.577  1.3369 -0.5122 -0.3356
  512MOL0     H67531   8.660   1.177   7.747 -0.2892 -1.1689 -0.2563
  512MOL0     H67532   8.597   1.049   7.640 -0.9719 -0.4371  1.6380
  512MOL0     H67533   8.673   1.338   7.595  4.4476 -1.3523 -0.7840
  512MOL0     H67534   8.660   1.238   7.458 -0.7461  0.8465 -0.4227
  512MOL0     H67535   8.457   1.365   7.474  2.6714  0.3042 -0.2352
  512MOL0     H67536   8.440   1.335   7.645 -2.3277  0.0196  0.0237
  512MOL0     H67537   8.206   1.284   7.545  1.9303  2.1346 -3.1704
  512MOL0     H67538   7.992   1.127   7.482 -1.2126 -1.4349  0.8042
  512MOL0     H67539   8.038   0.963   7.489  1.3632 -0.2671 -0.3468
  512MOL0     H67540   8.056   0.935   7.248 -1.0970 -0.1811  1.1023
  512MOL0     H67541   8.025   1.107   7.214 -0.8318  0.1083  1.5645
  512MOL0     H67542   7.850   0.911   7.345 -2.5828 -1.3318 -2.0176
  512MOL0     H67543   7.808   1.081   7.327  0.0228  1.1555 -0.1299
  512MOL0     H67544   7.713   0.903   7.162 -0.1742  0.2711 -1.2546
  512MOL0     H67545   7.875   0.880   7.100 -1.2641 -0.1574  0.5069
  512MOL0     H67546   7.693   1.242   6.914 -0.0445 -1.5829 -0.0813
  512MOL0     H67547   7.538   1.419   6.958  2.4315 -0.6769 -0.0481
  512MOL0     H67548   7.084   1.442   7.133  0.8279  1.9289 -1.5244
  512MOL0     H67549   6.885   1.586   7.160 -0.2643 -0.8778 -0.3809
  512MOL0     H67550   6.854   1.860   7.518 -1.3940 -0.4064  2.1207
  512MOL0     H67551   6.767   1.708   7.525 -1.8243  1.7152  1.1222
  512MOL0     H67552   6.672   1.973   7.393 -2.4853  0.3282  0.1239
  512MOL0     H67553   6.621   1.912   7.544 -0.3333 -0.5264 -0.6774
  512MOL0     H67554   6.543   1.705   7.453 -1.3506 -0.7909 -0.2553
  512MOL0     H67555   6.572   1.764   7.284  4.8599  0.7760  0.2635
  512MOL0     H67556   6.413   1.927   7.486 -2.1240  1.6468 -1.3632
  512MOL0     H67557   6.423   1.952   7.315  2.3682 -0.9437 -1.3012
  512MOL0     H67558   6.309   1.699   7.447 -0.3415 -0.8692 -0.3848
  512MOL0     H67559   6.317   1.724   7.279  1.4021  4.8074 -1.7734
  512MOL0     H67560   6.154   1.931   7.311  0.8881 -1.9797 -1.6760
  512MOL0     H67561   6.169   1.880   7.489  2.1952 -0.8859  0.1022
  512MOL0     H67562   6.062   1.703   7.265  1.1842  1.9324 -0.7674
  512MOL0     H67563   6.088   1.660   7.436 -1.6318  0.1338  2.6350
  512MOL0     H67564   5.844   1.707   7.387 -1.1821  1.5936 -1.6783
  512MOL0     H67565   5.882   1.871   7.340 -2.1683  0.4939  1.7953
  512MOL0     H67566   7.049   1.795   7.482 -1.1500  1.2119 -0.9982
  512MOL0     H67567   7.267   1.653   7.456  2.9010  0.5927 -1.7115
  512MOL0     H67568   7.428   1.233   7.333 -1.3585  1.0970 -0.2350
  512MOL0     H67569   7.584   1.054   7.288  0.9342 -0.4761 -0.7178
  512MOL0     H67570   9.129   1.039   8.349  1.9434 -0.1330  1.8182
  512MOL0     H67571   9.342   0.968   8.362  3.0109  1.6021  0.4036
  512MOL0     H67572   9.625   0.682   8.025  1.2253 -0.8169  0.7117
  512MOL0     H67573   9.856   0.609   7.957 -0.1438 -2.6749  2.8968
  512MOL0     H67574  10.103   0.579   8.109  0.4000 -1.0781 -2.6434
  512MOL0     H67575  10.170   0.743   8.145 -2.7060 -1.8082  3.7795
  512MOL0     H67576  10.342   0.570   8.068 -0.9999 -1.2639  0.9173
  512MOL0     H67577  10.260   0.583   7.914 -1.3872 -2.0132  1.7794
  512MOL0     H67578  10.389   0.829   8.048 -0.8567  0.5308 -0.5245
  512MOL0     H67579  10.313   0.824   7.890  0.8021  0.1063 -0.1228
  512MOL0     H67580  10.571   0.810   7.921 -0.9319  0.9712  1.5654
  512MOL0     H67581  10.550   0.654   7.991  1.6840  1.9864  0.8598
  512MOL0     H67582  10.548   0.563   7.581 -1.7311  1.1583 -0.9890
  512MOL0     H67583  10.030   0.956   8.131 -0.8991  2.2675 -0.7573
  512MOL0     H67584   9.809   1.033   8.211 -1.0893 -1.4551  1.2683
  513MOL0     O67585   7.766   6.303   8.376 -0.3715  0.3333  0.0333
  513MOL0     C67586   7.820   6.293   8.483 -0.0923  0.4808 -0.4041
  513MOL0     O67587   7.782   6.346   8.600 -0.2557  0.3793  0.0902
  513MOL0     C67588   7.658   6.403   8.617 -0.7303 -0.2488  0.5387
  513MOL0     C67589   7.539   6.342   8.570 -0.2999 -0.6872 -0.6335
  513MOL0     C67590   7.411   6.390   8.598  1.5191 -0.0749  0.1725
  513MOL0     C67591   7.400   6.487   8.700 -0.5602  0.1183  0.5008
  513MOL0     O67592   7.282   6.536   8.752  0.4505  0.2770  0.0687
  513MOL0     C67593   7.174   6.590   8.682  0.0725  1.2740  0.3629
  513MOL0     C67594   7.069   6.486   8.638 -0.1327 -0.2314 -0.5551
  513MOL0     C67595   7.009   6.401   8.755 -0.0219  0.5729 -0.5837
  513MOL0     C67596   6.867   6.366   8.717  0.0389  0.0072 -0.0534
  513MOL0     C67597   6.805   6.272   8.824  0.2171 -0.5329 -0.4004
  513MOL0     C67598   6.672   6.205   8.775  0.7820  0.1836 -0.5273
  513MOL0     C67599   6.612   6.120   8.882  0.1874 -0.6556  0.5824
  513MOL0     C67600   6.481   6.067   8.826 -0.0290  0.3862  0.5909
  513MOL0     N67601   6.369   6.160   8.844  0.0823 -0.4341  0.6074
  513MOL0     C67602   6.322   6.219   8.960  0.2965 -0.4466 -0.8215
  513MOL0     C67603   6.223   6.297   8.921 -0.2181  0.3759  0.5264
  513MOL0     C67604   6.137   6.383   9.008  0.2829  0.9465  0.5632
  513MOL0     C67605   6.001   6.306   9.039 -0.0023  0.3242 -0.1486
  513MOL0     C67606   5.907   6.287   8.920  1.2920 -0.2053  0.0547
  513MOL0     C67607   5.847   6.423   8.872 -0.5273 -0.1351 -0.0632
  513MOL0     O67608   5.741   6.409   8.777 -0.0936 -0.1148 -0.4830
  513MOL0     C67609   5.613   6.426   8.823  0.5781 -0.1288 -0.1674
  513MOL0     C67610   5.544   6.511   8.743  0.1773 -0.5487 -0.9026
  513MOL0     C67611   5.398   6.527   8.758 -0.0517 -0.2309  0.4841
  513MOL0     C67612   5.325   6.473   8.866  0.0982 -0.3910  0.2618
  513MOL0     C67613   5.179   6.496   8.903  0.5217  0.6764  0.0805
  513MOL0     O67614   5.103   6.559   8.805 -0.2074 -0.8552  0.7110
  513MOL0     C67615   4.980   6.599   8.816  0.3288  0.5016 -0.5689
  513MOL0     C67616   4.895   6.552   8.715 -0.3081 -0.4094 -0.3577
  513MOL0     C67617   4.755   6.588   8.728 -1.1628  0.5696 -0.0462
  513MOL0     C67618   4.712   6.672   8.836  0.0088  0.2304  1.0267
  513MOL0     O67619   4.580   6.692   8.852  0.6508 -0.1276  0.3318
  513MOL0     C67620   4.496   6.740   8.751 -0.2199 -0.8813  0.1759
  513MOL0     C67621   4.356   6.747   8.809  0.6307  0.0666  0.0949
  513MOL0     C67622   4.260   6.828   8.714 -0.2809  0.0682 -0.6726
  513MOL0     C67623   4.116   6.791   8.749 -0.1888  0.2914  0.7544
  513MOL0     C67624   4.028   6.905   8.705  0.4815  0.1182  0.9167
  513MOL0     C67625   4.015   6.930   8.557  0.1577  0.3144 -1.0963
  513MOL0     C67626   3.937   6.814   8.483  0.3376  1.1757  0.2687
  513MOL0     C67627   3.903   6.839   8.338 -0.0052 -0.3387 -0.0644
  513MOL0    Cl67628   3.737   6.923   8.340 -0.4710  0.3344  0.4566
  513MOL0     C67629   4.798   6.729   8.924  0.1614  1.4934  0.2263
  513MOL0     C67630   4.934   6.688   8.919 -0.1505  0.2549 -0.1853
  513MOL0     O67631   5.147   6.467   9.019  0.2097 -0.2191  1.0868
  513MOL0     C67632   5.404   6.390   8.949  0.3533  0.5632 -0.3181
  513MOL0     C67633   5.542   6.365   8.930  0.5022  0.0650 -0.1420
  513MOL0     N67634   6.209   6.292   8.786 -0.4405  0.4821  0.5877
  513MOL0     N67635   6.298   6.205   8.744  0.1863  0.2541  0.3681
  513MOL0     C67636   7.516   6.547   8.748  1.1529  0.0224  0.0502
  513MOL0     C67637   7.641   6.511   8.703 -0.0133  0.0569 -0.2457
  513MOL0     C67638   7.939   6.204   8.490  1.3583 -0.5455  0.5892
  513MOL0     C67639   8.004   6.179   8.614  0.3218 -0.5652 -0.9340
  513MOL0     C67640   8.115   6.095   8.622  0.0888 -0.0221 -1.1493
  513MOL0     C67641   8.176   6.047   8.506  0.1731 -0.8402  0.6438
  513MOL0     O67642   8.291   5.969   8.504 -0.1111  0.6039 -0.7253
  513MOL0     C67643   8.349   5.939   8.635 -0.0895  0.5802  0.3979
  513MOL0     C67644   8.489   5.880   8.604  0.3322 -0.1502 -0.0307
  513MOL0     C67645   8.579   5.854   8.722  0.3281 -0.0209 -0.2710
  513MOL0     C67646   8.643   5.987   8.758  0.2178 -0.6970 -0.5527
  513MOL0     C67647   8.714   5.981   8.880  0.1188 -0.9551 -0.7044
  513MOL0     C67648   8.776   5.966   8.985  0.3228 -0.1947  1.2694
  513MOL0     C67649   8.114   6.075   8.385  0.2934 -0.6450  0.5162
  513MOL0     C67650   7.991   6.146   8.373  0.4663  0.2025 -0.0296
  513MOL0     H67651   7.551   6.253   8.509 -0.0359 -0.4191 -0.9753
  513MOL0     H67652   7.336   6.343   8.535  1.3855 -1.1374  1.0973
  513MOL0     H67653   7.202   6.658   8.601 -2.6968  1.4718 -0.5074
  513MOL0     H67654   7.125   6.656   8.753  2.2132  0.2230  3.0120
  513MOL0     H67655   7.098   6.418   8.557 -2.3002 -0.4379 -1.2034
  513MOL0     H67656   6.991   6.549   8.595  0.5848  1.3493  0.3712
  513MOL0     H67657   7.013   6.459   8.848  0.6617  0.9439 -0.8370
  513MOL0     H67658   7.072   6.313   8.769 -2.9583 -1.8916 -1.7802
  513MOL0     H67659   6.808   6.458   8.714 -0.9034 -0.5642 -3.5127
  513MOL0     H67660   6.863   6.335   8.612 -2.4626 -5.2446  1.2459
  513MOL0     H67661   6.787   6.325   8.918 -0.8832  0.0980 -0.9593
  513MOL0     H67662   6.883   6.198   8.846  1.8347  0.9285 -1.0153
  513MOL0     H67663   6.690   6.148   8.684 -0.5331  2.5352 -2.3825
  513MOL0     H67664   6.594   6.279   8.756  0.3984 -0.2882 -0.8241
  513MOL0     H67665   6.675   6.035   8.908  1.7702  0.4634  0.5167
  513MOL0     H67666   6.603   6.171   8.978  1.8740  0.3302  0.2470
  513MOL0     H67667   6.457   5.984   8.893 -2.8863  2.9856  3.1358
  513MOL0     H67668   6.483   6.044   8.719  2.7128 -0.4991  0.7719
  513MOL0     H67669   6.340   6.184   9.061  2.0815  2.4065 -0.0148
  513MOL0     H67670   6.123   6.465   8.937  3.0775 -0.2638 -1.5881
  513MOL0     H67671   6.170   6.416   9.107 -1.8008  0.6041  1.4236
  513MOL0     H67672   5.954   6.349   9.128  2.1391  1.3877  0.5517
  513MOL0     H67673   6.032   6.203   9.061  0.6986  0.7276  0.7759
  513MOL0     H67674   5.944   6.227   8.836 -2.4452 -1.4291 -0.8921
  513MOL0     H67675   5.821   6.228   8.953  0.0719  0.9068 -1.0104
  513MOL0     H67676   5.928   6.483   8.829 -1.2439  1.4882  0.7547
  513MOL0     H67677   5.807   6.461   8.967 -1.7167 -1.7634  0.1298
  513MOL0     H67678   5.588   6.572   8.665 -0.6429 -1.7944 -2.3898
  513MOL0     H67679   5.339   6.581   8.685 -1.9069 -1.9279  0.6278
  513MOL0     H67680   4.920   6.487   8.632 -0.0046  0.0459 -0.6280
  513MOL0     H67681   4.678   6.555   8.660 -0.7694  0.2871 -0.3597
  513MOL0     H67682   4.493   6.663   8.673 -0.7827 -2.0971  1.3535
  513MOL0     H67683   4.528   6.839   8.717 -0.6051  0.0918  2.4861
  513MOL0     H67684   4.354   6.801   8.904  0.0595 -2.7744  1.8099
  513MOL0     H67685   4.319   6.646   8.827 -0.0791 -0.0709 -1.8791
  513MOL0     H67686   4.286   6.813   8.609  0.8877  0.6362 -0.4782
  513MOL0     H67687   4.288   6.931   8.741  2.2894 -0.2073 -1.9141
  513MOL0     H67688   4.094   6.701   8.690  0.9026  0.4028  0.1361
  513MOL0     H67689   4.105   6.769   8.855  0.9508  0.0551  0.8350
  513MOL0     H67690   4.073   6.993   8.752 -1.1852  2.4773 -1.6034
  513MOL0     H67691   3.926   6.899   8.742  0.0237  0.8418 -0.1744
  513MOL0     H67692   4.113   6.947   8.511  0.2797 -0.1251 -1.0041
  513MOL0     H67693   3.952   7.019   8.549  0.7288  0.9609  0.9170
  513MOL0     H67694   4.011   6.734   8.486 -0.9868 -0.0904  3.6852
  513MOL0     H67695   3.850   6.777   8.538 -2.3394  1.5478 -3.3429
  513MOL0     H67696   3.907   6.748   8.278 -1.1847 -0.3260 -0.1795
  513MOL0     H67697   3.983   6.898   8.291  1.0634  0.9027  3.0305
  513MOL0     H67698   4.761   6.802   8.995  1.2596  3.3592 -1.0166
  513MOL0     H67699   4.998   6.740   8.990  0.2657 -2.3581  1.5093
  513MOL0     H67700   5.362   6.341   9.036  0.4756  2.3948  0.8101
  513MOL0     H67701   5.595   6.292   8.990  4.0558  1.7414 -0.9898
  513MOL0     H67702   7.504   6.621   8.827 -0.7263 -0.7585  0.5580
  513MOL0     H67703   7.732   6.548   8.749  0.4529 -2.9496  1.5488
  513MOL0     H67704   7.962   6.216   8.708 -1.8829 -2.7913 -0.9308
  513MOL0     H67705   8.140   6.065   8.723 -1.0748 -1.0580 -1.1419
  513MOL0     H67706   8.292   5.861   8.686  0.2871  0.8407  1.2374
  513MOL0     H67707   8.361   6.026   8.700 -2.0818  0.2310  1.3224
  513MOL0     H67708   8.474   5.785   8.551 -0.3901  0.1350 -0.3510
  513MOL0     H67709   8.534   5.956   8.540 -2.4077  1.7689  0.1634
  513MOL0     H67710   8.656   5.779   8.700  2.0050  0.9907  1.8242
  513MOL0     H67711   8.522   5.815   8.807 -0.5330  0.8170 -0.4478
  513MOL0     H67712   8.709   6.023   8.679  1.3455  0.3686  0.8143
  513MOL0     H67713   8.570   6.068   8.767 -0.7386 -1.6013  0.0192
  513MOL0     H67714   8.836   5.966   9.074  1.3480  3.5935  0.7417
  513MOL0     H67715   8.157   6.039   8.292  3.9591 -5.3173  3.5632
  513MOL0     H67716   7.938   6.171   8.282 -0.2800 -3.3194 -0.6951
  514MOL0     O67717  10.339   1.477   9.175  0.8239 -0.2747 -0.0987
  514MOL0     C67718  10.381   1.573   9.235 -0.0898 -0.0993 -0.1045
  514MOL0     O67719  10.312   1.645   9.332  0.3148 -0.3319  0.5718
  514MOL0     C67720  10.175   1.655   9.336  0.3714 -0.6413 -0.2240
  514MOL0     C67721  10.088   1.681   9.235 -0.1788 -0.0373  0.9052
  514MOL0     C67722   9.949   1.684   9.250 -0.2005 -0.0038 -0.6585
  514MOL0     C67723   9.903   1.680   9.387 -0.0582 -0.4890 -0.5137
  514MOL0     O67724   9.775   1.691   9.423  0.7040 -0.3162 -0.4286
  514MOL0     C67725   9.663   1.645   9.336 -0.7034 -0.2885 -0.9797
  514MOL0     C67726   9.696   1.496   9.297 -0.9926 -0.5650 -0.0340
  514MOL0     C67727   9.564   1.434   9.257  0.9781  0.4323 -1.0218
  514MOL0     C67728   9.562   1.285   9.232 -1.2036 -0.1350  0.5974
  514MOL0     C67729   9.421   1.234   9.203 -0.9780 -0.1642 -0.9329
  514MOL0     C67730   9.435   1.078   9.201 -0.1161 -0.1557 -0.3576
  514MOL0     C67731   9.292   1.027   9.207  0.0147 -0.2309 -0.8247
  514MOL0     C67732   9.253   0.982   9.346  0.1111 -0.3758 -1.1245
  514MOL0     N67733   9.261   1.080   9.459  0.0771 -0.3869 -0.1420
  514MOL0     C67734   9.360   1.121   9.553  0.8963 -0.2455 -0.6014
  514MOL0     C67735   9.306   1.215   9.627 -0.3713  0.2578 -1.7937
  514MOL0     C67736   9.355   1.290   9.745  0.4320  0.2324  0.1092
  514MOL0     C67737   9.324   1.234   9.882  0.6927 -0.8089 -0.3805
  514MOL0     C67738   9.199   1.290   9.954  0.3034  0.4583  0.1789
  514MOL0     C67739   9.200   1.257  10.099  0.3592  0.0180  0.0441
  514MOL0     O67740   9.224   1.114  10.122 -0.9669  0.2285  0.1828
  514MOL0     C67741   9.123   1.027  10.124  0.2702  0.9697 -0.8773
  514MOL0     C67742   9.153   0.904  10.186 -0.6979  0.3460 -0.3101
  514MOL0     C67743   9.043   0.817  10.222 -0.9281 -0.0105 -0.4444
  514MOL0     C67744   8.903   0.851  10.201 -0.0552  0.2625  0.4084
  514MOL0     C67745   8.788   0.767  10.227  0.4648 -0.0053 -0.2076
  514MOL0     O67746   8.669   0.806  10.169 -0.6738 -0.2464  0.6780
  514MOL0     C67747   8.562   0.732  10.207  0.8748 -0.2691  0.3852
  514MOL0     C67748   8.515   0.730  10.338  0.2679 -0.7766 -0.4674
  514MOL0     C67749   8.399   0.662  10.373 -0.4051  0.9449  0.2852
  514MOL0     C67750   8.326   0.585  10.278  0.1091 -0.6035 -0.5877
  514MOL0     O67751   8.210   0.515  10.320 -0.8383  0.0046 -0.1637
  514MOL0     C67752   8.110   0.486  10.230 -0.0612  0.1582  1.0004
  514MOL0     C67753   8.001   0.384  10.273  1.1130  0.1702 -0.7968
  514MOL0     C67754   7.905   0.454  10.372 -0.6426  0.3316 -0.6678
  514MOL0     C67755   7.775   0.377  10.403  0.3702 -0.0909  0.0287
  514MOL0     C67756   7.679   0.470  10.469  0.2209  0.9004 -0.8255
  514MOL0     C67757   7.557   0.386  10.500 -0.6410  0.1600 -0.2958
  514MOL0     C67758   7.446   0.475  10.558 -0.0160 -0.1562 -0.3986
  514MOL0     C67759   7.329   0.402  10.626  0.0262 -0.0493  0.3696
  514MOL0    Cl67760   7.371   0.315  10.784  0.2599 -0.0802  0.7944
  514MOL0     C67761   8.356   0.614  10.144  0.3221  0.0268  0.0044
  514MOL0     C67762   8.474   0.682  10.111  0.0081  0.4442  0.2690
  514MOL0     O67763   8.806   0.666  10.291  0.4841 -0.4877 -0.6076
  514MOL0     C67764   8.880   0.977  10.136  0.5446  0.1093  0.0105
  514MOL0     C67765   8.986   1.064  10.101 -0.6661 -0.3715  0.1208
  514MOL0     N67766   9.173   1.240   9.589 -0.2079 -0.4405  0.5272
  514MOL0     N67767   9.147   1.157   9.484  0.4499 -0.1975 -0.7426
  514MOL0     C67768   9.996   1.664   9.493  0.0339 -0.0896  0.2807
  514MOL0     C67769  10.129   1.661   9.468 -0.0382 -1.1590  0.5538
  514MOL0     C67770  10.511   1.637   9.193 -0.4790  0.1522  0.2860
  514MOL0     C67771  10.547   1.756   9.252  0.2021  0.1174  0.3293
  514MOL0     C67772  10.668   1.820   9.219 -0.3055  0.0288  0.4131
  514MOL0     C67773  10.759   1.758   9.134 -0.2995  0.6726 -0.4578
  514MOL0     O67774  10.875   1.819   9.105 -0.2248 -0.1396  0.3811
  514MOL0     C67775  10.992   1.738   9.076 -0.3671 -0.4685  0.2968
  514MOL0     C67776  11.011   1.746   8.924 -0.0966  0.7554  0.0313
  514MOL0     C67777  11.156   1.683   8.888  1.2485 -0.7291 -0.1800
  514MOL0     C67778  11.192   1.745   8.751 -0.0465 -0.1431  1.1866
  514MOL0     C67779  11.113   1.688   8.636 -0.3888  0.7044  0.7772
  514MOL0     C67780  11.049   1.641   8.543 -0.2287  0.6994  0.2815
  514MOL0     C67781  10.719   1.638   9.076  0.3783 -0.0753 -0.3121
  514MOL0     C67782  10.600   1.570   9.109 -0.5794 -0.7393  0.2921
  514MOL0     H67783  10.124   1.706   9.136  0.1805 -0.2608  0.9764
  514MOL0     H67784   9.883   1.703   9.166 -0.2068  0.0792 -0.6345
  514MOL0     H67785   9.643   1.718   9.256  0.8945  0.4020 -0.8009
  514MOL0     H67786   9.576   1.641   9.403  0.2314  3.6069  0.7642
  514MOL0     H67787   9.737   1.441   9.382 -0.7530  0.0911  0.2770
  514MOL0     H67788   9.766   1.503   9.213  1.2599  0.4772  1.8225
  514MOL0     H67789   9.519   1.479   9.168 -3.9459  0.1348  0.9642
  514MOL0     H67790   9.494   1.444   9.341 -0.0500 -0.8555 -1.6755
  514MOL0     H67791   9.617   1.256   9.142  0.9889  2.1351  1.1313
  514MOL0     H67792   9.605   1.242   9.323  1.6263  0.8020 -0.2034
  514MOL0     H67793   9.387   1.278   9.108  0.6120  2.6485 -0.3259
  514MOL0     H67794   9.360   1.260   9.290  2.7350  0.9637  1.5623
  514MOL0     H67795   9.483   1.029   9.286 -3.2780 -1.5695  0.8028
  514MOL0     H67796   9.485   1.049   9.108  0.6035 -3.1278  0.8167
  514MOL0     H67797   9.215   1.100   9.180  0.7725  0.7515 -0.3753
  514MOL0     H67798   9.280   0.951   9.129  0.1440 -2.2198  1.0161
  514MOL0     H67799   9.316   0.897   9.376  0.3189  0.5392  1.2669
  514MOL0     H67800   9.152   0.943   9.340 -0.0153 -0.0166 -1.3650
  514MOL0     H67801   9.461   1.080   9.560  0.0438 -2.2670  1.1045
  514MOL0     H67802   9.320   1.393   9.738 -0.1787 -0.0548 -2.2651
  514MOL0     H67803   9.464   1.292   9.734  0.2510  1.7958 -2.3428
  514MOL0     H67804   9.406   1.249   9.952  0.0435  0.8987  0.0692
  514MOL0     H67805   9.300   1.129   9.865 -1.6181 -0.2642 -0.8380
  514MOL0     H67806   9.200   1.399   9.943  0.1665  0.6528  1.9274
  514MOL0     H67807   9.114   1.248   9.900 -0.3725 -0.0752  1.6125
  514MOL0     H67808   9.116   1.299  10.155  0.0484 -0.9868  0.3597
  514MOL0     H67809   9.290   1.300  10.145 -1.0874  0.4914  2.5802
  514MOL0     H67810   9.251   0.870  10.218 -1.2123  0.9276  2.0301
  514MOL0     H67811   9.064   0.737  10.292  0.8560  1.0159  0.2580
  514MOL0     H67812   8.562   0.779  10.422  0.1519 -0.0201 -0.8372
  514MOL0     H67813   8.379   0.661  10.480  2.0782 -0.7848  0.8095
  514MOL0     H67814   8.160   0.451  10.140  4.1572  2.3950  2.2101
  514MOL0     H67815   8.063   0.583  10.208  0.9112  0.5896  0.7922
  514MOL0     H67816   8.042   0.297  10.324 -1.5119 -1.4590 -1.2756
  514MOL0     H67817   7.945   0.369  10.180  0.4403 -0.0600 -0.3660
  514MOL0     H67818   7.880   0.546  10.318 -0.7949 -1.6848 -4.2919
  514MOL0     H67819   7.966   0.476  10.460  1.2738  0.1209 -1.8821
  514MOL0     H67820   7.744   0.343  10.303  3.7278 -0.5013 -1.0167
  514MOL0     H67821   7.796   0.288  10.463 -1.0293  0.5022  1.4483
  514MOL0     H67822   7.650   0.551  10.402 -0.5573 -0.9604 -2.8493
  514MOL0     H67823   7.720   0.509  10.563  0.5918 -1.9094  0.2624
  514MOL0     H67824   7.586   0.301  10.564  2.4610  0.7882 -0.7025
  514MOL0     H67825   7.522   0.340  10.407  0.1696 -0.0101 -0.5275
  514MOL0     H67826   7.492   0.534  10.638  1.2142 -0.8705 -0.5521
  514MOL0     H67827   7.407   0.539  10.478  0.9299 -1.4794 -1.9736
  514MOL0     H67828   7.286   0.342  10.545  2.4223  1.1939 -1.9692
  514MOL0     H67829   7.267   0.488  10.654  2.0895  0.9818  2.0054
  514MOL0     H67830   8.289   0.580  10.067 -0.3364  0.2247  0.4850
  514MOL0     H67831   8.488   0.713  10.008 -0.4111  1.7457  0.5718
  514MOL0     H67832   8.776   1.007  10.123  0.3648  0.0888  1.3337
  514MOL0     H67833   8.973   1.160  10.051 -2.0739 -1.7706 -2.3979
  514MOL0     H67834   9.959   1.648   9.593 -0.1918  1.3877  0.4475
  514MOL0     H67835  10.204   1.635   9.542  1.0694  0.3108 -0.0011
  514MOL0     H67836  10.490   1.822   9.316  1.7589  4.9663 -2.6969
  514MOL0     H67837  10.684   1.910   9.277 -3.0480  0.3353  0.8314
  514MOL0     H67838  10.988   1.636   9.116  0.1140 -0.0965  1.3235
  514MOL0     H67839  11.073   1.792   9.125  0.8351 -1.7924 -0.1845
  514MOL0     H67840  10.929   1.698   8.870 -0.3492  3.1359 -1.8652
  514MOL0     H67841  11.011   1.853   8.900 -1.6682  0.7009 -0.3065
  514MOL0     H67842  11.141   1.576   8.872 -2.3052  0.0833 -4.0286
  514MOL0     H67843  11.232   1.707   8.963 -1.3642  2.8942  1.5961
  514MOL0     H67844  11.164   1.850   8.761 -1.4316 -0.2618 -0.7924
  514MOL0     H67845  11.299   1.732   8.734  0.2246  2.9033 -0.3016
  514MOL0     H67846  10.988   1.596   8.467  0.4180  0.3105 -0.0195
  514MOL0     H67847  10.773   1.600   8.990  1.4448 -0.0694  0.3355
  514MOL0     H67848  10.578   1.473   9.065  0.5545 -0.8328 -0.1136
  515MOL0     O67849   6.663   3.419   0.649  0.2551  0.5857  0.4626
  515MOL0     C67850   6.632   3.430   0.528 -1.0219  0.5373  0.1172
  515MOL0     O67851   6.514   3.405   0.468 -0.9489  0.7750 -0.0445
  515MOL0     C67852   6.409   3.356   0.529  0.5490 -0.4538  0.2921
  515MOL0     C67853   6.389   3.330   0.667 -0.8625 -0.5248  0.5327
  515MOL0     C67854   6.265   3.316   0.720  1.5609 -0.7131 -0.4844
  515MOL0     C67855   6.147   3.310   0.637  0.0073 -0.7320  0.0791
  515MOL0     O67856   6.023   3.280   0.674  0.0409  0.7372  0.5699
  515MOL0     C67857   5.999   3.244   0.807 -0.7629  0.4699  0.6913
  515MOL0     C67858   5.855   3.206   0.833  0.0070 -0.2660  0.7654
  515MOL0     C67859   5.752   3.324   0.827  0.2014  0.6904  0.9323
  515MOL0     C67860   5.616   3.255   0.820  0.4685 -0.2227 -0.2224
  515MOL0     C67861   5.501   3.360   0.833  0.8753  0.5035  0.8583
  515MOL0     C67862   5.363   3.293   0.832  0.1871  0.0394 -0.0825
  515MOL0     C67863   5.351   3.202   0.713  0.3488 -0.4990 -0.1050
  515MOL0     C67864   5.204   3.149   0.716 -0.3772  0.7254  0.6647
  515MOL0     N67865   5.182   3.049   0.620 -0.3092  0.1818  0.2848
  515MOL0     C67866   5.184   2.916   0.654 -0.3077  0.4252  0.0311
  515MOL0     C67867   5.115   2.855   0.550  0.0628 -0.0299 -0.2133
  515MOL0     C67868   5.093   2.705   0.524 -0.1071 -0.3599 -0.0880
  515MOL0     C67869   5.183   2.657   0.405  0.0624 -0.8143  0.3151
  515MOL0     C67870   5.152   2.516   0.343 -0.0720 -0.2604 -0.0324
  515MOL0     C67871   5.226   2.524   0.205  0.1758 -0.7700 -0.6075
  515MOL0     O67872   5.369   2.504   0.237 -0.5895 -0.4568  0.1749
  515MOL0     C67873   5.455   2.502   0.125  0.3889 -0.0480 -0.7377
  515MOL0     C67874   5.594   2.491   0.159 -0.1803 -1.0399  0.5117
  515MOL0     C67875   5.692   2.517   0.062  0.2266  0.6077  1.1953
  515MOL0     C67876   5.652   2.546  -0.069  0.5560 -0.5744  0.0883
  515MOL0     C67877   5.758   2.566  -0.176 -0.6057  0.6649 -0.1267
  515MOL0     O67878   5.726   2.581  -0.313 -0.1462 -0.0713 -0.4322
  515MOL0     C67879   5.825   2.594  -0.412  1.0942  0.4340 -0.1169
  515MOL0     C67880   5.780   2.666  -0.521  0.1924  0.2522 -0.0048
  515MOL0     C67881   5.855   2.685  -0.631 -0.2549 -0.3719 -0.4130
  515MOL0     C67882   5.981   2.634  -0.642 -0.8527  0.4904 -0.5894
  515MOL0     O67883   6.058   2.678  -0.744 -0.2229 -0.5227  0.1677
  515MOL0     C67884   6.193   2.647  -0.754 -0.7356 -0.0985 -0.1092
  515MOL0     C67885   6.251   2.709  -0.884  0.0972 -0.9304 -1.0009
  515MOL0     C67886   6.396   2.697  -0.895  0.0173  0.5564  0.0189
  515MOL0     C67887   6.443   2.768  -1.020 -1.2197 -1.1529 -0.1153
  515MOL0     C67888   6.599   2.778  -1.024 -0.3993  1.0008 -0.6788
  515MOL0     C67889   6.655   2.813  -1.159  1.1544  0.0360  0.9901
  515MOL0     C67890   6.701   2.695  -1.253 -0.1212  0.6032  0.7769
  515MOL0     C67891   6.799   2.747  -1.362  0.2435 -0.1188  0.3803
  515MOL0    Cl67892   6.708   2.872  -1.444  0.0819  0.3324 -0.5751
  515MOL0     C67893   6.029   2.559  -0.532 -0.5189 -0.4369 -0.3438
  515MOL0     C67894   5.954   2.543  -0.407  0.2194 -0.3521  0.6515
  515MOL0     O67895   5.868   2.577  -0.132  0.0794 -0.7504  0.4166
  515MOL0     C67896   5.519   2.542  -0.110  0.8782  0.0210 -0.8391
  515MOL0     C67897   5.421   2.515  -0.009  0.6639 -0.0151 -0.2489
  515MOL0     N67898   5.093   2.962   0.455  0.2871  0.8906  0.4730
  515MOL0     N67899   5.143   3.073   0.490  1.2216  0.9004 -0.2717
  515MOL0     C67900   6.169   3.315   0.494 -0.6213  0.7097 -0.4656
  515MOL0     C67901   6.300   3.341   0.448  0.2601  0.4725  0.4173
  515MOL0     C67902   6.737   3.482   0.430 -0.1440 -0.4784 -0.2514
  515MOL0     C67903   6.703   3.500   0.293 -1.0142  0.2356  0.0371
  515MOL0     C67904   6.809   3.544   0.214 -0.5228  0.5151  0.8374
  515MOL0     C67905   6.945   3.561   0.254  0.1698  0.7572 -0.3698
  515MOL0     O67906   7.046   3.591   0.159 -0.6784 -0.6880 -0.1797
  515MOL0     C67907   7.027   3.724   0.100  0.3566 -0.1266 -0.3347
  515MOL0     C67908   7.157   3.810   0.081  0.0485  0.3159  0.7231
  515MOL0     C67909   7.274   3.729   0.026  0.0740 -0.2314  0.6579
  515MOL0     C67910   7.316   3.778  -0.118  0.0601  0.6155 -0.0133
  515MOL0     C67911   7.218   3.766  -0.230 -0.5633  0.8889  0.8473
  515MOL0     C67912   7.134   3.762  -0.325  0.1412 -0.7241 -0.6305
  515MOL0     C67913   6.973   3.528   0.387 -0.2714 -0.2567  0.5491
  515MOL0     C67914   6.868   3.492   0.476  0.3765  0.5100 -0.2570
  515MOL0     H67915   6.471   3.337   0.738  1.1784  1.7589 -1.8298
  515MOL0     H67916   6.263   3.296   0.827  0.5476 -0.3602 -0.4240
  515MOL0     H67917   6.030   3.330   0.866 -0.4596  0.3344  0.7282
  515MOL0     H67918   6.061   3.156   0.824 -0.0500  0.9489  0.5772
  515MOL0     H67919   5.851   3.175   0.938  2.0758 -2.9810  0.1305
  515MOL0     H67920   5.827   3.122   0.770 -0.5313  0.9964 -0.7465
  515MOL0     H67921   5.772   3.388   0.740 -0.3675  2.1038  1.8027
  515MOL0     H67922   5.761   3.387   0.916  0.2094  1.4888  0.3798
  515MOL0     H67923   5.613   3.203   0.724  0.8570 -1.2382  0.2975
  515MOL0     H67924   5.596   3.175   0.892  1.3240 -3.4099 -3.2221
  515MOL0     H67925   5.506   3.432   0.750 -0.0192  0.5923  0.8781
  515MOL0     H67926   5.508   3.418   0.926  2.3000  0.1360  1.0072
  515MOL0     H67927   5.281   3.365   0.832  1.0277  1.2658  3.8120
  515MOL0     H67928   5.368   3.234   0.924  1.8979 -0.6779 -0.5913
  515MOL0     H67929   5.367   3.256   0.619 -0.6053 -1.3523 -0.7821
  515MOL0     H67930   5.417   3.114   0.712  1.6384  0.4379  0.3179
  515MOL0     H67931   5.129   3.227   0.700  1.4699  2.4288 -0.0872
  515MOL0     H67932   5.174   3.119   0.816  0.2110 -0.6504  0.4484
  515MOL0     H67933   5.232   2.871   0.740  0.0327  0.6916 -0.0179
  515MOL0     H67934   4.990   2.679   0.499 -0.1555 -1.2409  0.9330
  515MOL0     H67935   5.122   2.644   0.610  0.0997 -3.5188 -2.2056
  515MOL0     H67936   5.289   2.670   0.429 -0.0111  1.1551 -0.2129
  515MOL0     H67937   5.168   2.737   0.331 -1.6893  1.3926  2.8766
  515MOL0     H67938   5.174   2.425   0.401 -1.4919 -0.5033  0.1473
  515MOL0     H67939   5.044   2.515   0.330  0.1776 -1.0228 -2.4104
  515MOL0     H67940   5.209   2.624   0.163  0.6937 -0.9921 -1.3692
  515MOL0     H67941   5.192   2.453   0.129 -1.8345  0.0168 -0.5061
  515MOL0     H67942   5.614   2.482   0.266  1.2576 -1.4144  0.2225
  515MOL0     H67943   5.797   2.509   0.086  1.0076  0.2781 -1.9245
  515MOL0     H67944   5.676   2.694  -0.535  0.3323  0.9045  0.2618
  515MOL0     H67945   5.811   2.746  -0.710  0.7253  3.4753  1.7821
  515MOL0     H67946   6.205   2.538  -0.757 -0.4400 -0.0555 -2.7601
  515MOL0     H67947   6.256   2.677  -0.670  0.5267  0.3763 -1.1922
  515MOL0     H67948   6.222   2.814  -0.882 -1.8669 -1.4119  1.4683
  515MOL0     H67949   6.204   2.653  -0.965  0.9431 -2.1642 -0.6801
  515MOL0     H67950   6.425   2.593  -0.910  2.6058  1.4034 -1.5532
  515MOL0     H67951   6.445   2.735  -0.804  0.2027 -0.0406  0.1711
  515MOL0     H67952   6.407   2.721  -1.113  1.2705 -1.4027 -1.0236
  515MOL0     H67953   6.405   2.871  -1.022 -2.2107 -1.4656 -2.9913
  515MOL0     H67954   6.639   2.681  -0.994 -1.9549  0.2527 -0.9166
  515MOL0     H67955   6.626   2.854  -0.951  0.2682 -1.0911  1.3839
  515MOL0     H67956   6.750   2.861  -1.135  0.0048  1.0372  3.9574
  515MOL0     H67957   6.587   2.882  -1.210 -1.1798 -1.9312  1.2332
  515MOL0     H67958   6.757   2.619  -1.196  0.8867  1.3258  0.7828
  515MOL0     H67959   6.610   2.646  -1.290  1.7947 -1.3532 -1.7457
  515MOL0     H67960   6.822   2.664  -1.430 -1.8431  0.4659 -1.1758
  515MOL0     H67961   6.889   2.799  -1.330  0.2148  0.3720 -0.3047
  515MOL0     H67962   6.125   2.509  -0.537 -0.5841 -0.5042 -1.1430
  515MOL0     H67963   5.989   2.481  -0.325  0.3446 -1.9733 -0.5877
  515MOL0     H67964   5.489   2.555  -0.214  0.9687  1.7444 -0.6721
  515MOL0     H67965   5.317   2.512  -0.040  0.1794  1.1562  1.1761
  515MOL0     H67966   6.081   3.295   0.434 -0.3285 -5.1442  0.5041
  515MOL0     H67967   6.316   3.342   0.341 -0.9704  1.4813  0.2246
  515MOL0     H67968   6.602   3.481   0.257 -1.2885 -0.6255  1.1887
  515MOL0     H67969   6.789   3.564   0.110 -0.1885  2.9426  1.1687
  515MOL0     H67970   6.956   3.786   0.154  0.2828 -0.7483  0.3063
  515MOL0     H67971   6.976   3.706   0.005  0.4722  1.9484 -0.8195
  515MOL0     H67972   7.140   3.889   0.008  2.5860 -0.3351 -0.6880
  515MOL0     H67973   7.183   3.848   0.180  0.8791 -1.4978  1.2613
  515MOL0     H67974   7.252   3.622   0.023 -2.1656  0.1951 -0.0535
  515MOL0     H67975   7.356   3.744   0.096  0.3520  0.4718  0.1961
  515MOL0     H67976   7.336   3.884  -0.101 -2.2447  1.1534 -0.3533
  515MOL0     H67977   7.408   3.732  -0.157 -0.0494  1.7711 -1.7847
  515MOL0     H67978   7.070   3.759  -0.411 -0.6849 -3.3531 -0.0442
  515MOL0     H67979   7.073   3.542   0.427 -0.2970 -0.4854  0.6918
  515MOL0     H67980   6.885   3.482   0.583 -3.2175 -0.1949  0.3522
  516MOL0     O67981   0.593   6.373  11.234 -0.3680  0.1352 -0.4864
  516MOL0     C67982   0.637   6.436  11.333 -0.7307  0.9233  0.1961
  516MOL0     O67983   0.557   6.501  11.421  0.6530 -0.0024 -0.4564
  516MOL0     C67984   0.416   6.486  11.416 -0.8586 -0.1833 -0.9525
  516MOL0     C67985   0.335   6.401  11.345 -0.3119  0.0578  0.0249
  516MOL0     C67986   0.198   6.390  11.368  0.2374  0.5094 -0.2556
  516MOL0     C67987   0.131   6.466  11.460  0.0964 -0.4191  0.1991
  516MOL0     O67988  -0.002   6.442  11.484 -0.0329  0.4207 -0.1891
  516MOL0     C67989  -0.060   6.487  11.610 -0.2743 -0.2959 -0.3370
  516MOL0     C67990  -0.207   6.454  11.616 -1.0454  0.4997 -0.5822
  516MOL0     C67991  -0.234   6.311  11.650 -0.4067  0.2205  0.2041
  516MOL0     C67992  -0.381   6.279  11.677  0.2872  0.3701  0.0676
  516MOL0     C67993  -0.406   6.132  11.717 -0.5857 -0.0740  1.2213
  516MOL0     C67994  -0.315   6.072  11.834 -1.1985 -0.3383  1.0112
  516MOL0     C67995  -0.339   6.145  11.968  0.5998 -0.3293 -0.2854
  516MOL0     C67996  -0.243   6.252  12.018  0.1523  0.5050 -0.2091
  516MOL0     N67997  -0.306   6.318  12.134  0.3438  0.5544 -0.1163
  516MOL0     C67998  -0.308   6.454  12.149 -0.0272 -0.4823 -0.2928
  516MOL0     C67999  -0.366   6.480  12.266  0.5336 -0.3693  0.1671
  516MOL0     C68000  -0.381   6.615  12.329  0.7345 -0.4761  1.2691
  516MOL0     C68001  -0.465   6.696  12.229 -0.6028  1.1234 -0.4046
  516MOL0     C68002  -0.478   6.839  12.277 -0.3943 -0.7599  0.6160
  516MOL0     C68003  -0.592   6.910  12.218 -1.0737 -0.4356  0.4458
  516MOL0     O68004  -0.693   6.872  12.314  0.1832 -0.5131  0.7845
  516MOL0     C68005  -0.819   6.931  12.304  0.8182 -0.0635 -0.2575
  516MOL0     C68006  -0.926   6.863  12.364 -0.0090 -0.3837  0.2534
  516MOL0     C68007  -1.054   6.918  12.351  1.2750 -1.1126 -0.4129
  516MOL0     C68008  -1.077   7.035  12.274 -0.1953  0.1079 -0.0976
  516MOL0     C68009  -1.219   7.071  12.257 -0.4634 -0.6166  0.6441
  516MOL0     O68010  -1.315   7.009  12.323  0.4193 -0.1638  0.3092
  516MOL0     C68011  -1.440   7.053  12.310  0.8455  0.5298 -0.0328
  516MOL0     C68012  -1.537   6.948  12.316 -0.1201  0.2607 -0.4065
  516MOL0     C68013  -1.674   6.969  12.292 -0.1684 -0.0199  0.5994
  516MOL0     C68014  -1.721   7.099  12.261  0.5011 -0.5759  0.1247
  516MOL0     O68015  -1.853   7.125  12.242  0.2211  0.0021 -0.2836
  516MOL0     C68016  -1.910   7.242  12.305  1.9338  0.0053 -0.1396
  516MOL0     C68017  -2.055   7.210  12.303 -0.5326  0.6683 -1.3472
  516MOL0     C68018  -2.138   7.323  12.353  0.4964  0.2696 -0.3273
  516MOL0     C68019  -2.105   7.388  12.492  0.1749 -0.7151  0.1768
  516MOL0     C68020  -2.210   7.497  12.523  0.3363  0.0402  0.3405
  516MOL0     C68021  -2.341   7.452  12.586  0.4085  0.7164  0.2242
  516MOL0     C68022  -2.436   7.576  12.606  0.5975 -0.1919 -0.3042
  516MOL0     C68023  -2.581   7.553  12.608 -0.2528 -0.5284 -0.0755
  516MOL0    Cl68024  -2.618   7.425  12.723 -0.0650  0.5771  0.3356
  516MOL0     C68025  -1.630   7.207  12.246  0.5250  0.7417 -0.4527
  516MOL0     C68026  -1.488   7.178  12.274 -0.0628 -0.1075 -0.0749
  516MOL0     O68027  -1.233   7.160  12.171 -0.1789  0.0954 -0.1002
  516MOL0     C68028  -0.965   7.098  12.219  1.1864  0.2403  0.3758
  516MOL0     C68029  -0.839   7.052  12.227  0.4873 -0.6939 -0.3139
  516MOL0     N68030  -0.410   6.364  12.321 -0.1314 -0.3852  0.2183
  516MOL0     N68031  -0.377   6.269  12.239  0.4358  0.0582  0.2638
  516MOL0     C68032   0.217   6.556  11.538 -0.2781  0.1107  0.5975
  516MOL0     C68033   0.349   6.567  11.512  0.3502 -0.3378  0.5421
  516MOL0     C68034   0.783   6.442  11.349 -0.5354 -0.9608  0.2742
  516MOL0     C68035   0.867   6.412  11.236  0.1729 -0.3029  0.5976
  516MOL0     C68036   1.005   6.432  11.241  0.4394 -0.3912  0.1935
  516MOL0     C68037   1.065   6.496  11.353  0.3346 -0.4384  0.5066
  516MOL0     O68038   1.201   6.519  11.364 -0.1268 -0.1299 -0.3580
  516MOL0     C68039   1.271   6.532  11.240 -0.7089 -0.3071  0.3400
  516MOL0     C68040   1.398   6.617  11.276 -0.0934 -0.6754  0.1659
  516MOL0     C68041   1.473   6.668  11.155 -0.6130 -0.9196  0.8969
  516MOL0     C68042   1.613   6.689  11.207 -0.3790 -0.4769 -0.0307
  516MOL0     C68043   1.688   6.766  11.113  0.0112 -0.5862  0.6796
  516MOL0     C68044   1.751   6.850  11.047 -0.6874  0.5610  0.0473
  516MOL0     C68045   0.982   6.530  11.456 -0.9022  0.8753  0.0217
  516MOL0     C68046   0.848   6.494  11.461  0.3352  0.0953  0.6140
  516MOL0     H68047   0.363   6.343  11.257  1.4252 -1.0063  1.2117
  516MOL0     H68048   0.142   6.315  11.314  0.4550  0.8921 -1.0194
  516MOL0     H68049  -0.059   6.596  11.616 -2.3437 -0.3031  1.0447
  516MOL0     H68050  -0.010   6.442  11.697 -1.4404  1.6819  1.4422
  516MOL0     H68051  -0.259   6.485  11.525 -2.9908 -0.6586  0.0773
  516MOL0     H68052  -0.250   6.525  11.687  1.1610  0.5128  0.8546
  516MOL0     H68053  -0.173   6.276  11.733  2.6502 -0.8430 -2.3134
  516MOL0     H68054  -0.197   6.256  11.563 -0.9060 -1.2360  0.8777
  516MOL0     H68055  -0.418   6.349  11.752  1.9227  3.8258 -2.0906
  516MOL0     H68056  -0.434   6.295  11.582 -0.1076  0.4797  0.3002
  516MOL0     H68057  -0.395   6.065  11.631 -1.1372  2.8904 -1.3567
  516MOL0     H68058  -0.508   6.139  11.756 -0.3774  2.4019  1.4920
  516MOL0     H68059  -0.208   6.083  11.813 -1.7538  0.7571 -1.6208
  516MOL0     H68060  -0.325   5.964  11.843  0.8672 -0.4821  2.2324
  516MOL0     H68061  -0.438   6.191  11.967  0.2134 -0.9347  2.6258
  516MOL0     H68062  -0.328   6.065  12.041  2.3316 -0.9785 -1.1926
  516MOL0     H68063  -0.241   6.329  11.940 -0.8360  1.6337  0.8348
  516MOL0     H68064  -0.145   6.208  12.040  0.3354  1.3719  0.8120
  516MOL0     H68065  -0.263   6.529  12.085  1.3131  0.2734  1.4279
  516MOL0     H68066  -0.287   6.668  12.340 -0.8883  3.9317 -2.5304
  516MOL0     H68067  -0.435   6.600  12.423 -0.8055 -1.7116  0.2638
  516MOL0     H68068  -0.561   6.644  12.228 -0.9930  1.4923  3.4718
  516MOL0     H68069  -0.417   6.679  12.132 -0.5252 -0.2792 -0.1542
  516MOL0     H68070  -0.470   6.843  12.386  0.7063  2.6723  0.5150
  516MOL0     H68071  -0.391   6.901  12.252 -0.8311 -0.2652  0.2842
  516MOL0     H68072  -0.612   6.878  12.115 -2.8132 -1.0847  0.9561
  516MOL0     H68073  -0.569   7.017  12.217  1.6782 -0.8897  2.6221
  516MOL0     H68074  -0.919   6.778  12.430 -1.9209  0.0648  1.1000
  516MOL0     H68075  -1.134   6.866  12.403  1.3268  0.4570  1.3253
  516MOL0     H68076  -1.496   6.851  12.341 -1.2607  0.0078  0.6068
  516MOL0     H68077  -1.751   6.895  12.310  0.0777 -0.1770  1.0330
  516MOL0     H68078  -1.888   7.331  12.246 -3.6538  2.1529  0.3866
  516MOL0     H68079  -1.872   7.259  12.407  2.9051  1.2642 -0.6821
  516MOL0     H68080  -2.076   7.118  12.358 -0.3334  0.0424 -2.3033
  516MOL0     H68081  -2.095   7.196  12.202 -0.8458 -2.8315 -0.8722
  516MOL0     H68082  -2.243   7.295  12.363  0.1154  2.0397  1.3149
  516MOL0     H68083  -2.141   7.400  12.275 -2.8163 -2.4542 -3.2158
  516MOL0     H68084  -2.113   7.313  12.571  0.1084  0.1015  0.9689
  516MOL0     H68085  -2.003   7.427  12.500 -0.6443  1.3624  1.3652
  516MOL0     H68086  -2.225   7.542  12.424  0.3320 -0.2819  0.1946
  516MOL0     H68087  -2.172   7.573  12.591  0.2248  0.0207  0.4254
  516MOL0     H68088  -2.326   7.389  12.674  2.2932 -0.6315 -0.9988
  516MOL0     H68089  -2.393   7.383  12.519  1.4265 -2.4628  2.4862
  516MOL0     H68090  -2.401   7.614  12.702  1.9305 -2.3829  0.1299
  516MOL0     H68091  -2.407   7.647  12.528 -1.6032 -1.0927 -2.0694
  516MOL0     H68092  -2.616   7.517  12.511 -0.1430 -1.2894  0.1606
  516MOL0     H68093  -2.634   7.645  12.634  2.6234  1.1746  0.1633
  516MOL0     H68094  -1.668   7.307  12.225 -1.3643 -0.0161 -0.8127
  516MOL0     H68095  -1.415   7.257  12.262  1.2071 -1.4927 -2.0594
  516MOL0     H68096  -0.992   7.191  12.169 -1.2807  0.2618  1.5721
  516MOL0     H68097  -0.757   7.094  12.171  1.6974 -1.7445  0.6033
  516MOL0     H68098   0.176   6.611  11.622 -1.5997 -0.7562  0.5601
  516MOL0     H68099   0.415   6.628  11.572  2.5217  0.3812 -2.3472
  516MOL0     H68100   0.823   6.373  11.145 -1.2034  1.5656  0.3983
  516MOL0     H68101   1.064   6.398  11.157  1.1298 -1.0590  0.9294
  516MOL0     H68102   1.206   6.595  11.180 -2.1686 -0.4000  1.7594
  516MOL0     H68103   1.296   6.437  11.192  0.5900  0.4465 -0.5335
  516MOL0     H68104   1.355   6.692  11.344  0.3835  0.0552 -0.3261
  516MOL0     H68105   1.464   6.557  11.340 -2.3444 -1.8291  1.5328
  516MOL0     H68106   1.435   6.759  11.108  3.7087  1.2079  1.0826
  516MOL0     H68107   1.482   6.598  11.072  2.2060  0.6381 -0.2465
  516MOL0     H68108   1.614   6.745  11.301 -0.8280  1.3210 -1.0481
  516MOL0     H68109   1.663   6.594  11.229 -0.5577 -0.5444  0.0856
  516MOL0     H68110   1.807   6.932  11.007  1.2692 -1.2859 -1.1624
  516MOL0     H68111   1.024   6.593  11.534  0.9621 -0.4880  0.1926
  516MOL0     H68112   0.780   6.525  11.539 -0.7102  0.6148 -0.4659
  517MOL0     O68113   0.617   6.163   3.186 -0.6536  0.1522 -0.5514
  517MOL0     C68114   0.680   6.157   3.080 -0.0921  0.4794  1.4478
  517MOL0     O68115   0.618   6.156   2.949  0.4799 -0.0598  1.3303
  517MOL0     C68116   0.477   6.156   2.949  0.2866  0.0521 -0.2696
  517MOL0     C68117   0.412   6.246   2.860 -0.5566  0.3688  0.7894
  517MOL0     C68118   0.277   6.243   2.844 -0.1375  0.5891  0.3397
  517MOL0     C68119   0.203   6.149   2.916 -0.0720  0.8461 -0.2710
  517MOL0     O68120   0.062   6.153   2.884  0.1685  0.8679 -0.3089
  517MOL0     C68121  -0.013   6.031   2.916  0.3739 -0.4806  0.4776
  517MOL0     C68122  -0.141   6.023   2.841  0.1286  0.5443  0.5920
  517MOL0     C68123  -0.269   6.099   2.890 -0.3342  0.6548  0.2763
  517MOL0     C68124  -0.402   6.039   2.842  0.5914  0.1167 -0.8149
  517MOL0     C68125  -0.519   6.131   2.897 -0.5900  0.4562  0.2670
  517MOL0     C68126  -0.549   6.258   2.817  0.4806  0.4018  0.1477
  517MOL0     C68127  -0.656   6.333   2.894  0.2161  0.6942 -0.0114
  517MOL0     C68128  -0.799   6.271   2.879  0.0873 -0.4572  0.4189
  517MOL0     N68129  -0.909   6.360   2.918 -0.5382 -0.1156  0.1397
  517MOL0     C68130  -0.907   6.456   3.022 -0.6613  0.5590  0.0190
  517MOL0     C68131  -1.039   6.490   3.022 -0.0607 -0.3887  1.1029
  517MOL0     C68132  -1.100   6.591   3.108  0.4866 -1.1834  1.2900
  517MOL0     C68133  -1.110   6.540   3.252  0.2873  0.3479 -0.3831
  517MOL0     C68134  -1.118   6.665   3.340 -0.2662 -0.1459 -0.7991
  517MOL0     C68135  -1.115   6.629   3.493  0.0552  0.6510  0.4928
  517MOL0     O68136  -1.249   6.577   3.540  0.4763 -0.4942 -0.8498
  517MOL0     C68137  -1.350   6.663   3.555 -0.0075 -0.6876  0.0747
  517MOL0     C68138  -1.342   6.802   3.551  0.0530  0.1089  1.2993
  517MOL0     C68139  -1.457   6.881   3.577  0.0123  0.8772 -0.1007
  517MOL0     C68140  -1.584   6.827   3.605 -0.1334  0.6747 -0.3033
  517MOL0     C68141  -1.693   6.910   3.650 -0.1178  0.9107 -0.1770
  517MOL0     O68142  -1.684   7.049   3.637 -0.3460  0.5634 -0.0711
  517MOL0     C68143  -1.796   7.124   3.658  0.0002  0.0615 -0.7699
  517MOL0     C68144  -1.857   7.136   3.784 -0.3847 -0.6081  0.3939
  517MOL0     C68145  -1.963   7.228   3.803  0.2227  0.4405 -0.8889
  517MOL0     C68146  -2.016   7.302   3.703 -0.4007 -0.6802  0.2514
  517MOL0     O68147  -2.121   7.397   3.726  0.4348  0.2106 -0.4318
  517MOL0     C68148  -2.244   7.345   3.780  0.0143  0.4655 -0.3172
  517MOL0     C68149  -2.279   7.424   3.904 -0.2427  0.4309  0.3969
  517MOL0     C68150  -2.417   7.378   3.964 -0.1869 -0.2266 -0.3613
  517MOL0     C68151  -2.449   7.424   4.114 -0.0229 -0.7086 -0.1807
  517MOL0     C68152  -2.595   7.415   4.151  0.4798  0.0363  0.4269
  517MOL0     C68153  -2.629   7.467   4.284  0.0216 -0.0220  0.7397
  517MOL0     C68154  -2.772   7.453   4.327  0.5158 -0.4801  0.9824
  517MOL0     C68155  -2.792   7.501   4.472 -0.1120  0.8017  0.5537
  517MOL0    Cl68156  -2.965   7.547   4.495 -0.2035 -0.2780  0.2302
  517MOL0     C68157  -1.954   7.298   3.576 -1.0183 -0.4183  1.0324
  517MOL0     C68158  -1.849   7.196   3.553 -0.1691 -0.0918 -0.1875
  517MOL0     O68159  -1.792   6.845   3.685  0.5375 -0.0162 -0.2330
  517MOL0     C68160  -1.592   6.684   3.607 -0.5165 -0.0791  0.1392
  517MOL0     C68161  -1.475   6.607   3.586  0.3474 -0.5777 -0.7755
  517MOL0     N68162  -1.116   6.429   2.930 -0.0016  0.3270  0.1331
  517MOL0     N68163  -1.032   6.344   2.859 -0.4637 -0.2270  0.4033
  517MOL0     C68164   0.266   6.062   3.000  0.0994  0.0052 -0.8729
  517MOL0     C68165   0.405   6.052   3.014 -0.2839  0.0200 -0.7902
  517MOL0     C68166   0.822   6.147   3.092 -0.2018  0.2249 -0.9258
  517MOL0     C68167   0.904   6.127   2.980  1.3940  0.0098 -0.7076
  517MOL0     C68168   1.039   6.116   2.995 -0.4289  0.8743 -0.2102
  517MOL0     C68169   1.104   6.128   3.119 -0.5737  0.2168 -0.0635
  517MOL0     O68170   1.243   6.100   3.108 -0.3011 -0.0379 -0.3731
  517MOL0     C68171   1.336   6.127   3.213 -0.9749 -0.0085  0.1868
  517MOL0     C68172   1.297   6.030   3.326  0.2230  0.1373 -0.4515
  517MOL0     C68173   1.393   6.061   3.440  0.5812  0.3556 -0.5723
  517MOL0     C68174   1.543   6.029   3.424  0.1376  1.0031  0.8238
  517MOL0     C68175   1.627   6.081   3.532  0.3031  0.3625 -0.2019
  517MOL0     C68176   1.692   6.121   3.621  0.1327  0.2969 -0.0564
  517MOL0     C68177   1.027   6.167   3.224  0.2835 -0.2641  0.2596
  517MOL0     C68178   0.887   6.175   3.213  0.8482  0.1485 -0.8617
  517MOL0     H68179   0.471   6.319   2.806  1.3655 -1.4894  0.2296
  517MOL0     H68180   0.215   6.303   2.778  0.5825  1.9368  0.8713
  517MOL0     H68181  -0.041   6.041   3.021 -0.8509  0.0088  0.1181
  517MOL0     H68182   0.054   5.946   2.899 -0.2101 -0.7446 -0.5845
  517MOL0     H68183  -0.173   5.918   2.843 -1.7208  1.0266 -0.9413
  517MOL0     H68184  -0.115   6.047   2.737 -0.9217 -1.5512 -0.2154
  517MOL0     H68185  -0.263   6.206   2.871 -2.1021  0.5301 -1.1676
  517MOL0     H68186  -0.279   6.098   2.999 -3.3897  2.3915  0.1096
  517MOL0     H68187  -0.402   6.042   2.733 -1.7665 -0.8588 -0.9028
  517MOL0     H68188  -0.410   5.936   2.877 -1.0183  0.1860 -0.8941
  517MOL0     H68189  -0.489   6.155   2.999 -1.6531 -0.5598  0.8488
  517MOL0     H68190  -0.610   6.076   2.921 -0.1442 -0.5475 -0.2530
  517MOL0     H68191  -0.586   6.245   2.714 -4.6852  2.0041  1.4823
  517MOL0     H68192  -0.456   6.314   2.813  0.0270  1.2357  0.9119
  517MOL0     H68193  -0.633   6.337   3.001  0.7745  2.4408 -0.1714
  517MOL0     H68194  -0.656   6.434   2.853  0.7195 -0.2032 -2.3982
  517MOL0     H68195  -0.802   6.183   2.943 -1.6613  0.3885  1.5842
  517MOL0     H68196  -0.807   6.239   2.774  1.1791 -0.5143  0.3401
  517MOL0     H68197  -0.834   6.499   3.091 -1.2138  2.7576 -0.6730
  517MOL0     H68198  -1.191   6.638   3.068  1.7198  0.1513 -0.0830
  517MOL0     H68199  -1.028   6.673   3.102 -0.9190  0.0807  0.7299
  517MOL0     H68200  -1.028   6.479   3.290 -0.9899  0.0408  2.0076
  517MOL0     H68201  -1.205   6.486   3.262  0.5055 -0.0464 -0.4246
  517MOL0     H68202  -1.034   6.731   3.317  1.1708 -1.4730  0.3797
  517MOL0     H68203  -1.215   6.711   3.321 -1.8246 -2.4596  1.0260
  517MOL0     H68204  -1.093   6.723   3.545 -1.2901  1.6446 -0.6709
  517MOL0     H68205  -1.042   6.550   3.512 -2.1572 -1.3106  1.3012
  517MOL0     H68206  -1.247   6.853   3.542 -1.0569  2.1705  0.7680
  517MOL0     H68207  -1.451   6.990   3.574 -0.7840  0.9347  0.3497
  517MOL0     H68208  -1.821   7.084   3.873  0.9648  0.5633  0.5820
  517MOL0     H68209  -2.007   7.232   3.902 -0.1928  0.2240 -1.0628
  517MOL0     H68210  -2.232   7.239   3.807  0.0542  0.2573 -1.1230
  517MOL0     H68211  -2.320   7.345   3.702  0.5105 -1.3456 -0.8653
  517MOL0     H68212  -2.272   7.531   3.883  1.2625  0.3983  0.5582
  517MOL0     H68213  -2.204   7.405   3.982 -0.1594 -4.3743 -0.5111
  517MOL0     H68214  -2.425   7.269   3.961 -1.1392 -0.1464 -1.1376
  517MOL0     H68215  -2.498   7.417   3.902 -1.9358  0.2465  2.0637
  517MOL0     H68216  -2.393   7.365   4.188  0.2824  1.4499  1.4172
  517MOL0     H68217  -2.419   7.528   4.129 -1.1041 -0.5392  1.0171
  517MOL0     H68218  -2.618   7.308   4.149  2.3081 -0.3745 -0.3247
  517MOL0     H68219  -2.647   7.469   4.071 -1.2937 -0.1940  1.3629
  517MOL0     H68220  -2.593   7.568   4.306  4.1159 -2.1528  6.3774
  517MOL0     H68221  -2.565   7.407   4.349  1.3028  2.3382  1.8116
  517MOL0     H68222  -2.828   7.526   4.268  0.5086 -0.8063  0.5793
  517MOL0     H68223  -2.821   7.357   4.308  0.8899 -0.2097 -1.8154
  517MOL0     H68224  -2.731   7.588   4.496 -1.6181  1.2336  3.1740
  517MOL0     H68225  -2.761   7.414   4.531  0.7254 -0.9913 -2.2804
  517MOL0     H68226  -2.002   7.358   3.499  1.7633 -0.0636 -0.5567
  517MOL0     H68227  -1.800   7.167   3.460  0.4237 -0.4607  0.2394
  517MOL0     H68228  -1.684   6.634   3.635 -1.0785  0.7932 -0.0950
  517MOL0     H68229  -1.490   6.501   3.604  0.9443 -0.6120 -0.4178
  517MOL0     H68230   0.202   5.993   3.054  1.7533 -0.9371 -0.0186
  517MOL0     H68231   0.461   5.976   3.068 -0.3418  1.2931  1.1560
  517MOL0     H68232   0.862   6.122   2.880  0.0604 -1.3480 -0.1227
  517MOL0     H68233   1.105   6.094   2.912 -0.3117 -0.5571  0.2260
  517MOL0     H68234   1.335   6.232   3.246  0.9655 -0.6534  2.6022
  517MOL0     H68235   1.438   6.113   3.177 -0.2849 -1.4243  2.4716
  517MOL0     H68236   1.191   6.012   3.351  0.2663 -3.0225 -2.0087
  517MOL0     H68237   1.332   5.934   3.286  1.0086  0.4117 -0.4320
  517MOL0     H68238   1.367   6.000   3.527  2.1333 -0.2145 -0.4810
  517MOL0     H68239   1.389   6.166   3.469 -2.6466  0.7809 -2.1878
  517MOL0     H68240   1.553   5.920   3.430 -2.9367  0.6757  1.4817
  517MOL0     H68241   1.572   6.065   3.325 -2.8316 -0.2817 -0.6614
  517MOL0     H68242   1.753   6.168   3.694 -1.1757 -0.3888  1.5414
  517MOL0     H68243   1.064   6.195   3.322  2.6923  0.0460 -0.6846
  517MOL0     H68244   0.829   6.198   3.302  2.5784  0.8965  0.1131
  518MOL0     O68245  10.940   5.137   1.997 -0.0965  0.5518  0.3475
  518MOL0     C68246  10.978   5.250   1.967  0.9978  0.0883  0.3640
  518MOL0     O68247  10.907   5.363   1.981  0.1637 -0.7943 -0.3297
  518MOL0     C68248  10.788   5.359   2.056 -0.4636 -0.7572 -0.0810
  518MOL0     C68249  10.674   5.361   1.975  0.2064 -0.0556 -0.8077
  518MOL0     C68250  10.556   5.362   2.041 -0.0242  0.0238  0.6434
  518MOL0     C68251  10.540   5.371   2.172  0.5528  1.0720  0.3649
  518MOL0     O68252  10.411   5.392   2.217  0.2373 -0.2790 -0.6903
  518MOL0     C68253  10.368   5.358   2.346 -0.1664 -0.0556  0.5120
  518MOL0     C68254  10.315   5.489   2.410  0.0714 -0.4034  0.0584
  518MOL0     C68255  10.227   5.453   2.523  0.8042  0.5143 -0.5153
  518MOL0     C68256  10.123   5.558   2.566 -0.9089 -0.6039  0.2549
  518MOL0     C68257  10.036   5.521   2.688  0.0447 -0.0569 -0.4322
  518MOL0     C68258  10.119   5.486   2.817 -0.2219  0.2130 -0.3814
  518MOL0     C68259  10.036   5.520   2.945 -0.3064  1.9713  0.0857
  518MOL0     C68260   9.895   5.466   2.931  0.7366  0.0012  0.5577
  518MOL0     N68261   9.833   5.437   3.065 -0.0946 -1.0556 -0.1415
  518MOL0     C68262   9.801   5.539   3.154 -0.6431 -0.0241  0.2873
  518MOL0     C68263   9.742   5.490   3.261 -0.0314  1.3246  0.4333
  518MOL0     C68264   9.693   5.565   3.385  0.7960 -0.2582  0.9381
  518MOL0     C68265   9.547   5.520   3.408 -0.0450  0.4689 -1.2381
  518MOL0     C68266   9.464   5.568   3.527  0.0103  0.5384 -0.1555
  518MOL0     C68267   9.420   5.708   3.503 -0.1420 -0.0358  0.0089
  518MOL0     O68268   9.338   5.741   3.613 -0.3829  1.1590 -0.6557
  518MOL0     C68269   9.204   5.721   3.602 -0.6707 -0.5686  0.3533
  518MOL0     C68270   9.132   5.818   3.531 -0.3908  1.0289 -0.1096
  518MOL0     C68271   8.999   5.817   3.525 -0.1407  0.2327  0.8523
  518MOL0     C68272   8.926   5.716   3.598 -0.4213  0.0038 -0.3156
  518MOL0     C68273   8.776   5.711   3.596  0.5604  0.0686  0.5565
  518MOL0     O68274   8.721   5.751   3.472  0.8833 -0.0693 -0.4117
  518MOL0     C68275   8.593   5.702   3.452 -0.4811  0.3446 -0.6648
  518MOL0     C68276   8.551   5.567   3.436 -0.6843  0.1836 -1.0720
  518MOL0     C68277   8.422   5.523   3.404  0.3004  0.1297 -0.1786
  518MOL0     C68278   8.334   5.630   3.369  0.0980  0.1509  0.6002
  518MOL0     O68279   8.202   5.620   3.333  0.2268 -0.0596  0.4021
  518MOL0     C68280   8.162   5.486   3.299 -0.9229 -0.7245  0.2202
  518MOL0     C68281   8.017   5.479   3.243  0.7836  0.4811  0.3176
  518MOL0     C68282   7.975   5.342   3.176 -0.5542  0.5252 -0.6162
  518MOL0     C68283   7.827   5.334   3.128  0.1594 -0.3059 -0.3529
  518MOL0     C68284   7.795   5.229   3.018  0.3442  0.2790 -0.7214
  518MOL0     C68285   7.650   5.196   3.004 -0.1666  0.4453 -0.3265
  518MOL0     C68286   7.632   5.067   2.923  0.7851 -0.9690  0.2153
  518MOL0     C68287   7.491   5.003   2.924  0.3167 -0.4317  0.7472
  518MOL0    Cl68288   7.368   5.112   2.850  0.0913 -0.1158 -0.4634
  518MOL0     C68289   8.375   5.764   3.368  0.8954 -0.2979 -0.0045
  518MOL0     C68290   8.500   5.798   3.419  0.2075  0.1031 -0.4767
  518MOL0     O68291   8.711   5.669   3.691 -0.1232  0.4058  0.4755
  518MOL0     C68292   8.994   5.627   3.674 -0.6387  0.5147  0.8544
  518MOL0     C68293   9.129   5.628   3.669 -0.5248  0.5766  0.6942
  518MOL0     N68294   9.740   5.352   3.244 -0.1364  0.8862  0.0670
  518MOL0     N68295   9.805   5.325   3.131 -0.4196  1.1607 -0.1935
  518MOL0     C68296  10.657   5.373   2.254  1.0030 -0.6082  0.0078
  518MOL0     C68297  10.779   5.375   2.189  0.5091  0.0299 -0.3111
  518MOL0     C68298  11.106   5.250   1.888 -0.3873 -0.7568  0.1962
  518MOL0     C68299  11.205   5.352   1.911  0.6139 -0.3497  0.1063
  518MOL0     C68300  11.319   5.357   1.831 -0.0739  0.5292  1.0065
  518MOL0     C68301  11.346   5.270   1.725  0.6549 -0.1693 -0.1049
  518MOL0     O68302  11.461   5.270   1.643 -0.0536 -0.1795 -0.6015
  518MOL0     C68303  11.539   5.391   1.644  0.0459 -0.9640  0.0449
  518MOL0     C68304  11.646   5.405   1.744 -0.2657 -0.1504 -0.0329
  518MOL0     C68305  11.749   5.303   1.706 -0.2764 -0.3260  0.5364
  518MOL0     C68306  11.876   5.297   1.787 -0.1943 -0.5934 -0.6131
  518MOL0     C68307  11.939   5.431   1.796  0.7744  0.8881 -0.5230
  518MOL0     C68308  11.972   5.545   1.805 -0.4834  0.1853  0.0330
  518MOL0     C68309  11.256   5.167   1.704 -0.0688 -0.0541  0.3491
  518MOL0     C68310  11.142   5.156   1.786  0.6902  0.0532  1.2479
  518MOL0     H68311  10.696   5.352   1.869 -0.8624  0.4974 -1.0880
  518MOL0     H68312  10.471   5.362   1.973 -0.4125 -0.1966  1.1262
  518MOL0     H68313  10.446   5.308   2.404  0.3491 -0.9767 -0.9450
  518MOL0     H68314  10.282   5.293   2.328 -0.3831  0.8487 -2.0789
  518MOL0     H68315  10.251   5.551   2.347  0.9241 -1.0998 -1.5617
  518MOL0     H68316  10.408   5.543   2.430 -0.3218  0.7264 -0.9939
  518MOL0     H68317  10.281   5.419   2.612  0.7891 -2.9578 -1.6845
  518MOL0     H68318  10.164   5.366   2.503  1.0530 -0.0788  1.1353
  518MOL0     H68319  10.188   5.643   2.588 -0.8000  0.1953 -2.7252
  518MOL0     H68320  10.056   5.585   2.484 -0.9647 -1.3062  0.0660
  518MOL0     H68321   9.970   5.438   2.660  0.2398 -0.7029  0.9520
  518MOL0     H68322   9.969   5.606   2.706  2.0566  1.7940 -1.1891
  518MOL0     H68323  10.214   5.541   2.825 -0.1104 -0.0986  0.5282
  518MOL0     H68324  10.151   5.381   2.816 -0.4381  0.1452 -0.1980
  518MOL0     H68325  10.078   5.481   3.038 -2.3818  0.1358  0.3278
  518MOL0     H68326  10.025   5.629   2.950 -0.4460  1.9797 -0.3901
  518MOL0     H68327   9.897   5.371   2.876 -0.0273  0.0671  0.3997
  518MOL0     H68328   9.821   5.529   2.879  2.7073  1.1519 -1.0003
  518MOL0     H68329   9.811   5.646   3.139  2.4080 -0.1008  1.1095
  518MOL0     H68330   9.701   5.672   3.364 -0.5684 -0.7181 -2.7598
  518MOL0     H68331   9.747   5.525   3.471  1.7606  3.6919  2.3810
  518MOL0     H68332   9.548   5.411   3.416  3.2707  0.2519 -3.1562
  518MOL0     H68333   9.485   5.543   3.320 -2.9348  2.4859  1.1079
  518MOL0     H68334   9.376   5.503   3.536 -1.0980  2.2089  2.2509
  518MOL0     H68335   9.513   5.553   3.624 -0.9607 -0.5303  0.1974
  518MOL0     H68336   9.369   5.731   3.409  1.0519  2.9073 -0.0390
  518MOL0     H68337   9.519   5.754   3.502 -0.7529  1.4125 -2.4506
  518MOL0     H68338   9.183   5.896   3.475 -0.1023  1.0450  0.1744
  518MOL0     H68339   8.946   5.890   3.464  0.2881  0.2551  0.5004
  518MOL0     H68340   8.631   5.500   3.465 -0.4281  1.2751  0.9245
  518MOL0     H68341   8.380   5.424   3.421 -0.4498  0.4467 -0.1643
  518MOL0     H68342   8.169   5.409   3.376  4.1328 -1.8009 -0.9465
  518MOL0     H68343   8.227   5.439   3.225  1.9281  0.9685  1.5090
  518MOL0     H68344   8.004   5.560   3.171  0.9631  0.3362  0.1234
  518MOL0     H68345   7.942   5.503   3.320 -2.3449 -2.6234 -1.4738
  518MOL0     H68346   7.991   5.263   3.250  1.8914  1.6628  0.1524
  518MOL0     H68347   8.045   5.341   3.092 -1.0235  2.8627 -1.1130
  518MOL0     H68348   7.769   5.315   3.218 -0.2744  1.4806 -0.2307
  518MOL0     H68349   7.796   5.430   3.086  4.3118  0.6368 -1.7255
  518MOL0     H68350   7.840   5.136   3.056 -1.4103 -0.2885  0.0560
  518MOL0     H68351   7.846   5.262   2.927  0.2294 -0.6248 -1.1258
  518MOL0     H68352   7.598   5.282   2.960 -2.3949  0.7175  2.4998
  518MOL0     H68353   7.613   5.177   3.106  1.9286  1.6028  0.7199
  518MOL0     H68354   7.662   5.086   2.820  1.0618 -2.3020  0.0419
  518MOL0     H68355   7.699   4.987   2.954  2.3630  0.4465  0.6183
  518MOL0     H68356   7.466   4.983   3.029  1.8183 -3.8569  0.5977
  518MOL0     H68357   7.492   4.905   2.875  4.7672 -0.3412  0.3146
  518MOL0     H68358   8.308   5.844   3.340  2.7016  1.8923  1.5746
  518MOL0     H68359   8.532   5.900   3.440  1.4928 -0.7552  2.1060
  518MOL0     H68360   8.932   5.566   3.740 -2.4193 -0.3558 -1.4955
  518MOL0     H68361   9.174   5.544   3.720 -0.5407  1.0685  1.5281
  518MOL0     H68362  10.647   5.403   2.358 -1.2494  0.2682 -0.4074
  518MOL0     H68363  10.862   5.394   2.256 -1.4778 -2.6441  3.3149
  518MOL0     H68364  11.179   5.423   1.989 -3.0803 -0.8617 -0.4976
  518MOL0     H68365  11.404   5.424   1.846  0.2674  0.7250 -1.3225
  518MOL0     H68366  11.483   5.484   1.639 -0.4946 -1.3126 -0.4474
  518MOL0     H68367  11.580   5.397   1.543  1.3889  0.8971  0.6357
  518MOL0     H68368  11.692   5.505   1.744 -1.6673  0.5984  3.0743
  518MOL0     H68369  11.603   5.387   1.843 -0.6459 -0.0311 -0.1731
  518MOL0     H68370  11.798   5.330   1.611  1.8877 -1.6414  1.1900
  518MOL0     H68371  11.705   5.204   1.692  0.7152 -1.2067  3.0614
  518MOL0     H68372  11.850   5.264   1.888  2.7955  0.7496  0.6874
  518MOL0     H68373  11.945   5.217   1.758  1.6288  0.9384 -0.6599
  518MOL0     H68374  12.031   5.633   1.820 -2.4517  2.0510 -2.3421
  518MOL0     H68375  11.270   5.100   1.620 -1.1249 -0.0813  0.1723
  518MOL0     H68376  11.079   5.070   1.771 -0.0195  0.0081  3.9406
  519MOL0     O68377   2.779   7.948   1.378  0.8600 -0.1816 -0.3657
  519MOL0     C68378   2.825   7.855   1.447 -0.4332  0.0416  0.0840
  519MOL0     O68379   2.788   7.832   1.570  0.3899  0.0309 -0.9022
  519MOL0     C68380   2.694   7.914   1.627  0.5094 -0.0411  0.1750
  519MOL0     C68381   2.702   8.049   1.640 -0.0405 -0.2055  0.1522
  519MOL0     C68382   2.618   8.130   1.725 -0.6977  0.0915 -0.1336
  519MOL0     C68383   2.524   8.061   1.796 -0.0825  0.4757  0.3369
  519MOL0     O68384   2.429   8.116   1.882  0.5816 -1.0359  0.5150
  519MOL0     C68385   2.486   8.182   1.998 -0.4659  0.6252 -0.6408
  519MOL0     C68386   2.368   8.237   2.089 -0.7898 -0.1169 -0.0704
  519MOL0     C68387   2.268   8.131   2.121 -0.1381 -1.0782 -0.5828
  519MOL0     C68388   2.158   8.177   2.229 -1.0063 -0.0429  1.2540
  519MOL0     C68389   2.090   8.053   2.293  0.2227  0.0870 -0.2239
  519MOL0     C68390   1.988   8.095   2.405  0.2970 -0.5165  0.1740
  519MOL0     C68391   1.853   8.151   2.353 -0.6463 -0.5617 -0.3741
  519MOL0     C68392   1.738   8.052   2.314 -0.2415 -0.3290  0.4071
  519MOL0     N68393   1.712   7.970   2.433  0.2087 -0.4183  0.1606
  519MOL0     C68394   1.602   7.987   2.513 -0.2722 -0.0430 -0.8371
  519MOL0     C68395   1.585   7.871   2.573  0.3142 -0.1612 -0.6381
  519MOL0     C68396   1.464   7.832   2.664  0.2711 -0.6311 -0.5565
  519MOL0     C68397   1.329   7.863   2.607 -0.5258  0.1212  0.0376
  519MOL0     C68398   1.305   7.821   2.462  0.0665  0.4930  0.3168
  519MOL0     C68399   1.162   7.820   2.425 -1.0285  0.0176  0.3380
  519MOL0     O68400   1.112   7.949   2.409 -0.3907 -0.9840  0.3378
  519MOL0     C68401   0.974   7.973   2.386  0.0809  0.2746 -0.3114
  519MOL0     C68402   0.900   7.911   2.282  0.4800  0.0235 -0.0225
  519MOL0     C68403   0.761   7.923   2.281  0.1554 -0.0245 -0.4034
  519MOL0     C68404   0.701   8.017   2.358  0.7913  0.2927 -0.1876
  519MOL0     C68405   0.549   8.019   2.360 -0.3591  0.4129  0.0490
  519MOL0     O68406   0.486   8.128   2.416 -0.4041  0.9167  0.0821
  519MOL0     C68407   0.364   8.098   2.479  0.2448 -0.2990 -0.6245
  519MOL0     C68408   0.272   8.201   2.483  0.0936 -0.0301  0.0149
  519MOL0     C68409   0.141   8.172   2.539 -0.1605 -0.1643 -0.4580
  519MOL0     C68410   0.115   8.043   2.592 -0.0107 -0.3846 -0.7848
  519MOL0     O68411  -0.009   8.023   2.631 -0.0490  0.2022 -0.0789
  519MOL0     C68412  -0.070   7.891   2.625  0.2380  0.3271  1.4906
  519MOL0     C68413  -0.213   7.898   2.581 -0.1785  0.8590  0.5857
  519MOL0     C68414  -0.300   7.984   2.666 -0.2956 -0.7497  0.4846
  519MOL0     C68415  -0.443   7.962   2.619  0.1227  0.4410 -0.3527
  519MOL0     C68416  -0.533   8.073   2.677 -0.0051  0.8429 -0.8465
  519MOL0     C68417  -0.680   8.069   2.635  0.1666  0.4577 -0.1432
  519MOL0     C68418  -0.773   8.185   2.678  0.0158  0.0752  0.4888
  519MOL0     C68419  -0.927   8.137   2.695 -0.1935 -0.3228 -0.0791
  519MOL0    Cl68420  -0.977   8.053   2.544 -0.3425  0.0751  0.2208
  519MOL0     C68421   0.210   7.944   2.605 -0.6299 -0.2286  0.7200
  519MOL0     C68422   0.342   7.979   2.555  0.4635 -0.3386  0.9831
  519MOL0     O68423   0.498   7.922   2.310 -0.5043  0.5384 -0.3524
  519MOL0     C68424   0.774   8.079   2.460  0.3592 -0.3577  0.2068
  519MOL0     C68425   0.911   8.060   2.477  0.1888  0.0963 -0.6267
  519MOL0     N68426   1.685   7.786   2.533 -1.0885  0.0178 -0.2948
  519MOL0     N68427   1.769   7.852   2.461 -0.0638  0.1955 -0.1432
  519MOL0     C68428   2.512   7.923   1.777  0.2448 -1.0997 -1.0109
  519MOL0     C68429   2.594   7.846   1.693  0.6940  0.6903 -0.4312
  519MOL0     C68430   2.935   7.776   1.394  0.3916 -0.7383  0.6251
  519MOL0     C68431   3.008   7.820   1.281 -1.1084 -0.3137 -0.1350
  519MOL0     C68432   3.116   7.746   1.235  0.1937 -0.4615  0.7517
  519MOL0     C68433   3.150   7.619   1.297  0.1520  0.3894 -0.0097
  519MOL0     O68434   3.262   7.547   1.258  0.2329  0.2150  0.0898
  519MOL0     C68435   3.378   7.615   1.201 -0.6604  0.0994  0.0345
  519MOL0     C68436   3.436   7.536   1.082  0.1937 -0.6962  0.0408
  519MOL0     C68437   3.344   7.529   0.961  0.4155 -0.0201  0.8604
  519MOL0     C68438   3.417   7.454   0.848 -0.0429  0.3207  0.3278
  519MOL0     C68439   3.361   7.500   0.724 -0.3140  0.3880 -0.5465
  519MOL0     C68440   3.310   7.542   0.629 -0.0977  0.8251  0.7562
  519MOL0     C68441   3.072   7.572   1.397 -0.7744 -0.2346  0.5389
  519MOL0     C68442   2.966   7.651   1.449 -0.7151  0.3281 -1.1892
  519MOL0     H68443   2.781   8.106   1.591  0.9782 -0.9219  0.9273
  519MOL0     H68444   2.635   8.236   1.735 -0.3858 -0.0853  1.4097
  519MOL0     H68445   2.552   8.263   1.964  1.3859 -0.2344  0.7401
  519MOL0     H68446   2.538   8.099   2.046  0.1053 -0.3692 -2.8261
  519MOL0     H68447   2.317   8.323   2.045 -0.9928 -1.3893 -2.5019
  519MOL0     H68448   2.406   8.263   2.188 -1.2104 -1.3165  0.4258
  519MOL0     H68449   2.325   8.050   2.166  0.7708 -0.1507 -0.0200
  519MOL0     H68450   2.213   8.099   2.032 -0.6854  0.1745 -0.7222
  519MOL0     H68451   2.205   8.239   2.306  0.0036  0.9489 -0.1097
  519MOL0     H68452   2.083   8.236   2.177 -0.7835 -0.8859 -0.0801
  519MOL0     H68453   2.163   7.984   2.337 -0.2731 -0.2260  0.1312
  519MOL0     H68454   2.036   7.998   2.216 -1.3997  2.0739 -0.5976
  519MOL0     H68455   2.035   8.180   2.455 -0.9898  0.3033  0.0533
  519MOL0     H68456   1.985   8.014   2.478 -0.3203  3.0412  4.5380
  519MOL0     H68457   1.820   8.230   2.421 -0.2970 -0.0362 -0.8005
  519MOL0     H68458   1.884   8.213   2.268  1.4389  2.3177  2.2631
  519MOL0     H68459   1.774   7.982   2.239  0.4217 -1.0692  1.3999
  519MOL0     H68460   1.651   8.103   2.272  0.4798 -2.2640 -4.0086
  519MOL0     H68461   1.542   8.076   2.527  1.1077  0.9725 -1.1988
  519MOL0     H68462   1.478   7.879   2.762  2.2059  1.3554 -1.7096
  519MOL0     H68463   1.471   7.723   2.672  1.0003 -0.6489 -1.3894
  519MOL0     H68464   1.319   7.972   2.607 -2.4918 -0.0116  0.8290
  519MOL0     H68465   1.253   7.815   2.670  2.5580 -0.7574  3.4706
  519MOL0     H68466   1.362   7.869   2.382 -0.8899  0.3282 -0.4767
  519MOL0     H68467   1.328   7.715   2.449 -0.8870  0.3740 -0.4955
  519MOL0     H68468   1.098   7.773   2.501  0.2644 -0.2692  1.2801
  519MOL0     H68469   1.149   7.756   2.338 -0.2073  0.1360  0.1274
  519MOL0     H68470   0.952   7.855   2.205  3.0953 -1.1827  2.4493
  519MOL0     H68471   0.712   7.874   2.198  1.5063 -1.2360 -0.5225
  519MOL0     H68472   0.308   8.299   2.453  3.4134 -0.1317  2.9712
  519MOL0     H68473   0.062   8.246   2.530  2.4594  2.7683 -1.1953
  519MOL0     H68474  -0.067   7.845   2.724 -4.5186 -0.1544  1.6812
  519MOL0     H68475  -0.006   7.830   2.562  1.7684  2.7882  0.5360
  519MOL0     H68476  -0.251   7.798   2.563 -0.2377  1.0730 -0.5629
  519MOL0     H68477  -0.204   7.936   2.478 -0.0345 -0.1555  0.2146
  519MOL0     H68478  -0.269   8.088   2.646 -2.9939 -0.0953 -0.8676
  519MOL0     H68479  -0.290   7.953   2.770 -1.2721  0.5299  1.0007
  519MOL0     H68480  -0.463   7.961   2.511 -2.7292 -2.5106  0.0463
  519MOL0     H68481  -0.467   7.860   2.650  0.7027  0.2169 -0.6143
  519MOL0     H68482  -0.494   8.166   2.634  2.5668  1.1190  1.8147
  519MOL0     H68483  -0.516   8.072   2.785  1.4769 -0.1094 -1.0672
  519MOL0     H68484  -0.728   7.976   2.667  1.0304  0.3605  0.9392
  519MOL0     H68485  -0.673   8.052   2.527 -1.9531  1.2657 -0.4546
  519MOL0     H68486  -0.736   8.216   2.777 -1.6455  1.2207  0.8032
  519MOL0     H68487  -0.767   8.260   2.599  0.0889 -0.0248  0.4011
  519MOL0     H68488  -0.984   8.230   2.706  2.1642  1.2381 -0.4744
  519MOL0     H68489  -0.943   8.083   2.790 -0.6745  3.6396  2.3172
  519MOL0     H68490   0.189   7.859   2.670 -1.2339 -0.6889 -0.0561
  519MOL0     H68491   0.427   7.912   2.565 -0.6909 -2.1178 -0.4748
  519MOL0     H68492   0.718   8.150   2.519 -0.5971  0.4365 -1.5715
  519MOL0     H68493   0.969   8.117   2.549 -0.4223  0.8423 -0.7021
  519MOL0     H68494   2.425   7.880   1.824 -0.2126  1.1710  0.3590
  519MOL0     H68495   2.578   7.739   1.688  2.4139  0.3526  0.4379
  519MOL0     H68496   2.984   7.919   1.243 -0.3834  0.1417  0.5547
  519MOL0     H68497   3.165   7.800   1.154 -1.3221 -0.0594  0.0629
  519MOL0     H68498   3.450   7.624   1.282 -1.1735  2.3679  0.2987
  519MOL0     H68499   3.361   7.719   1.172  0.3612  0.3860  0.4277
  519MOL0     H68500   3.533   7.583   1.062 -0.9035  0.3398 -3.5639
  519MOL0     H68501   3.453   7.436   1.122 -1.1724 -1.0929 -0.3243
  519MOL0     H68502   3.326   7.633   0.930  1.4505  0.1280  0.7430
  519MOL0     H68503   3.250   7.481   0.989 -0.3280 -0.7019 -2.4156
  519MOL0     H68504   3.526   7.465   0.843 -0.2054  2.3874  0.3624
  519MOL0     H68505   3.390   7.348   0.859 -0.5777  0.6155  2.1619
  519MOL0     H68506   3.258   7.602   0.557  0.9154  0.7930 -0.0163
  519MOL0     H68507   3.096   7.476   1.442 -1.8139  0.4096  2.6252
  519MOL0     H68508   2.908   7.603   1.527 -1.0535  1.1757 -0.9127
  520MOL0     O68509   1.605   3.062   4.722 -0.0343  0.2586  1.0276
  520MOL0     C68510   1.694   3.104   4.642 -0.4140 -0.6508  0.5426
  520MOL0     O68511   1.681   3.199   4.547 -0.1056  0.2850 -0.1743
  520MOL0     C68512   1.565   3.202   4.476 -0.3401  1.5002 -0.4680
  520MOL0     C68513   1.440   3.258   4.517  0.1060 -0.3088 -0.0871
  520MOL0     C68514   1.328   3.269   4.427  0.5614 -0.8162 -0.0645
  520MOL0     C68515   1.335   3.215   4.301 -0.6868 -0.0443 -0.6472
  520MOL0     O68516   1.221   3.218   4.227  0.0807  0.1001 -0.1146
  520MOL0     C68517   1.209   3.142   4.107 -0.0033 -0.5145 -0.1827
  520MOL0     C68518   1.075   3.148   4.037  0.0592 -1.4521 -0.0582
  520MOL0     C68519   1.060   3.247   3.922 -0.5956  0.3117  1.1016
  520MOL0     C68520   0.934   3.221   3.837  0.4410 -0.2857  0.4956
  520MOL0     C68521   0.803   3.240   3.903  0.0551 -0.6869  0.1405
  520MOL0     C68522   0.695   3.271   3.807 -0.1623 -0.9267 -0.1791
  520MOL0     C68523   0.618   3.156   3.747 -0.4646  0.9557 -0.1624
  520MOL0     C68524   0.512   3.204   3.651  0.7461 -0.1615  0.0204
  520MOL0     N68525   0.392   3.261   3.710 -0.3329 -0.7334 -0.7390
  520MOL0     C68526   0.385   3.385   3.781 -0.9093  0.0368  0.3015
  520MOL0     C68527   0.262   3.393   3.840  0.6954 -0.0868  0.7014
  520MOL0     C68528   0.215   3.496   3.939 -0.8706 -0.0810  1.0112
  520MOL0     C68529   0.283   3.485   4.074  0.5376 -0.4093 -0.5879
  520MOL0     C68530   0.214   3.384   4.165  0.8553 -0.7130  0.3726
  520MOL0     C68531   0.101   3.434   4.264  0.3881 -0.0659 -0.2033
  520MOL0     O68532  -0.023   3.401   4.203 -0.2273  0.3230 -0.2585
  520MOL0     C68533  -0.140   3.437   4.262 -0.0376 -0.1032  0.3102
  520MOL0     C68534  -0.256   3.381   4.212  0.2630  0.0485 -0.9280
  520MOL0     C68535  -0.377   3.402   4.276  0.2446  0.4822 -0.8454
  520MOL0     C68536  -0.398   3.497   4.380 -0.6722 -0.3046 -0.2651
  520MOL0     C68537  -0.531   3.511   4.439  0.3303 -0.5308 -0.0105
  520MOL0     O68538  -0.632   3.421   4.414 -0.0321  0.1748  0.7252
  520MOL0     C68539  -0.736   3.419   4.501 -0.6307  0.4102  0.6669
  520MOL0     C68540  -0.730   3.311   4.587 -0.4669 -0.8474  0.6993
  520MOL0     C68541  -0.840   3.286   4.668 -0.2149  0.2945 -0.3562
  520MOL0     C68542  -0.963   3.362   4.656 -0.9326  0.2902 -0.6157
  520MOL0     O68543  -1.078   3.355   4.727  0.8089 -0.5741  0.0331
  520MOL0     C68544  -1.080   3.303   4.863 -0.1651 -0.4258  0.1769
  520MOL0     C68545  -1.110   3.415   4.963  0.8108 -1.1995 -0.3979
  520MOL0     C68546  -0.989   3.518   4.978  0.0649  0.0040  0.8478
  520MOL0     C68547  -1.010   3.620   5.086  0.5788 -0.9901  0.1254
  520MOL0     C68548  -0.881   3.668   5.155 -0.2845 -0.8004  0.0052
  520MOL0     C68549  -0.927   3.776   5.255 -0.1929  1.0857 -0.7101
  520MOL0     C68550  -0.976   3.911   5.196  0.0671  0.4065  1.1861
  520MOL0     C68551  -1.024   4.015   5.309  0.6759  0.2158 -0.4488
  520MOL0    Cl68552  -1.138   3.934   5.432  0.2726  0.0396 -0.1702
  520MOL0     C68553  -0.963   3.460   4.562 -0.8520 -0.0665 -0.3211
  520MOL0     C68554  -0.854   3.492   4.483  0.4817 -0.2070  0.2421
  520MOL0     O68555  -0.539   3.605   4.512 -0.6619  0.8092 -1.2533
  520MOL0     C68556  -0.286   3.560   4.423 -0.4586  0.0602 -0.0722
  520MOL0     C68557  -0.162   3.540   4.356  0.3464  0.3666  0.1536
  520MOL0     N68558   0.208   3.273   3.805 -0.1596 -0.1115  0.3446
  520MOL0     N68559   0.274   3.196   3.727 -0.5485  0.1348 -0.0911
  520MOL0     C68560   1.461   3.166   4.262  0.0715  0.8467  0.0292
  520MOL0     C68561   1.575   3.159   4.346 -0.0947 -0.4012 -0.6104
  520MOL0     C68562   1.827   3.054   4.676  0.4423 -0.1735  0.2018
  520MOL0     C68563   1.914   3.009   4.570 -0.1589 -0.4274  0.2915
  520MOL0     C68564   2.040   2.964   4.594  0.9645  0.2514  0.1640
  520MOL0     C68565   2.092   2.967   4.724  0.0826 -0.5267  0.3184
  520MOL0     O68566   2.219   2.913   4.747  0.7708  0.6068  0.3141
  520MOL0     C68567   2.258   2.873   4.881  0.0235  0.2233 -0.0382
  520MOL0     C68568   2.304   2.985   4.971  0.3332  0.1639 -0.6669
  520MOL0     C68569   2.445   3.032   4.955  0.1059 -0.4702  0.6242
  520MOL0     C68570   2.487   3.121   5.074 -0.6812  0.5881  0.0613
  520MOL0     C68571   2.634   3.115   5.084  0.0706 -0.9679 -0.0219
  520MOL0     C68572   2.750   3.101   5.102  0.4539 -0.6704 -0.1170
  520MOL0     C68573   2.003   2.997   4.832  0.5380  0.1512 -0.7937
  520MOL0     C68574   1.875   3.050   4.808  0.7237 -0.8080 -0.5464
  520MOL0     H68575   1.424   3.305   4.614  2.1036  0.1431  0.0593
  520MOL0     H68576   1.241   3.316   4.472 -0.8766 -1.8395 -1.6878
  520MOL0     H68577   1.248   3.043   4.134  4.2485  1.1092  0.3582
  520MOL0     H68578   1.277   3.171   4.026  0.7022  1.3336  1.0031
  520MOL0     H68579   0.993   3.165   4.108  1.0311  0.5816  0.6591
  520MOL0     H68580   1.056   3.047   4.001  0.2968 -2.1043  1.5667
  520MOL0     H68581   1.149   3.245   3.859 -2.0479  0.8707 -1.0833
  520MOL0     H68582   1.061   3.345   3.972  2.1905  0.8367  0.1989
  520MOL0     H68583   0.941   3.276   3.743 -3.5524  0.1020  0.2655
  520MOL0     H68584   0.945   3.115   3.813 -0.9094 -1.3424  3.9233
  520MOL0     H68585   0.819   3.318   3.978  4.6952 -1.4766  0.2628
  520MOL0     H68586   0.762   3.159   3.965 -2.7071  1.8889  1.9913
  520MOL0     H68587   0.730   3.333   3.724  1.4940  0.8445  1.7187
  520MOL0     H68588   0.631   3.342   3.860  0.2533  1.7387 -2.9210
  520MOL0     H68589   0.690   3.098   3.689 -3.0664 -1.1815 -1.4664
  520MOL0     H68590   0.577   3.087   3.821  1.7696 -2.8728 -2.1711
  520MOL0     H68591   0.481   3.121   3.587  1.4887 -0.9132  0.6095
  520MOL0     H68592   0.560   3.290   3.601 -1.2564  2.5422  2.4041
  520MOL0     H68593   0.449   3.473   3.779 -1.2369  0.3843  2.6161
  520MOL0     H68594   0.106   3.499   3.943 -1.0019  1.5338 -1.6605
  520MOL0     H68595   0.232   3.598   3.903 -0.9799 -0.0932  0.9249
  520MOL0     H68596   0.280   3.587   4.116  0.1576 -1.2846  1.6628
  520MOL0     H68597   0.389   3.467   4.057 -0.1767 -5.3868 -1.1453
  520MOL0     H68598   0.181   3.291   4.120  0.2651 -1.0397  1.4367
  520MOL0     H68599   0.288   3.351   4.238  0.7931 -0.4023  0.5810
  520MOL0     H68600   0.108   3.543   4.267 -1.3396  0.0855 -0.9601
  520MOL0     H68601   0.103   3.393   4.366 -0.8000 -1.4841 -0.7064
  520MOL0     H68602  -0.259   3.308   4.132 -3.6021 -2.5814  1.2799
  520MOL0     H68603  -0.467   3.349   4.249  0.1841  0.3764 -0.4381
  520MOL0     H68604  -0.645   3.246   4.605 -0.1566 -0.6749 -0.0797
  520MOL0     H68605  -0.845   3.203   4.738  1.1185 -0.5839 -1.2515
  520MOL0     H68606  -0.982   3.264   4.893  1.3100  1.2839 -2.0301
  520MOL0     H68607  -1.153   3.222   4.869  2.0650 -3.3389 -5.0275
  520MOL0     H68608  -1.121   3.384   5.068 -2.1492  1.1394  0.1240
  520MOL0     H68609  -1.204   3.459   4.929 -1.1828 -1.8621  3.5609
  520MOL0     H68610  -0.974   3.563   4.879  1.2370 -2.2340 -0.0810
  520MOL0     H68611  -0.898   3.460   4.995 -0.5864 -1.4573 -0.3710
  520MOL0     H68612  -1.059   3.708   5.043  2.9980  0.1179 -0.5234
  520MOL0     H68613  -1.070   3.567   5.160 -1.4005 -2.1280 -2.1536
  520MOL0     H68614  -0.807   3.698   5.080 -1.7300 -1.1580 -1.6284
  520MOL0     H68615  -0.843   3.589   5.220 -0.4196 -0.3387  0.6579
  520MOL0     H68616  -0.850   3.797   5.331  1.7539 -4.6142 -0.5706
  520MOL0     H68617  -1.016   3.739   5.307  0.1437  1.0769 -0.1273
  520MOL0     H68618  -0.895   3.963   5.145  1.3209 -2.4281  0.0457
  520MOL0     H68619  -1.055   3.889   5.124  2.0540  0.6584 -1.1675
  520MOL0     H68620  -1.072   4.098   5.258 -0.5947  0.0383  0.4131
  520MOL0     H68621  -0.937   4.048   5.367  1.6088 -0.2790 -1.5328
  520MOL0     H68622  -1.053   3.518   4.546 -2.0533 -1.1345  2.0371
  520MOL0     H68623  -0.850   3.565   4.402  0.0816 -0.5082 -0.0570
  520MOL0     H68624  -0.294   3.632   4.505  0.4750  0.6838 -0.5099
  520MOL0     H68625  -0.080   3.596   4.401  0.8695  0.5652 -1.0070
  520MOL0     H68626   1.464   3.122   4.162  0.1179  0.6574  0.1130
  520MOL0     H68627   1.673   3.119   4.323  1.4087  0.2467  3.6577
  520MOL0     H68628   1.884   3.015   4.466  1.8192  1.1333 -0.2341
  520MOL0     H68629   2.098   2.948   4.504 -0.3161  0.3276 -0.6878
  520MOL0     H68630   2.339   2.800   4.871 -0.8904 -0.4815 -3.8802
  520MOL0     H68631   2.174   2.817   4.924  0.2163 -0.6437 -0.7660
  520MOL0     H68632   2.244   3.076   4.968 -0.0795 -0.1057 -3.7575
  520MOL0     H68633   2.292   2.947   5.073 -2.1230  1.5828 -0.3595
  520MOL0     H68634   2.448   3.091   4.863 -2.6934  0.6280  1.1327
  520MOL0     H68635   2.518   2.950   4.952  0.0478 -0.4964 -1.3017
  520MOL0     H68636   2.450   3.224   5.068 -0.4856  0.5634 -2.6223
  520MOL0     H68637   2.452   3.079   5.169  0.7901  3.5983  2.0915
  520MOL0     H68638   2.856   3.100   5.119  2.1982  3.6879 -6.6143
  520MOL0     H68639   2.035   2.989   4.935  0.3886  4.6132 -0.2245
  520MOL0     H68640   1.819   3.098   4.888 -2.8676 -0.0592 -3.2612
  521MOL0     O68641   0.290   1.089   3.109 -0.3241 -0.0652 -0.8117
  521MOL0     C68642   0.359   1.098   3.006  0.8745 -0.3662 -0.2732
  521MOL0     O68643   0.307   1.098   2.878  0.2868 -0.4131 -0.3345
  521MOL0     C68644   0.173   1.061   2.860  0.0187  0.5627 -0.6130
  521MOL0     C68645   0.061   1.107   2.932  1.1032 -0.4457 -0.0117
  521MOL0     C68646  -0.069   1.094   2.872 -1.1206  0.1378  0.3752
  521MOL0     C68647  -0.082   1.002   2.763  0.2035 -0.2535  0.6503
  521MOL0     O68648  -0.207   0.977   2.715  0.1846  0.2585 -0.4856
  521MOL0     C68649  -0.323   1.048   2.761 -0.2452 -0.1492  0.7063
  521MOL0     C68650  -0.445   1.047   2.665  0.4922 -0.0937  0.5685
  521MOL0     C68651  -0.572   1.083   2.759  0.1419  0.4731 -0.2906
  521MOL0     C68652  -0.700   1.076   2.678 -0.6879 -1.5447  0.1641
  521MOL0     C68653  -0.819   1.098   2.763  1.4086  0.4223  0.5119
  521MOL0     C68654  -0.951   1.065   2.690  0.1503 -0.3802 -1.0092
  521MOL0     C68655  -1.078   1.104   2.771  0.3819  0.4255  0.4278
  521MOL0     C68656  -1.129   0.994   2.873  0.6808 -0.3781 -0.2343
  521MOL0     N68657  -1.238   1.061   2.949  0.1264  0.1810  0.5019
  521MOL0     C68658  -1.374   1.065   2.916 -0.0443  0.8371  0.0058
  521MOL0     C68659  -1.435   1.127   3.025  0.4383 -0.2931  0.7521
  521MOL0     C68660  -1.584   1.130   3.041 -0.3360  0.5216  0.2522
  521MOL0     C68661  -1.631   1.229   3.148  0.2492 -0.5816 -0.8336
  521MOL0     C68662  -1.790   1.223   3.158 -1.1819  0.1361  0.3970
  521MOL0     C68663  -1.834   1.327   3.250  1.0292  0.2249 -0.4032
  521MOL0     O68664  -1.964   1.300   3.317 -0.3088 -0.4491 -0.4945
  521MOL0     C68665  -2.033   1.406   3.369  0.2476 -1.1128  0.1889
  521MOL0     C68666  -1.971   1.530   3.401 -0.0271  0.6522 -0.9802
  521MOL0     C68667  -2.039   1.633   3.454 -0.5420  0.3932 -0.4186
  521MOL0     C68668  -2.182   1.624   3.485  0.1864  0.2580  0.3115
  521MOL0     C68669  -2.250   1.738   3.541 -0.2147  0.5232 -0.4335
  521MOL0     O68670  -2.385   1.715   3.561  0.0558 -0.1932  0.3525
  521MOL0     C68671  -2.462   1.809   3.619  0.2595 -1.0148 -0.9613
  521MOL0     C68672  -2.429   1.886   3.732 -0.1399 -0.1548 -0.2826
  521MOL0     C68673  -2.529   1.963   3.796  0.0857 -0.3915  0.5167
  521MOL0     C68674  -2.660   1.972   3.750 -0.2872  0.0128 -0.2610
  521MOL0     O68675  -2.752   2.049   3.814  0.1088 -0.1513 -0.7662
  521MOL0     C68676  -2.856   1.966   3.863 -0.2614  0.0344  0.1919
  521MOL0     C68677  -2.998   2.029   3.899 -0.4120 -0.1577 -0.3538
  521MOL0     C68678  -3.004   2.098   4.040  0.0082  0.0755 -0.3930
  521MOL0     C68679  -3.149   2.162   4.056 -0.0961 -0.2950 -0.4405
  521MOL0     C68680  -3.157   2.211   4.205 -0.2256  0.4407  0.6581
  521MOL0     C68681  -3.296   2.258   4.248 -0.4142  0.4484 -0.6427
  521MOL0     C68682  -3.288   2.336   4.384  0.5140  0.8814 -0.6760
  521MOL0     C68683  -3.430   2.388   4.422  0.1251  1.1794  0.5275
  521MOL0    Cl68684  -3.543   2.250   4.436  0.0753  0.1736 -0.1604
  521MOL0     C68685  -2.684   1.891   3.639  0.5212 -0.8734 -0.3040
  521MOL0     C68686  -2.592   1.810   3.576  0.3703  0.5081 -0.5181
  521MOL0     O68687  -2.188   1.844   3.555 -0.2677  0.6134  0.4498
  521MOL0     C68688  -2.237   1.500   3.459  0.1479  0.2794 -1.1008
  521MOL0     C68689  -2.165   1.394   3.400  0.1949 -0.4419  0.5728
  521MOL0     N68690  -1.334   1.172   3.112 -0.7308  0.3250  0.6930
  521MOL0     N68691  -1.218   1.123   3.063 -0.1313  0.5379  0.1381
  521MOL0     C68692   0.028   0.935   2.709 -0.0288  0.4000  0.3733
  521MOL0     C68693   0.153   0.970   2.755  0.0803  0.0072 -0.1398
  521MOL0     C68694   0.494   1.157   3.009 -0.0865  0.5922 -0.6731
  521MOL0     C68695   0.583   1.116   3.113  0.1577  0.1439 -0.0783
  521MOL0     C68696   0.716   1.152   3.113  0.6761  0.2202 -0.5447
  521MOL0     C68697   0.767   1.221   3.004 -0.5138 -0.0236 -0.8219
  521MOL0     O68698   0.899   1.260   2.995 -0.3256  0.1251  0.7312
  521MOL0     C68699   0.964   1.293   3.124 -0.3130  0.0687 -0.1267
  521MOL0     C68700   1.082   1.379   3.094 -1.1072 -0.8653 -0.0481
  521MOL0     C68701   1.181   1.387   3.218  0.5320 -0.2849  0.0230
  521MOL0     C68702   1.287   1.503   3.198  0.6003 -0.5014  0.1449
  521MOL0     C68703   1.361   1.521   3.322 -0.3719  1.0729 -0.1332
  521MOL0     C68704   1.417   1.522   3.431 -0.5245 -0.4844  0.0585
  521MOL0     C68705   0.683   1.265   2.906  0.2252  0.8438  0.5387
  521MOL0     C68706   0.550   1.229   2.903  1.3993 -0.5356  0.3448
  521MOL0     H68707   0.054   1.173   3.017 -3.1916  2.1310 -1.9773
  521MOL0     H68708  -0.150   1.143   2.925  1.2811  1.4245  3.0573
  521MOL0     H68709  -0.298   1.153   2.781  0.9936 -0.8901  3.5493
  521MOL0     H68710  -0.356   1.017   2.861 -1.4338  1.0704  0.7181
  521MOL0     H68711  -0.454   0.946   2.625  2.6896 -0.3382  0.5641
  521MOL0     H68712  -0.437   1.116   2.580 -0.5861 -1.4076 -0.6412
  521MOL0     H68713  -0.552   1.180   2.805 -4.2788  1.4742 -0.0137
  521MOL0     H68714  -0.571   1.009   2.839 -1.0422  0.7023 -0.0459
  521MOL0     H68715  -0.701   1.148   2.596 -3.5602  0.4482  1.7573
  521MOL0     H68716  -0.707   0.979   2.629  1.7825 -2.4029  1.3620
  521MOL0     H68717  -0.814   1.203   2.795  0.3776  0.4636  0.5651
  521MOL0     H68718  -0.814   1.030   2.848 -1.9948  0.1823  0.6257
  521MOL0     H68719  -0.951   0.961   2.655  0.8425 -0.6449 -0.2542
  521MOL0     H68720  -0.962   1.120   2.596 -2.1783 -0.0641 -0.6329
  521MOL0     H68721  -1.062   1.205   2.811  1.6143  0.1681  0.6155
  521MOL0     H68722  -1.159   1.097   2.697  1.1032 -2.2011 -0.2261
  521MOL0     H68723  -1.049   0.963   2.942 -0.0537  0.2337  0.9386
  521MOL0     H68724  -1.164   0.904   2.823 -1.6557 -0.5710  1.5733
  521MOL0     H68725  -1.426   1.024   2.830 -0.7511  2.9611 -0.6329
  521MOL0     H68726  -1.628   1.035   3.072 -0.1757  1.3190  3.2608
  521MOL0     H68727  -1.625   1.149   2.942 -1.7350  1.6218  1.0022
  521MOL0     H68728  -1.601   1.332   3.128 -1.0245  0.2352  1.1542
  521MOL0     H68729  -1.588   1.205   3.245 -0.0893  1.5232 -0.1053
  521MOL0     H68730  -1.840   1.241   3.062 -1.7729 -2.5959  0.1187
  521MOL0     H68731  -1.819   1.126   3.199 -0.7069  0.9050  2.7284
  521MOL0     H68732  -1.836   1.424   3.200 -0.5917  0.7252  0.5174
  521MOL0     H68733  -1.762   1.322   3.332  0.4467 -3.3995  0.0739
  521MOL0     H68734  -1.864   1.549   3.393  0.1409 -0.7781 -2.8486
  521MOL0     H68735  -1.983   1.720   3.486  2.6881 -2.0708  1.1330
  521MOL0     H68736  -2.328   1.879   3.769  0.0270 -1.7951 -0.9502
  521MOL0     H68737  -2.517   2.018   3.889  3.4693  4.4616 -2.3280
  521MOL0     H68738  -2.814   1.908   3.946  1.3658 -0.6601 -1.0539
  521MOL0     H68739  -2.887   1.886   3.795 -1.4140 -0.1547  0.9301
  521MOL0     H68740  -3.076   1.955   3.882 -0.0901  0.0072 -2.9164
  521MOL0     H68741  -3.012   2.101   3.818 -1.1960 -1.8019 -1.7348
  521MOL0     H68742  -2.928   2.176   4.048  0.9994 -0.8825 -0.2602
  521MOL0     H68743  -2.988   2.033   4.126 -0.5368 -2.4198 -2.0531
  521MOL0     H68744  -3.174   2.247   3.992 -5.1169  2.0705  3.8648
  521MOL0     H68745  -3.229   2.088   4.045  1.3768 -1.9655 -0.3367
  521MOL0     H68746  -3.099   2.303   4.219 -2.0996  1.2760  4.1338
  521MOL0     H68747  -3.131   2.124   4.266 -1.8775 -1.6589 -1.4609
  521MOL0     H68748  -3.363   2.171   4.247 -0.7224  0.3835  3.9563
  521MOL0     H68749  -3.333   2.330   4.174  0.2999  0.3392 -1.1146
  521MOL0     H68750  -3.263   2.272   4.470 -0.4917  2.6412  1.0057
  521MOL0     H68751  -3.215   2.417   4.388  1.0591  0.4730 -1.8978
  521MOL0     H68752  -3.464   2.466   4.354  0.6141  3.0607  2.3243
  521MOL0     H68753  -3.436   2.438   4.519 -0.6934 -1.4769  1.9545
  521MOL0     H68754  -2.788   1.892   3.608  0.7822 -2.0031 -1.2952
  521MOL0     H68755  -2.636   1.738   3.508 -1.8190  0.6892  0.6181
  521MOL0     H68756  -2.341   1.480   3.483  0.9767 -0.9832  1.7726
  521MOL0     H68757  -2.212   1.300   3.374 -0.0133 -0.1305 -0.2048
  521MOL0     H68758   0.013   0.864   2.628  1.7336  0.5065 -0.0934
  521MOL0     H68759   0.246   0.928   2.718  0.9361  1.1866  0.5978
  521MOL0     H68760   0.540   1.057   3.193 -0.0079  1.5252  0.8835
  521MOL0     H68761   0.771   1.113   3.198  0.1090  1.1169  0.2677
  521MOL0     H68762   0.993   1.199   3.172 -0.1857 -0.1869 -0.6957
  521MOL0     H68763   0.892   1.340   3.191 -0.7945 -1.2872  0.3413
  521MOL0     H68764   1.143   1.338   3.013 -3.0311 -3.3543 -0.3416
  521MOL0     H68765   1.054   1.480   3.063 -3.5611 -1.7635 -0.9555
  521MOL0     H68766   1.223   1.290   3.245 -2.6164 -1.8620 -0.3725
  521MOL0     H68767   1.115   1.420   3.299 -1.4016  1.0747 -2.0063
  521MOL0     H68768   1.353   1.478   3.114  1.2722  0.4562  0.3744
  521MOL0     H68769   1.224   1.589   3.175 -1.4843 -2.4401 -1.9554
  521MOL0     H68770   1.461   1.534   3.528 -1.0321 -1.1828  0.3797
  521MOL0     H68771   0.722   1.307   2.813  0.4934 -0.3775  0.0827
  521MOL0     H68772   0.488   1.270   2.823  2.2212 -1.8727 -1.0293
  522MOL0     O68773   6.985  10.589   0.903 -0.3286 -0.3455 -0.2427
  522MOL0     C68774   7.009  10.512   0.998  0.4625  0.5243  0.4484
  522MOL0     O68775   6.912  10.453   1.074  0.2427 -0.2091  0.5955
  522MOL0     C68776   6.781  10.478   1.049  0.2417 -0.4394  0.5143
  522MOL0     C68777   6.722  10.486   0.923  0.5696 -0.7589  0.4987
  522MOL0     C68778   6.575  10.490   0.911 -0.0885 -0.1055 -0.2739
  522MOL0     C68779   6.499  10.490   1.018  1.0833  1.1259 -0.6983
  522MOL0     O68780   6.362  10.485   1.020  0.1192  0.5140  0.6709
  522MOL0     C68781   6.302  10.382   0.938  0.7280 -0.2040 -0.0684
  522MOL0     C68782   6.156  10.359   0.991  0.1468  0.7250  0.1235
  522MOL0     C68783   6.069  10.469   0.955  0.0648 -0.1047  0.5606
  522MOL0     C68784   5.921  10.427   0.986 -1.3351  0.2315 -0.2065
  522MOL0     C68785   5.885  10.439   1.146 -0.0780 -0.3533  0.0448
  522MOL0     C68786   5.866  10.311   1.229  0.3203  1.3425  0.0815
  522MOL0     C68787   5.728  10.247   1.217  0.5409  0.4933 -0.7473
  522MOL0     C68788   5.716  10.103   1.284  0.0598 -0.0928  0.0284
  522MOL0     N68789   5.585  10.038   1.261  0.5753  0.2108 -0.3306
  522MOL0     C68790   5.514   9.963   1.355 -0.2040  1.1195  0.7782
  522MOL0     C68791   5.406   9.914   1.297  0.6908 -0.8373  0.2132
  522MOL0     C68792   5.309   9.822   1.367 -0.2195  0.3770 -0.0316
  522MOL0     C68793   5.187   9.783   1.294 -0.0602  0.1752  0.0853
  522MOL0     C68794   5.101   9.673   1.364 -0.8597 -0.9183 -0.1052
  522MOL0     C68795   4.961   9.664   1.311 -0.1793 -0.0684  0.5040
  522MOL0     O68796   4.952   9.654   1.160  0.0824 -0.6421 -1.0983
  522MOL0     C68797   4.839   9.608   1.096 -0.1938 -0.1982 -0.2758
  522MOL0     C68798   4.710   9.599   1.146  0.3889  0.4297 -0.4682
  522MOL0     C68799   4.604   9.556   1.071 -0.3188  0.0985  0.4849
  522MOL0     C68800   4.617   9.513   0.937 -0.6527 -0.6363  0.3933
  522MOL0     C68801   4.500   9.470   0.856 -0.0387 -0.2006  0.3592
  522MOL0     O68802   4.522   9.433   0.727 -0.4376 -0.7126  0.8328
  522MOL0     C68803   4.426   9.368   0.644 -0.2201 -0.2368 -0.2382
  522MOL0     C68804   4.290   9.370   0.649  0.4026  0.2328 -0.2244
  522MOL0     C68805   4.219   9.315   0.544  0.3343 -0.9024 -0.4443
  522MOL0     C68806   4.282   9.263   0.432  0.9896 -0.1030  0.2437
  522MOL0     O68807   4.199   9.219   0.330 -0.8467 -0.3660  0.3308
  522MOL0     C68808   4.260   9.153   0.220 -0.3389  0.6537  0.0246
  522MOL0     C68809   4.266   9.001   0.239 -0.5848  0.1742  0.1530
  522MOL0     C68810   4.126   8.951   0.292  0.4148 -0.3529  0.1849
  522MOL0     C68811   4.081   8.836   0.209 -0.0273  0.5071  0.2335
  522MOL0     C68812   3.942   8.794   0.251 -0.0941 -0.1242 -0.6418
  522MOL0     C68813   3.907   8.679   0.168 -0.4859 -0.5042  0.1170
  522MOL0     C68814   3.766   8.627   0.207 -1.1187  0.1427  0.2584
  522MOL0     C68815   3.767   8.495   0.269  0.2413  0.3721 -0.5053
  522MOL0    Cl68816   3.846   8.493   0.426 -0.5226  0.4349 -0.4842
  522MOL0     C68817   4.416   9.246   0.434  0.3844 -0.2419 -0.5094
  522MOL0     C68818   4.486   9.292   0.542 -0.0585 -0.2311 -0.1591
  522MOL0     O68819   4.392   9.475   0.916  0.1430 -0.4368 -0.0786
  522MOL0     C68820   4.755   9.513   0.893 -0.3609 -0.2718 -0.1097
  522MOL0     C68821   4.864   9.567   0.969 -0.6176  0.0235  0.4989
  522MOL0     N68822   5.406   9.954   1.164  0.1961 -0.3665  0.7457
  522MOL0     N68823   5.511  10.024   1.144  0.3024 -0.9151 -0.7588
  522MOL0     C68824   6.551  10.483   1.140 -0.0285 -0.1297  0.6517
  522MOL0     C68825   6.692  10.472   1.158  0.3391  0.7174 -0.0074
  522MOL0     C68826   7.150  10.467   1.031 -0.1550  0.7993 -0.1409
  522MOL0     C68827   7.181  10.372   1.136 -0.6476 -0.4640 -0.0534
  522MOL0     C68828   7.310  10.329   1.165  0.1037 -0.2676  0.6597
  522MOL0     C68829   7.421  10.403   1.108  0.2144 -0.5495  1.3775
  522MOL0     O68830   7.544  10.347   1.128 -0.0884  0.1385 -0.0029
  522MOL0     C68831   7.643  10.365   1.035 -0.3119  0.1893 -0.3399
  522MOL0     C68832   7.771  10.283   1.058 -0.1181  0.7214 -0.3718
  522MOL0     C68833   7.852  10.334   1.180  0.6489 -0.3872 -0.1228
  522MOL0     C68834   7.935  10.242   1.269  0.6352 -0.8440  1.5712
  522MOL0     C68835   7.992  10.140   1.181  0.2974 -0.0929 -0.7314
  522MOL0     C68836   8.026  10.045   1.109  0.4659 -0.6379 -0.1211
  522MOL0     C68837   7.392  10.504   1.016 -0.2378 -0.4128 -0.3181
  522MOL0     C68838   7.258  10.538   0.975 -1.0787  0.8866  0.5816
  522MOL0     H68839   6.786  10.483   0.835 -0.7263 -1.9235 -0.4533
  522MOL0     H68840   6.536  10.489   0.810 -1.2536 -0.3029  0.1628
  522MOL0     H68841   6.357  10.287   0.937  2.4110  0.6909  1.2671
  522MOL0     H68842   6.293  10.419   0.836 -0.3083  1.5105  0.6016
  522MOL0     H68843   6.145  10.337   1.098 -4.7457 -0.7805 -0.4276
  522MOL0     H68844   6.114  10.271   0.942 -0.6029  2.0621 -1.7330
  522MOL0     H68845   6.083  10.484   0.847 -2.5517  3.6605  0.5562
  522MOL0     H68846   6.095  10.563   1.005  2.1298  0.3348 -1.1788
  522MOL0     H68847   5.852  10.499   0.940 -2.1318 -0.8556 -0.7667
  522MOL0     H68848   5.897  10.331   0.939  1.0174 -0.5148  0.0133
  522MOL0     H68849   5.793  10.497   1.159 -0.9896 -2.1688  2.4327
  522MOL0     H68850   5.969  10.497   1.186 -0.6408  1.8134 -1.7263
  522MOL0     H68851   5.885  10.319   1.337 -2.6029 -0.4689  0.8475
  522MOL0     H68852   5.944  10.242   1.195 -0.9150  0.4992 -1.1226
  522MOL0     H68853   5.659  10.310   1.274  1.7191 -0.9232  2.4479
  522MOL0     H68854   5.693  10.240   1.114  1.8854 -2.1882 -1.1073
  522MOL0     H68855   5.737  10.100   1.391 -0.6605  2.3606  0.2929
  522MOL0     H68856   5.800  10.052   1.235 -1.3082 -3.8651  1.2519
  522MOL0     H68857   5.544   9.942   1.457  2.1454 -0.3029 -0.1394
  522MOL0     H68858   5.280   9.862   1.465 -1.7091 -1.3077  0.2726
  522MOL0     H68859   5.368   9.735   1.397 -0.0863  0.8653  1.1808
  522MOL0     H68860   5.208   9.756   1.190 -0.5038  1.6698 -0.4285
  522MOL0     H68861   5.122   9.871   1.290 -1.9735 -1.2164 -2.1837
  522MOL0     H68862   5.153   9.578   1.348  0.8208 -0.8235  3.7861
  522MOL0     H68863   5.090   9.694   1.471  1.0650 -2.7523  0.5209
  522MOL0     H68864   4.903   9.752   1.343 -1.5946  0.0459 -2.0945
  522MOL0     H68865   4.907   9.581   1.356  0.0540 -0.4129  0.1495
  522MOL0     H68866   4.686   9.631   1.247 -0.6229  1.6038 -1.0512
  522MOL0     H68867   4.506   9.571   1.116 -0.5713  1.2583 -0.4231
  522MOL0     H68868   4.230   9.431   0.717 -0.6181 -3.0696  2.0825
  522MOL0     H68869   4.111   9.324   0.541  0.2233 -0.5047  2.1718
  522MOL0     H68870   4.363   9.175   0.192 -0.3899 -0.4952 -1.1428
  522MOL0     H68871   4.204   9.187   0.132 -0.8113  4.0327  1.4438
  522MOL0     H68872   4.346   8.963   0.303  2.3644 -0.8669 -3.7996
  522MOL0     H68873   4.293   8.965   0.139 -1.6251  0.3285 -0.1973
  522MOL0     H68874   4.040   9.017   0.296  1.9227  1.6974  0.5757
  522MOL0     H68875   4.135   8.922   0.397 -3.4028 -3.0451 -0.0297
  522MOL0     H68876   4.090   8.851   0.101 -2.4302 -0.4929 -0.1681
  522MOL0     H68877   4.150   8.752   0.221  1.8193  1.6572 -1.6694
  522MOL0     H68878   3.868   8.874   0.246  0.3142  0.1929 -2.1814
  522MOL0     H68879   3.940   8.768   0.358  0.1968  3.8443  0.4931
  522MOL0     H68880   3.985   8.603   0.175  0.2557  0.2212 -0.0730
  522MOL0     H68881   3.911   8.717   0.066  4.0758 -1.2270 -0.2137
  522MOL0     H68882   3.716   8.695   0.277  1.4420 -1.1472  3.6430
  522MOL0     H68883   3.704   8.634   0.117  0.3019  0.0412 -0.7550
  522MOL0     H68884   3.823   8.421   0.210  0.3130  0.0041  0.0106
  522MOL0     H68885   3.669   8.447   0.269  1.1558 -1.6788 -2.1310
  522MOL0     H68886   4.476   9.217   0.348  2.5317  0.5011  0.6527
  522MOL0     H68887   4.594   9.285   0.549 -0.2182 -1.5298  2.9390
  522MOL0     H68888   4.775   9.476   0.792  1.0698  2.7908 -1.0668
  522MOL0     H68889   4.966   9.580   0.934 -0.4971  0.0815  0.8730
  522MOL0     H68890   6.481  10.472   1.222  0.5638  1.3964  1.4065
  522MOL0     H68891   6.730  10.456   1.259 -0.3668  0.7044  0.2612
  522MOL0     H68892   7.098  10.312   1.173  0.2782 -2.2699 -0.7474
  522MOL0     H68893   7.340  10.245   1.226  0.9982  0.1768  0.8381
  522MOL0     H68894   7.671  10.470   1.031 -0.2221  0.2516  1.3379
  522MOL0     H68895   7.607  10.330   0.937 -0.7395 -0.2157 -0.0446
  522MOL0     H68896   7.741  10.179   1.072 -1.0306  0.9161 -0.8638
  522MOL0     H68897   7.836  10.297   0.970 -0.0279  0.9200 -0.2760
  522MOL0     H68898   7.787  10.386   1.252  0.2206  1.8543 -1.9921
  522MOL0     H68899   7.925  10.406   1.143  0.5918 -1.8114 -3.2811
  522MOL0     H68900   8.017  10.289   1.324 -0.4131  3.2708 -0.0209
  522MOL0     H68901   7.873  10.199   1.348 -0.6939 -1.5002  0.2251
  522MOL0     H68902   8.065   9.958   1.060  0.6954 -1.0928  0.8443
  522MOL0     H68903   7.469  10.560   0.965 -0.5050  2.2786  2.0070
  522MOL0     H68904   7.245  10.617   0.901  2.5459  0.9375 -0.1882
  523MOL0     O68905   7.263   8.467   8.101  0.5999  0.8003  0.0676
  523MOL0     C68906   7.251   8.534   7.996 -0.4438  0.0090  0.4095
  523MOL0     O68907   7.140   8.555   7.921 -0.3415  0.7262 -0.1711
  523MOL0     C68908   7.022   8.499   7.964 -0.4142 -0.2182  0.6736
  523MOL0     C68909   6.919   8.575   8.011  0.9991  0.4025 -0.1386
  523MOL0     C68910   6.787   8.509   8.027 -1.0018  0.4039 -1.0048
  523MOL0     C68911   6.757   8.376   7.981  0.0029  0.0480 -0.6835
  523MOL0     O68912   6.644   8.299   7.988 -0.3274 -0.8691  0.3347
  523MOL0     C68913   6.520   8.361   8.026  0.2641 -0.6267 -0.2730
  523MOL0     C68914   6.465   8.458   7.918 -0.4772 -0.1982  0.0628
  523MOL0     C68915   6.516   8.426   7.774  0.4564 -0.0047  0.1977
  523MOL0     C68916   6.470   8.296   7.714 -0.2333 -1.0689  0.1303
  523MOL0     C68917   6.503   8.293   7.567 -0.1290 -0.5520  0.7537
  523MOL0     C68918   6.409   8.214   7.487  0.5025  0.0651  0.1478
  523MOL0     C68919   6.457   8.186   7.344  0.1455 -1.4825  1.0124
  523MOL0     C68920   6.379   8.266   7.237 -0.9556  0.1847 -0.2084
  523MOL0     N68921   6.233   8.228   7.225 -0.4492  0.7404 -0.0401
  523MOL0     C68922   6.133   8.298   7.275  0.2990 -0.1167 -0.3759
  523MOL0     C68923   6.020   8.241   7.226  0.3068 -0.1774 -0.3797
  523MOL0     C68924   5.893   8.301   7.239 -0.4828 -0.4717  0.1090
  523MOL0     C68925   5.776   8.232   7.165  0.6933  0.1844 -0.5625
  523MOL0     C68926   5.645   8.304   7.165 -0.2430  0.3632 -0.5185
  523MOL0     C68927   5.555   8.271   7.050  0.5850  0.8683 -0.8081
  523MOL0     O68928   5.436   8.340   7.086  0.8172 -0.6744  0.7791
  523MOL0     C68929   5.316   8.311   7.033 -0.0220  0.6935 -0.5902
  523MOL0     C68930   5.295   8.264   6.904 -0.4443 -0.1969 -0.6078
  523MOL0     C68931   5.171   8.257   6.844 -0.4533  1.1322 -0.7069
  523MOL0     C68932   5.062   8.310   6.915  0.1723  0.5391  0.1937
  523MOL0     C68933   4.930   8.305   6.843  0.1546 -0.9866  0.1001
  523MOL0     O68934   4.821   8.355   6.920 -0.6292  0.4570 -0.2757
  523MOL0     C68935   4.697   8.353   6.866  0.0959  0.9450  0.3534
  523MOL0     C68936   4.640   8.471   6.816  1.0881  0.5932  0.8562
  523MOL0     C68937   4.508   8.483   6.793  1.5691 -0.2314  0.5189
  523MOL0     C68938   4.429   8.371   6.810 -0.2712 -0.1573 -0.6013
  523MOL0     O68939   4.298   8.383   6.773  0.2937 -0.3502  0.4823
  523MOL0     C68940   4.283   8.375   6.630  0.4361 -0.3771 -0.5711
  523MOL0     C68941   4.159   8.298   6.618  0.1725 -0.0740 -0.0402
  523MOL0     C68942   4.038   8.379   6.683 -0.9022 -0.3628  0.1014
  523MOL0     C68943   3.906   8.288   6.692 -0.5086 -0.4245  0.8237
  523MOL0     C68944   3.799   8.361   6.759  0.4673  0.8180 -0.6061
  523MOL0     C68945   3.653   8.315   6.742  0.4354 -0.3896 -0.4402
  523MOL0     C68946   3.565   8.397   6.838  0.0363 -0.7638 -0.5332
  523MOL0     C68947   3.417   8.342   6.840  0.9228 -0.2437  0.1666
  523MOL0    Cl68948   3.359   8.341   6.673 -0.1190  0.3691 -0.1447
  523MOL0     C68949   4.480   8.248   6.852  0.5801 -0.3476  0.0436
  523MOL0     C68950   4.618   8.239   6.873  0.1421  0.1724 -0.6055
  523MOL0     O68951   4.925   8.253   6.730 -0.1066 -0.1929  0.3615
  523MOL0     C68952   5.077   8.356   7.050  0.3523  0.0733 -0.2564
  523MOL0     C68953   5.204   8.369   7.104 -0.2357  0.1272 -0.5243
  523MOL0     N68954   6.046   8.123   7.155 -0.5657  0.1023 -0.4044
  523MOL0     N68955   6.178   8.126   7.149 -0.2603 -0.5015 -0.0457
  523MOL0     C68956   6.869   8.306   7.945  0.0450  0.5635  0.0412
  523MOL0     C68957   6.999   8.369   7.934 -0.7316 -0.7978  0.6596
  523MOL0     C68958   7.380   8.578   7.939  0.2651 -0.5304 -0.1501
  523MOL0     C68959   7.399   8.585   7.800 -0.0384  0.2587  0.4122
  523MOL0     C68960   7.527   8.633   7.748 -0.4795  0.5764 -1.0387
  523MOL0     C68961   7.626   8.692   7.830 -0.5210  0.3413 -0.7098
  523MOL0     O68962   7.728   8.757   7.766  0.0374 -0.2690 -0.5421
  523MOL0     C68963   7.798   8.850   7.851  0.0036  0.0564 -0.1314
  523MOL0     C68964   7.888   8.933   7.765  0.2851  0.8641  0.2247
  523MOL0     C68965   8.003   8.842   7.726 -0.1471 -0.4895  0.0582
  523MOL0     C68966   8.085   8.903   7.612  0.4836  0.7243  0.2460
  523MOL0     C68967   8.159   9.021   7.648  0.0609 -0.8621  0.3375
  523MOL0     C68968   8.239   9.113   7.671 -0.7613  0.3458  1.4484
  523MOL0     C68969   7.592   8.692   7.968 -1.1594  0.4379 -0.6579
  523MOL0     C68970   7.472   8.634   8.019 -0.3114 -0.9603 -0.4618
  523MOL0     H68971   6.937   8.679   8.037 -1.3147  0.9877 -0.6790
  523MOL0     H68972   6.717   8.587   8.057  1.8086  2.6497  0.1504
  523MOL0     H68973   6.522   8.410   8.124  0.1842 -1.8480  0.3514
  523MOL0     H68974   6.449   8.280   8.039  0.9364 -1.2933 -0.6964
  523MOL0     H68975   6.501   8.559   7.940  1.0536 -0.5388 -0.7134
  523MOL0     H68976   6.357   8.475   7.930 -0.0237  1.6858  2.3166
  523MOL0     H68977   6.621   8.454   7.774  0.0939  1.4613  0.3593
  523MOL0     H68978   6.473   8.506   7.713  1.5684  1.2630  1.0274
  523MOL0     H68979   6.504   8.205   7.763 -0.8706 -3.6047 -3.6523
  523MOL0     H68980   6.361   8.295   7.722 -0.3460 -2.2142 -1.1143
  523MOL0     H68981   6.602   8.247   7.554  0.3690  0.6324  0.2277
  523MOL0     H68982   6.512   8.394   7.525  1.6253 -0.7290  0.6143
  523MOL0     H68983   6.311   8.262   7.477 -0.3031 -1.6495 -0.7261
  523MOL0     H68984   6.393   8.119   7.540  1.4793  0.0716  0.4807
  523MOL0     H68985   6.563   8.213   7.340 -0.1182 -0.3179  1.2861
  523MOL0     H68986   6.439   8.084   7.309 -0.9349 -0.6348 -1.1207
  523MOL0     H68987   6.432   8.255   7.142 -0.1160  1.4775  0.0741
  523MOL0     H68988   6.392   8.374   7.242 -0.7547  0.2791 -2.1637
  523MOL0     H68989   6.135   8.397   7.319 -3.5447 -0.5192  1.1041
  523MOL0     H68990   5.896   8.405   7.206  1.1737 -0.8789 -1.1880
  523MOL0     H68991   5.873   8.296   7.347  0.5367 -1.4836  0.2723
  523MOL0     H68992   5.757   8.131   7.203  1.0875  0.1075 -0.5630
  523MOL0     H68993   5.810   8.214   7.063  2.9923 -0.5630  0.2685
  523MOL0     H68994   5.591   8.287   7.258 -0.5926  2.8663 -0.1961
  523MOL0     H68995   5.673   8.410   7.166  3.9132 -0.4158 -4.1487
  523MOL0     H68996   5.546   8.163   7.030 -0.2357  1.2510 -2.7428
  523MOL0     H68997   5.608   8.298   6.958  1.4428 -0.1769 -0.6515
  523MOL0     H68998   5.382   8.232   6.847  0.3569  1.4750 -0.3645
  523MOL0     H68999   5.177   8.242   6.737 -2.3515  2.6828 -1.0818
  523MOL0     H69000   4.701   8.561   6.813  1.2507  0.4872  0.9472
  523MOL0     H69001   4.458   8.574   6.762  0.2800 -0.4361  1.8840
  523MOL0     H69002   4.363   8.314   6.585  2.6101  1.2402  0.9023
  523MOL0     H69003   4.276   8.475   6.584  0.7480  0.5697  1.3555
  523MOL0     H69004   4.179   8.207   6.674  1.0437 -0.0182 -0.2545
  523MOL0     H69005   4.141   8.296   6.510  4.2739  0.1709 -0.8663
  523MOL0     H69006   4.009   8.469   6.629  0.1235  0.9424  1.6466
  523MOL0     H69007   4.061   8.422   6.781 -0.1595  0.7320 -0.5333
  523MOL0     H69008   3.864   8.269   6.593 -1.3718 -0.2587  1.1481
  523MOL0     H69009   3.925   8.192   6.741 -1.2289 -0.5785  0.8075
  523MOL0     H69010   3.809   8.463   6.721 -1.2970 -0.1292 -3.9632
  523MOL0     H69011   3.816   8.354   6.867  1.7454  1.4414 -0.7476
  523MOL0     H69012   3.639   8.211   6.772  0.1931  0.3613  2.4271
  523MOL0     H69013   3.619   8.327   6.639  1.3532 -2.8786 -1.1061
  523MOL0     H69014   3.606   8.401   6.939 -0.8721  0.6742 -0.1928
  523MOL0     H69015   3.581   8.500   6.804 -0.6620  0.6276  3.0260
  523MOL0     H69016   3.354   8.419   6.886 -1.2984 -2.5743  1.2997
  523MOL0     H69017   3.395   8.251   6.896 -1.9743  1.0463  1.3562
  523MOL0     H69018   4.415   8.166   6.882  2.6605 -1.8111  0.7312
  523MOL0     H69019   4.667   8.149   6.910 -2.7434 -0.9824  0.7385
  523MOL0     H69020   4.990   8.395   7.103  2.2317  1.6190  1.9192
  523MOL0     H69021   5.211   8.413   7.203 -2.5344  0.1968 -0.3414
  523MOL0     H69022   6.854   8.199   7.935 -3.2384  0.8756  0.4391
  523MOL0     H69023   7.081   8.304   7.904  1.6071 -0.6098  5.5927
  523MOL0     H69024   7.328   8.544   7.729  0.0099 -0.5235  0.8027
  523MOL0     H69025   7.532   8.624   7.640  1.6110  0.9050 -1.0108
  523MOL0     H69026   7.859   8.791   7.921  0.5009 -0.0072 -0.6129
  523MOL0     H69027   7.730   8.920   7.900  0.9480  0.8389  0.1073
  523MOL0     H69028   7.843   8.974   7.674  2.6629  2.1034 -0.4622
  523MOL0     H69029   7.917   9.021   7.822 -0.1452  2.9307 -2.5350
  523MOL0     H69030   7.952   8.753   7.688 -3.8707  1.0209  1.0538
  523MOL0     H69031   8.063   8.815   7.813  0.8345  1.1958 -0.0405
  523MOL0     H69032   8.165   8.834   7.586 -0.0312 -0.7416  2.3508
  523MOL0     H69033   8.026   8.938   7.526  1.2847  1.5298  0.0003
  523MOL0     H69034   8.320   9.179   7.692  0.8642 -1.0043 -0.1679
  523MOL0     H69035   7.660   8.744   8.034 -1.6216  0.9443 -0.5765
  523MOL0     H69036   7.454   8.634   8.126  2.1801 -0.0591  0.0270
  524MOL0     O69037   2.847   7.763   3.970  0.0020 -0.2866  0.0468
  524MOL0     C69038   2.897   7.862   4.021  0.6254 -0.5062  0.2123
  524MOL0     O69039   2.833   7.951   4.104 -0.4223  0.1576 -0.4645
  524MOL0     C69040   2.701   7.921   4.143 -0.0824 -0.3813  0.4951
  524MOL0     C69041   2.661   7.910   4.276 -0.0421  0.5106 -0.6419
  524MOL0     C69042   2.531   7.870   4.303  0.5331  0.0805 -0.6629
  524MOL0     C69043   2.434   7.862   4.210 -0.3257  0.1998  0.6919
  524MOL0     O69044   2.312   7.834   4.255 -1.0182 -0.0001 -0.3979
  524MOL0     C69045   2.212   7.799   4.156  0.4350  0.1938 -0.0778
  524MOL0     C69046   2.098   7.750   4.237 -0.0390  0.0860 -0.7489
  524MOL0     C69047   1.985   7.703   4.143 -0.5538  0.2198  0.5040
  524MOL0     C69048   1.842   7.708   4.210  0.1991  0.1452  0.3268
  524MOL0     C69049   1.732   7.697   4.098  0.1322  0.1792 -0.6124
  524MOL0     C69050   1.596   7.658   4.172  0.4928 -0.3171  1.8366
  524MOL0     C69051   1.463   7.677   4.096  0.9564 -0.4964 -0.4661
  524MOL0     C69052   1.355   7.581   4.141 -0.5430  0.5070  0.7128
  524MOL0     N69053   1.233   7.592   4.057  0.7750 -0.1364 -0.9916
  524MOL0     C69054   1.192   7.527   3.942 -0.0150 -0.6453  0.4621
  524MOL0     C69055   1.066   7.570   3.925  0.4562  0.8530 -0.4895
  524MOL0     C69056   0.967   7.531   3.818  0.3850 -0.1910 -0.0267
  524MOL0     C69057   0.981   7.389   3.780 -0.3451 -0.4622  0.7711
  524MOL0     C69058   0.862   7.344   3.690  0.7911 -0.1431  0.5843
  524MOL0     C69059   0.730   7.319   3.764  1.0608 -0.5057 -0.8554
  524MOL0     O69060   0.643   7.240   3.681  0.5017 -0.9232  0.1195
  524MOL0     C69061   0.509   7.229   3.718 -0.0487 -0.2032 -0.6946
  524MOL0     C69062   0.423   7.184   3.628  0.8548 -0.5313  0.1479
  524MOL0     C69063   0.280   7.172   3.655 -0.1328  0.7362 -0.3824
  524MOL0     C69064   0.233   7.206   3.787 -0.0486 -0.0918  0.0788
  524MOL0     C69065   0.082   7.207   3.811 -0.7826 -0.2160 -0.2297
  524MOL0     O69066   0.005   7.114   3.749 -0.6168  0.1861 -0.2809
  524MOL0     C69067  -0.110   7.089   3.807  0.8820 -0.0845 -0.1811
  524MOL0     C69068  -0.228   7.123   3.736 -0.8051  0.2141  0.1001
  524MOL0     C69069  -0.356   7.090   3.771  0.3062  0.5860 -0.4932
  524MOL0     C69070  -0.377   7.018   3.898 -1.6170 -0.0873  0.3164
  524MOL0     O69071  -0.503   7.018   3.952  0.5339  0.5336  0.1783
  524MOL0     C69072  -0.517   6.975   4.091 -0.2347 -0.1638  0.4967
  524MOL0     C69073  -0.664   6.977   4.139  0.4798 -0.6084 -0.4399
  524MOL0     C69074  -0.741   7.111   4.122  0.9469 -0.4693  0.8023
  524MOL0     C69075  -0.855   7.100   4.216  0.7911 -0.3218 -0.6373
  524MOL0     C69076  -0.975   7.029   4.158  0.1712 -0.6567  0.8910
  524MOL0     C69077  -1.087   7.024   4.260 -0.3099 -0.9111 -0.2634
  524MOL0     C69078  -1.200   6.917   4.230  0.8713 -0.5147  0.3145
  524MOL0     C69079  -1.335   6.966   4.290  0.4065  0.0912  0.8342
  524MOL0    Cl69080  -1.330   6.935   4.466  0.0423  0.0085 -0.0947
  524MOL0     C69081  -0.262   6.981   3.966  0.2176  0.5880  0.0365
  524MOL0     C69082  -0.130   7.008   3.919 -0.3238  0.2740 -0.3003
  524MOL0     O69083   0.041   7.287   3.899 -0.5910  0.8002  0.1708
  524MOL0     C69084   0.320   7.262   3.877 -0.7454  0.6934 -0.3224
  524MOL0     C69085   0.459   7.265   3.850  0.5803  0.2428  0.2898
  524MOL0     N69086   1.046   7.669   4.026 -0.1563 -0.0084 -0.4586
  524MOL0     N69087   1.144   7.683   4.103  0.1213 -0.9248  0.1473
  524MOL0     C69088   2.463   7.897   4.076  0.5168  0.3795 -0.0330
  524MOL0     C69089   2.600   7.923   4.044  0.4020  0.0536 -0.4337
  524MOL0     C69090   3.035   7.884   3.963  1.1637  1.1962  0.3381
  524MOL0     C69091   3.091   7.807   3.856  0.7771 -0.1795  0.2592
  524MOL0     C69092   3.220   7.823   3.819 -0.0990 -0.1846 -0.2103
  524MOL0     C69093   3.304   7.913   3.883 -0.7835  0.4164  0.5494
  524MOL0     O69094   3.438   7.912   3.838 -1.2915  0.9266 -0.0909
  524MOL0     C69095   3.531   7.989   3.919  0.5673 -0.5166  0.5224
  524MOL0     C69096   3.659   7.977   3.835  0.3040 -0.0977 -0.5349
  524MOL0     C69097   3.787   8.005   3.918 -0.2125  0.2427  0.7115
  524MOL0     C69098   3.807   8.155   3.934 -0.1657 -0.4216 -0.7808
  524MOL0     C69099   3.935   8.166   4.001 -0.4068  0.1728  0.1058
  524MOL0     C69100   4.035   8.189   4.069 -0.2910 -0.9546 -0.4737
  524MOL0     C69101   3.256   7.990   3.986  0.2214 -0.6603 -0.3345
  524MOL0     C69102   3.118   7.980   4.020  0.0541 -0.2284 -0.6358
  524MOL0     H69103   2.733   7.917   4.358 -1.5644 -2.1626  1.0519
  524MOL0     H69104   2.499   7.863   4.407 -2.0466 -3.2304 -1.5110
  524MOL0     H69105   2.256   7.719   4.097  1.3920  1.3518 -0.9755
  524MOL0     H69106   2.183   7.887   4.097  0.2964  0.2912  0.1337
  524MOL0     H69107   2.061   7.833   4.298 -1.2162 -1.5033  0.7654
  524MOL0     H69108   2.123   7.668   4.305  0.9365  2.0424  1.4067
  524MOL0     H69109   1.992   7.599   4.109 -1.9833  0.0294  0.7159
  524MOL0     H69110   1.992   7.761   4.050 -1.4448 -0.1012  0.2260
  524MOL0     H69111   1.843   7.617   4.272 -1.2565  0.3235  0.6575
  524MOL0     H69112   1.832   7.799   4.270  0.8448  2.7801 -3.2484
  524MOL0     H69113   1.759   7.624   4.020  0.2130 -0.3070 -0.1328
  524MOL0     H69114   1.732   7.796   4.052  0.6018  1.1527  1.3920
  524MOL0     H69115   1.587   7.727   4.256 -1.2275  0.1827  1.2802
  524MOL0     H69116   1.587   7.556   4.209 -1.5357 -1.2403 -0.8432
  524MOL0     H69117   1.428   7.781   4.104  1.9708 -0.2068  0.4310
  524MOL0     H69118   1.481   7.665   3.989 -4.2399 -2.4119 -1.4399
  524MOL0     H69119   1.325   7.593   4.245 -1.1119 -0.0750  0.6187
  524MOL0     H69120   1.390   7.478   4.130 -0.5855  0.4349  1.2364
  524MOL0     H69121   1.247   7.462   3.875 -0.3924 -0.5597  0.0607
  524MOL0     H69122   0.992   7.587   3.727 -2.4368  0.5092 -0.4854
  524MOL0     H69123   0.872   7.554   3.868  0.9446  4.6862 -0.7329
  524MOL0     H69124   0.980   7.318   3.863 -1.1419 -0.4955  0.7384
  524MOL0     H69125   1.075   7.373   3.726 -2.1211  0.9890 -3.1348
  524MOL0     H69126   0.843   7.407   3.602  0.0849 -2.8407 -1.3199
  524MOL0     H69127   0.891   7.245   3.654  2.1388  0.4281  0.0106
  524MOL0     H69128   0.691   7.419   3.786 -1.2329 -1.1991 -1.4323
  524MOL0     H69129   0.754   7.279   3.863 -0.3032 -0.4927 -0.5012
  524MOL0     H69130   0.455   7.156   3.528 -0.0257 -1.5298  0.1289
  524MOL0     H69131   0.202   7.139   3.586  0.8947 -1.2241 -0.6888
  524MOL0     H69132  -0.210   7.181   3.646 -0.4790 -0.3895 -0.2322
  524MOL0     H69133  -0.447   7.118   3.719 -0.4824 -0.5416  0.2053
  524MOL0     H69134  -0.461   7.050   4.147 -2.0648 -0.6770  3.2395
  524MOL0     H69135  -0.492   6.870   4.107 -2.1441 -0.9042 -0.9749
  524MOL0     H69136  -0.656   6.948   4.244 -0.1869 -0.6737 -0.3978
  524MOL0     H69137  -0.720   6.897   4.089  1.3055 -0.6106 -1.3909
  524MOL0     H69138  -0.777   7.121   4.020  1.2031 -2.2179  0.5022
  524MOL0     H69139  -0.672   7.191   4.148 -1.3077  1.8301  0.0938
  524MOL0     H69140  -0.832   7.048   4.310 -1.5159  1.3624  0.9941
  524MOL0     H69141  -0.894   7.199   4.243 -0.3068 -0.0474 -2.9683
  524MOL0     H69142  -0.948   6.925   4.140 -1.7258 -1.1076  0.3665
  524MOL0     H69143  -1.001   7.069   4.059  0.2988 -2.3574  0.1489
  524MOL0     H69144  -1.141   7.119   4.264  1.5227  0.1356  0.7467
  524MOL0     H69145  -1.054   7.014   4.363 -4.0763 -0.1598  1.1586
  524MOL0     H69146  -1.218   6.918   4.122 -2.4330  1.7661  0.7384
  524MOL0     H69147  -1.185   6.814   4.262 -1.0124 -0.5154  1.3331
  524MOL0     H69148  -1.422   6.921   4.240  1.8807  0.2343 -2.0255
  524MOL0     H69149  -1.348   7.071   4.263 -1.0364 -0.2753 -0.0069
  524MOL0     H69150  -0.266   6.931   4.062 -0.1411  0.1153 -0.2234
  524MOL0     H69151  -0.036   6.981   3.968  0.0697  0.4492 -0.9455
  524MOL0     H69152   0.277   7.313   3.963 -0.8826 -1.2874  0.8518
  524MOL0     H69153   0.517   7.320   3.923 -0.2451  0.3196  0.9059
  524MOL0     H69154   2.383   7.903   4.004 -0.2929 -2.8227  0.4399
  524MOL0     H69155   2.626   7.935   3.939 -0.7871  1.3672 -0.6027
  524MOL0     H69156   3.024   7.745   3.797  0.4582 -0.9983  1.4611
  524MOL0     H69157   3.270   7.785   3.731  0.5036  1.2506 -0.5294
  524MOL0     H69158   3.541   7.951   4.020 -1.0455 -0.9606  0.5403
  524MOL0     H69159   3.500   8.094   3.927 -1.3492 -1.0202  0.1542
  524MOL0     H69160   3.671   7.880   3.786 -5.3125  0.2101 -3.2675
  524MOL0     H69161   3.649   8.043   3.748  0.4947 -1.0380 -1.2845
  524MOL0     H69162   3.875   7.964   3.867 -1.0625  0.5501 -1.1016
  524MOL0     H69163   3.782   7.954   4.014  2.7239 -0.4494  0.6036
  524MOL0     H69164   3.810   8.209   3.839  1.4442  1.0257  0.0402
  524MOL0     H69165   3.734   8.202   4.001  0.4976 -2.0699  1.2049
  524MOL0     H69166   4.126   8.197   4.126 -1.7037 -2.0619  2.1378
  524MOL0     H69167   3.304   8.067   4.046 -2.9683  2.1962 -1.1549
  524MOL0     H69168   3.083   8.046   4.098  5.0405  2.4323 -0.2408
  525MOL0     O69169   3.722   5.319   7.764 -0.6460 -0.5247  0.8590
  525MOL0     C69170   3.716   5.214   7.831  0.1539  0.4295 -0.2340
  525MOL0     O69171   3.824   5.141   7.869  0.1907  0.0558 -0.0329
  525MOL0     C69172   3.954   5.181   7.852  0.7516 -0.1607  0.3499
  525MOL0     C69173   4.005   5.272   7.944 -0.6720  0.3577  0.1551
  525MOL0     C69174   4.141   5.295   7.947  0.0558 -0.2100 -0.5356
  525MOL0     C69175   4.228   5.230   7.864 -1.0611 -0.3474 -1.6053
  525MOL0     O69176   4.368   5.267   7.869  0.5169 -0.5546 -0.3033
  525MOL0     C69177   4.472   5.192   7.824 -0.7471  0.4392  0.6445
  525MOL0     C69178   4.618   5.252   7.838  0.2912 -0.2169  0.2653
  525MOL0     C69179   4.638   5.375   7.755 -0.0498  0.4606 -0.4508
  525MOL0     C69180   4.784   5.408   7.757 -0.0944  0.1184  0.6854
  525MOL0     C69181   4.822   5.520   7.654 -0.3211 -0.2326 -0.1747
  525MOL0     C69182   4.963   5.574   7.665  0.7624 -0.4462  0.3375
  525MOL0     C69183   5.002   5.664   7.544  1.1870 -0.0206 -0.6897
  525MOL0     C69184   5.129   5.744   7.563 -0.5969  0.7629 -0.6406
  525MOL0     N69185   5.134   5.839   7.678 -0.3972  0.5048  0.2425
  525MOL0     C69186   5.182   5.816   7.808 -0.3317 -0.2727  1.0209
  525MOL0     C69187   5.180   5.942   7.865 -0.3369  0.7428 -0.8030
  525MOL0     C69188   5.215   5.959   8.008 -0.5483 -0.0317  0.3695
  525MOL0     C69189   5.135   5.878   8.110  0.9518  0.9481  0.4434
  525MOL0     C69190   5.001   5.935   8.127 -0.0842  0.5186  0.2036
  525MOL0     C69191   4.914   5.852   8.218 -0.2733 -0.6291  0.7930
  525MOL0     O69192   4.892   5.724   8.151  0.6859 -0.3469  0.7715
  525MOL0     C69193   4.759   5.711   8.126 -0.3380 -0.6604 -0.6557
  525MOL0     C69194   4.692   5.619   8.198 -0.7743 -0.2795  0.6867
  525MOL0     C69195   4.556   5.607   8.176 -0.1726  0.3776 -0.9761
  525MOL0     C69196   4.495   5.689   8.074  0.5979 -0.0805  0.1615
  525MOL0     C69197   4.351   5.687   8.072  0.2965  0.7441 -0.2025
  525MOL0     O69198   4.291   5.737   7.962 -0.1583 -1.0537 -0.6261
  525MOL0     C69199   4.157   5.714   7.951  0.4436 -0.3328 -0.6332
  525MOL0     C69200   4.058   5.782   8.025  0.0256  0.4111 -0.4940
  525MOL0     C69201   3.927   5.731   8.019  1.4118  0.1896  0.0728
  525MOL0     C69202   3.889   5.625   7.928  0.7854 -0.0756 -0.3841
  525MOL0     O69203   3.759   5.589   7.923 -0.5558  0.8770  0.4115
  525MOL0     C69204   3.708   5.522   8.041  0.6046  0.5192  0.4269
  525MOL0     C69205   3.563   5.560   8.072 -0.7172  1.0460  0.1254
  525MOL0     C69206   3.532   5.710   8.080  0.4247  0.0407  0.9835
  525MOL0     C69207   3.386   5.730   8.134 -0.2225 -0.1549  0.2454
  525MOL0     C69208   3.323   5.845   8.055 -0.0110  0.1092 -0.8238
  525MOL0     C69209   3.178   5.886   8.105  0.2121  0.6264 -0.0973
  525MOL0     C69210   3.080   5.777   8.124  1.5472  0.1546 -0.5180
  525MOL0     C69211   3.052   5.693   8.002  0.3827 -0.7650  0.3186
  525MOL0    Cl69212   3.036   5.786   7.857 -0.0740 -0.0778 -0.2616
  525MOL0     C69213   3.985   5.580   7.843  0.1899  1.2742  0.1076
  525MOL0     C69214   4.114   5.623   7.849 -0.1426 -0.1134 -0.1873
  525MOL0     O69215   4.293   5.642   8.173  0.4147 -0.0484  0.4359
  525MOL0     C69216   4.572   5.774   7.990 -0.3591  0.5217 -0.7034
  525MOL0     C69217   4.704   5.777   8.017  0.1347  0.4126  0.0724
  525MOL0     N69218   5.129   6.035   7.785  0.0225 -0.5862  0.6905
  525MOL0     N69219   5.103   5.979   7.672  0.2335  0.4305  0.0150
  525MOL0     C69220   4.171   5.138   7.782  0.2828  1.1499 -0.4744
  525MOL0     C69221   4.034   5.114   7.770  0.2015 -0.2292 -0.6573
  525MOL0     C69222   3.584   5.168   7.865 -0.2692  0.3124 -0.2356
  525MOL0     C69223   3.568   5.031   7.912  0.1166  0.4236  0.3774
  525MOL0     C69224   3.444   5.000   7.968 -0.6301 -0.2172  0.9241
  525MOL0     C69225   3.336   5.085   7.970  0.0083  0.1450  0.0824
  525MOL0     O69226   3.222   5.048   8.034 -0.0622 -0.5564 -0.0441
  525MOL0     C69227   3.098   5.113   7.988 -0.5179  0.2495  0.1322
  525MOL0     C69228   2.974   5.034   8.028 -0.4118 -0.3518  1.2463
  525MOL0     C69229   2.961   5.005   8.174 -0.4202 -0.2730 -0.1106
  525MOL0     C69230   2.830   5.053   8.231  0.3981 -0.0124  0.1873
  525MOL0     C69231   2.709   4.989   8.184 -0.9341  0.5717  0.6260
  525MOL0     C69232   2.622   4.920   8.123 -0.8377  0.6861  0.2382
  525MOL0     C69233   3.354   5.211   7.909  0.0942  0.2442  0.7596
  525MOL0     C69234   3.481   5.258   7.860 -0.3616  1.2927  0.2363
  525MOL0     H69235   3.931   5.315   8.011  0.5955 -0.1244  1.9306
  525MOL0     H69236   4.196   5.364   8.010  2.6955 -1.0963 -1.7223
  525MOL0     H69237   4.447   5.178   7.719 -3.4378  2.1197  0.9673
  525MOL0     H69238   4.467   5.091   7.865  0.2106  0.2070  0.2124
  525MOL0     H69239   4.691   5.173   7.815  0.0453 -0.9467  1.8455
  525MOL0     H69240   4.628   5.279   7.944 -1.8343  1.9077  0.0021
  525MOL0     H69241   4.578   5.461   7.788  0.7632 -0.2271  3.3507
  525MOL0     H69242   4.610   5.346   7.654 -1.9369 -0.3791  0.2594
  525MOL0     H69243   4.818   5.443   7.855  1.6061  0.6446 -0.0506
  525MOL0     H69244   4.846   5.320   7.738 -0.9057 -0.1700 -0.7844
  525MOL0     H69245   4.749   5.599   7.672 -1.8527 -1.7891  0.8007
  525MOL0     H69246   4.804   5.476   7.556 -1.5915 -0.4384  0.1377
  525MOL0     H69247   5.020   5.482   7.653  0.8099 -0.3566 -0.1265
  525MOL0     H69248   4.976   5.627   7.760  1.0265 -0.0002  0.0593
  525MOL0     H69249   5.011   5.605   7.452 -1.0165  0.3755 -1.2334
  525MOL0     H69250   4.924   5.740   7.536  1.1585  0.1012  0.5892
  525MOL0     H69251   5.131   5.804   7.472 -0.8012  0.2326 -1.0016
  525MOL0     H69252   5.207   5.668   7.569 -2.3105 -1.0171  3.9204
  525MOL0     H69253   5.199   5.725   7.865  2.6119  1.1531  2.6863
  525MOL0     H69254   5.203   6.064   8.037  0.4276  0.9250 -2.3658
  525MOL0     H69255   5.321   5.929   8.010 -0.8392 -1.0537  1.0583
  525MOL0     H69256   5.190   5.865   8.204  1.9009 -1.4480 -0.3623
  525MOL0     H69257   5.132   5.773   8.078  1.8440  0.6254  1.3400
  525MOL0     H69258   5.009   6.037   8.166 -2.7766  0.5130  0.9149
  525MOL0     H69259   4.950   5.947   8.032 -1.7051  0.8546  1.0861
  525MOL0     H69260   4.820   5.907   8.233 -0.0110  0.3284 -0.7778
  525MOL0     H69261   4.939   5.838   8.323 -1.6999  3.1832  1.7866
  525MOL0     H69262   4.741   5.557   8.272 -0.2499  0.3810  0.9045
  525MOL0     H69263   4.504   5.534   8.237  1.2137 -1.6568 -2.0653
  525MOL0     H69264   4.078   5.866   8.091  0.6570  0.0677 -0.2353
  525MOL0     H69265   3.836   5.761   8.070  1.7791  2.0663 -0.2932
  525MOL0     H69266   3.767   5.546   8.130  0.4739 -0.6203  0.8406
  525MOL0     H69267   3.715   5.414   8.030  2.6553  0.6922 -0.3093
  525MOL0     H69268   3.535   5.518   8.169  1.2413 -0.7760  0.0006
  525MOL0     H69269   3.496   5.517   7.997 -0.0779  1.8420 -0.9410
  525MOL0     H69270   3.541   5.758   7.982  0.4131 -0.5354  0.6945
  525MOL0     H69271   3.608   5.759   8.141  0.9770  0.6773 -0.1759
  525MOL0     H69272   3.332   5.637   8.112  1.2937 -1.0050 -0.0791
  525MOL0     H69273   3.395   5.755   8.240 -0.6842  2.6661 -0.3193
  525MOL0     H69274   3.312   5.803   7.955 -0.8567 -1.9155  0.0568
  525MOL0     H69275   3.385   5.935   8.056  3.2869 -2.0126  0.3200
  525MOL0     H69276   3.128   5.960   8.041 -2.0924  1.0065  1.9784
  525MOL0     H69277   3.193   5.938   8.200  2.7595 -0.0594 -0.0692
  525MOL0     H69278   3.098   5.723   8.217 -4.2282  1.7042  1.9959
  525MOL0     H69279   2.984   5.825   8.149  0.7406 -0.5610 -2.1000
  525MOL0     H69280   2.956   5.639   8.000 -0.1345  0.1364 -1.7242
  525MOL0     H69281   3.122   5.610   7.984  1.6805  0.2475  0.5579
  525MOL0     H69282   3.960   5.507   7.766  0.9837  2.2917 -1.1536
  525MOL0     H69283   4.197   5.586   7.790 -1.1859  0.9451 -2.4119
  525MOL0     H69284   4.520   5.835   7.917  0.7901  1.1213 -1.0418
  525MOL0     H69285   4.776   5.840   7.964  2.5419 -1.0256  1.4870
  525MOL0     H69286   4.231   5.088   7.707 -0.7438 -2.6895  1.0213
  525MOL0     H69287   3.983   5.049   7.700 -1.7898 -1.0273  1.4234
  525MOL0     H69288   3.650   4.960   7.919  0.0360 -0.0554 -2.2829
  525MOL0     H69289   3.448   4.895   7.996  1.6812 -0.9844 -1.7847
  525MOL0     H69290   3.092   5.118   7.879  0.2800  1.0397  0.1101
  525MOL0     H69291   3.091   5.213   8.034  0.7327 -0.7331  2.6467
  525MOL0     H69292   2.896   5.106   8.004 -0.3906  1.1327  4.9791
  525MOL0     H69293   2.954   4.947   7.965 -1.8854  0.7850  0.0965
  525MOL0     H69294   3.044   5.055   8.223 -1.0167  0.4283  0.2014
  525MOL0     H69295   2.973   4.898   8.195 -0.5477  0.1647  2.5234
  525MOL0     H69296   2.842   5.041   8.339 -1.8352 -3.4643  0.1976
  525MOL0     H69297   2.811   5.160   8.217 -0.6967 -0.1029  0.8792
  525MOL0     H69298   2.549   4.865   8.067  1.6269 -1.7959 -0.7630
  525MOL0     H69299   3.272   5.282   7.904 -0.1162  0.0460  1.3652
  525MOL0     H69300   3.499   5.356   7.816  1.4516 -0.4753 -3.4925
  526MOL0     O69301   2.870   2.472   2.368 -0.0535 -0.2010 -0.3974
  526MOL0     C69302   2.909   2.571   2.431 -0.0307  0.9470  0.4905
  526MOL0     O69303   2.824   2.646   2.505  0.3445 -0.6066  0.2433
  526MOL0     C69304   2.707   2.585   2.541 -0.3833 -0.0210 -0.7548
  526MOL0     C69305   2.699   2.515   2.657  0.4737  0.0998  0.5587
  526MOL0     C69306   2.574   2.472   2.703 -0.3561 -0.7216 -0.4161
  526MOL0     C69307   2.457   2.492   2.626 -0.6070  0.2342 -0.6305
  526MOL0     O69308   2.329   2.459   2.666  0.7845 -0.1812 -0.2100
  526MOL0     C69309   2.308   2.444   2.808 -0.0566  0.3874  0.1069
  526MOL0     C69310   2.159   2.443   2.835  0.2343  0.7937  1.3030
  526MOL0     C69311   2.090   2.570   2.772  0.3091  0.1004 -0.7082
  526MOL0     C69312   1.987   2.643   2.863  0.8217 -0.2757  0.3014
  526MOL0     C69313   1.902   2.726   2.765  0.2066  0.8302 -0.0675
  526MOL0     C69314   1.783   2.797   2.836 -0.0606  0.6540  0.4427
  526MOL0     C69315   1.683   2.704   2.899  0.3102 -0.0010 -0.2284
  526MOL0     C69316   1.558   2.794   2.929  0.1211 -0.1090 -0.7912
  526MOL0     N69317   1.448   2.729   2.999 -0.3853 -0.3890 -0.2785
  526MOL0     C69318   1.410   2.754   3.130 -0.8390 -0.1126  0.3051
  526MOL0     C69319   1.325   2.646   3.163  0.1608  0.1445 -0.1143
  526MOL0     C69320   1.250   2.617   3.294  0.3804 -0.2297 -0.8984
  526MOL0     C69321   1.301   2.481   3.360  0.5801 -0.4506  0.1960
  526MOL0     C69322   1.208   2.394   3.446 -0.4269  0.3021  0.7459
  526MOL0     C69323   1.062   2.439   3.445  0.4812  0.7786  0.0303
  526MOL0     O69324   1.014   2.369   3.569  0.5643  0.7191  0.6852
  526MOL0     C69325   0.879   2.358   3.581  0.1754  0.0778  0.5496
  526MOL0     C69326   0.824   2.248   3.628 -0.1981 -0.3531 -0.1029
  526MOL0     C69327   0.688   2.233   3.649  0.5545 -0.4022 -0.1539
  526MOL0     C69328   0.603   2.339   3.630  1.0138 -0.3665 -0.5935
  526MOL0     C69329   0.469   2.330   3.675  0.7763 -1.1996 -0.1568
  526MOL0     O69330   0.419   2.203   3.678 -0.5123  0.1993  0.5284
  526MOL0     C69331   0.286   2.188   3.721  0.2886  0.6171 -0.0299
  526MOL0     C69332   0.258   2.195   3.858  0.4426 -0.0933 -0.2471
  526MOL0     C69333   0.137   2.154   3.902 -0.4485 -0.9477 -0.5540
  526MOL0     C69334   0.031   2.115   3.828 -0.8947 -0.2707 -0.9248
  526MOL0     O69335  -0.087   2.075   3.882 -0.1251  0.8545  0.5143
  526MOL0     C69336  -0.069   1.952   3.961 -0.4342  0.8714  0.8212
  526MOL0     C69337  -0.199   1.883   4.001  0.4786  0.0063 -0.5491
  526MOL0     C69338  -0.295   1.984   4.071  0.1100 -0.4065  0.5177
  526MOL0     C69339  -0.239   2.044   4.203 -0.5988  0.2247  0.0493
  526MOL0     C69340  -0.337   2.129   4.288  0.0112  0.1894 -0.2394
  526MOL0     C69341  -0.284   2.160   4.428  0.5193  0.2568 -0.1535
  526MOL0     C69342  -0.383   2.246   4.503  0.1311 -0.0616 -0.1413
  526MOL0     C69343  -0.516   2.173   4.537  0.7418  0.0457  0.2154
  526MOL0    Cl69344  -0.645   2.237   4.431 -0.5467 -0.1534 -0.3858
  526MOL0     C69345   0.042   2.132   3.689 -0.0796  0.8249  0.4931
  526MOL0     C69346   0.171   2.167   3.629 -0.1843  0.7408 -0.0512
  526MOL0     O69347   0.398   2.436   3.668  0.7050  0.9133  0.1522
  526MOL0     C69348   0.655   2.458   3.579  0.0704 -0.0903 -0.2702
  526MOL0     C69349   0.792   2.468   3.559  0.5946 -0.1288 -0.6027
  526MOL0     N69350   1.311   2.570   3.042 -0.4031  0.6759 -0.2806
  526MOL0     N69351   1.379   2.618   2.949  0.0886 -0.2170 -0.1856
  526MOL0     C69352   2.470   2.569   2.510  0.2473 -0.5375 -0.2735
  526MOL0     C69353   2.594   2.619   2.472  0.6514 -0.8618  0.4445
  526MOL0     C69354   3.053   2.602   2.424  0.4219 -0.1193  0.1157
  526MOL0     C69355   3.145   2.539   2.334 -0.3596  0.1606 -0.2589
  526MOL0     C69356   3.277   2.551   2.370 -0.3138 -0.2175  0.0125
  526MOL0     C69357   3.332   2.628   2.475 -0.6535  0.0750  0.6907
  526MOL0     O69358   3.465   2.653   2.515  0.3043  0.0038 -0.4401
  526MOL0     C69359   3.560   2.556   2.475 -0.6384 -0.2157 -0.1437
  526MOL0     C69360   3.688   2.548   2.566 -0.1278  0.3086  0.6006
  526MOL0     C69361   3.752   2.687   2.555  0.2612  0.2527 -0.7025
  526MOL0     C69362   3.891   2.701   2.624  0.2553  0.3502 -0.6638
  526MOL0     C69363   3.965   2.814   2.568 -1.0749 -0.1225  0.0076
  526MOL0     C69364   4.009   2.915   2.527  0.0442  0.2824  0.5170
  526MOL0     C69365   3.239   2.696   2.553  0.4509  0.1150 -0.2351
  526MOL0     C69366   3.100   2.686   2.524 -0.0651 -0.7044 -0.1001
  526MOL0     H69367   2.790   2.501   2.715  0.6596 -0.5875  0.1106
  526MOL0     H69368   2.570   2.407   2.790 -0.2833  1.2626  1.1378
  526MOL0     H69369   2.357   2.521   2.868 -1.1851  0.9952  0.2635
  526MOL0     H69370   2.358   2.358   2.853  2.8758  2.6006  1.3991
  526MOL0     H69371   2.144   2.432   2.943 -0.3287  1.6172  1.3204
  526MOL0     H69372   2.102   2.358   2.797 -0.5673  1.8445  0.0830
  526MOL0     H69373   2.037   2.546   2.679  0.4829 -2.1728 -0.2867
  526MOL0     H69374   2.175   2.631   2.740  2.5006 -1.5689  1.5487
  526MOL0     H69375   1.926   2.564   2.909  1.3256 -0.4755  0.6413
  526MOL0     H69376   2.046   2.706   2.930 -0.3960 -1.1183  2.2545
  526MOL0     H69377   1.861   2.653   2.694 -0.1384 -0.2764  1.2308
  526MOL0     H69378   1.967   2.796   2.712  2.3730 -0.8062  0.2794
  526MOL0     H69379   1.735   2.856   2.757  1.1169  0.6841 -0.2711
  526MOL0     H69380   1.822   2.849   2.924  0.2828 -1.5618  1.6891
  526MOL0     H69381   1.663   2.628   2.824  1.3111 -1.2367  0.6980
  526MOL0     H69382   1.733   2.653   2.982  0.4579  0.3986 -0.0690
  526MOL0     H69383   1.518   2.819   2.830 -0.3574  1.0149 -0.3313
  526MOL0     H69384   1.589   2.887   2.978 -2.1958  0.0076  0.5999
  526MOL0     H69385   1.458   2.822   3.199  2.3119 -0.7647 -1.0310
  526MOL0     H69386   1.144   2.607   3.269 -0.0981 -4.3164  1.8054
  526MOL0     H69387   1.257   2.702   3.362  0.9274  1.0419 -2.4875
  526MOL0     H69388   1.384   2.519   3.419 -1.5272  3.0716  1.2252
  526MOL0     H69389   1.335   2.419   3.276  0.7778 -0.4359  0.2670
  526MOL0     H69390   1.208   2.290   3.413 -2.2676 -0.6975  3.5245
  526MOL0     H69391   1.244   2.400   3.549  1.1674  0.4896  0.2106
  526MOL0     H69392   1.011   2.404   3.355  0.3212 -0.5752  0.6238
  526MOL0     H69393   1.056   2.547   3.465  0.6478  0.6984  0.5263
  526MOL0     H69394   0.900   2.174   3.654  0.0779  0.2658  0.9205
  526MOL0     H69395   0.659   2.136   3.690  1.6066 -1.0672 -0.9340
  526MOL0     H69396   0.331   2.224   3.933  1.4240  0.1612 -1.2728
  526MOL0     H69397   0.118   2.132   4.007  0.8801 -0.2572 -0.1477
  526MOL0     H69398   0.001   1.960   4.045 -0.2959 -0.8528  0.8997
  526MOL0     H69399  -0.032   1.876   3.891 -1.4268 -0.0496  1.2715
  526MOL0     H69400  -0.180   1.791   4.056  2.9398  0.7775  0.0007
  526MOL0     H69401  -0.254   1.858   3.909 -1.0911 -0.1429  0.3933
  526MOL0     H69402  -0.387   1.935   4.102  0.5931 -0.4487  1.9722
  526MOL0     H69403  -0.315   2.072   4.009 -0.7481  0.2696  1.7259
  526MOL0     H69404  -0.205   1.956   4.259 -0.4829  0.1584 -0.1225
  526MOL0     H69405  -0.160   2.117   4.188 -1.3834  1.3795  1.2696
  526MOL0     H69406  -0.435   2.080   4.290  0.3154 -0.4133 -0.0185
  526MOL0     H69407  -0.358   2.223   4.236  2.9511 -0.2713 -2.6022
  526MOL0     H69408  -0.191   2.219   4.427  0.9221 -0.3653  0.0325
  526MOL0     H69409  -0.259   2.064   4.473  1.4463 -0.6577 -2.4714
  526MOL0     H69410  -0.324   2.278   4.590  0.7782 -0.3991 -0.4449
  526MOL0     H69411  -0.410   2.338   4.450 -3.4462 -1.0435 -0.2907
  526MOL0     H69412  -0.547   2.206   4.636  1.9665  0.8967  0.3269
  526MOL0     H69413  -0.511   2.064   4.536  1.6180  0.0812 -0.8179
  526MOL0     H69414  -0.040   2.130   3.618  1.5795 -1.1882 -1.4974
  526MOL0     H69415   0.187   2.172   3.521  1.6792  0.2228  0.1617
  526MOL0     H69416   0.594   2.547   3.563 -1.2235 -0.6595  1.2414
  526MOL0     H69417   0.823   2.569   3.537  1.5559  0.1681  1.8680
  526MOL0     H69418   2.383   2.590   2.449  0.7492  4.9073  0.3682
  526MOL0     H69419   2.614   2.668   2.378  0.0472 -0.5951  0.4514
  526MOL0     H69420   3.111   2.484   2.247  0.3837  2.2276 -1.9588
  526MOL0     H69421   3.344   2.503   2.299  0.0452 -0.6961  0.6618
  526MOL0     H69422   3.597   2.593   2.378  0.0451  2.0125  0.8952
  526MOL0     H69423   3.519   2.456   2.458  1.0665 -1.2738  1.5484
  526MOL0     H69424   3.657   2.521   2.667  1.8608  0.8209  1.3752
  526MOL0     H69425   3.761   2.472   2.539 -0.0854  0.7165 -0.5036
  526MOL0     H69426   3.682   2.765   2.583  0.0837  0.0612 -0.6109
  526MOL0     H69427   3.777   2.707   2.450  3.1380  1.4226  0.0930
  526MOL0     H69428   3.890   2.703   2.733  1.9279 -3.6716 -0.4040
  526MOL0     H69429   3.944   2.608   2.602 -2.2791 -1.6053  0.9096
  526MOL0     H69430   4.062   3.004   2.498  1.8055 -0.3743  1.5391
  526MOL0     H69431   3.260   2.769   2.631 -2.0198  2.7500 -1.8334
  526MOL0     H69432   3.034   2.758   2.571 -1.6586  1.3264 -4.8660
  527MOL0     O69433   7.551   2.517  10.586  0.5570  0.2645 -0.8259
  527MOL0     C69434   7.649   2.454  10.614 -0.0785 -0.5185  0.6383
  527MOL0     O69435   7.659   2.365  10.718  0.0814  0.7345 -0.0122
  527MOL0     C69436   7.544   2.338  10.789 -0.0629 -0.1701 -0.4112
  527MOL0     C69437   7.437   2.274  10.738  0.2356  0.0932 -0.2904
  527MOL0     C69438   7.330   2.239  10.823  0.2564  0.1553 -1.0612
  527MOL0     C69439   7.328   2.273  10.958 -0.0896  0.1592 -0.2622
  527MOL0     O69440   7.218   2.241  11.039 -0.0742 -0.6834 -0.2529
  527MOL0     C69441   7.093   2.259  10.983 -0.3571 -0.3848 -0.0241
  527MOL0     C69442   6.999   2.338  11.081  0.0848 -0.3220 -0.4144
  527MOL0     C69443   6.986   2.489  11.051  0.1475  1.3830  0.1920
  527MOL0     C69444   6.935   2.572  11.166 -0.2990  0.7604 -1.4193
  527MOL0     C69445   6.786   2.582  11.172 -0.1533  0.4455 -0.6200
  527MOL0     C69446   6.720   2.635  11.302  0.3194  0.4097 -0.0581
  527MOL0     C69447   6.603   2.730  11.286  0.4823  0.6914  0.0769
  527MOL0     C69448   6.630   2.878  11.265 -0.7964  0.4088 -0.9876
  527MOL0     N69449   6.709   2.899  11.146 -0.5445 -0.6043 -0.8465
  527MOL0     C69450   6.842   2.943  11.133 -0.3924 -0.2499 -0.3810
  527MOL0     C69451   6.869   2.933  11.005 -0.2546 -0.2158 -0.3837
  527MOL0     C69452   6.993   2.976  10.939 -0.3434 -0.4054  1.0744
  527MOL0     C69453   7.089   2.862  10.889  0.7157 -0.1546 -0.2168
  527MOL0     C69454   7.218   2.912  10.821 -0.5491 -0.8900  0.7546
  527MOL0     C69455   7.285   2.806  10.725 -0.1481 -0.1773 -0.5550
  527MOL0     O69456   7.419   2.858  10.698 -0.3009  0.2052 -0.3474
  527MOL0     C69457   7.465   2.865  10.565 -0.0743 -0.3505  0.9909
  527MOL0     C69458   7.593   2.912  10.546 -0.0659  0.9714 -1.0773
  527MOL0     C69459   7.663   2.897  10.424 -0.1529 -0.7245  0.4194
  527MOL0     C69460   7.598   2.838  10.311 -0.6264 -0.0500 -0.7293
  527MOL0     C69461   7.665   2.827  10.184  0.0723  0.2448 -0.3764
  527MOL0     O69462   7.795   2.869  10.185  0.4382 -0.0358  0.8977
  527MOL0     C69463   7.878   2.874  10.079 -0.6206 -0.0075  0.3362
  527MOL0     C69464   7.990   2.966  10.087 -0.1644  0.4422 -0.7773
  527MOL0     C69465   8.080   2.976   9.986  1.0993 -0.8178 -0.1875
  527MOL0     C69466   8.065   2.906   9.865 -0.2125 -0.1699 -0.5430
  527MOL0     O69467   8.158   2.927   9.765 -0.8244 -0.1560 -0.0793
  527MOL0     C69468   8.135   2.905   9.626 -0.4063  0.3577 -0.4226
  527MOL0     C69469   8.205   2.783   9.563 -0.3550  0.0225 -0.7943
  527MOL0     C69470   8.344   2.822   9.519 -0.1268  0.2407  0.2653
  527MOL0     C69471   8.443   2.821   9.641 -0.0593 -0.2538  0.7005
  527MOL0     C69472   8.573   2.895   9.592 -1.3836  0.6925 -0.7873
  527MOL0     C69473   8.697   2.868   9.685 -0.4615  0.1687  0.2124
  527MOL0     C69474   8.826   2.920   9.622  0.6297  1.2340  0.3882
  527MOL0     C69475   8.930   2.975   9.729 -0.2632 -0.4358 -0.5629
  527MOL0    Cl69476   9.078   3.033   9.655  0.0899 -0.7341  0.1567
  527MOL0     C69477   7.968   2.809   9.856 -0.2561 -1.4940  0.3208
  527MOL0     C69478   7.873   2.792   9.961  0.5164  0.2069  0.6859
  527MOL0     O69479   7.596   2.806  10.087 -0.0400 -0.2831  0.0235
  527MOL0     C69480   7.464   2.807  10.324 -0.6345  0.1959  0.1303
  527MOL0     C69481   7.401   2.809  10.446  0.1380 -0.0656 -0.9177
  527MOL0     N69482   6.753   2.896  10.940  0.7059  0.1364 -0.1183
  527MOL0     N69483   6.655   2.880  11.029 -0.2949 -0.3365  0.4993
  527MOL0     C69484   7.446   2.333  11.004  0.0427 -0.0896 -0.0708
  527MOL0     C69485   7.548   2.367  10.923 -1.3708 -0.7331  0.5095
  527MOL0     C69486   7.767   2.492  10.538 -0.0479 -0.1017  0.3771
  527MOL0     C69487   7.762   2.541  10.405  0.0583  0.7275 -0.0493
  527MOL0     C69488   7.883   2.571  10.330  0.2627 -0.1462 -0.2594
  527MOL0     C69489   8.006   2.564  10.399  0.0849  0.5621  0.2040
  527MOL0     O69490   8.126   2.580  10.331 -0.2896 -0.9859 -0.2566
  527MOL0     C69491   8.122   2.648  10.201 -0.4002 -0.3043  0.1624
  527MOL0     C69492   8.271   2.640  10.153 -0.5416  0.3827  0.3135
  527MOL0     C69493   8.332   2.773  10.168 -0.2218 -0.3264  0.4060
  527MOL0     C69494   8.479   2.753  10.138  0.5068  0.2142 -0.2747
  527MOL0     C69495   8.545   2.879  10.107  0.0998 -0.0817  0.1261
  527MOL0     C69496   8.601   2.983  10.087 -0.2069 -0.4881  0.4522
  527MOL0     C69497   8.012   2.532  10.535  0.6791  0.3047 -0.6098
  527MOL0     C69498   7.893   2.479  10.599  0.0453 -0.0792  0.4729
  527MOL0     H69499   7.442   2.253  10.632  2.9405 -1.7878  0.1055
  527MOL0     H69500   7.242   2.199  10.772 -0.7428  1.9497 -0.8166
  527MOL0     H69501   7.053   2.159  10.963  0.0956 -0.1469 -2.4906
  527MOL0     H69502   7.097   2.306  10.884  0.9166  2.6745  1.3438
  527MOL0     H69503   7.039   2.325  11.182 -0.0439 -1.9056 -0.5482
  527MOL0     H69504   6.897   2.298  11.080  0.0496 -0.3408  1.1977
  527MOL0     H69505   6.935   2.505  10.956  2.4754 -0.1067 -1.4263
  527MOL0     H69506   7.086   2.532  11.040 -0.0854  2.0885  0.7644
  527MOL0     H69507   6.966   2.518  11.256 -0.1249 -2.0130 -3.0013
  527MOL0     H69508   6.987   2.668  11.162  1.1474  0.0107 -1.5079
  527MOL0     H69509   6.750   2.483  11.144  1.6108  0.1722 -2.1100
  527MOL0     H69510   6.755   2.650  11.093 -2.4858 -0.4181 -0.5193
  527MOL0     H69511   6.793   2.682  11.368 -0.7527  1.5227  0.3813
  527MOL0     H69512   6.683   2.543  11.348 -0.4883 -0.5703 -2.5203
  527MOL0     H69513   6.531   2.697  11.211 -1.6952  0.8204  2.0053
  527MOL0     H69514   6.550   2.720  11.381  1.1982 -0.8098  0.3549
  527MOL0     H69515   6.686   2.920  11.349 -2.7654 -2.2720  1.9136
  527MOL0     H69516   6.531   2.924  11.263 -1.8511 -1.5048  1.4366
  527MOL0     H69517   6.912   2.961  11.213 -0.3196  0.4567 -0.6038
  527MOL0     H69518   7.054   3.042  11.002 -0.0701  0.3617  0.0459
  527MOL0     H69519   6.964   3.030  10.848  0.3147 -0.9655  0.5140
  527MOL0     H69520   7.040   2.798  10.815 -0.6744  0.7199 -0.0944
  527MOL0     H69521   7.111   2.803  10.979 -1.3762 -1.4765 -0.4884
  527MOL0     H69522   7.196   2.995  10.753 -3.9072 -2.8906 -0.8322
  527MOL0     H69523   7.287   2.952  10.896  0.0630  1.8042 -1.0849
  527MOL0     H69524   7.231   2.791  10.631 -2.0347 -1.5416  0.6746
  527MOL0     H69525   7.289   2.709  10.775 -2.1016 -0.7258 -1.3775
  527MOL0     H69526   7.636   2.949  10.639 -1.7936  1.3289 -0.3803
  527MOL0     H69527   7.768   2.922  10.409 -0.1352 -0.8415  0.3537
  527MOL0     H69528   8.010   3.030  10.172 -0.3621 -1.2215  0.5771
  527MOL0     H69529   8.171   3.034  10.000  1.3525 -1.1468 -0.4682
  527MOL0     H69530   8.166   2.995   9.572  0.3698  0.5955  0.3796
  527MOL0     H69531   8.028   2.895   9.611 -0.5084  1.0952 -0.2091
  527MOL0     H69532   8.149   2.746   9.476  0.9755 -1.2948 -1.1350
  527MOL0     H69533   8.211   2.695   9.627 -0.8532 -0.2545 -1.1217
  527MOL0     H69534   8.341   2.923   9.478 -0.5533  0.4254  0.7303
  527MOL0     H69535   8.382   2.752   9.444 -0.2440 -2.0936  2.2323
  527MOL0     H69536   8.394   2.858   9.731  1.0013 -2.2662  2.1926
  527MOL0     H69537   8.463   2.717   9.667  1.5809  0.2903  1.8310
  527MOL0     H69538   8.556   3.003   9.592 -1.6675  0.7028  1.7754
  527MOL0     H69539   8.605   2.854   9.496  1.1457 -0.6088  0.5256
  527MOL0     H69540   8.710   2.760   9.695 -0.3154  0.2187  0.5919
  527MOL0     H69541   8.667   2.912   9.781 -0.2364 -3.6650  2.2808
  527MOL0     H69542   8.862   2.831   9.569  0.2543  0.7254  0.9580
  527MOL0     H69543   8.810   3.001   9.551  1.8437  0.5540 -0.7013
  527MOL0     H69544   8.964   2.894   9.793  1.1270  1.7190  1.6092
  527MOL0     H69545   8.890   3.051   9.796  1.3790  0.0461 -0.0791
  527MOL0     H69546   7.956   2.763   9.758 -2.2075 -0.2755 -0.0540
  527MOL0     H69547   7.795   2.718   9.950  0.9187 -0.3694  1.6558
  527MOL0     H69548   7.407   2.762  10.243 -0.6077 -0.8156  0.6531
  527MOL0     H69549   7.299   2.772  10.450 -0.7443  2.2835  2.0377
  527MOL0     H69550   7.454   2.370  11.106 -2.4138  0.7709 -0.1177
  527MOL0     H69551   7.641   2.408  10.963  0.6532 -2.3239 -2.2217
  527MOL0     H69552   7.665   2.558  10.361 -0.2225 -0.6379  0.0022
  527MOL0     H69553   7.868   2.599  10.226 -2.7458  3.7815  0.9640
  527MOL0     H69554   8.088   2.751  10.216 -2.0635 -1.0207  1.5141
  527MOL0     H69555   8.056   2.599  10.129  0.2011 -0.1231 -0.5255
  527MOL0     H69556   8.320   2.562  10.213  1.1473  1.4531  0.4168
  527MOL0     H69557   8.269   2.616  10.046  1.6977  1.8051 -0.1353
  527MOL0     H69558   8.307   2.798  10.271 -3.0710 -0.2745 -0.2239
  527MOL0     H69559   8.293   2.852  10.104  1.9991 -0.6376 -1.4612
  527MOL0     H69560   8.536   2.717  10.225  0.0810  0.6017  0.1733
  527MOL0     H69561   8.507   2.690  10.053  1.1238 -0.1342  0.1800
  527MOL0     H69562   8.641   3.078  10.058  1.0203 -1.4343 -1.0829
  527MOL0     H69563   8.109   2.518  10.581  0.0813 -0.5295  0.4402
  527MOL0     H69564   7.908   2.423  10.691  3.7402 -0.8617 -0.4609
  528MOL0     O69565   6.170   8.008   3.918 -0.0381 -0.8879  0.0014
  528MOL0     C69566   6.197   8.068   3.812 -0.0600  0.4753 -0.7834
  528MOL0     O69567   6.134   8.060   3.690  0.2054 -0.7036  0.7325
  528MOL0     C69568   6.015   7.982   3.683  0.6221 -0.8424  0.0436
  528MOL0     C69569   5.912   8.044   3.608 -0.0366 -0.0870 -0.0490
  528MOL0     C69570   5.785   7.988   3.601 -0.1094  0.1261  0.3029
  528MOL0     C69571   5.762   7.865   3.657  0.0354 -0.5620 -1.0624
  528MOL0     O69572   5.648   7.798   3.631  0.2109  0.1838 -0.0626
  528MOL0     C69573   5.602   7.774   3.501  0.6874  0.4578  0.2673
  528MOL0     C69574   5.523   7.643   3.501 -0.3954  0.9824 -0.4090
  528MOL0     C69575   5.444   7.617   3.369  0.0325 -0.5894 -0.5627
  528MOL0     C69576   5.348   7.501   3.381  1.0283  0.2762 -0.5533
  528MOL0     C69577   5.291   7.476   3.248  0.5144 -0.3936 -0.1646
  528MOL0     C69578   5.179   7.375   3.270 -1.8588 -0.0358 -0.1474
  528MOL0     C69579   5.094   7.334   3.152 -0.1103 -0.2931  0.4123
  528MOL0     C69580   4.954   7.302   3.176 -0.3153 -0.8670 -0.0095
  528MOL0     N69581   4.889   7.234   3.059  0.4783  0.3180  0.5107
  528MOL0     C69582   4.816   7.297   2.961 -0.0736 -0.1609  0.3926
  528MOL0     C69583   4.759   7.203   2.881 -0.0539  0.0096 -0.1825
  528MOL0     C69584   4.658   7.210   2.762 -0.3461 -0.2931 -0.4042
  528MOL0     C69585   4.520   7.249   2.818 -0.4875  0.7377  0.0477
  528MOL0     C69586   4.420   7.258   2.701 -0.0410 -0.1219  0.3545
  528MOL0     C69587   4.289   7.301   2.757  0.5834  1.2080  0.3645
  528MOL0     O69588   4.225   7.372   2.655  1.1743 -0.1613 -0.4089
  528MOL0     C69589   4.093   7.342   2.615 -0.3704 -1.3104  0.6238
  528MOL0     C69590   3.992   7.273   2.682  0.6179  0.9730  0.1541
  528MOL0     C69591   3.860   7.257   2.626  0.5133  0.9738  0.1165
  528MOL0     C69592   3.837   7.301   2.496 -1.4555 -0.4309 -0.7897
  528MOL0     C69593   3.704   7.292   2.436 -0.1913 -0.5223 -0.0385
  528MOL0     O69594   3.612   7.221   2.504 -0.4102  0.1303  0.0272
  528MOL0     C69595   3.482   7.217   2.461 -0.3936 -0.1035  0.9138
  528MOL0     C69596   3.389   7.230   2.559  0.5897 -1.4802 -0.5387
  528MOL0     C69597   3.249   7.224   2.536  0.1225 -0.2804 -0.4496
  528MOL0     C69598   3.212   7.209   2.405 -0.6014 -0.0223 -0.0003
  528MOL0     O69599   3.077   7.186   2.382  0.8414  0.2068 -0.1577
  528MOL0     C69600   3.013   7.259   2.280  0.3167  1.2327 -0.1804
  528MOL0     C69601   2.864   7.238   2.283 -0.8302  0.8492 -0.0461
  528MOL0     C69602   2.802   7.274   2.146 -0.6224  0.1969 -0.0583
  528MOL0     C69603   2.656   7.226   2.139 -0.1320  0.5841  0.1045
  528MOL0     C69604   2.581   7.282   2.018 -0.9608  0.0405 -0.0327
  528MOL0     C69605   2.593   7.188   1.893  0.0436 -0.0319 -0.3924
  528MOL0     C69606   2.581   7.269   1.766  0.5649 -0.1842 -1.0715
  528MOL0     C69607   2.717   7.316   1.727 -0.9867  0.7281  0.4090
  528MOL0    Cl69608   2.718   7.415   1.569 -0.2265  0.3040  0.5473
  528MOL0     C69609   3.310   7.193   2.304  0.7913  0.6182  0.1793
  528MOL0     C69610   3.448   7.194   2.328  0.6241 -0.4768 -0.0700
  528MOL0     O69611   3.685   7.357   2.335  0.2735 -0.4649  0.2710
  528MOL0     C69612   3.947   7.359   2.428  0.2066  0.2929  0.1369
  528MOL0     C69613   4.069   7.386   2.484 -0.9613  0.4427 -0.0071
  528MOL0     N69614   4.796   7.085   2.936 -0.2942  0.5671 -0.9045
  528MOL0     N69615   4.872   7.098   3.042  0.1585  0.4765  0.0680
  528MOL0     C69616   5.857   7.809   3.743 -0.2492  0.7171 -0.0159
  528MOL0     C69617   5.980   7.871   3.765 -0.5137 -0.3213 -0.0563
  528MOL0     C69618   6.336   8.127   3.813  0.1392 -0.1447  0.5165
  528MOL0     C69619   6.394   8.182   3.926 -0.8080  0.6828 -0.3480
  528MOL0     C69620   6.530   8.226   3.923  0.4865  1.8041 -0.4046
  528MOL0     C69621   6.602   8.216   3.809 -0.9045 -0.2043  0.7282
  528MOL0     O69622   6.738   8.233   3.811 -0.0412  0.0039 -0.2729
  528MOL0     C69623   6.791   8.318   3.705 -0.7444  0.1917  0.3394
  528MOL0     C69624   6.901   8.402   3.773 -0.1743  0.4091  0.1538
  528MOL0     C69625   7.005   8.471   3.685 -0.5413  0.1833 -0.4096
  528MOL0     C69626   6.946   8.600   3.638 -0.2149  0.4069  0.2399
  528MOL0     C69627   6.938   8.692   3.755 -0.7365  0.5674 -0.3831
  528MOL0     C69628   6.936   8.771   3.850 -0.3534  0.2608 -0.7608
  528MOL0     C69629   6.536   8.173   3.688  1.0320  0.3365  0.1710
  528MOL0     C69630   6.405   8.125   3.690  0.4024 -0.1470  0.0248
  528MOL0     H69631   5.934   8.132   3.548 -2.9919  1.6599  1.2182
  528MOL0     H69632   5.715   8.038   3.535  1.6834  1.1052 -0.9706
  528MOL0     H69633   5.686   7.763   3.431  0.8691  0.7676  0.4355
  528MOL0     H69634   5.539   7.859   3.476  0.0007 -0.1714 -0.1975
  528MOL0     H69635   5.446   7.664   3.577 -1.0369 -1.6120 -0.2343
  528MOL0     H69636   5.589   7.561   3.531  0.9796  1.9681 -0.6813
  528MOL0     H69637   5.514   7.612   3.285 -0.8871  0.3444 -1.4005
  528MOL0     H69638   5.387   7.705   3.339 -0.7062  0.2601  2.8832
  528MOL0     H69639   5.404   7.411   3.409 -1.0753 -0.4438  1.6567
  528MOL0     H69640   5.269   7.514   3.456  1.4989  2.5521 -0.4024
  528MOL0     H69641   5.371   7.432   3.187 -0.1818 -1.4294 -0.3673
  528MOL0     H69642   5.259   7.561   3.187  2.8767  0.3792 -0.4325
  528MOL0     H69643   5.118   7.421   3.348  0.8018 -1.9218  3.3242
  528MOL0     H69644   5.225   7.283   3.309 -2.3262 -1.4236 -2.6739
  528MOL0     H69645   5.098   7.421   3.085 -0.9790  0.1756  0.9621
  528MOL0     H69646   5.134   7.251   3.092  1.0401  2.6833 -3.3886
  528MOL0     H69647   4.890   7.386   3.204 -0.4802 -0.9052 -0.2674
  528MOL0     H69648   4.953   7.236   3.263  1.4200 -2.5897 -1.2193
  528MOL0     H69649   4.812   7.405   2.950  0.1861 -0.1544  0.3546
  528MOL0     H69650   4.658   7.110   2.717  0.2327 -0.1951 -0.6330
  528MOL0     H69651   4.697   7.284   2.691 -1.3128  2.1295  1.4723
  528MOL0     H69652   4.527   7.343   2.874 -0.6680  0.5753  0.3417
  528MOL0     H69653   4.493   7.165   2.883  3.4883 -0.3297  0.5730
  528MOL0     H69654   4.454   7.332   2.629 -4.0997 -0.0352 -1.7312
  528MOL0     H69655   4.415   7.157   2.660  1.5385  0.0758 -0.3797
  528MOL0     H69656   4.299   7.370   2.841 -1.6695 -0.0199  1.7304
  528MOL0     H69657   4.228   7.215   2.787  1.0136  1.1721  1.1557
  528MOL0     H69658   4.015   7.243   2.784 -1.9938  0.0276  0.5568
  528MOL0     H69659   3.780   7.212   2.684 -0.0083  0.5360 -0.9236
  528MOL0     H69660   3.429   7.235   2.660  0.7430 -0.6145 -0.6332
  528MOL0     H69661   3.175   7.220   2.615 -2.2509  0.2757 -2.4950
  528MOL0     H69662   3.061   7.230   2.187  1.2441 -0.0100  0.6454
  528MOL0     H69663   3.024   7.367   2.283 -0.2658  1.3028 -0.4487
  528MOL0     H69664   2.832   7.314   2.355 -0.2350  0.4126  0.6949
  528MOL0     H69665   2.828   7.139   2.311  2.2419  0.0127  1.3273
  528MOL0     H69666   2.857   7.222   2.067 -0.0862  0.4094  0.1676
  528MOL0     H69667   2.802   7.381   2.125  1.0154  0.9829  3.2582
  528MOL0     H69668   2.645   7.118   2.152 -1.7378  0.6096 -0.8732
  528MOL0     H69669   2.603   7.274   2.222 -2.6216  0.8547 -1.5728
  528MOL0     H69670   2.601   7.388   1.999  3.4435 -0.8345 -1.5379
  528MOL0     H69671   2.475   7.267   2.043 -0.8555 -0.2473  0.2582
  528MOL0     H69672   2.514   7.113   1.891 -1.7202  1.7591 -1.5604
  528MOL0     H69673   2.692   7.142   1.889  0.9580  1.8690 -0.8069
  528MOL0     H69674   2.533   7.214   1.685 -0.1526  0.5276 -1.1407
  528MOL0     H69675   2.525   7.363   1.778  0.8047 -0.2378  0.6859
  528MOL0     H69676   2.776   7.227   1.705  0.6476  1.5734  1.1624
  528MOL0     H69677   2.780   7.367   1.800  1.8798 -1.8846 -0.0160
  528MOL0     H69678   3.271   7.168   2.206 -2.0209  2.4313  0.7223
  528MOL0     H69679   3.523   7.165   2.256  0.5084 -0.1539 -0.3242
  528MOL0     H69680   3.927   7.394   2.327  0.6157 -0.2026 -0.1193
  528MOL0     H69681   4.146   7.439   2.430 -0.1750 -1.7660 -1.2056
  528MOL0     H69682   5.826   7.720   3.796  1.8327 -0.2336 -0.3174
  528MOL0     H69683   6.047   7.818   3.832  0.3189 -0.9976 -1.3849
  528MOL0     H69684   6.350   8.186   4.025 -0.5132 -1.8807 -0.0200
  528MOL0     H69685   6.585   8.264   4.009  2.6400  1.6337 -1.6454
  528MOL0     H69686   6.708   8.385   3.681 -1.5276 -0.1930  1.8973
  528MOL0     H69687   6.826   8.266   3.615 -0.6969  1.7269 -0.5727
  528MOL0     H69688   6.842   8.470   3.835 -0.8109  0.4728 -0.5095
  528MOL0     H69689   6.957   8.338   3.842 -1.2199 -1.0209 -0.2798
  528MOL0     H69690   7.036   8.411   3.599  1.2468  0.1046  0.2581
  528MOL0     H69691   7.093   8.484   3.749  1.2737 -0.7537 -2.5550
  528MOL0     H69692   7.006   8.640   3.556  0.6829 -1.5812 -0.1311
  528MOL0     H69693   6.843   8.587   3.602 -0.1662  4.8920 -2.2560
  528MOL0     H69694   6.933   8.834   3.936 -2.9364  0.8945 -1.2381
  528MOL0     H69695   6.589   8.156   3.595  0.3834  0.4265 -0.2193
  528MOL0     H69696   6.355   8.070   3.611  0.1457  0.2811 -0.1128
  529MOL0     O69697   0.261   5.517   2.095 -0.3351 -0.1699  0.2672
  529MOL0     C69698   0.301   5.613   2.031  0.3692 -0.8477  1.4471
  529MOL0     O69699   0.215   5.698   1.950 -0.2339 -0.0075 -0.2922
  529MOL0     C69700   0.078   5.682   1.946 -0.2326 -1.0976  0.0734
  529MOL0     C69701   0.009   5.665   2.070  0.2939  0.8414  0.7507
  529MOL0     C69702  -0.132   5.674   2.059 -0.7551  0.2636  0.1765
  529MOL0     C69703  -0.196   5.718   1.944  0.7218 -0.4517  0.0002
  529MOL0     O69704  -0.332   5.739   1.927  0.0353 -0.2111 -0.3248
  529MOL0     C69705  -0.416   5.734   2.038  0.3417 -0.7227 -0.3675
  529MOL0     C69706  -0.558   5.765   1.980  0.6289  0.0342 -0.8622
  529MOL0     C69707  -0.671   5.781   2.092 -1.1876 -0.0907 -0.0095
  529MOL0     C69708  -0.813   5.791   2.052  0.2268 -0.2430 -0.3648
  529MOL0     C69709  -0.913   5.758   2.172 -1.0754 -0.6840 -0.1038
  529MOL0     C69710  -1.044   5.818   2.135 -0.5625  0.2314 -0.2382
  529MOL0     C69711  -1.156   5.771   2.230 -0.1592 -0.5198  0.2371
  529MOL0     C69712  -1.279   5.860   2.208  0.1825 -0.1756 -0.1276
  529MOL0     N69713  -1.373   5.822   2.316  0.1244  0.4555 -0.2453
  529MOL0     C69714  -1.452   5.708   2.314  0.5968 -0.0315  0.0703
  529MOL0     C69715  -1.540   5.733   2.420 -0.9944  0.1109 -0.3334
  529MOL0     C69716  -1.671   5.662   2.448  0.7212  1.0137  0.0522
  529MOL0     C69717  -1.658   5.561   2.567  0.7950  0.2408  0.1406
  529MOL0     C69718  -1.782   5.460   2.578 -0.2186 -0.0965  0.7552
  529MOL0     C69719  -1.919   5.526   2.582  0.5825 -0.4829 -0.9811
  529MOL0     O69720  -1.924   5.618   2.691 -0.0493 -0.5264  0.0373
  529MOL0     C69721  -2.032   5.696   2.675 -0.3320  0.1748  0.8137
  529MOL0     C69722  -2.153   5.670   2.726  0.2663  0.2916 -0.3792
  529MOL0     C69723  -2.267   5.750   2.706  0.5926 -1.6129  0.2531
  529MOL0     C69724  -2.260   5.870   2.627 -0.2992  0.1306 -0.9881
  529MOL0     C69725  -2.382   5.951   2.602  0.2648 -0.1840 -0.8991
  529MOL0     O69726  -2.495   5.927   2.672  0.3431  0.3203  0.4368
  529MOL0     C69727  -2.598   6.021   2.669 -0.1636 -0.0468 -0.0146
  529MOL0     C69728  -2.726   5.967   2.661 -0.2731 -0.5034  0.1498
  529MOL0     C69729  -2.833   6.050   2.671 -0.4553 -0.1162 -0.8764
  529MOL0     C69730  -2.828   6.192   2.687 -0.1619  1.0199 -0.7943
  529MOL0     O69731  -2.943   6.261   2.680  0.5929  0.2090  1.1272
  529MOL0     C69732  -2.959   6.386   2.740 -0.3886 -0.1935  0.3022
  529MOL0     C69733  -3.091   6.441   2.699 -0.0782  0.9260  0.2067
  529MOL0     C69734  -3.133   6.565   2.769 -1.1726 -0.3930 -0.1479
  529MOL0     C69735  -3.268   6.609   2.705  0.7254 -0.9257  0.8278
  529MOL0     C69736  -3.306   6.735   2.780  0.2475  0.4306 -0.0351
  529MOL0     C69737  -3.448   6.777   2.761  0.3029  0.1032 -0.2706
  529MOL0     C69738  -3.546   6.664   2.807 -0.0122 -0.4817  0.0718
  529MOL0     C69739  -3.690   6.698   2.815 -0.1435 -1.1255  0.9590
  529MOL0    Cl69740  -3.709   6.823   2.938 -0.3924  0.1034 -0.0182
  529MOL0     C69741  -2.699   6.240   2.707 -1.0817 -0.4181 -0.2169
  529MOL0     C69742  -2.586   6.154   2.700  0.1452 -1.4263 -0.5392
  529MOL0     O69743  -2.374   6.032   2.506 -0.9709 -0.1132 -0.6428
  529MOL0     C69744  -2.135   5.903   2.575  0.4721 -0.5186 -0.1173
  529MOL0     C69745  -2.019   5.818   2.603  0.5929 -0.0094 -0.0228
  529MOL0     N69746  -1.508   5.844   2.478  0.0083 -0.2168 -0.1055
  529MOL0     N69747  -1.409   5.904   2.413  0.4613 -0.1653 -0.0922
  529MOL0     C69748  -0.124   5.733   1.827 -0.1281  0.4172  0.8155
  529MOL0     C69749   0.012   5.709   1.822 -0.3158  0.1647 -0.2009
  529MOL0     C69750   0.440   5.654   2.057  0.2957 -0.2276  0.7046
  529MOL0     C69751   0.521   5.569   2.123 -0.0507 -0.8440 -0.5762
  529MOL0     C69752   0.659   5.615   2.134 -0.9607 -0.6112  0.7454
  529MOL0     C69753   0.707   5.742   2.083 -0.8868  0.5345  0.1512
  529MOL0     O69754   0.838   5.793   2.101 -0.0105 -0.1210 -0.0774
  529MOL0     C69755   0.947   5.705   2.115 -1.0085  0.0109  0.1075
  529MOL0     C69756   0.962   5.673   2.264  0.0163 -0.0040 -0.3015
  529MOL0     C69757   1.101   5.605   2.281 -0.0617 -0.4625  0.5887
  529MOL0     C69758   1.138   5.557   2.422  0.8901  0.1373  0.2347
  529MOL0     C69759   1.245   5.459   2.413  0.6083 -0.3294 -0.0016
  529MOL0     C69760   1.334   5.382   2.387 -0.6347  0.2456  0.0459
  529MOL0     C69761   0.619   5.825   2.013  0.3016  0.6290  0.1406
  529MOL0     C69762   0.488   5.781   2.005  0.3051  0.1082  0.2544
  529MOL0     H69763   0.057   5.662   2.167  1.1619 -0.4243  0.3094
  529MOL0     H69764  -0.183   5.656   2.153  0.5179  0.0881  0.8544
  529MOL0     H69765  -0.403   5.803   2.121  0.3988 -2.0082  0.7224
  529MOL0     H69766  -0.401   5.641   2.094  2.4140  0.3767  1.0077
  529MOL0     H69767  -0.583   5.665   1.941  3.6376 -0.5419 -1.5481
  529MOL0     H69768  -0.568   5.850   1.911 -3.7642 -0.2601 -0.9178
  529MOL0     H69769  -0.649   5.869   2.152 -0.6147 -2.0885  2.9442
  529MOL0     H69770  -0.654   5.690   2.151  1.2750  1.1988  1.4191
  529MOL0     H69771  -0.817   5.900   2.042 -1.1266 -0.0305  1.8505
  529MOL0     H69772  -0.836   5.736   1.960 -0.0468  2.5091 -2.0395
  529MOL0     H69773  -0.890   5.795   2.272 -5.9440 -0.1334  1.0656
  529MOL0     H69774  -0.922   5.649   2.184  0.0854 -0.7217  0.5728
  529MOL0     H69775  -1.069   5.801   2.030  0.3224  0.9063 -0.5814
  529MOL0     H69776  -1.041   5.927   2.148 -0.3717  0.8988 -4.4092
  529MOL0     H69777  -1.190   5.670   2.206 -1.4535  0.5758 -3.0762
  529MOL0     H69778  -1.125   5.773   2.335  2.9751 -0.7620 -0.5595
  529MOL0     H69779  -1.324   5.835   2.111  1.1137  1.6885 -1.1075
  529MOL0     H69780  -1.257   5.967   2.217 -3.0463  0.4840  1.6249
  529MOL0     H69781  -1.466   5.628   2.242  2.5463 -0.7595  0.4535
  529MOL0     H69782  -1.717   5.614   2.361  3.0942  1.1115 -1.3373
  529MOL0     H69783  -1.745   5.740   2.468  1.0221  1.1920  0.4840
  529MOL0     H69784  -1.644   5.604   2.667 -1.5098 -2.8529  1.9860
  529MOL0     H69785  -1.567   5.504   2.548  1.9281  2.5713 -1.9445
  529MOL0     H69786  -1.784   5.397   2.488 -4.0150 -0.9948  1.2848
  529MOL0     H69787  -1.761   5.399   2.666  2.2781  0.4036  0.5720
  529MOL0     H69788  -1.996   5.450   2.599 -2.0200  2.2951  0.5904
  529MOL0     H69789  -1.946   5.569   2.485 -1.9298  3.3798  1.1440
  529MOL0     H69790  -2.156   5.586   2.795 -0.8796  0.9746  0.4439
  529MOL0     H69791  -2.356   5.714   2.757 -0.0768 -2.5455 -1.4785
  529MOL0     H69792  -2.730   5.860   2.650  1.7164 -0.6865  0.7397
  529MOL0     H69793  -2.923   5.989   2.675  0.6388 -1.7286  2.0222
  529MOL0     H69794  -2.881   6.462   2.729 -0.6767  0.6833  3.3469
  529MOL0     H69795  -2.968   6.369   2.848  1.5284  1.0097  0.7014
  529MOL0     H69796  -3.170   6.366   2.703 -1.2858  2.1842  0.3956
  529MOL0     H69797  -3.080   6.470   2.594 -0.7432  1.0854  0.1785
  529MOL0     H69798  -3.058   6.644   2.757  0.2143 -1.8882 -2.2170
  529MOL0     H69799  -3.134   6.548   2.877 -2.1664  1.6869  0.2199
  529MOL0     H69800  -3.253   6.642   2.602  0.3391  1.7922  1.5765
  529MOL0     H69801  -3.339   6.527   2.712 -1.2699  0.8162  2.2453
  529MOL0     H69802  -3.243   6.815   2.739  2.2564 -0.0037  2.0047
  529MOL0     H69803  -3.266   6.724   2.881  1.2924 -0.7731 -0.5498
  529MOL0     H69804  -3.461   6.799   2.655  2.2483 -2.1036 -1.0369
  529MOL0     H69805  -3.460   6.866   2.824 -3.0219 -0.8306  0.6171
  529MOL0     H69806  -3.547   6.592   2.725 -3.7112  0.3279 -0.7539
  529MOL0     H69807  -3.505   6.620   2.900  2.1593  0.6884 -0.2662
  529MOL0     H69808  -3.739   6.602   2.833  1.0697 -2.0970 -0.6140
  529MOL0     H69809  -3.729   6.733   2.718  0.5971 -1.8562  0.3822
  529MOL0     H69810  -2.677   6.345   2.721 -1.1941 -0.6683  2.4311
  529MOL0     H69811  -2.485   6.179   2.733 -0.2507 -3.5665  2.7766
  529MOL0     H69812  -2.124   5.985   2.505  1.7980 -0.6254 -0.0623
  529MOL0     H69813  -1.927   5.850   2.555 -0.0563  2.3342  0.1691
  529MOL0     H69814  -0.174   5.767   1.738  1.0412  0.2035  0.0485
  529MOL0     H69815   0.071   5.712   1.731 -0.4543  2.1121 -0.2623
  529MOL0     H69816   0.497   5.468   2.156 -0.2704 -0.6033  0.0252
  529MOL0     H69817   0.725   5.537   2.172 -0.2888 -0.6335 -0.4375
  529MOL0     H69818   1.033   5.767   2.088  0.4795 -0.7327  2.8247
  529MOL0     H69819   0.934   5.617   2.052  1.1519 -0.6272  0.4592
  529MOL0     H69820   0.967   5.768   2.320  1.7933 -1.4664  2.2330
  529MOL0     H69821   0.883   5.609   2.304  0.1150 -0.4781 -0.8605
  529MOL0     H69822   1.186   5.661   2.242 -0.4404  1.1384  1.9370
  529MOL0     H69823   1.098   5.517   2.216 -1.4649  0.1487 -0.2478
  529MOL0     H69824   1.164   5.638   2.492 -0.2512 -0.9558  2.0126
  529MOL0     H69825   1.045   5.514   2.458  0.1257  1.2538 -0.3514
  529MOL0     H69826   1.409   5.308   2.364 -0.1889 -0.5363  3.4797
  529MOL0     H69827   0.650   5.921   1.972  0.0991 -0.1981 -2.0948
  529MOL0     H69828   0.420   5.858   1.969  0.4397  0.0484 -0.1309
  530MOL0     O69829   5.801   5.090   4.077  0.2227  0.3679  0.1828
  530MOL0     C69830   5.878   5.016   4.021  0.7080  0.9550 -0.3027
  530MOL0     O69831   5.844   4.918   3.929  0.3019 -0.4735 -0.0752
  530MOL0     C69832   5.719   4.911   3.869 -0.2252 -0.0423  0.3662
  530MOL0     C69833   5.666   4.786   3.835 -0.1478  0.0854  1.0256
  530MOL0     C69834   5.538   4.774   3.765 -1.0815 -0.1637 -0.1788
  530MOL0     C69835   5.477   4.893   3.718  0.3380  0.1860  0.4447
  530MOL0     O69836   5.378   4.915   3.627 -0.0137 -0.1368 -0.4732
  530MOL0     C69837   5.299   4.797   3.597 -0.4518  0.0654  0.0781
  530MOL0     C69838   5.166   4.845   3.542 -0.2406  0.2846 -0.5129
  530MOL0     C69839   5.085   4.737   3.486  0.1903  0.5476  0.0518
  530MOL0     C69840   4.964   4.791   3.414 -0.2660 -0.2706  0.4142
  530MOL0     C69841   4.870   4.674   3.372 -0.1885 -0.2799  0.4856
  530MOL0     C69842   4.723   4.728   3.350 -0.3859  0.8797  0.2104
  530MOL0     C69843   4.706   4.852   3.255 -0.1711 -0.7592  0.5942
  530MOL0     C69844   4.744   4.844   3.104 -0.6661  0.4352  1.0426
  530MOL0     N69845   4.627   4.807   3.025 -1.0183 -1.3364  0.1081
  530MOL0     C69846   4.562   4.889   2.937  0.4018  0.3636 -0.2201
  530MOL0     C69847   4.470   4.813   2.869 -0.5871 -0.2509  0.1820
  530MOL0     C69848   4.398   4.851   2.743  0.1105 -0.0966  0.3007
  530MOL0     C69849   4.246   4.825   2.753  0.0396  1.2289 -0.1602
  530MOL0     C69850   4.216   4.680   2.718  0.0555  1.3390 -0.3262
  530MOL0     C69851   4.062   4.668   2.720 -0.3473 -0.1961  0.7272
  530MOL0     O69852   4.011   4.724   2.601 -0.1835 -0.0029  0.5781
  530MOL0     C69853   3.879   4.714   2.573 -0.0231  0.3934  0.7264
  530MOL0     C69854   3.789   4.621   2.633 -0.3262 -1.6699  0.1815
  530MOL0     C69855   3.654   4.629   2.614  0.0452  0.4668  0.5030
  530MOL0     C69856   3.602   4.718   2.523  0.5194  0.0985  0.0975
  530MOL0     C69857   3.453   4.727   2.493  0.2524 -0.8044  0.6393
  530MOL0     O69858   3.410   4.807   2.385  0.2075  0.6413 -0.2169
  530MOL0     C69859   3.277   4.844   2.377 -0.0881 -0.2327  0.7078
  530MOL0     C69860   3.223   4.934   2.471 -0.8116  0.2780 -0.0178
  530MOL0     C69861   3.086   4.947   2.495  0.0935 -0.1166  0.7982
  530MOL0     C69862   2.992   4.904   2.399 -0.3488  0.8418  0.3501
  530MOL0     O69863   2.856   4.922   2.413 -0.5725  0.4041  0.4598
  530MOL0     C69864   2.779   4.798   2.444 -0.6211  0.4835 -0.5847
  530MOL0     C69865   2.641   4.850   2.495  0.0232 -0.3878  0.4423
  530MOL0     C69866   2.543   4.745   2.464 -0.3977 -0.1242  0.1108
  530MOL0     C69867   2.398   4.786   2.498  0.5000 -0.2744  1.1024
  530MOL0     C69868   2.290   4.673   2.477 -0.1606  0.9492 -0.0439
  530MOL0     C69869   2.292   4.604   2.341  0.4440 -0.4009  0.3691
  530MOL0     C69870   2.166   4.515   2.323 -0.1364  0.2885  0.2333
  530MOL0     C69871   2.175   4.419   2.209 -0.7491 -0.5171  0.4651
  530MOL0    Cl69872   2.016   4.319   2.196 -0.0266 -0.0212  0.1369
  530MOL0     C69873   3.045   4.832   2.288 -0.4670 -0.0564  0.8878
  530MOL0     C69874   3.184   4.803   2.273 -0.0169 -0.1784 -0.5909
  530MOL0     O69875   3.380   4.676   2.579 -0.2932  0.0171  0.7770
  530MOL0     C69876   3.695   4.808   2.462  0.3509 -0.3870  0.2034
  530MOL0     C69877   3.828   4.810   2.476 -0.2170  0.9749  0.7585
  530MOL0     N69878   4.489   4.681   2.919 -0.2555 -0.4211 -0.4101
  530MOL0     N69879   4.578   4.680   3.011  0.6188 -0.2717 -0.3385
  530MOL0     C69880   5.543   5.015   3.748  0.5799  0.6578  0.6074
  530MOL0     C69881   5.661   5.024   3.820  0.0513  0.5324  0.0340
  530MOL0     C69882   6.017   5.031   4.060 -0.6887 -0.6869 -0.4112
  530MOL0     C69883   6.066   5.121   4.160  0.0996 -0.1617 -1.1706
  530MOL0     C69884   6.197   5.122   4.202  0.6717  0.1495 -0.0734
  530MOL0     C69885   6.288   5.028   4.149  0.4598 -0.1236  0.2879
  530MOL0     O69886   6.421   5.013   4.186 -0.3884 -0.2696  0.2444
  530MOL0     C69887   6.483   5.130   4.250  0.1830 -0.6368 -0.0505
  530MOL0     C69888   6.631   5.107   4.254  1.1611  0.2062  0.2288
  530MOL0     C69889   6.662   4.993   4.356  0.1966  0.5455 -0.5346
  530MOL0     C69890   6.805   4.947   4.347 -0.8441 -0.2802  0.1462
  530MOL0     C69891   6.886   5.063   4.380 -0.8297 -0.1239 -0.8031
  530MOL0     C69892   6.941   5.168   4.418 -0.1272  0.1612  0.4106
  530MOL0     C69893   6.247   4.947   4.040 -0.8353 -0.0572 -0.4834
  530MOL0     C69894   6.116   4.953   3.989 -0.1776 -0.4108  0.0413
  530MOL0     H69895   5.722   4.696   3.859 -0.9431 -1.8639 -3.3336
  530MOL0     H69896   5.502   4.677   3.731 -0.7967  0.2812 -1.8014
  530MOL0     H69897   5.276   4.726   3.676 -1.0934  0.2841  0.0934
  530MOL0     H69898   5.355   4.751   3.515  0.8626  1.4897  0.1307
  530MOL0     H69899   5.187   4.928   3.474  0.3491  0.6076  0.0509
  530MOL0     H69900   5.110   4.895   3.622 -0.9701  1.2019 -1.5726
  530MOL0     H69901   5.064   4.657   3.557  1.6706  1.5935  1.7638
  530MOL0     H69902   5.147   4.683   3.414 -0.6491 -2.1352  1.2280
  530MOL0     H69903   4.905   4.857   3.478  0.5223  2.0067 -1.0412
  530MOL0     H69904   4.989   4.849   3.325  1.0991 -2.2805 -0.5821
  530MOL0     H69905   4.861   4.609   3.459 -1.9624  2.2754  2.3810
  530MOL0     H69906   4.901   4.625   3.279 -0.4817  0.7708 -0.1869
  530MOL0     H69907   4.687   4.771   3.444  2.2598 -0.4566  1.9859
  530MOL0     H69908   4.661   4.644   3.319  1.7740 -1.2513  1.3098
  530MOL0     H69909   4.606   4.894   3.258  0.7388  1.5238  0.9790
  530MOL0     H69910   4.754   4.938   3.302 -0.2073 -0.7407  0.5981
  530MOL0     H69911   4.808   4.755   3.107  0.0060  0.8427 -0.3608
  530MOL0     H69912   4.797   4.932   3.069 -0.0618 -0.4263 -0.3000
  530MOL0     H69913   4.589   4.992   2.919  0.4579  0.5721  0.9626
  530MOL0     H69914   4.445   4.800   2.659  0.8018  1.2938 -0.1951
  530MOL0     H69915   4.422   4.957   2.732 -1.3173  0.2375  0.2241
  530MOL0     H69916   4.190   4.893   2.688 -1.4490 -1.6204 -2.0805
  530MOL0     H69917   4.219   4.837   2.858 -0.5400 -0.7402 -0.0431
  530MOL0     H69918   4.255   4.661   2.617  2.7164 -0.9777  1.0005
  530MOL0     H69919   4.256   4.597   2.777  1.9482  1.0162 -1.9272
  530MOL0     H69920   4.006   4.732   2.789 -1.4338  0.6518 -0.8958
  530MOL0     H69921   4.045   4.560   2.726  0.3281 -0.3726 -0.3551
  530MOL0     H69922   3.825   4.541   2.697 -2.7507 -3.4161 -0.5010
  530MOL0     H69923   3.580   4.572   2.669 -2.4315  2.5908 -0.4438
  530MOL0     H69924   3.296   4.970   2.543 -0.5923 -1.2915  0.5704
  530MOL0     H69925   3.057   4.994   2.588  1.1119 -0.0933  1.1245
  530MOL0     H69926   2.829   4.748   2.527 -0.0543  0.4872 -0.9188
  530MOL0     H69927   2.782   4.734   2.355  1.3595 -1.3041  0.6685
  530MOL0     H69928   2.603   4.936   2.439 -3.6449 -2.0119  0.1346
  530MOL0     H69929   2.649   4.886   2.598 -0.1674  2.2534 -0.3991
  530MOL0     H69930   2.577   4.657   2.520  0.6288  0.5630  0.6062
  530MOL0     H69931   2.555   4.729   2.357 -0.3283 -2.6929  0.4408
  530MOL0     H69932   2.401   4.828   2.599  1.2851  1.0428  0.5634
  530MOL0     H69933   2.369   4.871   2.435 -1.0453 -1.0008  0.7921
  530MOL0     H69934   2.186   4.704   2.497 -0.4108  0.7882 -1.0366
  530MOL0     H69935   2.302   4.585   2.540  1.4028 -0.1535 -1.7880
  530MOL0     H69936   2.377   4.538   2.324  0.5758  0.1117 -0.9987
  530MOL0     H69937   2.296   4.690   2.275  3.0058  0.7587  1.8810
  530MOL0     H69938   2.156   4.453   2.413  0.3755 -0.3763 -0.1576
  530MOL0     H69939   2.079   4.579   2.311  1.5179  2.7881  0.7946
  530MOL0     H69940   2.261   4.353   2.223 -0.6396 -0.0737  1.9761
  530MOL0     H69941   2.198   4.465   2.112 -3.0657 -2.0391 -0.9242
  530MOL0     H69942   2.969   4.791   2.221  0.8307 -0.9556 -0.0782
  530MOL0     H69943   3.230   4.755   2.188  0.5454  0.5156 -0.6887
  530MOL0     H69944   3.669   4.883   2.388  2.6369  0.9938  0.7051
  530MOL0     H69945   3.890   4.880   2.421 -1.6170  0.0546 -2.1601
  530MOL0     H69946   5.503   5.107   3.708 -1.7134  0.5334  2.3842
  530MOL0     H69947   5.715   5.118   3.821  1.9404 -0.4828 -1.0647
  530MOL0     H69948   6.003   5.197   4.204 -1.0436 -2.0854  0.7442
  530MOL0     H69949   6.216   5.199   4.276 -0.8562 -0.0853  0.5922
  530MOL0     H69950   6.438   5.156   4.346  0.8495 -1.4954  0.5154
  530MOL0     H69951   6.450   5.216   4.190 -2.1188 -2.1703 -1.1262
  530MOL0     H69952   6.672   5.082   4.155  0.4866 -0.5724  0.1233
  530MOL0     H69953   6.674   5.197   4.297  0.1934  1.6465 -1.6272
  530MOL0     H69954   6.601   4.901   4.352 -0.5098  0.9785 -0.0456
  530MOL0     H69955   6.652   5.036   4.456 -0.5577 -3.1172  1.1473
  530MOL0     H69956   6.823   4.869   4.422  0.3311 -0.1489  0.0131
  530MOL0     H69957   6.822   4.908   4.247 -1.5512 -1.5202  0.4898
  530MOL0     H69958   6.983   5.263   4.445 -0.9984  0.7242 -0.1686
  530MOL0     H69959   6.330   4.894   3.994  0.8548  1.3763  0.7540
  530MOL0     H69960   6.083   4.896   3.902 -2.7028  1.2913 -0.2248
  531MOL0     O69961   9.351   7.103   8.355  0.2546 -0.1300 -0.5680
  531MOL0     C69962   9.391   7.018   8.431 -0.3496 -0.3198 -0.6925
  531MOL0     O69963   9.321   6.960   8.534  0.1355 -0.4296  0.1640
  531MOL0     C69964   9.207   7.023   8.575 -0.0147  0.6584 -0.0951
  531MOL0     C69965   9.206   7.149   8.644 -0.6489 -0.2775  0.1424
  531MOL0     C69966   9.088   7.216   8.676  0.1415  0.4407 -0.3303
  531MOL0     C69967   8.970   7.158   8.655  0.5193 -0.2860  1.2836
  531MOL0     O69968   8.851   7.217   8.699 -0.1415 -0.8437 -0.4584
  531MOL0     C69969   8.762   7.249   8.589  0.2002 -1.2569 -0.0954
  531MOL0     C69970   8.671   7.372   8.625  0.4869 -0.1522  0.1836
  531MOL0     C69971   8.545   7.364   8.543 -0.3009  0.2121 -0.9978
  531MOL0     C69972   8.439   7.464   8.579  0.7423 -0.2832 -0.3779
  531MOL0     C69973   8.307   7.434   8.509  0.9372 -0.0122 -0.4918
  531MOL0     C69974   8.199   7.522   8.555 -0.7439 -0.4965  0.0176
  531MOL0     C69975   8.057   7.507   8.485  0.1611  0.3347 -0.1052
  531MOL0     C69976   7.956   7.570   8.574  0.0676 -1.3714  0.2130
  531MOL0     N69977   7.817   7.565   8.516  0.1359  0.6087  0.2852
  531MOL0     C69978   7.741   7.451   8.527 -0.9164 -0.3794  0.2201
  531MOL0     C69979   7.623   7.473   8.471 -0.2761 -0.3782  0.2322
  531MOL0     C69980   7.523   7.363   8.451 -0.0557 -0.0272  0.2549
  531MOL0     C69981   7.373   7.404   8.461  0.8719 -0.1156 -0.1612
  531MOL0     C69982   7.322   7.487   8.340 -0.1485 -0.7688 -0.4730
  531MOL0     C69983   7.178   7.513   8.359  0.7217  0.2633  0.0503
  531MOL0     O69984   7.106   7.393   8.338  0.4937 -0.2538 -0.4514
  531MOL0     C69985   6.971   7.402   8.316  0.1099  0.3736  0.0323
  531MOL0     C69986   6.905   7.282   8.291 -0.0107  0.6004 -0.4098
  531MOL0     C69987   6.758   7.275   8.284 -0.1719 -0.2348  1.0172
  531MOL0     C69988   6.683   7.392   8.284  0.5776 -0.1632  0.0167
  531MOL0     C69989   6.534   7.388   8.257  0.5311  0.2123  0.3244
  531MOL0     O69990   6.467   7.505   8.284 -0.2603  0.6120  0.0959
  531MOL0     C69991   6.332   7.511   8.273  0.4592 -0.5586  0.4326
  531MOL0     C69992   6.253   7.451   8.177  0.2946 -0.5964  0.4579
  531MOL0     C69993   6.113   7.474   8.169  0.8974 -0.8588 -0.5140
  531MOL0     C69994   6.047   7.565   8.255 -0.0124  0.7382 -0.2377
  531MOL0     O69995   5.906   7.580   8.264  0.9764 -0.1552 -0.0824
  531MOL0     C69996   5.821   7.577   8.146  0.4585  0.2352  0.1934
  531MOL0     C69997   5.673   7.598   8.194  0.7736 -0.0445  0.5864
  531MOL0     C69998   5.573   7.593   8.081  0.1510 -0.2218 -0.9053
  531MOL0     C69999   5.434   7.650   8.116 -0.6639  0.2854  0.1892
  531MOL0     C70000   5.343   7.628   7.993  0.1605 -0.6944 -0.3622
  531MOL0     C70001   5.193   7.677   7.998 -0.2154  0.4002  0.1665
  531MOL0     C70002   5.114   7.578   8.078 -0.0480  0.0282 -0.7145
  531MOL0     C70003   4.965   7.606   8.098  0.3856 -0.2363  0.4361
  531MOL0    Cl70004   4.910   7.773   8.134  0.3390  0.1501  0.0239
  531MOL0     C70005   6.130   7.630   8.348 -0.1411  0.1524  0.1178
  531MOL0     C70006   6.266   7.611   8.354 -0.1361 -0.4031  0.3987
  531MOL0     O70007   6.485   7.276   8.221  0.7958 -0.8629  0.6807
  531MOL0     C70008   6.757   7.508   8.304 -0.2027 -0.7267 -0.0551
  531MOL0     C70009   6.896   7.519   8.316  0.2988  0.2856 -0.1332
  531MOL0     N70010   7.621   7.610   8.443 -0.2070  0.8042  0.1828
  531MOL0     N70011   7.743   7.662   8.459  0.6974 -0.3006 -0.6584
  531MOL0     C70012   8.963   7.037   8.578 -0.5010  0.6456  0.1536
  531MOL0     C70013   9.082   6.969   8.548 -0.5464  0.4840 -0.4039
  531MOL0     C70014   9.526   6.974   8.409 -0.5458 -0.0212 -1.3164
  531MOL0     C70015   9.608   7.027   8.312 -0.5490  0.2743  1.1172
  531MOL0     C70016   9.734   6.979   8.289  0.6493  0.3696 -0.3167
  531MOL0     C70017   9.795   6.891   8.377  0.0407  0.8195  0.6302
  531MOL0     O70018   9.934   6.853   8.373 -0.3577  0.1640  0.1526
  531MOL0     C70019   9.971   6.795   8.247 -0.0767  0.7518 -0.0687
  531MOL0     C70020  10.100   6.728   8.267  0.9928 -0.3390  0.6127
  531MOL0     C70021  10.141   6.641   8.147  0.2694  0.1896  0.5898
  531MOL0     C70022  10.250   6.530   8.188  0.6011  0.0263  0.0569
  531MOL0     C70023  10.315   6.470   8.064  0.2294  0.5919 -0.0358
  531MOL0     C70024  10.377   6.424   7.970 -0.0014  0.7538  0.2674
  531MOL0     C70025   9.708   6.823   8.467  0.7364 -0.5234  0.9555
  531MOL0     C70026   9.569   6.865   8.478 -0.8955  0.4251 -0.3670
  531MOL0     H70027   9.290   7.216   8.660 -1.5569  0.9653 -0.1584
  531MOL0     H70028   9.093   7.316   8.718 -0.1867  0.6723 -0.8309
  531MOL0     H70029   8.701   7.160   8.575  0.0837 -0.7319 -4.1056
  531MOL0     H70030   8.810   7.266   8.493 -0.9016 -0.6430 -0.5569
  531MOL0     H70031   8.725   7.466   8.611 -0.5420  0.7317  1.8533
  531MOL0     H70032   8.649   7.359   8.731  3.3631  0.8907  0.9956
  531MOL0     H70033   8.496   7.266   8.543 -1.0968  0.5520  1.6361
  531MOL0     H70034   8.578   7.377   8.439 -0.2445 -1.0431 -1.1603
  531MOL0     H70035   8.424   7.457   8.687 -0.1166 -0.9993 -0.5309
  531MOL0     H70036   8.480   7.563   8.558  1.8257 -0.6245  0.0477
  531MOL0     H70037   8.273   7.333   8.531  1.8340 -0.4983 -1.2591
  531MOL0     H70038   8.314   7.437   8.400  1.1287 -1.6956 -0.5515
  531MOL0     H70039   8.244   7.621   8.542 -0.4893 -0.6919 -0.6041
  531MOL0     H70040   8.192   7.516   8.664  1.7777 -1.2136  0.2081
  531MOL0     H70041   8.061   7.557   8.388  1.4601 -2.1291 -1.4023
  531MOL0     H70042   8.032   7.402   8.471 -1.8218  0.8258 -0.6401
  531MOL0     H70043   7.971   7.676   8.597  1.6700 -1.3539 -0.7271
  531MOL0     H70044   7.961   7.519   8.670 -0.2256  2.5797  2.5288
  531MOL0     H70045   7.760   7.364   8.589  0.8487 -1.7848 -2.1447
  531MOL0     H70046   7.549   7.286   8.524 -0.7229  0.6084  1.1940
  531MOL0     H70047   7.546   7.321   8.353  4.6663 -0.1484  1.1964
  531MOL0     H70048   7.354   7.475   8.543 -2.2920 -1.8210  0.7281
  531MOL0     H70049   7.306   7.324   8.492  0.5295  1.0201  2.3206
  531MOL0     H70050   7.371   7.585   8.333  1.2186 -1.4002 -0.0218
  531MOL0     H70051   7.336   7.433   8.247  1.9404  0.3547 -0.8749
  531MOL0     H70052   7.144   7.581   8.279  0.1759 -0.7174 -0.5740
  531MOL0     H70053   7.152   7.568   8.450 -1.0601 -2.4290  1.3069
  531MOL0     H70054   6.961   7.191   8.305  0.7080  1.0225 -0.4899
  531MOL0     H70055   6.714   7.178   8.262  0.2364  0.1280 -1.7873
  531MOL0     H70056   6.302   7.391   8.100  0.2495 -0.7473  0.5450
  531MOL0     H70057   6.047   7.420   8.101  1.8338 -1.9173 -0.6048
  531MOL0     H70058   5.821   7.474   8.110 -1.8386 -0.4368  1.8806
  531MOL0     H70059   5.855   7.656   8.079  0.8989 -0.2705 -0.1809
  531MOL0     H70060   5.667   7.696   8.243 -1.1865 -0.1963  0.7229
  531MOL0     H70061   5.656   7.523   8.273  0.3911 -0.9958 -0.3757
  531MOL0     H70062   5.553   7.487   8.066  0.9082 -1.1593  3.3471
  531MOL0     H70063   5.605   7.647   7.992  0.7056 -2.2087 -1.9726
  531MOL0     H70064   5.400   7.593   8.203 -4.5389 -0.2062 -1.4735
  531MOL0     H70065   5.449   7.756   8.140 -2.4051  0.0330  2.7402
  531MOL0     H70066   5.340   7.520   7.978 -2.3913 -0.4058 -2.6524
  531MOL0     H70067   5.399   7.666   7.908 -0.5786 -0.5090 -0.7661
  531MOL0     H70068   5.151   7.670   7.897 -2.3571 -0.8890  1.0572
  531MOL0     H70069   5.185   7.779   8.038  1.6300  1.0915 -1.1090
  531MOL0     H70070   5.124   7.473   8.048 -2.3168 -1.4879  3.1264
  531MOL0     H70071   5.161   7.583   8.177  0.9776  0.3265 -1.2040
  531MOL0     H70072   4.943   7.542   8.184 -0.0494 -1.1431 -0.3295
  531MOL0     H70073   4.912   7.567   8.011 -1.0026 -1.0427  1.5842
  531MOL0     H70074   6.082   7.709   8.405 -0.5176  0.5344 -0.7027
  531MOL0     H70075   6.318   7.677   8.422  0.8432 -0.1954 -0.5290
  531MOL0     H70076   6.692   7.595   8.307 -0.7313 -1.1438  0.8582
  531MOL0     H70077   6.944   7.615   8.328  0.3520  0.3000 -0.4723
  531MOL0     H70078   8.871   6.989   8.546 -0.1622  1.1892 -1.7387
  531MOL0     H70079   9.084   6.873   8.497 -0.2157  0.1836  0.1621
  531MOL0     H70080   9.572   7.101   8.241  0.7789 -0.0853  0.0225
  531MOL0     H70081   9.800   7.022   8.214  0.8616 -0.5942 -0.6857
  531MOL0     H70082   9.982   6.883   8.183 -3.5889  2.3184  1.2375
  531MOL0     H70083   9.893   6.723   8.218  0.5578 -0.6708  1.5687
  531MOL0     H70084  10.175   6.806   8.282  1.9300 -1.2664  0.9016
  531MOL0     H70085  10.090   6.673   8.361  1.9205  0.8939  1.4633
  531MOL0     H70086  10.180   6.693   8.058  0.8552 -1.5365 -0.2063
  531MOL0     H70087  10.053   6.596   8.100  0.9388  1.7726 -2.5064
  531MOL0     H70088  10.317   6.579   8.260  0.2894  1.4963 -0.6176
  531MOL0     H70089  10.197   6.457   8.250  1.3347 -0.0030  0.6656
  531MOL0     H70090  10.439   6.392   7.888 -0.7257  1.8351 -0.7463
  531MOL0     H70091   9.753   6.754   8.538  3.6222  0.3420  0.1067
  531MOL0     H70092   9.507   6.822   8.555 -1.7242 -1.0447 -1.7838
  532MOL0     O70093  10.830  10.736   8.197 -0.5284 -0.0151  0.1603
  532MOL0     C70094  10.845  10.823   8.280 -0.2209  0.3033 -0.0771
  532MOL0     O70095  10.744  10.878   8.346  0.2577  0.6865  0.4085
  532MOL0     C70096  10.617  10.819   8.336  0.1200 -0.5804 -0.8399
  532MOL0     C70097  10.546  10.797   8.223  0.3623 -0.5774  0.7587
  532MOL0     C70098  10.419  10.743   8.227  0.8414 -0.4741 -0.1877
  532MOL0     C70099  10.350  10.729   8.349  1.1415 -0.3396  0.2384
  532MOL0     O70100  10.224  10.675   8.363 -0.0584 -0.3534 -0.1061
  532MOL0     C70101  10.164  10.602   8.256  0.5402 -0.2003  0.0182
  532MOL0     C70102  10.042  10.532   8.332  0.3747  0.1748  0.5024
  532MOL0     C70103   9.931  10.640   8.329 -1.0118 -0.0083 -0.1980
  532MOL0     C70104   9.806  10.580   8.402 -0.0268  0.4057  0.4810
  532MOL0     C70105   9.682  10.668   8.428  0.0329  0.0759  0.7375
  532MOL0     C70106   9.640  10.733   8.296  0.4446 -0.5726 -0.2892
  532MOL0     C70107   9.508  10.806   8.311 -0.2172 -0.0621 -0.8066
  532MOL0     C70108   9.449  10.857   8.174 -0.8549 -0.4835  0.2581
  532MOL0     N70109   9.322  10.930   8.200 -0.5498  0.5911  0.1269
  532MOL0     C70110   9.303  11.025   8.293  0.0838  0.2723  0.7056
  532MOL0     C70111   9.168  11.031   8.290  1.0507  0.1229  0.7107
  532MOL0     C70112   9.090  11.111   8.390  0.6684 -0.0297  0.0109
  532MOL0     C70113   8.989  11.040   8.480 -0.0736  0.3260  0.4345
  532MOL0     C70114   8.896  11.136   8.558 -0.1344  0.0425  0.4769
  532MOL0     C70115   8.831  11.070   8.680 -0.0727 -0.6731 -0.2882
  532MOL0     O70116   8.729  11.157   8.736 -0.2372  0.4984 -0.2535
  532MOL0     C70117   8.609  11.167   8.667  0.6275  0.5863  0.0967
  532MOL0     C70118   8.533  11.272   8.708  0.7399 -0.0649 -0.1527
  532MOL0     C70119   8.402  11.283   8.667  0.9518 -0.8492  0.5899
  532MOL0     C70120   8.339  11.195   8.581  0.4722  0.4611 -0.3820
  532MOL0     C70121   8.202  11.223   8.544  1.0744 -0.0778  0.4458
  532MOL0     O70122   8.141  11.138   8.450 -0.2561 -0.1884  0.1410
  532MOL0     C70123   8.003  11.128   8.440  0.2480 -0.2192 -0.5082
  532MOL0     C70124   7.930  11.193   8.338  0.2214  0.1740 -0.1975
  532MOL0     C70125   7.788  11.188   8.342 -0.6209 -0.0990 -0.0991
  532MOL0     C70126   7.718  11.108   8.438 -0.3370  0.0579  0.5048
  532MOL0     O70127   7.583  11.115   8.439 -0.5434  0.1837  0.0798
  532MOL0     C70128   7.511  11.108   8.567 -1.3548 -0.0729 -0.7666
  532MOL0     C70129   7.366  11.106   8.549  0.4642  0.4045  0.5621
  532MOL0     C70130   7.319  10.993   8.463  0.3404  0.4365 -0.1271
  532MOL0     C70131   7.167  10.984   8.436  0.6616  0.3500  0.1354
  532MOL0     C70132   7.103  10.877   8.523  1.7713  0.8152 -0.1555
  532MOL0     C70133   6.949  10.885   8.522 -0.2574  0.2627  0.7633
  532MOL0     C70134   6.884  10.976   8.627  0.6981 -0.1011 -0.1903
  532MOL0     C70135   6.735  10.949   8.653  0.4061 -0.5898 -0.2103
  532MOL0    Cl70136   6.633  10.986   8.509  0.2691 -0.2189 -0.2488
  532MOL0     C70137   7.797  11.035   8.525 -0.4296  0.2053 -0.4351
  532MOL0     C70138   7.936  11.041   8.533  0.1945 -0.4533  0.5727
  532MOL0     O70139   8.141  11.298   8.615 -0.0932  0.0662  0.5550
  532MOL0     C70140   8.413  11.085   8.546 -0.2350  0.2346  0.2259
  532MOL0     C70141   8.551  11.081   8.578 -0.0977 -0.1027  0.6971
  532MOL0     N70142   9.113  10.945   8.190  0.2513 -0.0869  0.0198
  532MOL0     N70143   9.207  10.882   8.134 -0.1832 -0.7050  1.0836
  532MOL0     C70144  10.418  10.753   8.462  0.2909  0.2685 -0.6881
  532MOL0     C70145  10.550  10.793   8.462 -0.3947 -1.0791  0.2024
  532MOL0     C70146  10.981  10.874   8.316  0.0560 -0.5031 -0.6043
  532MOL0     C70147  11.087  10.855   8.223  0.3199 -0.5629 -0.8608
  532MOL0     C70148  11.209  10.927   8.236 -0.1361  0.8938 -0.0933
  532MOL0     C70149  11.235  11.009   8.353  0.1955  1.1732  0.0232
  532MOL0     O70150  11.344  11.085   8.364  0.6050 -0.5118 -0.5737
  532MOL0     C70151  11.448  11.091   8.268  0.3413 -0.2160  0.8411
  532MOL0     C70152  11.536  11.221   8.288  0.7936  1.1220 -0.1441
  532MOL0     C70153  11.623  11.237   8.164 -0.2591 -0.1139 -0.3770
  532MOL0     C70154  11.730  11.347   8.190 -0.2910  0.2041 -0.7667
  532MOL0     C70155  11.836  11.325   8.296 -0.4111 -1.1953 -0.2459
  532MOL0     C70156  11.923  11.305   8.379  0.0627  0.2459 -0.4774
  532MOL0     C70157  11.134  11.013   8.448 -0.4893 -0.5246 -0.0990
  532MOL0     C70158  11.011  10.944   8.433 -1.3479 -0.2297  0.3006
  532MOL0     H70159  10.587  10.812   8.123 -1.2509 -3.8347 -0.5338
  532MOL0     H70160  10.373  10.725   8.131  1.5176 -0.2068 -0.5735
  532MOL0     H70161  10.233  10.521   8.232 -0.9072 -1.0911 -1.3285
  532MOL0     H70162  10.144  10.651   8.161 -1.6442  0.4189  0.7304
  532MOL0     H70163  10.068  10.493   8.430  0.2922 -0.0245  0.4459
  532MOL0     H70164  10.001  10.449   8.274 -0.5020 -0.4910  2.0269
  532MOL0     H70165   9.891  10.665   8.230 -1.1463 -0.5549 -0.2842
  532MOL0     H70166   9.975  10.732   8.370 -1.3330 -1.0275  2.6510
  532MOL0     H70167   9.762  10.495   8.350 -0.7364  0.2256  1.3497
  532MOL0     H70168   9.846  10.542   8.496  1.5087  0.2778 -0.1863
  532MOL0     H70169   9.700  10.741   8.508  3.5225  0.1703  0.0259
  532MOL0     H70170   9.603  10.608   8.472 -1.4085  2.0298  0.9542
  532MOL0     H70171   9.636  10.652   8.222  0.9226  0.1280 -1.0893
  532MOL0     H70172   9.716  10.799   8.253  0.8233 -1.0700 -0.4033
  532MOL0     H70173   9.438  10.731   8.349  1.3488 -1.5454 -0.7296
  532MOL0     H70174   9.509  10.886   8.385 -1.8839  1.0436 -1.8978
  532MOL0     H70175   9.443  10.779   8.097  1.5846  1.7474 -2.4053
  532MOL0     H70176   9.527  10.924   8.138 -1.3882 -1.2385 -2.5058
  532MOL0     H70177   9.379  11.074   8.352 -1.7975  0.9807  2.6764
  532MOL0     H70178   9.032  11.194   8.349 -1.0616 -0.4001  1.5959
  532MOL0     H70179   9.153  11.160   8.465  1.4498 -2.0122  0.7237
  532MOL0     H70180   9.049  10.989   8.556  1.8463  0.7316 -0.7261
  532MOL0     H70181   8.941  10.967   8.414  0.6401  0.4939 -0.2956
  532MOL0     H70182   8.943  11.227   8.596 -0.4849 -0.1168  1.3082
  532MOL0     H70183   8.811  11.162   8.493 -1.0441  0.3539  1.7347
  532MOL0     H70184   8.913  11.059   8.752  0.1370 -3.4411 -0.8512
  532MOL0     H70185   8.800  10.967   8.659 -1.9492 -0.3748  0.8245
  532MOL0     H70186   8.582  11.343   8.773  1.4646 -0.1977 -0.5520
  532MOL0     H70187   8.365  11.383   8.687  1.4624 -0.8086  1.3893
  532MOL0     H70188   7.968  11.250   8.254  0.3803 -1.3010 -1.1808
  532MOL0     H70189   7.733  11.251   8.273  0.5621  2.3521  1.0685
  532MOL0     H70190   7.537  11.191   8.634 -1.6189 -0.1702 -0.5407
  532MOL0     H70191   7.554  11.022   8.618 -0.5043 -0.2171 -1.7056
  532MOL0     H70192   7.348  11.204   8.503 -0.2127 -0.3932 -0.9212
  532MOL0     H70193   7.311  11.097   8.644  0.0430 -0.2017  0.2655
  532MOL0     H70194   7.347  10.893   8.497  1.9971  0.7461 -0.4557
  532MOL0     H70195   7.357  10.994   8.361 -2.3715 -4.5628 -1.5020
  532MOL0     H70196   7.120  11.080   8.453 -1.3873 -0.0189 -2.8224
  532MOL0     H70197   7.154  10.946   8.334 -2.5281  1.6617 -0.0409
  532MOL0     H70198   7.137  10.892   8.626 -0.0819  1.4589  0.4078
  532MOL0     H70199   7.147  10.778   8.509 -0.6425 -1.4619  5.4746
  532MOL0     H70200   6.902  10.786   8.523 -2.8522  1.3689 -1.5897
  532MOL0     H70201   6.935  10.904   8.416  1.3503 -1.5180  0.1654
  532MOL0     H70202   6.931  10.954   8.723 -2.1908 -2.4885  0.8721
  532MOL0     H70203   6.891  11.080   8.595 -2.8560  0.3729  0.1585
  532MOL0     H70204   6.705  11.016   8.734  3.0942 -0.3147  0.6516
  532MOL0     H70205   6.726  10.843   8.681  0.7535 -1.0756 -1.8306
  532MOL0     H70206   7.763  10.962   8.599  2.5633 -1.0005 -0.1180
  532MOL0     H70207   7.978  10.994   8.621 -0.0559  0.1953  1.0463
  532MOL0     H70208   8.365  11.012   8.481  1.7123  0.4805 -1.5908
  532MOL0     H70209   8.617  11.001   8.546  2.1512  1.7005  0.5704
  532MOL0     H70210  10.366  10.749   8.557 -0.5389  0.7320 -1.1126
  532MOL0     H70211  10.602  10.819   8.554  0.4596  2.4048 -1.0931
  532MOL0     H70212  11.082  10.781   8.144  1.3451 -1.0629 -0.4766
  532MOL0     H70213  11.288  10.908   8.163  0.8252  3.8626  0.0626
  532MOL0     H70214  11.392  11.092   8.174 -3.0082  0.6045  2.6869
  532MOL0     H70215  11.508  11.000   8.278 -3.1565 -2.8354 -0.0528
  532MOL0     H70216  11.482  11.316   8.288  1.8846  1.7576 -0.5208
  532MOL0     H70217  11.602  11.206   8.374 -1.2141 -4.0810  0.8848
  532MOL0     H70218  11.577  11.260   8.068  4.3688  0.9998 -2.6462
  532MOL0     H70219  11.658  11.135   8.145 -1.9888 -0.6391 -0.9516
  532MOL0     H70220  11.783  11.373   8.098 -0.2420  0.3674 -0.6939
  532MOL0     H70221  11.673  11.435   8.223  1.3840  0.5214  1.5708
  532MOL0     H70222  11.988  11.286   8.462  2.3087 -1.8138 -2.5598
  532MOL0     H70223  11.162  11.062   8.540 -0.2199 -0.9264  0.0369
  532MOL0     H70224  10.940  10.954   8.515  1.2747 -1.0664  2.8604
  533MOL0     O70225   3.644   7.407  10.544 -0.4380  0.1665  0.3567
  533MOL0     C70226   3.661   7.529  10.546 -1.1434 -0.1068  0.1286
  533MOL0     O70227   3.581   7.628  10.600  0.2404  0.4841 -0.0623
  533MOL0     C70228   3.469   7.578  10.669  0.6958 -0.1756 -0.6340
  533MOL0     C70229   3.424   7.659  10.775  0.6694  0.9029 -0.7773
  533MOL0     C70230   3.300   7.630  10.845 -0.2414  0.0560  0.8142
  533MOL0     C70231   3.214   7.537  10.792 -0.2222 -0.3250  0.8571
  533MOL0     O70232   3.095   7.512  10.855  0.4021  0.1065 -0.2450
  533MOL0     C70233   2.976   7.496  10.773 -0.6419  0.2737  0.5611
  533MOL0     C70234   2.856   7.453  10.851 -1.0170 -0.4857  1.1113
  533MOL0     C70235   2.779   7.345  10.785  0.0292 -0.3804 -0.3247
  533MOL0     C70236   2.654   7.324  10.878  0.1075  1.1483  0.1838
  533MOL0     C70237   2.681   7.228  10.998 -0.4675 -0.5315 -0.3110
  533MOL0     C70238   2.590   7.105  10.993  0.0005 -0.2418 -0.9695
  533MOL0     C70239   2.622   7.013  11.120  0.1966 -0.4082  0.4415
  533MOL0     C70240   2.494   6.936  11.161 -0.0609 -0.1451  0.1470
  533MOL0     N70241   2.511   6.851  11.284  0.2677 -0.3502 -0.8701
  533MOL0     C70242   2.447   6.729  11.314  0.8861  0.6491 -0.5287
  533MOL0     C70243   2.496   6.692  11.441 -0.0358 -0.1950 -0.4956
  533MOL0     C70244   2.451   6.573  11.527 -0.7786 -0.9631 -0.9533
  533MOL0     C70245   2.305   6.586  11.539 -0.0172  0.5227  0.2195
  533MOL0     C70246   2.245   6.452  11.588  0.0769 -0.2934 -0.3532
  533MOL0     C70247   2.097   6.447  11.563  0.5431  0.2822 -0.2424
  533MOL0     O70248   2.048   6.328  11.634  0.2287  1.0331  0.3352
  533MOL0     C70249   1.920   6.285  11.615 -0.1587  0.3987 -0.6027
  533MOL0     C70250   1.811   6.343  11.545 -0.0246 -0.4375  1.1412
  533MOL0     C70251   1.680   6.287  11.546 -0.0565  1.3314  0.6478
  533MOL0     C70252   1.655   6.166  11.605 -0.4365  0.2364  0.1200
  533MOL0     C70253   1.527   6.110  11.607  0.4779  1.2083  0.8354
  533MOL0     O70254   1.416   6.174  11.550 -0.3849  0.0761 -0.0574
  533MOL0     C70255   1.284   6.119  11.557  0.1492 -0.3542  0.2710
  533MOL0     C70256   1.176   6.212  11.557  0.0054  0.5156  0.6638
  533MOL0     C70257   1.036   6.167  11.556  0.7422  0.6116  0.0192
  533MOL0     C70258   1.008   6.031  11.554 -0.8569 -0.1503 -0.0258
  533MOL0     O70259   0.889   5.974  11.548  0.5743 -0.3436  0.8551
  533MOL0     C70260   0.777   6.042  11.497  0.3412 -0.7360 -0.0285
  533MOL0     C70261   0.655   5.957  11.468 -0.7397 -0.1098  0.2956
  533MOL0     C70262   0.597   5.887  11.591 -0.5719  0.1168  0.3267
  533MOL0     C70263   0.536   5.988  11.693  0.9982  0.1081  1.0370
  533MOL0     C70264   0.434   6.085  11.636  0.8031  0.0673 -0.7289
  533MOL0     C70265   0.305   6.003  11.602 -0.8485  0.9864  0.2195
  533MOL0     C70266   0.199   6.071  11.525 -0.0786 -0.1438  0.8336
  533MOL0     C70267   0.116   6.173  11.604  0.5834  1.0641  0.6500
  533MOL0    Cl70268   0.036   6.088  11.741 -0.1727  0.1795 -0.3935
  533MOL0     C70269   1.117   5.942  11.548 -0.3640  0.3471  0.1377
  533MOL0     C70270   1.251   5.986  11.540  1.1224 -0.3505 -0.3612
  533MOL0     O70271   1.514   6.007  11.678 -0.1982  1.0489  0.3174
  533MOL0     C70272   1.764   6.098  11.667  1.1873 -0.2399 -0.1534
  533MOL0     C70273   1.887   6.163  11.664 -0.0086  1.1861 -0.0509
  533MOL0     N70274   2.571   6.802  11.488 -0.1031  1.1697  0.4795
  533MOL0     N70275   2.588   6.892  11.394 -1.0552  0.3535  0.3785
  533MOL0     C70276   3.256   7.460  10.680 -0.1400  1.0324 -0.7683
  533MOL0     C70277   3.380   7.486  10.621  0.0526  0.5282  0.6986
  533MOL0     C70278   3.784   7.571  10.473  0.4876  0.3732 -1.0253
  533MOL0     C70279   3.870   7.478  10.407  0.1473 -0.1308  0.0337
  533MOL0     C70280   3.984   7.521  10.342  0.4593  0.1383 -0.0466
  533MOL0     C70281   4.026   7.653  10.342  0.5173  0.3199 -0.2494
  533MOL0     O70282   4.121   7.696  10.255 -0.2032 -0.5687  0.5578
  533MOL0     C70283   4.161   7.837  10.258  0.1643  0.4184 -0.2057
  533MOL0     C70284   4.275   7.870  10.162  0.0946  0.1105 -0.4418
  533MOL0     C70285   4.294   8.028  10.133 -0.7326  0.5571 -0.1610
  533MOL0     C70286   4.354   8.109  10.252 -0.3913  0.3433  0.1725
  533MOL0     C70287   4.261   8.108  10.367 -0.1159 -0.1951 -0.1894
  533MOL0     C70288   4.197   8.115  10.471 -0.2102 -0.6410 -0.2432
  533MOL0     C70289   3.942   7.747  10.409  0.8808  0.4737 -0.9583
  533MOL0     C70290   3.826   7.704  10.480 -0.7973  0.1994 -0.4421
  533MOL0     H70291   3.482   7.741  10.815 -2.0705  2.4758  0.3165
  533MOL0     H70292   3.265   7.689  10.928 -2.2416  0.0123  0.0612
  533MOL0     H70293   3.006   7.412  10.709  0.1521  0.3103  0.8760
  533MOL0     H70294   2.952   7.580  10.707 -0.0023 -0.6829 -0.9518
  533MOL0     H70295   2.797   7.543  10.866 -0.4072 -0.3030  2.4740
  533MOL0     H70296   2.888   7.423  10.951 -1.5007  0.2593  1.4910
  533MOL0     H70297   2.839   7.256  10.764 -0.5279 -0.5739 -1.1287
  533MOL0     H70298   2.744   7.384  10.689 -1.5308  0.2733  0.4633
  533MOL0     H70299   2.618   7.421  10.914  3.8777  2.8943 -0.2725
  533MOL0     H70300   2.570   7.278  10.826 -0.6045  0.0911  2.1402
  533MOL0     H70301   2.664   7.279  11.094  2.0441 -0.0590 -0.0476
  533MOL0     H70302   2.784   7.191  11.004 -1.4545 -3.3316  1.5551
  533MOL0     H70303   2.607   7.057  10.896  1.2894 -0.2109 -0.7846
  533MOL0     H70304   2.487   7.140  11.005  0.8639  2.4931 -0.8021
  533MOL0     H70305   2.716   6.958  11.105 -0.3203 -1.8056  1.9977
  533MOL0     H70306   2.637   7.071  11.212 -1.4861 -0.2809  0.6593
  533MOL0     H70307   2.460   6.866  11.084 -0.9483 -0.8217  1.1357
  533MOL0     H70308   2.410   7.005  11.176 -0.1511 -0.3679  0.6938
  533MOL0     H70309   2.382   6.665  11.255 -0.2819  0.1355  1.2293
  533MOL0     H70310   2.499   6.579  11.624  0.7468 -1.8322 -1.6259
  533MOL0     H70311   2.480   6.481  11.476 -0.0674 -0.3255 -1.7362
  533MOL0     H70312   2.258   6.611  11.443  1.2775  0.7624 -0.3721
  533MOL0     H70313   2.286   6.672  11.605 -0.7628 -0.9230  1.9712
  533MOL0     H70314   2.294   6.370  11.536  0.6250 -0.3666  0.2657
  533MOL0     H70315   2.264   6.447  11.695 -3.1697  0.0427  0.3325
  533MOL0     H70316   2.078   6.431  11.456  0.9432 -2.4379  0.0086
  533MOL0     H70317   2.043   6.536  11.596 -1.5317 -0.9042 -0.2073
  533MOL0     H70318   1.820   6.439  11.495 -4.4388 -0.6990 -0.5092
  533MOL0     H70319   1.602   6.335  11.487  0.5900 -1.0521 -2.3611
  533MOL0     H70320   1.201   6.317  11.549 -1.2962  0.6767 -4.0925
  533MOL0     H70321   0.952   6.235  11.566 -1.0004 -1.1208 -1.8978
  533MOL0     H70322   0.813   6.091  11.406  3.3070 -2.1298  0.2837
  533MOL0     H70323   0.745   6.123  11.563  1.7973  1.7899 -2.2467
  533MOL0     H70324   0.685   5.875  11.403 -1.8547 -0.7238  0.5311
  533MOL0     H70325   0.581   6.021  11.419 -1.2514 -1.0635 -0.2081
  533MOL0     H70326   0.677   5.838  11.647  0.9860  2.9962  0.7919
  533MOL0     H70327   0.512   5.819  11.575 -1.3371  0.3803  2.7874
  533MOL0     H70328   0.491   5.932  11.775 -0.0139 -1.4136 -0.4870
  533MOL0     H70329   0.621   6.045  11.732  1.9439 -2.4262  2.9550
  533MOL0     H70330   0.455   6.138  11.543 -0.0906 -0.0956 -1.0267
  533MOL0     H70331   0.416   6.163  11.711 -3.5214 -0.8314 -0.5672
  533MOL0     H70332   0.264   5.955  11.691  3.1556  0.4650  2.0025
  533MOL0     H70333   0.340   5.925  11.533 -4.6860 -0.0631 -0.7581
  533MOL0     H70334   0.236   6.104  11.427 -1.1907 -0.0238  0.4430
  533MOL0     H70335   0.127   5.994  11.496  0.5532 -0.2183 -0.6684
  533MOL0     H70336   0.034   6.215  11.545 -0.2753  0.9437  1.7270
  533MOL0     H70337   0.181   6.256  11.631  1.8628  0.3529 -0.1420
  533MOL0     H70338   1.091   5.838  11.536  0.0228 -0.2624  3.6085
  533MOL0     H70339   1.329   5.911  11.525 -0.9910 -3.2090  1.7507
  533MOL0     H70340   1.758   6.001  11.714 -0.2526  0.3529  0.9497
  533MOL0     H70341   1.979   6.108  11.683  0.6203  2.0367 -0.5494
  533MOL0     H70342   3.187   7.385  10.643 -1.7394  0.4938  2.9004
  533MOL0     H70343   3.413   7.441  10.527  0.5941 -1.5919  1.8419
  533MOL0     H70344   3.850   7.372  10.410 -0.5893 -0.1842 -3.0065
  533MOL0     H70345   4.039   7.457  10.274  2.7266  1.2021  0.7120
  533MOL0     H70346   4.178   7.872  10.360 -2.1736  0.7956  0.1050
  533MOL0     H70347   4.081   7.898  10.216  1.1307  1.9667  0.0964
  533MOL0     H70348   4.369   7.827  10.197  0.9594 -0.9455 -3.7273
  533MOL0     H70349   4.262   7.822  10.065  1.2880 -0.4224 -0.3505
  533MOL0     H70350   4.198   8.071  10.101 -1.6015 -1.3421 -0.2990
  533MOL0     H70351   4.362   8.036  10.048  2.4310  1.0183  2.2300
  533MOL0     H70352   4.458   8.092  10.280  0.3143  2.0944 -1.1650
  533MOL0     H70353   4.357   8.209  10.208 -1.5203  0.1764 -0.3166
  533MOL0     H70354   4.140   8.122  10.562 -2.7778 -1.6226 -1.6794
  533MOL0     H70355   3.960   7.854  10.408  0.3421  0.5720 -0.6490
  533MOL0     H70356   3.774   7.777  10.542 -1.3095 -0.6182  0.1037
  534MOL0     O70357   9.090   0.536   0.000 -0.3507  0.1951 -0.8703
  534MOL0     C70358   9.149   0.433   0.041  0.1715 -0.6769  0.2559
  534MOL0     O70359   9.125   0.367   0.158 -0.4658 -0.5279  0.6359
  534MOL0     C70360   9.036   0.426   0.249  0.2619  0.6374 -0.0977
  534MOL0     C70361   9.044   0.556   0.302 -1.0277  0.2858  0.1111
  534MOL0     C70362   8.949   0.605   0.385  0.1268  0.8820 -0.0258
  534MOL0     C70363   8.835   0.524   0.415  0.7690 -0.4498 -0.7124
  534MOL0     O70364   8.732   0.587   0.478  0.3409 -0.1493  0.2699
  534MOL0     C70365   8.603   0.585   0.418  0.1141  0.3565  0.8280
  534MOL0     C70366   8.506   0.682   0.482 -0.9254  0.5605  0.0378
  534MOL0     C70367   8.411   0.732   0.380 -0.4081 -0.3870 -0.2257
  534MOL0     C70368   8.310   0.819   0.455  0.2414  0.3629  0.3242
  534MOL0     C70369   8.186   0.851   0.376  0.5210  0.1874  0.7724
  534MOL0     C70370   8.092   0.962   0.415  0.6402 -0.1563 -0.1661
  534MOL0     C70371   7.980   0.971   0.309  0.3326 -0.9364  0.3191
  534MOL0     C70372   7.881   0.851   0.295 -0.4145  0.6238  0.1769
  534MOL0     N70373   7.772   0.876   0.199 -0.0194 -0.5990  0.6836
  534MOL0     C70374   7.647   0.926   0.229 -0.0539 -0.0818  0.3043
  534MOL0     C70375   7.574   0.924   0.116  0.7757  0.1924  0.6826
  534MOL0     C70376   7.433   0.961   0.092  0.6783  0.5517  0.2890
  534MOL0     C70377   7.341   0.874   0.175 -0.6978  0.3675  0.0818
  534MOL0     C70378   7.206   0.936   0.182  1.1114  0.6917  0.0463
  534MOL0     C70379   7.137   0.973   0.048  0.6194 -0.5249  0.1444
  534MOL0     O70380   7.002   1.028   0.073 -0.5379  0.2867 -0.4101
  534MOL0     C70381   6.890   0.945   0.073 -0.0264 -0.4852  0.7463
  534MOL0     C70382   6.894   0.807   0.054 -0.1336 -0.2351 -0.0390
  534MOL0     C70383   6.773   0.735   0.053 -0.0610  1.1310  0.1373
  534MOL0     C70384   6.649   0.795   0.080 -0.0727 -1.3748 -0.1986
  534MOL0     C70385   6.528   0.712   0.096  0.1512 -0.9810  0.2639
  534MOL0     O70386   6.413   0.773   0.146  0.2120  1.0389  0.0090
  534MOL0     C70387   6.291   0.742   0.087  0.2818  0.2029  0.2945
  534MOL0     C70388   6.256   0.641  -0.002  0.6309  0.4956  0.2421
  534MOL0     C70389   6.129   0.626  -0.058 -0.4779  0.5782  0.6844
  534MOL0     C70390   6.022   0.705  -0.018 -0.6422  0.8078 -0.8327
  534MOL0     O70391   5.899   0.675  -0.081  0.2116 -0.4750 -0.2661
  534MOL0     C70392   5.773   0.709  -0.011 -0.1541 -0.6404 -0.0150
  534MOL0     C70393   5.653   0.716  -0.105  0.3611  0.1933  0.6043
  534MOL0     C70394   5.513   0.709  -0.041  0.0470 -0.0036  0.9599
  534MOL0     C70395   5.400   0.700  -0.144  0.2609  0.4889  0.2729
  534MOL0     C70396   5.276   0.631  -0.092 -0.0999  0.3424  0.0493
  534MOL0     C70397   5.151   0.663  -0.166  0.8920  0.3404  0.1421
  534MOL0     C70398   5.150   0.659  -0.322 -0.1761  0.4512 -0.4468
  534MOL0     C70399   5.018   0.719  -0.375 -0.6259  0.2357  0.7143
  534MOL0    Cl70400   4.872   0.637  -0.330 -0.0367  0.0957 -0.0167
  534MOL0     C70401   6.055   0.808   0.075  0.2259 -0.4310  0.2603
  534MOL0     C70402   6.185   0.825   0.136 -0.2591 -0.2487  0.4512
  534MOL0     O70403   6.538   0.600   0.069 -0.8039  0.4666  0.3783
  534MOL0     C70404   6.647   0.937   0.100  0.5456  0.3339 -0.3079
  534MOL0     C70405   6.768   1.007   0.104 -0.2336  0.2200  0.0871
  534MOL0     N70406   7.660   0.871   0.020  0.5139  1.2558 -0.6075
  534MOL0     N70407   7.775   0.843   0.070 -1.2202  1.0557 -0.8358
  534MOL0     C70408   8.825   0.393   0.370 -0.3405  0.1748  0.3291
  534MOL0     C70409   8.929   0.341   0.288  0.5492 -0.3022 -0.0252
  534MOL0     C70410   9.264   0.386  -0.038 -0.4553  0.2557  0.2617
  534MOL0     C70411   9.300   0.462  -0.151  0.1426  0.4773 -0.0976
  534MOL0     C70412   9.416   0.426  -0.228  0.2943  0.7814  0.4402
  534MOL0     C70413   9.498   0.321  -0.183  0.3843  0.1684  0.4595
  534MOL0     O70414   9.620   0.301  -0.238 -0.5945 -0.2741  0.4644
  534MOL0     C70415   9.732   0.250  -0.152 -0.0321  0.1538  0.0141
  534MOL0     C70416   9.860   0.239  -0.230  0.9452 -0.2176 -0.9226
  534MOL0     C70417   9.891   0.348  -0.332  0.1146  0.3801  0.4924
  534MOL0     C70418   9.962   0.472  -0.284 -0.7116 -0.0822  0.0732
  534MOL0     C70419  10.083   0.454  -0.212  0.4272 -0.0306 -0.8486
  534MOL0     C70420  10.184   0.438  -0.139 -0.2110  0.0767 -0.7771
  534MOL0     C70421   9.461   0.240  -0.069 -0.0087 -0.6895  0.2995
  534MOL0     C70422   9.341   0.271  -0.005  0.4778 -0.2547  0.2023
  534MOL0     H70423   9.131   0.611   0.269 -0.4263 -1.2815 -1.0877
  534MOL0     H70424   8.953   0.709   0.417 -2.3506  2.1132 -3.2213
  534MOL0     H70425   8.564   0.483   0.414 -2.6553  1.3788 -1.5627
  534MOL0     H70426   8.614   0.612   0.312 -0.3534  0.6204  0.8473
  534MOL0     H70427   8.559   0.763   0.532  3.3104 -1.7893 -0.2198
  534MOL0     H70428   8.453   0.638   0.567 -1.4317  0.0042 -0.5446
  534MOL0     H70429   8.359   0.649   0.331 -1.3133  1.0686 -1.8441
  534MOL0     H70430   8.466   0.792   0.307 -0.7041 -2.6608 -2.4579
  534MOL0     H70431   8.277   0.778   0.551  0.3785 -0.1274  0.1642
  534MOL0     H70432   8.367   0.912   0.464  0.8145  0.1063 -0.5607
  534MOL0     H70433   8.132   0.756   0.375 -0.1625  0.5342 -1.6091
  534MOL0     H70434   8.224   0.876   0.276  0.6484  2.5255  1.3425
  534MOL0     H70435   8.149   1.054   0.425 -1.2126  0.9526  0.9073
  534MOL0     H70436   8.051   0.954   0.517  0.9124  2.5495  0.2196
  534MOL0     H70437   7.924   1.063   0.324 -2.4125 -2.3889 -0.3798
  534MOL0     H70438   8.016   0.991   0.207 -1.3254 -0.6337 -0.2277
  534MOL0     H70439   7.832   0.831   0.391 -5.6945  3.0106 -1.6602
  534MOL0     H70440   7.939   0.763   0.267  0.1854  0.6526  1.2734
  534MOL0     H70441   7.621   0.974   0.323 -2.5164  2.3083 -1.4769
  534MOL0     H70442   7.399   0.961  -0.012  1.0779  1.1277  0.1523
  534MOL0     H70443   7.427   1.063   0.132 -1.1545  1.0122 -1.0363
  534MOL0     H70444   7.381   0.862   0.277  1.6466  0.3667 -0.7753
  534MOL0     H70445   7.346   0.775   0.130 -1.1306 -0.1977  1.2261
  534MOL0     H70446   7.154   0.855   0.235 -1.1317  1.6653 -0.5485
  534MOL0     H70447   7.202   1.024   0.247 -0.3891  0.8773 -0.2590
  534MOL0     H70448   7.139   0.881  -0.012  2.4363 -1.7286  1.9183
  534MOL0     H70449   7.193   1.055   0.002  1.2894  0.6795  2.9013
  534MOL0     H70450   6.984   0.747   0.053 -0.5382 -0.9114  1.6312
  534MOL0     H70451   6.780   0.627   0.044  0.0810  0.8748  2.6632
  534MOL0     H70452   6.326   0.567  -0.039 -0.2629 -0.3550  0.2160
  534MOL0     H70453   6.117   0.545  -0.128 -1.4357  0.1159  1.3574
  534MOL0     H70454   5.776   0.804   0.043 -2.6224  0.4865 -1.6641
  534MOL0     H70455   5.753   0.626   0.058 -0.6741  1.6672  2.7933
  534MOL0     H70456   5.667   0.624  -0.163 -2.2150 -0.2209  0.5604
  534MOL0     H70457   5.670   0.805  -0.168 -0.1662 -0.1249  0.0097
  534MOL0     H70458   5.479   0.793   0.021  1.7629 -0.1655  2.1729
  534MOL0     H70459   5.525   0.628   0.031 -1.0831  0.6355  1.9111
  534MOL0     H70460   5.375   0.799  -0.183 -2.5114  0.1019  0.8895
  534MOL0     H70461   5.444   0.640  -0.224 -1.8292 -0.3803 -0.2902
  534MOL0     H70462   5.261   0.646   0.015 -2.1357 -0.2731 -0.1019
  534MOL0     H70463   5.295   0.523  -0.096 -0.7163  0.2691 -2.1053
  534MOL0     H70464   5.121   0.763  -0.133  2.4142  1.2015 -0.9530
  534MOL0     H70465   5.076   0.591  -0.133  3.3794 -2.5638 -0.0970
  534MOL0     H70466   5.233   0.718  -0.361  1.1768 -0.0442  1.5599
  534MOL0     H70467   5.157   0.555  -0.357  0.7831 -0.2047  1.5289
  534MOL0     H70468   5.019   0.708  -0.483  0.5149 -2.5089  0.9248
  534MOL0     H70469   5.022   0.827  -0.355  0.8887  1.6129 -5.0966
  534MOL0     H70470   5.979   0.870   0.121 -1.9458 -1.4064 -1.7785
  534MOL0     H70471   6.189   0.890   0.223  0.4769 -0.2544  0.4260
  534MOL0     H70472   6.552   0.988   0.111 -0.5890 -2.2437  4.7237
  534MOL0     H70473   6.751   1.111   0.131 -1.0376  0.0560  0.2534
  534MOL0     H70474   8.742   0.326   0.386  0.3960 -1.4575 -2.1550
  534MOL0     H70475   8.922   0.247   0.234 -0.5328  0.3828 -1.1058
  534MOL0     H70476   9.246   0.552  -0.180  0.5946  1.3690  1.6772
  534MOL0     H70477   9.456   0.476  -0.316 -2.7522  1.7612 -0.5214
  534MOL0     H70478   9.724   0.149  -0.112  0.5327 -0.7372 -2.0225
  534MOL0     H70479   9.753   0.310  -0.063  3.8349 -2.0656  0.7844
  534MOL0     H70480   9.942   0.238  -0.157 -1.5130  1.8919  2.1158
  534MOL0     H70481   9.860   0.140  -0.276 -0.7562 -1.6411  1.8397
  534MOL0     H70482   9.803   0.378  -0.390 -0.9686  0.6333  2.1948
  534MOL0     H70483   9.956   0.300  -0.405 -0.0207 -1.6037  1.6026
  534MOL0     H70484   9.983   0.536  -0.370 -0.5941 -1.8397 -1.2656
  534MOL0     H70485   9.897   0.525  -0.215  1.5447  2.3316  0.4862
  534MOL0     H70486  10.266   0.433  -0.071  1.1270  2.0886 -2.1356
  534MOL0     H70487   9.527   0.162  -0.033  1.1243  1.0740  2.2366
  534MOL0     H70488   9.294   0.207   0.070 -2.3583 -0.6620 -1.7373
  535MOL0     O70489   4.847   1.998   6.293 -0.2888 -0.1198  0.0508
  535MOL0     C70490   4.877   1.876   6.315  0.4928  0.2719  0.5021
  535MOL0     O70491   4.795   1.782   6.378 -0.2502  0.2515  0.1331
  535MOL0     C70492   4.675   1.832   6.416 -0.0637 -0.4329 -0.3268
  535MOL0     C70493   4.648   1.845   6.549 -0.6472 -0.9848  0.0380
  535MOL0     C70494   4.533   1.902   6.590  0.6006 -0.5428 -0.0400
  535MOL0     C70495   4.429   1.942   6.500  0.6943  0.2051  0.1412
  535MOL0     O70496   4.318   1.997   6.537  0.1455 -0.3134  0.4495
  535MOL0     C70497   4.198   1.958   6.469 -0.1259  0.1938 -0.5865
  535MOL0     C70498   4.070   2.003   6.557  0.2585 -0.7622  0.8923
  535MOL0     C70499   4.040   1.923   6.683 -0.0540  0.0283 -0.2110
  535MOL0     C70500   3.886   1.930   6.713 -0.6176 -0.3175 -0.0056
  535MOL0     C70501   3.857   1.860   6.846 -0.1548 -0.1094 -0.1219
  535MOL0     C70502   3.889   1.955   6.954  0.3022  0.3845 -0.3910
  535MOL0     C70503   3.789   2.074   6.976 -0.3978 -0.1747 -0.2743
  535MOL0     C70504   3.637   2.038   7.002 -0.9596  0.0612  0.4080
  535MOL0     N70505   3.569   2.014   6.868  0.3325 -0.0426 -0.1344
  535MOL0     C70506   3.544   2.121   6.771 -0.2756  0.0748 -0.3281
  535MOL0     C70507   3.465   2.056   6.678 -0.4740  0.3705  0.0431
  535MOL0     C70508   3.429   2.117   6.547 -0.5575  0.0320 -0.2985
  535MOL0     C70509   3.337   2.236   6.555 -0.5662 -0.2128 -0.1112
  535MOL0     C70510   3.215   2.213   6.647 -0.4939  0.0998  0.7518
  535MOL0     C70511   3.098   2.150   6.576  1.1041  0.3767 -0.1568
  535MOL0     O70512   3.030   2.251   6.501 -0.1595 -0.7450 -0.5793
  535MOL0     C70513   2.902   2.228   6.464 -0.0990 -0.0676 -0.1631
  535MOL0     C70514   2.867   2.288   6.347  0.0771  0.3505  1.3623
  535MOL0     C70515   2.736   2.273   6.304 -0.2295 -0.3077  0.5209
  535MOL0     C70516   2.640   2.204   6.379  0.6093  0.3880  0.2532
  535MOL0     C70517   2.497   2.186   6.331 -0.2741 -0.0419 -0.4420
  535MOL0     O70518   2.408   2.139   6.416 -0.0497  0.0372  0.2829
  535MOL0     C70519   2.273   2.131   6.377 -0.3989 -0.2340 -0.7400
  535MOL0     C70520   2.175   2.171   6.465 -0.1087 -0.2944 -0.1167
  535MOL0     C70521   2.037   2.169   6.433 -1.1709 -0.1947 -0.5650
  535MOL0     C70522   2.010   2.137   6.299  0.1422 -0.4350  0.3201
  535MOL0     O70523   1.880   2.148   6.254  0.2201  0.0790  0.2362
  535MOL0     C70524   1.809   2.266   6.299 -0.2171 -0.0227  0.5515
  535MOL0     C70525   1.693   2.284   6.207  0.3862  0.1740  0.0246
  535MOL0     C70526   1.597   2.165   6.239 -0.3395 -0.2110 -0.7178
  535MOL0     C70527   1.474   2.164   6.147 -0.2945  0.1156  0.4778
  535MOL0     C70528   1.387   2.032   6.143 -0.2129 -0.6549  0.2335
  535MOL0     C70529   1.240   2.060   6.083 -0.2418  0.5875 -0.3505
  535MOL0     C70530   1.234   2.058   5.935 -0.8541 -0.3388  0.2534
  535MOL0     C70531   1.105   2.113   5.882 -0.2394 -0.1805 -0.1483
  535MOL0    Cl70532   0.959   2.007   5.927  0.0423 -0.1660  0.6736
  535MOL0     C70533   2.104   2.087   6.217 -0.6303 -0.8832 -0.5085
  535MOL0     C70534   2.233   2.077   6.255  0.1908 -0.0973 -0.1142
  535MOL0     O70535   2.474   2.227   6.215 -0.0615 -0.0155 -0.0004
  535MOL0     C70536   2.683   2.136   6.490  0.2646 -0.7567  0.2178
  535MOL0     C70537   2.812   2.150   6.533  1.0996 -0.1217  0.0826
  535MOL0     N70538   3.445   1.925   6.719  0.0960  0.2624  0.6587
  535MOL0     N70539   3.507   1.907   6.833  0.8922  0.9629  0.2049
  535MOL0     C70540   4.454   1.926   6.367 -0.3565  0.3808 -0.0005
  535MOL0     C70541   4.578   1.875   6.324  0.0429  0.6003  0.0478
  535MOL0     C70542   5.010   1.826   6.273 -0.5585  0.0461 -0.3707
  535MOL0     C70543   5.048   1.688   6.283 -0.3890  0.1206 -0.1222
  535MOL0     C70544   5.165   1.631   6.210 -0.0190 -0.2002 -0.3720
  535MOL0     C70545   5.252   1.722   6.152  0.0619 -0.5333  0.1789
  535MOL0     O70546   5.362   1.674   6.084  0.8140  0.6553 -0.0381
  535MOL0     C70547   5.490   1.672   6.144  0.0716  0.4750  0.8394
  535MOL0     C70548   5.585   1.600   6.046  0.6380 -0.6620  0.3370
  535MOL0     C70549   5.731   1.613   6.105  0.8581 -0.3534 -0.1302
  535MOL0     C70550   5.828   1.551   6.010  0.1964 -0.1974  0.6229
  535MOL0     C70551   5.893   1.646   5.920  0.9189 -0.1965  0.2272
  535MOL0     C70552   5.951   1.729   5.850 -0.0020  0.1032  0.1365
  535MOL0     C70553   5.224   1.862   6.155  1.0973  0.1916  1.1309
  535MOL0     C70554   5.101   1.909   6.201  0.8436  0.5130 -0.0886
  535MOL0     H70555   4.723   1.806   6.617  1.6042 -1.0165 -2.3220
  535MOL0     H70556   4.524   1.900   6.698 -2.7002 -1.8812 -0.2184
  535MOL0     H70557   4.200   1.851   6.448  0.1931  0.2722 -0.9602
  535MOL0     H70558   4.192   2.002   6.369  3.0634  0.5037 -0.7387
  535MOL0     H70559   3.987   1.991   6.486  1.4327 -0.0131 -0.6539
  535MOL0     H70560   4.072   2.111   6.576 -0.5545 -0.3583 -1.0542
  535MOL0     H70561   4.107   1.951   6.765  0.8257  2.7468 -1.7368
  535MOL0     H70562   4.061   1.817   6.666  0.4281 -0.4355  2.7609
  535MOL0     H70563   3.850   2.033   6.705  0.4511  0.0414 -0.5154
  535MOL0     H70564   3.837   1.882   6.628  1.7253  0.8431 -2.1824
  535MOL0     H70565   3.922   1.774   6.862 -1.2894 -1.3322 -1.7406
  535MOL0     H70566   3.754   1.825   6.857  0.1317 -1.0060 -0.1796
  535MOL0     H70567   3.986   1.998   6.929  0.7869  0.3110  1.2412
  535MOL0     H70568   3.905   1.897   7.045  3.1637 -1.1444 -1.7326
  535MOL0     H70569   3.822   2.140   7.056  0.6391  1.3969 -1.9142
  535MOL0     H70570   3.800   2.140   6.889  3.2227  1.4697  1.2227
  535MOL0     H70571   3.600   2.128   7.052  1.8261  0.0277  2.8427
  535MOL0     H70572   3.622   1.956   7.073  2.7411 -1.2367 -0.0923
  535MOL0     H70573   3.576   2.224   6.759 -0.9862  0.5550  1.4916
  535MOL0     H70574   3.382   2.036   6.491  0.6440  0.7057 -2.3707
  535MOL0     H70575   3.520   2.151   6.498  1.0271 -1.3985  1.4605
  535MOL0     H70576   3.303   2.272   6.457 -0.7497  1.7559  0.6312
  535MOL0     H70577   3.400   2.321   6.584 -1.9561  0.9388 -0.3683
  535MOL0     H70578   3.253   2.141   6.720 -0.3939 -1.4084 -0.7187
  535MOL0     H70579   3.185   2.302   6.703  2.2788  1.9260 -0.4308
  535MOL0     H70580   3.035   2.114   6.659  2.3221 -0.9646  0.2417
  535MOL0     H70581   3.123   2.065   6.511  2.9002 -2.2477  3.5499
  535MOL0     H70582   2.929   2.360   6.294  0.8214 -0.7769  0.6522
  535MOL0     H70583   2.697   2.326   6.218 -1.0135 -1.3530  0.2122
  535MOL0     H70584   2.208   2.203   6.564  0.9052  1.8165 -1.0589
  535MOL0     H70585   1.967   2.199   6.511 -1.2531 -1.1853 -0.2511
  535MOL0     H70586   1.873   2.354   6.310  1.7612 -1.4099  0.7188
  535MOL0     H70587   1.778   2.251   6.403 -1.9143 -0.5962 -0.0095
  535MOL0     H70588   1.725   2.286   6.103 -1.6654  0.6368 -0.6380
  535MOL0     H70589   1.645   2.379   6.231  1.4167  0.1601  2.4492
  535MOL0     H70590   1.549   2.178   6.337  0.1151 -1.9674 -0.2201
  535MOL0     H70591   1.643   2.068   6.262 -1.2075 -0.1606  1.5529
  535MOL0     H70592   1.408   2.244   6.182  0.4407 -0.5610  3.7511
  535MOL0     H70593   1.509   2.188   6.046  0.0476  0.2295  0.6229
  535MOL0     H70594   1.383   1.989   6.243 -2.6593 -0.3022  0.3295
  535MOL0     H70595   1.450   1.969   6.079 -1.7649 -1.6458 -0.3669
  535MOL0     H70596   1.185   2.148   6.117  0.1380  0.0401  1.8616
  535MOL0     H70597   1.172   1.979   6.112  0.7241 -0.2851 -0.4352
  535MOL0     H70598   1.313   2.123   5.896  0.3416 -3.4445 -3.1196
  535MOL0     H70599   1.259   1.963   5.886  2.3137 -0.1391  1.3020
  535MOL0     H70600   1.115   2.112   5.774  0.4686  0.4976 -0.1018
  535MOL0     H70601   1.095   2.216   5.920  1.7212  0.0417 -0.1271
  535MOL0     H70602   2.074   2.048   6.120 -1.4728 -2.5739  0.3862
  535MOL0     H70603   2.297   2.025   6.184 -0.0176 -2.1133  1.1119
  535MOL0     H70604   2.609   2.071   6.536  0.1468 -2.6207 -2.4307
  535MOL0     H70605   2.833   2.100   6.627 -0.2077 -0.5934  0.1494
  535MOL0     H70606   4.381   1.947   6.290 -3.8735  1.9181  3.4161
  535MOL0     H70607   4.590   1.872   6.216  2.2292 -2.5966  0.2644
  535MOL0     H70608   4.990   1.617   6.342 -1.1883 -0.1308 -1.1713
  535MOL0     H70609   5.197   1.527   6.215  0.4308 -0.0273  0.6880
  535MOL0     H70610   5.498   1.619   6.240 -3.4340  0.4042  1.1978
  535MOL0     H70611   5.526   1.775   6.143  1.2996  0.0593  0.1185
  535MOL0     H70612   5.560   1.494   6.038 -1.2227 -0.2771  0.7390
  535MOL0     H70613   5.564   1.652   5.952  0.3181 -0.7061  0.3830
  535MOL0     H70614   5.735   1.551   6.195 -0.5804 -2.8092 -1.6532
  535MOL0     H70615   5.758   1.716   6.132 -1.7865  1.4736 -3.6236
  535MOL0     H70616   5.912   1.522   6.073  0.1603  2.1098  1.8023
  535MOL0     H70617   5.786   1.469   5.950  0.7613  1.5118 -2.3328
  535MOL0     H70618   6.003   1.802   5.791 -2.7380  1.5807 -0.5896
  535MOL0     H70619   5.292   1.924   6.096  0.0610 -2.2096 -2.9034
  535MOL0     H70620   5.079   2.014   6.184  1.0083  0.4090 -0.9726
  536MOL0     O70621  11.130   3.131   2.445  0.1903 -0.4134 -0.3920
  536MOL0     C70622  11.177   3.232   2.397  0.6405  0.2582  0.4357
  536MOL0     O70623  11.107   3.334   2.333 -0.7559  0.2563  0.5592
  536MOL0     C70624  10.968   3.327   2.344  0.3985  0.3165 -0.9816
  536MOL0     C70625  10.897   3.295   2.234 -0.8623 -0.4697  0.1968
  536MOL0     C70626  10.765   3.287   2.244  0.1458  0.3428  0.8656
  536MOL0     C70627  10.692   3.291   2.359  0.3623  0.8581  0.3925
  536MOL0     O70628  10.557   3.254   2.360  0.1175  0.1220 -0.4571
  536MOL0     C70629  10.455   3.320   2.425  0.5489 -0.5456 -0.4426
  536MOL0     C70630  10.392   3.423   2.329 -0.4666  0.0804 -1.0133
  536MOL0     C70631  10.241   3.436   2.374 -0.1142 -0.6209  0.5177
  536MOL0     C70632  10.222   3.488   2.515 -0.5315 -0.6097 -0.2030
  536MOL0     C70633  10.082   3.515   2.544 -0.4379 -0.6078  0.8356
  536MOL0     C70634  10.010   3.621   2.464  0.9936 -0.3633  0.0045
  536MOL0     C70635  10.063   3.766   2.480  0.3441  0.0878  0.5772
  536MOL0     C70636   9.960   3.868   2.419 -0.1794 -0.7769 -1.3963
  536MOL0     N70637   9.998   4.001   2.453 -0.2507 -0.7879  0.6959
  536MOL0     C70638   9.925   4.107   2.506 -0.1051 -0.6218  0.5518
  536MOL0     C70639  10.013   4.213   2.531 -0.7169 -0.6105  0.2354
  536MOL0     C70640   9.971   4.350   2.589  0.5527  0.1542 -0.5847
  536MOL0     C70641  10.045   4.398   2.704 -0.0599  0.6269 -0.9398
  536MOL0     C70642  10.039   4.545   2.737  0.1612 -0.3848  0.2616
  536MOL0     C70643   9.906   4.613   2.724 -0.0560  0.2277 -0.4649
  536MOL0     O70644   9.798   4.529   2.780 -0.1602  0.1635 -0.3168
  536MOL0     C70645   9.664   4.578   2.793 -0.0612  0.3433 -0.4846
  536MOL0     C70646   9.608   4.680   2.725  0.5525  0.1614 -0.0417
  536MOL0     C70647   9.472   4.720   2.759  0.2836 -0.7558 -1.0632
  536MOL0     C70648   9.394   4.645   2.847  0.4417 -0.5265  0.6048
  536MOL0     C70649   9.254   4.669   2.853  0.5279 -0.4352 -0.8412
  536MOL0     O70650   9.188   4.731   2.750 -1.1488 -0.4895  0.7313
  536MOL0     C70651   9.049   4.724   2.750 -0.5922  0.0798 -0.2198
  536MOL0     C70652   8.982   4.601   2.747 -0.2256  0.5266  0.2126
  536MOL0     C70653   8.846   4.592   2.766  0.3064 -0.2814  0.3761
  536MOL0     C70654   8.769   4.709   2.792  0.3132  0.3351 -0.1419
  536MOL0     O70655   8.634   4.689   2.801 -0.3219 -0.1302 -0.2676
  536MOL0     C70656   8.545   4.800   2.802  0.7175 -1.4555 -0.3308
  536MOL0     C70657   8.400   4.757   2.812  0.2312  0.1398 -0.1575
  536MOL0     C70658   8.311   4.872   2.849  0.0778 -0.4155  0.1702
  536MOL0     C70659   8.168   4.840   2.831  0.6442 -0.4587 -0.3484
  536MOL0     C70660   8.112   4.859   2.691  0.3846  0.7776 -0.2996
  536MOL0     C70661   7.964   4.810   2.676  0.8425  0.7290 -0.4557
  536MOL0     C70662   7.903   4.817   2.536 -0.1470  0.1367  0.8240
  536MOL0     C70663   7.770   4.733   2.524  0.1627 -0.3342 -0.2800
  536MOL0    Cl70664   7.647   4.815   2.628 -0.2362 -0.5141 -0.2388
  536MOL0     C70665   8.839   4.830   2.788  0.2660 -0.2150 -0.4646
  536MOL0     C70666   8.973   4.836   2.774 -0.6920  0.5131  0.5469
  536MOL0     O70667   9.200   4.630   2.961 -0.3819 -0.0228 -0.1185
  536MOL0     C70668   9.456   4.545   2.913  0.0077 -0.5031 -0.6030
  536MOL0     C70669   9.588   4.523   2.892 -0.0154  0.8161  1.0735
  536MOL0     N70670  10.143   4.171   2.492  0.1748  0.0423  0.4733
  536MOL0     N70671  10.131   4.043   2.456 -0.3253 -0.0475 -0.1225
  536MOL0     C70672  10.767   3.325   2.477  0.8029 -0.9872  0.2730
  536MOL0     C70673  10.904   3.335   2.467  0.2634 -0.3996 -0.2040
  536MOL0     C70674  11.319   3.252   2.387  0.8319 -0.3998  0.3532
  536MOL0     C70675  11.380   3.312   2.276  0.0899 -0.3118  0.3504
  536MOL0     C70676  11.514   3.352   2.284  0.9005 -0.8494 -1.1117
  536MOL0     C70677  11.599   3.318   2.390  0.3202 -0.2492 -0.7800
  536MOL0     O70678  11.737   3.346   2.396 -0.0530 -0.6422 -0.7964
  536MOL0     C70679  11.786   3.423   2.279 -0.1295 -0.2687  0.8118
  536MOL0     C70680  11.935   3.444   2.308 -0.1716  0.7054  0.6195
  536MOL0     C70681  12.024   3.320   2.286  0.1564  0.2443 -0.1577
  536MOL0     C70682  12.166   3.354   2.320 -0.2025  0.1006 -0.6140
  536MOL0     C70683  12.225   3.455   2.230  0.0489 -1.2257 -0.2956
  536MOL0     C70684  12.281   3.536   2.160 -0.0022 -0.0112  0.0518
  536MOL0     C70685  11.534   3.252   2.497 -0.3170 -0.5225  0.5096
  536MOL0     C70686  11.401   3.212   2.492 -0.4384  0.2914 -0.5736
  536MOL0     H70687  10.952   3.277   2.142  1.0837 -0.0990  1.2363
  536MOL0     H70688  10.720   3.263   2.148  1.6712  0.7439  0.0235
  536MOL0     H70689  10.486   3.357   2.523 -1.8195 -0.2992  0.2768
  536MOL0     H70690  10.380   3.244   2.447  1.1941 -1.9465 -2.7703
  536MOL0     H70691  10.394   3.373   2.232 -1.3811 -0.9258 -0.5303
  536MOL0     H70692  10.442   3.520   2.330 -2.1068  1.0425 -3.7413
  536MOL0     H70693  10.203   3.333   2.369  1.1158 -1.4370  4.2641
  536MOL0     H70694  10.187   3.492   2.298 -0.2333 -0.7466  0.5091
  536MOL0     H70695  10.256   3.421   2.594 -0.0144 -0.9979 -0.7515
  536MOL0     H70696  10.275   3.583   2.529  0.4874 -1.6023  4.8299
  536MOL0     H70697  10.084   3.541   2.650 -1.5655 -1.6271  1.1372
  536MOL0     H70698  10.032   3.418   2.536  1.3475 -1.5251  0.1902
  536MOL0     H70699   9.904   3.614   2.489  0.4707  0.0982 -1.9112
  536MOL0     H70700  10.010   3.593   2.358 -2.8905  0.3873 -0.3433
  536MOL0     H70701  10.090   3.788   2.584 -0.2521  0.3179  0.6852
  536MOL0     H70702  10.153   3.781   2.421  1.5097 -1.8124  1.7267
  536MOL0     H70703   9.860   3.849   2.459  0.2418 -0.2960 -0.0806
  536MOL0     H70704   9.946   3.853   2.311 -2.7820  1.1315 -1.4300
  536MOL0     H70705   9.818   4.098   2.520 -0.1552  0.6540  1.1712
  536MOL0     H70706   9.864   4.334   2.605  0.7290 -3.3961 -2.0725
  536MOL0     H70707   9.988   4.418   2.505  0.5899 -1.4998 -1.9661
  536MOL0     H70708  10.151   4.380   2.685 -0.2496 -4.3676  1.2235
  536MOL0     H70709  10.006   4.348   2.794  0.2746  1.3809 -0.3597
  536MOL0     H70710  10.089   4.565   2.832  1.8084  1.4168 -0.9273
  536MOL0     H70711  10.100   4.591   2.659 -2.0963 -1.9904 -2.6630
  536MOL0     H70712   9.887   4.637   2.618 -1.0757 -2.0644 -0.8643
  536MOL0     H70713   9.898   4.704   2.784 -1.7213 -0.1285 -0.0879
  536MOL0     H70714   9.665   4.743   2.657  0.0370  0.7961  0.1037
  536MOL0     H70715   9.436   4.815   2.722  1.8810  0.9275  1.4251
  536MOL0     H70716   9.050   4.519   2.728  0.7705  1.1699  0.9168
  536MOL0     H70717   8.781   4.505   2.761 -2.8701  1.9609 -1.4329
  536MOL0     H70718   8.548   4.865   2.714 -1.5711 -2.6458 -1.3808
  536MOL0     H70719   8.562   4.854   2.896 -1.7533  2.5316 -1.8707
  536MOL0     H70720   8.405   4.691   2.899  0.2431 -1.0178 -1.0166
  536MOL0     H70721   8.371   4.710   2.717 -1.7495  2.8048 -1.0080
  536MOL0     H70722   8.342   4.958   2.789 -0.4079  0.6590  1.4296
  536MOL0     H70723   8.329   4.900   2.953 -1.3006 -3.0307  1.2231
  536MOL0     H70724   8.148   4.737   2.863 -2.3536  0.0761 -0.1836
  536MOL0     H70725   8.097   4.892   2.896 -1.5175 -4.4839  0.8495
  536MOL0     H70726   8.168   4.800   2.618  0.7567  1.3709 -0.4981
  536MOL0     H70727   8.111   4.962   2.654 -0.2233  1.7459  2.1865
  536MOL0     H70728   7.895   4.868   2.739  0.2490  0.5741 -0.9514
  536MOL0     H70729   7.946   4.705   2.703 -1.3060  0.9158 -0.9471
  536MOL0     H70730   7.888   4.921   2.504  2.3877  0.4890  0.5707
  536MOL0     H70731   7.967   4.763   2.466  1.3817  0.8298  1.6396
  536MOL0     H70732   7.775   4.626   2.549  1.1514 -0.2858 -0.2413
  536MOL0     H70733   7.750   4.740   2.417  3.3154  1.2712 -0.8833
  536MOL0     H70734   8.783   4.921   2.807  0.5787  0.2189 -1.5237
  536MOL0     H70735   9.025   4.931   2.770 -0.6359  0.4523 -2.9781
  536MOL0     H70736   9.408   4.481   2.987 -0.3090  0.4564  0.0540
  536MOL0     H70737   9.631   4.437   2.943  0.7721  1.1107  0.9111
  536MOL0     H70738  10.708   3.343   2.567 -0.0654  0.8410 -0.6065
  536MOL0     H70739  10.959   3.358   2.558  2.2330 -0.9762 -1.1983
  536MOL0     H70740  11.314   3.339   2.194 -1.0325  0.8322  1.5694
  536MOL0     H70741  11.557   3.398   2.195 -1.0255  1.1604 -1.1183
  536MOL0     H70742  11.740   3.522   2.267  0.8338 -0.0238 -1.3614
  536MOL0     H70743  11.776   3.376   2.182  2.4674  3.1594 -1.3604
  536MOL0     H70744  11.954   3.536   2.252 -2.4770  1.2314  0.5998
  536MOL0     H70745  11.941   3.471   2.414 -0.6795  1.6365  0.4277
  536MOL0     H70746  12.001   3.280   2.187  1.0453 -0.2119 -0.1832
  536MOL0     H70747  11.985   3.245   2.357 -2.2968  1.7278  0.2011
  536MOL0     H70748  12.187   3.382   2.423  1.5658  1.6573 -1.3252
  536MOL0     H70749  12.226   3.263   2.307 -0.0985  0.1260 -0.3197
  536MOL0     H70750  12.321   3.616   2.102 -0.0673  1.8053  2.3506
  536MOL0     H70751  11.598   3.231   2.582  2.0580  0.6130 -0.9025
  536MOL0     H70752  11.354   3.169   2.580  2.1395  0.0317  0.7831
  537MOL0     O70753   7.624   1.550   5.308  0.0357 -0.7099  0.6112
  537MOL0     C70754   7.645   1.626   5.216  0.4125  0.1681 -0.1385
  537MOL0     O70755   7.541   1.709   5.150  0.0182  0.2880  0.1085
  537MOL0     C70756   7.410   1.722   5.209  0.2923 -0.7916 -0.0515
  537MOL0     C70757   7.362   1.695   5.341 -0.1362 -0.1887 -0.7308
  537MOL0     C70758   7.224   1.706   5.371 -0.7082  1.0652 -0.6677
  537MOL0     C70759   7.132   1.731   5.270 -0.8580  0.3118 -0.0592
  537MOL0     O70760   6.993   1.729   5.280 -0.5250 -0.0321  0.0941
  537MOL0     C70761   6.930   1.697   5.411 -0.1691  0.3165 -0.1949
  537MOL0     C70762   6.779   1.722   5.416  0.5219  0.4231 -0.4580
  537MOL0     C70763   6.727   1.668   5.554 -0.0886  0.1193  0.3280
  537MOL0     C70764   6.578   1.662   5.562  0.1924  0.2247  0.4586
  537MOL0     C70765   6.520   1.598   5.685 -1.5976  0.2860  0.6986
  537MOL0     C70766   6.369   1.587   5.676  0.4160 -0.6888 -0.2939
  537MOL0     C70767   6.291   1.517   5.796 -0.6145  0.2546  0.1113
  537MOL0     C70768   6.165   1.463   5.731 -0.6399  0.6338  0.9430
  537MOL0     N70769   6.075   1.393   5.820 -0.2199  0.3104 -0.0904
  537MOL0     C70770   5.982   1.300   5.768 -0.1862 -0.7835 -0.5301
  537MOL0     C70771   5.943   1.217   5.875  0.0263  0.7232 -0.0617
  537MOL0     C70772   5.842   1.095   5.867 -1.2091  0.1625  0.5882
  537MOL0     C70773   5.703   1.157   5.855  0.8923 -0.4861 -0.9041
  537MOL0     C70774   5.580   1.067   5.897 -0.2802  1.6410  0.2475
  537MOL0     C70775   5.452   1.155   5.902 -0.5284  0.3749 -0.0654
  537MOL0     O70776   5.342   1.070   5.944  0.5914  0.4293 -0.3866
  537MOL0     C70777   5.214   1.121   5.980  0.0633  0.3769  1.2566
  537MOL0     C70778   5.104   1.029   5.992  1.2145  0.3059  1.1206
  537MOL0     C70779   4.972   1.079   6.012  0.4345 -0.1153 -0.3274
  537MOL0     C70780   4.951   1.227   6.025  0.9283  0.9718 -0.4294
  537MOL0     C70781   4.808   1.278   6.035  0.0691 -0.6674 -1.0366
  537MOL0     O70782   4.697   1.197   6.015  0.4411  0.1514  0.9969
  537MOL0     C70783   4.581   1.258   5.983  0.5096  0.0455  0.8936
  537MOL0     C70784   4.514   1.222   5.866  0.2655 -0.4288  0.6341
  537MOL0     C70785   4.386   1.268   5.839 -0.2135 -0.4724 -0.7986
  537MOL0     C70786   4.324   1.356   5.926 -0.2540 -0.2332 -0.1032
  537MOL0     O70787   4.196   1.406   5.895 -0.5974 -0.1081 -0.0391
  537MOL0     C70788   4.167   1.467   5.773 -0.3526 -0.3062  0.4837
  537MOL0     C70789   4.059   1.383   5.697  0.0853  0.1877  0.2730
  537MOL0     C70790   4.023   1.448   5.566  0.2753  0.4228 -0.0318
  537MOL0     C70791   3.934   1.363   5.477 -0.1688  0.5953  0.5166
  537MOL0     C70792   3.947   1.403   5.334 -1.2284 -0.0678  0.1602
  537MOL0     C70793   3.867   1.530   5.314  0.3468 -0.0665  0.5868
  537MOL0     C70794   3.879   1.572   5.166  0.5006 -0.5112 -0.0733
  537MOL0     C70795   3.768   1.661   5.113 -0.1494 -0.8139  0.0776
  537MOL0    Cl70796   3.804   1.707   4.943 -0.0357  0.1223  0.2624
  537MOL0     C70797   4.387   1.385   6.044  0.1289 -0.0422  0.0570
  537MOL0     C70798   4.512   1.334   6.075  0.0120 -0.6928  0.6354
  537MOL0     O70799   4.807   1.402   6.043 -0.6447  0.3016 -0.6159
  537MOL0     C70800   5.064   1.306   6.011 -0.0850 -0.6887  0.1952
  537MOL0     C70801   5.193   1.261   5.997  0.6518  0.5415 -0.3562
  537MOL0     N70802   6.013   1.261   5.989  0.4053  0.1888  0.3727
  537MOL0     N70803   6.095   1.361   5.949  0.4891 -0.2245 -0.8790
  537MOL0     C70804   7.178   1.746   5.138  0.8688 -0.3586 -0.1266
  537MOL0     C70805   7.311   1.745   5.109  0.0547  0.1242 -0.4625
  537MOL0     C70806   7.779   1.623   5.168  0.1609 -0.2249 -0.2951
  537MOL0     C70807   7.880   1.525   5.215  0.3040 -0.5169 -0.2098
  537MOL0     C70808   8.008   1.523   5.163 -0.5393  0.5580 -1.0633
  537MOL0     C70809   8.037   1.606   5.060 -1.0594 -1.4115 -0.0294
  537MOL0     O70810   8.158   1.591   5.019  0.7447 -0.6807 -0.0571
  537MOL0     C70811   8.229   1.705   4.993 -0.1849 -0.6507  0.6673
  537MOL0     C70812   8.351   1.648   4.918 -0.2530  0.2920  0.1624
  537MOL0     C70813   8.324   1.604   4.776  0.3976 -0.5556  0.0703
  537MOL0     C70814   8.442   1.514   4.746 -1.0432 -0.6454  0.5526
  537MOL0     C70815   8.559   1.594   4.716 -0.4891  1.2163  0.0858
  537MOL0     C70816   8.654   1.648   4.684  0.8648  0.2315 -0.6804
  537MOL0     C70817   7.940   1.698   5.005  0.2769 -0.5104  0.1913
  537MOL0     C70818   7.815   1.706   5.068  0.1384 -0.1740 -0.7168
  537MOL0     H70819   7.445   1.671   5.406  0.0800  0.0842 -0.9000
  537MOL0     H70820   7.193   1.696   5.475  0.6421 -1.1606 -0.4102
  537MOL0     H70821   6.986   1.748   5.489  1.0586 -1.1759 -0.0438
  537MOL0     H70822   6.939   1.589   5.428  0.0707 -0.1277 -2.6917
  537MOL0     H70823   6.735   1.672   5.330 -0.4676 -0.1669  0.3684
  537MOL0     H70824   6.769   1.831   5.415 -0.3694  0.3517 -0.1157
  537MOL0     H70825   6.772   1.710   5.644 -1.9923 -0.4600  1.6199
  537MOL0     H70826   6.758   1.563   5.548  0.0028  0.2059 -1.3824
  537MOL0     H70827   6.546   1.766   5.554  0.5229  0.3743  1.0170
  537MOL0     H70828   6.537   1.611   5.474  1.7056  2.6064 -1.7868
  537MOL0     H70829   6.554   1.645   5.777  1.9029 -1.1994  0.3598
  537MOL0     H70830   6.555   1.495   5.696  1.8213  0.9654 -1.9085
  537MOL0     H70831   6.347   1.526   5.588 -0.5260 -1.0292  0.1655
  537MOL0     H70832   6.321   1.685   5.667 -0.0526 -1.0959 -3.2984
  537MOL0     H70833   6.358   1.444   5.843  1.9952  1.7753 -1.0219
  537MOL0     H70834   6.274   1.583   5.881 -0.3516 -0.6546  0.8956
  537MOL0     H70835   6.196   1.387   5.659  1.9801  0.3522  2.2231
  537MOL0     H70836   6.108   1.542   5.681 -1.1648 -0.4369 -0.1814
  537MOL0     H70837   5.962   1.281   5.663 -2.2682 -2.6241  0.1122
  537MOL0     H70838   5.853   1.038   5.959 -1.5955 -0.5347  0.2111
  537MOL0     H70839   5.862   1.034   5.779  1.8956  0.8459  0.7012
  537MOL0     H70840   5.692   1.188   5.750 -1.4995  2.8001  0.1432
  537MOL0     H70841   5.713   1.245   5.919 -0.1711  1.3815 -3.1443
  537MOL0     H70842   5.563   0.984   5.828  1.8590  0.3769  1.1508
  537MOL0     H70843   5.605   1.012   5.988  0.0683  1.1086 -0.1619
  537MOL0     H70844   5.433   1.202   5.805  0.5667 -0.2058 -0.5769
  537MOL0     H70845   5.474   1.231   5.977  2.4638  0.3354 -0.7690
  537MOL0     H70846   5.125   0.925   5.972  2.2593  1.2388 -3.7216
  537MOL0     H70847   4.889   1.009   6.023  0.7066 -0.3855  0.0396
  537MOL0     H70848   4.571   1.153   5.804 -2.8548 -0.1514 -2.8119
  537MOL0     H70849   4.320   1.244   5.757  0.4589 -0.4685 -1.3486
  537MOL0     H70850   4.258   1.478   5.713 -0.3008  1.2074  0.8223
  537MOL0     H70851   4.127   1.568   5.777  0.8433  0.3778 -2.4231
  537MOL0     H70852   3.964   1.378   5.751 -0.7068  1.6642 -0.9105
  537MOL0     H70853   4.100   1.285   5.673 -1.8543 -0.2957 -1.3245
  537MOL0     H70854   4.117   1.462   5.512  0.3235  0.4446  0.0582
  537MOL0     H70855   3.978   1.548   5.577 -1.6533 -0.5108  1.0247
  537MOL0     H70856   3.950   1.255   5.484 -2.4258  0.0726 -1.2390
  537MOL0     H70857   3.831   1.383   5.509 -0.9653 -0.1608 -1.3817
  537MOL0     H70858   3.914   1.326   5.264  0.4598  1.6236 -2.7133
  537MOL0     H70859   4.049   1.423   5.299 -0.8389 -3.6006 -1.1690
  537MOL0     H70860   3.903   1.610   5.380 -3.1804  2.8916 -0.7404
  537MOL0     H70861   3.763   1.506   5.340  0.2937  0.0951  0.5258
  537MOL0     H70862   3.973   1.626   5.152 -0.0811  0.4121 -0.5900
  537MOL0     H70863   3.882   1.486   5.099 -0.0149 -0.2659 -0.4211
  537MOL0     H70864   3.773   1.754   5.169  0.3608 -0.2321 -0.9075
  537MOL0     H70865   3.668   1.616   5.122 -0.6181 -0.2157 -1.6562
  537MOL0     H70866   4.339   1.457   6.109 -2.5047  0.0414 -1.8217
  537MOL0     H70867   4.569   1.368   6.161 -0.9731  3.2939 -0.0925
  537MOL0     H70868   5.051   1.413   6.029 -2.2299 -1.3051  3.1724
  537MOL0     H70869   5.276   1.332   5.999  1.9730 -0.9696 -0.0058
  537MOL0     H70870   7.112   1.769   5.055  2.7784 -0.6420 -1.7892
  537MOL0     H70871   7.358   1.756   5.012  2.7707  2.0790  0.9484
  537MOL0     H70872   7.851   1.468   5.303 -0.2689  1.4652  0.9577
  537MOL0     H70873   8.072   1.447   5.206  1.1647  1.8498 -1.2370
  537MOL0     H70874   8.262   1.744   5.090 -1.3388  2.7399 -0.1576
  537MOL0     H70875   8.173   1.781   4.937  0.5621 -1.7247 -1.6606
  537MOL0     H70876   8.417   1.735   4.910 -1.2616  0.8785 -3.9815
  537MOL0     H70877   8.395   1.571   4.983 -0.8592 -0.5990 -0.4641
  537MOL0     H70878   8.327   1.691   4.710  1.9403 -0.5149  0.1562
  537MOL0     H70879   8.227   1.555   4.768  0.0768 -0.3899  2.3031
  537MOL0     H70880   8.460   1.443   4.828 -1.8081 -2.0640 -0.4506
  537MOL0     H70881   8.410   1.451   4.663 -1.2669  3.5303 -2.8638
  537MOL0     H70882   8.739   1.706   4.652  1.8868 -1.7962 -1.8131
  537MOL0     H70883   7.935   1.768   4.922  1.4817 -1.1310 -0.4251
  537MOL0     H70884   7.749   1.781   5.026 -1.4313 -1.5898 -0.9096
  538MOL0     O70885   3.307   2.666   4.113  0.2801  0.5507  0.3054
  538MOL0     C70886   3.319   2.542   4.094  0.3005  0.0789  0.2341
  538MOL0     O70887   3.217   2.455   4.082  0.0850  0.8720  0.3373
  538MOL0     C70888   3.093   2.505   4.070 -0.4051  0.0882  0.0242
  538MOL0     C70889   3.049   2.585   3.969  0.2097  0.2431 -0.1891
  538MOL0     C70890   2.911   2.617   3.952  0.5867 -0.6619  0.3180
  538MOL0     C70891   2.815   2.568   4.043  0.2081  0.1966  0.2106
  538MOL0     O70892   2.684   2.589   4.013 -0.0011  0.4672 -0.1987
  538MOL0     C70893   2.597   2.481   4.012  0.1146  0.6893 -0.7699
  538MOL0     C70894   2.462   2.542   4.019 -0.5780 -0.3599  0.1621
  538MOL0     C70895   2.346   2.437   4.028 -0.1511  0.1478  0.4638
  538MOL0     C70896   2.214   2.525   4.054  0.2700 -0.2714 -0.1961
  538MOL0     C70897   2.094   2.439   4.031  0.8770  0.4207 -0.1019
  538MOL0     C70898   1.969   2.515   4.027  0.2952  0.1800 -0.6888
  538MOL0     C70899   1.857   2.428   3.968 -0.6178  0.8310  0.0373
  538MOL0     C70900   1.722   2.500   3.949  0.4376 -0.2945  0.3652
  538MOL0     N70901   1.621   2.417   3.893 -0.0564  0.1334 -0.4004
  538MOL0     C70902   1.533   2.341   3.962  0.0205 -0.7085 -0.6322
  538MOL0     C70903   1.458   2.279   3.865  0.7899 -0.1567  0.4881
  538MOL0     C70904   1.347   2.176   3.876 -0.0936 -0.3163  0.5583
  538MOL0     C70905   1.209   2.244   3.837  0.1262  0.3636  0.7222
  538MOL0     C70906   1.157   2.320   3.952  1.2875 -0.2226  0.0381
  538MOL0     C70907   0.996   2.325   3.948 -0.1216 -0.1904  0.3625
  538MOL0     O70908   0.949   2.403   4.057 -0.3157  0.0069 -0.3307
  538MOL0     C70909   0.814   2.409   4.081  0.4686 -0.0040  0.1545
  538MOL0     C70910   0.776   2.427   4.217  0.2339  0.6841  0.9679
  538MOL0     C70911   0.643   2.445   4.247  0.5916 -0.2945  0.1980
  538MOL0     C70912   0.541   2.445   4.149 -0.2225 -0.4019  1.0842
  538MOL0     C70913   0.395   2.472   4.171  0.0422  0.5802  0.1921
  538MOL0     O70914   0.299   2.455   4.070 -0.8349  0.1682  0.0041
  538MOL0     C70915   0.163   2.457   4.086 -0.0370  0.4101  0.2525
  538MOL0     C70916   0.105   2.425   4.209 -0.2878  0.4381 -0.1497
  538MOL0     C70917  -0.033   2.433   4.223  0.2047  0.3797  0.9489
  538MOL0     C70918  -0.117   2.459   4.112 -0.7379 -1.0567  1.0327
  538MOL0     O70919  -0.244   2.467   4.135  0.0975 -0.2906  0.2390
  538MOL0     C70920  -0.314   2.589   4.100  0.1558  0.1076  0.8288
  538MOL0     C70921  -0.451   2.575   4.161  0.3199 -0.1050 -0.7236
  538MOL0     C70922  -0.563   2.539   4.053  0.3464  0.2607  0.2568
  538MOL0     C70923  -0.704   2.541   4.103  0.4339  0.0544 -0.0040
  538MOL0     C70924  -0.819   2.563   3.998  0.4405 -0.0541  0.1795
  538MOL0     C70925  -0.940   2.645   4.047 -0.6697  0.0986 -0.0805
  538MOL0     C70926  -1.006   2.587   4.167  0.6100  0.4940 -0.9310
  538MOL0     C70927  -1.112   2.682   4.225  0.4056  0.2039  0.1099
  538MOL0    Cl70928  -1.238   2.602   4.310 -0.2101 -0.0863  0.2114
  538MOL0     C70929  -0.056   2.487   3.989 -0.1890  0.2838 -0.2219
  538MOL0     C70930   0.081   2.493   3.983 -0.5746  0.5481 -0.5022
  538MOL0     O70931   0.372   2.495   4.291 -0.0473  0.5756 -0.0618
  538MOL0     C70932   0.583   2.438   4.010  0.7939 -1.3865 -0.0773
  538MOL0     C70933   0.717   2.422   3.979 -0.0764 -0.6205  0.1049
  538MOL0     N70934   1.509   2.318   3.742  0.7589 -0.4092  0.1564
  538MOL0     N70935   1.601   2.406   3.758  0.1271 -0.0290 -0.3306
  538MOL0     C70936   2.861   2.492   4.151  0.1880  0.2286 -0.6021
  538MOL0     C70937   3.001   2.456   4.155 -1.3050  0.3331 -0.4368
  538MOL0     C70938   3.448   2.496   4.073  0.0804 -0.1817 -0.0017
  538MOL0     C70939   3.558   2.562   4.130 -0.7036  0.3755  0.5497
  538MOL0     C70940   3.690   2.526   4.102 -0.2074 -0.5781 -0.8818
  538MOL0     C70941   3.705   2.402   4.039 -0.1923 -0.3910  0.5725
  538MOL0     O70942   3.829   2.353   4.010 -0.8777  0.2694 -0.4688
  538MOL0     C70943   3.943   2.438   3.985 -0.1016  0.4856 -0.1293
  538MOL0     C70944   4.064   2.367   3.946 -0.4962  0.3160 -0.2878
  538MOL0     C70945   4.054   2.289   3.814  0.5445  0.8891  0.8398
  538MOL0     C70946   4.165   2.183   3.800  0.1347  0.0902 -0.3148
  538MOL0     C70947   4.294   2.252   3.764 -0.2747  0.2538  0.6689
  538MOL0     C70948   4.385   2.322   3.749  0.1044 -0.0732 -0.4967
  538MOL0     C70949   3.592   2.327   4.002  0.1282 -0.6292  0.9564
  538MOL0     C70950   3.464   2.372   4.013  0.1305 -0.0954  0.3033
  538MOL0     H70951   3.121   2.618   3.895  1.0260  5.1418  2.3654
  538MOL0     H70952   2.889   2.681   3.867 -1.1121 -0.8962  0.5499
  538MOL0     H70953   2.614   2.420   4.102 -0.5460 -1.9954 -2.3684
  538MOL0     H70954   2.618   2.416   3.927  1.5015  0.6385 -0.4066
  538MOL0     H70955   2.449   2.604   3.930 -4.7159 -0.9039  0.1789
  538MOL0     H70956   2.464   2.598   4.113  1.2024  0.3763 -0.2880
  538MOL0     H70957   2.361   2.374   4.116 -1.0935  0.7186  1.0539
  538MOL0     H70958   2.329   2.381   3.935  1.5634 -0.4541  0.4824
  538MOL0     H70959   2.217   2.554   4.160 -0.1880  1.3474 -0.6087
  538MOL0     H70960   2.231   2.604   3.981  2.0667 -0.1937  0.2635
  538MOL0     H70961   2.090   2.357   4.103 -0.6264  1.1527  0.6708
  538MOL0     H70962   2.106   2.391   3.933  0.1385 -0.5371  0.2553
  538MOL0     H70963   1.979   2.603   3.963 -0.1625  0.5003 -0.3308
  538MOL0     H70964   1.942   2.548   4.128 -2.4164 -0.5141 -1.0891
  538MOL0     H70965   1.894   2.384   3.875  1.9116 -0.9535  1.7298
  538MOL0     H70966   1.837   2.348   4.041 -2.1135  0.5646 -0.6094
  538MOL0     H70967   1.729   2.583   3.877 -1.0559  0.7373  1.3594
  538MOL0     H70968   1.689   2.547   4.042  0.6365  3.1128 -1.1267
  538MOL0     H70969   1.531   2.339   4.070  0.1580  0.2854 -0.6031
  538MOL0     H70970   1.335   2.133   3.976  1.4535  1.0034  1.3697
  538MOL0     H70971   1.371   2.100   3.801 -0.1612  0.7491 -0.5686
  538MOL0     H70972   1.141   2.164   3.803  1.5573 -1.5545  2.1279
  538MOL0     H70973   1.216   2.314   3.753 -1.2959 -0.7296 -0.3709
  538MOL0     H70974   1.177   2.262   4.043 -0.5889 -0.6146  0.2498
  538MOL0     H70975   1.200   2.420   3.954  0.7184  0.0439 -0.6197
  538MOL0     H70976   0.950   2.225   3.947 -0.0572 -0.2318  0.8920
  538MOL0     H70977   0.956   2.379   3.862  0.1544  0.0235  0.3683
  538MOL0     H70978   0.859   2.428   4.288  2.4164 -3.4872 -1.1667
  538MOL0     H70979   0.616   2.459   4.351 -1.4919  2.0402 -0.5624
  538MOL0     H70980   0.168   2.389   4.291  2.6274 -0.7531 -2.7256
  538MOL0     H70981  -0.082   2.405   4.316 -1.6939 -2.9614 -0.8804
  538MOL0     H70982  -0.324   2.616   3.994  2.1587  3.4336  1.3302
  538MOL0     H70983  -0.250   2.672   4.133 -0.5866  2.5830 -3.1849
  538MOL0     H70984  -0.469   2.666   4.219 -0.1177 -1.0922  0.7544
  538MOL0     H70985  -0.450   2.489   4.230  2.8053  1.8115  1.8896
  538MOL0     H70986  -0.552   2.440   4.008 -0.2542 -0.7540  2.2209
  538MOL0     H70987  -0.552   2.614   3.974 -1.2383 -3.3472 -3.7951
  538MOL0     H70988  -0.732   2.441   4.139  0.9814 -0.1870 -0.2353
  538MOL0     H70989  -0.715   2.612   4.185 -0.1027  1.4362 -1.2374
  538MOL0     H70990  -0.859   2.464   3.977  1.2176 -0.0299 -1.5842
  538MOL0     H70991  -0.786   2.606   3.903 -1.1927  1.2326  0.1595
  538MOL0     H70992  -1.013   2.653   3.966 -1.9805  2.4869  1.2295
  538MOL0     H70993  -0.903   2.743   4.078 -0.7452  0.0333  0.2156
  538MOL0     H70994  -1.056   2.503   4.119 -0.1749  0.2232  0.2848
  538MOL0     H70995  -0.938   2.549   4.243 -1.0293 -0.9793 -0.1267
  538MOL0     H70996  -1.174   2.726   4.146  2.3088  1.9096 -0.5102
  538MOL0     H70997  -1.053   2.752   4.285  2.2976 -2.6448  1.7928
  538MOL0     H70998  -0.118   2.501   3.901 -0.5613 -2.4951 -0.4765
  538MOL0     H70999   0.121   2.505   3.883 -0.8255  2.6852 -0.3915
  538MOL0     H71000   0.498   2.452   3.944  0.8552 -2.6627 -0.4527
  538MOL0     H71001   0.762   2.422   3.881  0.3060 -0.8765  0.2788
  538MOL0     H71002   2.785   2.454   4.219 -0.6283 -0.1453 -1.6927
  538MOL0     H71003   3.038   2.384   4.228 -1.6015  2.1776  1.6215
  538MOL0     H71004   3.550   2.657   4.182  2.2948  1.2876 -0.4050
  538MOL0     H71005   3.772   2.583   4.144 -0.5739 -2.0569  2.1692
  538MOL0     H71006   3.961   2.506   4.069  0.5036 -0.7225  0.7549
  538MOL0     H71007   3.919   2.497   3.896  1.1265 -0.9843 -1.5246
  538MOL0     H71008   4.144   2.440   3.937  0.3164 -0.5329 -0.1042
  538MOL0     H71009   4.094   2.295   4.023  3.1822  3.3058  1.4033
  538MOL0     H71010   4.055   2.358   3.729  2.1772 -0.4643 -0.3102
  538MOL0     H71011   3.963   2.229   3.824  1.8433 -1.4850 -0.5807
  538MOL0     H71012   4.184   2.126   3.891 -1.4986  2.6545  1.7805
  538MOL0     H71013   4.135   2.122   3.715 -4.6182  0.8380  0.5416
  538MOL0     H71014   4.476   2.379   3.744  0.9103 -1.2733 -5.8307
  538MOL0     H71015   3.603   2.238   3.941 -1.9199  0.2042 -0.7675
  538MOL0     H71016   3.389   2.309   3.965  2.1512 -1.2103 -1.6018
  539MOL0     O71017   3.103   9.059   0.755  0.4608 -0.6777 -0.7252
  539MOL0     C71018   3.080   9.064   0.629  1.1985  0.0017  0.1639
  539MOL0     O71019   3.094   9.170   0.545  0.0065  0.0861  0.0025
  539MOL0     C71020   3.159   9.288   0.578 -0.0822 -0.1126  0.0066
  539MOL0     C71021   3.280   9.292   0.647 -0.3265 -0.2052 -0.3125
  539MOL0     C71022   3.334   9.411   0.679  0.0093  0.2932 -0.2474
  539MOL0     C71023   3.273   9.533   0.650 -0.3730  0.1546 -0.4642
  539MOL0     O71024   3.334   9.646   0.700 -0.2473  0.4812 -0.1698
  539MOL0     C71025   3.254   9.766   0.714 -0.4244 -0.1045 -0.6971
  539MOL0     C71026   3.173   9.759   0.837 -0.3466  0.3581 -0.3279
  539MOL0     C71027   3.077   9.880   0.852 -0.0771  0.0134 -0.2299
  539MOL0     C71028   2.964   9.877   0.955  0.0300 -0.7871  0.3840
  539MOL0     C71029   2.976   9.801   1.081 -0.5661  0.6686 -0.3187
  539MOL0     C71030   2.846   9.790   1.155  0.1912  0.5300  0.5040
  539MOL0     C71031   2.866   9.724   1.293 -0.6031  0.6847  0.4970
  539MOL0     C71032   2.737   9.738   1.371 -0.2107 -0.1229 -0.0797
  539MOL0     N71033   2.609   9.699   1.306 -0.2071 -0.5884 -0.3577
  539MOL0     C71034   2.563   9.577   1.270 -0.0912 -0.3363  0.3112
  539MOL0     C71035   2.441   9.602   1.225  1.2074 -0.0421  0.3896
  539MOL0     C71036   2.343   9.514   1.157  0.3910 -0.3621  0.2346
  539MOL0     C71037   2.384   9.493   1.006 -0.4088  0.5378  1.0931
  539MOL0     C71038   2.270   9.424   0.922 -0.2220 -0.0305  0.7383
  539MOL0     C71039   2.317   9.383   0.776 -0.5920 -0.1776 -0.0938
  539MOL0     O71040   2.206   9.356   0.697 -0.4532  0.2991  0.5211
  539MOL0     C71041   2.156   9.227   0.699 -0.0837 -0.0668 -0.2577
  539MOL0     C71042   2.030   9.218   0.644 -0.5295  0.1567 -0.2934
  539MOL0     C71043   1.959   9.094   0.639 -0.3896 -0.2551  0.4089
  539MOL0     C71044   2.022   8.975   0.683  0.7202 -0.3215  0.5706
  539MOL0     C71045   1.945   8.854   0.670  0.8480  0.0711  0.2680
  539MOL0     O71046   1.806   8.870   0.684 -0.4457 -0.7025 -0.4421
  539MOL0     C71047   1.733   8.756   0.667  0.5959 -0.0846  0.2909
  539MOL0     C71048   1.640   8.718   0.765 -0.8193  0.2962 -0.2363
  539MOL0     C71049   1.565   8.599   0.752  0.2178 -0.1457 -0.1949
  539MOL0     C71050   1.589   8.510   0.645 -0.4061  0.5230 -0.1581
  539MOL0     O71051   1.515   8.401   0.629 -0.7755  0.0346  0.0533
  539MOL0     C71052   1.494   8.333   0.752 -0.6543  0.2999 -0.0867
  539MOL0     C71053   1.446   8.181   0.747 -0.3991 -0.0770 -0.0574
  539MOL0     C71054   1.334   8.160   0.641  0.0407 -0.2372  0.4488
  539MOL0     C71055   1.395   8.147   0.503  1.1805  0.3269  0.3433
  539MOL0     C71056   1.307   8.076   0.394 -0.3765  0.0437 -0.5326
  539MOL0     C71057   1.265   7.934   0.421 -0.1939 -0.0659 -0.0326
  539MOL0     C71058   1.193   7.881   0.299  0.4818 -0.3055 -0.4891
  539MOL0     C71059   1.091   7.765   0.309  0.4386 -0.3777 -0.6471
  539MOL0    Cl71060   0.938   7.812   0.390 -0.7263  0.5881 -0.5950
  539MOL0     C71061   1.680   8.546   0.547  0.2710  0.9034 -0.4776
  539MOL0     C71062   1.751   8.669   0.555  1.0930 -0.1542 -0.1727
  539MOL0     O71063   2.002   8.747   0.661 -0.3151 -0.4660  0.6126
  539MOL0     C71064   2.151   8.982   0.725  0.0980 -0.1246 -0.3534
  539MOL0     C71065   2.216   9.109   0.744 -0.3889 -0.9191  1.4202
  539MOL0     N71066   2.414   9.731   1.234  0.4309  0.4027 -0.7104
  539MOL0     N71067   2.517   9.792   1.279  0.2340  0.2978 -0.2369
  539MOL0     C71068   3.146   9.524   0.583  0.2187  0.4510 -0.4520
  539MOL0     C71069   3.091   9.404   0.538  0.5283 -0.5326  0.4638
  539MOL0     C71070   3.052   8.936   0.554 -0.0817 -0.0288 -0.2251
  539MOL0     C71071   3.124   8.820   0.608  0.4719  0.4185  1.1376
  539MOL0     C71072   3.097   8.696   0.555 -0.3566  0.2710  0.0505
  539MOL0     C71073   2.993   8.671   0.459  0.1287  0.1848  0.2926
  539MOL0     O71074   2.948   8.547   0.418  0.5459  0.5553 -0.8145
  539MOL0     C71075   2.986   8.430   0.490 -0.1737  0.7836  0.2377
  539MOL0     C71076   2.909   8.310   0.425 -0.1670 -0.2072 -0.1636
  539MOL0     C71077   2.759   8.320   0.468 -0.1396  0.1704 -0.0962
  539MOL0     C71078   2.734   8.270   0.608 -0.1522  0.1669  0.2095
  539MOL0     C71079   2.754   8.119   0.619  0.1622 -1.0463 -0.8303
  539MOL0     C71080   2.784   8.000   0.630 -1.0523  0.1799 -0.0527
  539MOL0     C71081   2.941   8.790   0.398  0.1025 -0.7123  0.5052
  539MOL0     C71082   2.972   8.921   0.439 -0.5584 -0.0108 -0.6264
  539MOL0     H71083   3.325   9.196   0.671  1.1568  0.3191 -0.9040
  539MOL0     H71084   3.430   9.409   0.730 -0.7194 -2.1113  1.2239
  539MOL0     H71085   3.195   9.773   0.622  1.0602  1.4724 -1.5824
  539MOL0     H71086   3.319   9.854   0.717 -1.7544  0.9491 -1.5708
  539MOL0     H71087   3.240   9.742   0.922 -2.5937 -1.7987  1.1630
  539MOL0     H71088   3.112   9.668   0.842 -0.0071  0.1536  0.1017
  539MOL0     H71089   3.035   9.879   0.751  1.1519 -3.4086 -0.8527
  539MOL0     H71090   3.136   9.971   0.867 -1.8268  1.0934  0.3732
  539MOL0     H71091   2.954   9.981   0.990  3.4913 -0.5705  1.0420
  539MOL0     H71092   2.874   9.841   0.904  0.3285 -2.8436  1.2491
  539MOL0     H71093   3.039   9.857   1.151 -3.1690  0.1745  2.6619
  539MOL0     H71094   3.016   9.701   1.062  1.7923  1.4383  0.2986
  539MOL0     H71095   2.767   9.745   1.095 -3.2444  3.1853  2.6440
  539MOL0     H71096   2.806   9.890   1.175 -1.0003  0.1010  0.3701
  539MOL0     H71097   2.896   9.620   1.276 -1.6823  0.3139  0.7955
  539MOL0     H71098   2.948   9.767   1.352 -0.3858  0.1796  0.5682
  539MOL0     H71099   2.725   9.842   1.402  2.0516  0.5592 -1.2437
  539MOL0     H71100   2.743   9.683   1.465 -3.0935 -0.5991 -0.0876
  539MOL0     H71101   2.618   9.484   1.268 -0.8318 -0.8437  1.6002
  539MOL0     H71102   2.248   9.568   1.160  0.2258 -0.6747  1.4277
  539MOL0     H71103   2.326   9.418   1.207  0.2859 -0.2181  0.4787
  539MOL0     H71104   2.477   9.435   1.012 -0.4067  0.6429  2.5219
  539MOL0     H71105   2.402   9.591   0.960 -0.9894  0.8072  1.4245
  539MOL0     H71106   2.232   9.334   0.971  1.1391 -1.7832 -1.2027
  539MOL0     H71107   2.183   9.489   0.912  1.7328  2.5614 -0.5632
  539MOL0     H71108   2.387   9.299   0.769 -0.8418 -0.4017  0.0701
  539MOL0     H71109   2.380   9.458   0.728 -2.2239  0.1044 -1.8917
  539MOL0     H71110   1.982   9.310   0.614 -1.4626 -0.1459  0.2051
  539MOL0     H71111   1.855   9.096   0.609  0.1165 -1.1158 -1.5127
  539MOL0     H71112   1.630   8.785   0.850 -0.0785  1.1121 -0.7770
  539MOL0     H71113   1.501   8.566   0.833  1.6812 -0.0145  1.0950
  539MOL0     H71114   1.412   8.385   0.803  0.1733 -0.5797  2.3050
  539MOL0     H71115   1.584   8.325   0.813  0.7943  0.8283 -2.0709
  539MOL0     H71116   1.399   8.142   0.838 -1.7988  0.2885 -0.5951
  539MOL0     H71117   1.529   8.117   0.716 -1.5116 -1.1296 -0.9731
  539MOL0     H71118   1.262   8.243   0.643  0.3056  0.1171 -1.8988
  539MOL0     H71119   1.283   8.067   0.668 -1.6039  1.4166  3.8110
  539MOL0     H71120   1.410   8.247   0.462 -0.0990 -0.0320 -1.0815
  539MOL0     H71121   1.489   8.093   0.491 -0.6655 -3.0475 -0.1540
  539MOL0     H71122   1.364   8.079   0.301  0.2859  1.5638 -0.0972
  539MOL0     H71123   1.218   8.138   0.383  0.9440  2.1318  0.0425
  539MOL0     H71124   1.198   7.928   0.507 -2.7109 -1.0958 -1.8980
  539MOL0     H71125   1.356   7.880   0.446  0.2835 -0.3351 -2.1236
  539MOL0     H71126   1.138   7.969   0.264  1.8216  0.1031 -1.6429
  539MOL0     H71127   1.266   7.836   0.232 -0.5540 -0.1485 -1.7780
  539MOL0     H71128   1.135   7.678   0.359  1.8407 -0.3982 -1.8557
  539MOL0     H71129   1.083   7.708   0.216  1.3730 -3.2812  0.9010
  539MOL0     H71130   1.701   8.483   0.461  1.9068  1.5838 -0.6068
  539MOL0     H71131   1.813   8.694   0.470  1.4211 -1.7297 -0.4377
  539MOL0     H71132   2.193   8.889   0.760  1.8764  0.9775  0.6387
  539MOL0     H71133   2.306   9.110   0.804 -0.0586  1.5334  0.9483
  539MOL0     H71134   3.079   9.603   0.549 -1.4912 -1.6946 -2.3208
  539MOL0     H71135   2.999   9.401   0.481 -0.5901  1.2620  2.0399
  539MOL0     H71136   3.184   8.822   0.699 -0.9991 -0.9471  2.1966
  539MOL0     H71137   3.151   8.612   0.597 -1.9692  0.1436  2.0364
  539MOL0     H71138   2.968   8.430   0.598  0.3139  1.7179  0.3309
  539MOL0     H71139   3.090   8.412   0.464 -0.7495  0.5718 -2.1375
  539MOL0     H71140   2.906   8.321   0.316  2.5646  0.4932 -0.2224
  539MOL0     H71141   2.953   8.215   0.457 -0.8777 -0.1130  1.1587
  539MOL0     H71142   2.697   8.255   0.405 -0.7020  1.8824 -1.3797
  539MOL0     H71143   2.718   8.421   0.458 -2.2983 -0.4144  1.9347
  539MOL0     H71144   2.803   8.319   0.677 -0.5298 -2.6904  2.8091
  539MOL0     H71145   2.632   8.286   0.644 -0.1628  0.2487  0.1444
  539MOL0     H71146   2.832   7.904   0.643 -0.7972  0.2263 -0.6346
  539MOL0     H71147   2.873   8.783   0.314  1.2166 -0.7892 -0.4126
  539MOL0     H71148   2.920   9.007   0.399 -0.8596  0.5068  0.8008
  540MOL0     O71149   7.333  10.027   7.895  0.1611 -0.1070  0.2087
  540MOL0     C71150   7.394   9.928   7.939 -0.2140  0.7670  0.2434
  540MOL0     O71151   7.353   9.800   7.941 -0.3557 -0.4252 -0.0596
  540MOL0     C71152   7.236   9.762   7.880  0.0175 -0.2774 -1.8332
  540MOL0     C71153   7.157   9.669   7.956  0.3121  0.1685  0.6497
  540MOL0     C71154   7.032   9.635   7.900 -0.0265 -0.6609 -0.7024
  540MOL0     C71155   6.981   9.693   7.776 -0.6562 -0.1294  0.4307
  540MOL0     O71156   6.850   9.661   7.736 -0.4059  0.1900 -0.3699
  540MOL0     C71157   6.785   9.737   7.622 -0.2824 -0.1342  0.2864
  540MOL0     C71158   6.646   9.683   7.589 -0.2124  0.6790 -0.1951
  540MOL0     C71159   6.561   9.620   7.703 -0.5701 -0.5658  0.5511
  540MOL0     C71160   6.614   9.482   7.740 -0.0492 -0.1955 -0.4816
  540MOL0     C71161   6.511   9.375   7.752  0.3888 -0.5237  0.2935
  540MOL0     C71162   6.418   9.348   7.639 -0.7216 -0.8610  0.6852
  540MOL0     C71163   6.314   9.247   7.661 -0.3037  0.0075  0.1143
  540MOL0     C71164   6.178   9.301   7.686  1.2498  0.9002  0.3338
  540MOL0     N71165   6.074   9.193   7.681 -0.0717  0.5667 -0.7103
  540MOL0     C71166   6.024   9.137   7.799 -0.0201  0.5286 -1.1128
  540MOL0     C71167   5.944   9.036   7.758  0.8254  0.2999 -0.0713
  540MOL0     C71168   5.865   8.933   7.835  0.7868 -0.9848  0.3013
  540MOL0     C71169   5.721   8.937   7.796 -0.3749 -0.0625 -0.6486
  540MOL0     C71170   5.653   8.816   7.863 -0.3695 -0.0941  0.1466
  540MOL0     C71171   5.520   8.789   7.797 -0.1122 -0.2950 -0.0565
  540MOL0     O71172   5.448   8.676   7.853 -0.5231 -0.1254 -0.0468
  540MOL0     C71173   5.312   8.653   7.832  0.6227  0.3917  0.6572
  540MOL0     C71174   5.250   8.555   7.913  0.2986  0.2620 -1.0617
  540MOL0     C71175   5.111   8.523   7.903  0.3875  0.2535 -0.9684
  540MOL0     C71176   5.037   8.591   7.806  0.6103  0.2457  0.8426
  540MOL0     C71177   4.886   8.569   7.798 -0.2619  0.1696  0.5406
  540MOL0     O71178   4.843   8.437   7.838  0.1900 -0.9153  1.0325
  540MOL0     C71179   4.710   8.405   7.820 -0.0798  0.4491 -0.3577
  540MOL0     C71180   4.652   8.400   7.698 -0.1098 -0.3512  0.1112
  540MOL0     C71181   4.519   8.353   7.685 -0.1769 -0.1855 -0.2975
  540MOL0     C71182   4.448   8.318   7.800 -0.1870  0.1093  0.0699
  540MOL0     O71183   4.324   8.274   7.798 -0.1870 -0.1906  0.3674
  540MOL0     C71184   4.216   8.366   7.785  0.3822  0.5023  0.2118
  540MOL0     C71185   4.188   8.407   7.643  0.4540  0.3578 -0.4489
  540MOL0     C71186   4.217   8.540   7.600  0.6089 -0.3576  0.7991
  540MOL0     C71187   4.096   8.622   7.658 -0.4127 -0.4219  0.7648
  540MOL0     C71188   4.107   8.773   7.673  0.1222  0.1428 -0.8386
  540MOL0     C71189   4.133   8.847   7.551 -0.3237 -0.5783  0.0420
  540MOL0     C71190   4.103   8.995   7.580 -0.8021 -0.4715  0.0584
  540MOL0     C71191   4.217   9.046   7.677  0.9359 -0.1334 -1.1738
  540MOL0    Cl71192   4.220   9.228   7.666  0.1682  0.3727 -0.3568
  540MOL0     C71193   4.518   8.311   7.917  0.2989  0.1677 -0.5869
  540MOL0     C71194   4.649   8.358   7.932  0.5311 -0.1717 -0.4890
  540MOL0     O71195   4.813   8.665   7.758 -0.9402 -0.0770  0.3488
  540MOL0     C71196   5.097   8.688   7.727  0.4257  0.1202 -0.3551
  540MOL0     C71197   5.229   8.723   7.745  0.9018 -0.2734  0.0699
  540MOL0     N71198   5.951   9.033   7.618  0.4849  0.2503  0.2800
  540MOL0     N71199   6.024   9.126   7.572 -0.0420 -0.2255 -0.3033
  540MOL0     C71200   7.066   9.782   7.711  0.0240  0.5147  0.3120
  540MOL0     C71201   7.187   9.823   7.764 -0.1602  0.9602  0.2301
  540MOL0     C71202   7.530   9.961   7.978  0.4583  0.6212 -0.7210
  540MOL0     C71203   7.591   9.885   8.077 -0.4082  0.4063  0.3004
  540MOL0     C71204   7.717   9.922   8.130 -0.4452  0.3230  0.1465
  540MOL0     C71205   7.788  10.034   8.088  0.4902  0.8673 -0.0161
  540MOL0     O71206   7.913  10.072   8.114  0.4797  0.1587  0.4908
  540MOL0     C71207   7.988   9.978   8.185 -0.2966 -1.2937  0.2701
  540MOL0     C71208   8.133  10.033   8.191  0.2044 -0.6081  0.1370
  540MOL0     C71209   8.217   9.928   8.265  0.4242  0.5914 -0.2838
  540MOL0     C71210   8.342   9.988   8.315 -0.2806 -0.6612  0.0282
  540MOL0     C71211   8.452   9.895   8.354  0.2848  1.0865 -0.3811
  540MOL0     C71212   8.543   9.821   8.376  0.2245  0.2560 -0.2073
  540MOL0     C71213   7.727  10.105   7.983 -0.4274  0.4682  0.9678
  540MOL0     C71214   7.598  10.073   7.936  0.3786  0.5465 -0.1014
  540MOL0     H71215   7.199   9.635   8.050  2.0868  1.7439  0.4684
  540MOL0     H71216   6.954   9.583   7.956  0.3178 -0.6202 -0.1783
  540MOL0     H71217   6.846   9.749   7.532 -0.8388  3.1723  0.2143
  540MOL0     H71218   6.785   9.839   7.662 -0.1944 -1.0419  2.8414
  540MOL0     H71219   6.661   9.619   7.502 -0.1261 -0.7424  0.8438
  540MOL0     H71220   6.591   9.769   7.548  0.9319  0.2761 -2.7525
  540MOL0     H71221   6.454   9.621   7.683 -0.1080 -0.1208 -2.3262
  540MOL0     H71222   6.576   9.695   7.781 -0.5128  2.9394 -2.5562
  540MOL0     H71223   6.674   9.453   7.654 -1.7646 -0.3034 -1.6787
  540MOL0     H71224   6.674   9.495   7.831 -0.0145  0.3009 -0.5719
  540MOL0     H71225   6.443   9.394   7.835 -0.9487 -2.1310 -0.3679
  540MOL0     H71226   6.562   9.284   7.784  0.6406 -0.2341  0.7223
  540MOL0     H71227   6.477   9.308   7.556 -1.8670  0.6678 -0.9316
  540MOL0     H71228   6.378   9.442   7.601 -0.4255 -1.9886 -2.7696
  540MOL0     H71229   6.313   9.195   7.564  1.5995  1.7971 -0.9494
  540MOL0     H71230   6.348   9.175   7.736  0.5024  2.0164  1.7419
  540MOL0     H71231   6.155   9.377   7.611  2.7653  1.2714  0.2137
  540MOL0     H71232   6.170   9.351   7.783 -1.5667  2.0510 -0.3857
  540MOL0     H71233   6.036   9.170   7.902 -4.2451  0.6007 -0.4924
  540MOL0     H71234   5.878   8.955   7.941  0.7034 -0.3172  0.1753
  540MOL0     H71235   5.915   8.837   7.818 -0.6787 -2.5501  3.8867
  540MOL0     H71236   5.720   8.918   7.689  1.9185 -2.6847 -0.3155
  540MOL0     H71237   5.665   9.029   7.821 -1.5558 -1.6307  3.3302
  540MOL0     H71238   5.712   8.725   7.845  1.1436  1.3645 -3.0985
  540MOL0     H71239   5.648   8.839   7.970  1.0886  0.1939  0.1815
  540MOL0     H71240   5.538   8.763   7.693 -1.2390 -3.3705  0.4259
  540MOL0     H71241   5.455   8.877   7.800 -1.2252 -1.1220  1.6182
  540MOL0     H71242   5.323   8.497   7.968  1.1928 -0.2069 -2.6851
  540MOL0     H71243   5.074   8.446   7.970 -0.6883  0.3744 -1.4176
  540MOL0     H71244   4.701   8.435   7.607  0.2188 -2.1325 -0.4268
  540MOL0     H71245   4.475   8.352   7.586 -1.4538 -3.9120  0.1583
  540MOL0     H71246   4.226   8.454   7.849 -1.1332  4.2542 -4.1795
  540MOL0     H71247   4.126   8.316   7.820 -1.8398  1.4538 -3.5844
  540MOL0     H71248   4.079   8.399   7.639  0.1049  1.9032  3.0155
  540MOL0     H71249   4.234   8.329   7.582 -1.6192 -1.8253  0.6103
  540MOL0     H71250   4.218   8.561   7.492 -1.4902 -0.6515  0.6731
  540MOL0     H71251   4.316   8.555   7.644  0.4995 -0.2465  1.0079
  540MOL0     H71252   4.022   8.605   7.580  0.3293  0.8647 -0.2525
  540MOL0     H71253   4.067   8.579   7.754  2.7100  0.8793  2.4668
  540MOL0     H71254   4.187   8.783   7.746 -1.6863  1.4397  1.0904
  540MOL0     H71255   4.021   8.816   7.725  0.2030 -1.2738  0.5506
  540MOL0     H71256   4.062   8.813   7.474 -0.5294  0.9696 -0.4782
  540MOL0     H71257   4.237   8.818   7.532  0.5751  0.1879  3.1940
  540MOL0     H71258   4.101   9.044   7.483 -3.3400  0.9396  0.7236
  540MOL0     H71259   4.005   9.012   7.627 -1.0222 -1.6130  0.0387
  540MOL0     H71260   4.310   8.998   7.644  0.3298 -0.4737 -2.4627
  540MOL0     H71261   4.199   9.013   7.780  0.6895 -0.5104 -1.3338
  540MOL0     H71262   4.461   8.283   8.006 -1.0773  2.1118 -0.7747
  540MOL0     H71263   4.701   8.358   8.027 -1.6422  0.8782  0.7660
  540MOL0     H71264   5.042   8.745   7.652 -0.2456 -1.5228 -1.1559
  540MOL0     H71265   5.279   8.802   7.689  2.5782 -0.1037  1.6982
  540MOL0     H71266   7.040   9.821   7.613  0.3457 -0.7917 -0.3183
  540MOL0     H71267   7.249   9.900   7.719 -0.6157 -0.2264 -2.6015
  540MOL0     H71268   7.541   9.803   8.130  0.7030  0.5297  1.5933
  540MOL0     H71269   7.757   9.860   8.209 -0.4920  1.3395  0.9870
  540MOL0     H71270   7.973   9.878   8.143  0.3552 -1.1783 -0.2422
  540MOL0     H71271   7.949   9.976   8.287 -1.4321  1.4326 -0.0058
  540MOL0     H71272   8.171  10.039   8.088  0.4018  1.2356  0.2914
  540MOL0     H71273   8.138  10.131   8.239  0.7089 -0.6312  0.1340
  540MOL0     H71274   8.239   9.845   8.198  1.0663  0.3911  0.1605
  540MOL0     H71275   8.162   9.879   8.346  0.2414  2.9238  1.1057
  540MOL0     H71276   8.376  10.055   8.235 -2.5631  2.0634  1.1978
  540MOL0     H71277   8.309  10.044   8.402  0.4522 -1.5015  0.8697
  540MOL0     H71278   8.623   9.750   8.385  0.8088  1.0336  0.9568
  540MOL0     H71279   7.773  10.196   7.944 -1.7076  1.5800  1.9689
  540MOL0     H71280   7.557  10.136   7.857  0.9290  0.4240 -0.4884
  541MOL0     O71281   7.779   7.071   4.171 -0.5107  0.2770 -0.7167
  541MOL0     C71282   7.720   7.166   4.123  0.4997  0.3249 -0.2617
  541MOL0     O71283   7.596   7.163   4.074 -0.1562 -0.0419  0.6778
  541MOL0     C71284   7.509   7.057   4.097 -0.2117  0.3957 -0.4580
  541MOL0     C71285   7.437   7.007   3.992  0.2907  0.2594  0.3451
  541MOL0     C71286   7.350   6.904   4.012  0.5860 -1.1870 -0.5203
  541MOL0     C71287   7.333   6.836   4.135  0.2686 -0.8513 -0.4857
  541MOL0     O71288   7.245   6.733   4.162  0.4486 -0.5374  0.8251
  541MOL0     C71289   7.161   6.682   4.066  0.1562  0.5465 -1.0003
  541MOL0     C71290   7.109   6.552   4.139  0.6903 -0.0944 -0.3438
  541MOL0     C71291   6.966   6.528   4.101  0.5337  0.1667 -0.1727
  541MOL0     C71292   6.920   6.391   4.133 -0.0424  0.8156  0.2531
  541MOL0     C71293   6.774   6.364   4.103  0.8060  0.3895  0.9433
  541MOL0     C71294   6.729   6.236   4.181  0.5696 -0.4388 -0.8538
  541MOL0     C71295   6.579   6.209   4.146 -0.3468  0.0565  0.4228
  541MOL0     C71296   6.509   6.081   4.214  0.1520  0.1127 -0.1536
  541MOL0     N71297   6.363   6.072   4.181 -0.4873 -0.0165  0.0444
  541MOL0     C71298   6.267   6.171   4.197 -0.0774 -0.4487  1.1327
  541MOL0     C71299   6.146   6.110   4.163 -0.0522  0.4746  0.4656
  541MOL0     C71300   6.008   6.162   4.201  0.3842  0.7895 -0.1368
  541MOL0     C71301   5.894   6.088   4.134 -1.2243 -1.0072  0.7239
  541MOL0     C71302   5.766   6.128   4.190 -0.6351  0.8510  0.4573
  541MOL0     C71303   5.650   6.048   4.124  0.2962  0.4988  0.6103
  541MOL0     O71304   5.532   6.127   4.138 -0.4221 -0.1695  0.5387
  541MOL0     C71305   5.413   6.055   4.124  0.1046  0.0475 -0.7501
  541MOL0     C71306   5.401   5.920   4.082 -0.3653 -0.6373 -0.0835
  541MOL0     C71307   5.271   5.868   4.087  0.0742  0.0403 -0.0577
  541MOL0     C71308   5.154   5.939   4.107 -0.7022 -0.5730 -0.5841
  541MOL0     C71309   5.025   5.880   4.100  0.2598  0.5064 -0.8788
  541MOL0     O71310   5.014   5.749   4.132  0.2809  0.7994  0.2045
  541MOL0     C71311   4.895   5.679   4.097 -0.2979  0.3434  0.1095
  541MOL0     C71312   4.858   5.658   3.971 -0.0422  0.3822  0.5257
  541MOL0     C71313   4.742   5.583   3.941 -0.6721  0.3169 -1.0871
  541MOL0     C71314   4.661   5.538   4.052  0.9661 -0.7236  0.6465
  541MOL0     O71315   4.542   5.465   4.041 -0.0734  0.6915 -0.2556
  541MOL0     C71316   4.510   5.407   3.921 -0.2300 -0.5250  0.3704
  541MOL0     C71317   4.392   5.318   3.931 -0.0356 -0.2154 -0.7864
  541MOL0     C71318   4.340   5.305   3.792  0.1462 -0.0001 -0.6274
  541MOL0     C71319   4.209   5.227   3.788 -0.5435  0.1081  0.1387
  541MOL0     C71320   4.161   5.188   3.649  0.2598 -0.8082 -0.1666
  541MOL0     C71321   4.024   5.115   3.637 -0.1254 -0.0615  0.1947
  541MOL0     C71322   3.997   5.083   3.493  0.0324  0.1214  0.9461
  541MOL0     C71323   3.852   5.051   3.476 -0.1528 -0.0907 -0.7434
  541MOL0    Cl71324   3.824   5.052   3.304  0.2908 -0.7081  0.3330
  541MOL0     C71325   4.698   5.579   4.181  0.7984  0.9638  0.4281
  541MOL0     C71326   4.817   5.640   4.201 -0.5857  0.6140 -1.0868
  541MOL0     O71327   4.930   5.947   4.060 -0.5796  0.0816  0.2747
  541MOL0     C71328   5.167   6.075   4.143 -0.7733 -0.1528 -0.7703
  541MOL0     C71329   5.292   6.137   4.142 -0.0886  0.1498 -0.4721
  541MOL0     N71330   6.173   5.984   4.110  0.0538 -0.2789  0.0498
  541MOL0     N71331   6.303   5.972   4.118  0.5663 -0.2256  0.0194
  541MOL0     C71332   7.403   6.888   4.238  0.4759 -0.9677 -0.2453
  541MOL0     C71333   7.488   6.999   4.221 -1.0006 -0.0768 -1.1383
  541MOL0     C71334   7.798   7.288   4.116  0.1999 -0.0588 -0.5673
  541MOL0     C71335   7.776   7.384   4.011  0.9573 -0.5583 -0.1050
  541MOL0     C71336   7.857   7.498   4.004 -0.3687 -0.2093  0.2204
  541MOL0     C71337   7.963   7.516   4.100 -0.1509 -1.4422 -0.5317
  541MOL0     O71338   8.037   7.634   4.096  0.2643  0.6465  0.1647
  541MOL0     C71339   7.971   7.746   4.165 -1.5473 -0.4126 -0.5333
  541MOL0     C71340   7.982   7.743   4.321 -0.2953  0.3855  0.6790
  541MOL0     C71341   8.000   7.887   4.369  0.1549  0.4589 -0.1891
  541MOL0     C71342   8.003   7.896   4.525 -0.6225  0.6496 -0.1539
  541MOL0     C71343   8.057   8.034   4.563 -0.1851 -0.4453 -0.3681
  541MOL0     C71344   8.112   8.147   4.587 -0.5644 -0.1724 -0.0028
  541MOL0     C71345   7.985   7.424   4.203 -0.0512 -0.0719 -0.7659
  541MOL0     C71346   7.903   7.312   4.213  0.9178 -0.8396 -0.4127
  541MOL0     H71347   7.457   7.050   3.895 -1.1957 -3.5718 -1.9050
  541MOL0     H71348   7.300   6.870   3.922 -1.6402 -1.9330  0.9070
  541MOL0     H71349   7.217   6.653   3.976  2.8309 -2.9439  1.4678
  541MOL0     H71350   7.088   6.759   4.043 -0.6233 -0.1942 -1.0650
  541MOL0     H71351   7.115   6.569   4.247  0.2735  0.1091 -0.3519
  541MOL0     H71352   7.176   6.465   4.136 -0.8191 -1.5541  2.6865
  541MOL0     H71353   6.961   6.533   3.992  1.5997 -0.2444 -0.2474
  541MOL0     H71354   6.898   6.604   4.141  0.3479  0.5777 -1.2182
  541MOL0     H71355   6.988   6.318   4.090  0.8237 -0.0260  2.8621
  541MOL0     H71356   6.938   6.375   4.239 -0.7731  0.1759  0.2940
  541MOL0     H71357   6.759   6.339   3.998  1.2430 -0.7783  1.1486
  541MOL0     H71358   6.710   6.448   4.131 -0.0408 -0.2542  0.9393
  541MOL0     H71359   6.744   6.249   4.288  1.1646 -1.5299 -0.7925
  541MOL0     H71360   6.788   6.149   4.149 -0.7441 -1.7135  0.0521
  541MOL0     H71361   6.514   6.294   4.170 -1.6396 -0.8056  0.1013
  541MOL0     H71362   6.569   6.192   4.038 -1.7110 -4.8284  1.0769
  541MOL0     H71363   6.515   6.102   4.322  1.2215  0.3873 -0.2556
  541MOL0     H71364   6.545   5.982   4.186  2.5941  0.4627  1.4208
  541MOL0     H71365   6.282   6.271   4.238  0.1303 -0.2058  0.4909
  541MOL0     H71366   6.001   6.271   4.189 -0.8500  0.7712  0.2348
  541MOL0     H71367   5.996   6.139   4.307  4.3507 -4.4319 -0.4591
  541MOL0     H71368   5.914   5.982   4.150 -0.5071 -1.1872 -1.1123
  541MOL0     H71369   5.904   6.113   4.028  0.0623 -1.7340  0.6531
  541MOL0     H71370   5.763   6.107   4.297 -2.0010  3.2592  0.9681
  541MOL0     H71371   5.752   6.235   4.173 -1.7171  0.4518 -1.4556
  541MOL0     H71372   5.642   5.958   4.185  2.3888  1.2304  2.0996
  541MOL0     H71373   5.673   6.027   4.019  0.2901 -0.0383  0.7124
  541MOL0     H71374   5.481   5.850   4.059 -0.5018 -0.3422 -1.5327
  541MOL0     H71375   5.256   5.770   4.042  0.4931  0.1521 -0.4487
  541MOL0     H71376   4.903   5.704   3.883 -2.1984  3.3199  0.7862
  541MOL0     H71377   4.723   5.550   3.839  0.2119 -4.3893  0.0164
  541MOL0     H71378   4.592   5.342   3.889 -0.1723 -1.1242  1.6585
  541MOL0     H71379   4.486   5.481   3.844 -0.8305 -1.3639 -0.2547
  541MOL0     H71380   4.326   5.363   4.006  4.1467 -0.0503  3.1907
  541MOL0     H71381   4.416   5.220   3.973 -1.1809  0.7657  2.4352
  541MOL0     H71382   4.413   5.249   3.734 -0.4791 -1.9979  0.4333
  541MOL0     H71383   4.321   5.399   3.739 -2.4130 -0.3308 -0.4256
  541MOL0     H71384   4.228   5.133   3.841  0.0424  0.5407  0.7179
  541MOL0     H71385   4.141   5.292   3.843 -1.2313  1.1237 -1.8217
  541MOL0     H71386   4.242   5.125   3.610  0.3080 -0.7598 -0.1443
  541MOL0     H71387   4.163   5.287   3.601  1.1872 -0.2274  1.0342
  541MOL0     H71388   3.959   5.187   3.688  4.3250  2.7583  2.5177
  541MOL0     H71389   4.035   5.025   3.699 -1.1578  0.9385  1.9192
  541MOL0     H71390   4.014   5.173   3.433 -1.5573 -1.4039 -2.0005
  541MOL0     H71391   4.065   5.004   3.459 -0.2318  0.6056 -0.8193
  541MOL0     H71392   3.798   5.136   3.518  1.0017  0.0195  0.5920
  541MOL0     H71393   3.820   4.959   3.527  1.6039 -0.2286  0.1951
  541MOL0     H71394   4.635   5.575   4.269 -0.4965  0.0800 -0.4896
  541MOL0     H71395   4.861   5.678   4.292 -1.2840  3.5409 -1.8599
  541MOL0     H71396   5.083   6.137   4.175 -0.1230  1.5958 -2.2598
  541MOL0     H71397   5.318   6.239   4.168 -0.2766 -0.0357  0.4828
  541MOL0     H71398   7.411   6.846   4.338  1.1558 -0.6836 -0.1756
  541MOL0     H71399   7.530   7.039   4.313 -3.6057  2.8237 -1.0376
  541MOL0     H71400   7.707   7.358   3.931  1.9622 -0.0215 -1.1799
  541MOL0     H71401   7.862   7.549   3.908  3.7832 -2.6330 -1.0937
  541MOL0     H71402   7.871   7.753   4.123 -1.7353  0.7161  0.0671
  541MOL0     H71403   8.022   7.839   4.140  0.2631 -1.1854  0.0803
  541MOL0     H71404   7.902   7.681   4.362 -0.3726 -0.8175 -1.1852
  541MOL0     H71405   8.073   7.688   4.345  0.2277 -2.0383 -5.1562
  541MOL0     H71406   7.924   7.957   4.332 -0.3768 -0.4520 -0.8627
  541MOL0     H71407   8.093   7.917   4.320  0.3747 -1.2956 -0.9135
  541MOL0     H71408   7.902   7.866   4.554 -0.8050  1.5602  0.2158
  541MOL0     H71409   8.071   7.821   4.566 -0.3901  0.6889 -0.4562
  541MOL0     H71410   8.165   8.240   4.583 -0.5124 -0.2485 -2.1181
  541MOL0     H71411   8.059   7.447   4.279 -3.7099  1.2942  2.7406
  541MOL0     H71412   7.926   7.251   4.299  1.3091  0.0875  0.1605
  542MOL0     O71413   2.667   7.519   7.237 -0.1210  0.2548  0.3654
  542MOL0     C71414   2.715   7.519   7.126  0.1078 -0.6022  0.7274
  542MOL0     O71415   2.642   7.520   7.005  0.6309  0.5459  0.3560
  542MOL0     C71416   2.502   7.506   7.005 -0.7198 -0.4512  0.1971
  542MOL0     C71417   2.435   7.413   7.073 -0.0487 -0.6471 -0.5897
  542MOL0     C71418   2.299   7.405   7.070 -0.3292 -1.0001 -1.1705
  542MOL0     C71419   2.224   7.499   6.989  0.2887 -0.4631 -0.0038
  542MOL0     O71420   2.089   7.500   6.973  0.0478 -0.2306  0.2184
  542MOL0     C71421   2.016   7.385   6.916 -0.2905  0.8588 -1.2637
  542MOL0     C71422   1.864   7.417   6.879 -0.2305 -0.1999 -0.2563
  542MOL0     C71423   1.879   7.528   6.766  0.3098 -0.4282 -0.3627
  542MOL0     C71424   1.751   7.598   6.721  0.2318 -0.3952  0.5279
  542MOL0     C71425   1.682   7.500   6.614 -0.6600  1.1347 -0.0874
  542MOL0     C71426   1.564   7.564   6.535 -0.8799 -0.3210  0.2202
  542MOL0     C71427   1.441   7.585   6.615  0.8099 -0.4582 -0.8673
  542MOL0     C71428   1.326   7.634   6.524 -0.2042 -0.7071 -0.1893
  542MOL0     N71429   1.216   7.682   6.605 -0.3221  0.1060 -0.3872
  542MOL0     C71430   1.207   7.808   6.664  0.4409  0.4648  0.7414
  542MOL0     C71431   1.104   7.790   6.755 -0.5954  0.3650  0.3249
  542MOL0     C71432   1.083   7.889   6.860 -0.4909  0.0186 -0.1301
  542MOL0     C71433   0.927   7.907   6.878 -0.4845 -0.0155 -0.5961
  542MOL0     C71434   0.874   7.961   7.018 -0.6540  0.2513  0.2911
  542MOL0     C71435   0.721   7.965   7.005 -0.4662 -0.8063  0.3687
  542MOL0     O71436   0.671   8.082   6.934 -0.1813  0.0908  0.3617
  542MOL0     C71437   0.532   8.088   6.929 -0.2745 -0.6893  0.7845
  542MOL0     C71438   0.490   8.213   6.893  0.3653  0.7359 -0.4667
  542MOL0     C71439   0.350   8.235   6.908 -0.0383 -0.9390  0.2905
  542MOL0     C71440   0.266   8.143   6.953  0.5980 -0.1112 -0.8664
  542MOL0     C71441   0.126   8.181   6.985  0.2094 -0.0614 -0.0632
  542MOL0     O71442   0.034   8.086   6.966  0.1784  0.7387  0.8011
  542MOL0     C71443  -0.102   8.115   6.988 -0.2635  0.5645 -0.8551
  542MOL0     C71444  -0.169   8.052   7.089 -0.2996 -0.2113 -1.0463
  542MOL0     C71445  -0.306   8.089   7.117 -0.4862  0.0031 -0.0666
  542MOL0     C71446  -0.374   8.187   7.038 -0.4343  0.1938  0.6310
  542MOL0     O71447  -0.504   8.219   7.068 -0.4627  0.3727 -0.5829
  542MOL0     C71448  -0.559   8.337   7.011 -0.2682  0.0504 -0.3847
  542MOL0     C71449  -0.684   8.366   7.093 -1.2976  0.2563  0.5008
  542MOL0     C71450  -0.801   8.279   7.067  0.8302 -0.8337 -0.0760
  542MOL0     C71451  -0.924   8.349   7.136  0.5251  0.3400  0.0965
  542MOL0     C71452  -1.053   8.272   7.095 -0.5746  0.2194  0.9877
  542MOL0     C71453  -1.180   8.341   7.145 -0.3934  0.2133  1.0369
  542MOL0     C71454  -1.310   8.253   7.153 -0.8057  0.2861 -0.9287
  542MOL0     C71455  -1.427   8.346   7.175 -0.2172  0.2508  0.5425
  542MOL0    Cl71456  -1.403   8.421   7.333  0.0719 -0.3134  0.1037
  542MOL0     C71457  -0.295   8.243   6.927 -0.2038 -1.0582 -0.3956
  542MOL0     C71458  -0.168   8.207   6.900  0.1925  0.4665 -0.1617
  542MOL0     O71459   0.105   8.296   7.025 -0.0961  0.7661 -0.5312
  542MOL0     C71460   0.303   8.011   6.972 -0.5230 -0.4271 -0.3243
  542MOL0     C71461   0.441   7.984   6.967 -0.0589 -1.2753  0.3132
  542MOL0     N71462   1.042   7.666   6.734  0.9691  0.5149  0.6523
  542MOL0     N71463   1.102   7.605   6.636 -0.3855 -0.6979 -0.0694
  542MOL0     C71464   2.294   7.594   6.910  0.1582  0.3730  0.4864
  542MOL0     C71465   2.433   7.591   6.921  0.0251 -0.6339  0.3925
  542MOL0     C71466   2.865   7.541   7.126 -0.2143  0.6670  1.3139
  542MOL0     C71467   2.946   7.516   7.011  0.0330  0.1807  0.6954
  542MOL0     C71468   3.083   7.536   7.010 -0.0027 -0.4021 -0.6742
  542MOL0     C71469   3.138   7.582   7.123 -0.4729  0.1067 -0.9302
  542MOL0     O71470   3.269   7.597   7.112 -0.7996  1.1162  0.5167
  542MOL0     C71471   3.353   7.615   7.232 -0.3117 -0.3057  0.2228
  542MOL0     C71472   3.500   7.641   7.185  0.4586 -0.0173  0.1989
  542MOL0     C71473   3.574   7.506   7.170 -0.3543  1.0888 -0.6503
  542MOL0     C71474   3.713   7.522   7.103  0.1276 -1.0260  1.3424
  542MOL0     C71475   3.784   7.399   7.087  0.5341 -0.8224 -0.0921
  542MOL0     C71476   3.836   7.292   7.053 -0.6420 -0.6830 -0.2497
  542MOL0     C71477   3.074   7.603   7.247  0.5984 -0.2935  0.6523
  542MOL0     C71478   2.932   7.595   7.236 -0.4783  0.0853 -0.1960
  542MOL0     H71479   2.490   7.339   7.131  3.5115  0.4630 -2.2558
  542MOL0     H71480   2.252   7.333   7.136  0.5613 -1.2727 -0.8216
  542MOL0     H71481   2.007   7.309   6.994  1.0975  1.4122 -0.5089
  542MOL0     H71482   2.078   7.350   6.833 -0.3423  1.6150 -1.6298
  542MOL0     H71483   1.819   7.467   6.965  0.3744 -0.6869  0.3569
  542MOL0     H71484   1.814   7.327   6.843  2.0196 -0.5325 -2.8978
  542MOL0     H71485   1.930   7.481   6.681  3.1459  0.3035  0.8149
  542MOL0     H71486   1.942   7.609   6.803  1.4414 -0.7441 -1.5017
  542MOL0     H71487   1.679   7.631   6.796  0.2517 -1.2385  0.9284
  542MOL0     H71488   1.775   7.689   6.665  0.6530  0.7061  2.4399
  542MOL0     H71489   1.632   7.416   6.662 -1.4550  1.4933 -0.2746
  542MOL0     H71490   1.762   7.476   6.544  0.0481  3.8236 -0.3249
  542MOL0     H71491   1.539   7.506   6.445  0.2847  1.6463 -1.4807
  542MOL0     H71492   1.597   7.661   6.496 -2.9066 -0.9161 -3.5068
  542MOL0     H71493   1.408   7.496   6.668  1.6642 -0.4462 -0.2989
  542MOL0     H71494   1.462   7.666   6.685  0.9705 -0.1413 -1.2770
  542MOL0     H71495   1.295   7.550   6.461 -1.1428 -1.3042  1.0411
  542MOL0     H71496   1.373   7.703   6.452  4.1332  1.7448  4.3565
  542MOL0     H71497   1.273   7.894   6.650  1.8682 -0.8394 -1.1574
  542MOL0     H71498   1.124   7.980   6.815 -0.4820 -0.2577 -0.6989
  542MOL0     H71499   1.127   7.857   6.954  0.7923 -0.1168 -0.7615
  542MOL0     H71500   0.890   7.804   6.876  2.1893 -1.0467 -0.5457
  542MOL0     H71501   0.879   7.967   6.801 -5.2078  0.8699  2.6068
  542MOL0     H71502   0.905   7.896   7.100 -2.2917  1.7497  2.2016
  542MOL0     H71503   0.903   8.064   7.039  1.8338 -0.9791  3.6843
  542MOL0     H71504   0.692   7.987   7.108 -0.2788 -1.5701  0.5861
  542MOL0     H71505   0.687   7.865   6.977 -0.2819 -0.5927 -0.6808
  542MOL0     H71506   0.561   8.290   6.866 -1.1933  1.8848 -1.4760
  542MOL0     H71507   0.310   8.332   6.882 -3.2376 -1.7687  1.6262
  542MOL0     H71508  -0.108   7.975   7.134  0.8837 -0.5840 -3.1768
  542MOL0     H71509  -0.362   8.040   7.196 -0.8272 -0.3938 -0.5432
  542MOL0     H71510  -0.591   8.317   6.908  1.0291 -0.7061 -0.6594
  542MOL0     H71511  -0.493   8.424   7.016 -0.6671  0.3122  0.3625
  542MOL0     H71512  -0.719   8.467   7.069 -2.1636  0.3292  1.9451
  542MOL0     H71513  -0.660   8.363   7.199 -0.7002 -1.1739  0.3481
  542MOL0     H71514  -0.781   8.177   7.101  0.7849 -2.1298 -3.5861
  542MOL0     H71515  -0.807   8.277   6.958  3.7673  1.1571 -0.3847
  542MOL0     H71516  -0.918   8.350   7.245  2.9634  2.2066  0.0208
  542MOL0     H71517  -0.924   8.456   7.114  1.9601  0.9331  2.5839
  542MOL0     H71518  -1.057   8.176   7.146 -0.3342 -1.8890 -2.6486
  542MOL0     H71519  -1.054   8.258   6.987 -1.2956  1.1883  0.8507
  542MOL0     H71520  -1.208   8.421   7.075  0.3047  0.3679  0.9254
  542MOL0     H71521  -1.153   8.394   7.236  3.5628 -1.4302  0.9918
  542MOL0     H71522  -1.320   8.187   7.066 -1.8534 -0.0741 -0.5501
  542MOL0     H71523  -1.295   8.198   7.246  1.8724  2.5835  0.1626
  542MOL0     H71524  -1.519   8.289   7.188  1.1677 -1.7813  2.1156
  542MOL0     H71525  -1.436   8.424   7.099 -0.6782 -3.6238 -3.8726
  542MOL0     H71526  -0.345   8.325   6.876  0.8549 -0.5162 -0.5958
  542MOL0     H71527  -0.112   8.264   6.825  2.1250 -2.0534 -0.7658
  542MOL0     H71528   0.232   7.943   7.020  0.7869 -0.4070  1.7939
  542MOL0     H71529   0.481   7.884   6.981  0.9749 -0.6178  2.3969
  542MOL0     H71530   2.229   7.646   6.841 -0.9444 -0.8858  0.5244
  542MOL0     H71531   2.495   7.660   6.864  0.1371 -1.5861 -0.6690
  542MOL0     H71532   2.902   7.465   6.925 -1.7198 -2.9256  3.2003
  542MOL0     H71533   3.146   7.517   6.924 -0.7401 -0.2345 -1.2709
  542MOL0     H71534   3.352   7.530   7.300 -3.1344  0.0234  0.7099
  542MOL0     H71535   3.323   7.702   7.291  0.3123 -0.0161  0.1178
  542MOL0     H71536   3.495   7.699   7.093 -0.5068 -2.2589 -1.2567
  542MOL0     H71537   3.565   7.688   7.260  2.2761 -3.2405  0.8280
  542MOL0     H71538   3.516   7.432   7.114  0.8669  0.6227 -1.3497
  542MOL0     H71539   3.602   7.460   7.265  2.6989  1.7787 -1.0788
  542MOL0     H71540   3.699   7.576   7.009 -0.4300  0.1975  2.0957
  542MOL0     H71541   3.769   7.593   7.164 -2.6978  1.7047  1.0267
  542MOL0     H71542   3.894   7.205   7.032  4.6531  2.7725 -1.7134
  542MOL0     H71543   3.126   7.651   7.330  1.0987  2.7945 -1.2900
  542MOL0     H71544   2.882   7.628   7.326  0.2658  0.5764  0.0481
  543MOL0     O71545   7.497  10.013   4.663  0.7396 -0.0056  0.3965
  543MOL0     C71546   7.554  10.079   4.750  0.5053 -0.5746  0.2678
  543MOL0     O71547   7.505  10.093   4.878 -0.2064 -0.3235  0.0071
  543MOL0     C71548   7.386  10.041   4.908 -0.1571  0.1477 -0.6267
  543MOL0     C71549   7.269  10.096   4.859  0.0101 -0.6308 -0.1581
  543MOL0     C71550   7.145  10.028   4.882 -0.5149  0.2756 -0.6940
  543MOL0     C71551   7.139   9.925   4.978  0.5555  0.1494  0.4459
  543MOL0     O71552   7.025   9.869   5.034 -0.2890  0.5745  0.6890
  543MOL0     C71553   6.905   9.894   4.968  0.4869  1.1629  0.3584
  543MOL0     C71554   6.800   9.803   5.015  0.1596  1.0372  0.0133
  543MOL0     C71555   6.664   9.829   4.934 -0.3834  1.0427 -0.6362
  543MOL0     C71556   6.536   9.761   4.985 -0.0261  0.2721 -0.7333
  543MOL0     C71557   6.426   9.796   4.889  0.7218  1.1363 -0.3414
  543MOL0     C71558   6.337   9.672   4.864 -0.0890  0.2663 -0.4958
  543MOL0     C71559   6.207   9.692   4.781 -1.3725  0.9011 -0.3983
  543MOL0     C71560   6.104   9.790   4.836 -0.0554  0.8256 -0.5597
  543MOL0     N71561   5.971   9.775   4.770 -0.7896 -0.5421  0.2162
  543MOL0     C71562   5.894   9.660   4.790 -0.5805 -0.4728  0.3081
  543MOL0     C71563   5.766   9.704   4.772  0.0265 -0.7066 -0.0191
  543MOL0     C71564   5.641   9.634   4.803 -0.3556  0.2665 -0.4968
  543MOL0     C71565   5.612   9.661   4.954 -0.1780  0.2620 -0.4861
  543MOL0     C71566   5.566   9.807   4.978  0.2434  0.0598 -0.4530
  543MOL0     C71567   5.429   9.851   4.931 -0.5736 -0.1719 -0.1714
  543MOL0     O71568   5.333   9.775   5.007  0.5807 -0.0826  0.4670
  543MOL0     C71569   5.209   9.772   4.956  0.8317  0.3145 -0.3282
  543MOL0     C71570   5.140   9.656   4.984  0.4422  0.2091  0.3000
  543MOL0     C71571   5.008   9.644   4.945 -0.3377 -0.2748  0.3165
  543MOL0     C71572   4.938   9.738   4.869  1.1466  0.3568  0.2842
  543MOL0     C71573   4.801   9.715   4.808  1.0700 -0.3025  0.1239
  543MOL0     O71574   4.731   9.823   4.759 -0.3449 -0.6008 -0.6130
  543MOL0     C71575   4.627   9.790   4.685  0.2815  0.3386  0.3056
  543MOL0     C71576   4.625   9.784   4.551 -0.6240  0.3236  0.3396
  543MOL0     C71577   4.512   9.761   4.465 -0.1857  0.3086 -0.2002
  543MOL0     C71578   4.385   9.756   4.527 -0.7767  0.1415  0.6743
  543MOL0     O71579   4.280   9.714   4.446  0.0787 -0.4167  0.4974
  543MOL0     C71580   4.149   9.744   4.490 -0.5030 -0.2525 -0.0767
  543MOL0     C71581   4.053   9.739   4.376 -0.8318 -0.4260  0.5390
  543MOL0     C71582   3.912   9.790   4.406 -0.6814 -0.3447  0.3013
  543MOL0     C71583   3.848   9.697   4.509  0.2672 -0.8386  0.2013
  543MOL0     C71584   3.697   9.692   4.481  0.1540  0.0796 -0.2569
  543MOL0     C71585   3.625   9.824   4.523  0.1097  0.9906  0.3017
  543MOL0     C71586   3.566   9.809   4.659  0.0164  0.3711  0.4589
  543MOL0     C71587   3.480   9.930   4.701  0.2306  0.2588  0.1220
  543MOL0    Cl71588   3.391   9.896   4.839 -0.2504  0.0809 -0.5205
  543MOL0     C71589   4.387   9.766   4.666  0.3048 -0.2081  0.3814
  543MOL0     C71590   4.500   9.782   4.745 -0.5243 -0.2734  0.6924
  543MOL0     O71591   4.762   9.604   4.799 -0.4500  0.1599 -0.3856
  543MOL0     C71592   5.009   9.853   4.830  0.1466  0.5531 -0.1632
  543MOL0     C71593   5.144   9.869   4.878 -0.2002  0.0471  0.7558
  543MOL0     N71594   5.779   9.833   4.713 -0.4855  0.1592  0.5392
  543MOL0     N71595   5.896   9.880   4.732  0.1459 -0.2187  0.4964
  543MOL0     C71596   7.258   9.875   5.035  0.0956 -0.9976 -0.1276
  543MOL0     C71597   7.384   9.932   5.005 -0.8942 -0.1893  0.1457
  543MOL0     C71598   7.688  10.124   4.726 -0.0508 -0.1838 -0.1321
  543MOL0     C71599   7.776  10.159   4.835  0.0932  1.4833  0.1516
  543MOL0     C71600   7.900  10.208   4.803  0.2276  0.3398  0.3259
  543MOL0     C71601   7.952  10.210   4.673 -0.4895 -0.4999 -1.2681
  543MOL0     O71602   8.071  10.260   4.649  0.0876  0.0028 -0.1391
  543MOL0     C71603   8.156  10.190   4.553  0.0029  0.3083 -0.4866
  543MOL0     C71604   8.281  10.128   4.629  0.8051  0.2372 -0.2118
  543MOL0     C71605   8.367  10.234   4.700  0.4798  0.2281  0.6473
  543MOL0     C71606   8.513  10.182   4.737  0.4144 -0.6427 -0.0249
  543MOL0     C71607   8.591  10.155   4.621  0.6345  0.2375  0.5445
  543MOL0     C71608   8.660  10.135   4.522  0.3851 -0.3881 -0.2753
  543MOL0     C71609   7.876  10.155   4.573  0.5051 -0.4519  0.4560
  543MOL0     C71610   7.742  10.111   4.599  0.2952 -0.5690  0.1171
  543MOL0     H71611   7.281  10.183   4.796 -2.4859  0.3282  0.5674
  543MOL0     H71612   7.050  10.075   4.856 -1.3537 -0.9858 -0.0222
  543MOL0     H71613   6.912   9.893   4.859  0.6146  1.0983  0.3663
  543MOL0     H71614   6.882   9.999   4.989 -0.8629  1.7260 -3.1457
  543MOL0     H71615   6.759   9.816   5.116 -0.1466  0.5494 -0.0398
  543MOL0     H71616   6.844   9.703   5.002  1.0439  1.1076  2.0393
  543MOL0     H71617   6.684   9.789   4.834  0.4313  1.8869 -0.8209
  543MOL0     H71618   6.649   9.937   4.923  0.1571  0.9237 -3.2560
  543MOL0     H71619   6.545   9.653   4.997  0.4728  0.2732 -1.0467
  543MOL0     H71620   6.524   9.807   5.083  0.3513  2.6402 -1.7112
  543MOL0     H71621   6.465   9.824   4.791  0.1550  0.3867 -0.7967
  543MOL0     H71622   6.368   9.883   4.923 -0.6408 -0.2458  1.0973
  543MOL0     H71623   6.313   9.628   4.961 -2.1739 -0.7611 -1.4219
  543MOL0     H71624   6.401   9.591   4.828  0.0483  0.2860 -0.2989
  543MOL0     H71625   6.235   9.734   4.684 -0.2191  0.3698 -0.3168
  543MOL0     H71626   6.169   9.594   4.752  1.5833 -0.2062 -0.8114
  543MOL0     H71627   6.141   9.893   4.837  3.5731 -0.2713  2.5838
  543MOL0     H71628   6.086   9.764   4.941  0.3548  0.8165 -0.4902
  543MOL0     H71629   5.927   9.562   4.821  0.1802 -0.2617  0.2069
  543MOL0     H71630   5.666   9.529   4.784  0.4327  0.4795 -0.6561
  543MOL0     H71631   5.556   9.651   4.737  0.7495  0.9337 -1.7814
  543MOL0     H71632   5.699   9.635   5.015  0.8559 -0.4021 -2.1574
  543MOL0     H71633   5.533   9.593   4.987 -0.3660 -0.2885 -1.9927
  543MOL0     H71634   5.564   9.825   5.086  0.6564 -0.7399 -0.3055
  543MOL0     H71635   5.628   9.876   4.920  0.7145 -0.9217 -1.1452
  543MOL0     H71636   5.417   9.838   4.823  0.1256 -2.0200 -0.0640
  543MOL0     H71637   5.422   9.959   4.948 -1.5957  0.1953 -2.5987
  543MOL0     H71638   5.192   9.579   5.040  0.8369  0.9708  1.0109
  543MOL0     H71639   4.964   9.548   4.971  0.5053 -1.1076 -1.1951
  543MOL0     H71640   4.722   9.801   4.506  0.4169  1.0404  2.6964
  543MOL0     H71641   4.517   9.761   4.356 -1.0975 -2.5082 -0.2989
  543MOL0     H71642   4.144   9.834   4.552  1.6785 -0.3192  0.2632
  543MOL0     H71643   4.116   9.664   4.556 -1.0549  1.5217  1.9151
  543MOL0     H71644   4.059   9.643   4.325  0.8611  0.1168 -0.3509
  543MOL0     H71645   4.093   9.801   4.295  0.0303 -3.5014 -1.5388
  543MOL0     H71646   3.860   9.794   4.310  0.9453  1.3318 -0.5651
  543MOL0     H71647   3.904   9.890   4.449 -1.8824 -2.0570  4.5650
  543MOL0     H71648   3.893   9.600   4.486 -1.5184 -1.1930 -2.3349
  543MOL0     H71649   3.884   9.739   4.603  4.4783  0.1486 -1.6384
  543MOL0     H71650   3.656   9.606   4.536 -1.6444  0.9973 -0.0815
  543MOL0     H71651   3.666   9.676   4.377 -0.9415 -1.6659  0.2953
  543MOL0     H71652   3.548   9.844   4.449  0.1412 -4.4898 -1.6328
  543MOL0     H71653   3.686   9.913   4.535 -1.5290  2.1410  0.4168
  543MOL0     H71654   3.498   9.722   4.658  2.0643 -1.3152 -0.5579
  543MOL0     H71655   3.644   9.796   4.734 -0.7662 -0.9872  1.0731
  543MOL0     H71656   3.415   9.948   4.615 -0.4368 -0.5161  0.4519
  543MOL0     H71657   3.547  10.015   4.717  0.3749  0.0175  0.8434
  543MOL0     H71658   4.293   9.765   4.720  0.1690 -1.4762  0.1572
  543MOL0     H71659   4.481   9.804   4.850 -0.4266  1.5726  0.3660
  543MOL0     H71660   4.959   9.934   4.778 -0.6174 -0.5493 -1.2127
  543MOL0     H71661   5.191   9.964   4.856 -0.3936  0.0663  0.4209
  543MOL0     H71662   7.252   9.804   5.117 -1.1543  0.9790  1.6107
  543MOL0     H71663   7.467   9.880   5.052 -0.4152  1.8573  1.7436
  543MOL0     H71664   7.755  10.148   4.941 -1.3088  3.4223  0.1290
  543MOL0     H71665   7.969  10.239   4.881  1.0984 -0.2907 -0.1789
  543MOL0     H71666   8.183  10.270   4.484 -0.1424 -0.5969 -1.6235
  543MOL0     H71667   8.115  10.101   4.505  0.1473 -0.4662  0.7671
  543MOL0     H71668   8.247  10.050   4.698 -0.1605 -0.7095 -1.7093
  543MOL0     H71669   8.331  10.074   4.549 -1.2117 -1.2227 -0.5509
  543MOL0     H71670   8.314  10.263   4.791  1.2499  0.2260  1.1083
  543MOL0     H71671   8.366  10.325   4.640  1.8165 -1.6429 -2.5052
  543MOL0     H71672   8.568  10.261   4.788 -0.0557 -1.2459  1.4606
  543MOL0     H71673   8.499  10.098   4.806 -1.2918 -0.0563  0.3930
  543MOL0     H71674   8.708  10.100   4.433 -0.6539  0.7287 -1.3079
  543MOL0     H71675   7.920  10.141   4.475  2.7312  2.3846  0.9189
  543MOL0     H71676   7.678  10.076   4.518  0.3662  0.7086 -0.5161
  544MOL0     O71677   8.974   1.221   5.842 -0.0591 -0.0872  0.6478
  544MOL0     C71678   8.979   1.096   5.848 -0.1982  0.6443  0.4080
  544MOL0     O71679   8.885   1.012   5.896  0.8712 -0.3333 -0.1322
  544MOL0     C71680   8.760   1.059   5.938 -0.1799  0.3971  0.3692
  544MOL0     C71681   8.646   0.985   5.889 -0.2577  1.0494 -0.4864
  544MOL0     C71682   8.516   1.018   5.918 -0.4589  0.2915  1.2973
  544MOL0     C71683   8.476   1.126   6.005 -0.3833 -1.5123 -1.1784
  544MOL0     O71684   8.351   1.158   6.029  0.2289 -0.3164 -0.1589
  544MOL0     C71685   8.245   1.063   6.032  0.0686  0.7145 -0.8231
  544MOL0     C71686   8.184   1.067   6.167  0.4065  0.1019  0.2336
  544MOL0     C71687   8.034   1.044   6.156  0.0057 -0.3026  0.2115
  544MOL0     C71688   7.974   1.038   6.298 -0.3784 -0.1998 -1.0480
  544MOL0     C71689   7.828   1.018   6.302  0.0975 -0.0166  0.1618
  544MOL0     C71690   7.770   1.135   6.229  0.5387  0.2484  0.0027
  544MOL0     C71691   7.635   1.174   6.277 -0.0114 -0.1834  0.9044
  544MOL0     C71692   7.523   1.074   6.269  0.9315 -0.1498 -0.1377
  544MOL0     N71693   7.512   0.992   6.145 -0.3989 -0.0328  1.2550
  544MOL0     C71694   7.549   1.039   6.016 -0.2433  0.0677 -0.2118
  544MOL0     C71695   7.571   0.934   5.936 -0.1288  0.5017 -0.2242
  544MOL0     C71696   7.624   0.951   5.801  0.5149 -0.2141 -0.3650
  544MOL0     C71697   7.780   0.925   5.793  0.0475 -0.1237  0.2821
  544MOL0     C71698   7.831   0.796   5.862 -0.6858 -0.3492 -0.0622
  544MOL0     C71699   7.990   0.786   5.840  0.1990  0.1972  0.4001
  544MOL0     O71700   8.033   0.657   5.878  0.5875 -0.2600  0.0098
  544MOL0     C71701   8.169   0.628   5.863 -0.5864  0.2224 -1.0232
  544MOL0     C71702   8.209   0.493   5.886 -0.6437 -0.0573 -0.1512
  544MOL0     C71703   8.330   0.447   5.858 -0.2915 -0.3409 -0.9248
  544MOL0     C71704   8.430   0.526   5.812  0.2818 -0.1919 -0.4431
  544MOL0     C71705   8.569   0.478   5.805  0.4166 -0.5709 -0.4930
  544MOL0     O71706   8.653   0.571   5.752 -0.0753 -0.0650  0.2192
  544MOL0     C71707   8.778   0.529   5.726 -0.3776 -0.8040 -0.0841
  544MOL0     C71708   8.886   0.594   5.787  0.4735 -1.2813  0.3579
  544MOL0     C71709   9.015   0.549   5.764 -0.3657 -0.0627 -0.0234
  544MOL0     C71710   9.041   0.441   5.679 -0.7222  0.6462 -0.6902
  544MOL0     O71711   9.170   0.415   5.659  0.2853  0.8055  0.0812
  544MOL0     C71712   9.201   0.290   5.597 -0.7249 -0.1600  0.2644
  544MOL0     C71713   9.346   0.252   5.648 -0.2945 -0.7041  0.1701
  544MOL0     C71714   9.450   0.349   5.612  0.1327  0.0816 -0.1574
  544MOL0     C71715   9.495   0.322   5.465  0.3573 -0.3484  0.7305
  544MOL0     C71716   9.624   0.400   5.431  0.6384  0.4305  0.0436
  544MOL0     C71717   9.753   0.339   5.494 -0.0391 -0.3095 -0.1314
  544MOL0     C71718   9.877   0.416   5.451  0.8141 -0.1568 -0.7860
  544MOL0     C71719   9.997   0.381   5.531 -0.5041  0.2603 -0.4212
  544MOL0    Cl71720  10.132   0.472   5.469  0.1947  0.4745  0.0034
  544MOL0     C71721   8.935   0.381   5.613  0.2615 -0.1980  0.2865
  544MOL0     C71722   8.806   0.430   5.633  0.1865 -0.8227 -0.2651
  544MOL0     O71723   8.596   0.364   5.847 -0.6574  0.4464  0.0028
  544MOL0     C71724   8.400   0.664   5.793  0.0660 -0.1861  0.1018
  544MOL0     C71725   8.272   0.718   5.820 -0.3908  0.5018 -0.3380
  544MOL0     N71726   7.547   0.821   6.007 -0.4975 -0.4983 -0.8034
  544MOL0     N71727   7.523   0.853   6.128 -0.1349  0.8516  0.1582
  544MOL0     C71728   8.586   1.198   6.056 -0.0875  0.9162 -0.2341
  544MOL0     C71729   8.722   1.167   6.020 -0.4960  0.2412  0.4283
  544MOL0     C71730   9.114   1.035   5.823 -0.6108  0.2085  0.1898
  544MOL0     C71731   9.157   0.913   5.875  1.1579  0.1053 -0.0030
  544MOL0     C71732   9.284   0.869   5.856 -0.0365 -0.1746  0.6973
  544MOL0     C71733   9.381   0.960   5.808 -0.1588 -0.5855  0.4337
  544MOL0     O71734   9.507   0.922   5.835  0.0093  0.2753  0.4974
  544MOL0     C71735   9.624   1.002   5.811  0.2796  0.3086 -0.0396
  544MOL0     C71736   9.720   0.955   5.919  0.1172 -0.2904 -0.5035
  544MOL0     C71737   9.701   1.016   6.058 -1.4056 -0.3978 -1.1285
  544MOL0     C71738   9.791   0.951   6.161  0.6281 -0.3336 -0.8735
  544MOL0     C71739   9.929   0.991   6.158 -0.7825  0.3264 -0.1095
  544MOL0     C71740  10.051   1.003   6.152  0.3253 -0.3721  0.3457
  544MOL0     C71741   9.340   1.081   5.759 -0.1955  0.2284  0.0770
  544MOL0     C71742   9.212   1.117   5.767  0.0654 -0.5961  0.0463
  544MOL0     H71743   8.669   0.900   5.824  0.8236 -0.4772  1.7525
  544MOL0     H71744   8.442   0.965   5.859  0.3118  1.1555 -0.5227
  544MOL0     H71745   8.281   0.961   6.015  2.5578  1.1172  1.3072
  544MOL0     H71746   8.175   1.088   5.952 -0.6425 -1.4126 -0.9305
  544MOL0     H71747   8.182   1.170   6.204 -2.8633  0.0279  0.5608
  544MOL0     H71748   8.241   1.016   6.245 -0.4783  1.5846  1.9036
  544MOL0     H71749   8.008   0.946   6.114  1.0035 -1.6332  2.5139
  544MOL0     H71750   7.991   1.116   6.086  0.0606 -0.9829 -0.5377
  544MOL0     H71751   8.020   0.950   6.343 -1.0737  0.0507  0.1997
  544MOL0     H71752   8.006   1.123   6.359 -0.5608 -0.8085 -0.0844
  544MOL0     H71753   7.801   1.029   6.408  1.8356  0.9052  0.5301
  544MOL0     H71754   7.804   0.921   6.257 -0.0160  0.4294 -0.7633
  544MOL0     H71755   7.770   1.120   6.121  1.1547  0.9150 -0.0943
  544MOL0     H71756   7.843   1.216   6.233  3.4406 -2.0925 -1.8343
  544MOL0     H71757   7.646   1.217   6.377  1.1539  2.5899 -0.3178
  544MOL0     H71758   7.606   1.262   6.219 -1.7161 -1.6180 -0.5319
  544MOL0     H71759   7.430   1.129   6.287  1.0458  0.5490 -1.5354
  544MOL0     H71760   7.535   1.012   6.358 -1.2341  2.7849  2.4552
  544MOL0     H71761   7.550   1.141   5.978  0.2507  1.1205  2.3889
  544MOL0     H71762   7.601   1.053   5.768  0.4972 -0.0146  0.2473
  544MOL0     H71763   7.556   0.886   5.745 -0.6938  0.1969  0.5677
  544MOL0     H71764   7.827   1.012   5.839 -2.4101 -0.3685  3.6258
  544MOL0     H71765   7.814   0.904   5.691  0.3948  0.6472  0.2306
  544MOL0     H71766   7.820   0.806   5.970  2.8283  1.0338  0.2922
  544MOL0     H71767   7.781   0.709   5.820  0.6528 -1.4091  0.4430
  544MOL0     H71768   8.034   0.857   5.910  0.7496 -0.3405  0.6053
  544MOL0     H71769   8.011   0.808   5.734 -1.5134 -0.2580 -0.0612
  544MOL0     H71770   8.138   0.417   5.918  2.4787 -2.5654  1.3406
  544MOL0     H71771   8.345   0.343   5.887  0.3688 -0.7307 -2.5779
  544MOL0     H71772   8.853   0.676   5.849  2.5884 -0.3612  0.3417
  544MOL0     H71773   9.102   0.591   5.815 -0.5173  1.1439 -0.7067
  544MOL0     H71774   9.195   0.312   5.490  1.7957  1.1434  0.3236
  544MOL0     H71775   9.135   0.213   5.637 -0.4066  0.5717  2.3267
  544MOL0     H71776   9.378   0.154   5.610 -1.3342 -0.5785 -1.0897
  544MOL0     H71777   9.357   0.245   5.757  6.1024  1.3871  0.0585
  544MOL0     H71778   9.538   0.343   5.677  1.5178  1.8917 -1.7253
  544MOL0     H71779   9.418   0.453   5.621  1.4704  0.5239 -0.2039
  544MOL0     H71780   9.515   0.217   5.439  0.4898 -0.5911  1.7370
  544MOL0     H71781   9.424   0.341   5.385  1.1787  0.0562  0.0813
  544MOL0     H71782   9.614   0.507   5.450  0.2304  0.2690  0.7965
  544MOL0     H71783   9.637   0.381   5.324  1.9322  1.5088 -0.0173
  544MOL0     H71784   9.763   0.237   5.457 -0.7179  1.0199 -4.4893
  544MOL0     H71785   9.742   0.341   5.603  0.2152 -0.8085 -0.0945
  544MOL0     H71786   9.883   0.379   5.348 -0.3723  2.2390 -1.7975
  544MOL0     H71787   9.866   0.525   5.452 -2.1197 -0.3960  0.5904
  544MOL0     H71788  10.013   0.274   5.520 -0.4030  0.1642  0.5825
  544MOL0     H71789   9.977   0.392   5.638  0.9945 -0.1816 -0.0734
  544MOL0     H71790   8.944   0.302   5.539 -1.5350 -0.8359  0.6827
  544MOL0     H71791   8.721   0.399   5.573  0.2649 -1.1938 -0.1912
  544MOL0     H71792   8.477   0.739   5.779 -0.5622  0.5235  0.3659
  544MOL0     H71793   8.251   0.821   5.794 -0.2115 -0.0854 -3.2417
  544MOL0     H71794   8.582   1.288   6.117  0.1250 -0.4329  1.8657
  544MOL0     H71795   8.798   1.230   6.064 -1.5909  0.6190  1.8471
  544MOL0     H71796   9.082   0.856   5.929  0.7748 -0.4045 -1.0419
  544MOL0     H71797   9.318   0.772   5.891  2.4121  0.4809  0.3748
  544MOL0     H71798   9.603   1.110   5.809 -2.8259 -0.0906  2.3635
  544MOL0     H71799   9.675   0.972   5.719 -0.9230  0.0282 -0.6353
  544MOL0     H71800   9.721   0.846   5.916 -0.5275 -0.3102 -3.8687
  544MOL0     H71801   9.821   0.982   5.887  0.1241 -0.2762 -0.4696
  544MOL0     H71802   9.602   0.986   6.093 -0.0017 -3.2449  0.7545
  544MOL0     H71803   9.712   1.125   6.058 -1.9397 -0.3267  0.0652
  544MOL0     H71804   9.755   0.977   6.262  1.4626  1.1140 -0.9242
  544MOL0     H71805   9.778   0.843   6.160 -0.4136 -0.4045  2.8924
  544MOL0     H71806  10.156   1.010   6.128 -0.1287  0.9061 -1.4608
  544MOL0     H71807   9.399   1.156   5.707  1.0529  1.6569  3.2531
  544MOL0     H71808   9.192   1.215   5.725  1.3247  0.8325  2.5619
  545MOL0     O71809   8.212  10.490   4.971 -0.4596  1.1481 -0.1448
  545MOL0     C71810   8.251  10.560   4.877 -0.1273 -0.1505  0.3688
  545MOL0     O71811   8.171  10.619   4.783  0.0100 -0.2847 -0.4904
  545MOL0     C71812   8.034  10.614   4.802  0.0629 -0.3182 -0.6867
  545MOL0     C71813   7.948  10.556   4.707 -0.4422  0.5625  0.1300
  545MOL0     C71814   7.808  10.576   4.728 -0.3440 -0.2993  0.4325
  545MOL0     C71815   7.758  10.659   4.836  0.8567  0.3465  0.4529
  545MOL0     O71816   7.626  10.688   4.852  0.1534  0.1620  0.0842
  545MOL0     C71817   7.533  10.610   4.778 -0.9581 -0.2917  0.2985
  545MOL0     C71818   7.399  10.654   4.845  0.9403  0.8557  0.0628
  545MOL0     C71819   7.291  10.554   4.800  0.5839 -0.2088 -0.2094
  545MOL0     C71820   7.165  10.550   4.891  0.4579  0.0291 -0.1957
  545MOL0     C71821   7.075  10.439   4.835  0.4926 -0.6999  0.7016
  545MOL0     C71822   6.950  10.426   4.926 -0.7853 -0.9173  0.3020
  545MOL0     C71823   6.852  10.335   4.853 -0.1089 -0.1228  0.0039
  545MOL0     C71824   6.725  10.319   4.923  0.5085 -0.2123  0.0499
  545MOL0     N71825   6.608  10.287   4.836 -0.9156  0.1599 -0.1313
  545MOL0     C71826   6.512  10.192   4.858 -0.0124 -0.2925  0.2493
  545MOL0     C71827   6.420  10.206   4.757  0.0640  0.1022  0.2098
  545MOL0     C71828   6.304  10.119   4.727  0.2468 -0.7057  0.2120
  545MOL0     C71829   6.185  10.193   4.655 -0.1853  0.1136 -0.2057
  545MOL0     C71830   6.101  10.283   4.742  0.1076  0.8278  0.4849
  545MOL0     C71831   5.954  10.270   4.713  0.1884 -0.1567  0.7457
  545MOL0     O71832   5.873  10.332   4.813 -0.4240 -0.0762  0.8590
  545MOL0     C71833   5.736  10.307   4.820  0.0476 -0.6403  0.9785
  545MOL0     C71834   5.665  10.208   4.744 -0.3570  0.5427 -0.6478
  545MOL0     C71835   5.534  10.188   4.761 -0.2863 -0.0429  0.0359
  545MOL0     C71836   5.452  10.271   4.836 -0.2517 -0.3751  0.9212
  545MOL0     C71837   5.302  10.252   4.833 -0.5081  0.1483 -0.0068
  545MOL0     O71838   5.230  10.293   4.954 -1.0484  0.3851  0.7990
  545MOL0     C71839   5.094  10.286   4.974 -0.5885 -0.4354  0.3987
  545MOL0     C71840   5.040  10.247   5.100  0.0300 -0.4233  0.3031
  545MOL0     C71841   4.900  10.241   5.110  0.0799 -0.2627 -0.2598
  545MOL0     C71842   4.812  10.259   5.010 -0.4689  0.2530  0.5990
  545MOL0     O71843   4.679  10.231   5.019 -0.4019 -0.3089 -0.1284
  545MOL0     C71844   4.651  10.091   5.049 -0.7951  0.3888  0.5892
  545MOL0     C71845   4.497  10.084   5.044  0.0599  0.0476  0.2342
  545MOL0     C71846   4.440  10.094   4.899  0.6087  0.6926 -0.6279
  545MOL0     C71847   4.283  10.101   4.889  0.5036  0.4607 -0.1826
  545MOL0     C71848   4.208   9.979   4.947 -0.1422  0.6267  0.3860
  545MOL0     C71849   4.061   9.949   4.897  0.1958  0.8851  0.0706
  545MOL0     C71850   3.955  10.041   4.961 -0.7452 -0.4681  0.2378
  545MOL0     C71851   3.831  10.014   4.877  0.1970 -0.2526  0.5201
  545MOL0    Cl71852   3.693  10.128   4.933 -0.1199 -0.3622 -0.0599
  545MOL0     C71853   4.864  10.305   4.888 -0.5324  0.3692 -0.3141
  545MOL0     C71854   4.995  10.317   4.876 -0.3416  0.1325 -0.7096
  545MOL0     O71855   5.255  10.177   4.751 -0.3212 -0.1030  0.3837
  545MOL0     C71856   5.512  10.370   4.916 -0.3261 -0.3265 -0.0359
  545MOL0     C71857   5.656  10.390   4.893 -0.2541 -0.2182 -1.2589
  545MOL0     N71858   6.466  10.297   4.663 -0.3374 -0.0976 -1.0742
  545MOL0     N71859   6.584  10.340   4.711  0.4763 -0.0187  0.0096
  545MOL0     C71860   7.849  10.709   4.925  0.4888 -0.6352 -1.0660
  545MOL0     C71861   7.987  10.689   4.905  0.3129 -1.1484  0.2318
  545MOL0     C71862   8.399  10.563   4.862  0.0113  0.3074 -0.1025
  545MOL0     C71863   8.455  10.627   4.754  0.5621  0.1374 -0.7201
  545MOL0     C71864   8.590  10.626   4.721 -0.4407 -0.2258 -0.2336
  545MOL0     C71865   8.683  10.551   4.790  0.4869  0.4431  0.2173
  545MOL0     O71866   8.815  10.544   4.764  0.2032  0.3779  0.3916
  545MOL0     C71867   8.865  10.617   4.643  0.2317 -0.2008  0.7072
  545MOL0     C71868   8.997  10.549   4.596 -0.4719 -0.9003 -0.2337
  545MOL0     C71869   9.057  10.622   4.473 -0.8987 -0.1575  0.7339
  545MOL0     C71870   9.197  10.573   4.442 -0.2823 -0.9870 -0.0113
  545MOL0     C71871   9.194  10.443   4.381 -0.5398 -0.3646  0.9284
  545MOL0     C71872   9.191  10.336   4.314  0.2392 -0.1192  0.1535
  545MOL0     C71873   8.625  10.483   4.903 -1.4327 -0.4550 -0.5502
  545MOL0     C71874   8.491  10.486   4.940 -0.6353  0.6583  0.0287
  545MOL0     H71875   7.983  10.490   4.628 -0.4529 -0.0514  0.6248
  545MOL0     H71876   7.743  10.532   4.653 -0.1475  1.8280 -1.1067
  545MOL0     H71877   7.561  10.504   4.785  1.1624  0.2748  0.7698
  545MOL0     H71878   7.519  10.629   4.671 -0.0739 -0.2028  0.1922
  545MOL0     H71879   7.376  10.760   4.832 -0.9648  0.2873 -1.8543
  545MOL0     H71880   7.424  10.643   4.950  2.2220 -0.2773 -0.3270
  545MOL0     H71881   7.346  10.459   4.799 -0.3693 -0.7815 -1.1060
  545MOL0     H71882   7.262  10.563   4.695  3.1472  0.0171 -0.9650
  545MOL0     H71883   7.203  10.532   4.992 -1.4329  1.7800  0.9042
  545MOL0     H71884   7.123  10.651   4.899 -0.2546 -0.3007  0.2998
  545MOL0     H71885   7.133  10.346   4.832 -1.3632 -1.8964 -1.6617
  545MOL0     H71886   7.051  10.475   4.735  1.2327 -2.0338  0.0184
  545MOL0     H71887   6.892  10.516   4.943 -2.6694 -2.3381  1.8734
  545MOL0     H71888   6.968  10.397   5.031  0.8593  1.7484  0.8525
  545MOL0     H71889   6.834  10.378   4.754 -0.5717 -2.3938 -0.9809
  545MOL0     H71890   6.901  10.239   4.832 -0.8365 -0.6843  0.8198
  545MOL0     H71891   6.700  10.404   4.987  1.3933 -0.2400  0.4564
  545MOL0     H71892   6.737  10.234   4.991  0.2069  2.0129  3.1279
  545MOL0     H71893   6.503  10.124   4.941 -0.9592 -2.3516 -1.4600
  545MOL0     H71894   6.258  10.082   4.819 -1.6570  0.4893 -0.1920
  545MOL0     H71895   6.341  10.034   4.669  2.6997  0.3387  0.1052
  545MOL0     H71896   6.125  10.112   4.612 -0.6190 -0.0569  0.6885
  545MOL0     H71897   6.221  10.251   4.570  0.4908  1.7506  1.1532
  545MOL0     H71898   6.128  10.268   4.847 -1.0912  1.0883  0.8391
  545MOL0     H71899   6.143  10.383   4.723 -0.7698  1.3593  1.2871
  545MOL0     H71900   5.937  10.162   4.708  2.4334 -0.5736  0.9142
  545MOL0     H71901   5.926  10.306   4.613 -2.5316  2.3026  2.2541
  545MOL0     H71902   5.721  10.145   4.676 -0.2414  0.2731 -0.3084
  545MOL0     H71903   5.489  10.102   4.713  0.8575 -1.2160  0.9994
  545MOL0     H71904   5.117  10.217   5.170  3.5486  2.4650 -1.9473
  545MOL0     H71905   4.869  10.191   5.202 -1.8922 -2.0167 -1.7729
  545MOL0     H71906   4.669  10.058   5.152 -0.9041 -0.0540  0.4704
  545MOL0     H71907   4.693  10.025   4.973  1.1210  1.0346  1.0301
  545MOL0     H71908   4.448  10.162   5.103  1.5203  3.4316 -2.6006
  545MOL0     H71909   4.472   9.982   5.074 -0.1544 -1.3267 -3.9450
  545MOL0     H71910   4.482  10.014   4.837  1.3194  0.0060  0.6989
  545MOL0     H71911   4.464  10.188   4.848 -2.6972  1.0267 -1.8519
  545MOL0     H71912   4.250  10.188   4.946 -1.0239 -0.5944  0.6071
  545MOL0     H71913   4.246  10.117   4.787  1.0356 -3.2305 -1.0992
  545MOL0     H71914   4.221  10.000   5.054  0.4939 -1.0148  0.6708
  545MOL0     H71915   4.253   9.882   4.923 -0.6977  0.6156 -0.6425
  545MOL0     H71916   4.044   9.844   4.923 -0.4524  1.0596  0.3891
  545MOL0     H71917   4.062   9.960   4.788 -0.7383  0.3647 -0.0078
  545MOL0     H71918   3.933  10.029   5.068  1.2601  0.2674  0.7860
  545MOL0     H71919   3.974  10.146   4.938  0.9660 -0.3723  1.8194
  545MOL0     H71920   3.798   9.910   4.883 -0.3102 -0.1014  0.4608
  545MOL0     H71921   3.861  10.025   4.772  2.6137 -2.7709  0.8321
  545MOL0     H71922   4.800  10.330   4.804 -0.7898 -2.7663 -1.1588
  545MOL0     H71923   5.029  10.356   4.781  1.3670  2.7916  0.8203
  545MOL0     H71924   5.472  10.439   4.989  0.8988  1.8616 -1.3220
  545MOL0     H71925   5.700  10.476   4.944  1.4662  0.1965 -3.2898
  545MOL0     H71926   7.809  10.761   5.011 -2.1340 -2.7076 -0.8794
  545MOL0     H71927   8.060  10.745   4.962  0.8539 -1.8816  0.2781
  545MOL0     H71928   8.396  10.694   4.693  3.7934  3.5441 -0.4828
  545MOL0     H71929   8.609  10.705   4.649 -0.1864 -1.3275 -1.4032
  545MOL0     H71930   8.882  10.722   4.667 -0.5600 -0.5112  2.8597
  545MOL0     H71931   8.795  10.604   4.559  1.1918  1.0249 -0.3312
  545MOL0     H71932   9.070  10.558   4.677 -2.3934 -0.7422  1.5668
  545MOL0     H71933   8.984  10.442   4.579  0.7775 -1.1846  0.4642
  545MOL0     H71934   9.054  10.729   4.492 -0.6755  0.4546 -2.1570
  545MOL0     H71935   8.996  10.623   4.382 -0.0392 -0.1523  0.1368
  545MOL0     H71936   9.242  10.649   4.376 -0.8710 -0.3506  0.3082
  545MOL0     H71937   9.258  10.584   4.532 -1.3324  3.0511  0.4176
  545MOL0     H71938   9.191  10.258   4.241 -0.7267 -0.5054  0.5500
  545MOL0     H71939   8.681  10.415   4.965  2.1365  1.4799 -1.3441
  545MOL0     H71940   8.464  10.420   5.022  1.6697 -1.3451 -0.6936
  546MOL0     O71941   6.423   7.549  10.619 -0.6705 -0.1442 -0.1467
  546MOL0     C71942   6.406   7.671  10.620 -0.4129 -0.0408 -0.7577
  546MOL0     O71943   6.284   7.737  10.609  0.0157  0.0736  0.0384
  546MOL0     C71944   6.170   7.670  10.573  0.7789 -0.1194 -0.2643
  546MOL0     C71945   6.144   7.529  10.582  0.2739  0.2135 -0.2004
  546MOL0     C71946   6.041   7.471  10.521 -0.3862  0.1520  0.1852
  546MOL0     C71947   5.937   7.545  10.466  1.2745  0.5172  0.8099
  546MOL0     O71948   5.821   7.474  10.417 -0.0525 -0.2272  0.1474
  546MOL0     C71949   5.689   7.532  10.386  0.5006  0.0156  0.0511
  546MOL0     C71950   5.574   7.423  10.385 -0.6352 -0.8681 -0.0563
  546MOL0     C71951   5.428   7.474  10.394 -0.7128  0.4246 -0.3485
  546MOL0     C71952   5.383   7.535  10.263 -0.1402 -0.2231 -0.1766
  546MOL0     C71953   5.242   7.584  10.244  0.3239 -0.1339 -0.5331
  546MOL0     C71954   5.122   7.495  10.235  0.1669  0.1620  0.3905
  546MOL0     C71955   5.122   7.400  10.122  0.5239  1.0740  0.3431
  546MOL0     C71956   4.997   7.317  10.114  1.0655  0.4528  0.4820
  546MOL0     N71957   4.880   7.402  10.085 -0.2282  0.1212  0.1145
  546MOL0     C71958   4.742   7.354  10.099 -0.6567 -0.2800 -0.6827
  546MOL0     C71959   4.656   7.448  10.040 -0.4478 -0.3711 -0.3484
  546MOL0     C71960   4.506   7.424  10.046 -0.0624  0.2075  1.3263
  546MOL0     C71961   4.427   7.481   9.925  0.0929  0.2344  0.3519
  546MOL0     C71962   4.284   7.429   9.937 -0.5482 -0.6792  0.5442
  546MOL0     C71963   4.214   7.432   9.794  0.2480  0.7864 -0.3567
  546MOL0     O71964   4.220   7.574   9.750 -0.9758  1.0085  0.3237
  546MOL0     C71965   4.102   7.640   9.746  0.4902 -0.4057 -0.1450
  546MOL0     C71966   4.081   7.725   9.636  0.8724 -0.1451  0.2264
  546MOL0     C71967   3.961   7.794   9.606  0.1224  0.1637  0.7694
  546MOL0     C71968   3.851   7.755   9.687  0.1758 -0.9650  0.7115
  546MOL0     C71969   3.711   7.808   9.640  0.4020  0.7483 -0.3077
  546MOL0     O71970   3.616   7.809   9.735  0.5930 -0.7873 -0.0988
  546MOL0     C71971   3.506   7.892   9.722 -0.2581  0.8886  0.5907
  546MOL0     C71972   3.394   7.844   9.789  0.2435  0.6038 -0.2484
  546MOL0     C71973   3.275   7.916   9.783 -0.3438 -0.8261 -1.1680
  546MOL0     C71974   3.264   8.024   9.697  0.2052 -0.8625  0.4480
  546MOL0     O71975   3.154   8.103   9.663  0.1472  0.3209 -0.3402
  546MOL0     C71976   3.079   8.151   9.774 -0.2099  0.8620  1.0201
  546MOL0     C71977   2.947   8.068   9.794  0.0270 -0.5656 -1.2462
  546MOL0     C71978   2.836   8.162   9.851  0.8819  0.4168  0.7777
  546MOL0     C71979   2.706   8.080   9.889 -0.4068 -0.1372  0.0426
  546MOL0     C71980   2.603   8.147   9.987 -0.5030  0.6311  0.3799
  546MOL0     C71981   2.492   8.059  10.051 -0.7547 -0.0292  0.0749
  546MOL0     C71982   2.419   8.116  10.178  0.6939  0.1730  0.1101
  546MOL0     C71983   2.505   8.111  10.307  0.1171 -0.1096  0.0669
  546MOL0    Cl71984   2.420   8.200  10.436 -0.0025 -0.0321 -0.1097
  546MOL0     C71985   3.375   8.064   9.627  0.6491 -0.2678  0.3384
  546MOL0     C71986   3.498   8.004   9.639  0.0385 -0.1601 -0.2180
  546MOL0     O71987   3.709   7.840   9.520  0.1366  0.8156  0.1593
  546MOL0     C71988   3.865   7.667   9.790  0.4825  0.3335  0.7965
  546MOL0     C71989   3.987   7.616   9.823  0.0887  0.2659 -0.7266
  546MOL0     N71990   4.742   7.553  10.009  0.7477 -0.6851  0.2984
  546MOL0     N71991   4.869   7.521  10.020 -0.5504  0.0600 -0.6141
  546MOL0     C71992   5.947   7.681  10.474  0.0328  0.1318 -0.0449
  546MOL0     C71993   6.065   7.746  10.523  0.2933 -0.0763  0.1303
  546MOL0     C71994   6.523   7.759  10.620  0.2318 -0.0081 -0.3714
  546MOL0     C71995   6.505   7.902  10.614  0.1048  0.9255  0.1857
  546MOL0     C71996   6.608   7.993  10.595 -0.6674  0.0501 -0.0630
  546MOL0     C71997   6.743   7.941  10.603 -0.4298 -0.5947  0.0400
  546MOL0     O71998   6.845   8.030  10.584  0.5251  0.3324 -0.6109
  546MOL0     C71999   6.974   7.987  10.612 -0.0236 -0.4248 -0.3745
  546MOL0     C72000   7.059   8.094  10.672 -0.8262 -0.2160 -0.3029
  546MOL0     C72001   7.192   8.037  10.701 -0.2521  0.3389 -0.5055
  546MOL0     C72002   7.272   8.133  10.788 -0.2294  0.0296 -0.1298
  546MOL0     C72003   7.397   8.071  10.844 -0.3884 -0.8549  0.7229
  546MOL0     C72004   7.501   8.019  10.878  0.0231  0.3968 -0.0863
  546MOL0     C72005   6.757   7.804  10.606 -0.4135 -0.9054 -1.6286
  546MOL0     C72006   6.652   7.711  10.608  0.1742  0.3098 -0.3431
  546MOL0     H72007   6.207   7.460  10.638  0.1163 -1.4503 -1.9797
  546MOL0     H72008   6.038   7.364  10.538 -2.4891  0.2200  0.4541
  546MOL0     H72009   5.695   7.569  10.284  2.9512  2.7421  1.0494
  546MOL0     H72010   5.670   7.608  10.462  2.6893  0.0359  0.6407
  546MOL0     H72011   5.595   7.364  10.474 -1.3538 -0.1351  0.6181
  546MOL0     H72012   5.587   7.372  10.290 -0.0299  1.9538 -1.6158
  546MOL0     H72013   5.412   7.536  10.483 -0.0947  0.7968 -0.4843
  546MOL0     H72014   5.370   7.384  10.417 -1.2505  0.5669 -1.1194
  546MOL0     H72015   5.444   7.624  10.245 -0.2355  0.2845  1.7313
  546MOL0     H72016   5.417   7.476  10.177  3.1977  0.0984  0.7840
  546MOL0     H72017   5.244   7.639  10.150  2.0220 -0.5512 -0.7797
  546MOL0     H72018   5.234   7.654  10.328  2.1132 -1.6673  1.0166
  546MOL0     H72019   5.036   7.562  10.220 -0.8520 -1.1794  0.0330
  546MOL0     H72020   5.117   7.435  10.326 -1.0151 -2.4153 -1.2662
  546MOL0     H72021   5.144   7.439  10.022 -1.1536  0.8124 -0.1465
  546MOL0     H72022   5.207   7.332  10.137  1.0550  1.8687  1.0679
  546MOL0     H72023   4.973   7.257  10.203  1.2843 -0.4797 -0.0772
  546MOL0     H72024   5.016   7.248  10.031 -0.4256  1.4823 -0.7728
  546MOL0     H72025   4.714   7.258  10.142  0.4878 -1.2060 -1.9116
  546MOL0     H72026   4.462   7.470  10.136 -2.2840 -3.0108  2.0798
  546MOL0     H72027   4.490   7.316  10.052 -1.7222  0.1946 -1.5008
  546MOL0     H72028   4.478   7.447   9.835 -0.0253 -1.8096  0.9992
  546MOL0     H72029   4.439   7.589   9.939 -0.3045  0.1992  1.0154
  546MOL0     H72030   4.287   7.326   9.973  0.4325  0.4156  4.0085
  546MOL0     H72031   4.228   7.493  10.006  1.5575  0.4058  1.3368
  546MOL0     H72032   4.116   7.384   9.802  1.5142 -2.4559 -2.2263
  546MOL0     H72033   4.267   7.365   9.725  0.9909 -0.7773  1.6521
  546MOL0     H72034   4.160   7.745   9.565 -0.1635  2.6062 -0.2904
  546MOL0     H72035   3.957   7.860   9.520  3.3884  0.6059  0.8248
  546MOL0     H72036   3.411   7.760   9.856 -2.0244 -0.1873 -0.6003
  546MOL0     H72037   3.196   7.885   9.850  0.7722  2.2180  1.8804
  546MOL0     H72038   3.064   8.256   9.747 -0.2044  0.6955  0.3532
  546MOL0     H72039   3.145   8.155   9.861  0.6482  0.5223  0.3896
  546MOL0     H72040   2.965   7.982   9.859  0.2188  0.1623 -0.3140
  546MOL0     H72041   2.921   8.016   9.701 -0.2796 -2.6027 -0.0780
  546MOL0     H72042   2.801   8.226   9.769 -0.6219 -0.1675  0.9233
  546MOL0     H72043   2.868   8.221   9.937 -0.9072  0.5356  1.3995
  546MOL0     H72044   2.652   8.052   9.799 -1.7411 -2.7071  1.5246
  546MOL0     H72045   2.733   7.984   9.935  2.8889  0.7350  0.1604
  546MOL0     H72046   2.553   8.212   9.915  0.3256 -1.3586 -2.1141
  546MOL0     H72047   2.660   8.190  10.070  0.1183 -2.0478  1.4390
  546MOL0     H72048   2.550   7.974  10.087  0.6929  1.6408  1.9249
  546MOL0     H72049   2.435   8.018   9.968 -0.5757  0.2420 -0.1867
  546MOL0     H72050   2.384   8.218  10.161  0.5835  0.3787  1.4507
  546MOL0     H72051   2.327   8.059  10.196  0.9651  0.0467  1.1877
  546MOL0     H72052   2.595   8.165  10.276 -1.3757  0.6512 -3.4193
  546MOL0     H72053   2.538   8.011  10.334  2.4973  1.2473  2.7714
  546MOL0     H72054   3.364   8.158   9.575 -0.4709  0.1884  1.3480
  546MOL0     H72055   3.587   8.040   9.587 -0.6308  0.1469 -1.1923
  546MOL0     H72056   3.780   7.653   9.856  3.4457 -1.1566  4.6803
  546MOL0     H72057   3.983   7.545   9.905 -3.3905  2.5396  1.3182
  546MOL0     H72058   5.862   7.745  10.454 -0.4481 -0.1215  1.0752
  546MOL0     H72059   6.074   7.854  10.527 -3.2210  0.3977 -0.6666
  546MOL0     H72060   6.405   7.943  10.612  0.2102  1.2273  0.7879
  546MOL0     H72061   6.588   8.099  10.579  1.4611  0.3017 -1.5497
  546MOL0     H72062   7.023   7.948  10.523  0.6153 -0.8681  0.1583
  546MOL0     H72063   6.969   7.909  10.689  0.4816  0.0766  0.1817
  546MOL0     H72064   7.079   8.163  10.590 -2.8438 -0.7608 -1.3219
  546MOL0     H72065   7.010   8.139  10.759  0.5841  0.9730 -0.0857
  546MOL0     H72066   7.236   8.012  10.605 -3.0040 -0.9164 -1.5496
  546MOL0     H72067   7.178   7.949  10.765 -2.0733  0.4473 -0.6870
  546MOL0     H72068   7.299   8.225  10.737  0.1775  0.2052  0.3955
  546MOL0     H72069   7.204   8.162  10.869 -1.1509  1.5193 -1.3740
  546MOL0     H72070   7.594   7.974  10.908  0.7164  2.1251  0.4935
  546MOL0     H72071   6.857   7.762  10.604 -0.0646 -0.1074 -1.0824
  546MOL0     H72072   6.687   7.609  10.598  0.3346  0.4103 -0.8903
  547MOL0     O72073   1.042  10.002   9.130  0.2886 -0.3678 -0.3599
  547MOL0     C72074   1.148   9.977   9.079  0.4731 -0.5227  0.8270
  547MOL0     O72075   1.165   9.883   8.982 -0.3424 -0.5995 -0.1287
  547MOL0     C72076   1.064   9.842   8.901  0.2377 -0.6152 -0.2807
  547MOL0     C72077   0.944   9.917   8.870  0.2310 -0.0288 -0.1300
  547MOL0     C72078   0.847   9.864   8.793 -0.1704  0.3188 -0.3242
  547MOL0     C72079   0.863   9.741   8.731 -0.1300  0.5689  0.1265
  547MOL0     O72080   0.766   9.700   8.643  0.4761  0.3644 -0.1921
  547MOL0     C72081   0.758   9.554   8.626  0.7100  0.3011 -0.3380
  547MOL0     C72082   0.661   9.511   8.510  0.1848  0.1957 -0.3797
  547MOL0     C72083   0.515   9.507   8.552  0.3412  0.4371  0.2841
  547MOL0     C72084   0.455   9.402   8.462 -0.8863 -0.3347 -0.2772
  547MOL0     C72085   0.306   9.397   8.500 -0.4916 -0.2632 -0.5698
  547MOL0     C72086   0.237   9.269   8.449 -0.2192 -0.2811  0.0712
  547MOL0     C72087   0.099   9.247   8.527  0.2043 -0.0965  0.3461
  547MOL0     C72088   0.013   9.370   8.545  0.0416 -0.4179  0.0898
  547MOL0     N72089  -0.131   9.334   8.569  0.5576 -0.0767 -1.3000
  547MOL0     C72090  -0.169   9.259   8.674 -0.6338  0.9143  0.9397
  547MOL0     C72091  -0.310   9.259   8.668  0.3401  1.0932 -0.0946
  547MOL0     C72092  -0.406   9.188   8.762 -1.0165 -0.2033  0.2403
  547MOL0     C72093  -0.471   9.057   8.707  0.2590 -1.0368 -0.5892
  547MOL0     C72094  -0.552   9.076   8.579 -0.8254  0.0238 -0.6918
  547MOL0     C72095  -0.659   9.194   8.595  0.8899 -0.3477  0.1105
  547MOL0     O72096  -0.728   9.178   8.716  0.0418  0.0387 -0.3002
  547MOL0     C72097  -0.859   9.152   8.695 -0.5639  0.0722  0.7489
  547MOL0     C72098  -0.940   9.252   8.751  0.6997 -0.3732 -0.8805
  547MOL0     C72099  -1.078   9.236   8.746  0.2931 -1.0004  0.3794
  547MOL0     C72100  -1.132   9.123   8.689 -0.0797 -0.4370  0.0533
  547MOL0     C72101  -1.280   9.103   8.679  0.4827 -0.0414 -0.6969
  547MOL0     O72102  -1.363   9.206   8.738 -0.0861  0.2352  0.1734
  547MOL0     C72103  -1.493   9.171   8.735  0.4331  0.3427  0.4122
  547MOL0     C72104  -1.548   9.078   8.822 -0.3924 -0.6192  0.5357
  547MOL0     C72105  -1.688   9.043   8.824 -0.1038  0.3749 -0.6000
  547MOL0     C72106  -1.772   9.110   8.740 -0.1912  0.8253 -0.7014
  547MOL0     O72107  -1.910   9.098   8.729  0.0549  0.5285 -0.3337
  547MOL0     C72108  -1.999   9.145   8.832 -0.1918  0.2206 -0.0658
  547MOL0     C72109  -2.131   9.186   8.768  0.2570 -0.0315  0.0766
  547MOL0     C72110  -2.121   9.304   8.669  0.3687  0.8782 -0.1731
  547MOL0     C72111  -2.267   9.336   8.626  0.0586 -0.1024  1.0587
  547MOL0     C72112  -2.263   9.425   8.502  0.1369 -0.1909 -0.0702
  547MOL0     C72113  -2.402   9.467   8.450  0.4370  0.5695  0.5771
  547MOL0     C72114  -2.398   9.559   8.326 -0.1328  0.3119 -0.0356
  547MOL0     C72115  -2.360   9.705   8.379 -0.3063  0.5815  0.5883
  547MOL0    Cl72116  -2.387   9.831   8.251 -0.0496 -0.2382  0.3483
  547MOL0     C72117  -1.713   9.198   8.645  0.3695 -0.3307  0.4490
  547MOL0     C72118  -1.580   9.224   8.642 -0.5919  0.3528  0.3225
  547MOL0     O72119  -1.323   9.003   8.624  0.0826  0.5803  0.1619
  547MOL0     C72120  -1.048   9.031   8.622  0.4231 -0.7826 -0.3976
  547MOL0     C72121  -0.910   9.045   8.626  0.3652  0.0954 -1.2764
  547MOL0     N72122  -0.348   9.329   8.553 -0.4263  0.7188  0.7620
  547MOL0     N72123  -0.239   9.378   8.493  0.4184  0.9551  0.8742
  547MOL0     C72124   0.979   9.662   8.766 -0.3223 -0.3338  0.7829
  547MOL0     C72125   1.075   9.713   8.855 -0.7032  0.1024 -0.3488
  547MOL0     C72126   1.272  10.043   9.140  0.2723 -0.0990 -0.6491
  547MOL0     C72127   1.276  10.137   9.242 -0.4322  0.9017 -0.0032
  547MOL0     C72128   1.401  10.181   9.294  0.2650  0.0130 -0.0946
  547MOL0     C72129   1.525  10.136   9.242 -0.1855  0.4905  0.0294
  547MOL0     O72130   1.637  10.183   9.289 -0.1116  0.1872 -0.2714
  547MOL0     C72131   1.665  10.148   9.422  1.0118  0.3203 -0.6629
  547MOL0     C72132   1.796  10.228   9.461 -0.0015  0.2483 -0.1696
  547MOL0     C72133   1.926  10.173   9.398  0.2575 -0.0661  0.2168
  547MOL0     C72134   2.033  10.277   9.393  0.0499  0.1346 -0.1911
  547MOL0     C72135   2.170  10.223   9.385 -0.0333  1.2615  0.5439
  547MOL0     C72136   2.276  10.175   9.380 -0.7427  0.1366 -0.1593
  547MOL0     C72137   1.523  10.037   9.141 -0.0843  0.5339  0.5232
  547MOL0     C72138   1.396   9.987   9.098 -1.1748  0.0886 -0.0049
  547MOL0     H72139   0.926  10.016   8.910  2.0074 -1.2166  4.3052
  547MOL0     H72140   0.766   9.929   8.763  1.2627  1.6865 -1.3774
  547MOL0     H72141   0.718   9.506   8.715 -1.0990  1.4907 -0.4532
  547MOL0     H72142   0.850   9.509   8.586  0.8593 -0.3214  0.6770
  547MOL0     H72143   0.695   9.413   8.477  1.9704  1.0611 -1.2784
  547MOL0     H72144   0.677   9.576   8.424  3.1692 -0.1085 -0.1574
  547MOL0     H72145   0.465   9.604   8.554 -1.1753 -0.3199  0.6377
  547MOL0     H72146   0.512   9.470   8.655  0.3989  0.4634  0.2954
  547MOL0     H72147   0.468   9.426   8.356 -0.1762  0.1124 -0.0901
  547MOL0     H72148   0.503   9.306   8.482  3.2000  1.5239 -0.1702
  547MOL0     H72149   0.257   9.487   8.462  1.1826  0.9532  0.0101
  547MOL0     H72150   0.293   9.394   8.608  1.4103 -0.6090 -0.3176
  547MOL0     H72151   0.299   9.183   8.476 -2.8064 -2.5332 -0.7309
  547MOL0     H72152   0.226   9.267   8.340 -0.3096 -1.7776  0.0846
  547MOL0     H72153   0.035   9.181   8.468 -1.2087  1.8292 -0.3887
  547MOL0     H72154   0.129   9.202   8.622  0.6108 -1.6424 -0.4770
  547MOL0     H72155   0.015   9.434   8.456  2.2610  0.4450  0.6735
  547MOL0     H72156   0.063   9.428   8.624  2.0174 -0.5584 -0.9953
  547MOL0     H72157  -0.094   9.209   8.735 -0.5012 -1.0432 -0.7208
  547MOL0     H72158  -0.482   9.257   8.800  2.4286  2.0795  3.7308
  547MOL0     H72159  -0.350   9.152   8.848  1.0306  0.5001 -0.7321
  547MOL0     H72160  -0.531   9.005   8.783  0.7532  2.5212  2.5065
  547MOL0     H72161  -0.397   8.978   8.693 -2.3237 -3.7342 -0.0577
  547MOL0     H72162  -0.476   9.100   8.504 -1.1744  0.5925 -0.8696
  547MOL0     H72163  -0.596   8.980   8.550 -0.0825 -0.2630 -0.8986
  547MOL0     H72164  -0.729   9.199   8.511  0.6662  0.3269  0.3267
  547MOL0     H72165  -0.604   9.289   8.603  3.4889 -1.6844 -0.7323
  547MOL0     H72166  -0.902   9.335   8.809 -2.1808  1.0264 -0.8305
  547MOL0     H72167  -1.136   9.316   8.792  1.0884 -0.2727  0.1392
  547MOL0     H72168  -1.494   9.035   8.906 -0.9587 -1.1892  0.6183
  547MOL0     H72169  -1.738   8.986   8.902 -0.4796  1.4658 -0.0215
  547MOL0     H72170  -1.951   9.221   8.895  0.6471  0.0389 -0.4603
  547MOL0     H72171  -2.020   9.061   8.899 -0.6084  0.2683 -0.1383
  547MOL0     H72172  -2.205   9.216   8.843 -0.8735 -0.7452 -0.7404
  547MOL0     H72173  -2.179   9.103   8.716 -1.5744  1.2141 -0.3011
  547MOL0     H72174  -2.061   9.274   8.583  0.5793  4.0304 -1.2441
  547MOL0     H72175  -2.076   9.396   8.707 -1.2466  1.1917  1.1370
  547MOL0     H72176  -2.333   9.251   8.609 -3.5027  2.7012 -0.2476
  547MOL0     H72177  -2.308   9.396   8.708 -1.3949 -0.5517  0.6856
  547MOL0     H72178  -2.208   9.363   8.431  1.1149 -2.3727  2.3875
  547MOL0     H72179  -2.203   9.514   8.521 -0.8277  0.7843 -1.4641
  547MOL0     H72180  -2.456   9.525   8.525  0.2207 -0.7266  1.4621
  547MOL0     H72181  -2.452   9.375   8.418  0.7102 -0.7288  3.5620
  547MOL0     H72182  -2.320   9.527   8.256  1.4757  1.1367  1.2898
  547MOL0     H72183  -2.501   9.564   8.290 -1.4481 -0.2020  3.2686
  547MOL0     H72184  -2.263   9.715   8.429 -1.6960  0.7683  3.4122
  547MOL0     H72185  -2.419   9.733   8.467 -0.4120  1.6438  0.1893
  547MOL0     H72186  -1.778   9.251   8.576 -1.7622 -1.2412  1.6843
  547MOL0     H72187  -1.543   9.298   8.571  1.0354 -3.3817 -3.1024
  547MOL0     H72188  -1.095   8.945   8.574 -1.2174 -1.0603  1.5660
  547MOL0     H72189  -0.846   8.967   8.584 -0.3983 -2.0827  1.3007
  547MOL0     H72190   1.008   9.570   8.716  1.5746  0.4134  0.4252
  547MOL0     H72191   1.170   9.664   8.872  0.7727  2.1752 -2.1315
  547MOL0     H72192   1.183  10.181   9.275 -2.1008 -2.7949  0.7040
  547MOL0     H72193   1.391  10.237   9.387 -4.0702 -2.7607  1.3885
  547MOL0     H72194   1.685  10.042   9.442  0.3461  0.0826 -1.2185
  547MOL0     H72195   1.577  10.171   9.482 -0.6135 -2.5611 -1.7458
  547MOL0     H72196   1.785  10.332   9.427  3.6774  0.5279 -0.9640
  547MOL0     H72197   1.811  10.228   9.569  4.7243 -1.2348 -0.6142
  547MOL0     H72198   1.911  10.149   9.292 -0.5681  0.3707  0.2325
  547MOL0     H72199   1.953  10.085   9.458  4.9310  0.0473 -1.3162
  547MOL0     H72200   2.007  10.336   9.305  0.9860  1.2789  0.2829
  547MOL0     H72201   2.029  10.341   9.481  0.8639 -0.4620  0.2858
  547MOL0     H72202   2.374  10.133   9.376 -0.1571  1.5313 -1.3151
  547MOL0     H72203   1.611   9.988   9.100  0.8014  1.4295  1.2992
  547MOL0     H72204   1.391   9.916   9.015  0.5277  0.8475 -0.8172
  548MOL0     O72205   1.893  11.054  10.071 -0.0318 -0.3170 -0.2117
  548MOL0     C72206   1.982  11.036   9.983  1.0967  0.1958 -0.4572
  548MOL0     O72207   1.967  11.074   9.851  0.1080 -0.0639  0.6780
  548MOL0     C72208   1.851  11.122   9.785 -0.0695 -0.2115 -0.0813
  548MOL0     C72209   1.867  11.156   9.653 -0.2446 -0.0060  0.2885
  548MOL0     C72210   1.759  11.208   9.575 -0.2297 -1.4538 -0.7525
  548MOL0     C72211   1.634  11.210   9.627  0.2843 -0.0441 -0.3195
  548MOL0     O72212   1.530  11.264   9.549  0.4994  0.2774 -0.1671
  548MOL0     C72213   1.393  11.215   9.579  0.6322 -0.1592 -0.5996
  548MOL0     C72214   1.298  11.228   9.468  0.4504  0.2385  0.8719
  548MOL0     C72215   1.156  11.254   9.511  0.6635  0.0545  0.6402
  548MOL0     C72216   1.077  11.269   9.380 -0.3936 -0.4154  0.3427
  548MOL0     C72217   0.923  11.304   9.395 -0.6237 -0.5896 -1.1657
  548MOL0     C72218   0.864  11.356   9.260 -1.2007 -0.0978 -0.8520
  548MOL0     C72219   0.712  11.352   9.258  0.0369  0.9351  0.0290
  548MOL0     C72220   0.666  11.324   9.115 -0.1180  0.3458  0.0642
  548MOL0     N72221   0.524  11.357   9.086 -0.3755  0.4197  0.1679
  548MOL0     C72222   0.416  11.287   9.130 -0.8724  0.7947  0.1997
  548MOL0     C72223   0.307  11.364   9.112  0.6992 -0.2872  0.4076
  548MOL0     C72224   0.159  11.337   9.149 -0.2707 -0.0012  0.1915
  548MOL0     C72225   0.072  11.291   9.031 -0.3465 -0.4885  0.2063
  548MOL0     C72226   0.008  11.154   9.046 -0.5947  0.2541  0.4463
  548MOL0     C72227  -0.115  11.132   8.945  0.7849 -0.3189 -0.2640
  548MOL0     O72228  -0.214  11.223   8.992 -0.3230 -0.0149 -0.1421
  548MOL0     C72229  -0.339  11.211   8.941 -0.1796 -0.1701  0.6342
  548MOL0     C72230  -0.387  11.113   8.845  0.1770  0.0226  0.6091
  548MOL0     C72231  -0.521  11.109   8.805 -0.9083  0.3913 -0.2908
  548MOL0     C72232  -0.605  11.213   8.854  0.2747  0.3204  0.0862
  548MOL0     C72233  -0.747  11.214   8.827 -0.8364 -0.2702 -0.1904
  548MOL0     O72234  -0.818  11.330   8.846 -0.0055  0.6578  0.0528
  548MOL0     C72235  -0.944  11.326   8.818 -0.1194  0.5401 -0.2248
  548MOL0     C72236  -0.982  11.413   8.724 -0.2504  0.2620  0.2905
  548MOL0     C72237  -1.112  11.394   8.663 -0.6434  0.4015  0.0532
  548MOL0     C72238  -1.205  11.311   8.729 -0.3924  0.0730  0.0599
  548MOL0     O72239  -1.338  11.297   8.701  0.0579  0.1000 -0.3692
  548MOL0     C72240  -1.408  11.388   8.612 -0.2156 -0.9810 -0.6609
  548MOL0     C72241  -1.434  11.521   8.678 -0.1549 -0.0800  0.4540
  548MOL0     C72242  -1.550  11.511   8.777  0.5536 -0.1159 -0.3407
  548MOL0     C72243  -1.569  11.647   8.846 -0.0249 -0.8533  0.4320
  548MOL0     C72244  -1.651  11.633   8.970  0.2953  0.3974 -0.8673
  548MOL0     C72245  -1.685  11.779   9.020  0.2355 -0.2597 -0.4629
  548MOL0     C72246  -1.784  11.768   9.141 -0.1771  0.2666 -0.4558
  548MOL0     C72247  -1.834  11.909   9.188  0.1135  0.2579  0.2298
  548MOL0    Cl72248  -1.706  12.034   9.205 -0.4244 -0.1907  0.0278
  548MOL0     C72249  -1.170  11.238   8.843 -0.4317 -0.2709  0.0153
  548MOL0     C72250  -1.037  11.243   8.885 -0.0952 -1.5426 -1.5076
  548MOL0     O72251  -0.799  11.108   8.791  0.9755 -0.0496 -0.2791
  548MOL0     C72252  -0.560  11.302   8.947  0.7804 -0.8464  0.6936
  548MOL0     C72253  -0.431  11.298   8.985 -0.0051 -0.6910 -0.8239
  548MOL0     N72254   0.354  11.484   9.068 -0.6080 -0.2158  0.3233
  548MOL0     N72255   0.480  11.482   9.061 -0.5766 -0.0525  0.5593
  548MOL0     C72256   1.613  11.174   9.763  0.4497  0.3963  0.1883
  548MOL0     C72257   1.718  11.126   9.837 -0.2886  1.1931 -0.3711
  548MOL0     C72258   2.120  11.000  10.016  0.3994 -0.2473  0.4091
  548MOL0     C72259   2.203  11.060  10.104  0.3132  0.3856  0.2025
  548MOL0     C72260   2.340  11.020  10.121 -0.2480  0.4488  0.7001
  548MOL0     C72261   2.389  10.897  10.065  0.4715 -0.0684  0.1055
  548MOL0     O72262   2.510  10.839  10.077 -1.1017  0.0628  0.7118
  548MOL0     C72263   2.600  10.878  10.178  0.3098 -0.6233 -0.2833
  548MOL0     C72264   2.673  11.006  10.150  0.3379 -0.4618 -0.5723
  548MOL0     C72265   2.768  11.012  10.030  0.2457  0.0791 -0.3465
  548MOL0     C72266   2.871  11.122  10.037 -0.3972  1.2294 -0.0983
  548MOL0     C72267   2.809  11.253   9.994  0.2570  0.3160 -0.8186
  548MOL0     C72268   2.765  11.359   9.964 -0.7707  0.0254  0.8119
  548MOL0     C72269   2.303  10.836   9.979  0.0516 -0.0488 -0.4646
  548MOL0     C72270   2.169  10.889   9.959 -0.1411  1.3283 -0.1682
  548MOL0     H72271   1.964  11.144   9.607  0.0523 -0.0935  0.9261
  548MOL0     H72272   1.782  11.237   9.473  5.8227 -2.1098  0.0477
  548MOL0     H72273   1.361  11.280   9.661  1.4213 -1.0621  0.4519
  548MOL0     H72274   1.397  11.111   9.611  1.3791  0.0468  0.0211
  548MOL0     H72275   1.294  11.138   9.406  1.5567  0.9118 -0.2228
  548MOL0     H72276   1.342  11.307   9.407 -3.2618  1.4336 -0.5308
  548MOL0     H72277   1.143  11.341   9.576 -0.8508 -0.9597  1.7560
  548MOL0     H72278   1.116  11.172   9.571  0.1646  1.5103  2.3940
  548MOL0     H72279   1.122  11.359   9.336  2.0717 -1.2618  0.9884
  548MOL0     H72280   1.078  11.180   9.317 -1.8830 -0.8834  0.9299
  548MOL0     H72281   0.901  11.373   9.477 -1.4215  0.2724 -2.0799
  548MOL0     H72282   0.874  11.208   9.414  0.2325 -0.8185 -0.0239
  548MOL0     H72283   0.897  11.295   9.175 -0.6923  1.9345 -2.2048
  548MOL0     H72284   0.914  11.453   9.245 -0.4062 -0.5845 -1.4326
  548MOL0     H72285   0.675  11.268   9.318 -0.8207  0.0185 -1.7054
  548MOL0     H72286   0.670  11.446   9.293  3.4073  2.9094 -0.7710
  548MOL0     H72287   0.662  11.217   9.088  0.2728 -0.0541  1.5304
  548MOL0     H72288   0.737  11.372   9.047 -0.2666  2.5670  1.3861
  548MOL0     H72289   0.411  11.185   9.168 -0.7028  1.7790  3.1438
  548MOL0     H72290   0.116  11.432   9.181 -0.1062 -0.0453  0.5470
  548MOL0     H72291   0.152  11.272   9.237  1.6933  1.7739  1.7597
  548MOL0     H72292   0.132  11.275   8.941 -0.6829 -2.8273  0.3374
  548MOL0     H72293  -0.002  11.368   9.010  0.8498  0.8041  0.6038
  548MOL0     H72294   0.078  11.070   9.038 -1.4135 -0.5206  1.2082
  548MOL0     H72295  -0.031  11.146   9.147  1.1116  0.4846  1.1639
  548MOL0     H72296  -0.157  11.031   8.947 -2.1872  0.8332  1.2120
  548MOL0     H72297  -0.077  11.152   8.844  1.7188  1.5753  0.4181
  548MOL0     H72298  -0.323  11.031   8.813 -1.7053 -0.3632 -2.6162
  548MOL0     H72299  -0.553  11.028   8.739 -0.5140 -0.6568  0.7578
  548MOL0     H72300  -0.914  11.483   8.675  0.6584 -0.4164  0.5556
  548MOL0     H72301  -1.138  11.454   8.576 -1.0007 -0.0212 -0.1391
  548MOL0     H72302  -1.509  11.347   8.598 -1.1587  0.7661  0.6138
  548MOL0     H72303  -1.365  11.411   8.514 -1.5579 -2.0436 -1.5563
  548MOL0     H72304  -1.464  11.597   8.606 -0.7848  0.3462  1.1517
  548MOL0     H72305  -1.341  11.555   8.727  0.0630 -0.6333  0.4277
  548MOL0     H72306  -1.542  11.424   8.843 -0.8468 -0.5555 -0.7195
  548MOL0     H72307  -1.642  11.498   8.720 -0.1251 -0.2279  0.7618
  548MOL0     H72308  -1.465  11.670   8.870  0.8648 -0.0660 -3.4004
  548MOL0     H72309  -1.621  11.719   8.781 -0.1981  0.1117  1.6158
  548MOL0     H72310  -1.603  11.579   9.052  1.2039 -1.5051 -2.5752
  548MOL0     H72311  -1.740  11.578   8.941  2.0232 -1.5080 -2.9049
  548MOL0     H72312  -1.732  11.839   8.942  1.4754  2.1614  0.5129
  548MOL0     H72313  -1.587  11.824   9.039 -0.1549  0.0346  0.9530
  548MOL0     H72314  -1.876  11.713   9.118  0.8347 -1.2746 -1.0053
  548MOL0     H72315  -1.729  11.715   9.219  2.0618  2.1191 -0.6513
  548MOL0     H72316  -1.880  11.889   9.286 -1.0437  1.1089 -0.1169
  548MOL0     H72317  -1.916  11.934   9.121 -0.4117  1.0110  1.1310
  548MOL0     H72318  -1.234  11.177   8.906  0.6373 -0.1183  1.2835
  548MOL0     H72319  -1.002  11.183   8.968  4.2546  1.2881 -0.9307
  548MOL0     H72320  -0.625  11.376   8.994 -0.7091 -1.3082 -0.5677
  548MOL0     H72321  -0.395  11.368   9.061 -2.5133 -0.0125 -0.1789
  548MOL0     H72322   1.520  11.179   9.818  1.3360 -0.8758  1.8958
  548MOL0     H72323   1.683  11.084   9.930 -0.9356 -1.7552 -1.8449
  548MOL0     H72324   2.173  11.152  10.154 -0.1899  0.8433 -0.9037
  548MOL0     H72325   2.410  11.078  10.179  1.7959  1.3688 -2.4485
  548MOL0     H72326   2.681  10.807  10.195  0.2829 -0.3890  0.8985
  548MOL0     H72327   2.552  10.882  10.276  4.6322  0.9908  2.0587
  548MOL0     H72328   2.613  11.097  10.138  0.9492 -0.3591 -3.5906
  548MOL0     H72329   2.734  11.036  10.236  0.1671  2.5645 -1.3875
  548MOL0     H72330   2.702  11.019   9.943 -0.9238 -0.5493  0.4480
  548MOL0     H72331   2.828  10.921  10.036  1.8644  1.0776 -0.8267
  548MOL0     H72332   2.899  11.132  10.143 -1.8075 -2.4871  0.8200
  548MOL0     H72333   2.956  11.102   9.972 -0.0580  1.6381  0.2169
  548MOL0     H72334   2.713  11.449   9.941 -3.8347 -1.3255  1.9598
  548MOL0     H72335   2.328  10.739   9.937  1.5945  0.1375 -0.0523
  548MOL0     H72336   2.107  10.829   9.893  0.4924 -0.3871  0.7318
  549MOL0     O72337   0.752   5.335   5.005 -0.4625 -0.4123 -0.2163
  549MOL0     C72338   0.807   5.239   4.948 -0.5587  0.3858 -0.7054
  549MOL0     O72339   0.773   5.186   4.829  0.1315 -0.3496  0.0953
  549MOL0     C72340   0.663   5.239   4.765  0.0046 -0.0742 -0.6628
  549MOL0     C72341   0.537   5.241   4.830  0.5915 -0.5917  0.5556
  549MOL0     C72342   0.424   5.283   4.765 -0.4053 -0.3870  0.8421
  549MOL0     C72343   0.435   5.324   4.633  0.5167  0.0199  0.0060
  549MOL0     O72344   0.330   5.375   4.556  0.2622  0.4528 -0.4794
  549MOL0     C72345   0.226   5.457   4.617 -0.1679  0.0100  0.2879
  549MOL0     C72346   0.154   5.532   4.498 -0.8738  0.1932 -1.0129
  549MOL0     C72347   0.078   5.441   4.414  0.8620 -0.5611  0.2911
  549MOL0     C72348  -0.012   5.512   4.313 -0.9495  0.6248  1.1840
  549MOL0     C72349  -0.162   5.484   4.337 -0.0258  0.1106  1.3032
  549MOL0     C72350  -0.226   5.596   4.424 -0.6627 -0.5810 -0.1977
  549MOL0     C72351  -0.380   5.600   4.391 -0.5698  0.7974 -0.1593
  549MOL0     C72352  -0.455   5.683   4.501 -0.3090 -0.4155 -0.9989
  549MOL0     N72353  -0.598   5.713   4.486 -0.2537 -0.7851  0.3968
  549MOL0     C72354  -0.689   5.612   4.459  0.5675  0.8289 -0.1425
  549MOL0     C72355  -0.806   5.678   4.432 -0.1782 -0.1846 -1.3009
  549MOL0     C72356  -0.927   5.617   4.380 -0.2895  0.0528 -0.4015
  549MOL0     C72357  -0.981   5.516   4.482 -0.0283 -0.5616  0.2406
  549MOL0     C72358  -1.099   5.444   4.421 -0.2177  0.1268  0.0840
  549MOL0     C72359  -1.140   5.328   4.513 -0.4325  0.0497  0.3959
  549MOL0     O72360  -1.262   5.264   4.462  1.0140  0.7013  0.4006
  549MOL0     C72361  -1.376   5.292   4.536  0.5329 -0.4268 -0.3148
  549MOL0     C72362  -1.416   5.405   4.598 -0.2688 -0.0086 -0.8174
  549MOL0     C72363  -1.532   5.407   4.680  0.4619  0.0605  0.5621
  549MOL0     C72364  -1.619   5.294   4.669 -1.1053  0.4472 -0.1678
  549MOL0     C72365  -1.754   5.295   4.722  0.1345 -0.1079 -0.5574
  549MOL0     O72366  -1.827   5.181   4.695  0.1134 -0.9252 -0.3993
  549MOL0     C72367  -1.965   5.178   4.723 -0.7721 -0.8030 -0.8223
  549MOL0     C72368  -2.065   5.190   4.624 -0.6652 -0.2119 -0.4253
  549MOL0     C72369  -2.194   5.143   4.640  1.3447 -0.0587 -0.1474
  549MOL0     C72370  -2.244   5.109   4.764 -0.6649 -0.3519 -0.2368
  549MOL0     O72371  -2.369   5.062   4.788 -0.2158 -0.2092  0.1975
  549MOL0     C72372  -2.472   5.072   4.693  0.2282  0.5285 -0.7270
  549MOL0     C72373  -2.607   5.028   4.746  0.2492  0.4880 -0.4851
  549MOL0     C72374  -2.671   5.109   4.856  0.3805 -0.3762 -0.1953
  549MOL0     C72375  -2.784   5.033   4.920 -0.7690  0.6638 -0.2257
  549MOL0     C72376  -2.851   5.105   5.035 -0.1338 -0.5164  0.0336
  549MOL0     C72377  -2.982   5.034   5.088  0.2916 -0.0311 -0.1911
  549MOL0     C72378  -3.093   5.041   4.980  0.4645  0.3072 -0.0463
  549MOL0     C72379  -3.224   4.980   5.032  0.6670 -0.0896 -0.1888
  549MOL0    Cl72380  -3.233   4.813   5.076  0.2350  0.4476 -0.2468
  549MOL0     C72381  -2.155   5.122   4.870 -0.6913  1.1892 -0.1339
  549MOL0     C72382  -2.013   5.149   4.855  0.8689 -0.1287  0.3579
  549MOL0     O72383  -1.796   5.401   4.768 -0.5610 -0.3824 -0.3225
  549MOL0     C72384  -1.577   5.174   4.616 -0.0769  0.0409  0.1666
  549MOL0     C72385  -1.449   5.174   4.555 -0.3956 -0.0630 -0.6225
  549MOL0     N72386  -0.774   5.814   4.432  0.6417  0.3276 -0.0494
  549MOL0     N72387  -0.657   5.837   4.477 -0.2996  0.3648  0.1036
  549MOL0     C72388   0.551   5.298   4.566 -0.1163 -0.4134  0.2669
  549MOL0     C72389   0.661   5.257   4.624 -0.0242  0.6595 -0.3358
  549MOL0     C72390   0.929   5.184   5.004  0.1823 -0.8407  1.1320
  549MOL0     C72391   0.991   5.069   4.958  0.0433  0.6673 -0.4916
  549MOL0     C72392   1.111   5.019   5.016  0.7928 -0.2811  0.4971
  549MOL0     C72393   1.173   5.088   5.116  0.0396  0.8731 -0.8335
  549MOL0     O72394   1.286   5.031   5.193  0.4263  0.0608  0.0653
  549MOL0     C72395   1.302   4.886   5.195 -0.6694 -0.0543  0.3468
  549MOL0     C72396   1.411   4.845   5.294  0.5250 -0.0425 -0.4362
  549MOL0     C72397   1.540   4.872   5.223  0.1568 -0.3875 -0.0434
  549MOL0     C72398   1.664   4.869   5.311 -0.3103  0.0860  0.6945
  549MOL0     C72399   1.723   4.732   5.327 -0.1363  0.4147  0.0694
  549MOL0     C72400   1.766   4.622   5.355  0.3476  0.2393  0.3905
  549MOL0     C72401   1.139   5.216   5.138  0.2708  0.0112 -1.1631
  549MOL0     C72402   1.014   5.256   5.092 -0.4137  0.4136 -0.2797
  549MOL0     H72403   0.535   5.214   4.935  0.2734 -1.4830  0.3291
  549MOL0     H72404   0.324   5.288   4.806 -0.5917  4.6568  0.3911
  549MOL0     H72405   0.274   5.532   4.679 -1.1981  0.3765  0.6602
  549MOL0     H72406   0.162   5.385   4.670 -0.0339 -0.7484 -0.5457
  549MOL0     H72407   0.231   5.577   4.434 -0.0744 -1.4373 -1.2501
  549MOL0     H72408   0.088   5.609   4.537  1.1000  1.7020 -0.5068
  549MOL0     H72409   0.031   5.360   4.470 -0.3962  0.0077  0.0893
  549MOL0     H72410   0.153   5.388   4.354 -0.6567  0.3279 -2.5922
  549MOL0     H72411   0.006   5.618   4.295 -0.3739  0.4689  0.8247
  549MOL0     H72412   0.009   5.474   4.213 -1.2574 -1.3261  1.8063
  549MOL0     H72413  -0.169   5.389   4.391 -2.1733  0.7742  2.2758
  549MOL0     H72414  -0.220   5.487   4.245  0.6156  2.7229  0.8919
  549MOL0     H72415  -0.194   5.698   4.401 -1.9596 -0.2144 -0.4474
  549MOL0     H72416  -0.200   5.581   4.530 -0.9038  0.8907  0.0869
  549MOL0     H72417  -0.402   5.627   4.288 -3.0210 -1.3527 -0.3052
  549MOL0     H72418  -0.410   5.496   4.407 -0.8067  0.7702 -0.7546
  549MOL0     H72419  -0.406   5.781   4.503 -0.8985 -0.0980  1.6768
  549MOL0     H72420  -0.451   5.630   4.597 -0.7261 -0.1270 -0.8225
  549MOL0     H72421  -0.670   5.505   4.462 -0.8908  0.5729  0.8521
  549MOL0     H72422  -0.888   5.573   4.288 -1.2248 -1.8131  0.0480
  549MOL0     H72423  -1.001   5.696   4.364  0.5786  0.8114 -0.7317
  549MOL0     H72424  -1.013   5.565   4.574  0.7021 -2.7571  1.7439
  549MOL0     H72425  -0.901   5.446   4.509  1.1405 -1.0060 -3.7179
  549MOL0     H72426  -1.183   5.514   4.408  2.1649  3.1403 -0.1631
  549MOL0     H72427  -1.069   5.422   4.318  0.1767  0.2307  0.1759
  549MOL0     H72428  -1.159   5.349   4.618 -1.1901 -1.0749  0.4998
  549MOL0     H72429  -1.067   5.248   4.502  0.9176  0.7944  3.2159
  549MOL0     H72430  -1.351   5.492   4.596  0.3665 -0.3908  1.1754
  549MOL0     H72431  -1.570   5.488   4.742 -1.8053 -1.5460  1.3620
  549MOL0     H72432  -2.038   5.226   4.525 -2.3244  1.6077 -0.2769
  549MOL0     H72433  -2.268   5.156   4.562  1.1784  0.9175  0.1587
  549MOL0     H72434  -2.452   5.017   4.600 -0.8216 -0.0535 -0.6243
  549MOL0     H72435  -2.479   5.179   4.670 -0.5836  0.3968 -1.1215
  549MOL0     H72436  -2.593   4.923   4.774  0.2339  1.0651  1.8724
  549MOL0     H72437  -2.679   5.019   4.664 -1.9092  1.8912  1.1707
  549MOL0     H72438  -2.720   5.193   4.806 -2.5121 -1.7245  0.1658
  549MOL0     H72439  -2.602   5.154   4.928  0.8831 -1.8900  0.3001
  549MOL0     H72440  -2.851   4.994   4.843 -1.7086 -1.3475  1.5036
  549MOL0     H72441  -2.750   4.939   4.965  2.4432  0.8829 -1.9102
  549MOL0     H72442  -2.876   5.208   5.007 -1.4333 -0.5005  1.1343
  549MOL0     H72443  -2.785   5.117   5.121  0.7348  0.7961 -0.7710
  549MOL0     H72444  -3.011   5.085   5.181 -2.2165  2.5046 -2.1984
  549MOL0     H72445  -2.964   4.930   5.117 -2.3542  0.2274  2.9550
  549MOL0     H72446  -3.113   5.142   4.942 -2.8170  0.2134  1.0960
  549MOL0     H72447  -3.069   4.995   4.884 -1.7806  0.7609 -0.8833
  549MOL0     H72448  -3.309   4.998   4.965  0.7860 -0.9504 -0.5925
  549MOL0     H72449  -3.236   5.031   5.127  2.2276 -0.2162  0.1035
  549MOL0     H72450  -2.198   5.128   4.970 -2.5884  1.3715 -0.9065
  549MOL0     H72451  -1.945   5.153   4.939  0.0570 -1.5163  1.1143
  549MOL0     H72452  -1.635   5.082   4.608 -4.0025  2.2686  0.1073
  549MOL0     H72453  -1.420   5.074   4.523 -1.8273 -2.7126  5.1048
  549MOL0     H72454   0.555   5.306   4.458  1.9518 -0.5117  0.2912
  549MOL0     H72455   0.744   5.231   4.559  1.5647  0.4647  1.6530
  549MOL0     H72456   0.947   5.026   4.869 -0.6172  1.8266 -0.7458
  549MOL0     H72457   1.157   4.936   4.963  1.3544 -0.1385  0.7632
  549MOL0     H72458   1.322   4.851   5.093 -1.5978  0.5248 -0.0480
  549MOL0     H72459   1.207   4.842   5.226 -0.5808  0.6434  1.6768
  549MOL0     H72460   1.398   4.905   5.384 -2.3780 -2.2777  0.7848
  549MOL0     H72461   1.387   4.742   5.325 -1.4391  0.7814  0.9716
  549MOL0     H72462   1.547   4.976   5.191 -0.8086 -0.4565 -0.5266
  549MOL0     H72463   1.552   4.797   5.144  1.3525 -1.6585  1.3009
  549MOL0     H72464   1.741   4.935   5.271 -1.4887  0.4700 -1.0505
  549MOL0     H72465   1.637   4.904   5.411 -1.6489  3.6080 -0.7570
  549MOL0     H72466   1.813   4.526   5.361  2.3615  1.1755  0.6403
  549MOL0     H72467   1.193   5.279   5.207 -1.6053 -0.1393  0.5357
  549MOL0     H72468   0.989   5.359   5.117 -0.8623  0.2388  0.0021
  550MOL0     O72469   6.499   3.377   1.311 -0.0108 -0.0665  1.1330
  550MOL0     C72470   6.528   3.404   1.195  0.0277  0.2691  0.7915
  550MOL0     O72471   6.435   3.424   1.099 -0.2412 -0.4253  0.0016
  550MOL0     C72472   6.298   3.398   1.136 -0.0874 -0.1499 -0.2458
  550MOL0     C72473   6.248   3.271   1.168  0.2386  0.8819 -0.3497
  550MOL0     C72474   6.117   3.246   1.193  0.6354  0.3699  0.5940
  550MOL0     C72475   6.024   3.351   1.178 -0.4056 -0.2290 -0.1811
  550MOL0     O72476   5.891   3.321   1.201  0.2509  0.4158  0.4191
  550MOL0     C72477   5.790   3.418   1.188 -0.0600  0.3216  0.2928
  550MOL0     C72478   5.650   3.358   1.188 -0.4351 -0.1056  0.3679
  550MOL0     C72479   5.597   3.289   1.318  0.1496  0.4969 -0.6757
  550MOL0     C72480   5.472   3.206   1.292 -0.0730 -1.1072 -0.9792
  550MOL0     C72481   5.355   3.312   1.308 -0.5065  0.5595 -0.0570
  550MOL0     C72482   5.224   3.254   1.263 -0.5393  0.0591 -1.6049
  550MOL0     C72483   5.101   3.345   1.272 -0.0411 -1.6705 -0.8494
  550MOL0     C72484   4.971   3.268   1.247  0.2377 -1.0394  0.1420
  550MOL0     N72485   4.951   3.219   1.115  0.0937  0.4946  0.3066
  550MOL0     C72486   4.892   3.104   1.069  0.5055  0.5200 -0.7305
  550MOL0     C72487   4.900   3.118   0.936  1.1984  0.0305 -0.1820
  550MOL0     C72488   4.823   3.025   0.844  0.3194  0.4081 -0.5113
  550MOL0     C72489   4.858   2.878   0.880 -0.5746 -0.7979  0.6941
  550MOL0     C72490   4.786   2.793   0.775 -0.7858  1.1846 -0.5856
  550MOL0     C72491   4.816   2.650   0.796  0.5610 -0.3804  0.0603
  550MOL0     O72492   4.734   2.586   0.904 -0.0850 -0.4613  0.2202
  550MOL0     C72493   4.597   2.574   0.897  0.9109 -0.2556 -0.1869
  550MOL0     C72494   4.524   2.555   0.775 -0.8657  0.2054  0.0413
  550MOL0     C72495   4.387   2.535   0.776  0.1725 -0.2223  0.8364
  550MOL0     C72496   4.322   2.514   0.900 -0.4127 -0.3663 -0.1934
  550MOL0     C72497   4.175   2.486   0.896  0.0093 -0.2952 -0.0984
  550MOL0     O72498   4.115   2.490   0.776 -0.4382  0.2726  0.1038
  550MOL0     C72499   3.982   2.513   0.756  0.1776  0.3871  0.3514
  550MOL0     C72500   3.947   2.622   0.666 -0.8614  0.3914  0.1008
  550MOL0     C72501   3.827   2.641   0.617 -0.2172 -0.1021  0.1830
  550MOL0     C72502   3.721   2.554   0.654  0.1423 -0.3198  0.1644
  550MOL0     O72503   3.590   2.599   0.612 -0.3393  0.5741 -0.3750
  550MOL0     C72504   3.478   2.520   0.661 -0.5259 -0.1616  0.2365
  550MOL0     C72505   3.351   2.572   0.604  1.7027  0.5951  0.8322
  550MOL0     C72506   3.240   2.535   0.702 -0.3404 -1.5493 -0.2799
  550MOL0     C72507   3.102   2.561   0.627  0.1947  0.4324  0.8065
  550MOL0     C72508   3.075   2.453   0.517  0.1683 -0.3589 -0.3008
  550MOL0     C72509   2.932   2.441   0.489 -0.4753  0.0729  0.0581
  550MOL0     C72510   2.848   2.567   0.474  0.5082 -0.0887 -0.9443
  550MOL0     C72511   2.891   2.676   0.368  1.0358 -0.5214 -0.0144
  550MOL0    Cl72512   2.895   2.602   0.200 -0.3544  0.3507  0.1099
  550MOL0     C72513   3.756   2.445   0.739  0.9108  0.4690 -0.0304
  550MOL0     C72514   3.885   2.421   0.788 -0.1280  0.0400 -0.6227
  550MOL0     O72515   4.118   2.470   1.002  0.6132 -0.3087 -0.7172
  550MOL0     C72516   4.388   2.534   1.019 -0.2031  0.1930  0.1071
  550MOL0     C72517   4.525   2.562   1.012  0.4515  0.1676 -0.4634
  550MOL0     N72518   4.954   3.235   0.903  1.0286 -0.4788 -0.3074
  550MOL0     N72519   4.984   3.299   1.011  0.1621 -0.2354 -0.2604
  550MOL0     C72520   6.068   3.485   1.156  0.2029  0.0947  0.0094
  550MOL0     C72521   6.203   3.496   1.125  0.3590 -0.2570 -0.4574
  550MOL0     C72522   6.670   3.405   1.150 -0.6375  0.8738 -0.0095
  550MOL0     C72523   6.772   3.428   1.241  0.0206  0.1526 -0.2177
  550MOL0     C72524   6.909   3.428   1.201 -0.1975 -0.4107  0.3533
  550MOL0     C72525   6.950   3.417   1.072 -0.0745 -0.5775  0.4526
  550MOL0     O72526   7.081   3.425   1.055  0.2745 -0.3119 -0.2390
  550MOL0     C72527   7.144   3.395   0.932  0.2354  0.4873  0.3676
  550MOL0     C72528   7.289   3.376   0.974 -0.0403 -1.1889  0.0164
  550MOL0     C72529   7.362   3.511   1.009 -0.2315 -0.3989 -1.0163
  550MOL0     C72530   7.509   3.471   1.035  0.4310  1.5895 -0.5254
  550MOL0     C72531   7.594   3.581   1.070  0.8238 -0.2255 -0.6333
  550MOL0     C72532   7.662   3.672   1.110 -0.4239 -0.1778  0.8604
  550MOL0     C72533   6.842   3.403   0.975  0.3186  0.1875  0.0221
  550MOL0     C72534   6.707   3.392   1.018 -0.4783 -0.6008  0.1075
  550MOL0     H72535   6.321   3.191   1.170 -0.2579  0.3905 -1.1834
  550MOL0     H72536   6.089   3.142   1.206  1.8474  0.0518  0.7778
  550MOL0     H72537   5.803   3.475   1.095  2.4457  0.6746  0.7899
  550MOL0     H72538   5.812   3.493   1.264  2.6039  0.9071 -0.9511
  550MOL0     H72539   5.645   3.281   1.109 -1.2501  1.0719 -0.7760
  550MOL0     H72540   5.582   3.439   1.160 -2.2178 -1.8853 -0.7306
  550MOL0     H72541   5.601   3.355   1.405  0.8211 -0.8662  0.3626
  550MOL0     H72542   5.666   3.211   1.349  1.5192  3.0962  3.7037
  550MOL0     H72543   5.468   3.172   1.188 -3.5381 -1.2489 -0.9064
  550MOL0     H72544   5.453   3.125   1.363 -2.3975  1.0832  1.1055
  550MOL0     H72545   5.385   3.394   1.242  3.5792  0.1399  1.0097
  550MOL0     H72546   5.345   3.349   1.410  2.6395 -0.3048  0.6505
  550MOL0     H72547   5.211   3.170   1.332 -3.4599  1.9135  0.3019
  550MOL0     H72548   5.233   3.222   1.159 -2.1237  3.5315 -2.9679
  550MOL0     H72549   5.088   3.389   1.371  0.6612  0.5640 -1.6865
  550MOL0     H72550   5.115   3.429   1.203  2.3078 -0.3197  1.0911
  550MOL0     H72551   4.880   3.326   1.262  0.4107 -0.4156 -1.1028
  550MOL0     H72552   4.982   3.177   1.307 -1.1556 -0.5453  1.1921
  550MOL0     H72553   4.838   3.027   1.123  0.3463  1.2811  0.2245
  550MOL0     H72554   4.849   3.040   0.739  1.5293 -1.3393 -0.5167
  550MOL0     H72555   4.717   3.041   0.862  0.1020  0.4660 -1.7434
  550MOL0     H72556   4.824   2.851   0.981 -1.2250 -0.6982  0.5068
  550MOL0     H72557   4.965   2.861   0.872 -0.3094  1.0756 -0.3041
  550MOL0     H72558   4.679   2.815   0.774 -0.9086  0.6181 -1.8796
  550MOL0     H72559   4.823   2.809   0.673 -0.7493 -3.3979 -1.5019
  550MOL0     H72560   4.921   2.626   0.814  0.5436  0.3109  1.2000
  550MOL0     H72561   4.795   2.605   0.699 -2.2789 -0.6127  0.6831
  550MOL0     H72562   4.571   2.555   0.677 -0.3071 -2.6616  0.2236
  550MOL0     H72563   4.341   2.531   0.677  0.7693 -0.2409  0.5583
  550MOL0     H72564   4.027   2.692   0.642  1.4138 -1.4320  1.8043
  550MOL0     H72565   3.798   2.723   0.551 -1.3127  0.2156  1.0272
  550MOL0     H72566   3.475   2.517   0.771  1.6040  0.0078  0.3375
  550MOL0     H72567   3.502   2.418   0.630 -0.0498 -0.9525  2.9581
  550MOL0     H72568   3.333   2.538   0.502 -1.3554 -2.8524  2.2846
  550MOL0     H72569   3.352   2.682   0.607 -1.3627  0.8796 -2.3058
  550MOL0     H72570   3.246   2.610   0.781 -0.3434  1.3622 -2.8364
  550MOL0     H72571   3.247   2.438   0.751 -2.6127 -1.9232 -0.5686
  550MOL0     H72572   3.021   2.560   0.700 -0.0039  4.0021  0.7766
  550MOL0     H72573   3.103   2.660   0.580  0.9523 -0.5193 -1.3328
  550MOL0     H72574   3.118   2.354   0.537  0.7961 -0.3978 -1.6809
  550MOL0     H72575   3.130   2.493   0.431  1.5587  0.2299  0.8094
  550MOL0     H72576   2.888   2.376   0.565 -3.2803  1.0546 -0.5930
  550MOL0     H72577   2.916   2.381   0.399 -0.0496 -1.6136  1.0856
  550MOL0     H72578   2.747   2.525   0.464 -0.4706  1.9763 -0.2962
  550MOL0     H72579   2.825   2.604   0.574 -2.3366  0.7733 -1.8380
  550MOL0     H72580   2.984   2.731   0.387 -1.0227  2.2273  3.1453
  550MOL0     H72581   2.817   2.756   0.369  0.4325 -0.9956  2.9773
  550MOL0     H72582   3.684   2.371   0.775  0.5037  1.7283  1.8918
  550MOL0     H72583   3.905   2.338   0.855  0.0248  2.2592  2.2835
  550MOL0     H72584   4.335   2.519   1.113  1.8900 -0.1160  1.3270
  550MOL0     H72585   4.580   2.567   1.105 -0.2625 -2.8547  0.2289
  550MOL0     H72586   6.003   3.572   1.158 -0.3833 -0.3484  1.6091
  550MOL0     H72587   6.233   3.595   1.093  1.4804 -0.8011 -1.1653
  550MOL0     H72588   6.740   3.447   1.343 -1.8779  5.7411 -1.4980
  550MOL0     H72589   6.984   3.436   1.279 -1.2543  1.1629  1.2723
  550MOL0     H72590   7.139   3.480   0.864  1.4339  0.5260  0.2965
  550MOL0     H72591   7.106   3.302   0.889 -0.1795  0.3090  1.1034
  550MOL0     H72592   7.294   3.294   1.045 -1.0686 -0.9297  0.4016
  550MOL0     H72593   7.340   3.332   0.887 -0.1102  0.7548 -1.0711
  550MOL0     H72594   7.315   3.543   1.103 -1.5141 -1.2754 -1.3267
  550MOL0     H72595   7.368   3.591   0.935  0.1544 -0.1723 -0.7462
  550MOL0     H72596   7.514   3.393   1.111 -1.3260  2.1240  0.1888
  550MOL0     H72597   7.543   3.433   0.938  1.7451 -0.1359  0.5485
  550MOL0     H72598   7.722   3.756   1.138 -0.3761  0.3932 -0.8782
  550MOL0     H72599   6.867   3.379   0.872 -0.7589 -0.1692 -0.1654
  550MOL0     H72600   6.639   3.379   0.934  0.8011  0.8637 -1.2315
  551MOL0     O72601   8.590   2.290   9.913  0.6699  0.8730  0.0986
  551MOL0     C72602   8.646   2.317   9.805 -0.0622 -0.5757  0.1984
  551MOL0     O72603   8.583   2.312   9.677 -0.6550  0.4448  0.7121
  551MOL0     C72604   8.462   2.262   9.663 -0.0526 -0.1472 -0.1189
  551MOL0     C72605   8.439   2.126   9.680 -0.1123  0.4144 -0.2544
  551MOL0     C72606   8.317   2.073   9.654  0.9490  0.6037  0.5861
  551MOL0     C72607   8.214   2.148   9.591  0.1890  0.5419 -0.2787
  551MOL0     O72608   8.094   2.080   9.558  0.0396  0.1845 -0.0636
  551MOL0     C72609   7.991   2.140   9.473  0.6763  0.1340 -0.2582
  551MOL0     C72610   7.878   2.048   9.504  0.1075 -0.4256 -0.5674
  551MOL0     C72611   7.739   2.110   9.466 -1.5554 -0.2663  0.7204
  551MOL0     C72612   7.628   2.020   9.516  0.8415 -0.0200 -0.5581
  551MOL0     C72613   7.497   2.091   9.493  0.4161  0.2719  0.8429
  551MOL0     C72614   7.374   2.020   9.554  0.4211  0.3009 -0.2520
  551MOL0     C72615   7.249   2.048   9.476  0.1700  0.2456 -0.2428
  551MOL0     C72616   7.191   2.176   9.528 -0.1675  0.3543  0.0585
  551MOL0     N72617   7.057   2.186   9.469 -0.1133 -0.1902 -0.9734
  551MOL0     C72618   6.941   2.125   9.515  0.1448  0.4417  0.3055
  551MOL0     C72619   6.842   2.165   9.417 -1.1327 -0.7127 -0.1966
  551MOL0     C72620   6.697   2.110   9.425  0.0542  0.1642 -0.7313
  551MOL0     C72621   6.612   2.206   9.503 -0.3743 -0.1469 -0.1905
  551MOL0     C72622   6.569   2.331   9.409 -0.1450 -0.1812  0.0197
  551MOL0     C72623   6.446   2.406   9.466  0.4036 -0.3312 -0.4787
  551MOL0     O72624   6.474   2.471   9.592 -0.4846 -0.3279 -0.5838
  551MOL0     C72625   6.373   2.551   9.650  0.7330 -0.7655  0.0613
  551MOL0     C72626   6.237   2.571   9.613  0.3498  0.8880 -0.4157
  551MOL0     C72627   6.152   2.656   9.683  0.3728 -0.0439 -0.3121
  551MOL0     C72628   6.201   2.733   9.790 -0.2665 -0.3457 -0.3772
  551MOL0     C72629   6.108   2.816   9.878 -0.6171 -0.2588  0.7207
  551MOL0     O72630   6.008   2.898   9.822 -0.4370  0.1923  0.6105
  551MOL0     C72631   5.920   2.968   9.900 -0.3610 -0.5657 -0.0612
  551MOL0     C72632   5.872   3.096   9.859  0.1755 -0.9280 -0.1507
  551MOL0     C72633   5.773   3.160   9.930  0.7529 -0.8984 -1.3650
  551MOL0     C72634   5.718   3.098  10.045  0.3687  0.1441  0.3904
  551MOL0     O72635   5.607   3.154  10.108 -0.1674 -0.0935  0.6611
  551MOL0     C72636   5.614   3.151  10.254  0.6764 -0.0014 -0.6005
  551MOL0     C72637   5.504   3.255  10.298 -0.1580  1.1272  0.7985
  551MOL0     C72638   5.492   3.279  10.444 -0.0038 -0.3080  0.1936
  551MOL0     C72639   5.389   3.391  10.478 -0.7746 -0.5106 -0.2345
  551MOL0     C72640   5.396   3.433  10.623 -0.5922  0.7504  0.5825
  551MOL0     C72641   5.298   3.539  10.655  0.3552 -0.3418 -0.5962
  551MOL0     C72642   5.288   3.557  10.799 -0.1529  0.5802  0.4633
  551MOL0     C72643   5.196   3.678  10.837 -0.4668  0.1390 -0.3780
  551MOL0    Cl72644   5.040   3.681  10.742 -0.2142 -0.2685  0.0086
  551MOL0     C72645   5.764   2.969  10.080 -0.7609 -0.0854 -0.3763
  551MOL0     C72646   5.864   2.907  10.009 -0.5158 -0.1683 -0.3723
  551MOL0     O72647   6.141   2.817   9.990 -0.8124  0.1269 -1.5398
  551MOL0     C72648   6.330   2.707   9.836 -0.8655  1.0839  0.3958
  551MOL0     C72649   6.418   2.620   9.759 -0.4262 -0.7722  0.5006
  551MOL0     N72650   6.912   2.240   9.327 -0.2334  0.3117  0.6062
  551MOL0     N72651   7.034   2.242   9.347 -0.0369 -0.0393  0.5080
  551MOL0     C72652   8.239   2.286   9.559 -0.6671 -0.8119 -0.2269
  551MOL0     C72653   8.364   2.342   9.602  0.5899  0.5706  0.2986
  551MOL0     C72654   8.779   2.359   9.814 -1.0532  0.9913  0.0321
  551MOL0     C72655   8.836   2.418   9.695  0.1208 -0.5107  0.2356
  551MOL0     C72656   8.956   2.491   9.714  0.0007 -0.0411 -0.2344
  551MOL0     C72657   9.036   2.481   9.832 -0.4553  0.4567 -0.3550
  551MOL0     O72658   9.159   2.542   9.844 -0.3578 -0.9025 -0.2084
  551MOL0     C72659   9.200   2.601   9.968 -0.4292 -0.1092  0.2944
  551MOL0     C72660   9.332   2.688   9.943  0.2935  0.4556  0.1324
  551MOL0     C72661   9.313   2.804   9.844 -0.1472  0.0554  0.7779
  551MOL0     C72662   9.331   2.764   9.695 -0.8961  0.5179  0.4678
  551MOL0     C72663   9.380   2.882   9.619  0.4674 -0.4637  0.3782
  551MOL0     C72664   9.407   2.979   9.558  0.9360 -0.0372 -0.7512
  551MOL0     C72665   8.988   2.392   9.939  0.1555  0.7393  0.0916
  551MOL0     C72666   8.859   2.338   9.927  0.1421  0.0018 -0.3597
  551MOL0     H72667   8.523   2.063   9.706 -1.9339 -2.6793 -1.4294
  551MOL0     H72668   8.304   1.968   9.678 -2.5226  0.9827  0.9050
  551MOL0     H72669   8.027   2.147   9.370  0.8193  1.9360 -0.1247
  551MOL0     H72670   7.974   2.241   9.511  2.5239  2.2593 -4.3509
  551MOL0     H72671   7.881   2.028   9.611  1.6372 -1.9702 -0.8689
  551MOL0     H72672   7.888   1.954   9.448 -1.5106 -0.3447 -1.0607
  551MOL0     H72673   7.732   2.118   9.357  2.6846  2.5046  0.4010
  551MOL0     H72674   7.736   2.210   9.510 -0.9900 -0.4876  1.2597
  551MOL0     H72675   7.629   1.927   9.458  0.1931 -0.7835  0.6278
  551MOL0     H72676   7.645   1.993   9.620 -1.6512 -1.8214 -0.5216
  551MOL0     H72677   7.471   2.112   9.389 -0.9918 -1.1228  0.8766
  551MOL0     H72678   7.509   2.180   9.555  1.4241 -1.2436  2.9777
  551MOL0     H72679   7.355   2.050   9.657 -2.0997 -1.6601 -0.0517
  551MOL0     H72680   7.382   1.911   9.544 -1.6093  0.0539  0.4252
  551MOL0     H72681   7.274   2.050   9.370 -0.4419  0.0585 -0.3992
  551MOL0     H72682   7.178   1.965   9.483  0.6860 -0.1823 -0.0002
  551MOL0     H72683   7.263   2.256   9.507  2.2993 -2.2613 -2.3586
  551MOL0     H72684   7.184   2.168   9.637 -0.1550 -4.4891 -0.0752
  551MOL0     H72685   6.919   2.054   9.594 -4.0164  0.8409 -0.2896
  551MOL0     H72686   6.707   2.015   9.477 -1.5245  0.6960  0.6614
  551MOL0     H72687   6.661   2.090   9.324 -0.5255 -2.2874 -0.0842
  551MOL0     H72688   6.655   2.249   9.594  3.0175 -1.0296 -1.2366
  551MOL0     H72689   6.524   2.149   9.533 -1.2130 -0.4719 -2.9947
  551MOL0     H72690   6.649   2.405   9.402  0.4179 -0.6407  1.1768
  551MOL0     H72691   6.540   2.289   9.312 -0.9939 -0.9766  0.5936
  551MOL0     H72692   6.368   2.330   9.474 -2.0725  1.7702 -2.6222
  551MOL0     H72693   6.411   2.482   9.394  3.3262  1.1483 -0.4926
  551MOL0     H72694   6.205   2.518   9.524  0.0375 -0.8272  0.6839
  551MOL0     H72695   6.050   2.676   9.652 -0.1857 -2.4195 -0.2376
  551MOL0     H72696   5.915   3.139   9.769 -2.5053  1.4435 -0.4225
  551MOL0     H72697   5.737   3.259   9.902 -0.3349 -0.2788  1.7872
  551MOL0     H72698   5.709   3.190  10.291  0.7798  0.2500 -1.1335
  551MOL0     H72699   5.602   3.056  10.307  0.3973  0.2323 -0.2434
  551MOL0     H72700   5.409   3.215  10.261  0.7447  0.8709 -1.3619
  551MOL0     H72701   5.531   3.342  10.238 -0.7685 -0.8870 -2.6554
  551MOL0     H72702   5.589   3.296  10.493 -0.4856  0.2107  1.0025
  551MOL0     H72703   5.451   3.194  10.499 -2.7359 -0.1322 -1.4319
  551MOL0     H72704   5.400   3.484  10.423 -2.1953 -0.4953 -0.5385
  551MOL0     H72705   5.289   3.353  10.452  0.4641 -2.8874 -1.8741
  551MOL0     H72706   5.498   3.469  10.643  1.2931 -3.3794 -0.4666
  551MOL0     H72707   5.374   3.343  10.681 -1.4797 -1.0940 -2.4232
  551MOL0     H72708   5.199   3.518  10.613 -1.5779  1.1603  2.8109
  551MOL0     H72709   5.318   3.635  10.606 -0.4291 -1.1115 -2.5241
  551MOL0     H72710   5.241   3.467  10.839  1.3426 -0.7448 -0.6801
  551MOL0     H72711   5.387   3.576  10.841  1.2218 -0.2103 -2.2416
  551MOL0     H72712   5.240   3.778  10.834 -2.1006  0.9241  0.5904
  551MOL0     H72713   5.174   3.653  10.941  0.2861  0.4289 -0.1446
  551MOL0     H72714   5.736   2.910  10.167  1.1826 -2.1295 -1.0195
  551MOL0     H72715   5.893   2.807  10.039  1.6403  0.3327 -0.6060
  551MOL0     H72716   6.364   2.758   9.926 -0.9608  1.0427  0.4551
  551MOL0     H72717   6.523   2.615   9.784  0.1601  2.5415 -0.7172
  551MOL0     H72718   8.170   2.354   9.510 -0.1204 -0.8009 -1.0022
  551MOL0     H72719   8.397   2.436   9.560  1.8664  0.3629  0.7645
  551MOL0     H72720   8.780   2.441   9.605 -0.0039 -0.9085  0.2065
  551MOL0     H72721   8.987   2.547   9.627 -2.4732  1.9720  0.0565
  551MOL0     H72722   9.223   2.520  10.038 -4.2147 -1.0447  0.6639
  551MOL0     H72723   9.133   2.671  10.017  1.1672  0.0139  2.4279
  551MOL0     H72724   9.359   2.740  10.036  1.5341  0.6756 -0.3416
  551MOL0     H72725   9.418   2.626   9.921  0.6183 -0.6488  3.8302
  551MOL0     H72726   9.385   2.880   9.876  0.7067  0.0977 -1.1314
  551MOL0     H72727   9.216   2.853   9.854 -0.6788 -1.4236  5.0186
  551MOL0     H72728   9.396   2.677   9.689  1.1208  1.9196  0.8713
  551MOL0     H72729   9.227   2.747   9.664 -0.0021 -2.3307 -1.2108
  551MOL0     H72730   9.423   3.072   9.507 -1.8347  0.2396 -1.2499
  551MOL0     H72731   9.049   2.367  10.025 -1.4423  1.8056  1.6094
  551MOL0     H72732   8.828   2.281  10.014  0.3840 -2.9467 -2.0775
  552MOL0     O72733   9.584   1.713   3.249  0.8320 -0.4704  0.4570
  552MOL0     C72734   9.681   1.772   3.300 -0.2382  0.6638 -0.3062
  552MOL0     O72735   9.675   1.897   3.332 -0.5382 -0.0863 -0.1452
  552MOL0     C72736   9.563   1.962   3.311 -0.3671  0.4361  0.8394
  552MOL0     C72737   9.465   1.951   3.409 -0.0895 -0.5252  0.8875
  552MOL0     C72738   9.346   2.029   3.403 -0.5053  0.1901 -0.4594
  552MOL0     C72739   9.316   2.121   3.293  0.2500  0.8191 -0.5796
  552MOL0     O72740   9.202   2.186   3.282  0.8476 -0.1683 -0.1123
  552MOL0     C72741   9.104   2.174   3.381  0.7330  0.1593  0.0687
  552MOL0     C72742   8.998   2.289   3.358 -0.1694  0.5510 -0.9881
  552MOL0     C72743   8.886   2.275   3.468  1.1051  0.4931 -0.2058
  552MOL0     C72744   8.757   2.358   3.427  0.4362  0.7038  0.6695
  552MOL0     C72745   8.645   2.331   3.528  0.7630  0.0563  0.4402
  552MOL0     C72746   8.519   2.397   3.494  0.7630 -1.0062 -0.2984
  552MOL0     C72747   8.431   2.405   3.629  0.7737  0.0843  0.2887
  552MOL0     C72748   8.440   2.543   3.698  0.5863  0.2583  0.2413
  552MOL0     N72749   8.341   2.546   3.808 -0.1521  0.0650  0.0682
  552MOL0     C72750   8.215   2.597   3.793 -0.6350 -0.7775  0.3030
  552MOL0     C72751   8.153   2.581   3.913  0.6005  0.6892 -0.6344
  552MOL0     C72752   8.014   2.609   3.958 -0.6777 -0.1849  0.4391
  552MOL0     C72753   7.996   2.731   4.056  0.0270  0.9113 -0.1184
  552MOL0     C72754   8.034   2.695   4.206  1.4135 -0.3786  0.4053
  552MOL0     C72755   8.042   2.820   4.291 -0.1109 -0.7359 -0.4047
  552MOL0     O72756   8.031   2.806   4.433  0.1012  0.2200 -0.6848
  552MOL0     C72757   7.909   2.796   4.498 -0.2840  0.1592  0.4335
  552MOL0     C72758   7.913   2.806   4.640 -0.7255  0.2665  0.4070
  552MOL0     C72759   7.797   2.782   4.707 -0.4200  0.4017  0.5041
  552MOL0     C72760   7.673   2.762   4.650 -0.4769 -0.2075 -0.0324
  552MOL0     C72761   7.549   2.747   4.726 -0.1471  0.2359  0.5915
  552MOL0     O72762   7.440   2.711   4.650  0.1889 -0.0421  0.1925
  552MOL0     C72763   7.321   2.744   4.711  0.6026  0.6502  0.2284
  552MOL0     C72764   7.221   2.645   4.700  0.8734  0.3835 -0.0258
  552MOL0     C72765   7.089   2.677   4.739 -0.0982 -0.7952  0.3689
  552MOL0     C72766   7.036   2.801   4.759 -1.3768  0.2485 -0.8627
  552MOL0     O72767   6.906   2.831   4.783  0.1092  0.5543 -0.7005
  552MOL0     C72768   6.822   2.724   4.834  0.0896  0.2943  0.0354
  552MOL0     C72769   6.703   2.717   4.742 -0.3896  0.4214  0.9431
  552MOL0     C72770   6.595   2.635   4.792 -0.1114  0.2317  0.4172
  552MOL0     C72771   6.633   2.486   4.807 -0.9046 -0.3728  0.0258
  552MOL0     C72772   6.508   2.402   4.843 -0.2486  0.0627  0.2314
  552MOL0     C72773   6.442   2.454   4.968 -0.4002  0.4845  0.1324
  552MOL0     C72774   6.344   2.347   5.014  0.1810 -0.6334 -0.3771
  552MOL0     C72775   6.278   2.392   5.146  0.3657  0.4525 -0.3080
  552MOL0    Cl72776   6.144   2.273   5.171 -0.1193 -0.3677  0.2408
  552MOL0     C72777   7.136   2.900   4.761 -0.0166  0.5525 -0.4460
  552MOL0     C72778   7.277   2.873   4.746  1.3595  0.9648  0.4103
  552MOL0     O72779   7.546   2.765   4.847 -0.0824  0.8342  0.5713
  552MOL0     C72780   7.670   2.754   4.511 -0.3448 -0.3193  0.7126
  552MOL0     C72781   7.787   2.772   4.437  0.8942 -0.4651 -0.7221
  552MOL0     N72782   8.249   2.539   4.003 -0.2571 -1.0742  0.4016
  552MOL0     N72783   8.358   2.514   3.938 -0.4363 -0.4537  0.9906
  552MOL0     C72784   9.420   2.132   3.202  0.7041  0.0500  1.3362
  552MOL0     C72785   9.536   2.052   3.205 -0.3420 -0.4083 -0.7208
  552MOL0     C72786   9.810   1.689   3.313 -0.5015 -0.2639  0.2955
  552MOL0     C72787   9.924   1.751   3.370 -0.1739 -0.1116  0.7355
  552MOL0     C72788  10.043   1.670   3.389 -0.3092 -0.5904  0.1595
  552MOL0     C72789  10.053   1.542   3.347 -0.1943 -0.1049  0.7186
  552MOL0     O72790  10.169   1.480   3.355 -0.0888 -0.0057  0.0747
  552MOL0     C72791  10.230   1.452   3.229  0.3461 -0.4288  0.3107
  552MOL0     C72792  10.327   1.335   3.242 -0.4111 -0.1141  0.3067
  552MOL0     C72793  10.441   1.345   3.143 -0.1848  0.2869 -0.2696
  552MOL0     C72794  10.546   1.241   3.162 -0.3545  0.0521 -0.1059
  552MOL0     C72795  10.499   1.109   3.135  0.5649  0.3009  1.1360
  552MOL0     C72796  10.469   0.988   3.119  0.4077 -0.1852  1.1076
  552MOL0     C72797   9.931   1.478   3.304  0.2120  0.3335 -0.0550
  552MOL0     C72798   9.819   1.555   3.276  0.7453  0.4514  0.7111
  552MOL0     H72799   9.478   1.879   3.488 -0.6760 -0.8066  0.7375
  552MOL0     H72800   9.279   2.019   3.488 -2.0176 -3.0658 -1.8623
  552MOL0     H72801   9.147   2.192   3.480  0.0080  0.7266  0.2899
  552MOL0     H72802   9.067   2.071   3.376 -2.0177  1.0732  0.3421
  552MOL0     H72803   8.950   2.269   3.262 -0.7949 -0.6576 -0.4467
  552MOL0     H72804   9.041   2.389   3.362 -0.9403  0.8985 -1.1913
  552MOL0     H72805   8.924   2.309   3.564  2.9524 -1.3722 -0.1949
  552MOL0     H72806   8.869   2.169   3.489  2.4467  0.8383  3.2885
  552MOL0     H72807   8.770   2.467   3.429  1.0956  0.7674 -2.1937
  552MOL0     H72808   8.710   2.326   3.334 -2.0791  2.3484  1.2754
  552MOL0     H72809   8.680   2.373   3.622  2.1510 -1.6901  0.7630
  552MOL0     H72810   8.622   2.225   3.540  0.8149  0.2950  3.0898
  552MOL0     H72811   8.459   2.337   3.425  0.5830  0.5754 -1.5710
  552MOL0     H72812   8.536   2.499   3.458 -1.3092 -1.6595 -3.5695
  552MOL0     H72813   8.323   2.397   3.613  0.6123  1.6622  0.4292
  552MOL0     H72814   8.465   2.326   3.696 -0.7779  0.4663  1.6004
  552MOL0     H72815   8.419   2.625   3.629 -0.6507 -1.7722 -1.9516
  552MOL0     H72816   8.540   2.562   3.739  0.2491  2.1923  0.2443
  552MOL0     H72817   8.170   2.640   3.704  0.8137  1.2763  0.4961
  552MOL0     H72818   7.963   2.520   3.996 -2.8238  0.0580 -1.6853
  552MOL0     H72819   7.960   2.631   3.866 -0.3676  0.5210  0.4213
  552MOL0     H72820   7.899   2.782   4.048  0.8494  2.3921 -1.2080
  552MOL0     H72821   8.060   2.809   4.014 -0.2424  2.0411  1.4612
  552MOL0     H72822   7.973   2.610   4.240  2.7747 -0.5591  2.5979
  552MOL0     H72823   8.134   2.649   4.207  1.1320 -1.0303 -0.3430
  552MOL0     H72824   7.955   2.876   4.256  0.0382 -0.3893 -0.2297
  552MOL0     H72825   8.132   2.880   4.277  0.7238 -2.1835 -1.5269
  552MOL0     H72826   8.014   2.826   4.676  0.8255 -3.8404 -1.1017
  552MOL0     H72827   7.795   2.778   4.815  0.8885 -1.6171  0.5080
  552MOL0     H72828   7.259   2.545   4.684 -1.8040 -0.6740 -0.2973
  552MOL0     H72829   7.030   2.586   4.734  1.3632 -1.7551  0.1271
  552MOL0     H72830   6.805   2.732   4.942  2.8223 -1.7077  0.7048
  552MOL0     H72831   6.858   2.623   4.812  0.1837  0.5600 -1.0819
  552MOL0     H72832   6.737   2.699   4.640  1.0885  0.7668  1.3480
  552MOL0     H72833   6.670   2.821   4.733  0.9625  0.7878 -0.0636
  552MOL0     H72834   6.502   2.634   4.734 -1.3570 -2.0571  2.2537
  552MOL0     H72835   6.566   2.665   4.893 -2.6653 -0.5483 -0.0123
  552MOL0     H72836   6.677   2.454   4.712 -1.1236  1.0283 -0.5700
  552MOL0     H72837   6.706   2.470   4.888 -0.5214  1.2776  0.0387
  552MOL0     H72838   6.535   2.297   4.854  0.2506  0.2976  1.5060
  552MOL0     H72839   6.440   2.412   4.758 -0.4223  1.3697  0.4907
  552MOL0     H72840   6.382   2.544   4.949 -1.5310 -0.1176  0.7410
  552MOL0     H72841   6.522   2.472   5.040 -0.4146  3.7642 -0.5304
  552MOL0     H72842   6.272   2.325   4.935 -2.3399 -0.7960  1.8274
  552MOL0     H72843   6.401   2.258   5.041 -1.2376 -2.1969 -2.2665
  552MOL0     H72844   6.239   2.494   5.145  1.6623  0.9850  0.7316
  552MOL0     H72845   6.347   2.374   5.229 -2.2273 -1.5218  1.6219
  552MOL0     H72846   7.102   3.000   4.785  1.1107  0.5773  1.2088
  552MOL0     H72847   7.354   2.945   4.725  2.8513 -1.0479 -1.6243
  552MOL0     H72848   7.577   2.738   4.457  0.5068  0.3844 -1.0568
  552MOL0     H72849   7.778   2.779   4.329  2.4504  1.3250 -0.8036
  552MOL0     H72850   9.413   2.199   3.117 -0.0677  0.6973  1.8981
  552MOL0     H72851   9.613   2.080   3.134 -0.4602  1.5377 -0.1457
  552MOL0     H72852   9.916   1.853   3.407  0.7894 -0.1481  1.0752
  552MOL0     H72853  10.137   1.715   3.421 -1.5558  1.6198  0.9806
  552MOL0     H72854  10.280   1.539   3.186 -1.3970 -1.6522 -4.8754
  552MOL0     H72855  10.149   1.435   3.157 -1.0327  0.5288  1.5532
  552MOL0     H72856  10.365   1.316   3.343  2.6052 -3.5804 -1.2603
  552MOL0     H72857  10.272   1.242   3.224  0.8341 -0.5675 -1.4621
  552MOL0     H72858  10.481   1.444   3.167  1.2260 -0.3803  0.1928
  552MOL0     H72859  10.403   1.345   3.041  0.7865  0.6486 -0.6427
  552MOL0     H72860  10.631   1.260   3.097  1.0376  1.5414  2.0307
  552MOL0     H72861  10.575   1.240   3.268 -1.4736 -1.1528  0.2277
  552MOL0     H72862  10.453   0.882   3.115 -3.3081  0.2773 -0.5280
  552MOL0     H72863   9.934   1.370   3.296 -0.7607  0.1355  1.7672
  552MOL0     H72864   9.729   1.518   3.228  0.2783  3.1152 -0.6612
  553MOL0     O72865   2.825   1.317   6.480  0.2473 -0.0357  0.0372
  553MOL0     C72866   2.803   1.256   6.588  0.0601 -0.1887 -0.0744
  553MOL0     O72867   2.681   1.220   6.626  0.4120  0.2929 -0.0162
  553MOL0     C72868   2.574   1.246   6.535 -0.7482  0.5383 -0.3374
  553MOL0     C72869   2.480   1.352   6.563  0.2242 -0.0788  0.6608
  553MOL0     C72870   2.359   1.363   6.492  0.0899 -0.7579  0.1079
  553MOL0     C72871   2.327   1.259   6.402 -0.3611  0.1987 -0.7032
  553MOL0     O72872   2.203   1.247   6.354  0.2878 -0.1660 -0.0914
  553MOL0     C72873   2.112   1.363   6.345 -0.6579 -0.3160 -0.2766
  553MOL0     C72874   2.036   1.339   6.220  0.4773 -0.1429  0.2029
  553MOL0     C72875   1.971   1.203   6.196 -0.2847  0.3169 -0.4976
  553MOL0     C72876   1.891   1.148   6.314 -0.1988 -0.0158  0.1543
  553MOL0     C72877   1.831   1.004   6.285 -0.9755 -1.5114  0.4901
  553MOL0     C72878   1.716   0.993   6.179 -0.7506  0.0277  0.9373
  553MOL0     C72879   1.583   1.050   6.219 -0.0067 -0.2115  0.0300
  553MOL0     C72880   1.478   1.031   6.106 -0.0504 -0.7162 -0.5601
  553MOL0     N72881   1.435   0.890   6.081 -0.0834 -0.2521 -0.4463
  553MOL0     C72882   1.366   0.810   6.164 -0.6754  0.2865 -0.2675
  553MOL0     C72883   1.372   0.687   6.111 -0.5303 -0.3099  1.0005
  553MOL0     C72884   1.312   0.561   6.170  0.1621 -0.3164  0.2587
  553MOL0     C72885   1.420   0.460   6.200  0.3132  0.2396  0.4354
  553MOL0     C72886   1.496   0.495   6.324  0.7222  0.3661  0.4806
  553MOL0     C72887   1.609   0.589   6.300 -0.6201  0.1549 -0.8148
  553MOL0     O72888   1.688   0.620   6.420 -1.0205  0.5122 -0.1552
  553MOL0     C72889   1.801   0.546   6.449 -0.0975  0.0546  0.2626
  553MOL0     C72890   1.874   0.593   6.561  0.2369  0.5855  0.6284
  553MOL0     C72891   1.978   0.522   6.611  0.1646  0.0217  0.4852
  553MOL0     C72892   2.023   0.404   6.554  0.0965  0.4673  0.1177
  553MOL0     C72893   2.134   0.334   6.616  0.5092 -0.0532  0.1023
  553MOL0     O72894   2.234   0.406   6.656  0.2454 -0.5949 -0.3596
  553MOL0     C72895   2.346   0.331   6.684  0.5776 -0.6588  0.3940
  553MOL0     C72896   2.473   0.350   6.625 -0.1537 -0.0972  0.5573
  553MOL0     C72897   2.586   0.281   6.673 -0.4483 -0.7256  0.4191
  553MOL0     C72898   2.582   0.204   6.789 -0.1120  0.3515  0.3858
  553MOL0     O72899   2.692   0.142   6.846  0.5529 -0.0894  0.4885
  553MOL0     C72900   2.802   0.228   6.888 -0.6468  0.9285 -0.4898
  553MOL0     C72901   2.879   0.157   6.998 -0.4754 -0.7884  0.3712
  553MOL0     C72902   2.796   0.140   7.123 -0.2038 -0.1653 -0.3062
  553MOL0     C72903   2.881   0.111   7.235 -0.0012  0.4136  0.8552
  553MOL0     C72904   2.824   0.034   7.354  0.5652  0.1001  0.2968
  553MOL0     C72905   2.931  -0.031   7.439  0.7449 -0.6311 -0.4413
  553MOL0     C72906   2.975  -0.164   7.392 -0.8127  0.7883  0.2995
  553MOL0     C72907   3.100  -0.212   7.449 -0.0788  0.0906  0.2371
  553MOL0    Cl72908   3.075  -0.232   7.624 -0.6208 -0.0520 -0.1657
  553MOL0     C72909   2.456   0.192   6.847 -0.9870 -0.5060 -0.3452
  553MOL0     C72910   2.345   0.251   6.795  0.0609 -0.5973 -0.5311
  553MOL0     O72911   2.138   0.215   6.586 -0.7192  1.0675 -0.2928
  553MOL0     C72912   1.945   0.345   6.450  1.1529 -0.5431 -0.3760
  553MOL0     C72913   1.841   0.416   6.392 -0.1953  0.1089 -0.9314
  553MOL0     N72914   1.432   0.703   5.996 -1.7416  0.1616 -0.2933
  553MOL0     N72915   1.473   0.820   5.969  0.7674  0.4189 -0.1261
  553MOL0     C72916   2.422   1.160   6.368  0.1585 -0.4699 -0.1781
  553MOL0     C72917   2.549   1.157   6.425 -0.4110 -0.5340  0.3978
  553MOL0     C72918   2.917   1.213   6.670  0.3199 -0.8200  0.0015
  553MOL0     C72919   2.924   1.088   6.727  0.7835  0.7776  0.5301
  553MOL0     C72920   3.040   1.039   6.788  0.4192 -0.2000  0.0417
  553MOL0     C72921   3.152   1.126   6.792 -0.7686  0.6379  0.3738
  553MOL0     O72922   3.266   1.084   6.854  0.0401 -0.3128  0.2003
  553MOL0     C72923   3.311   0.951   6.841 -0.4276 -0.2310 -0.5926
  553MOL0     C72924   3.458   0.942   6.811  0.4226  0.5256 -0.6143
  553MOL0     C72925   3.558   1.022   6.902 -0.6713 -0.3773  0.3730
  553MOL0     C72926   3.687   1.050   6.833  0.0951 -0.1698 -0.9836
  553MOL0     C72927   3.667   1.128   6.715  0.4364  0.4736 -0.1407
  553MOL0     C72928   3.671   1.201   6.622 -0.0835  0.2500 -0.0835
  553MOL0     C72929   3.150   1.247   6.726  0.2975  0.6673 -0.5935
  553MOL0     C72930   3.032   1.296   6.672  0.0526 -0.2840 -0.1120
  553MOL0     H72931   2.501   1.427   6.638  0.5684  2.0437 -1.4467
  553MOL0     H72932   2.294   1.447   6.512  1.2407 -0.1402  1.4768
  553MOL0     H72933   2.170   1.456   6.346 -0.9619 -0.1265  0.0871
  553MOL0     H72934   2.051   1.361   6.436  2.1359 -1.7948  1.7508
  553MOL0     H72935   2.100   1.354   6.133  1.2292 -1.8645  0.4246
  553MOL0     H72936   1.953   1.410   6.223 -0.5189 -1.2036 -0.9882
  553MOL0     H72937   2.046   1.133   6.158  1.6603  1.6603  0.7428
  553MOL0     H72938   1.897   1.199   6.115 -0.4726 -0.9166 -0.2885
  553MOL0     H72939   1.958   1.140   6.400  0.1663  0.7871 -0.0538
  553MOL0     H72940   1.812   1.215   6.349  0.2353 -0.9070  3.2326
  553MOL0     H72941   1.800   0.954   6.377  0.3710  1.1879  2.5713
  553MOL0     H72942   1.916   0.941   6.256 -1.2193 -1.3571 -0.5829
  553MOL0     H72943   1.708   0.885   6.161 -2.3921  0.1970  0.4890
  553MOL0     H72944   1.754   1.045   6.090  2.1133 -0.9655  1.4669
  553MOL0     H72945   1.544   0.994   6.305 -1.7130  3.4742  1.8806
  553MOL0     H72946   1.590   1.155   6.249  3.1163 -0.4034  0.2976
  553MOL0     H72947   1.531   1.073   6.020  1.5017  3.0273  1.9406
  553MOL0     H72948   1.395   1.092   6.144 -1.2152 -2.3691 -0.3198
  553MOL0     H72949   1.322   0.825   6.262 -2.1768  3.0248 -1.2423
  553MOL0     H72950   1.252   0.510   6.095 -0.9845  0.2389  0.7813
  553MOL0     H72951   1.251   0.592   6.255 -0.8127 -2.5184  0.4448
  553MOL0     H72952   1.490   0.452   6.117  3.5384 -1.1185  3.0766
  553MOL0     H72953   1.380   0.361   6.223  1.7343 -0.6518 -0.7999
  553MOL0     H72954   1.418   0.541   6.386  0.4339  0.7864 -0.1887
  553MOL0     H72955   1.534   0.400   6.362 -0.8356 -1.7349 -2.7649
  553MOL0     H72956   1.562   0.682   6.267  2.3581  1.2028 -2.5161
  553MOL0     H72957   1.669   0.558   6.214 -1.3307 -0.2225 -1.1792
  553MOL0     H72958   1.848   0.689   6.604 -0.8432  0.5015  0.2107
  553MOL0     H72959   2.026   0.541   6.706  0.5499 -1.8795  0.7102
  553MOL0     H72960   2.481   0.410   6.535  0.4745 -0.3635  0.4340
  553MOL0     H72961   2.685   0.288   6.629  0.4732 -1.3132  2.2764
  553MOL0     H72962   2.769   0.330   6.912 -0.4164  1.0313 -0.6098
  553MOL0     H72963   2.869   0.240   6.802  3.3939 -2.1767  1.8830
  553MOL0     H72964   2.967   0.220   7.012 -1.2428  0.8336 -1.5672
  553MOL0     H72965   2.926   0.063   6.969 -0.6789 -1.1295  1.1287
  553MOL0     H72966   2.720   0.065   7.101 -0.6155  0.9045 -2.8720
  553MOL0     H72967   2.756   0.236   7.159  4.1222  1.1919  1.5472
  553MOL0     H72968   2.959   0.047   7.191 -1.4651  0.8804 -2.7886
  553MOL0     H72969   2.921   0.205   7.275  1.5175 -0.3744  1.2800
  553MOL0     H72970   2.774  -0.054   7.312 -0.4133  1.3270 -1.2307
  553MOL0     H72971   2.754   0.095   7.413 -0.4026 -0.1191 -0.5880
  553MOL0     H72972   2.887  -0.048   7.537  0.9846  0.6886 -0.0864
  553MOL0     H72973   3.013   0.041   7.445  1.9989 -2.0067 -0.3119
  553MOL0     H72974   2.891  -0.229   7.418 -0.8766 -0.0260 -1.7744
  553MOL0     H72975   2.993  -0.156   7.284  1.0670  2.2866  0.6597
  553MOL0     H72976   3.168  -0.128   7.430 -0.0950  0.3329  1.1911
  553MOL0     H72977   3.129  -0.308   7.407 -1.7552 -2.0165  3.4518
  553MOL0     H72978   2.440   0.130   6.935  0.5491 -4.4035 -2.5541
  553MOL0     H72979   2.254   0.233   6.851 -0.6429 -0.7759 -1.6981
  553MOL0     H72980   1.970   0.245   6.417 -0.8423 -1.8639  1.8205
  553MOL0     H72981   1.803   0.377   6.298 -1.5673  0.1468 -0.4097
  553MOL0     H72982   2.390   1.088   6.294 -0.6259  0.3530 -0.6532
  553MOL0     H72983   2.626   1.088   6.393  1.6039  1.5548  0.4177
  553MOL0     H72984   2.845   1.014   6.721  2.4787 -1.4410  3.0378
  553MOL0     H72985   3.046   0.932   6.808 -0.3529 -0.2215  0.2209
  553MOL0     H72986   3.269   0.896   6.756 -1.8262 -2.6231  1.4902
  553MOL0     H72987   3.290   0.885   6.926  0.2520 -0.8698 -0.9075
  553MOL0     H72988   3.494   0.838   6.805  0.4905  0.4653  0.6500
  553MOL0     H72989   3.471   0.985   6.711  0.6369  0.2365 -0.7155
  553MOL0     H72990   3.586   0.970   6.995  0.3567 -0.9510 -0.2298
  553MOL0     H72991   3.515   1.120   6.921 -0.4328  0.4187 -2.7526
  553MOL0     H72992   3.746   1.110   6.903 -1.3900  0.9975 -0.6740
  553MOL0     H72993   3.734   0.954   6.813 -1.0042 -0.7560 -0.8537
  553MOL0     H72994   3.662   1.264   6.537 -5.0042  1.7931  1.2976
  553MOL0     H72995   3.238   1.310   6.724  0.8745 -0.1175 -0.5281
  553MOL0     H72996   3.053   1.390   6.621  2.0539 -0.0618  1.0487
  554MOL0     O72997   8.565   7.924   2.532 -0.6836  0.5161 -0.1616
  554MOL0     C72998   8.594   7.937   2.416  0.2812  0.4031  0.6246
  554MOL0     O72999   8.508   7.989   2.321 -0.0673  0.2730 -0.0674
  554MOL0     C73000   8.380   8.039   2.356  0.8515  0.7760  0.3025
  554MOL0     C73001   8.299   7.983   2.460  0.3355 -0.4202  0.4865
  554MOL0     C73002   8.177   8.051   2.492  0.6861  1.2702  1.2228
  554MOL0     C73003   8.127   8.154   2.419 -0.6664  0.1307  0.7401
  554MOL0     O73004   8.017   8.220   2.449  0.5243 -0.0909 -0.4697
  554MOL0     C73005   8.042   8.354   2.501  0.1733  0.0288 -0.0429
  554MOL0     C73006   7.905   8.406   2.549 -0.0085  0.4410 -0.3209
  554MOL0     C73007   7.906   8.550   2.586  0.3857  0.0438  0.9447
  554MOL0     C73008   7.777   8.575   2.667  0.1476  0.5473  0.0453
  554MOL0     C73009   7.732   8.722   2.680 -0.3605 -0.8478 -0.0573
  554MOL0     C73010   7.845   8.825   2.721 -0.3824 -0.5983  0.7469
  554MOL0     C73011   7.791   8.967   2.748 -0.5539 -0.7980 -0.5640
  554MOL0     C73012   7.718   9.033   2.639 -0.1668  0.3459 -0.6855
  554MOL0     N73013   7.588   9.084   2.684  0.2518  0.5347  0.2266
  554MOL0     C73014   7.562   9.213   2.722  1.0622 -0.4502  0.0922
  554MOL0     C73015   7.435   9.208   2.755  0.7787 -0.1502 -0.2010
  554MOL0     C73016   7.351   9.337   2.797  0.5198 -0.4390  0.6086
  554MOL0     C73017   7.204   9.325   2.775 -0.7231  0.5510 -0.2404
  554MOL0     C73018   7.160   9.323   2.630 -0.2938  0.3745  0.0931
  554MOL0     C73019   7.010   9.336   2.619 -0.2351  0.6397 -0.8898
  554MOL0     O73020   6.951   9.291   2.499  0.3571  0.1344  0.0815
  554MOL0     C73021   6.828   9.241   2.501  0.7040  0.1729  0.6808
  554MOL0     C73022   6.786   9.171   2.387 -0.1982 -0.1945  1.0863
  554MOL0     C73023   6.656   9.113   2.377 -0.1465 -0.4672  0.4228
  554MOL0     C73024   6.555   9.131   2.479  0.1611  0.0720  0.2579
  554MOL0     C73025   6.428   9.070   2.477 -0.1688 -0.6596 -0.5830
  554MOL0     O73026   6.412   8.982   2.380  0.6262  0.0505  0.1616
  554MOL0     C73027   6.287   8.960   2.332  0.4557 -1.2969 -1.1907
  554MOL0     C73028   6.188   8.886   2.401  0.2549 -0.0043 -0.8276
  554MOL0     C73029   6.071   8.847   2.331  0.3116  0.0404  0.1004
  554MOL0     C73030   6.057   8.890   2.200 -0.6300  0.5007 -1.1451
  554MOL0     O73031   5.945   8.873   2.127  0.6069  0.0642 -0.6742
  554MOL0     C73032   5.858   8.758   2.153 -0.7766 -0.3484 -0.1963
  554MOL0     C73033   5.753   8.787   2.264  0.5997  0.4175 -0.1632
  554MOL0     C73034   5.640   8.689   2.247  0.1800 -0.3573  0.1359
  554MOL0     C73035   5.524   8.729   2.347 -0.1140  0.2978 -0.0217
  554MOL0     C73036   5.406   8.624   2.364 -1.2303 -0.7449 -0.8067
  554MOL0     C73037   5.316   8.674   2.478  0.8478 -0.3968  0.5854
  554MOL0     C73038   5.187   8.584   2.492 -0.6309 -0.5807  0.3798
  554MOL0     C73039   5.129   8.597   2.630 -0.4179  1.1640  0.2570
  554MOL0    Cl73040   5.116   8.766   2.671 -0.5263  0.0837 -1.0523
  554MOL0     C73041   6.160   8.949   2.135 -0.4753 -0.3582 -0.0908
  554MOL0     C73042   6.275   8.994   2.200 -0.2108  0.1594 -0.3511
  554MOL0     O73043   6.339   9.115   2.554  0.0507  0.2471 -0.3045
  554MOL0     C73044   6.601   9.197   2.595 -0.4392 -1.0681  0.0900
  554MOL0     C73045   6.730   9.257   2.607 -0.1736 -0.5392  0.1894
  554MOL0     N73046   7.382   9.083   2.716 -0.7119 -0.5701  0.1626
  554MOL0     N73047   7.475   9.016   2.666  0.4417 -0.0344 -0.0342
  554MOL0     C73048   8.203   8.207   2.314 -0.6720 -0.7174  0.2932
  554MOL0     C73049   8.335   8.161   2.292  0.0534  0.4429 -0.6937
  554MOL0     C73050   8.729   7.900   2.376 -0.9975  0.0478 -0.1382
  554MOL0     C73051   8.832   7.853   2.459  0.2921  0.9245 -0.0931
  554MOL0     C73052   8.957   7.816   2.415 -0.1545 -0.0086  0.6263
  554MOL0     C73053   8.989   7.824   2.279  0.6978  0.2096  0.4224
  554MOL0     O73054   9.109   7.794   2.214 -0.3992 -0.1551  0.5751
  554MOL0     C73055   9.219   7.725   2.276 -0.4058  0.1523  0.4224
  554MOL0     C73056   9.334   7.700   2.173  0.2465 -0.1071  1.3303
  554MOL0     C73057   9.281   7.634   2.035  0.2445  0.3134  1.0294
  554MOL0     C73058   9.392   7.573   1.943 -0.2371  0.0031 -0.1664
  554MOL0     C73059   9.485   7.470   1.998 -0.3039  0.9298  0.0992
  554MOL0     C73060   9.558   7.398   2.062  0.3828 -0.1269  1.5846
  554MOL0     C73061   8.893   7.886   2.194  0.1440 -0.5557  0.0823
  554MOL0     C73062   8.763   7.912   2.243 -0.1052 -0.4010 -0.2802
  554MOL0     H73063   8.343   7.910   2.527 -0.8912 -2.5000 -0.8902
  554MOL0     H73064   8.134   8.020   2.587 -0.5545 -0.8121  0.0603
  554MOL0     H73065   8.074   8.424   2.423 -0.9400 -0.2024 -0.7457
  554MOL0     H73066   8.117   8.345   2.579  0.3975 -0.6619 -0.3276
  554MOL0     H73067   7.878   8.351   2.640 -2.0892  0.8792 -0.6257
  554MOL0     H73068   7.827   8.387   2.474  0.4884  1.3418 -1.0830
  554MOL0     H73069   7.908   8.608   2.493  1.9956 -1.6682 -0.1894
  554MOL0     H73070   7.992   8.585   2.644 -0.8820  1.1315  2.2153
  554MOL0     H73071   7.700   8.503   2.636  1.5069 -1.2711  0.6928
  554MOL0     H73072   7.802   8.536   2.766  0.3083 -0.6828 -0.4593
  554MOL0     H73073   7.641   8.731   2.740 -1.0725  0.6539 -1.2782
  554MOL0     H73074   7.712   8.762   2.580 -0.7147 -1.2417 -0.1480
  554MOL0     H73075   7.925   8.831   2.646  0.5952 -0.6563  1.7636
  554MOL0     H73076   7.875   8.793   2.821 -1.6716  0.7810  1.6248
  554MOL0     H73077   7.728   8.963   2.837  2.2079  2.0781  1.7967
  554MOL0     H73078   7.869   9.037   2.781  0.1869 -2.3170  1.0675
  554MOL0     H73079   7.703   8.971   2.550 -2.3914  0.9857 -0.8254
  554MOL0     H73080   7.779   9.120   2.613 -0.3065  0.5801 -0.2389
  554MOL0     H73081   7.629   9.298   2.728  1.5099 -0.8610  1.2473
  554MOL0     H73082   7.397   9.418   2.739  1.4384  0.1098  2.0538
  554MOL0     H73083   7.377   9.363   2.900  0.4614 -0.3921  0.6117
  554MOL0     H73084   7.161   9.416   2.818 -0.0814  1.7299 -1.9524
  554MOL0     H73085   7.176   9.233   2.826  2.5866 -0.3609  0.1822
  554MOL0     H73086   7.203   9.407   2.575  0.5627  0.2492  0.5625
  554MOL0     H73087   7.193   9.226   2.592  3.8320  1.6247  0.0234
  554MOL0     H73088   6.968   9.436   2.631  0.1098  0.7015 -0.1643
  554MOL0     H73089   6.973   9.276   2.703  0.8457  1.9531  0.5624
  554MOL0     H73090   6.851   9.145   2.304 -0.4563 -1.5052  1.2692
  554MOL0     H73091   6.634   9.060   2.285 -2.4118  0.8181  0.1222
  554MOL0     H73092   6.209   8.859   2.504  0.3304  0.1053 -0.8134
  554MOL0     H73093   5.998   8.793   2.392  1.5333 -0.1388  1.4557
  554MOL0     H73094   5.917   8.671   2.184  2.3260  1.3848 -0.7662
  554MOL0     H73095   5.803   8.727   2.064 -1.8781  1.2291 -0.1007
  554MOL0     H73096   5.710   8.885   2.244 -2.8885 -0.9872 -0.2003
  554MOL0     H73097   5.795   8.767   2.364 -3.1149 -2.3715  1.0832
  554MOL0     H73098   5.677   8.591   2.275  2.5823  0.6019  0.5611
  554MOL0     H73099   5.596   8.696   2.147 -0.8542  4.6634  0.6820
  554MOL0     H73100   5.572   8.722   2.445  0.4784  0.2566 -0.3068
  554MOL0     H73101   5.491   8.831   2.328  1.6144  0.9264  0.1363
  554MOL0     H73102   5.438   8.527   2.403 -0.6911  0.4543  1.9473
  554MOL0     H73103   5.355   8.603   2.269 -2.2606 -2.9608  0.1525
  554MOL0     H73104   5.277   8.775   2.467 -0.6216 -0.7043  2.3919
  554MOL0     H73105   5.366   8.665   2.575 -1.2703  1.8764  2.0154
  554MOL0     H73106   5.111   8.620   2.422  1.1783  2.3913 -0.2170
  554MOL0     H73107   5.222   8.482   2.475  3.1769  0.7557 -0.8068
  554MOL0     H73108   5.205   8.566   2.703  1.8421  3.4532 -0.9634
  554MOL0     H73109   5.036   8.540   2.628 -1.6034  2.9673  1.3743
  554MOL0     H73110   6.140   8.975   2.032 -1.5703 -2.6958 -0.5402
  554MOL0     H73111   6.360   9.033   2.144  1.3751 -0.7219  1.3347
  554MOL0     H73112   6.544   9.193   2.687  0.2484 -1.6451  0.5062
  554MOL0     H73113   6.758   9.306   2.699  0.5108 -2.0801  0.8446
  554MOL0     H73114   8.166   8.287   2.250 -1.3959  0.6233  2.3071
  554MOL0     H73115   8.403   8.206   2.220 -1.0258 -2.2721 -3.6420
  554MOL0     H73116   8.819   7.859   2.567  4.3503 -0.1411  0.6292
  554MOL0     H73117   9.040   7.782   2.477  0.6609  1.5530  0.4474
  554MOL0     H73118   9.196   7.635   2.332  0.2917  0.1762  0.7696
  554MOL0     H73119   9.282   7.782   2.345  4.0706 -1.0202 -2.2798
  554MOL0     H73120   9.389   7.791   2.149 -0.2909 -0.4404 -1.4475
  554MOL0     H73121   9.398   7.623   2.216 -0.8567 -1.7452  0.1840
  554MOL0     H73122   9.237   7.712   1.972  1.6082  0.3112  0.0252
  554MOL0     H73123   9.205   7.559   2.058 -0.0693  0.2291 -0.2118
  554MOL0     H73124   9.360   7.541   1.843 -0.6101  0.6205 -0.2468
  554MOL0     H73125   9.467   7.650   1.923  1.4423 -1.4028  0.4263
  554MOL0     H73126   9.635   7.348   2.117 -0.4435 -0.4417  2.4709
  554MOL0     H73127   8.929   7.905   2.094 -0.1057  1.4007  0.3304
  554MOL0     H73128   8.684   7.951   2.179 -0.2670  0.0973  0.2054
  555MOL0     O73129  10.897   4.272   6.741  0.5451  0.3735  0.8439
  555MOL0     C73130  10.855   4.179   6.811 -1.1630  0.4185  0.3636
  555MOL0     O73131  10.749   4.188   6.894 -0.0166  0.7387 -0.4729
  555MOL0     C73132  10.681   4.301   6.910 -0.6517 -0.4110 -0.0870
  555MOL0     C73133  10.731   4.431   6.934 -1.1559 -0.1052 -0.1126
  555MOL0     C73134  10.651   4.538   6.949 -0.1714 -0.7454  0.2195
  555MOL0     C73135  10.511   4.523   6.943 -0.2173 -0.3401  0.4667
  555MOL0     O73136  10.439   4.636   6.975  0.2182 -0.3624 -0.0176
  555MOL0     C73137  10.295   4.615   6.968 -0.7555  0.0795 -0.5324
  555MOL0     C73138  10.235   4.751   6.986  0.1294 -0.3223 -0.5743
  555MOL0     C73139  10.088   4.747   6.981  0.2641  0.3885  0.0463
  555MOL0     C73140  10.031   4.664   7.094  0.2917  0.1476 -1.6511
  555MOL0     C73141   9.884   4.698   7.112 -0.1659  0.0000  1.1192
  555MOL0     C73142   9.798   4.571   7.101 -0.3377  0.9371  0.1867
  555MOL0     C73143   9.655   4.582   7.164  0.3249 -1.0187  0.8408
  555MOL0     C73144   9.671   4.596   7.306 -0.4646  0.0544 -0.5003
  555MOL0     N73145   9.542   4.571   7.368  0.8259  0.1739  0.1609
  555MOL0     C73146   9.518   4.506   7.489 -1.1907 -0.6836 -0.2154
  555MOL0     C73147   9.382   4.505   7.507 -0.7684  0.3856 -0.2993
  555MOL0     C73148   9.312   4.428   7.617  0.7781 -1.0360 -0.1690
  555MOL0     C73149   9.255   4.523   7.713 -0.3596  0.3091 -0.3407
  555MOL0     C73150   9.137   4.472   7.791 -0.1587  0.6013  0.0702
  555MOL0     C73151   9.104   4.561   7.903 -0.1726 -0.1354  0.3322
  555MOL0     O73152   9.010   4.491   7.991  0.2314  0.2509 -0.3085
  555MOL0     C73153   8.945   4.553   8.095  0.0145 -0.2012 -1.1144
  555MOL0     C73154   8.967   4.688   8.131 -0.0463  1.0611  0.3636
  555MOL0     C73155   8.905   4.735   8.248 -1.2025  0.1914 -0.5887
  555MOL0     C73156   8.815   4.661   8.319  0.5166  0.2770 -0.0723
  555MOL0     C73157   8.743   4.718   8.434  0.3426  0.1309  0.3910
  555MOL0     O73158   8.758   4.851   8.445  0.8323 -0.8088 -0.2153
  555MOL0     C73159   8.678   4.930   8.533  0.5409 -0.2734  0.7840
  555MOL0     C73160   8.550   4.893   8.595 -0.5230  0.0708 -0.3889
  555MOL0     C73161   8.477   4.997   8.658 -0.6850  1.3028  0.0518
  555MOL0     C73162   8.528   5.123   8.676 -0.3842  0.4237 -0.0878
  555MOL0     O73163   8.466   5.221   8.745 -0.3524  0.9167  1.1737
  555MOL0     C73164   8.323   5.216   8.758 -0.6732  0.4395  0.1551
  555MOL0     C73165   8.275   5.348   8.744 -0.0621  0.2860 -0.8065
  555MOL0     C73166   8.127   5.350   8.792 -0.8060  0.2690  0.1477
  555MOL0     C73167   8.135   5.376   8.941  0.0304  0.0469 -0.0530
  555MOL0     C73168   7.998   5.435   8.987  1.0448 -0.2639 -0.7122
  555MOL0     C73169   8.006   5.451   9.135  0.2135  0.4463  0.2397
  555MOL0     C73170   7.885   5.512   9.202 -0.3149 -0.2371 -0.1583
  555MOL0     C73171   7.904   5.534   9.357 -0.3307 -0.2834  0.9828
  555MOL0    Cl73172   8.036   5.653   9.374  0.3291 -0.5342 -0.0194
  555MOL0     C73173   8.646   5.159   8.617 -0.0167  0.4511 -1.2847
  555MOL0     C73174   8.717   5.069   8.542 -0.9182  0.8997  0.0135
  555MOL0     O73175   8.695   4.647   8.517  0.1843 -0.4000  0.5462
  555MOL0     C73176   8.793   4.526   8.281  1.0038 -0.5743  1.8172
  555MOL0     C73177   8.856   4.480   8.163  0.9270  0.3856 -0.4886
  555MOL0     N73178   9.323   4.570   7.397 -0.3769  0.1761 -0.0652
  555MOL0     N73179   9.424   4.608   7.323  0.2482  0.4649  0.1455
  555MOL0     C73180  10.465   4.394   6.924 -0.3681 -0.7343  0.4743
  555MOL0     C73181  10.543   4.289   6.899 -0.6249  0.2697  0.1620
  555MOL0     C73182  10.928   4.049   6.802  0.1310 -0.2327  0.8247
  555MOL0     C73183  10.894   3.930   6.863 -0.1414  0.1584 -0.5607
  555MOL0     C73184  10.953   3.808   6.831 -0.0453  0.5987  0.2793
  555MOL0     C73185  11.065   3.807   6.755 -0.0516  0.0795 -0.0809
  555MOL0     O73186  11.132   3.688   6.726 -0.2915 -0.1334  0.3813
  555MOL0     C73187  11.273   3.681   6.762  0.0221 -0.3267 -1.0488
  555MOL0     C73188  11.300   3.544   6.816  0.2884  0.0953 -0.0169
  555MOL0     C73189  11.238   3.517   6.956 -0.1266  0.1365  0.1794
  555MOL0     C73190  11.256   3.363   6.989 -0.3003 -0.1182  0.7033
  555MOL0     C73191  11.228   3.334   7.132  0.6511 -0.4811  1.1739
  555MOL0     C73192  11.197   3.300   7.246 -0.5958 -0.2957  0.0393
  555MOL0     C73193  11.118   3.927   6.704  0.1993  0.0678 -0.1960
  555MOL0     C73194  11.042   4.044   6.721 -0.0183 -0.1113  0.7390
  555MOL0     H73195  10.838   4.445   6.940 -1.0831 -0.1102 -1.2266
  555MOL0     H73196  10.689   4.639   6.961  2.2755 -1.8098  2.3759
  555MOL0     H73197  10.273   4.554   7.056  2.5652 -0.7171 -0.1549
  555MOL0     H73198  10.261   4.571   6.874 -1.1973 -2.5506  0.7662
  555MOL0     H73199  10.251   4.815   6.899  0.3402  0.4367  0.0114
  555MOL0     H73200  10.267   4.805   7.076 -0.2794 -2.2181  0.7581
  555MOL0     H73201  10.055   4.694   6.891  0.4475  1.4462 -0.6523
  555MOL0     H73202  10.055   4.851   6.977  2.5922  1.3451  2.7930
  555MOL0     H73203  10.045   4.557   7.075  0.5555  0.4424 -3.2960
  555MOL0     H73204  10.088   4.688   7.184  2.3393  0.5445 -2.9576
  555MOL0     H73205   9.854   4.766   7.032  3.8389 -0.3257 -0.9129
  555MOL0     H73206   9.879   4.743   7.212  1.0552 -1.1838  1.7461
  555MOL0     H73207   9.856   4.490   7.145  2.8568  2.5562 -0.7447
  555MOL0     H73208   9.773   4.560   6.995 -0.6957  2.4003  0.0894
  555MOL0     H73209   9.595   4.658   7.114 -0.5693 -0.6043  2.4875
  555MOL0     H73210   9.603   4.488   7.144 -2.4245  0.3347  1.2235
  555MOL0     H73211   9.693   4.699   7.337  2.5467 -0.8708  0.7093
  555MOL0     H73212   9.750   4.531   7.344  1.2703  1.7415 -1.0549
  555MOL0     H73213   9.591   4.466   7.559  1.1317 -0.2706 -2.2861
  555MOL0     H73214   9.384   4.363   7.669  2.4384 -2.8380 -4.3022
  555MOL0     H73215   9.234   4.370   7.567  1.9876 -0.1579 -3.2659
  555MOL0     H73216   9.222   4.618   7.670  2.0722  1.4713  0.2347
  555MOL0     H73217   9.345   4.545   7.771  1.6411  4.2472 -4.3735
  555MOL0     H73218   9.053   4.457   7.723 -0.3107 -4.2913  0.9636
  555MOL0     H73219   9.164   4.375   7.834  0.5505  1.8901  2.7195
  555MOL0     H73220   9.061   4.650   7.856  0.6451  0.7667  1.2436
  555MOL0     H73221   9.180   4.606   7.967 -3.0171  1.1467  3.0895
  555MOL0     H73222   9.038   4.744   8.072 -0.6840 -1.3808 -2.9861
  555MOL0     H73223   8.938   4.835   8.274  0.0811 -0.2490 -0.4384
  555MOL0     H73224   8.505   4.794   8.589 -1.3690  0.2724  1.8938
  555MOL0     H73225   8.383   4.973   8.708 -0.2830 -4.3077 -1.2797
  555MOL0     H73226   8.283   5.158   8.841 -1.2891  1.9265  0.9180
  555MOL0     H73227   8.289   5.157   8.672 -0.5881  0.2172  0.2738
  555MOL0     H73228   8.261   5.376   8.640 -1.4765  1.3029 -0.3716
  555MOL0     H73229   8.341   5.417   8.798 -3.0853  1.3313  1.8765
  555MOL0     H73230   8.065   5.266   8.759  1.7346 -0.7953 -2.3852
  555MOL0     H73231   8.092   5.436   8.734  3.5062 -0.4572 -4.1301
  555MOL0     H73232   8.161   5.287   8.999  1.9739  0.3462 -0.4007
  555MOL0     H73233   8.222   5.437   8.963  0.9610 -1.0943 -0.4561
  555MOL0     H73234   7.914   5.372   8.958  1.0792 -0.7584  0.2397
  555MOL0     H73235   7.985   5.531   8.935  1.1055  1.3622  2.0985
  555MOL0     H73236   8.090   5.517   9.157  1.6548 -0.7653 -1.3214
  555MOL0     H73237   8.031   5.356   9.183 -2.0849  0.1088  0.8963
  555MOL0     H73238   7.869   5.611   9.159  1.1422  1.5125  3.0293
  555MOL0     H73239   7.798   5.448   9.180 -1.1827  0.4589  1.1028
  555MOL0     H73240   7.946   5.443   9.400  0.4156 -1.2659 -1.6394
  555MOL0     H73241   7.812   5.564   9.407 -1.8891 -0.4898 -1.5914
  555MOL0     H73242   8.693   5.255   8.639  2.9766 -0.5500 -2.7460
  555MOL0     H73243   8.811   5.089   8.490 -0.8881 -0.4814 -0.4957
  555MOL0     H73244   8.725   4.463   8.338 -2.5654  1.8316  0.5533
  555MOL0     H73245   8.822   4.384   8.126 -0.0767  0.0044  1.3313
  555MOL0     H73246  10.357   4.380   6.915 -0.5492  0.6559  0.2621
  555MOL0     H73247  10.491   4.198   6.868  0.1124  0.5379 -2.0785
  555MOL0     H73248  10.817   3.942   6.939 -1.7812 -0.8561 -1.9935
  555MOL0     H73249  10.902   3.725   6.881  0.1475 -0.3366 -1.0291
  555MOL0     H73250  11.303   3.760   6.832 -0.2398 -0.4997 -0.7411
  555MOL0     H73251  11.337   3.709   6.677 -2.0752  3.2666 -1.6677
  555MOL0     H73252  11.267   3.478   6.735  2.1865  0.0899 -0.8455
  555MOL0     H73253  11.407   3.524   6.828  0.1312 -0.9887 -0.3011
  555MOL0     H73254  11.131   3.537   6.945 -0.4204 -2.3919 -3.9816
  555MOL0     H73255  11.296   3.566   7.035  1.0144 -2.3567  1.0078
  555MOL0     H73256  11.184   3.315   6.923  0.8472  1.4204 -1.8493
  555MOL0     H73257  11.359   3.337   6.960 -0.7689 -0.9075 -0.3120
  555MOL0     H73258  11.192   3.275   7.350 -3.0050 -3.0558 -0.6152
  555MOL0     H73259  11.208   3.918   6.644  2.1975 -0.8882  2.7085
  555MOL0     H73260  11.088   4.119   6.657  2.4159 -0.6943  1.6577
  556MOL0     O73261   2.016   2.976   0.933 -0.5717 -0.4020 -0.4477
  556MOL0     C73262   2.032   3.080   1.000  1.0513  0.4379  0.3019
  556MOL0     O73263   1.936   3.172   1.012  0.3367  0.0211 -0.9392
  556MOL0     C73264   1.827   3.173   0.918 -1.0844  1.8346 -0.4775
  556MOL0     C73265   1.851   3.161   0.779 -0.6006 -0.7529  0.2794
  556MOL0     C73266   1.746   3.176   0.703  0.2451 -0.2150 -0.4994
  556MOL0     C73267   1.613   3.180   0.744  0.3209 -0.6788  0.9758
  556MOL0     O73268   1.517   3.192   0.646 -0.3584  0.3384 -0.9444
  556MOL0     C73269   1.379   3.169   0.669 -0.5790 -0.4409 -0.0137
  556MOL0     C73270   1.314   3.152   0.536  0.9854  0.0482  0.0919
  556MOL0     C73271   1.340   3.014   0.474  0.7890 -0.3581 -0.9146
  556MOL0     C73272   1.491   2.987   0.444 -0.2133  0.2203  0.4870
  556MOL0     C73273   1.511   2.872   0.354  0.2815  0.2243  0.8182
  556MOL0     C73274   1.446   2.884   0.216 -0.4880 -0.1768  0.1942
  556MOL0     C73275   1.471   2.753   0.135 -0.2799 -0.5716  0.1415
  556MOL0     C73276   1.406   2.629   0.187 -0.3980  0.6680  0.6789
  556MOL0     N73277   1.258   2.636   0.182  0.2819  0.0657 -0.2756
  556MOL0     C73278   1.182   2.605   0.061  0.3556 -0.3262 -0.0858
  556MOL0     C73279   1.059   2.634   0.089  0.2376 -0.5596 -0.1930
  556MOL0     C73280   0.938   2.619   0.006 -0.0979 -0.1917  0.4811
  556MOL0     C73281   0.930   2.703  -0.119 -0.5919 -0.4482  0.2974
  556MOL0     C73282   0.861   2.845  -0.091  0.5564  0.2201  0.1611
  556MOL0     C73283   0.832   2.927  -0.223  0.4958 -0.0253 -0.5598
  556MOL0     O73284   0.953   2.924  -0.300  0.5139 -0.6617  0.1846
  556MOL0     C73285   1.067   2.980  -0.259  0.0755 -0.8429 -0.4069
  556MOL0     C73286   1.072   3.111  -0.197  1.4075 -0.0887  0.5974
  556MOL0     C73287   1.190   3.171  -0.171  0.2770 -0.0877  0.5326
  556MOL0     C73288   1.311   3.109  -0.208 -0.6875  0.1200 -0.3703
  556MOL0     C73289   1.447   3.175  -0.180  0.4785 -0.4547  0.1211
  556MOL0     O73290   1.453   3.259  -0.079 -0.7164  0.1179  0.3537
  556MOL0     C73291   1.575   3.283  -0.017  0.1255  0.7993  0.8114
  556MOL0     C73292   1.613   3.415   0.010 -0.7798  0.2749  0.1635
  556MOL0     C73293   1.727   3.439   0.083 -0.0604 -0.0387 -0.1609
  556MOL0     C73294   1.816   3.336   0.115  0.5723 -0.6149 -0.5336
  556MOL0     O73295   1.932   3.372   0.181 -0.3277  0.2594 -0.3252
  556MOL0     C73296   2.039   3.274   0.175  0.0846  0.0215  1.0373
  556MOL0     C73297   2.164   3.361   0.156  0.3468  0.3924  0.4967
  556MOL0     C73298   2.293   3.281   0.130  0.3949 -0.3128 -0.0118
  556MOL0     C73299   2.354   3.241   0.258  0.2805 -0.5905 -0.1813
  556MOL0     C73300   2.491   3.162   0.241 -0.3769 -0.1785  0.3450
  556MOL0     C73301   2.565   3.162   0.377  0.2695 -0.0668  0.1269
  556MOL0     C73302   2.710   3.127   0.352  0.6125  1.0962  0.0679
  556MOL0     C73303   2.778   3.077   0.483 -0.0173  0.5744  0.6301
  556MOL0    Cl73304   2.938   3.016   0.431  0.0157  0.1128  0.2287
  556MOL0     C73305   1.782   3.205   0.082  0.0094  0.0064 -0.0786
  556MOL0     C73306   1.658   3.181   0.033  0.2649  0.3270  0.3455
  556MOL0     O73307   1.542   3.142  -0.257 -0.0345 -0.6168  0.1623
  556MOL0     C73308   1.313   2.974  -0.252  0.0935 -0.5148  0.0481
  556MOL0     C73309   1.193   2.923  -0.289  0.1401 -0.6492  1.0000
  556MOL0     N73310   1.045   2.682   0.220  0.0598  0.2460 -0.1833
  556MOL0     N73311   1.164   2.679   0.275 -0.0310 -0.4207  0.6391
  556MOL0     C73312   1.589   3.189   0.880  0.2845  0.1494  0.0600
  556MOL0     C73313   1.696   3.183   0.965 -0.0145 -0.1546  0.3563
  556MOL0     C73314   2.162   3.106   1.067  0.3223  0.3245  1.3154
  556MOL0     C73315   2.262   3.013   1.075 -0.5973  0.3041 -0.0067
  556MOL0     C73316   2.368   3.020   1.170 -0.0456 -0.9206  0.1695
  556MOL0     C73317   2.399   3.145   1.220  0.4582 -0.0127 -0.1959
  556MOL0     O73318   2.515   3.153   1.280 -0.4399  0.2606  0.2866
  556MOL0     C73319   2.569   3.284   1.324  0.0461  1.3719 -0.2231
  556MOL0     C73320   2.657   3.374   1.227  0.3453 -0.0372 -0.3398
  556MOL0     C73321   2.595   3.405   1.089  0.8405  0.2726  0.2392
  556MOL0     C73322   2.611   3.291   0.993 -0.2951 -0.0282  0.3210
  556MOL0     C73323   2.494   3.271   0.910  0.6520 -0.2816 -0.2895
  556MOL0     C73324   2.387   3.252   0.851 -0.1925 -0.5790  1.7647
  556MOL0     C73325   2.296   3.238   1.223  0.1001  0.6895  0.6340
  556MOL0     C73326   2.177   3.214   1.159  0.8168 -0.0086  0.4502
  556MOL0     H73327   1.948   3.136   0.738  0.8932  1.2216  2.3488
  556MOL0     H73328   1.767   3.198   0.599  0.7361  1.1787 -0.1263
  556MOL0     H73329   1.333   3.251   0.725 -0.9342 -2.9661  3.7664
  556MOL0     H73330   1.363   3.081   0.733 -0.2140  0.8392  1.9437
  556MOL0     H73331   1.346   3.237   0.474  3.2652 -0.2225  0.7936
  556MOL0     H73332   1.212   3.169   0.571  1.9904  0.0067  3.3778
  556MOL0     H73333   1.276   3.011   0.386 -0.6290 -0.6230  0.0975
  556MOL0     H73334   1.307   2.940   0.548  0.5421  1.2525  0.6545
  556MOL0     H73335   1.540   3.079   0.412  1.1907 -0.9938 -1.0586
  556MOL0     H73336   1.548   2.972   0.536 -0.3530 -3.3482  0.1571
  556MOL0     H73337   1.472   2.784   0.407 -0.3412  0.0958  0.1657
  556MOL0     H73338   1.617   2.858   0.332  0.1207 -0.7806  0.6552
  556MOL0     H73339   1.482   2.978   0.174 -1.8396  0.5608  0.6197
  556MOL0     H73340   1.338   2.905   0.212 -0.5852 -0.5829  0.6197
  556MOL0     H73341   1.429   2.767   0.035  0.0719 -2.0379 -0.2251
  556MOL0     H73342   1.578   2.737   0.125 -0.6815 -3.0594 -0.8872
  556MOL0     H73343   1.432   2.594   0.288 -0.4662 -2.0246 -0.1509
  556MOL0     H73344   1.433   2.547   0.120  1.4587  1.9968 -0.2833
  556MOL0     H73345   1.225   2.576  -0.034  0.5646  0.0006 -0.0913
  556MOL0     H73346   0.843   2.634   0.059 -1.5224  2.4274 -2.4144
  556MOL0     H73347   0.943   2.515  -0.025 -3.4829 -0.0404 -1.0775
  556MOL0     H73348   0.861   2.665  -0.195 -0.3649  1.5516 -0.9723
  556MOL0     H73349   1.030   2.722  -0.158 -0.3052 -3.8111 -0.9361
  556MOL0     H73350   0.770   2.811  -0.042 -0.4097  0.4450 -1.4190
  556MOL0     H73351   0.921   2.901  -0.019 -0.9118  1.2500  0.6171
  556MOL0     H73352   0.809   3.032  -0.201 -0.0871 -0.2135 -0.2402
  556MOL0     H73353   0.754   2.873  -0.277  0.2130 -0.9070  0.7021
  556MOL0     H73354   0.985   3.167  -0.166 -0.5157 -2.6488  0.1437
  556MOL0     H73355   1.181   3.276  -0.142  2.1323  0.4610 -0.6926
  556MOL0     H73356   1.554   3.495  -0.034 -0.0850 -0.9473 -3.3418
  556MOL0     H73357   1.747   3.536   0.126 -1.2501  0.8018 -1.4157
  556MOL0     H73358   2.025   3.213   0.086  0.0479 -0.2561  1.2314
  556MOL0     H73359   2.044   3.207   0.262  1.8447 -2.0959 -0.5757
  556MOL0     H73360   2.188   3.433   0.234 -2.9640  1.7123  0.4223
  556MOL0     H73361   2.143   3.416   0.064  0.9820  0.7627  0.5650
  556MOL0     H73362   2.358   3.354   0.081 -1.1723  1.5294  0.4935
  556MOL0     H73363   2.276   3.196   0.064 -0.5349  0.4916 -0.8595
  556MOL0     H73364   2.359   3.335   0.314  1.1196  0.6206 -2.1775
  556MOL0     H73365   2.287   3.191   0.328 -0.0507  2.0787  1.5196
  556MOL0     H73366   2.559   3.215   0.173  1.8889 -0.7618  2.0211
  556MOL0     H73367   2.475   3.060   0.203  0.2013 -0.7148  1.4736
  556MOL0     H73368   2.512   3.097   0.447 -1.2944  0.4980 -0.4970
  556MOL0     H73369   2.563   3.264   0.416 -2.3897 -0.5843  1.6364
  556MOL0     H73370   2.710   3.043   0.282  0.5897  0.7800  0.4459
  556MOL0     H73371   2.764   3.211   0.308 -0.5999  1.1995 -1.2938
  556MOL0     H73372   2.726   2.991   0.528  1.1564  1.3393  3.7257
  556MOL0     H73373   2.793   3.148   0.565 -0.4053 -0.9412  2.0885
  556MOL0     H73374   1.852   3.126   0.104 -0.1421  0.0729  0.6574
  556MOL0     H73375   1.643   3.076   0.011  4.8526 -0.6535  0.7843
  556MOL0     H73376   1.405   2.919  -0.267  1.9065  0.9081  4.3872
  556MOL0     H73377   1.188   2.824  -0.334  2.4835 -1.0423  1.4661
  556MOL0     H73378   1.487   3.214   0.910  0.0035  2.2960 -2.3642
  556MOL0     H73379   1.676   3.196   1.071 -1.1458  0.1900  0.1096
  556MOL0     H73380   2.264   2.919   1.019  1.6178  0.5582 -0.4297
  556MOL0     H73381   2.445   2.944   1.168 -0.8154 -1.7716  1.7473
  556MOL0     H73382   2.642   3.260   1.402 -0.7845 -1.8906 -0.3027
  556MOL0     H73383   2.490   3.344   1.369 -0.4898 -0.4739  1.4230
  556MOL0     H73384   2.688   3.462   1.284  0.6038  0.8402 -1.7930
  556MOL0     H73385   2.747   3.315   1.210  1.1813  1.1676 -0.2434
  556MOL0     H73386   2.635   3.496   1.043 -0.0581  0.7674  0.4127
  556MOL0     H73387   2.486   3.419   1.091  0.5135 -1.9160  0.1818
  556MOL0     H73388   2.690   3.322   0.924 -0.5403  0.3847  0.2154
  556MOL0     H73389   2.642   3.195   1.034  5.2181  1.9151  1.5968
  556MOL0     H73390   2.299   3.210   0.806  0.9342  1.4792 -2.9748
  556MOL0     H73391   2.306   3.333   1.275 -1.5493  1.6234 -0.6148
  556MOL0     H73392   2.110   3.300   1.158  3.4620  2.2033 -0.0978
  557MOL0     O73393   4.201   8.623   6.187 -0.3607  0.3876 -0.7822
  557MOL0     C73394   4.203   8.669   6.302 -0.5678 -0.9061 -0.0292
  557MOL0     O73395   4.101   8.666   6.389  0.0926 -0.3703 -0.4295
  557MOL0     C73396   3.985   8.593   6.357 -0.2596  0.2497 -0.0832
  557MOL0     C73397   3.978   8.462   6.311 -0.6714  0.2576 -1.2351
  557MOL0     C73398   3.850   8.407   6.285 -0.4869  0.9327 -0.3680
  557MOL0     C73399   3.730   8.469   6.313 -0.3779  0.8321  0.2837
  557MOL0     O73400   3.610   8.403   6.274  0.3263  0.0550 -0.1710
  557MOL0     C73401   3.489   8.444   6.345  0.4376  0.3704  1.3269
  557MOL0     C73402   3.383   8.340   6.338 -0.2737  0.4634  0.6553
  557MOL0     C73403   3.240   8.392   6.375 -0.0357  0.5543 -0.2774
  557MOL0     C73404   3.136   8.299   6.324 -0.5572 -0.1496 -0.4904
  557MOL0     C73405   2.993   8.355   6.345  0.4861  0.2129  0.3528
  557MOL0     C73406   2.887   8.265   6.275 -0.1599  0.7433 -1.1324
  557MOL0     C73407   2.750   8.339   6.265 -0.1876  0.8529 -0.0765
  557MOL0     C73408   2.649   8.220   6.236 -0.7498 -0.7601 -0.5421
  557MOL0     N73409   2.502   8.261   6.237 -1.4481  0.0327  0.3308
  557MOL0     C73410   2.414   8.211   6.321  0.2741  0.7757 -0.4626
  557MOL0     C73411   2.298   8.275   6.284  0.2453 -0.0700 -0.8154
  557MOL0     C73412   2.166   8.261   6.356 -0.5424  1.0334 -0.4081
  557MOL0     C73413   2.046   8.244   6.259 -0.4115 -0.0704  0.1570
  557MOL0     C73414   2.059   8.126   6.170  0.0460 -0.1568  0.8232
  557MOL0     C73415   1.948   8.133   6.067 -0.0746 -0.5130  0.6349
  557MOL0     O73416   1.928   8.007   6.007  1.3139  0.3074 -0.4102
  557MOL0     C73417   1.796   7.998   5.971 -1.1848  0.4502 -0.3437
  557MOL0     C73418   1.713   8.095   5.912  0.4233  0.4478 -0.7736
  557MOL0     C73419   1.578   8.065   5.870 -0.2629 -0.3005 -0.8582
  557MOL0     C73420   1.530   7.932   5.875  0.9432  0.7051 -0.8796
  557MOL0     C73421   1.392   7.905   5.846  0.0185  1.2766 -0.0231
  557MOL0     O73422   1.341   7.778   5.869 -0.6057 -0.3179  0.1263
  557MOL0     C73423   1.213   7.770   5.824  0.2377 -0.5487 -0.3436
  557MOL0     C73424   1.191   7.763   5.687  0.1278 -0.5269 -0.2208
  557MOL0     C73425   1.052   7.748   5.652  0.8793 -0.8638 -0.0922
  557MOL0     C73426   0.942   7.722   5.737 -0.5606 -0.7789 -0.2142
  557MOL0     O73427   0.813   7.698   5.689  0.7067  0.2407  0.0281
  557MOL0     C73428   0.697   7.689   5.785 -0.1789  0.4220 -0.1468
  557MOL0     C73429   0.679   7.544   5.836  1.1187 -0.9507  0.1772
  557MOL0     C73430   0.629   7.443   5.732 -0.0081 -0.6526 -0.4177
  557MOL0     C73431   0.527   7.498   5.624  0.1984 -1.4559  0.6904
  557MOL0     C73432   0.451   7.384   5.543 -0.0366 -0.8331 -0.8038
  557MOL0     C73433   0.336   7.317   5.624 -0.5754 -0.3603  0.9088
  557MOL0     C73434   0.287   7.191   5.553  0.6104 -0.4340 -0.7988
  557MOL0     C73435   0.160   7.132   5.619  0.3234  0.4629  0.3881
  557MOL0    Cl73436   0.011   7.194   5.542 -0.1654 -0.4620  0.4342
  557MOL0     C73437   0.973   7.727   5.874  0.1317  0.0722  1.1175
  557MOL0     C73438   1.105   7.746   5.913  0.1322  0.9273 -0.1536
  557MOL0     O73439   1.340   8.000   5.790  0.1335  0.0064 -0.3811
  557MOL0     C73440   1.618   7.838   5.931  0.9990 -0.0904  0.0403
  557MOL0     C73441   1.743   7.870   5.974 -0.0291  0.6669 -0.3154
  557MOL0     N73442   2.318   8.367   6.186 -0.4634  0.7797  0.6452
  557MOL0     N73443   2.443   8.349   6.149 -0.7782 -0.3823 -1.1482
  557MOL0     C73444   3.746   8.600   6.360  0.2367  0.3888  0.7293
  557MOL0     C73445   3.864   8.666   6.380 -0.1168 -0.0541 -0.2220
  557MOL0     C73446   4.317   8.761   6.338  0.6605  0.5966 -1.4053
  557MOL0     C73447   4.317   8.849   6.453  0.1238  0.4393  0.3416
  557MOL0     C73448   4.438   8.917   6.478  1.5392  0.2074  0.0541
  557MOL0     C73449   4.556   8.896   6.406  0.6640 -0.1437  0.5982
  557MOL0     O73450   4.659   8.976   6.438 -0.9322 -0.4660 -0.1639
  557MOL0     C73451   4.790   8.957   6.379 -0.6650 -0.2986 -0.7834
  557MOL0     C73452   4.906   8.999   6.477  0.4888 -0.4997  0.5453
  557MOL0     C73453   5.045   9.024   6.405 -0.3144 -0.8637  0.2928
  557MOL0     C73454   5.147   9.086   6.505  0.0301  0.1374 -0.5738
  557MOL0     C73455   5.117   9.226   6.543  0.4646 -1.2333 -0.4059
  557MOL0     C73456   5.073   9.332   6.570  0.0195 -0.0993 -0.1782
  557MOL0     C73457   4.560   8.797   6.309  1.3670  0.4539 -0.0615
  557MOL0     C73458   4.441   8.729   6.285 -0.0211  0.7488 -0.1022
  557MOL0     H73459   4.075   8.413   6.307 -0.2366  0.1399  4.1876
  557MOL0     H73460   3.857   8.309   6.239 -0.4650  1.1647 -0.8660
  557MOL0     H73461   3.450   8.527   6.286  3.7378  0.4875 -0.9790
  557MOL0     H73462   3.508   8.475   6.448 -1.6769  1.1518  1.5381
  557MOL0     H73463   3.420   8.260   6.404 -0.4556 -0.3029 -0.1452
  557MOL0     H73464   3.377   8.300   6.236  0.3903  0.4612  0.6125
  557MOL0     H73465   3.229   8.488   6.323  1.2402 -0.2937 -2.2151
  557MOL0     H73466   3.226   8.410   6.482 -1.8151 -0.0582 -0.3687
  557MOL0     H73467   3.142   8.277   6.217 -1.9499 -2.3368 -0.1798
  557MOL0     H73468   3.149   8.203   6.376  1.6274  0.2548 -0.1780
  557MOL0     H73469   2.983   8.460   6.319 -2.6798  0.2646  1.3088
  557MOL0     H73470   2.964   8.341   6.450  0.9052 -0.0659  0.4319
  557MOL0     H73471   2.888   8.175   6.336 -0.5715  1.1659 -0.4867
  557MOL0     H73472   2.930   8.244   6.176  2.0036 -1.8578  0.2343
  557MOL0     H73473   2.726   8.376   6.365  0.3685 -1.4177  0.9620
  557MOL0     H73474   2.747   8.411   6.183 -1.5102  0.2728 -0.5683
  557MOL0     H73475   2.670   8.133   6.299  0.7420 -0.0387 -0.0055
  557MOL0     H73476   2.654   8.181   6.133 -0.0147 -1.4325 -0.2569
  557MOL0     H73477   2.435   8.133   6.393 -2.1022  1.2822  0.8851
  557MOL0     H73478   2.157   8.360   6.403  1.9641  0.5252  1.3353
  557MOL0     H73479   2.168   8.184   6.434  3.2546  2.5379  1.2766
  557MOL0     H73480   2.039   8.323   6.184  1.0375 -3.2976 -3.6928
  557MOL0     H73481   1.952   8.236   6.314  0.5477 -0.2049  1.8567
  557MOL0     H73482   2.162   8.122   6.133  0.7985  1.0756  2.6117
  557MOL0     H73483   2.038   8.033   6.223 -1.2137 -0.1350  0.3769
  557MOL0     H73484   1.986   8.204   5.994 -0.0940  0.4971  1.5774
  557MOL0     H73485   1.860   8.176   6.116  0.6593  1.6010  0.1992
  557MOL0     H73486   1.759   8.188   5.881  1.5894 -0.6405 -2.5348
  557MOL0     H73487   1.515   8.144   5.832 -0.2832  0.3653  0.4881
  557MOL0     H73488   1.264   7.758   5.607  1.2483  1.0628  0.6413
  557MOL0     H73489   1.032   7.740   5.545 -1.2666  0.6823  0.1244
  557MOL0     H73490   0.608   7.722   5.730 -1.8596  0.2928  2.3228
  557MOL0     H73491   0.707   7.760   5.868  3.2401  1.0771 -0.9734
  557MOL0     H73492   0.604   7.544   5.915  3.1350 -0.6280  2.2014
  557MOL0     H73493   0.768   7.512   5.892 -0.4765  0.3459  3.6724
  557MOL0     H73494   0.606   7.352   5.788  2.1467 -0.8545  0.2061
  557MOL0     H73495   0.716   7.433   5.666  0.0886  1.2187 -0.6030
  557MOL0     H73496   0.452   7.552   5.682  1.4579 -0.0997  1.1326
  557MOL0     H73497   0.581   7.573   5.565 -0.1105 -1.1636  0.7789
  557MOL0     H73498   0.515   7.298   5.517 -0.2374 -0.7674 -1.5558
  557MOL0     H73499   0.422   7.414   5.442 -0.6791 -0.5400 -0.5330
  557MOL0     H73500   0.252   7.387   5.637 -0.3378  0.4017 -1.3364
  557MOL0     H73501   0.381   7.290   5.720 -1.4433 -1.0332  1.1384
  557MOL0     H73502   0.266   7.213   5.448  0.9894  3.2103 -0.2582
  557MOL0     H73503   0.364   7.114   5.557  0.9136 -0.3151 -3.0591
  557MOL0     H73504   0.151   7.158   5.725 -1.1105 -0.6546  0.5806
  557MOL0     H73505   0.150   7.023   5.612  0.4622  0.5110 -0.7933
  557MOL0     H73506   0.898   7.684   5.940 -1.9243 -0.5157 -1.4359
  557MOL0     H73507   1.126   7.762   6.018  0.9607  2.3703 -0.5044
  557MOL0     H73508   1.574   7.740   5.941 -1.1066  0.9933  3.1132
  557MOL0     H73509   1.791   7.792   6.033 -1.1494 -0.6399 -1.0675
  557MOL0     H73510   3.652   8.652   6.373 -0.0265 -0.3035  1.6418
  557MOL0     H73511   3.859   8.766   6.423 -0.5029 -0.5156  0.8294
  557MOL0     H73512   4.225   8.851   6.511 -1.4376 -1.4874 -1.8817
  557MOL0     H73513   4.435   8.995   6.553 -3.8133 -1.1153  1.6897
  557MOL0     H73514   4.798   9.014   6.287  2.4064 -2.3446 -1.9495
  557MOL0     H73515   4.806   8.852   6.353 -0.3360 -0.6585  0.7821
  557MOL0     H73516   4.871   9.087   6.532  1.2002  0.3899 -0.3943
  557MOL0     H73517   4.918   8.924   6.557 -0.5005 -0.1152  1.0659
  557MOL0     H73518   5.033   9.097   6.325 -3.1619  0.3114  1.6163
  557MOL0     H73519   5.079   8.930   6.361 -1.5846 -0.3458 -1.9533
  557MOL0     H73520   5.160   9.018   6.590 -2.7217 -0.6015 -0.6305
  557MOL0     H73521   5.242   9.083   6.452  1.8030 -4.3617  2.2577
  557MOL0     H73522   5.040   9.426   6.609  1.1356 -0.1712  1.0180
  557MOL0     H73523   4.648   8.767   6.254  0.5048  0.2941 -1.3949
  557MOL0     H73524   4.438   8.649   6.212 -1.2439  0.0294  0.6784
  558MOL0     O73525  10.820   7.621   2.908 -0.5078  0.6281 -1.0522
  558MOL0     C73526  10.839   7.712   2.984  0.7316 -0.2711 -0.0989
  558MOL0     O73527  10.738   7.789   3.037 -0.5090 -0.4585 -0.3080
  558MOL0     C73528  10.614   7.753   3.005  0.6048  0.2980  0.1071
  558MOL0     C73529  10.574   7.772   2.878  0.9672 -0.8375  0.7131
  558MOL0     C73530  10.443   7.760   2.843  0.1673  0.7419 -0.9536
  558MOL0     C73531  10.346   7.725   2.933 -0.0874  0.7487  0.8030
  558MOL0     O73532  10.203   7.722   2.920  0.4642  1.1828 -0.0336
  558MOL0     C73533  10.140   7.762   2.796  0.2222  0.0827  0.1295
  558MOL0     C73534  10.003   7.806   2.814 -0.7090  0.1372 -0.4255
  558MOL0     C73535  10.006   7.942   2.890 -0.4363 -0.2979  0.2953
  558MOL0     C73536   9.865   8.010   2.913 -0.1735  0.8647 -0.0985
  558MOL0     C73537   9.810   8.077   2.793  0.4997 -0.4087  0.7310
  558MOL0     C73538   9.694   8.175   2.816  0.8199  0.1387 -0.2899
  558MOL0     C73539   9.597   8.146   2.924 -0.1701  1.2391  1.1335
  558MOL0     C73540   9.501   8.039   2.879 -0.0473  0.4488 -0.1431
  558MOL0     N73541   9.407   8.002   2.985 -0.1367  0.0538  0.6432
  558MOL0     C73542   9.284   8.045   3.011 -0.1478 -0.4329  0.0922
  558MOL0     C73543   9.242   7.971   3.115  0.1341 -0.4388 -0.2172
  558MOL0     C73544   9.105   7.991   3.175  0.8630  0.2102  0.1824
  558MOL0     C73545   9.082   8.122   3.244  0.4959 -0.4714 -0.5452
  558MOL0     C73546   8.954   8.133   3.331  0.0213 -1.0506 -0.7230
  558MOL0     C73547   8.829   8.129   3.246  0.2548 -0.1549 -0.7879
  558MOL0     O73548   8.829   8.228   3.133 -0.0344  0.4455  0.5897
  558MOL0     C73549   8.809   8.366   3.151  0.4226 -0.2226  0.0394
  558MOL0     C73550   8.841   8.466   3.052 -0.3215 -0.3527 -0.0560
  558MOL0     C73551   8.823   8.602   3.091  0.0710 -0.9506 -0.7520
  558MOL0     C73552   8.774   8.642   3.220 -0.8413  0.1126  0.8133
  558MOL0     C73553   8.774   8.780   3.253 -0.2456  0.5932 -0.8825
  558MOL0     O73554   8.734   8.807   3.378  0.1128  0.5211 -0.0171
  558MOL0     C73555   8.758   8.940   3.421  0.2138 -0.3647 -0.0585
  558MOL0     C73556   8.675   9.041   3.391 -0.0488  0.1477  0.4385
  558MOL0     C73557   8.700   9.176   3.427 -0.3410  0.8655  0.4277
  558MOL0     C73558   8.824   9.210   3.466 -0.2498  0.2052  0.3178
  558MOL0     O73559   8.836   9.339   3.482  0.5371  0.2441 -0.2078
  558MOL0     C73560   8.946   9.379   3.573 -0.2015 -0.2716 -0.6577
  558MOL0     C73561   8.960   9.529   3.591  0.1600 -0.0182  0.4000
  558MOL0     C73562   8.825   9.597   3.601 -1.0284 -0.2255 -0.5268
  558MOL0     C73563   8.735   9.531   3.714  0.5780  0.4743 -0.2269
  558MOL0     C73564   8.622   9.629   3.760 -0.4267 -0.2604 -0.1070
  558MOL0     C73565   8.570   9.597   3.900 -0.6209  0.0779 -0.5547
  558MOL0     C73566   8.459   9.682   3.952  0.1264  0.0910  0.0498
  558MOL0     C73567   8.341   9.687   3.856  0.7457 -0.2213  0.2343
  558MOL0    Cl73568   8.315   9.521   3.785  0.0683  0.0179 -0.0022
  558MOL0     C73569   8.921   9.112   3.489 -0.5616  0.1581 -0.9747
  558MOL0     C73570   8.888   8.977   3.468  0.5412 -0.1849 -1.6090
  558MOL0     O73571   8.831   8.855   3.178  0.3389 -0.1234 -0.3795
  558MOL0     C73572   8.744   8.543   3.310 -0.4895 -0.2246 -0.2509
  558MOL0     C73573   8.758   8.406   3.272 -0.2713  0.0443 -0.7428
  558MOL0     N73574   9.345   7.898   3.171 -0.4660  0.0513  0.5949
  558MOL0     N73575   9.440   7.912   3.080 -0.0285  1.3620  1.0001
  558MOL0     C73576  10.390   7.686   3.058 -0.0007 -1.2545 -0.3788
  558MOL0     C73577  10.525   7.704   3.102  0.2408 -0.1449  0.6750
  558MOL0     C73578  10.975   7.750   3.015  0.6436 -0.4422  0.1964
  558MOL0     C73579  11.009   7.860   3.083  0.0372  0.5009 -0.0892
  558MOL0     C73580  11.146   7.876   3.114 -0.2759  0.3093  0.2271
  558MOL0     C73581  11.247   7.806   3.059  0.6660  0.0090 -0.0532
  558MOL0     O73582  11.375   7.851   3.058  0.7540 -0.1658 -0.3560
  558MOL0     C73583  11.410   7.983   2.995 -0.1289 -1.0451  0.2865
  558MOL0     C73584  11.559   7.978   2.952  0.0517 -0.7592 -0.5593
  558MOL0     C73585  11.628   8.112   2.947 -0.6532 -0.4574 -0.2464
  558MOL0     C73586  11.778   8.084   2.901 -0.1785  0.5693 -0.1521
  558MOL0     C73587  11.861   8.207   2.900 -0.1763  0.8504 -1.0790
  558MOL0     C73588  11.951   8.287   2.891 -0.3415 -0.3367 -0.0591
  558MOL0     C73589  11.212   7.688   2.990 -0.6062  0.1624  0.7900
  558MOL0     C73590  11.076   7.652   2.974 -0.0584 -0.1125 -0.1176
  558MOL0     H73591  10.648   7.812   2.810 -0.4196  1.8406  0.6354
  558MOL0     H73592  10.409   7.787   2.744 -1.0561  2.0284 -0.2213
  558MOL0     H73593  10.137   7.683   2.720 -1.2694 -1.4422  1.6550
  558MOL0     H73594  10.191   7.844   2.747  0.5647 -0.6305 -0.7433
  558MOL0     H73595   9.944   7.727   2.860  0.4650 -3.2049 -4.1275
  558MOL0     H73596   9.957   7.812   2.714 -1.1916  3.0511 -0.1193
  558MOL0     H73597  10.071   8.015   2.842 -1.4234  0.2843 -0.1890
  558MOL0     H73598  10.044   7.920   2.990 -0.9924 -3.3863 -0.0648
  558MOL0     H73599   9.801   7.927   2.942  1.3865 -0.2681  0.2271
  558MOL0     H73600   9.864   8.093   2.984 -1.5973  1.3304 -0.6343
  558MOL0     H73601   9.784   8.006   2.714 -0.2954  0.4548  0.1847
  558MOL0     H73602   9.891   8.134   2.748  0.0458  0.6965  1.2692
  558MOL0     H73603   9.650   8.200   2.719  3.4468  0.0354 -1.6129
  558MOL0     H73604   9.738   8.271   2.846  0.9094 -0.3725  1.2761
  558MOL0     H73605   9.647   8.118   3.017  0.6906  1.8028  0.8506
  558MOL0     H73606   9.542   8.238   2.943 -0.8260  1.1821 -0.3072
  558MOL0     H73607   9.569   7.957   2.852  2.1679  1.5214  1.8232
  558MOL0     H73608   9.444   8.063   2.789 -0.7413  0.2547  0.2373
  558MOL0     H73609   9.213   8.110   2.961  0.4874  0.6455  0.5517
  558MOL0     H73610   9.097   7.908   3.246  0.8666 -0.0936 -0.1714
  558MOL0     H73611   9.031   7.984   3.094  1.8953 -0.7770 -0.7038
  558MOL0     H73612   9.097   8.202   3.170  1.9383 -2.3607 -2.4131
  558MOL0     H73613   9.166   8.133   3.313  0.9849  0.6820 -1.2828
  558MOL0     H73614   8.952   8.051   3.403  0.7448 -1.3203 -0.9955
  558MOL0     H73615   8.953   8.229   3.384 -0.9632 -1.5742  0.2400
  558MOL0     H73616   8.732   8.130   3.298 -0.3013  1.2980 -1.7664
  558MOL0     H73617   8.847   8.031   3.201 -0.4051 -1.8218  2.2984
  558MOL0     H73618   8.890   8.432   2.961  0.5368  1.1600 -0.1863
  558MOL0     H73619   8.851   8.677   3.017 -0.1212 -1.9070 -1.8271
  558MOL0     H73620   8.571   9.031   3.360 -0.3723  2.8635  0.4205
  558MOL0     H73621   8.625   9.250   3.402  1.6620  2.3107 -1.7545
  558MOL0     H73622   9.047   9.345   3.548 -0.8481 -3.3408  0.4588
  558MOL0     H73623   8.915   9.333   3.668  1.3056  0.6450  0.3297
  558MOL0     H73624   9.011   9.560   3.499 -1.7240 -1.8694 -1.3793
  558MOL0     H73625   9.011   9.557   3.684 -0.4733  1.1462  0.4143
  558MOL0     H73626   8.776   9.588   3.503  0.7515 -0.7768 -1.4053
  558MOL0     H73627   8.840   9.706   3.604 -0.0323 -0.3032 -1.6640
  558MOL0     H73628   8.684   9.441   3.680 -1.2257  2.1396 -2.2425
  558MOL0     H73629   8.805   9.516   3.796  1.0609  0.9409 -0.5452
  558MOL0     H73630   8.543   9.622   3.684 -0.5439 -0.5869  0.0407
  558MOL0     H73631   8.674   9.725   3.767  0.3857 -0.4649 -2.5068
  558MOL0     H73632   8.647   9.630   3.970 -1.5272  4.6258 -1.4217
  558MOL0     H73633   8.545   9.493   3.926 -1.4661  1.1640  3.8526
  558MOL0     H73634   8.425   9.634   4.044 -0.6346 -0.2523 -0.4069
  558MOL0     H73635   8.491   9.787   3.956 -0.3719  0.4441 -2.8125
  558MOL0     H73636   8.357   9.750   3.769  1.2138 -1.3224 -0.4984
  558MOL0     H73637   8.252   9.718   3.912  0.6193 -0.1803  0.0116
  558MOL0     H73638   9.024   9.138   3.512 -0.3038  0.1162 -2.0382
  558MOL0     H73639   8.965   8.902   3.481 -1.2331 -1.6563  1.5302
  558MOL0     H73640   8.694   8.570   3.403  0.2746 -2.7701  1.0082
  558MOL0     H73641   8.713   8.343   3.348 -0.7620  0.7878 -0.4015
  558MOL0     H73642  10.303   7.672   3.122 -1.4965 -0.3697 -2.1235
  558MOL0     H73643  10.563   7.680   3.201  1.1279 -0.6703  0.2143
  558MOL0     H73644  10.938   7.932   3.123  1.6120  3.0173 -1.5156
  558MOL0     H73645  11.178   7.968   3.164  1.5050  0.5927 -1.3390
  558MOL0     H73646  11.401   8.060   3.072  1.0948 -2.7236  2.2069
  558MOL0     H73647  11.356   8.003   2.901 -0.7817 -0.0545  0.8583
  558MOL0     H73648  11.612   7.924   3.031 -0.0373 -2.8309 -1.8693
  558MOL0     H73649  11.568   7.925   2.857  3.3848  1.4988 -1.6581
  558MOL0     H73650  11.627   8.148   3.050  0.4727 -0.1588 -0.3258
  558MOL0     H73651  11.576   8.176   2.875 -1.3185 -1.1078 -0.3537
  558MOL0     H73652  11.834   8.026   2.974  2.1923 -1.8922 -3.6169
  558MOL0     H73653  11.783   8.034   2.804 -4.4296 -1.4194  0.4427
  558MOL0     H73654  12.024   8.366   2.897 -0.3593 -0.3792  0.9401
  558MOL0     H73655  11.294   7.628   2.952 -1.5188 -0.1476 -0.7708
  558MOL0     H73656  11.055   7.554   2.932 -1.4666 -0.1018  0.5094
  559MOL0     O73657   2.030   3.474   8.818  0.7502 -0.0216 -0.0772
  559MOL0     C73658   2.037   3.536   8.925  0.4086  0.7037 -0.2448
  559MOL0     O73659   1.945   3.548   9.021 -0.1636  0.3725  0.2334
  559MOL0     C73660   1.833   3.469   9.020 -0.0276  0.4835  0.5794
  559MOL0     C73661   1.712   3.527   8.990 -0.1802 -0.3286  0.0047
  559MOL0     C73662   1.596   3.450   8.963 -0.4980 -0.3890  0.1883
  559MOL0     C73663   1.604   3.310   8.974  0.4111  0.4422  0.1147
  559MOL0     O73664   1.482   3.249   8.939 -0.3590  0.3510  0.1764
  559MOL0     C73665   1.486   3.123   8.862  0.4142 -0.1568 -0.1913
  559MOL0     C73666   1.358   3.115   8.773  0.2571 -0.1323  0.6941
  559MOL0     C73667   1.237   3.155   8.848 -1.0164  0.3738 -0.5065
  559MOL0     C73668   1.114   3.139   8.770  0.0659 -0.1097  0.9187
  559MOL0     C73669   0.997   3.175   8.849 -0.2953 -0.9821  0.2632
  559MOL0     C73670   0.876   3.176   8.758  0.7073 -0.0127  0.0265
  559MOL0     C73671   0.761   3.228   8.851  0.0246 -0.3633 -0.1528
  559MOL0     C73672   0.631   3.213   8.777  0.2648 -0.1586  0.4918
  559MOL0     N73673   0.518   3.304   8.803 -0.8384 -0.2520  0.3175
  559MOL0     C73674   0.524   3.442   8.816  1.3403 -0.2587 -0.1306
  559MOL0     C73675   0.431   3.467   8.913 -0.6446 -0.1801  0.7362
  559MOL0     C73676   0.414   3.604   8.970 -0.3117  0.1757  0.3099
  559MOL0     C73677   0.299   3.628   9.061 -0.0395 -0.4900 -0.3597
  559MOL0     C73678   0.271   3.773   9.082 -0.6572  0.3722  0.0395
  559MOL0     C73679   0.242   3.851   8.958  0.3814 -0.2681  0.3580
  559MOL0     O73680   0.154   3.793   8.865 -0.4997  0.2650 -0.2923
  559MOL0     C73681   0.023   3.795   8.902 -0.1818 -0.4070  0.5548
  559MOL0     C73682  -0.058   3.709   8.836  0.7072  0.0908  0.3927
  559MOL0     C73683  -0.197   3.703   8.865 -0.1444  0.3599 -0.6552
  559MOL0     C73684  -0.251   3.783   8.970 -0.8867  0.1867  0.2737
  559MOL0     C73685  -0.397   3.772   8.998  0.1509  0.6831  0.0497
  559MOL0     O73686  -0.474   3.682   8.922  0.1378 -1.4939 -0.2709
  559MOL0     C73687  -0.608   3.659   8.933  0.6179  0.3712  0.0878
  559MOL0     C73688  -0.664   3.577   8.833 -0.3152  0.1872 -0.8218
  559MOL0     C73689  -0.798   3.532   8.846  0.4992 -0.6327 -0.1608
  559MOL0     C73690  -0.880   3.587   8.953  0.3850 -0.5077 -1.3140
  559MOL0     O73691  -1.006   3.544   8.963  0.5549  0.7483  0.1570
  559MOL0     C73692  -1.096   3.606   9.056 -0.3338 -0.2372 -0.5037
  559MOL0     C73693  -1.234   3.540   9.060 -0.4129 -0.3706 -0.6213
  559MOL0     C73694  -1.317   3.590   8.937  0.1874 -0.2527  0.9089
  559MOL0     C73695  -1.470   3.570   8.948 -0.4196  0.4233 -0.1503
  559MOL0     C73696  -1.557   3.621   8.832  0.0467 -0.6565 -0.7894
  559MOL0     C73697  -1.714   3.597   8.861 -0.2719  0.0501  0.5736
  559MOL0     C73698  -1.750   3.451   8.873  0.0710  0.8002  0.0659
  559MOL0     C73699  -1.904   3.427   8.854 -0.2407  0.6449  0.6615
  559MOL0    Cl73700  -1.965   3.468   8.690  0.1862  0.0711  0.1962
  559MOL0     C73701  -0.833   3.698   9.020  0.1188 -0.1325 -0.1559
  559MOL0     C73702  -0.691   3.728   9.026 -0.3486  0.8150  0.9729
  559MOL0     O73703  -0.437   3.833   9.095 -0.0681 -0.7566  0.1680
  559MOL0     C73704  -0.164   3.869   9.040 -0.1222 -0.3972  1.0284
  559MOL0     C73705  -0.032   3.873   9.002 -0.1348  0.0907  0.2074
  559MOL0     N73706   0.367   3.350   8.944 -0.1882 -1.0466  0.0638
  559MOL0     N73707   0.411   3.261   8.877 -0.0350  0.5229 -0.7070
  559MOL0     C73708   1.731   3.246   9.004  0.2486  0.8724 -0.2247
  559MOL0     C73709   1.842   3.330   9.031  0.7497  0.1561 -0.1261
  559MOL0     C73710   2.163   3.611   8.952 -0.3090 -1.1576  0.2920
  559MOL0     C73711   2.253   3.622   8.849 -0.2408  0.5330 -0.5825
  559MOL0     C73712   2.384   3.667   8.872  0.0720  0.3731  1.3636
  559MOL0     C73713   2.419   3.725   8.997  0.0954 -0.1760 -0.2885
  559MOL0     O73714   2.541   3.802   9.021  1.4173  0.2951  0.5896
  559MOL0     C73715   2.555   3.857   9.153  0.4884  0.9648  0.0202
  559MOL0     C73716   2.664   3.953   9.151  0.2451  0.2217 -0.2565
  559MOL0     C73717   2.724   3.952   9.291 -0.0446  0.4334 -0.7738
  559MOL0     C73718   2.843   4.047   9.279 -0.3245  0.1507  0.0192
  559MOL0     C73719   2.885   4.074   9.416  1.0735 -0.2045  0.0954
  559MOL0     C73720   2.910   4.106   9.532 -0.1596  0.0410  0.5476
  559MOL0     C73721   2.321   3.717   9.100 -0.1443 -0.5883 -0.6821
  559MOL0     C73722   2.189   3.672   9.075  0.3686  0.5183  0.5793
  559MOL0     H73723   1.715   3.634   8.968  0.1154 -0.0999  1.1161
  559MOL0     H73724   1.502   3.491   8.928  0.1958 -1.0088 -2.6585
  559MOL0     H73725   1.474   3.041   8.933 -4.1501 -0.9407 -1.4744
  559MOL0     H73726   1.582   3.106   8.812  0.6464 -1.4482  0.6526
  559MOL0     H73727   1.356   3.010   8.744  0.0748 -1.0657  3.7582
  559MOL0     H73728   1.370   3.184   8.689  0.1073 -1.2105 -0.2354
  559MOL0     H73729   1.244   3.261   8.876 -0.0683  0.1660  0.0702
  559MOL0     H73730   1.239   3.112   8.948 -0.7159  1.4993 -0.0094
  559MOL0     H73731   1.125   3.194   8.677 -2.1054 -0.0558  0.6600
  559MOL0     H73732   1.108   3.030   8.756 -0.9319  0.1764 -1.2234
  559MOL0     H73733   1.008   3.277   8.888  0.1195 -0.9444  0.0557
  559MOL0     H73734   0.975   3.100   8.925 -1.3076  1.2586  2.2947
  559MOL0     H73735   0.852   3.075   8.727 -3.4920  1.2025 -1.2766
  559MOL0     H73736   0.895   3.228   8.663  0.1878 -1.7309 -1.0563
  559MOL0     H73737   0.760   3.169   8.943  1.9382  0.7373  0.6111
  559MOL0     H73738   0.774   3.330   8.886  0.3262 -0.1321 -0.9213
  559MOL0     H73739   0.596   3.113   8.804 -0.0162  0.3913  2.2752
  559MOL0     H73740   0.652   3.221   8.670 -1.1320  2.6954  0.3539
  559MOL0     H73741   0.582   3.511   8.757 -0.4416  1.2251 -0.2275
  559MOL0     H73742   0.415   3.676   8.888 -3.0506  1.5496  1.3689
  559MOL0     H73743   0.504   3.621   9.030  2.0948 -1.8180 -2.3900
  559MOL0     H73744   0.322   3.582   9.158  2.5480  4.1889  1.6072
  559MOL0     H73745   0.211   3.579   9.019 -2.0702  1.0339  1.8278
  559MOL0     H73746   0.183   3.775   9.147 -1.6023 -1.6354 -1.0843
  559MOL0     H73747   0.355   3.814   9.137 -0.8318  0.4067  0.2812
  559MOL0     H73748   0.336   3.856   8.901  0.7151 -0.2983  0.8960
  559MOL0     H73749   0.204   3.951   8.978 -0.2674 -0.6027  0.8167
  559MOL0     H73750  -0.029   3.637   8.760 -1.6527 -0.4846 -0.0432
  559MOL0     H73751  -0.257   3.627   8.816 -1.0352 -1.3682  2.8067
  559MOL0     H73752  -0.600   3.540   8.753 -0.6083  3.7778 -2.9685
  559MOL0     H73753  -0.848   3.464   8.778 -2.2652  1.1996 -0.1243
  559MOL0     H73754  -1.106   3.714   9.041  0.2039 -0.1702 -0.4034
  559MOL0     H73755  -1.046   3.591   9.153 -0.7644 -3.0567 -0.6277
  559MOL0     H73756  -1.266   3.584   9.155  0.1647 -1.9089  0.3123
  559MOL0     H73757  -1.229   3.431   9.061 -1.0917 -0.4258  1.8107
  559MOL0     H73758  -1.287   3.538   8.845 -1.4018  0.2598  0.0677
  559MOL0     H73759  -1.300   3.697   8.922 -1.6566  0.0399  0.6627
  559MOL0     H73760  -1.487   3.462   8.954 -0.1886  0.4709  2.0744
  559MOL0     H73761  -1.519   3.629   9.027  1.2485  1.1946  0.3505
  559MOL0     H73762  -1.521   3.571   8.741 -0.1093 -0.0856 -1.1670
  559MOL0     H73763  -1.540   3.729   8.834 -1.1966 -0.4328  2.3415
  559MOL0     H73764  -1.771   3.644   8.779  2.7955  0.0159 -1.7699
  559MOL0     H73765  -1.740   3.655   8.950 -3.1101  2.3250 -1.5034
  559MOL0     H73766  -1.703   3.393   8.793 -0.1063 -0.6419  0.9650
  559MOL0     H73767  -1.721   3.406   8.968 -0.5925 -0.5833 -0.3634
  559MOL0     H73768  -1.963   3.474   8.933 -0.9308 -2.0098  1.8137
  559MOL0     H73769  -1.925   3.320   8.858 -0.4552  0.6596  0.0149
  559MOL0     H73770  -0.906   3.749   9.081 -0.0922 -1.9784  1.2326
  559MOL0     H73771  -0.660   3.800   9.101 -0.6949  2.1944 -0.1646
  559MOL0     H73772  -0.203   3.929   9.122 -0.2982  0.1997  0.5179
  559MOL0     H73773   0.026   3.949   9.054  2.1686 -0.7766 -0.9481
  559MOL0     H73774   1.741   3.138   9.002 -1.3698  0.5738  2.3047
  559MOL0     H73775   1.935   3.277   9.051  0.6093 -0.0643 -0.0429
  559MOL0     H73776   2.224   3.570   8.758 -3.5214  0.9298  0.1130
  559MOL0     H73777   2.450   3.680   8.787 -2.7907 -0.1779 -1.1026
  559MOL0     H73778   2.572   3.772   9.219  0.5295  1.9679  1.3313
  559MOL0     H73779   2.460   3.909   9.164 -0.2744 -0.5450  0.8820
  559MOL0     H73780   2.745   3.927   9.082  0.4463 -0.9860  0.4166
  559MOL0     H73781   2.639   4.051   9.108 -1.5707  0.0300  0.3141
  559MOL0     H73782   2.748   3.850   9.321 -3.7647 -0.7234 -1.2383
  559MOL0     H73783   2.651   3.988   9.364 -0.4610 -1.1988 -0.3374
  559MOL0     H73784   2.923   3.997   9.223 -0.1165 -0.2168  0.6370
  559MOL0     H73785   2.818   4.138   9.224  1.2651  0.2530 -0.5778
  559MOL0     H73786   2.927   4.141   9.632  1.0605 -0.9864  0.7330
  559MOL0     H73787   2.334   3.749   9.202  0.7855  0.9009 -1.2462
  559MOL0     H73788   2.114   3.666   9.154  0.0431 -0.7812  0.2035
  560MOL0     O73789   4.050  10.424   8.221  0.4239  0.5788  0.0730
  560MOL0     C73790   4.109  10.447   8.112 -1.1319  0.3190 -0.3843
  560MOL0     O73791   4.069  10.404   7.986 -0.2694  0.2897  0.2741
  560MOL0     C73792   3.984  10.307   7.972 -0.8921  0.6247  0.3243
  560MOL0     C73793   3.861  10.294   8.035  0.2199  0.4093  0.5659
  560MOL0     C73794   3.774  10.193   8.004 -0.4022 -0.7510  0.4915
  560MOL0     C73795   3.811  10.094   7.903 -0.0887 -0.1802 -0.5074
  560MOL0     O73796   3.734   9.979   7.876 -0.4404 -0.5206 -0.1071
  560MOL0     C73797   3.632   9.944   7.963  0.0887 -0.5252 -1.2822
  560MOL0     C73798   3.532   9.846   7.907  0.3090 -1.0436 -0.5212
  560MOL0     C73799   3.458   9.773   8.016  0.3088 -0.3782 -0.4166
  560MOL0     C73800   3.544   9.658   8.066  0.6614  0.5916 -0.4592
  560MOL0     C73801   3.501   9.619   8.211 -0.3060 -0.1965  0.6809
  560MOL0     C73802   3.367   9.562   8.194  0.0262 -0.3122 -0.0299
  560MOL0     C73803   3.318   9.499   8.333 -0.2802 -0.1365  0.8940
  560MOL0     C73804   3.216   9.377   8.328  0.3205 -0.0217 -0.1683
  560MOL0     N73805   3.092   9.404   8.257  0.1915  0.1033  0.0919
  560MOL0     C73806   2.969   9.434   8.310 -1.1850  0.2339 -0.5326
  560MOL0     C73807   2.882   9.430   8.208  0.6001  0.1998 -0.0061
  560MOL0     C73808   2.725   9.465   8.208 -0.1248  0.3888  0.0301
  560MOL0     C73809   2.699   9.613   8.177  0.5247  0.7300 -0.4134
  560MOL0     C73810   2.552   9.661   8.167 -0.1287  0.9360  0.1463
  560MOL0     C73811   2.467   9.577   8.069 -0.2548 -0.2894 -0.8403
  560MOL0     O73812   2.350   9.656   8.054  0.0805 -0.6093 -0.1237
  560MOL0     C73813   2.249   9.591   7.990 -0.2838  0.5034 -0.1870
  560MOL0     C73814   2.129   9.658   7.999 -0.3479  0.5140 -0.2189
  560MOL0     C73815   2.010   9.591   7.945 -0.8624 -0.3419  0.2079
  560MOL0     C73816   2.010   9.463   7.890  0.4335  0.0002  0.2819
  560MOL0     C73817   1.886   9.405   7.831  0.2394  0.3004 -0.2452
  560MOL0     O73818   1.884   9.273   7.791 -0.0228  0.2317 -0.4952
  560MOL0     C73819   1.753   9.226   7.755  0.1631 -0.3652  0.3430
  560MOL0     C73820   1.653   9.211   7.852 -1.0041  0.6076 -0.1167
  560MOL0     C73821   1.520   9.185   7.813 -0.2764 -0.3514  0.0687
  560MOL0     C73822   1.491   9.155   7.678 -0.2240 -0.1767 -0.1330
  560MOL0     O73823   1.358   9.125   7.648  0.4008 -0.5041 -0.2105
  560MOL0     C73824   1.303   9.155   7.514  0.5582 -0.2505 -0.9802
  560MOL0     C73825   1.152   9.147   7.496  0.8996  0.7698 -0.1948
  560MOL0     C73826   1.069   9.221   7.598  0.3188  0.0691  0.2171
  560MOL0     C73827   0.914   9.205   7.576  0.6861  0.2787 -0.2021
  560MOL0     C73828   0.828   9.287   7.667 -0.5739 -0.1353  0.4883
  560MOL0     C73829   0.681   9.304   7.611  0.5312 -0.2649 -0.4172
  560MOL0     C73830   0.585   9.197   7.653  0.9723  0.9176 -0.0803
  560MOL0     C73831   0.435   9.225   7.616 -0.1262 -0.1655  0.1333
  560MOL0    Cl73832   0.315   9.112   7.683  0.1020 -0.3491  0.3339
  560MOL0     C73833   1.591   9.177   7.589  0.3584 -0.1363  0.4171
  560MOL0     C73834   1.717   9.207   7.624  1.0679 -0.0237 -0.0210
  560MOL0     O73835   1.801   9.488   7.801  0.5852  0.3421 -0.0150
  560MOL0     C73836   2.138   9.404   7.879 -0.0138 -0.0549 -0.3173
  560MOL0     C73837   2.256   9.468   7.930  0.0049  0.4052  1.0597
  560MOL0     N73838   2.954   9.397   8.096  0.9936  0.5229 -0.0137
  560MOL0     N73839   3.078   9.377   8.128  0.0624  0.3594 -0.3420
  560MOL0     C73840   3.926  10.115   7.830 -0.2109 -0.4828 -0.5054
  560MOL0     C73841   4.011  10.220   7.865 -0.1277  0.8900  0.0791
  560MOL0     C73842   4.235  10.530   8.124 -0.6162  1.4077 -0.3269
  560MOL0     C73843   4.270  10.603   8.237 -0.0406 -0.5035  0.5411
  560MOL0     C73844   4.391  10.676   8.246  0.1916 -0.0907  0.0545
  560MOL0     C73845   4.483  10.671   8.139  0.0773 -0.1140  0.2839
  560MOL0     O73846   4.603  10.732   8.128 -0.5175 -0.2396  0.0227
  560MOL0     C73847   4.686  10.731   8.252 -0.0831 -0.3022  0.1666
  560MOL0     C73848   4.809  10.809   8.208 -0.6805  0.0277  0.1768
  560MOL0     C73849   4.886  10.834   8.340 -0.1573  0.2751  0.2530
  560MOL0     C73850   4.996  10.951   8.319  0.2787 -0.4296  0.4950
  560MOL0     C73851   4.944  11.083   8.291 -0.5023 -0.1682  0.3174
  560MOL0     C73852   4.920  11.200   8.289  0.2295  0.2365 -0.5070
  560MOL0     C73853   4.438  10.605   8.030 -0.6907  0.9656 -0.3748
  560MOL0     C73854   4.317  10.540   8.019  0.3650  0.6435  1.0562
  560MOL0     H73855   3.834  10.368   8.110 -0.4372  0.7700 -0.0090
  560MOL0     H73856   3.679  10.198   8.056 -0.0025 -0.5809  1.2131
  560MOL0     H73857   3.576  10.031   7.999 -1.3077 -0.8313 -2.6179
  560MOL0     H73858   3.687   9.900   8.047  1.9568  1.1021 -1.5834
  560MOL0     H73859   3.577   9.772   7.839 -0.2617 -1.9757  0.0871
  560MOL0     H73860   3.457   9.913   7.864  0.1443 -0.5602  0.5073
  560MOL0     H73861   3.378   9.724   7.960 -0.5694 -2.1598  2.1739
  560MOL0     H73862   3.409   9.835   8.093  0.5538 -0.5064 -0.1561
  560MOL0     H73863   3.549   9.572   7.999  1.2237  0.5866 -0.4168
  560MOL0     H73864   3.650   9.679   8.080  0.7685 -1.0415  1.6681
  560MOL0     H73865   3.496   9.708   8.274 -0.5624  0.7076 -0.5778
  560MOL0     H73866   3.570   9.547   8.255  0.9163  0.9146  0.6362
  560MOL0     H73867   3.359   9.477   8.125  1.7755  0.5535 -1.3785
  560MOL0     H73868   3.300   9.643   8.164  1.2197  0.2321 -1.3395
  560MOL0     H73869   3.406   9.465   8.390 -1.4772 -1.7806  1.8481
  560MOL0     H73870   3.273   9.581   8.390  2.3688  0.5117  2.2378
  560MOL0     H73871   3.183   9.345   8.427  0.0776 -0.8671 -0.5158
  560MOL0     H73872   3.263   9.296   8.272  0.5918  0.0636 -0.0640
  560MOL0     H73873   2.939   9.445   8.413 -2.1011 -0.7115 -0.6679
  560MOL0     H73874   2.691   9.433   8.306 -0.2028  1.8178  0.4889
  560MOL0     H73875   2.670   9.409   8.131  0.8351 -0.4233 -0.0970
  560MOL0     H73876   2.747   9.640   8.083  0.7630  0.1397 -0.4648
  560MOL0     H73877   2.754   9.664   8.257  1.6718 -1.6902  0.4326
  560MOL0     H73878   2.507   9.654   8.267  0.9099  2.0691  0.7316
  560MOL0     H73879   2.549   9.764   8.130 -0.7652  0.6274 -0.6638
  560MOL0     H73880   2.447   9.475   8.103 -2.1280 -0.8332 -3.2942
  560MOL0     H73881   2.518   9.573   7.972  1.2770  0.3504 -0.0913
  560MOL0     H73882   2.131   9.758   8.043  2.4618  0.3972  0.1163
  560MOL0     H73883   1.921   9.653   7.955 -0.6498 -0.0032  0.0609
  560MOL0     H73884   1.666   9.231   7.958 -1.9018  0.4371  0.0409
  560MOL0     H73885   1.450   9.180   7.896  0.8748 -1.5024  1.0142
  560MOL0     H73886   1.351   9.073   7.459 -3.4996 -2.1572 -2.0611
  560MOL0     H73887   1.328   9.259   7.491  2.3839 -0.3215  0.4547
  560MOL0     H73888   1.133   9.040   7.504  0.0959  0.9076 -0.1997
  560MOL0     H73889   1.131   9.177   7.393  1.3157  0.1202 -0.4762
  560MOL0     H73890   1.092   9.328   7.586  1.3432 -0.2172 -0.4887
  560MOL0     H73891   1.100   9.194   7.699  1.9738  0.5539 -0.1318
  560MOL0     H73892   0.890   9.240   7.476  0.7144  3.3732  0.7870
  560MOL0     H73893   0.886   9.100   7.594  2.4059 -0.0827  0.5333
  560MOL0     H73894   0.866   9.389   7.675 -3.3948  0.9905  0.3826
  560MOL0     H73895   0.816   9.234   7.762  4.5611 -2.0870  0.4062
  560MOL0     H73896   0.686   9.313   7.502 -0.3956 -1.2938 -0.5650
  560MOL0     H73897   0.648   9.399   7.654  1.8918 -0.1272  0.3985
  560MOL0     H73898   0.617   9.109   7.597 -1.7869  1.4476 -2.7039
  560MOL0     H73899   0.591   9.183   7.762  0.6332  3.2976  0.2976
  560MOL0     H73900   0.432   9.237   7.507 -0.2192 -0.4011  0.1094
  560MOL0     H73901   0.413   9.323   7.659  0.7334  0.1882 -0.2020
  560MOL0     H73902   1.559   9.166   7.486 -1.9198 -1.0663  1.1588
  560MOL0     H73903   1.789   9.219   7.543  1.4195 -4.9572 -0.7740
  560MOL0     H73904   2.149   9.307   7.833  1.9086 -0.7682  1.4693
  560MOL0     H73905   2.351   9.415   7.925  0.1965  0.8492 -0.6288
  560MOL0     H73906   3.944  10.047   7.747 -1.3260 -0.1818 -1.0059
  560MOL0     H73907   4.108  10.226   7.817  0.3873 -1.7147  0.6764
  560MOL0     H73908   4.206  10.613   8.324  1.8377  1.0843  1.8462
  560MOL0     H73909   4.422  10.733   8.333  2.9287 -0.1623 -0.7939
  560MOL0     H73910   4.713  10.628   8.278 -2.4370 -0.4466  2.3912
  560MOL0     H73911   4.636  10.782   8.334  2.0705 -1.1145  2.0881
  560MOL0     H73912   4.872  10.754   8.138  0.7372  0.0857  1.3663
  560MOL0     H73913   4.768  10.901   8.165 -0.5300 -0.7969 -1.8522
  560MOL0     H73914   4.932  10.740   8.371 -0.9383 -0.9399 -2.0221
  560MOL0     H73915   4.827  10.870   8.424  1.4438  1.2920  0.9874
  560MOL0     H73916   5.049  10.955   8.415 -1.8495  1.6406  1.6873
  560MOL0     H73917   5.068  10.912   8.247  1.8804  1.1408  1.1662
  560MOL0     H73918   4.885  11.299   8.307 -0.1836 -0.2268  1.3845
  560MOL0     H73919   4.516  10.612   7.955  1.0232  0.8783  1.3079
  560MOL0     H73920   4.305  10.490   7.923 -1.4907  2.2998  0.3576
  561MOL0     O73921   8.404   8.073   7.402  0.2060 -0.5045 -0.2336
  561MOL0     C73922   8.425   8.022   7.293 -0.1742 -0.5219 -0.1321
  561MOL0     O73923   8.325   7.978   7.197 -0.9635  0.2729  0.1186
  561MOL0     C73924   8.192   8.004   7.224  0.4374 -0.7046  0.0036
  561MOL0     C73925   8.147   8.136   7.245 -0.4483 -0.7428  0.4471
  561MOL0     C73926   8.007   8.170   7.243  1.1167  0.2264 -0.2184
  561MOL0     C73927   7.927   8.056   7.237  1.2237 -0.0019  0.0902
  561MOL0     O73928   7.793   8.064   7.234  0.2866  0.5420 -0.1269
  561MOL0     C73929   7.722   8.083   7.356 -0.3417 -0.7373  0.8371
  561MOL0     C73930   7.638   8.219   7.357  0.3075  0.2645  0.6494
  561MOL0     C73931   7.566   8.236   7.222  0.4400 -0.3668  0.0204
  561MOL0     C73932   7.440   8.142   7.212 -0.3847 -0.6984 -0.2648
  561MOL0     C73933   7.356   8.164   7.086  0.0370 -0.0658 -0.3651
  561MOL0     C73934   7.210   8.182   7.106  0.7013 -0.5673  0.3566
  561MOL0     C73935   7.147   8.261   6.976 -0.4325  0.0636  0.9225
  561MOL0     C73936   7.012   8.314   7.009  0.7277 -0.3103 -0.1014
  561MOL0     N73937   6.929   8.208   7.064  0.3029  0.4244 -0.9630
  561MOL0     C73938   6.873   8.092   7.003  0.5772 -0.3787 -0.6163
  561MOL0     C73939   6.811   8.030   7.109 -0.6979  0.2925  0.4118
  561MOL0     C73940   6.741   7.896   7.089  0.0330  0.0691 -0.0007
  561MOL0     C73941   6.597   7.914   7.098  0.0599 -0.6721  0.1373
  561MOL0     C73942   6.514   7.786   7.072 -0.1583 -0.8061 -0.6589
  561MOL0     C73943   6.362   7.813   7.086 -0.3756  0.0142  0.5289
  561MOL0     O73944   6.297   7.681   7.078 -0.1930  1.4717 -0.2940
  561MOL0     C73945   6.155   7.673   7.081 -0.2904 -0.6899 -0.0631
  561MOL0     C73946   6.082   7.557   7.077 -0.3827  0.4511  0.3034
  561MOL0     C73947   5.941   7.557   7.080 -0.2432  0.2297  0.9223
  561MOL0     C73948   5.864   7.671   7.067 -0.3321 -0.4285  0.4880
  561MOL0     C73949   5.724   7.668   7.043  1.1678  0.0285 -0.1002
  561MOL0     O73950   5.675   7.786   6.999  0.3283  0.3761 -0.4045
  561MOL0     C73951   5.536   7.787   6.984 -0.3324 -0.4479 -0.3981
  561MOL0     C73952   5.452   7.704   6.899  0.5139  0.1915 -0.2017
  561MOL0     C73953   5.311   7.721   6.904 -0.5985  0.1747 -0.5398
  561MOL0     C73954   5.244   7.816   6.978 -0.2818  0.1588 -0.1573
  561MOL0     O73955   5.105   7.825   6.968 -0.8443 -0.7843  0.5564
  561MOL0     C73956   5.067   7.890   6.845 -0.0460  0.4700 -0.0546
  561MOL0     C73957   4.944   7.817   6.793 -0.0259 -0.5011 -0.3876
  561MOL0     C73958   4.875   7.898   6.688  0.0309  0.4396 -0.8983
  561MOL0     C73959   4.739   7.855   6.654  0.4901  0.1689  0.2340
  561MOL0     C73960   4.663   7.964   6.586 -0.1882 -0.6430  0.2227
  561MOL0     C73961   4.509   7.950   6.591 -0.0680  0.7190  0.1147
  561MOL0     C73962   4.451   7.811   6.557 -0.2779  0.6275  0.0894
  561MOL0     C73963   4.304   7.808   6.541  0.9307 -0.2621 -0.2066
  561MOL0    Cl73964   4.223   7.858   6.691  0.5554 -0.0719  0.4176
  561MOL0     C73965   5.330   7.897   7.064 -0.0349  0.1740  0.5258
  561MOL0     C73966   5.474   7.888   7.062 -0.1728 -0.5103 -0.1266
  561MOL0     O73967   5.669   7.562   7.054 -0.3265 -0.3632  0.0015
  561MOL0     C73968   5.932   7.796   7.065 -0.6968  0.6376  0.2495
  561MOL0     C73969   6.071   7.787   7.082 -0.2004 -0.4113  0.6753
  561MOL0     N73970   6.810   8.118   7.220  1.1311  0.7192  0.5806
  561MOL0     N73971   6.882   8.209   7.193 -0.6246 -1.3359  0.5425
  561MOL0     C73972   7.968   7.922   7.214 -0.2663  1.1827 -0.1171
  561MOL0     C73973   8.104   7.898   7.206 -0.6232 -0.6739  0.5234
  561MOL0     C73974   8.564   7.963   7.275  0.4142  0.2036  0.3499
  561MOL0     C73975   8.675   7.977   7.362 -0.4560 -0.9640  0.3730
  561MOL0     C73976   8.806   7.946   7.325 -0.1303  0.0045  0.5050
  561MOL0     C73977   8.830   7.890   7.196 -0.2291 -0.2903 -0.5134
  561MOL0     O73978   8.961   7.865   7.159 -0.3894  0.0665  0.4341
  561MOL0     C73979   9.068   7.888   7.251 -0.1502  0.4707  0.1813
  561MOL0     C73980   9.200   7.850   7.187  0.1629  0.7790  0.5728
  561MOL0     C73981   9.316   7.846   7.294  0.4537 -0.6610  0.5425
  561MOL0     C73982   9.448   7.814   7.221  1.3271 -0.1010  0.0887
  561MOL0     C73983   9.494   7.944   7.166  0.3358  0.9108 -0.4456
  561MOL0     C73984   9.536   8.045   7.114 -0.5035  0.1390 -0.1033
  561MOL0     C73985   8.716   7.859   7.118  0.0154 -0.3446  0.7200
  561MOL0     C73986   8.588   7.899   7.152 -0.3446 -0.7773 -0.2567
  561MOL0     H73987   8.215   8.217   7.271  1.4464 -1.8448 -0.8045
  561MOL0     H73988   7.964   8.270   7.245  0.4796 -0.0542  0.1268
  561MOL0     H73989   7.788   8.082   7.444 -0.6351  1.6997  1.1647
  561MOL0     H73990   7.656   7.997   7.367  0.5702 -1.6267 -0.3598
  561MOL0     H73991   7.705   8.305   7.362 -1.0970  1.3388  1.8751
  561MOL0     H73992   7.567   8.220   7.440  0.8288 -2.4298  1.2271
  561MOL0     H73993   7.632   8.220   7.137  0.3117 -0.5224 -0.0503
  561MOL0     H73994   7.529   8.339   7.214 -1.6236 -1.1875 -2.7905
  561MOL0     H73995   7.475   8.039   7.197  2.2098  0.1130 -0.4074
  561MOL0     H73996   7.380   8.144   7.303  1.2713 -1.0702  0.8755
  561MOL0     H73997   7.375   8.084   7.014 -2.1972 -1.3833  0.4083
  561MOL0     H73998   7.393   8.247   7.026  0.1936 -1.3711 -2.1439
  561MOL0     H73999   7.193   8.242   7.196  1.8087 -0.7201  0.6875
  561MOL0     H74000   7.158   8.089   7.126 -2.5791  1.6512  3.3836
  561MOL0     H74001   7.206   8.345   6.938 -0.4634 -0.5877 -0.5999
  561MOL0     H74002   7.138   8.193   6.891  0.3269  0.5948  0.4088
  561MOL0     H74003   6.960   8.360   6.924 -1.1854  1.3059  1.8088
  561MOL0     H74004   7.021   8.397   7.080 -2.1894  0.5189 -0.5717
  561MOL0     H74005   6.891   8.060   6.901 -1.7227  2.8708 -2.2300
  561MOL0     H74006   6.784   7.825   7.160  0.3335 -1.3034 -1.5125
  561MOL0     H74007   6.781   7.866   6.992  3.2914  3.8343 -0.0727
  561MOL0     H74008   6.558   7.977   7.018  2.8661  3.0235  1.4044
  561MOL0     H74009   6.570   7.961   7.193 -0.5320  1.6252 -1.0962
  561MOL0     H74010   6.541   7.738   6.978  0.9562 -0.2164 -0.6515
  561MOL0     H74011   6.532   7.729   7.163  0.2127 -0.0787 -0.2629
  561MOL0     H74012   6.317   7.882   7.013 -1.1267 -0.1429  0.8364
  561MOL0     H74013   6.331   7.856   7.181 -2.7913  2.5076 -1.2166
  561MOL0     H74014   6.122   7.457   7.067 -0.9096  0.4116 -2.2722
  561MOL0     H74015   5.883   7.466   7.081 -2.5711  1.5036 -1.9914
  561MOL0     H74016   5.505   7.621   6.852  1.8657  0.9663 -0.1008
  561MOL0     H74017   5.267   7.657   6.828  2.6744 -2.3773 -0.5296
  561MOL0     H74018   5.144   7.903   6.768  0.5700 -1.9706  0.0908
  561MOL0     H74019   5.042   7.991   6.878 -1.1122  0.1846  0.0370
  561MOL0     H74020   4.879   7.790   6.877 -0.3009 -1.0783 -0.7836
  561MOL0     H74021   4.971   7.720   6.751 -1.9845 -2.8205  3.1771
  561MOL0     H74022   4.930   7.894   6.593  0.4301 -4.4629 -0.7074
  561MOL0     H74023   4.879   7.997   6.733  2.0379 -0.3868  0.9402
  561MOL0     H74024   4.747   7.774   6.582  3.7585  0.5511  0.0056
  561MOL0     H74025   4.691   7.826   6.748  2.8168  0.7385  1.6781
  561MOL0     H74026   4.680   7.969   6.478  0.7349 -1.7588  0.2888
  561MOL0     H74027   4.690   8.061   6.629  0.7326  0.1262 -1.9513
  561MOL0     H74028   4.469   8.015   6.513  0.1959  0.1751 -0.4826
  561MOL0     H74029   4.481   7.986   6.690  4.0190  1.5769  1.1678
  561MOL0     H74030   4.507   7.776   6.470 -0.9149  0.2177 -0.1684
  561MOL0     H74031   4.479   7.744   6.638  0.2551  0.3203 -0.3403
  561MOL0     H74032   4.268   7.710   6.508  0.9842 -0.7275  1.0675
  561MOL0     H74033   4.281   7.881   6.462  0.0228 -2.6354 -2.2548
  561MOL0     H74034   5.278   7.974   7.121  1.4873  0.4097  1.6660
  561MOL0     H74035   5.519   7.960   7.131 -1.2332  0.3277 -0.2698
  561MOL0     H74036   5.881   7.891   7.074  1.6525  1.8807  1.1927
  561MOL0     H74037   6.120   7.883   7.072 -1.2717 -0.0086 -1.3446
  561MOL0     H74038   7.888   7.850   7.197 -3.0268  4.2052 -1.0081
  561MOL0     H74039   8.142   7.800   7.180  0.1992  0.0457 -1.1127
  561MOL0     H74040   8.674   8.029   7.457 -0.1896 -0.9255  0.3539
  561MOL0     H74041   8.882   7.961   7.401  0.7357  0.1826 -0.3789
  561MOL0     H74042   9.046   7.834   7.344 -1.1133 -1.5721 -1.1615
  561MOL0     H74043   9.083   7.995   7.268  0.8289  0.1492  1.5856
  561MOL0     H74044   9.186   7.747   7.152  0.4882  1.0529 -0.3821
  561MOL0     H74045   9.223   7.923   7.110  1.1716  1.4918  1.5233
  561MOL0     H74046   9.287   7.766   7.362 -1.2134 -1.2932 -0.8462
  561MOL0     H74047   9.324   7.940   7.351 -2.0974  0.3705 -0.6479
  561MOL0     H74048   9.520   7.788   7.299  1.2502  1.2183  0.6285
  561MOL0     H74049   9.440   7.735   7.146 -2.0726  0.0148  0.1699
  561MOL0     H74050   9.562   8.136   7.065 -2.1539  1.6288  1.6197
  561MOL0     H74051   8.729   7.822   7.017  0.2657  0.8371  0.3122
  561MOL0     H74052   8.512   7.884   7.075 -1.9918  0.1408  1.1158
  562MOL0     O74053  10.798   3.943   7.574  0.0452 -0.5755 -0.7004
  562MOL0     C74054  10.847   4.015   7.662  0.2283 -0.3567  0.1954
  562MOL0     O74055  10.772   4.098   7.733 -0.1800  0.1806  0.3139
  562MOL0     C74056  10.638   4.068   7.731 -0.4117 -0.7794 -0.3395
  562MOL0     C74057  10.583   3.965   7.814 -0.6427 -1.5040  0.0287
  562MOL0     C74058  10.446   3.947   7.812  0.2306 -0.1859 -0.0721
  562MOL0     C74059  10.355   4.009   7.733 -0.2133 -0.3080 -0.0010
  562MOL0     O74060  10.223   3.965   7.716  0.2250  0.0898 -0.4255
  562MOL0     C74061  10.177   3.828   7.740  0.0165  0.0855 -0.1839
  562MOL0     C74062  10.031   3.824   7.701 -0.0002 -1.1425  0.2985
  562MOL0     C74063   9.973   3.687   7.719 -0.2378  0.1052 -0.1159
  562MOL0     C74064   9.854   3.655   7.622  0.3908 -0.0306 -0.5411
  562MOL0     C74065   9.771   3.536   7.672 -0.4333 -1.2735 -0.3336
  562MOL0     C74066   9.651   3.513   7.568  0.2111 -0.7416 -0.8123
  562MOL0     C74067   9.553   3.401   7.624  0.3082  0.3726  0.4461
  562MOL0     C74068   9.442   3.364   7.515 -0.4664 -0.9619 -0.2198
  562MOL0     N74069   9.429   3.220   7.485 -0.2882 -0.9626  0.2829
  562MOL0     C74070   9.523   3.141   7.419 -0.3731  0.0169  0.0913
  562MOL0     C74071   9.466   3.018   7.405  0.9369  1.1113 -0.1255
  562MOL0     C74072   9.542   2.896   7.353  0.2276 -0.2487 -0.6374
  562MOL0     C74073   9.689   2.878   7.411  0.1907  0.6966 -0.6352
  562MOL0     C74074   9.689   2.885   7.565 -1.1635  0.0508  0.6034
  562MOL0     C74075   9.843   2.882   7.613  0.1583  0.7131 -0.9219
  562MOL0     O74076   9.897   3.018   7.628 -0.4882 -0.4754 -0.4423
  562MOL0     C74077  10.032   3.025   7.660  0.0445  0.6207 -0.7586
  562MOL0     C74078  10.126   2.920   7.653  0.1211  0.0021 -0.4887
  562MOL0     C74079  10.264   2.962   7.672  0.4971  1.0358  0.2214
  562MOL0     C74080  10.304   3.098   7.695  0.0462  0.8590  0.3090
  562MOL0     C74081  10.451   3.130   7.700  0.2526  0.2406 -0.3615
  562MOL0     O74082  10.544   3.049   7.642 -0.8755 -0.4953  0.5142
  562MOL0     C74083  10.674   3.073   7.655 -0.6823 -0.0658 -0.7094
  562MOL0     C74084  10.740   3.203   7.618  1.3895 -1.0513 -0.3139
  562MOL0     C74085  10.878   3.222   7.623 -0.1195  0.1811  0.4427
  562MOL0     C74086  10.957   3.113   7.655 -0.3931  0.6079 -0.7186
  562MOL0     O74087  11.095   3.133   7.643  0.3865 -0.3083 -0.2866
  562MOL0     C74088  11.203   3.035   7.656  0.5368 -0.2154  0.7016
  562MOL0     C74089  11.335   3.102   7.681  0.7680 -0.1034 -1.4747
  562MOL0     C74090  11.390   3.188   7.564  0.6662  0.3791 -0.6983
  562MOL0     C74091  11.534   3.238   7.599 -0.1441  0.6774 -0.0369
  562MOL0     C74092  11.616   3.264   7.463  0.0351 -0.0713 -0.7365
  562MOL0     C74093  11.759   3.325   7.492 -0.8248 -0.2765 -0.1584
  562MOL0     C74094  11.820   3.362   7.360 -0.3294  0.2122  0.0661
  562MOL0     C74095  11.961   3.425   7.373  0.0844 -0.3037  1.0352
  562MOL0    Cl74096  12.024   3.466   7.198 -0.0319 -0.3394 -0.0690
  562MOL0     C74097  10.903   3.001   7.704  0.3798  0.2712  0.0059
  562MOL0     C74098  10.760   2.973   7.704 -0.0796 -0.8279  0.3981
  562MOL0     O74099  10.473   3.240   7.749  0.6464 -0.2172 -0.5185
  562MOL0     C74100  10.201   3.188   7.717 -0.2300  0.4352 -0.7373
  562MOL0     C74101  10.067   3.153   7.689 -0.6920  0.4072 -0.1133
  562MOL0     N74102   9.335   3.023   7.460 -0.5250 -0.3157 -0.1114
  562MOL0     N74103   9.316   3.153   7.495  0.7037  0.4022 -0.1109
  562MOL0     C74104  10.407   4.117   7.658  0.5284  0.7198 -0.9921
  562MOL0     C74105  10.547   4.141   7.662  1.3324 -0.8032 -0.2823
  562MOL0     C74106  10.989   4.033   7.683 -0.5918 -0.1481 -0.3488
  562MOL0     C74107  11.045   4.072   7.809  0.2625 -0.1217 -0.6924
  562MOL0     C74108  11.183   4.068   7.838  0.7260 -0.5065 -0.4335
  562MOL0     C74109  11.267   4.024   7.741 -0.7097 -0.1297  0.1919
  562MOL0     O74110  11.408   4.003   7.768 -1.2429  0.2819 -0.0506
  562MOL0     C74111  11.470   4.052   7.890  0.0249  0.9227 -0.4600
  562MOL0     C74112  11.622   4.036   7.893  0.4170  1.2433  0.2421
  562MOL0     C74113  11.648   3.891   7.962 -0.7333 -0.4350  0.4797
  562MOL0     C74114  11.796   3.874   7.935  0.3347  1.2475 -0.1755
  562MOL0     C74115  11.836   3.735   7.969 -0.0832 -0.0520 -0.3750
  562MOL0     C74116  11.881   3.624   7.999  0.8938 -0.2868  0.6644
  562MOL0     C74117  11.219   4.004   7.615  0.0954 -0.4820 -0.6044
  562MOL0     C74118  11.082   4.005   7.584 -0.1006 -0.3493  0.0771
  562MOL0     H74119  10.651   3.895   7.861  2.4402 -0.1438 -2.0290
  562MOL0     H74120  10.418   3.863   7.874 -2.4770 -0.3904 -1.4236
  562MOL0     H74121  10.172   3.800   7.846 -0.2998 -1.6420 -0.6264
  562MOL0     H74122  10.233   3.752   7.684 -0.5316 -2.3015  2.2773
  562MOL0     H74123  10.024   3.854   7.596  3.3420 -1.0537 -0.0064
  562MOL0     H74124   9.991   3.896   7.773  3.8511 -0.9411  2.5327
  562MOL0     H74125   9.946   3.674   7.824 -3.2766 -0.3748 -0.8668
  562MOL0     H74126  10.056   3.617   7.700 -0.6058 -0.3751  0.0164
  562MOL0     H74127   9.789   3.743   7.621 -2.1134 -1.7751  0.2282
  562MOL0     H74128   9.884   3.633   7.519 -1.4833 -0.6756 -0.9866
  562MOL0     H74129   9.735   3.547   7.775  0.1371  0.0781 -0.2532
  562MOL0     H74130   9.834   3.446   7.675 -0.6519 -1.4252  2.0624
  562MOL0     H74131   9.690   3.469   7.477  1.2410  2.7233 -2.2357
  562MOL0     H74132   9.593   3.604   7.549  0.7741  0.0971  1.1353
  562MOL0     H74133   9.624   3.319   7.634  3.7693  2.6570 -2.5308
  562MOL0     H74134   9.507   3.430   7.719 -1.2433 -0.2605 -0.0759
  562MOL0     H74135   9.458   3.416   7.420 -1.1650  0.7116  0.5533
  562MOL0     H74136   9.351   3.403   7.562  1.0652  2.2393  0.3599
  562MOL0     H74137   9.626   3.169   7.395  0.3079 -2.2624  0.1508
  562MOL0     H74138   9.540   2.893   7.244 -1.7495  0.3026 -0.6654
  562MOL0     H74139   9.484   2.808   7.384  0.0007  0.6256  1.6289
  562MOL0     H74140   9.746   2.966   7.378  2.5794 -1.4113 -2.5534
  562MOL0     H74141   9.735   2.783   7.383 -1.5173 -0.5576  0.5862
  562MOL0     H74142   9.638   2.975   7.601 -3.1712 -0.0086 -1.8023
  562MOL0     H74143   9.635   2.795   7.595  0.2186 -1.9560 -2.3656
  562MOL0     H74144   9.906   2.820   7.548  1.8831 -3.6910  4.1657
  562MOL0     H74145   9.841   2.832   7.711 -3.3236  2.1030 -0.1186
  562MOL0     H74146  10.102   2.815   7.637 -0.0505 -0.2991  1.5381
  562MOL0     H74147  10.343   2.895   7.641 -0.8198  0.3682 -1.8619
  562MOL0     H74148  10.692   3.294   7.585  4.4202  1.6963  2.2611
  562MOL0     H74149  10.930   3.313   7.597 -1.5477  1.3652  1.5844
  562MOL0     H74150  11.200   2.972   7.566 -0.5706  1.7537 -0.7281
  562MOL0     H74151  11.177   2.968   7.738 -2.6614 -0.3226 -0.2473
  562MOL0     H74152  11.407   3.025   7.709  0.0774  0.8808  4.3050
  562MOL0     H74153  11.309   3.165   7.767 -2.4981 -2.3457 -0.5946
  562MOL0     H74154  11.318   3.270   7.562  0.5356  0.4402  2.0702
  562MOL0     H74155  11.380   3.141   7.466 -1.3290  1.4939 -1.0958
  562MOL0     H74156  11.515   3.326   7.660  0.7602  1.1967 -0.4741
  562MOL0     H74157  11.587   3.168   7.665 -0.5949  0.7890  0.4390
  562MOL0     H74158  11.554   3.332   7.403 -1.3333  1.5247  2.2543
  562MOL0     H74159  11.631   3.171   7.407 -1.3321 -1.2714  0.7668
  562MOL0     H74160  11.828   3.251   7.534  2.1445 -0.7815 -5.1095
  562MOL0     H74161  11.752   3.409   7.561  2.2696 -1.0262  1.2243
  562MOL0     H74162  11.820   3.268   7.304 -0.8362 -1.1157  2.1403
  562MOL0     H74163  11.748   3.422   7.305 -1.0713  0.3991  1.2004
  562MOL0     H74164  12.031   3.357   7.422  2.2642 -0.5325 -2.1179
  562MOL0     H74165  11.953   3.518   7.430  0.6651  1.0220 -0.9312
  562MOL0     H74166  10.973   2.930   7.747  1.4956  1.2898 -0.0906
  562MOL0     H74167  10.725   2.873   7.728 -1.1778 -0.0486  2.3318
  562MOL0     H74168  10.233   3.287   7.746  4.9687 -0.6014 -1.8829
  562MOL0     H74169   9.984   3.223   7.692 -2.2260 -1.3169 -0.5626
  562MOL0     H74170  10.341   4.176   7.597  1.3098  1.3242 -1.2639
  562MOL0     H74171  10.577   4.227   7.603  2.5308 -1.7501 -1.1115
  562MOL0     H74172  10.982   4.109   7.889 -0.2953  0.4581 -1.3823
  562MOL0     H74173  11.212   4.098   7.938 -2.2308  1.7626 -0.1351
  562MOL0     H74174  11.440   3.990   7.975  4.4087 -0.5005  0.2831
  562MOL0     H74175  11.438   4.156   7.901 -0.6274  1.0123 -2.6162
  562MOL0     H74176  11.658   4.053   7.791  3.8111  1.6468  1.3589
  562MOL0     H74177  11.673   4.116   7.948  3.4168 -0.0103 -0.4720
  562MOL0     H74178  11.584   3.814   7.918 -1.3379 -1.2589  2.6712
  562MOL0     H74179  11.622   3.899   8.068 -0.7129  0.1595  0.4464
  562MOL0     H74180  11.815   3.897   7.830  2.8179  2.5153  0.4914
  562MOL0     H74181  11.849   3.944   7.999 -1.9527  3.7969 -0.9118
  562MOL0     H74182  11.913   3.522   8.012 -1.0385 -1.1968 -1.1657
  562MOL0     H74183  11.286   3.976   7.535  1.6107 -0.0293  0.4723
  562MOL0     H74184  11.032   3.992   7.489 -0.0069  1.1242 -0.1816
  563MOL0     O74185   6.724   7.815  10.236  0.0289  0.3752 -0.4743
  563MOL0     C74186   6.730   7.690  10.244  0.6135 -0.4889 -0.3438
  563MOL0     O74187   6.625   7.608  10.213  0.3455 -0.0492  0.2620
  563MOL0     C74188   6.490   7.647  10.190  0.5804  0.3833  0.1688
  563MOL0     C74189   6.425   7.759  10.250 -0.2935 -0.2689 -0.3327
  563MOL0     C74190   6.296   7.799  10.208 -0.3972  0.0113  0.5822
  563MOL0     C74191   6.234   7.738  10.098  0.4372 -1.2517  0.1881
  563MOL0     O74192   6.124   7.793  10.044 -0.3377 -0.0248  0.0777
  563MOL0     C74193   6.001   7.710  10.026 -0.4780 -0.0670  0.5066
  563MOL0     C74194   5.881   7.773  10.090  1.3068  0.2448  0.2473
  563MOL0     C74195   5.745   7.712  10.029 -0.0519  0.0403 -0.7611
  563MOL0     C74196   5.717   7.754   9.884  0.1201 -0.7465  0.6828
  563MOL0     C74197   5.576   7.696   9.839 -0.2423 -0.0238  0.6200
  563MOL0     C74198   5.455   7.762   9.901 -0.5067  0.1863 -0.0926
  563MOL0     C74199   5.315   7.704   9.844 -0.0683  0.6154 -0.7482
  563MOL0     C74200   5.257   7.761   9.709  0.1028 -0.0929  0.5299
  563MOL0     N74201   5.160   7.667   9.649  0.1363 -0.0494 -0.4343
  563MOL0     C74202   5.039   7.630   9.708  0.1031  0.4333  0.3421
  563MOL0     C74203   4.975   7.557   9.610 -1.1125 -0.1969 -0.1978
  563MOL0     C74204   4.864   7.463   9.623 -0.2929  0.7005 -0.6289
  563MOL0     C74205   4.738   7.525   9.547 -0.3491 -0.3201 -0.2086
  563MOL0     C74206   4.627   7.421   9.541 -0.4109  0.3300  0.0340
  563MOL0     C74207   4.491   7.485   9.500  0.0862 -0.1378  0.1115
  563MOL0     O74208   4.401   7.373   9.482 -0.2716 -0.1230 -0.5062
  563MOL0     C74209   4.288   7.368   9.405 -1.3875 -0.4833 -0.4418
  563MOL0     C74210   4.252   7.246   9.342  0.1622  0.3505 -0.9356
  563MOL0     C74211   4.142   7.243   9.251 -0.2916 -1.0453  0.5297
  563MOL0     C74212   4.071   7.360   9.228  0.7319 -0.3580  0.0395
  563MOL0     C74213   3.959   7.370   9.134 -0.4561 -0.5168  0.2702
  563MOL0     O74214   3.897   7.488   9.116  0.2325 -0.2533 -0.1367
  563MOL0     C74215   3.769   7.483   9.060  0.1914 -0.4909  0.2436
  563MOL0     C74216   3.748   7.570   8.958 -0.4867 -0.7545  0.7699
  563MOL0     C74217   3.637   7.569   8.882 -0.3404  0.1034  0.2365
  563MOL0     C74218   3.524   7.502   8.927  0.1130 -0.3899  0.2445
  563MOL0     O74219   3.401   7.496   8.856  0.0104 -0.3530 -0.4904
  563MOL0     C74220   3.405   7.510   8.710 -1.6293  0.0113 -0.3648
  563MOL0     C74221   3.261   7.519   8.646  0.1248 -0.2165  0.0985
  563MOL0     C74222   3.172   7.394   8.665  0.1352 -0.4368 -0.3567
  563MOL0     C74223   3.029   7.431   8.615 -0.3590  0.0315 -0.5256
  563MOL0     C74224   2.948   7.533   8.702  0.6740  0.1307 -0.0030
  563MOL0     C74225   2.804   7.549   8.648 -0.2380  0.0291 -0.1728
  563MOL0     C74226   2.801   7.646   8.528  0.5769 -0.0654 -0.3225
  563MOL0     C74227   2.663   7.702   8.470  0.3698  0.3435 -0.3007
  563MOL0    Cl74228   2.593   7.806   8.596  0.7013  0.2813 -0.0619
  563MOL0     C74229   3.538   7.426   9.049 -0.1225 -0.4260  0.8852
  563MOL0     C74230   3.663   7.407   9.108 -0.9932  0.0920  0.1403
  563MOL0     O74231   3.923   7.266   9.083 -0.2312  0.1496 -0.2453
  563MOL0     C74232   4.102   7.478   9.288  0.4295  0.2058  0.6394
  563MOL0     C74233   4.209   7.483   9.385 -0.4921 -0.4130 -0.0369
  563MOL0     N74234   5.056   7.568   9.499 -0.6849  0.0457 -0.7934
  563MOL0     N74235   5.165   7.639   9.519  0.1685  0.2961  0.2014
  563MOL0     C74236   6.290   7.624  10.042  0.7001  0.6144 -1.0080
  563MOL0     C74237   6.418   7.583  10.080  0.4781  0.0698  0.1480
  563MOL0     C74238   6.847   7.627  10.307  0.2971  0.4895 -0.0620
  563MOL0     C74239   6.855   7.489  10.329  0.6534  1.2271 -0.6847
  563MOL0     C74240   6.973   7.438  10.387  0.5885 -0.0962  0.5469
  563MOL0     C74241   7.081   7.523  10.419  0.1581  0.1968  1.1689
  563MOL0     O74242   7.193   7.462  10.487 -0.1486 -0.3170  0.2235
  563MOL0     C74243   7.309   7.543  10.499  0.1758 -0.5418  0.2609
  563MOL0     C74244   7.310   7.594  10.646 -0.8546  0.3893 -0.6035
  563MOL0     C74245   7.432   7.673  10.695  0.9692 -0.9113 -0.7256
  563MOL0     C74246   7.569   7.624  10.645 -0.2683 -0.5942  0.0871
  563MOL0     C74247   7.589   7.480  10.662  0.9693  0.0513 -0.5899
  563MOL0     C74248   7.594   7.360  10.688 -0.2310 -0.3161 -0.7623
  563MOL0     C74249   7.067   7.659  10.383  0.3146 -0.0695  0.5175
  563MOL0     C74250   6.953   7.715  10.327 -0.2412  0.6482 -0.1135
  563MOL0     H74251   6.468   7.802  10.340 -3.3128  0.1279  1.0348
  563MOL0     H74252   6.248   7.884  10.254 -3.9529 -2.2245  1.3756
  563MOL0     H74253   6.016   7.611  10.069  0.5951  0.3978  1.2441
  563MOL0     H74254   5.987   7.703   9.917 -3.5968  3.4873  0.4712
  563MOL0     H74255   5.883   7.880  10.070 -0.2856  0.3293  0.3586
  563MOL0     H74256   5.884   7.746  10.197 -0.1622  1.1548  0.5525
  563MOL0     H74257   5.665   7.755  10.090  0.2238  2.1063 -1.7860
  563MOL0     H74258   5.743   7.603  10.039 -0.0632  0.0358 -0.8102
  563MOL0     H74259   5.715   7.863   9.867  0.6096 -0.9148 -0.5943
  563MOL0     H74260   5.798   7.709   9.824  1.1156  0.5445  1.0001
  563MOL0     H74261   5.580   7.589   9.858 -1.7818 -0.6237 -1.9620
  563MOL0     H74262   5.563   7.713   9.731 -2.2465  0.0779  0.8450
  563MOL0     H74263   5.463   7.870   9.887  0.5328  0.3011  1.2019
  563MOL0     H74264   5.461   7.746  10.010 -3.9656 -0.7220  0.0935
  563MOL0     H74265   5.326   7.595   9.837 -2.6705  0.1147  1.1704
  563MOL0     H74266   5.235   7.720   9.918 -0.4460 -0.0624 -0.9925
  563MOL0     H74267   5.341   7.782   9.643 -0.9137  0.9579 -0.4685
  563MOL0     H74268   5.207   7.854   9.737 -0.0870  0.6654 -2.0845
  563MOL0     H74269   5.006   7.665   9.805  0.0147  2.0007 -0.2144
  563MOL0     H74270   4.840   7.436   9.726  0.0258  0.1785 -0.6843
  563MOL0     H74271   4.893   7.370   9.573  0.8329  0.9753 -0.5113
  563MOL0     H74272   4.769   7.558   9.448 -2.2423  1.5030 -0.2522
  563MOL0     H74273   4.702   7.614   9.599 -0.0423 -0.6303  0.5551
  563MOL0     H74274   4.657   7.352   9.460 -0.0683 -0.2378  0.6344
  563MOL0     H74275   4.620   7.373   9.639  0.6707 -3.0063 -1.3645
  563MOL0     H74276   4.500   7.549   9.412  1.9406 -3.3526 -2.2272
  563MOL0     H74277   4.463   7.538   9.592  2.9418  2.8713 -0.5542
  563MOL0     H74278   4.320   7.165   9.365  1.0476  0.6268 -2.4405
  563MOL0     H74279   4.134   7.149   9.198  4.4493 -1.4478  0.0432
  563MOL0     H74280   3.827   7.627   8.911 -0.7366 -0.6380  0.4873
  563MOL0     H74281   3.649   7.622   8.789 -1.1769  0.3896  0.2833
  563MOL0     H74282   3.451   7.432   8.648  1.5600  2.4359 -1.3176
  563MOL0     H74283   3.456   7.605   8.695  3.1114 -2.4596 -1.9610
  563MOL0     H74284   3.263   7.545   8.540 -2.6633  0.0728  0.0546
  563MOL0     H74285   3.211   7.604   8.693 -1.4611 -1.2644  0.3781
  563MOL0     H74286   3.181   7.360   8.769  0.7376  0.6372 -0.0360
  563MOL0     H74287   3.216   7.311   8.609  0.9149 -0.0885 -0.2798
  563MOL0     H74288   3.029   7.468   8.512  0.5998  2.1549  0.1847
  563MOL0     H74289   2.970   7.340   8.628 -0.9890  0.5289  0.2183
  563MOL0     H74290   2.996   7.630   8.718  1.4742 -0.5725  2.1761
  563MOL0     H74291   2.948   7.492   8.803  0.7198 -2.6623 -1.0569
  563MOL0     H74292   2.739   7.578   8.731  0.5144 -3.1001  1.6489
  563MOL0     H74293   2.772   7.454   8.605  0.3060  1.0995 -3.2058
  563MOL0     H74294   2.864   7.733   8.549  3.1684 -2.2433  1.6851
  563MOL0     H74295   2.843   7.601   8.437 -0.6093  0.4619 -1.1592
  563MOL0     H74296   2.595   7.618   8.453 -2.0638  2.3761 -1.0936
  563MOL0     H74297   2.667   7.764   8.380  0.7899 -1.1501 -1.3624
  563MOL0     H74298   3.453   7.373   9.090 -1.1223  0.4370 -0.0202
  563MOL0     H74299   3.682   7.327   9.179  2.3073 -0.8855 -1.6468
  563MOL0     H74300   4.059   7.571   9.252  1.6599  1.1972  1.6178
  563MOL0     H74301   4.235   7.579   9.427  1.4367  0.0500 -2.1256
  563MOL0     H74302   6.231   7.577   9.963 -0.4289 -1.8805  1.1773
  563MOL0     H74303   6.464   7.497  10.032  2.1382 -0.2228  2.0909
  563MOL0     H74304   6.772   7.424  10.305  0.0290  1.3355  1.0182
  563MOL0     H74305   6.967   7.331  10.403 -1.2629 -0.1237 -0.1716
  563MOL0     H74306   7.319   7.626  10.429  3.2776 -1.5361 -0.6447
  563MOL0     H74307   7.397   7.480  10.478  1.1399  0.8485  0.0202
  563MOL0     H74308   7.218   7.651  10.662 -0.4085  0.7026  1.0409
  563MOL0     H74309   7.299   7.499  10.701 -1.8747 -0.3093 -1.9548
  563MOL0     H74310   7.422   7.671  10.804  0.6912  2.3736 -0.5854
  563MOL0     H74311   7.419   7.778  10.669  0.5494 -0.4642  1.1529
  563MOL0     H74312   7.580   7.644  10.538 -2.9163  1.0709  0.0375
  563MOL0     H74313   7.645   7.680  10.699 -1.8441  1.1583  0.6080
  563MOL0     H74314   7.600   7.255  10.708 -0.3008  0.2638  2.8191
  563MOL0     H74315   7.141   7.732  10.414 -0.0804  1.4992 -1.9530
  563MOL0     H74316   6.957   7.820  10.301 -0.0440  1.4333  2.8216
  564MOL0     O74317   1.200   3.566   0.066 -0.7628  0.1602  0.2312
  564MOL0     C74318   1.232   3.506   0.167  0.6814  0.0709 -0.0225
  564MOL0     O74319   1.160   3.405   0.221  0.2047 -1.1436 -0.8041
  564MOL0     C74320   1.047   3.359   0.163  1.1041  0.1620 -0.7920
  564MOL0     C74321   1.020   3.211   0.186 -0.3883 -0.0524 -0.6545
  564MOL0     C74322   0.912   3.148   0.124  0.2970  0.2520  0.1026
  564MOL0     C74323   0.818   3.224   0.046  1.2588  0.3923  0.5953
  564MOL0     O74324   0.718   3.166  -0.026 -0.6563 -1.0291  0.2901
  564MOL0     C74325   0.589   3.221   0.022 -0.8295  0.2015 -0.3046
  564MOL0     C74326   0.485   3.114   0.001  0.0618  0.3808  0.6525
  564MOL0     C74327   0.345   3.178  -0.027 -0.2775  0.0945  0.1960
  564MOL0     C74328   0.280   3.235   0.097 -0.8775  0.2604  0.1872
  564MOL0     C74329   0.152   3.304   0.071 -0.8082  0.5954  0.4888
  564MOL0     C74330   0.096   3.376   0.196 -0.6038  0.3768  0.3620
  564MOL0     C74331  -0.054   3.424   0.176  0.3478  0.0661  0.0470
  564MOL0     C74332  -0.111   3.512   0.288  0.5503  0.1031 -0.0325
  564MOL0     N74333  -0.118   3.434   0.412  0.1143 -0.2251  0.5940
  564MOL0     C74334  -0.172   3.309   0.429  1.0345  0.6939  0.5108
  564MOL0     C74335  -0.151   3.267   0.553  0.1238 -0.6897 -0.3655
  564MOL0     C74336  -0.218   3.147   0.618 -0.6152 -0.2162 -0.8189
  564MOL0     C74337  -0.341   3.188   0.696  0.2688  0.1873 -0.2611
  564MOL0     C74338  -0.450   3.242   0.607  0.0821  0.7569 -0.2855
  564MOL0     C74339  -0.578   3.268   0.691  0.1618  0.3199 -0.9684
  564MOL0     O74340  -0.562   3.332   0.811 -0.4483  0.4036 -0.6213
  564MOL0     C74341  -0.669   3.351   0.890  0.0600 -0.3482  0.3713
  564MOL0     C74342  -0.798   3.299   0.863  0.3536 -0.0135 -0.0222
  564MOL0     C74343  -0.905   3.320   0.957  0.1298 -0.6139  0.2768
  564MOL0     C74344  -0.886   3.411   1.068  0.2968  0.2388  0.4788
  564MOL0     C74345  -0.981   3.428   1.178 -0.0545  0.0142  0.4174
  564MOL0     O74346  -1.110   3.387   1.153  0.2024 -0.7289 -0.3537
  564MOL0     C74347  -1.190   3.371   1.267 -0.4665 -0.2878  0.2823
  564MOL0     C74348  -1.167   3.269   1.361  0.8167 -0.4566 -0.3244
  564MOL0     C74349  -1.245   3.253   1.474 -1.0495 -0.2152 -1.0023
  564MOL0     C74350  -1.363   3.328   1.492  0.0587  0.4865  0.5149
  564MOL0     O74351  -1.448   3.318   1.601 -0.2791 -0.3905  0.4489
  564MOL0     C74352  -1.456   3.198   1.676 -0.2189  0.2619  0.1535
  564MOL0     C74353  -1.581   3.223   1.766  0.1187  0.1347 -0.4731
  564MOL0     C74354  -1.648   3.095   1.833 -0.4667 -0.6932 -0.4436
  564MOL0     C74355  -1.783   3.124   1.898 -0.4182 -0.8966 -0.6383
  564MOL0     C74356  -1.836   2.995   1.966  0.1116 -0.8043  0.3344
  564MOL0     C74357  -1.981   3.020   2.009  0.2400  0.4636  0.0721
  564MOL0     C74358  -2.055   2.894   2.045 -0.2321 -0.7867  0.1461
  564MOL0     C74359  -2.201   2.937   2.071 -0.7948 -0.4151 -0.3791
  564MOL0    Cl74360  -2.288   2.793   2.109  0.3172  0.5037  0.3736
  564MOL0     C74361  -1.400   3.422   1.397 -0.1749  1.1758 -0.8726
  564MOL0     C74362  -1.308   3.444   1.286 -0.9726  0.6546 -1.0586
  564MOL0     O74363  -0.946   3.484   1.281 -0.0019 -0.5754 -0.9974
  564MOL0     C74364  -0.759   3.475   1.082 -0.0768  0.0988  0.8064
  564MOL0     C74365  -0.654   3.442   0.993  0.8694 -0.0221 -0.0758
  564MOL0     N74366  -0.098   3.375   0.618 -0.1748  0.3600  0.1131
  564MOL0     N74367  -0.080   3.470   0.533 -0.2342  0.3209 -0.0957
  564MOL0     C74368   0.840   3.360   0.029 -0.3802 -0.6619  1.0010
  564MOL0     C74369   0.948   3.429   0.095  0.0030  0.6709  0.5695
  564MOL0     C74370   1.350   3.549   0.241 -0.1292  0.6966 -0.5751
  564MOL0     C74371   1.423   3.454   0.311  0.0351  0.7532 -0.5776
  564MOL0     C74372   1.523   3.487   0.401  0.4855  1.0122  0.4945
  564MOL0     C74373   1.552   3.624   0.422 -0.7839  0.1178  0.4744
  564MOL0     O74374   1.655   3.666   0.504  0.1469  0.3355  0.5394
  564MOL0     C74375   1.752   3.746   0.434 -0.7606  0.3993  0.3354
  564MOL0     C74376   1.889   3.716   0.483 -0.1780 -0.1255 -0.3118
  564MOL0     C74377   1.957   3.590   0.452  0.1414  0.9356  0.1186
  564MOL0     C74378   1.946   3.478   0.557 -0.5321 -0.4452 -0.3700
  564MOL0     C74379   2.042   3.484   0.667  0.2214  0.5273  0.5141
  564MOL0     C74380   2.140   3.470   0.740 -0.2335 -0.5633  0.4550
  564MOL0     C74381   1.467   3.721   0.355  0.3649 -0.5644 -0.2436
  564MOL0     C74382   1.372   3.682   0.262 -0.5576  0.1770  0.1628
  564MOL0     H74383   1.091   3.152   0.243  1.0809 -0.1644 -2.4840
  564MOL0     H74384   0.896   3.043   0.143 -0.0648  0.3262  0.2254
  564MOL0     H74385   0.560   3.300  -0.048 -1.0072 -0.0871 -0.5630
  564MOL0     H74386   0.575   3.242   0.128 -0.5949 -0.9749 -0.0253
  564MOL0     H74387   0.486   3.036   0.078 -0.2621 -1.1967 -0.8723
  564MOL0     H74388   0.516   3.067  -0.093 -0.6050  0.1253  0.5519
  564MOL0     H74389   0.274   3.106  -0.068  1.7245 -1.0139 -1.4575
  564MOL0     H74390   0.348   3.253  -0.107 -1.2495 -0.4748 -0.3926
  564MOL0     H74391   0.264   3.145   0.156 -0.0515  0.8901  1.4192
  564MOL0     H74392   0.340   3.313   0.146  1.1603 -1.4656  0.6218
  564MOL0     H74393   0.075   3.229   0.056 -1.9940  1.4364  2.0016
  564MOL0     H74394   0.155   3.372  -0.015 -2.6869  0.8252  0.5649
  564MOL0     H74395   0.159   3.463   0.218  0.9150 -0.7633  0.6741
  564MOL0     H74396   0.104   3.309   0.282  3.3780  0.3814  0.1731
  564MOL0     H74397  -0.067   3.476   0.081  1.1777 -1.3193 -0.8536
  564MOL0     H74398  -0.098   3.324   0.183  4.5200 -1.8906  2.4363
  564MOL0     H74399  -0.215   3.535   0.262 -0.1459 -2.3481  0.4038
  564MOL0     H74400  -0.053   3.604   0.303  1.0330 -0.2989  0.5971
  564MOL0     H74401  -0.214   3.239   0.358  0.0561  1.5459  0.2108
  564MOL0     H74402  -0.160   3.105   0.700  2.1773 -0.6545 -2.8620
  564MOL0     H74403  -0.229   3.067   0.544 -0.6746 -1.9142  0.9597
  564MOL0     H74404  -0.306   3.261   0.770 -0.9343 -0.0804  0.5966
  564MOL0     H74405  -0.382   3.106   0.756  1.1125  0.5520  0.8639
  564MOL0     H74406  -0.411   3.335   0.565  1.2875  0.2494 -0.3090
  564MOL0     H74407  -0.466   3.166   0.529 -0.0623 -0.2362  0.6901
  564MOL0     H74408  -0.620   3.171   0.721  0.2645 -0.1479 -2.2913
  564MOL0     H74409  -0.645   3.324   0.626 -0.4642 -2.2759 -2.7436
  564MOL0     H74410  -0.823   3.228   0.786  0.6025 -0.8072  0.6130
  564MOL0     H74411  -0.999   3.267   0.939 -0.9011  1.5135 -1.0138
  564MOL0     H74412  -1.088   3.202   1.328  0.1116  0.6359 -4.8900
  564MOL0     H74413  -1.222   3.174   1.544 -0.3080 -0.8460 -1.9231
  564MOL0     H74414  -1.367   3.195   1.739 -1.2877 -2.2509  1.7038
  564MOL0     H74415  -1.456   3.108   1.615  4.3722  1.3481 -1.7894
  564MOL0     H74416  -1.657   3.280   1.713  2.5001  3.0551 -1.0160
  564MOL0     H74417  -1.543   3.285   1.848 -2.2669 -2.1507  2.6012
  564MOL0     H74418  -1.580   3.046   1.903 -1.0120 -0.7850  0.0317
  564MOL0     H74419  -1.666   3.017   1.758 -0.3564 -3.6349  2.3725
  564MOL0     H74420  -1.771   3.206   1.969 -1.2514 -0.2969 -1.1694
  564MOL0     H74421  -1.848   3.159   1.817 -1.2025 -0.4863  0.1447
  564MOL0     H74422  -1.772   2.975   2.052 -0.5878  0.7795  1.2443
  564MOL0     H74423  -1.811   2.908   1.903  6.3084 -2.0613  3.6787
  564MOL0     H74424  -2.022   3.053   1.913  2.5653 -3.8747 -2.7983
  564MOL0     H74425  -1.996   3.088   2.093 -0.7337  2.7931 -1.8873
  564MOL0     H74426  -2.060   2.825   1.961 -0.2816 -0.4195 -0.1506
  564MOL0     H74427  -2.025   2.834   2.131 -3.1567 -0.8626  1.2485
  564MOL0     H74428  -2.237   2.991   1.983  1.4515 -0.5349 -1.4508
  564MOL0     H74429  -2.221   3.002   2.157 -1.3463  1.0014 -1.5306
  564MOL0     H74430  -1.493   3.477   1.409 -0.1909  0.9413  0.1592
  564MOL0     H74431  -1.342   3.502   1.202  0.0525 -0.9603 -2.6541
  564MOL0     H74432  -0.749   3.543   1.166 -2.4632  3.2047 -1.2107
  564MOL0     H74433  -0.559   3.491   1.010  0.5679  0.3697  0.5190
  564MOL0     H74434   0.775   3.421  -0.031  1.4490  1.1883  0.7839
  564MOL0     H74435   0.931   3.537   0.089  0.5859  0.8118  1.3985
  564MOL0     H74436   1.404   3.348   0.293 -5.4882  0.8207  2.6215
  564MOL0     H74437   1.598   3.422   0.444  3.0460  1.8675 -2.3412
  564MOL0     H74438   1.733   3.854   0.437 -0.4352  0.4856 -0.4645
  564MOL0     H74439   1.761   3.718   0.329  0.5321 -0.9329  0.7709
  564MOL0     H74440   1.957   3.799   0.460  1.9004 -0.5817  3.3553
  564MOL0     H74441   1.881   3.713   0.592  1.1074  0.9161 -0.1506
  564MOL0     H74442   2.063   3.601   0.429  0.2797  0.9627  0.7644
  564MOL0     H74443   1.907   3.554   0.361 -1.7257 -2.3558  2.2121
  564MOL0     H74444   1.846   3.482   0.601 -1.6929  0.2882 -2.8652
  564MOL0     H74445   1.956   3.383   0.504 -2.1438 -1.1654  0.5476
  564MOL0     H74446   2.219   3.452   0.811 -0.8673  0.2836  1.3992
  564MOL0     H74447   1.498   3.824   0.367 -0.7316 -0.1242 -0.9584
  564MOL0     H74448   1.312   3.753   0.206 -0.5976  1.6941  2.0216
  565MOL0     O74449   9.694   2.487   6.494  0.0743 -0.2982  0.5965
  565MOL0     C74450   9.658   2.481   6.380  0.0175  0.5883  1.3305
  565MOL0     O74451   9.545   2.541   6.336  0.4607  0.6125  0.2099
  565MOL0     C74452   9.480   2.622   6.413 -0.7386  0.0440  0.6275
  565MOL0     C74453   9.528   2.722   6.489  0.3825 -0.0505 -0.9072
  565MOL0     C74454   9.441   2.795   6.578 -0.4721  0.4303 -0.6475
  565MOL0     C74455   9.308   2.767   6.569  1.2749 -0.2798 -0.5560
  565MOL0     O74456   9.234   2.851   6.651 -0.0421  0.0252  0.8074
  565MOL0     C74457   9.085   2.841   6.641  0.2996  0.6103 -1.2267
  565MOL0     C74458   9.038   2.973   6.715 -0.1699 -0.1104  1.1857
  565MOL0     C74459   8.887   2.992   6.690 -0.4422 -0.3027 -0.2537
  565MOL0     C74460   8.827   3.112   6.772 -0.1500  0.3724 -1.1190
  565MOL0     C74461   8.672   3.132   6.759 -0.4860 -0.5538 -0.3336
  565MOL0     C74462   8.620   3.215   6.870  0.0433 -1.0587 -1.2457
  565MOL0     C74463   8.468   3.263   6.847  0.0270 -0.0206  0.3167
  565MOL0     C74464   8.404   3.308   6.980  0.0294  0.5741  0.2539
  565MOL0     N74465   8.259   3.321   6.959 -0.1302 -0.2794 -0.1557
  565MOL0     C74466   8.188   3.399   6.865  0.3035 -0.0472  0.6125
  565MOL0     C74467   8.057   3.395   6.905 -0.4957 -0.5023  0.3289
  565MOL0     C74468   7.948   3.471   6.826 -0.6072  0.4820 -0.0622
  565MOL0     C74469   7.813   3.477   6.898 -0.2927  0.5323 -0.0229
  565MOL0     C74470   7.704   3.373   6.856 -0.3476 -0.6352 -0.8660
  565MOL0     C74471   7.570   3.400   6.931 -0.2839 -0.2647 -0.1127
  565MOL0     O74472   7.502   3.518   6.871 -0.2196  0.3957  0.1330
  565MOL0     C74473   7.369   3.524   6.884 -0.0556 -0.4550 -0.5028
  565MOL0     C74474   7.312   3.629   6.964 -0.4881  0.0953 -0.6104
  565MOL0     C74475   7.174   3.629   6.981  0.1929  0.1531 -0.0736
  565MOL0     C74476   7.089   3.525   6.924 -0.0502 -0.4603 -0.2836
  565MOL0     C74477   6.950   3.521   6.956  0.6198 -0.2635 -0.7126
  565MOL0     O74478   6.871   3.457   6.870 -0.0564  0.4956  1.0756
  565MOL0     C74479   6.738   3.425   6.906 -0.8662 -0.2088 -0.6418
  565MOL0     C74480   6.679   3.298   6.890  0.2386 -0.4391 -0.0241
  565MOL0     C74481   6.547   3.262   6.916 -1.0510 -1.0135  0.0209
  565MOL0     C74482   6.456   3.359   6.969 -0.2500  0.0721 -0.6823
  565MOL0     O74483   6.324   3.335   6.998 -0.1975  0.1328 -0.0900
  565MOL0     C74484   6.254   3.278   6.889 -0.8137  0.4279 -0.1097
  565MOL0     C74485   6.115   3.272   6.913 -0.5270 -0.2100  0.1029
  565MOL0     C74486   6.088   3.270   7.062 -0.2403 -0.7116  0.3168
  565MOL0     C74487   5.935   3.234   7.073  0.9300 -0.1774 -0.6495
  565MOL0     C74488   5.895   3.223   7.218 -0.1301  0.8295 -0.5680
  565MOL0     C74489   5.886   3.350   7.301 -0.4197 -0.4172 -0.7443
  565MOL0     C74490   5.753   3.420   7.274 -0.6607  0.0390 -0.1225
  565MOL0     C74491   5.754   3.555   7.363  0.3773  0.2423 -0.2795
  565MOL0    Cl74492   5.669   3.688   7.286 -0.0267 -0.6510 -0.0552
  565MOL0     C74493   6.509   3.486   6.992 -0.1744 -0.5563 -1.0208
  565MOL0     C74494   6.643   3.514   6.953 -0.5652  0.5858 -1.3105
  565MOL0     O74495   6.911   3.583   7.060  0.0985 -0.5209 -0.2150
  565MOL0     C74496   7.150   3.439   6.840  0.5314  0.7078 -0.1747
  565MOL0     C74497   7.283   3.438   6.819  0.3590 -0.1112 -0.6815
  565MOL0     N74498   8.052   3.313   7.017  0.1544  0.3720  0.0916
  565MOL0     N74499   8.171   3.276   7.048 -0.2606 -0.0967  0.4150
  565MOL0     C74500   9.257   2.667   6.486  0.1491 -0.4375 -0.4094
  565MOL0     C74501   9.340   2.603   6.405  0.2521 -0.2772 -0.4470
  565MOL0     C74502   9.729   2.391   6.279 -0.4008 -0.4021 -0.0202
  565MOL0     C74503   9.837   2.310   6.320 -0.4949  0.2717  0.9367
  565MOL0     C74504   9.905   2.230   6.236 -0.5988 -0.1307  0.0371
  565MOL0     C74505   9.864   2.228   6.102  0.4515  1.1560  0.7956
  565MOL0     O74506   9.926   2.136   6.016  0.2692  0.7226  0.0806
  565MOL0     C74507   9.845   2.037   5.941  0.4406 -0.3497  0.1390
  565MOL0     C74508   9.801   1.916   6.025 -0.4974  1.0056  0.0559
  565MOL0     C74509   9.905   1.829   6.102 -0.3925 -0.1710  0.3450
  565MOL0     C74510  10.044   1.816   6.017  0.1403  0.2464  0.6131
  565MOL0     C74511  10.145   1.719   6.065 -0.5258  0.8787 -0.3810
  565MOL0     C74512  10.248   1.652   6.096  0.3366 -0.1205 -0.2907
  565MOL0     C74513   9.755   2.307   6.058  0.1373 -0.1100 -0.6864
  565MOL0     C74514   9.690   2.389   6.146 -0.0494  0.0026  0.2237
  565MOL0     H74515   9.637   2.728   6.489  0.5290 -1.9577 -0.7956
  565MOL0     H74516   9.488   2.863   6.648  2.5295 -3.2202  1.2570
  565MOL0     H74517   9.064   2.750   6.698 -0.6709 -0.2937 -2.9405
  565MOL0     H74518   9.039   2.844   6.542 -1.9103 -1.3701 -0.3634
  565MOL0     H74519   9.093   3.061   6.679 -1.1285 -0.4654 -1.3480
  565MOL0     H74520   9.056   2.972   6.822 -1.2986  0.5243  1.3988
  565MOL0     H74521   8.834   2.899   6.714 -0.5052  0.1836  1.6467
  565MOL0     H74522   8.885   3.010   6.582  4.9462 -1.8729 -0.9414
  565MOL0     H74523   8.851   3.103   6.879  2.2558  3.5024 -1.2408
  565MOL0     H74524   8.880   3.201   6.737 -1.9189  0.5261 -3.6307
  565MOL0     H74525   8.617   3.037   6.762 -2.1932  0.3683 -1.2182
  565MOL0     H74526   8.658   3.176   6.660  2.1019  2.1754  0.3547
  565MOL0     H74527   8.678   3.308   6.871 -0.5167 -0.7087 -0.1092
  565MOL0     H74528   8.638   3.170   6.967  0.1160 -0.8411 -1.1567
  565MOL0     H74529   8.466   3.342   6.771  3.4804  0.9704  1.0934
  565MOL0     H74530   8.410   3.180   6.805 -0.3829 -0.7883  2.2862
  565MOL0     H74531   8.444   3.408   6.998 -1.7366  1.0242  2.0182
  565MOL0     H74532   8.434   3.249   7.067 -0.3892 -0.2488 -0.1426
  565MOL0     H74533   8.234   3.458   6.786 -2.0987  0.4489 -0.4864
  565MOL0     H74534   7.934   3.420   6.730  1.1063  2.1991 -1.3090
  565MOL0     H74535   7.979   3.575   6.814 -0.4541  0.7503  2.1513
  565MOL0     H74536   7.767   3.575   6.880 -1.8773 -0.4249 -1.5228
  565MOL0     H74537   7.824   3.466   7.006  1.6794 -0.8156 -0.3173
  565MOL0     H74538   7.683   3.396   6.751  3.7318  4.5201 -0.9797
  565MOL0     H74539   7.741   3.271   6.865 -0.6188 -0.6535  0.2419
  565MOL0     H74540   7.581   3.402   7.040  4.0406 -0.2561 -0.3747
  565MOL0     H74541   7.502   3.315   6.922 -0.7714  0.3225 -2.7870
  565MOL0     H74542   7.381   3.696   7.014  0.0617  0.8957 -2.3636
  565MOL0     H74543   7.129   3.704   7.046  1.3766 -0.5971  1.6972
  565MOL0     H74544   6.744   3.225   6.842  1.3948 -0.6130  1.6698
  565MOL0     H74545   6.522   3.161   6.887 -0.7503 -0.9739 -0.3929
  565MOL0     H74546   6.302   3.180   6.882  0.1617  0.4369  4.0583
  565MOL0     H74547   6.282   3.329   6.796 -0.3824  0.9531  0.3089
  565MOL0     H74548   6.070   3.186   6.862 -1.9304  0.4384  0.1775
  565MOL0     H74549   6.069   3.364   6.874  0.2460 -1.3998 -4.1727
  565MOL0     H74550   6.110   3.370   7.099 -0.2737  0.4922 -2.6922
  565MOL0     H74551   6.149   3.196   7.115  0.4052 -0.8541 -0.6030
  565MOL0     H74552   5.883   3.319   7.027  3.3925  1.0887 -1.2994
  565MOL0     H74553   5.903   3.143   7.022  1.0431 -1.1436  0.9702
  565MOL0     H74554   5.961   3.153   7.270 -1.2538  0.4331  0.3763
  565MOL0     H74555   5.804   3.162   7.215  1.5571 -1.9832  1.0812
  565MOL0     H74556   5.969   3.411   7.263  0.8876 -0.8063  1.3475
  565MOL0     H74557   5.901   3.334   7.408 -0.7364 -0.8152 -0.7577
  565MOL0     H74558   5.743   3.448   7.169  0.2791  1.2073  0.0695
  565MOL0     H74559   5.672   3.355   7.306 -0.5815 -0.3593 -0.7119
  565MOL0     H74560   5.856   3.594   7.368 -0.3069  1.9387  2.1923
  565MOL0     H74561   5.716   3.541   7.464  2.3052  0.6823  0.5348
  565MOL0     H74562   6.450   3.564   7.040 -3.1554 -3.9300  1.3005
  565MOL0     H74563   6.677   3.614   6.979  0.9495 -0.4720  1.0945
  565MOL0     H74564   7.096   3.369   6.776 -0.8545  1.4305  0.1564
  565MOL0     H74565   7.334   3.381   6.742  1.4475  2.4987 -2.0033
  565MOL0     H74566   9.150   2.656   6.497  0.2918  0.2104  2.3697
  565MOL0     H74567   9.304   2.518   6.348 -2.0032  0.1622  0.2274
  565MOL0     H74568   9.880   2.316   6.420  0.2844  0.9167  0.5719
  565MOL0     H74569   9.994   2.178   6.269  0.0272  1.4146  0.8823
  565MOL0     H74570   9.902   2.003   5.855 -0.9597  2.2817 -2.0047
  565MOL0     H74571   9.752   2.086   5.909 -1.0713 -2.1556  1.5020
  565MOL0     H74572   9.723   1.938   6.098  0.8105  1.7089  1.2886
  565MOL0     H74573   9.757   1.847   5.952 -4.2950  2.6411  0.5924
  565MOL0     H74574   9.858   1.732   6.122 -0.3728 -0.2551 -0.0121
  565MOL0     H74575   9.926   1.877   6.198 -1.9124 -1.0353  1.1449
  565MOL0     H74576  10.032   1.776   5.916  1.4734  3.3101 -0.8892
  565MOL0     H74577  10.096   1.912   6.008  0.1787  0.4076  2.2056
  565MOL0     H74578  10.339   1.601   6.119  0.3142  0.1104  0.3458
  565MOL0     H74579   9.725   2.306   5.953 -3.4233 -0.0164  0.1832
  565MOL0     H74580   9.602   2.444   6.114  1.5890  2.8637  0.2376
  566MOL0     O74581   5.490   6.164   8.075 -0.3220  0.4021 -0.5733
  566MOL0     C74582   5.559   6.214   8.168 -0.0415  0.7417  0.1878
  566MOL0     O74583   5.514   6.286   8.276  0.0604 -0.0170 -0.1261
  566MOL0     C74584   5.372   6.314   8.302  0.3661 -0.2441  0.9595
  566MOL0     C74585   5.265   6.308   8.204  0.6214 -0.1482 -1.8434
  566MOL0     C74586   5.132   6.328   8.253 -0.3699  0.2908  0.1800
  566MOL0     C74587   5.099   6.349   8.392 -0.2524 -0.0508  0.1873
  566MOL0     O74588   4.974   6.358   8.443  0.1175 -0.4893 -1.1850
  566MOL0     C74589   4.870   6.348   8.343 -1.2031  0.8215  0.2510
  566MOL0     C74590   4.738   6.324   8.429 -0.2963  0.2123  0.6313
  566MOL0     C74591   4.743   6.194   8.518 -0.3688 -1.0543  1.1813
  566MOL0     C74592   4.657   6.205   8.646 -0.1876  0.4655 -0.1214
  566MOL0     C74593   4.501   6.197   8.625 -0.3584  0.5278 -1.3385
  566MOL0     C74594   4.437   6.327   8.571  0.3619 -0.0133  0.6680
  566MOL0     C74595   4.292   6.310   8.524  0.3032  0.2341 -0.6715
  566MOL0     C74596   4.235   6.435   8.450  0.1348 -0.0866  0.2435
  566MOL0     N74597   4.096   6.436   8.424  0.5091  0.2233 -0.3273
  566MOL0     C74598   3.985   6.403   8.501 -0.1425 -0.4925 -0.2375
  566MOL0     C74599   3.876   6.414   8.423 -0.0440 -0.9308 -0.3493
  566MOL0     C74600   3.742   6.363   8.443 -0.4522 -0.6355 -0.2163
  566MOL0     C74601   3.631   6.465   8.404 -0.0620  0.7500  0.4333
  566MOL0     C74602   3.629   6.584   8.499  0.6248 -0.5419 -0.6782
  566MOL0     C74603   3.525   6.689   8.459 -0.2895 -0.7094  0.1567
  566MOL0     O74604   3.392   6.663   8.494 -0.1719 -0.3873  0.3979
  566MOL0     C74605   3.294   6.758   8.517  0.6892  1.0473  0.7299
  566MOL0     C74606   3.167   6.730   8.577  0.3089 -0.7067  0.4696
  566MOL0     C74607   3.059   6.819   8.585 -0.1007 -0.4816 -1.0164
  566MOL0     C74608   3.078   6.947   8.528  0.2849 -0.3868 -0.2379
  566MOL0     C74609   2.963   7.040   8.542  0.1491  0.3156  0.3153
  566MOL0     O74610   2.887   7.042   8.659  0.8178  0.2910  0.0728
  566MOL0     C74611   2.778   7.131   8.668  0.3086 -0.3021  0.1814
  566MOL0     C74612   2.766   7.209   8.787  1.0327  0.3330 -0.0894
  566MOL0     C74613   2.657   7.294   8.804  0.4732  0.4713 -0.4036
  566MOL0     C74614   2.555   7.301   8.712 -0.6161 -0.0906  0.5958
  566MOL0     O74615   2.458   7.397   8.736 -0.1525 -0.3407 -0.5170
  566MOL0     C74616   2.326   7.341   8.764  0.7917  1.0495  0.3788
  566MOL0     C74617   2.256   7.456   8.836 -0.1270 -1.1159  0.1040
  566MOL0     C74618   2.129   7.387   8.884  0.1113  0.4845 -0.0897
  566MOL0     C74619   2.031   7.479   8.972 -0.5031  0.0936 -0.7921
  566MOL0     C74620   1.977   7.600   8.890 -0.0596  0.5741  1.0446
  566MOL0     C74621   1.831   7.629   8.922  0.3644  0.0603 -0.5016
  566MOL0     C74622   1.742   7.506   8.902  0.1128  0.3072 -0.4365
  566MOL0     C74623   1.596   7.546   8.911  0.5799 -0.5007  0.1951
  566MOL0    Cl74624   1.570   7.679   9.035 -0.1341  0.3333  0.0916
  566MOL0     C74625   2.574   7.231   8.594  0.1875 -0.2146 -0.1277
  566MOL0     C74626   2.687   7.142   8.565  0.7543 -0.0546  0.4729
  566MOL0     O74627   2.948   7.117   8.442 -0.7145 -0.5968 -0.8014
  566MOL0     C74628   3.195   6.986   8.459 -0.1695  0.2818 -0.4965
  566MOL0     C74629   3.304   6.892   8.463  0.0858 -0.0863  0.3343
  566MOL0     N74630   3.913   6.458   8.295  0.1741 -0.4786 -0.7082
  566MOL0     N74631   4.048   6.460   8.299 -0.1566  0.2073 -0.4569
  566MOL0     C74632   5.210   6.357   8.473 -0.2513 -0.5217 -0.0656
  566MOL0     C74633   5.339   6.340   8.429 -0.4435  0.5260  0.2783
  566MOL0     C74634   5.701   6.200   8.154  0.3335  0.1654  0.9809
  566MOL0     C74635   5.785   6.229   8.260 -0.5125 -0.3518 -0.3249
  566MOL0     C74636   5.917   6.199   8.253 -0.3154 -0.3829  0.0665
  566MOL0     C74637   5.977   6.157   8.132 -0.1299  0.0348 -0.0811
  566MOL0     O74638   6.113   6.129   8.126 -0.2292 -0.5780 -0.6423
  566MOL0     C74639   6.192   6.226   8.049  0.4074 -1.0523  0.4544
  566MOL0     C74640   6.323   6.165   8.007  0.3457 -0.1292 -0.7564
  566MOL0     C74641   6.419   6.272   7.939  0.0824 -0.8819 -0.7315
  566MOL0     C74642   6.518   6.209   7.844 -0.6561 -0.0046 -0.0043
  566MOL0     C74643   6.605   6.105   7.900  0.1780  0.3978 -0.6395
  566MOL0     C74644   6.670   6.008   7.930  0.5832  0.9297 -0.1651
  566MOL0     C74645   5.897   6.128   8.027 -0.0038  0.6643 -0.3288
  566MOL0     C74646   5.762   6.155   8.037  0.2037 -0.5617  0.1012
  566MOL0     H74647   5.296   6.290   8.102 -0.5225 -1.2769 -2.0163
  566MOL0     H74648   5.055   6.317   8.177  2.4982  0.6978 -3.0115
  566MOL0     H74649   4.879   6.256   8.286 -3.1785  1.1918 -0.7619
  566MOL0     H74650   4.871   6.435   8.276 -1.5788 -0.7645 -1.9136
  566MOL0     H74651   4.654   6.313   8.359  1.3533  1.3882 -1.6685
  566MOL0     H74652   4.717   6.412   8.490  0.5149  0.1618  0.9889
  566MOL0     H74653   4.845   6.173   8.550 -0.1341  0.0220  1.1647
  566MOL0     H74654   4.714   6.114   8.449  2.2658  0.7989 -2.3799
  566MOL0     H74655   4.686   6.120   8.708 -1.8748 -1.9222 -2.4000
  566MOL0     H74656   4.679   6.302   8.692  0.1819  0.0491  0.5875
  566MOL0     H74657   4.443   6.177   8.716  1.5032 -0.1946 -0.2639
  566MOL0     H74658   4.493   6.114   8.554  0.1501 -1.9370  1.2956
  566MOL0     H74659   4.487   6.362   8.480 -0.0061  0.6851  0.7272
  566MOL0     H74660   4.440   6.415   8.637  1.0288  0.9287 -0.5707
  566MOL0     H74661   4.289   6.228   8.451  1.7548  0.0557 -0.5610
  566MOL0     H74662   4.229   6.282   8.609  0.5369  1.1330 -0.1858
  566MOL0     H74663   4.299   6.459   8.364  2.4975  1.2143  2.2296
  566MOL0     H74664   4.257   6.522   8.513  0.0186 -1.5285  2.3639
  566MOL0     H74665   3.982   6.366   8.603 -2.5831 -5.4440 -1.7911
  566MOL0     H74666   3.731   6.348   8.551  0.3571  0.2195 -0.0056
  566MOL0     H74667   3.719   6.268   8.396 -1.7984 -0.3047 -0.2869
  566MOL0     H74668   3.542   6.402   8.396 -0.9341  2.1180 -1.0951
  566MOL0     H74669   3.657   6.496   8.302 -0.2209 -2.6435 -0.7602
  566MOL0     H74670   3.605   6.547   8.600  4.2182  0.4808  0.6760
  566MOL0     H74671   3.726   6.633   8.498 -0.7911  2.5492 -2.9997
  566MOL0     H74672   3.540   6.708   8.352  1.3660  1.8515  0.7771
  566MOL0     H74673   3.548   6.778   8.517  0.0527 -1.9464  2.0098
  566MOL0     H74674   3.148   6.629   8.613 -0.5937 -1.0146 -0.7994
  566MOL0     H74675   2.975   6.789   8.647  1.2327  1.1654  1.8108
  566MOL0     H74676   2.849   7.199   8.856 -1.0297 -1.6035  2.3177
  566MOL0     H74677   2.642   7.354   8.893  5.1593  0.6330  0.5405
  566MOL0     H74678   2.322   7.247   8.819 -2.2667  1.0724  0.3499
  566MOL0     H74679   2.275   7.317   8.670 -0.1964 -2.3690  1.6488
  566MOL0     H74680   2.247   7.544   8.772  2.2837 -1.0318 -0.2338
  566MOL0     H74681   2.315   7.496   8.919  0.9750  0.1140 -1.2087
  566MOL0     H74682   2.170   7.309   8.948  0.2540  1.3266  0.8541
  566MOL0     H74683   2.064   7.354   8.802 -1.3665  0.2465  1.1428
  566MOL0     H74684   1.949   7.418   9.012 -0.8422  2.4846  2.5336
  566MOL0     H74685   2.073   7.524   9.062 -2.6274  1.2029 -0.2802
  566MOL0     H74686   1.979   7.571   8.784  1.1390  2.9365  0.3431
  566MOL0     H74687   2.030   7.695   8.899  2.1948 -0.0186 -3.3567
  566MOL0     H74688   1.793   7.709   8.857 -0.5764  0.0777  0.0491
  566MOL0     H74689   1.830   7.671   9.023 -0.2338 -1.7596  0.2856
  566MOL0     H74690   1.758   7.447   8.811  2.6532 -3.4411  2.1754
  566MOL0     H74691   1.751   7.425   8.974  1.3992 -1.6759 -2.6987
  566MOL0     H74692   1.541   7.460   8.951 -1.7695  1.6647  1.9497
  566MOL0     H74693   1.556   7.576   8.814  2.3080  1.7378  0.1065
  566MOL0     H74694   2.497   7.243   8.519  1.5819 -0.4061 -1.6437
  566MOL0     H74695   2.684   7.074   8.481  0.2422  0.4612  0.0559
  566MOL0     H74696   3.209   7.085   8.417 -0.9319  0.6910  0.1745
  566MOL0     H74697   3.397   6.920   8.416 -0.3655 -3.2892 -2.9341
  566MOL0     H74698   5.194   6.376   8.578 -2.0798  1.5640 -0.6350
  566MOL0     H74699   5.420   6.353   8.501  2.0465 -1.3156 -2.0062
  566MOL0     H74700   5.739   6.271   8.349  0.1265 -1.4480  0.5428
  566MOL0     H74701   5.986   6.218   8.335  1.4734 -0.4359 -1.3577
  566MOL0     H74702   6.220   6.313   8.108  4.2205 -0.4788 -1.8653
  566MOL0     H74703   6.133   6.275   7.971 -2.4292  0.5582  3.3727
  566MOL0     H74704   6.361   6.126   8.102 -1.6611 -0.6410 -0.1143
  566MOL0     H74705   6.305   6.082   7.938 -0.4089 -0.4021 -0.2517
  566MOL0     H74706   6.475   6.321   8.020 -4.4236  0.5392  1.8521
  566MOL0     H74707   6.361   6.354   7.896  1.5801 -0.0112 -1.1834
  566MOL0     H74708   6.472   6.162   7.756 -0.9934 -0.4277  0.3933
  566MOL0     H74709   6.578   6.282   7.790 -1.6669  0.2967 -0.7543
  566MOL0     H74710   6.719   5.915   7.948 -1.5389  0.1428  2.2126
  566MOL0     H74711   5.946   6.100   7.933 -0.8627  0.0524 -0.6015
  566MOL0     H74712   5.702   6.137   7.948  1.7591  1.0997 -1.3672
  567MOL0     O74713   3.917   3.514   5.290  0.0590 -0.1717 -0.2610
  567MOL0     C74714   3.961   3.466   5.181  0.2010  0.0248  0.6046
  567MOL0     O74715   3.883   3.431   5.073  0.9080 -0.2268 -0.3051
  567MOL0     C74716   3.742   3.436   5.085 -0.7818  0.3831  0.1673
  567MOL0     C74717   3.675   3.503   4.977 -0.5236  0.4615  0.4789
  567MOL0     C74718   3.543   3.525   4.987  0.2233 -0.0089 -0.1665
  567MOL0     C74719   3.465   3.475   5.084 -0.1975  0.1255 -0.0970
  567MOL0     O74720   3.329   3.509   5.084 -0.6773  0.1255  0.4783
  567MOL0     C74721   3.262   3.517   5.208  0.3493 -0.6139  0.5657
  567MOL0     C74722   3.125   3.575   5.180  0.4645  0.3807 -0.3904
  567MOL0     C74723   3.015   3.477   5.132 -0.5501 -0.0071  0.0278
  567MOL0     C74724   2.880   3.553   5.159  1.1035 -0.0715 -0.5616
  567MOL0     C74725   2.761   3.487   5.089  0.0561 -0.3082 -0.6717
  567MOL0     C74726   2.627   3.560   5.119  0.5832 -0.1433 -0.2611
  567MOL0     C74727   2.539   3.516   5.000 -0.0804  0.3564  0.6267
  567MOL0     C74728   2.402   3.569   5.009  0.3193 -0.4148 -0.4345
  567MOL0     N74729   2.311   3.497   4.927  0.9514  0.2092  0.5789
  567MOL0     C74730   2.203   3.553   4.868  0.0004 -0.4865 -0.1933
  567MOL0     C74731   2.127   3.456   4.808  0.6379  0.3569 -0.1023
  567MOL0     C74732   1.993   3.464   4.730 -0.3853 -0.0831 -0.9160
  567MOL0     C74733   1.869   3.490   4.830 -0.4276 -0.2282  0.0643
  567MOL0     C74734   1.747   3.501   4.738  0.4541 -0.4919  0.0579
  567MOL0     C74735   1.621   3.477   4.817  1.0238 -1.0499 -0.5804
  567MOL0     O74736   1.503   3.510   4.741 -0.4927 -0.8605 -0.2300
  567MOL0     C74737   1.389   3.515   4.821 -0.3877 -0.3595  0.4713
  567MOL0     C74738   1.352   3.425   4.914 -0.0561  0.7018  0.3579
  567MOL0     C74739   1.225   3.440   4.975  0.6406 -1.0521 -0.2313
  567MOL0     C74740   1.139   3.551   4.961  0.1657  0.0078 -0.2024
  567MOL0     C74741   1.003   3.573   5.020  0.6613 -0.1701 -0.3925
  567MOL0     O74742   0.926   3.681   4.972 -0.5796 -0.1159  0.9330
  567MOL0     C74743   0.798   3.696   5.020 -0.7401 -0.4919 -0.3812
  567MOL0     C74744   0.754   3.803   5.096  0.3697  0.4681  0.2449
  567MOL0     C74745   0.621   3.804   5.150 -0.1338 -0.0880 -0.4233
  567MOL0     C74746   0.525   3.708   5.104  0.0327 -0.5272 -0.3661
  567MOL0     O74747   0.404   3.733   5.157  0.4613  0.2511  0.3069
  567MOL0     C74748   0.308   3.646   5.115 -0.5076 -0.2772 -0.4180
  567MOL0     C74749   0.190   3.675   5.196 -0.3267  0.0722 -0.1873
  567MOL0     C74750   0.129   3.803   5.156  0.0470 -0.1828 -0.3064
  567MOL0     C74751  -0.007   3.805   5.234  0.4274  0.5362  0.3633
  567MOL0     C74752  -0.100   3.920   5.191  0.2087  0.1743 -0.7436
  567MOL0     C74753  -0.246   3.903   5.245  0.7910 -0.6520 -1.6252
  567MOL0     C74754  -0.345   4.016   5.185 -0.0953 -0.1660 -0.2820
  567MOL0     C74755  -0.461   4.043   5.275 -0.6323  0.2986  0.0449
  567MOL0    Cl74756  -0.598   3.936   5.233  0.0319 -0.2290 -0.4579
  567MOL0     C74757   0.566   3.619   5.005 -0.7411 -0.6455 -0.4278
  567MOL0     C74758   0.699   3.613   4.973  0.1259 -0.1022  0.2918
  567MOL0     O74759   0.956   3.492   5.103 -0.2805  0.0585 -0.3355
  567MOL0     C74760   1.182   3.640   4.866 -0.4775 -0.3345 -0.5761
  567MOL0     C74761   1.304   3.621   4.791  0.4351  0.1959 -0.0761
  567MOL0     N74762   2.189   3.337   4.844  0.7986  0.2293  0.8249
  567MOL0     N74763   2.298   3.359   4.900  0.2616 -0.3141  0.5018
  567MOL0     C74764   3.528   3.402   5.187 -0.1665  0.4027  0.1085
  567MOL0     C74765   3.667   3.374   5.186 -1.3825 -0.8838  0.5606
  567MOL0     C74766   4.104   3.431   5.174  0.7172 -0.2192  0.5579
  567MOL0     C74767   4.145   3.372   5.058  0.1600  0.5434 -0.0184
  567MOL0     C74768   4.276   3.330   5.047  0.3372  0.3849  0.8693
  567MOL0     C74769   4.373   3.361   5.145 -0.4627  0.4678  1.0261
  567MOL0     O74770   4.507   3.340   5.129 -0.6975  0.3544 -0.1152
  567MOL0     C74771   4.539   3.265   5.007 -0.5845  0.6023  0.5446
  567MOL0     C74772   4.686   3.237   4.998  0.4126 -0.4725  0.5403
  567MOL0     C74773   4.754   3.162   5.117  0.4608  0.2191 -0.4029
  567MOL0     C74774   4.911   3.157   5.109  0.1679 -0.8538  0.5564
  567MOL0     C74775   4.956   3.085   4.991 -0.5363  0.2105  0.1351
  567MOL0     C74776   5.000   3.029   4.889  0.1743 -0.3654 -0.1306
  567MOL0     C74777   4.332   3.427   5.261 -0.0727  0.4028  1.2967
  567MOL0     C74778   4.197   3.462   5.276  0.3789  0.6003 -0.3863
  567MOL0     H74779   3.730   3.534   4.889 -0.3890  1.6098  0.9528
  567MOL0     H74780   3.479   3.561   4.907 -1.7046  1.0378  1.7461
  567MOL0     H74781   3.324   3.584   5.269 -0.4415  0.0213  0.6931
  567MOL0     H74782   3.255   3.424   5.265 -1.3154  0.8109  2.8745
  567MOL0     H74783   3.138   3.667   5.123  1.3025  1.5597  1.5900
  567MOL0     H74784   3.093   3.591   5.284  1.0567 -1.1222  0.0491
  567MOL0     H74785   3.020   3.380   5.182  0.2277  0.5700  1.1171
  567MOL0     H74786   3.038   3.456   5.027  1.6723 -0.8669  0.6251
  567MOL0     H74787   2.876   3.557   5.268  5.3133 -1.9732 -0.1089
  567MOL0     H74788   2.896   3.655   5.123  0.2920  0.7649  1.3056
  567MOL0     H74789   2.766   3.378   5.098  0.6731 -0.1973  0.5425
  567MOL0     H74790   2.791   3.507   4.985  5.0719 -0.0008  0.5411
  567MOL0     H74791   2.632   3.669   5.125  0.4461  0.0367 -2.6088
  567MOL0     H74792   2.593   3.524   5.216  2.2424 -0.2221  0.3352
  567MOL0     H74793   2.575   3.550   4.902 -2.1378  4.3975  1.0624
  567MOL0     H74794   2.532   3.407   4.996 -1.4375  0.4529 -1.0879
  567MOL0     H74795   2.411   3.670   4.968 -0.3323  0.9626  2.5409
  567MOL0     H74796   2.369   3.593   5.110  1.6817  2.1499 -0.5372
  567MOL0     H74797   2.174   3.655   4.888  0.0901 -0.3772 -0.6174
  567MOL0     H74798   1.979   3.370   4.675 -0.0908  0.7214 -2.4289
  567MOL0     H74799   1.996   3.535   4.647 -1.3496 -0.4810 -1.3011
  567MOL0     H74800   1.890   3.571   4.899  2.1578 -1.0193  0.3188
  567MOL0     H74801   1.863   3.405   4.899  1.9656 -1.2424 -0.8308
  567MOL0     H74802   1.747   3.600   4.692 -0.1477 -1.4010 -2.0020
  567MOL0     H74803   1.742   3.425   4.660  0.6589 -0.3530 -0.0922
  567MOL0     H74804   1.625   3.543   4.904  0.2058  0.9264 -1.9749
  567MOL0     H74805   1.614   3.374   4.854 -1.0437 -0.9741 -0.6673
  567MOL0     H74806   1.402   3.330   4.928  1.4694  1.4938  0.5614
  567MOL0     H74807   1.196   3.373   5.055  0.4741  0.1781  0.7904
  567MOL0     H74808   0.821   3.875   5.142  0.9028 -0.1609  0.4674
  567MOL0     H74809   0.600   3.877   5.228  3.5733  1.1880 -0.3828
  567MOL0     H74810   0.351   3.547   5.129  2.2818  0.8863 -0.0295
  567MOL0     H74811   0.285   3.655   5.009 -0.1718  3.5617 -0.3093
  567MOL0     H74812   0.216   3.669   5.302  0.4703 -0.3534 -0.3998
  567MOL0     H74813   0.114   3.600   5.175  1.5291 -2.6114  1.8963
  567MOL0     H74814   0.115   3.799   5.048  1.2066 -2.5583 -0.4478
  567MOL0     H74815   0.194   3.888   5.180  2.4315 -1.7713 -0.7526
  567MOL0     H74816  -0.065   3.715   5.211  0.2626  0.8497 -0.4867
  567MOL0     H74817   0.002   3.816   5.343 -2.4214  0.1658  0.7210
  567MOL0     H74818  -0.083   3.950   5.088  0.9024 -0.6015 -0.8667
  567MOL0     H74819  -0.046   4.000   5.242 -2.2344  2.2898 -1.2827
  567MOL0     H74820  -0.248   3.917   5.353  2.3826 -2.9136 -1.2251
  567MOL0     H74821  -0.294   3.806   5.234 -0.3790 -0.3797  0.5042
  567MOL0     H74822  -0.292   4.111   5.170 -2.1991  1.0347 -0.4421
  567MOL0     H74823  -0.380   3.978   5.089 -0.8164 -0.1984 -0.0138
  567MOL0     H74824  -0.495   4.145   5.253  2.2143  0.9966 -1.6271
  567MOL0     H74825  -0.437   4.032   5.381  2.2683 -1.5460 -0.6808
  567MOL0     H74826   0.499   3.541   4.968  0.1716 -1.1002 -1.1688
  567MOL0     H74827   0.729   3.544   4.894 -1.2589  1.2623 -1.5269
  567MOL0     H74828   1.123   3.730   4.850 -2.1680 -1.1777  0.5797
  567MOL0     H74829   1.334   3.688   4.712  0.0674 -1.0714 -1.3220
  567MOL0     H74830   3.469   3.360   5.268 -1.0988 -0.3266 -0.9353
  567MOL0     H74831   3.714   3.324   5.270  3.4443  1.5457 -0.3678
  567MOL0     H74832   4.072   3.345   4.983  1.2364 -1.1068 -0.5538
  567MOL0     H74833   4.298   3.292   4.947 -2.2599 -0.6164  0.5978
  567MOL0     H74834   4.500   3.310   4.915 -1.3691 -0.0681  0.5326
  567MOL0     H74835   4.485   3.170   5.019 -0.0953  0.4421  1.5902
  567MOL0     H74836   4.704   3.188   4.902  1.0252  1.4058 -0.3506
  567MOL0     H74837   4.720   3.340   4.986  0.4718 -0.4705  0.7289
  567MOL0     H74838   4.716   3.062   5.139  2.2305 -0.5529 -0.6560
  567MOL0     H74839   4.727   3.220   5.205  1.1334 -0.8236  0.5166
  567MOL0     H74840   4.949   3.259   5.099 -0.4443 -0.5747  1.0213
  567MOL0     H74841   4.966   3.121   5.196  0.2700 -1.9822  0.0441
  567MOL0     H74842   5.025   2.972   4.802 -2.7819 -1.3301 -0.4615
  567MOL0     H74843   4.411   3.453   5.330  0.2450  2.0954  0.3375
  567MOL0     H74844   4.173   3.515   5.368 -0.4165  0.4440 -0.4990
  568MOL0     O74845   3.995   1.852   5.423 -0.2678  0.0279 -0.4608
  568MOL0     C74846   4.080   1.926   5.372 -0.5218 -0.7168 -1.6053
  568MOL0     O74847   4.056   2.047   5.318  0.7497 -0.1094  0.6491
  568MOL0     C74848   3.927   2.075   5.296 -0.6005 -0.2441  0.7195
  568MOL0     C74849   3.846   2.128   5.398 -0.1505  0.3031  0.0725
  568MOL0     C74850   3.714   2.150   5.377  0.2065 -0.8119  0.1232
  568MOL0     C74851   3.653   2.140   5.246 -0.3776 -0.8714  0.8502
  568MOL0     O74852   3.527   2.170   5.214 -0.7222 -1.1581  0.0992
  568MOL0     C74853   3.426   2.208   5.318 -0.9650 -0.2662 -0.4463
  568MOL0     C74854   3.289   2.215   5.261  0.6892  0.3649  0.6054
  568MOL0     C74855   3.273   2.303   5.140  0.7081  0.1202  0.6286
  568MOL0     C74856   3.129   2.317   5.102  0.2961  0.4722  0.4057
  568MOL0     C74857   3.104   2.360   4.959 -0.0382 -0.6096  0.5744
  568MOL0     C74858   2.960   2.400   4.933  0.3838 -0.2028 -0.4847
  568MOL0     C74859   2.862   2.283   4.937  0.8168 -0.0940 -0.5771
  568MOL0     C74860   2.708   2.319   4.938  0.0531  0.6256 -0.5657
  568MOL0     N74861   2.682   2.344   4.797 -0.5647  0.3459  0.1343
  568MOL0     C74862   2.639   2.247   4.712  0.0713  0.4556 -0.1430
  568MOL0     C74863   2.622   2.304   4.597  0.8217 -0.0422  0.6673
  568MOL0     C74864   2.564   2.239   4.476  0.7435 -1.1808  0.0628
  568MOL0     C74865   2.409   2.212   4.487  0.5642  0.0765  0.4460
  568MOL0     C74866   2.329   2.345   4.468  0.1741  0.4773 -0.3096
  568MOL0     C74867   2.183   2.320   4.500  0.3645 -0.1258 -0.2886
  568MOL0     O74868   2.136   2.215   4.418 -0.1242  0.3432  0.3272
  568MOL0     C74869   2.003   2.211   4.389 -0.1707  0.8449  0.8832
  568MOL0     C74870   1.961   2.125   4.279 -0.3862  0.6827 -0.4254
  568MOL0     C74871   1.824   2.088   4.271  0.0033 -0.5725 -0.0909
  568MOL0     C74872   1.722   2.157   4.354 -0.1201  0.3708 -0.3555
  568MOL0     C74873   1.581   2.115   4.347  0.7234  0.2734  0.7727
  568MOL0     O74874   1.486   2.201   4.389  0.3358  0.0263 -0.7730
  568MOL0     C74875   1.356   2.145   4.374 -0.0798  0.2821 -0.3532
  568MOL0     C74876   1.322   2.015   4.423  0.0572 -0.3057  0.5202
  568MOL0     C74877   1.197   1.965   4.430  0.4662  0.4691 -0.4062
  568MOL0     C74878   1.088   2.046   4.397  0.7257  0.2614 -0.4032
  568MOL0     O74879   0.960   2.001   4.416 -0.5462  0.3225  0.2783
  568MOL0     C74880   0.875   1.991   4.303  0.2363  0.0260  0.3449
  568MOL0     C74881   0.730   2.037   4.325 -0.1657  0.3302 -0.8050
  568MOL0     C74882   0.651   1.993   4.204  0.4897 -0.2156  1.1000
  568MOL0     C74883   0.506   2.039   4.204 -0.9697  0.3451 -0.5046
  568MOL0     C74884   0.423   1.991   4.083  0.5329  0.0648 -0.2221
  568MOL0     C74885   0.396   1.844   4.094 -0.6649  0.2361 -0.2004
  568MOL0     C74886   0.308   1.783   3.970  0.2346  0.5449  0.8211
  568MOL0     C74887   0.258   1.638   3.988  0.4577  0.3033 -0.6165
  568MOL0    Cl74888   0.392   1.508   4.011 -0.3028 -0.3369 -0.0207
  568MOL0     C74889   1.114   2.171   4.345 -0.8913 -1.0567  0.7367
  568MOL0     C74890   1.246   2.219   4.329  0.2902 -0.6088 -0.2093
  568MOL0     O74891   1.563   2.012   4.283  0.5597  0.3428 -0.6504
  568MOL0     C74892   1.773   2.262   4.433  0.1917  0.1810 -0.4404
  568MOL0     C74893   1.906   2.276   4.453  0.2756  0.1356  0.2005
  568MOL0     N74894   2.634   2.446   4.611  0.4321 -0.0271  0.4228
  568MOL0     N74895   2.678   2.460   4.734  0.2185 -1.0850 -0.1414
  568MOL0     C74896   3.739   2.103   5.137 -0.5636 -0.5473  0.2851
  568MOL0     C74897   3.872   2.055   5.163  0.0447  0.8316 -0.0805
  568MOL0     C74898   4.220   1.894   5.416 -0.5337  0.4680  0.2432
  568MOL0     C74899   4.316   1.994   5.413 -0.5099  0.9987  0.0729
  568MOL0     C74900   4.450   1.972   5.445  0.5602 -0.8931 -0.0613
  568MOL0     C74901   4.495   1.843   5.468 -0.5599  0.3690  0.3336
  568MOL0     O74902   4.626   1.833   5.486 -0.4878  0.2019 -0.9169
  568MOL0     C74903   4.680   1.744   5.594  0.1412  0.0048  0.1649
  568MOL0     C74904   4.717   1.804   5.730 -0.2622  0.5553 -0.6168
  568MOL0     C74905   4.774   1.693   5.827  1.2512  0.5594 -0.1392
  568MOL0     C74906   4.884   1.743   5.917 -0.4462 -0.5530 -0.1957
  568MOL0     C74907   5.013   1.738   5.848  0.5987  0.5934  0.6631
  568MOL0     C74908   5.118   1.756   5.774  0.2794 -0.0591  0.4579
  568MOL0     C74909   4.400   1.740   5.468 -0.2775 -0.5993  0.9538
  568MOL0     C74910   4.256   1.763   5.451 -0.2382  0.9059 -0.2912
  568MOL0     H74911   3.894   2.143   5.495  1.1771 -1.1643 -0.3144
  568MOL0     H74912   3.650   2.195   5.452 -0.1241 -2.9839  1.2238
  568MOL0     H74913   3.468   2.300   5.361  0.7828 -1.2487  0.0483
  568MOL0     H74914   3.417   2.128   5.392 -1.5145  2.3934  2.6220
  568MOL0     H74915   3.216   2.241   5.338 -1.5637 -0.0888 -1.2756
  568MOL0     H74916   3.260   2.121   5.214  1.2313  0.8597 -0.7865
  568MOL0     H74917   3.327   2.269   5.051 -0.2629 -0.9011  0.4118
  568MOL0     H74918   3.316   2.401   5.165  0.3337  0.3993  0.2080
  568MOL0     H74919   3.082   2.220   5.119  0.3700  0.5430  1.0616
  568MOL0     H74920   3.066   2.381   5.165 -2.4162 -0.1641 -1.4612
  568MOL0     H74921   3.128   2.275   4.894 -1.6478 -1.4197  0.9863
  568MOL0     H74922   3.163   2.444   4.922 -4.5742  2.6971 -0.0226
  568MOL0     H74923   2.960   2.437   4.830  0.2813  0.6452 -0.1894
  568MOL0     H74924   2.941   2.483   5.002  0.2215 -0.3555 -0.3480
  568MOL0     H74925   2.883   2.207   4.861 -1.1981 -0.1953 -1.0869
  568MOL0     H74926   2.884   2.239   5.034 -0.5318  0.9466  0.2383
  568MOL0     H74927   2.692   2.399   5.011 -0.3961 -3.3011  4.1346
  568MOL0     H74928   2.641   2.236   4.963  1.1147 -0.5409 -1.4574
  568MOL0     H74929   2.637   2.140   4.726  1.8470  0.0748 -2.2233
  568MOL0     H74930   2.608   2.141   4.456  0.0358 -1.0978 -2.0961
  568MOL0     H74931   2.587   2.310   4.396 -1.5682 -1.7284 -1.1643
  568MOL0     H74932   2.379   2.167   4.582 -1.7507  1.7556  0.6111
  568MOL0     H74933   2.367   2.136   4.420 -1.4871  0.7543  0.8787
  568MOL0     H74934   2.360   2.415   4.546  0.0800  1.5451 -1.2106
  568MOL0     H74935   2.339   2.396   4.373 -3.0770  1.2466 -0.3590
  568MOL0     H74936   2.132   2.413   4.474  0.5885  0.4988  1.3670
  568MOL0     H74937   2.170   2.292   4.605  1.4241 -1.3948 -0.4736
  568MOL0     H74938   2.030   2.064   4.221 -0.5951  0.0955 -0.0691
  568MOL0     H74939   1.797   2.016   4.195  1.3692 -0.5336 -0.6360
  568MOL0     H74940   1.399   1.949   4.461 -0.1631  0.3946  2.3016
  568MOL0     H74941   1.179   1.875   4.488 -0.0537  0.6297 -0.3142
  568MOL0     H74942   0.888   1.886   4.276  2.7812  0.2076  0.6100
  568MOL0     H74943   0.913   2.051   4.219  1.6377  0.9690  1.6112
  568MOL0     H74944   0.724   2.145   4.341  2.8009  1.1368 -3.9968
  568MOL0     H74945   0.690   1.985   4.412  1.3737 -2.2160 -1.5091
  568MOL0     H74946   0.661   1.884   4.207  0.9279 -0.1896  0.7397
  568MOL0     H74947   0.688   2.027   4.106 -4.0321 -1.9242 -1.5296
  568MOL0     H74948   0.467   1.999   4.298 -2.6149 -0.3198 -1.4191
  568MOL0     H74949   0.515   2.148   4.200  2.3815  0.3973  3.1485
  568MOL0     H74950   0.468   2.028   3.991 -0.4241  0.2805 -0.6160
  568MOL0     H74951   0.328   2.045   4.090  0.9405  0.7806 -0.0664
  568MOL0     H74952   0.355   1.817   4.191  0.1017 -2.4920 -0.5381
  568MOL0     H74953   0.492   1.792   4.085  0.8328  3.0088 -1.7419
  568MOL0     H74954   0.232   1.857   3.942  1.1679  2.2308  2.4743
  568MOL0     H74955   0.375   1.782   3.883  0.8848  2.2734  1.2602
  568MOL0     H74956   0.194   1.611   3.903 -0.0661 -1.3805  0.2520
  568MOL0     H74957   0.187   1.624   4.070 -0.0942 -1.2750 -1.3235
  568MOL0     H74958   1.032   2.240   4.326  0.3486  0.2436 -0.0284
  568MOL0     H74959   1.260   2.321   4.295 -2.9081  0.6303  1.7607
  568MOL0     H74960   1.698   2.325   4.478 -1.8608 -0.6019 -2.5774
  568MOL0     H74961   1.934   2.348   4.529 -0.7836  4.1274 -2.8544
  568MOL0     H74962   3.699   2.108   5.037 -2.9980  3.1791  1.2364
  568MOL0     H74963   3.929   2.007   5.085 -1.0520 -0.6797  0.0172
  568MOL0     H74964   4.298   2.094   5.376  1.7584  0.8401 -1.6149
  568MOL0     H74965   4.516   2.058   5.448  0.3571 -0.7356 -0.0728
  568MOL0     H74966   4.764   1.688   5.552 -1.2683 -2.9670  1.0341
  568MOL0     H74967   4.612   1.663   5.620  0.7813 -0.8043 -0.6222
  568MOL0     H74968   4.792   1.879   5.702  0.4680  0.2876  0.5707
  568MOL0     H74969   4.628   1.852   5.772 -0.8926 -0.5213 -0.6736
  568MOL0     H74970   4.790   1.602   5.768  2.0570 -0.8594  2.1110
  568MOL0     H74971   4.700   1.663   5.902  0.9930  1.9898  0.2021
  568MOL0     H74972   4.861   1.845   5.950 -2.6629  0.1453 -3.4497
  568MOL0     H74973   4.888   1.681   6.008  0.9707  0.2442  0.3244
  568MOL0     H74974   5.206   1.763   5.714  1.2735  0.5266  1.9395
  568MOL0     H74975   4.444   1.641   5.468  2.3267  0.4584  0.3553
  568MOL0     H74976   4.188   1.679   5.455 -0.0315  0.7682  0.5072
  569MOL0     O74977   7.335   1.115   9.931 -0.2612  0.4602 -0.0665
  569MOL0     C74978   7.350   1.193   9.834 -0.9131  0.9590  1.0640
  569MOL0     O74979   7.256   1.257   9.760  0.4123  0.1297  0.4769
  569MOL0     C74980   7.127   1.272   9.804 -0.6130 -0.0713 -0.3012
  569MOL0     C74981   7.034   1.281   9.709  0.9776 -1.1074  1.2533
  569MOL0     C74982   6.899   1.309   9.729  0.2229  0.4704 -0.1363
  569MOL0     C74983   6.854   1.317   9.862 -0.4503 -0.0565 -0.4071
  569MOL0     O74984   6.723   1.348   9.873 -0.3101  0.1516 -0.1764
  569MOL0     C74985   6.681   1.382  10.009 -0.3073 -0.0558  0.7713
  569MOL0     C74986   6.527   1.410  10.017 -0.1282  0.7326 -0.7300
  569MOL0     C74987   6.479   1.499   9.905 -0.2871  0.0612 -1.0320
  569MOL0     C74988   6.442   1.636   9.965  0.1100 -0.1782 -0.4240
  569MOL0     C74989   6.392   1.737   9.863 -0.0380 -0.0622  0.4523
  569MOL0     C74990   6.458   1.872   9.872  0.3580 -0.1083  0.3972
  569MOL0     C74991   6.596   1.877   9.792 -0.4566  0.2687 -0.7813
  569MOL0     C74992   6.702   1.787   9.874  0.5027 -0.5108  0.1876
  569MOL0     N74993   6.841   1.796   9.820  0.0979 -0.0513  0.1747
  569MOL0     C74994   6.917   1.686   9.785 -0.6307  0.6058  0.0395
  569MOL0     C74995   7.038   1.738   9.740  0.6420 -0.1394  0.6183
  569MOL0     C74996   7.171   1.674   9.697  0.6460 -0.4166  0.0025
  569MOL0     C74997   7.178   1.633   9.551 -0.1677 -0.1076  0.0229
  569MOL0     C74998   7.293   1.546   9.502  0.0043 -0.4307  0.2202
  569MOL0     C74999   7.431   1.611   9.539 -0.3018  0.6611  0.3238
  569MOL0     O75000   7.479   1.555   9.660 -0.2868 -0.5401  0.6272
  569MOL0     C75001   7.605   1.605   9.705  0.6939 -0.8770  0.4498
  569MOL0     C75002   7.628   1.593   9.840 -0.0758  0.2977  0.2667
  569MOL0     C75003   7.742   1.646   9.900  0.0760 -1.1599 -0.2718
  569MOL0     C75004   7.826   1.734   9.822 -0.1226  0.8901  0.1340
  569MOL0     C75005   7.931   1.812   9.894  0.8022  0.0486 -0.1159
  569MOL0     O75006   7.971   1.751  10.003 -0.0644  0.1656 -0.2562
  569MOL0     C75007   8.087   1.789  10.073  0.3825 -0.0731  0.2832
  569MOL0     C75008   8.090   1.774  10.210  0.3023 -0.0009 -0.0950
  569MOL0     C75009   8.206   1.798  10.281 -0.2104 -0.0539  0.7748
  569MOL0     C75010   8.321   1.847  10.214 -0.8132 -1.4164 -0.5309
  569MOL0     O75011   8.431   1.877  10.296 -0.3664  0.6210 -0.1748
  569MOL0     C75012   8.561   1.892  10.237 -0.6409 -0.3103 -0.3702
  569MOL0     C75013   8.665   1.934  10.339 -0.1546  0.5824  0.4251
  569MOL0     C75014   8.820   1.931  10.290  0.0899 -0.2714  0.3434
  569MOL0     C75015   8.856   2.057  10.212 -0.2370 -0.3256 -0.3096
  569MOL0     C75016   9.017   2.076  10.205 -0.2582  0.1648 -0.7187
  569MOL0     C75017   9.079   2.120  10.340  0.8687  0.5415  0.3157
  569MOL0     C75018   9.017   2.256  10.386 -0.9793 -0.6906 -0.0745
  569MOL0     C75019   9.080   2.308  10.513  0.1182  0.1728  0.1382
  569MOL0    Cl75020   9.114   2.192  10.647  0.2800  0.1579  0.0777
  569MOL0     C75021   8.318   1.869  10.073  0.7423  0.4907  0.6045
  569MOL0     C75022   8.206   1.831  10.003 -0.2343 -0.0821 -0.3169
  569MOL0     O75023   7.964   1.922   9.852  0.0872  0.8144 -0.5531
  569MOL0     C75024   7.803   1.741   9.677 -0.1048 -0.9074  0.6191
  569MOL0     C75025   7.698   1.670   9.627 -0.6480  0.0402  0.6934
  569MOL0     N75026   7.033   1.880   9.751  0.3059  0.5382 -0.2897
  569MOL0     N75027   6.920   1.910   9.808 -0.1492 -0.0198  0.4636
  569MOL0     C75028   6.952   1.314   9.966  0.7539  0.4263 -0.0046
  569MOL0     C75029   7.087   1.279   9.940 -0.7133  1.2805  0.9367
  569MOL0     C75030   7.486   1.209   9.781 -0.7566  0.3779 -0.0873
  569MOL0     C75031   7.598   1.192   9.864  0.0126  0.3638 -0.1908
  569MOL0     C75032   7.735   1.207   9.813  0.2537  0.8594 -1.3003
  569MOL0     C75033   7.756   1.231   9.681  0.9456 -0.1272 -0.2192
  569MOL0     O75034   7.884   1.218   9.644  0.3407 -0.1398 -0.1592
  569MOL0     C75035   7.942   1.337   9.604 -0.1609  0.3181 -0.9296
  569MOL0     C75036   7.991   1.424   9.717 -1.0022  0.0574 -0.1559
  569MOL0     C75037   8.100   1.346   9.797  0.1031  0.1053  0.8284
  569MOL0     C75038   8.149   1.420   9.926  0.4898 -0.1784  1.0708
  569MOL0     C75039   8.046   1.415  10.026 -0.1416  0.3476 -0.1668
  569MOL0     C75040   7.962   1.404  10.111 -0.7041 -0.6838  0.2296
  569MOL0     C75041   7.649   1.260   9.599 -0.5406  0.1520  0.1046
  569MOL0     C75042   7.518   1.260   9.650 -0.1408  1.2215  1.1192
  569MOL0     H75043   7.074   1.270   9.609 -0.5099 -1.2096  0.6401
  569MOL0     H75044   6.823   1.317   9.652 -0.8111  2.2937  0.9906
  569MOL0     H75045   6.742   1.468  10.038  0.8542 -0.4545 -0.3862
  569MOL0     H75046   6.703   1.297  10.075  1.3557 -0.2722 -0.0229
  569MOL0     H75047   6.499   1.445  10.117 -2.1407 -2.6730  0.0475
  569MOL0     H75048   6.485   1.309  10.018  3.2843 -0.8501  1.4218
  569MOL0     H75049   6.385   1.451   9.876  0.3613 -2.6315  0.8852
  569MOL0     H75050   6.541   1.517   9.817 -0.6817 -2.7950 -1.9931
  569MOL0     H75051   6.367   1.613  10.041  0.6101  0.6297  0.3516
  569MOL0     H75052   6.519   1.682  10.028 -1.1603  0.7653  0.5016
  569MOL0     H75053   6.285   1.755   9.872  0.3882  4.4002 -0.8912
  569MOL0     H75054   6.414   1.700   9.762 -0.0120 -1.4876  0.9499
  569MOL0     H75055   6.460   1.905   9.976  0.3702  2.3836 -0.3508
  569MOL0     H75056   6.393   1.939   9.817  1.8602 -0.7408 -2.3283
  569MOL0     H75057   6.581   1.837   9.692 -0.9381 -1.2185 -0.1508
  569MOL0     H75058   6.639   1.977   9.787  2.6240 -0.9691 -1.4862
  569MOL0     H75059   6.672   1.682   9.867 -0.0447 -0.4421  1.2696
  569MOL0     H75060   6.687   1.808   9.980  3.0897  2.8275  0.0639
  569MOL0     H75061   6.885   1.582   9.782  0.7417  0.1534 -0.0456
  569MOL0     H75062   7.198   1.589   9.761  0.2290 -1.3418 -1.0138
  569MOL0     H75063   7.240   1.758   9.708 -1.7769  1.6419  0.4892
  569MOL0     H75064   7.175   1.720   9.486 -1.7375 -1.2443 -1.5182
  569MOL0     H75065   7.084   1.580   9.531 -1.0226  1.8016 -1.3823
  569MOL0     H75066   7.298   1.442   9.535  3.4760 -0.4147  0.1158
  569MOL0     H75067   7.281   1.535   9.394 -1.5756  2.1278  0.0596
  569MOL0     H75068   7.428   1.720   9.550  1.3893  0.8792 -0.9436
  569MOL0     H75069   7.499   1.579   9.459 -1.3876 -0.7781 -0.0788
  569MOL0     H75070   7.555   1.529   9.889 -1.5259  2.1029  0.5718
  569MOL0     H75071   7.782   1.626   9.999  1.8095 -2.5091 -1.1845
  569MOL0     H75072   8.005   1.736  10.266 -1.9354 -0.2142 -3.4037
  569MOL0     H75073   8.204   1.770  10.386  2.7097 -4.2318 -0.0679
  569MOL0     H75074   8.563   1.962  10.152 -1.1684 -1.0928 -1.0497
  569MOL0     H75075   8.586   1.796  10.190  0.0898 -0.3641  0.1197
  569MOL0     H75076   8.647   1.870  10.425 -0.5410 -1.6571 -1.2392
  569MOL0     H75077   8.652   2.035  10.379  1.4792 -0.1660  3.0597
  569MOL0     H75078   8.839   1.846  10.224 -0.8724  0.6596 -1.1956
  569MOL0     H75079   8.884   1.916  10.378 -2.4447 -2.4584  1.9560
  569MOL0     H75080   8.819   2.047  10.110 -0.4302 -0.2978 -0.2424
  569MOL0     H75081   8.804   2.136  10.269 -1.8172 -3.5046  3.0956
  569MOL0     H75082   9.048   2.154  10.134  1.0647  1.5177  1.1994
  569MOL0     H75083   9.060   1.981  10.174 -0.3075  0.5037 -1.8641
  569MOL0     H75084   9.188   2.125  10.337  0.8606  0.0239 -1.0505
  569MOL0     H75085   9.056   2.045  10.416  0.6973  1.9442  1.7205
  569MOL0     H75086   9.036   2.329  10.307  1.5954 -0.8675  0.3062
  569MOL0     H75087   8.914   2.247  10.421 -0.2571 -0.7337  2.1571
  569MOL0     H75088   9.021   2.381  10.569  3.3394 -0.2065  4.5078
  569MOL0     H75089   9.173   2.359  10.485  1.5942 -2.9505 -1.0409
  569MOL0     H75090   8.417   1.894  10.036  0.5064  1.9965  0.9438
  569MOL0     H75091   8.211   1.830   9.895  1.5473 -1.8816 -0.2738
  569MOL0     H75092   7.875   1.792   9.614 -1.2100 -0.3736 -0.2545
  569MOL0     H75093   7.686   1.670   9.519  0.9369  1.1651  0.4915
  569MOL0     H75094   6.935   1.329  10.072  0.4814 -0.3886  0.0771
  569MOL0     H75095   7.147   1.259  10.028 -0.0001 -0.0071  0.1787
  569MOL0     H75096   7.575   1.180   9.969 -2.2680  0.4613 -0.6137
  569MOL0     H75097   7.821   1.174   9.870 -0.7456 -1.6269 -1.1316
  569MOL0     H75098   7.882   1.400   9.537 -0.1360 -2.6244 -4.0270
  569MOL0     H75099   8.033   1.304   9.553  0.8470 -2.6515  2.4165
  569MOL0     H75100   8.032   1.516   9.674 -0.3027 -0.6915 -1.1151
  569MOL0     H75101   7.909   1.449   9.786 -0.3241 -1.8046  1.3981
  569MOL0     H75102   8.190   1.338   9.737  0.9060  1.4773  1.8002
  569MOL0     H75103   8.069   1.244   9.820  2.3953 -1.3913 -2.0964
  569MOL0     H75104   8.237   1.369   9.965 -0.7262 -2.7359  0.6892
  569MOL0     H75105   8.171   1.526   9.913  0.6105 -0.2701  0.5270
  569MOL0     H75106   7.898   1.402  10.197 -1.5895  0.9274 -0.3535
  569MOL0     H75107   7.666   1.278   9.494 -1.2910  2.8286  0.3773
  569MOL0     H75108   7.433   1.275   9.585  1.4593  1.5200 -1.0102
  570MOL0     O75109   5.372   9.160   1.388 -0.3681 -0.1524  0.0809
  570MOL0     C75110   5.341   9.259   1.455 -0.2027 -1.0193  0.0097
  570MOL0     O75111   5.216   9.299   1.483 -0.8686  0.5160 -0.0531
  570MOL0     C75112   5.115   9.239   1.419 -0.4793  0.4144  0.0046
  570MOL0     C75113   5.063   9.297   1.299 -0.3609  0.2845 -0.0406
  570MOL0     C75114   4.960   9.243   1.231  0.0653  0.6401  0.0608
  570MOL0     C75115   4.898   9.124   1.270  0.0513 -0.7900 -0.5100
  570MOL0     O75116   4.787   9.086   1.192 -0.5209  0.0210  1.3094
  570MOL0     C75117   4.708   8.981   1.236  1.0182  0.0005 -0.8219
  570MOL0     C75118   4.575   8.970   1.154 -0.0325  0.8653 -0.2665
  570MOL0     C75119   4.475   8.870   1.220  0.7228  0.6175 -0.2274
  570MOL0     C75120   4.341   8.892   1.139  0.1725 -1.2871  0.4539
  570MOL0     C75121   4.225   8.833   1.222 -0.3912  0.5426  0.0091
  570MOL0     C75122   4.086   8.823   1.148  0.0647 -0.9406  0.8063
  570MOL0     C75123   3.976   8.732   1.217 -0.3180 -0.2075 -0.0289
  570MOL0     C75124   4.009   8.586   1.176  0.2248 -0.2856 -0.0174
  570MOL0     N75125   3.889   8.510   1.209 -0.5509 -0.3556  0.1290
  570MOL0     C75126   3.799   8.448   1.121  0.0408 -0.7210 -0.8338
  570MOL0     C75127   3.697   8.394   1.203  0.7650  0.8152  0.3769
  570MOL0     C75128   3.572   8.326   1.157  0.0238 -0.0355 -0.4729
  570MOL0     C75129   3.469   8.429   1.104 -0.1228 -0.8844  0.3801
  570MOL0     C75130   3.403   8.512   1.221 -0.2502  0.1271 -0.6606
  570MOL0     C75131   3.293   8.604   1.166  0.3274 -0.1233  0.2407
  570MOL0     O75132   3.185   8.527   1.120  0.3038  0.0783 -0.2057
  570MOL0     C75133   3.103   8.587   1.032 -0.1265 -1.1311  0.6439
  570MOL0     C75134   3.075   8.731   1.017  0.3789 -0.2749 -0.0556
  570MOL0     C75135   2.981   8.767   0.930 -0.2043  0.1969  0.1731
  570MOL0     C75136   2.900   8.683   0.857 -0.7307  0.6691  0.5960
  570MOL0     C75137   2.789   8.733   0.775  0.7287  1.2735  0.7889
  570MOL0     O75138   2.706   8.636   0.737  0.1759 -0.1907 -0.5137
  570MOL0     C75139   2.600   8.654   0.654  0.3772 -0.1340  0.6304
  570MOL0     C75140   2.480   8.584   0.679 -0.7360  0.1593  0.0805
  570MOL0     C75141   2.371   8.601   0.608  0.2639 -0.4193 -0.1906
  570MOL0     C75142   2.378   8.681   0.497 -0.4655  1.0442  0.1354
  570MOL0     O75143   2.279   8.696   0.407 -0.7811 -0.2771  0.4416
  570MOL0     C75144   2.250   8.573   0.338 -0.3901 -0.1470  0.3494
  570MOL0     C75145   2.140   8.596   0.238 -0.7164  0.4080 -0.3228
  570MOL0     C75146   2.065   8.462   0.216  0.4277  0.1033  0.6063
  570MOL0     C75147   1.954   8.475   0.113  0.6402 -0.0703  0.5667
  570MOL0     C75148   1.821   8.527   0.159 -0.6690  0.0799 -0.0165
  570MOL0     C75149   1.711   8.510   0.049  0.1541 -0.3533  0.0984
  570MOL0     C75150   1.585   8.591   0.076  0.4344 -0.8155 -0.8417
  570MOL0     C75151   1.522   8.582   0.217  0.0377 -0.2848  0.2384
  570MOL0    Cl75152   1.524   8.407   0.254  0.1946  0.1453  0.2898
  570MOL0     C75153   2.494   8.735   0.453 -0.2096 -0.6746 -0.3985
  570MOL0     C75154   2.609   8.721   0.527  0.5400  0.4487 -0.2141
  570MOL0     O75155   2.783   8.849   0.750  0.1062 -0.5212  0.3815
  570MOL0     C75156   2.943   8.549   0.855  0.0880 -0.1564  0.4756
  570MOL0     C75157   3.033   8.502   0.949 -0.5178  0.6592 -0.3693
  570MOL0     N75158   3.728   8.437   1.336  0.2030 -0.5901 -0.0108
  570MOL0     N75159   3.838   8.503   1.330 -0.1822  0.5927  0.2956
  570MOL0     C75160   4.952   9.058   1.380 -0.7211 -0.5017 -0.5318
  570MOL0     C75161   5.060   9.113   1.457 -0.4098  0.4197  0.6433
  570MOL0     C75162   5.450   9.343   1.499  0.3067 -0.0757 -0.4019
  570MOL0     C75163   5.579   9.325   1.447  0.0018  0.2795 -0.3539
  570MOL0     C75164   5.681   9.394   1.513 -0.1048 -0.3449  0.2095
  570MOL0     C75165   5.663   9.487   1.612  1.0039  0.3449 -0.7101
  570MOL0     O75166   5.763   9.543   1.688 -0.0807 -0.2509 -0.4692
  570MOL0     C75167   5.910   9.523   1.658  0.4962 -0.1368  0.5262
  570MOL0     C75168   5.955   9.618   1.545 -0.6034 -0.1752 -0.0983
  570MOL0     C75169   5.952   9.767   1.600 -0.4331 -0.8518  0.2595
  570MOL0     C75170   6.000   9.881   1.499 -0.1250  0.2891 -0.3073
  570MOL0     C75171   6.021  10.015   1.562 -0.4323  0.5712 -0.2893
  570MOL0     C75172   6.036  10.121   1.614 -0.1001  0.3144  0.0912
  570MOL0     C75173   5.539   9.515   1.658 -0.2022 -0.1615 -0.3109
  570MOL0     C75174   5.427   9.448   1.594  0.1761 -0.5251  0.5874
  570MOL0     H75175   5.109   9.386   1.258 -0.8397  0.1726 -0.8347
  570MOL0     H75176   4.916   9.297   1.148  1.0184 -1.2944 -1.7945
  570MOL0     H75177   4.668   9.007   1.334 -0.9977  2.1344 -2.1074
  570MOL0     H75178   4.769   8.890   1.242  2.6406  1.1276  2.0066
  570MOL0     H75179   4.594   8.928   1.055  2.1820  2.7611 -0.7451
  570MOL0     H75180   4.535   9.072   1.145 -1.8797  0.0341 -2.4908
  570MOL0     H75181   4.455   8.891   1.325  0.4622 -2.3436  0.3989
  570MOL0     H75182   4.508   8.765   1.211  1.2503  0.4649  2.5818
  570MOL0     H75183   4.326   8.999   1.118  1.6670 -1.0861  0.3532
  570MOL0     H75184   4.363   8.837   1.047  0.9957  1.2271 -0.9337
  570MOL0     H75185   4.219   8.903   1.306 -1.8249  1.1729 -0.5751
  570MOL0     H75186   4.251   8.734   1.260 -0.9740  0.5506  0.4515
  570MOL0     H75187   4.108   8.796   1.044  2.3402  2.9878  0.0822
  570MOL0     H75188   4.047   8.925   1.137  2.3837 -0.1125 -0.4040
  570MOL0     H75189   3.982   8.733   1.326  0.2785 -0.6878 -0.0479
  570MOL0     H75190   3.875   8.767   1.198 -0.2563 -0.0045  0.0149
  570MOL0     H75191   4.098   8.550   1.227  0.7807  2.6423  1.3033
  570MOL0     H75192   4.011   8.578   1.067 -3.5689 -2.2334 -0.1059
  570MOL0     H75193   3.793   8.453   1.013  2.2336  1.1123 -0.9484
  570MOL0     H75194   3.537   8.279   1.249 -1.8590  1.8600 -0.1418
  570MOL0     H75195   3.606   8.250   1.086  1.9661  0.5224 -0.2051
  570MOL0     H75196   3.403   8.373   1.037 -0.3509 -2.4701  1.8356
  570MOL0     H75197   3.520   8.503   1.042 -3.4231 -0.6634 -2.3987
  570MOL0     H75198   3.379   8.443   1.302  4.4467  0.6470  1.4827
  570MOL0     H75199   3.476   8.579   1.267 -0.2905 -1.1766  1.4144
  570MOL0     H75200   3.331   8.671   1.088 -1.8574 -1.6201 -2.2688
  570MOL0     H75201   3.263   8.672   1.246  0.7000 -1.8890  1.9831
  570MOL0     H75202   3.133   8.791   1.086  2.1436 -0.1723 -1.5482
  570MOL0     H75203   2.961   8.873   0.918  0.6934  0.2948 -0.5792
  570MOL0     H75204   2.469   8.511   0.758 -1.2345 -0.8602 -0.9138
  570MOL0     H75205   2.275   8.558   0.635  0.7507  0.9988  4.7006
  570MOL0     H75206   2.199   8.511   0.412  2.1858  1.3566  3.5976
  570MOL0     H75207   2.330   8.516   0.290 -0.7642  0.1580 -0.6645
  570MOL0     H75208   2.191   8.629   0.146  2.2034  0.2387  1.1208
  570MOL0     H75209   2.068   8.671   0.271 -1.1530  0.2161 -0.8100
  570MOL0     H75210   2.010   8.424   0.302 -1.1139 -3.5460 -1.7537
  570MOL0     H75211   2.137   8.383   0.192 -0.5199  0.0094 -2.3325
  570MOL0     H75212   1.983   8.548   0.038 -0.2073 -0.9709 -0.6744
  570MOL0     H75213   1.934   8.386   0.052 -4.1648  0.8774  0.4160
  570MOL0     H75214   1.832   8.633   0.186  2.0667 -0.0396 -0.4136
  570MOL0     H75215   1.789   8.477   0.251 -2.6395 -0.8801 -1.1526
  570MOL0     H75216   1.709   8.402   0.032  5.1152 -0.7407  0.2992
  570MOL0     H75217   1.746   8.548  -0.048  1.8823 -0.6980  0.5432
  570MOL0     H75218   1.608   8.695   0.052 -1.4606  0.3237  1.7679
  570MOL0     H75219   1.502   8.559   0.013 -2.4280 -0.1560  2.2844
  570MOL0     H75220   1.422   8.627   0.217 -0.7940 -2.0417 -0.7317
  570MOL0     H75221   1.583   8.634   0.291 -0.9465  1.9169 -0.4005
  570MOL0     H75222   2.486   8.777   0.353 -1.1242 -0.5719 -0.2975
  570MOL0     H75223   2.708   8.759   0.502  1.6467 -2.2217 -0.2360
  570MOL0     H75224   2.913   8.479   0.777  0.5116 -2.6338  2.4160
  570MOL0     H75225   3.059   8.397   0.957 -1.3493  0.4079 -0.8712
  570MOL0     H75226   4.900   8.971   1.420 -2.3666  0.3293 -0.7806
  570MOL0     H75227   5.106   9.061   1.541  0.0782 -0.6678 -0.2800
  570MOL0     H75228   5.602   9.265   1.360  0.5147  0.8571 -0.6245
  570MOL0     H75229   5.780   9.372   1.475  0.0031 -0.3861  0.5111
  570MOL0     H75230   5.919   9.417   1.632 -0.4459 -0.0613 -0.1428
  570MOL0     H75231   5.972   9.545   1.745  0.3140  1.5117  0.2648
  570MOL0     H75232   6.052   9.585   1.507 -0.1811  0.9255 -0.0074
  570MOL0     H75233   5.882   9.606   1.465 -2.0816  1.3908  0.9579
  570MOL0     H75234   6.014   9.781   1.690 -1.1017  0.9246  0.4787
  570MOL0     H75235   5.853   9.799   1.631 -0.8201 -0.7041 -1.0682
  570MOL0     H75236   6.101   9.861   1.463 -0.5621 -0.9227 -0.9177
  570MOL0     H75237   5.929   9.885   1.416 -0.4874 -1.2842 -0.1204
  570MOL0     H75238   6.051  10.217   1.658  0.4815 -0.7674  2.4283
  570MOL0     H75239   5.521   9.591   1.733  0.7023 -0.8581  0.6391
  570MOL0     H75240   5.332   9.481   1.635 -0.1006  2.5996 -2.1850
  571MOL0     O75241   6.458  10.543   5.806 -0.5026 -0.1904 -0.6919
  571MOL0     C75242   6.533  10.520   5.904  0.0350  0.4955  0.5527
  571MOL0     O75243   6.498  10.452   6.014 -0.2305 -0.0606 -0.3684
  571MOL0     C75244   6.376  10.404   6.043  0.1731 -0.8368  0.1480
  571MOL0     C75245   6.285  10.349   5.953 -0.3713  0.0262  0.8707
  571MOL0     C75246   6.164  10.295   5.993  0.3567  0.6955 -0.3808
  571MOL0     C75247   6.136  10.276   6.130 -0.3958  0.4946  0.4411
  571MOL0     O75248   6.022  10.214   6.153 -0.2817 -0.1088 -0.0963
  571MOL0     C75249   5.994  10.150   6.272 -0.8703  0.5524 -0.9238
  571MOL0     C75250   5.958  10.227   6.402  0.5382  0.1091 -0.6165
  571MOL0     C75251   5.911  10.125   6.504  0.5018  0.2051 -0.0838
  571MOL0     C75252   5.912  10.203   6.642  0.2277 -0.3800  0.4855
  571MOL0     C75253   5.886  10.114   6.765 -0.8451 -0.2509  0.7305
  571MOL0     C75254   5.750  10.058   6.751 -0.2545  0.7829 -0.3142
  571MOL0     C75255   5.734   9.960   6.867 -1.1118 -0.1974  0.3424
  571MOL0     C75256   5.592   9.886   6.875  0.4585  0.3655  0.1624
  571MOL0     N75257   5.486   9.973   6.920 -0.1713 -0.1027  0.4863
  571MOL0     C75258   5.399   9.939   7.022  0.6109 -0.2417 -0.2570
  571MOL0     C75259   5.339  10.054   7.056 -0.0027  0.9693  0.1808
  571MOL0     C75260   5.248  10.075   7.176  0.4351 -0.7211  0.1006
  571MOL0     C75261   5.100  10.072   7.148 -0.5995  0.0589  0.0958
  571MOL0     C75262   5.017  10.071   7.282 -0.2848  0.8011 -0.0363
  571MOL0     C75263   4.870  10.057   7.250 -0.1574 -0.3371  0.4195
  571MOL0     O75264   4.852   9.934   7.190  0.0240  0.9026  0.4651
  571MOL0     C75265   4.723   9.891   7.169  0.2261  0.6241  0.6057
  571MOL0     C75266   4.610   9.962   7.208 -0.3911 -0.5895 -0.0808
  571MOL0     C75267   4.487   9.897   7.185 -0.2823 -0.2984 -0.0778
  571MOL0     C75268   4.468   9.771   7.122 -0.4577  1.0412 -0.3699
  571MOL0     C75269   4.343   9.710   7.096 -0.8632  0.7747  0.6327
  571MOL0     O75270   4.359   9.574   7.088  0.0263 -0.7787  0.0085
  571MOL0     C75271   4.250   9.495   7.057  0.8982 -0.9974  0.4382
  571MOL0     C75272   4.274   9.384   6.976 -0.2426 -0.0866 -0.0327
  571MOL0     C75273   4.174   9.282   6.960 -0.2756 -0.4702  0.6225
  571MOL0     C75274   4.045   9.300   7.010  0.8229  0.4285 -0.0400
  571MOL0     O75275   3.951   9.199   6.995  0.3046 -0.1403 -0.5550
  571MOL0     C75276   3.994   9.079   7.050 -0.7524  0.0497  0.2889
  571MOL0     C75277   3.968   9.080   7.202 -0.0861 -0.6528 -0.4816
  571MOL0     C75278   3.818   9.120   7.228 -0.2856 -0.4602  0.8503
  571MOL0     C75279   3.763   9.120   7.366  0.6028 -0.6487 -0.5781
  571MOL0     C75280   3.634   9.198   7.376 -0.2152 -0.0249 -0.0868
  571MOL0     C75281   3.525   9.140   7.283  0.9792  0.4029 -0.0414
  571MOL0     C75282   3.397   9.224   7.286  0.7315 -0.2179 -0.5028
  571MOL0     C75283   3.297   9.176   7.395 -0.1820 -0.6838  0.5082
  571MOL0    Cl75284   3.139   9.274   7.386 -0.5361  0.2487 -0.1499
  571MOL0     C75285   4.017   9.411   7.088 -0.3760 -0.0129 -0.4423
  571MOL0     C75286   4.118   9.507   7.111  0.4249  0.7107  0.6240
  571MOL0     O75287   4.236   9.770   7.095  0.0972  0.6514  0.2226
  571MOL0     C75288   4.587   9.708   7.087 -0.2917  1.1372 -1.4238
  571MOL0     C75289   4.712   9.768   7.111  0.0130 -0.0051  0.0321
  571MOL0     N75290   5.388  10.157   6.981 -0.0174 -0.1210 -0.1625
  571MOL0     N75291   5.472  10.109   6.904 -0.2332  0.1233 -0.2279
  571MOL0     C75292   6.223  10.334   6.223 -0.4763 -1.4763 -0.1658
  571MOL0     C75293   6.341  10.398   6.176  0.5761 -0.3178  0.3424
  571MOL0     C75294   6.682  10.554   5.889 -1.0601  0.4424 -0.7552
  571MOL0     C75295   6.775  10.542   5.991 -0.0621 -0.4000  0.4366
  571MOL0     C75296   6.905  10.583   5.988  0.7287 -0.2045 -0.1292
  571MOL0     C75297   6.957  10.638   5.869  0.5482  0.1511 -0.0227
  571MOL0     O75298   7.092  10.681   5.865  0.0993  0.5808  0.2721
  571MOL0     C75299   7.191  10.656   5.962  0.6508  0.6655  0.0316
  571MOL0     C75300   7.331  10.684   5.900 -0.2916 -0.5591  0.4493
  571MOL0     C75301   7.340  10.817   5.819 -0.1020 -0.1626  1.0029
  571MOL0     C75302   7.465  10.803   5.735 -0.5076 -0.3069 -0.3551
  571MOL0     C75303   7.431  10.704   5.626  0.2751  0.2941 -0.7024
  571MOL0     C75304   7.413  10.623   5.532 -0.5129  0.1962  0.8018
  571MOL0     C75305   6.869  10.651   5.755 -0.1971  0.6865  0.0483
  571MOL0     C75306   6.734  10.606   5.765 -0.1382 -0.2550 -0.4953
  571MOL0     H75307   6.295  10.353   5.845 -1.8137 -1.3847  0.6440
  571MOL0     H75308   6.097  10.258   5.916  0.5936 -0.2424 -0.1481
  571MOL0     H75309   6.077  10.082   6.291 -1.1710  0.7531  1.3596
  571MOL0     H75310   5.906  10.088   6.250 -0.8320  0.4198 -0.7068
  571MOL0     H75311   5.876  10.296   6.379 -0.1836 -0.6796 -0.4632
  571MOL0     H75312   6.037  10.293   6.440 -2.2571  2.1489  2.1397
  571MOL0     H75313   5.985  10.047   6.523 -0.7661 -0.4380  2.8499
  571MOL0     H75314   5.810  10.092   6.476  0.6981 -0.9484  0.5015
  571MOL0     H75315   6.013  10.244   6.651  0.4102 -0.7576  0.2126
  571MOL0     H75316   5.828  10.272   6.631  0.2765 -0.5877 -1.5766
  571MOL0     H75317   5.888  10.185   6.848  0.5925 -0.3888  0.8347
  571MOL0     H75318   5.961  10.036   6.776 -0.7095 -0.1913  0.2824
  571MOL0     H75319   5.734  10.010   6.654  3.3506 -0.1145 -0.5793
  571MOL0     H75320   5.682  10.143   6.765 -2.7535 -1.2945  1.3238
  571MOL0     H75321   5.817   9.888   6.871  1.0765  1.9115 -2.7038
  571MOL0     H75322   5.739  10.020   6.958 -1.3547  0.4248 -0.0458
  571MOL0     H75323   5.593   9.797   6.939  1.9641  1.5455  1.8708
  571MOL0     H75324   5.571   9.850   6.773  0.4784  1.7270 -0.3456
  571MOL0     H75325   5.389   9.840   7.064  1.1264  1.0864  3.4362
  571MOL0     H75326   5.272  10.176   7.210 -0.4192 -0.2395 -0.7053
  571MOL0     H75327   5.275  10.001   7.253 -1.2741 -1.0221  0.4416
  571MOL0     H75328   5.090   9.980   7.089 -0.3483 -2.2548  3.3653
  571MOL0     H75329   5.062  10.156   7.089 -0.7947 -0.5387 -0.6605
  571MOL0     H75330   5.056   9.997   7.352  1.6828  3.1914  1.5277
  571MOL0     H75331   5.025  10.165   7.336 -2.3240 -0.3668  2.5421
  571MOL0     H75332   4.828  10.135   7.186 -3.5022 -0.7350  1.9338
  571MOL0     H75333   4.806  10.062   7.339  0.4433 -2.3343  1.0235
  571MOL0     H75334   4.613  10.055   7.264 -2.0768 -0.6490  0.1744
  571MOL0     H75335   4.393   9.944   7.214 -0.9672 -1.3640 -0.5211
  571MOL0     H75336   4.376   9.359   6.947 -1.0391 -0.3765 -2.8316
  571MOL0     H75337   4.195   9.195   6.900 -1.1254 -0.3686  0.1618
  571MOL0     H75338   4.097   9.063   7.016  0.7002  3.9192  2.2643
  571MOL0     H75339   3.926   9.000   7.017 -1.3971  1.2580 -1.4094
  571MOL0     H75340   4.036   9.155   7.242  1.0211 -0.8940 -1.8211
  571MOL0     H75341   3.987   8.982   7.248  0.7883 -1.5287 -2.5752
  571MOL0     H75342   3.768   9.045   7.166 -0.4238  0.0519  0.3298
  571MOL0     H75343   3.799   9.213   7.173  1.1018 -0.6522 -0.0128
  571MOL0     H75344   3.730   9.018   7.390 -2.0221 -0.8669 -4.1382
  571MOL0     H75345   3.840   9.166   7.428  0.9875  0.0432 -1.5451
  571MOL0     H75346   3.659   9.298   7.342 -1.9267  0.5632  0.2789
  571MOL0     H75347   3.599   9.213   7.479 -0.2382  0.3108 -0.1429
  571MOL0     H75348   3.509   9.033   7.294  1.1714  0.4811  1.1163
  571MOL0     H75349   3.562   9.150   7.181 -0.8288 -0.2349 -0.8054
  571MOL0     H75350   3.429   9.326   7.310  1.4738 -0.9630  1.9493
  571MOL0     H75351   3.343   9.216   7.191 -0.8940 -3.2913  0.5253
  571MOL0     H75352   3.350   9.194   7.489  1.1788  0.3149 -0.4144
  571MOL0     H75353   3.279   9.069   7.377 -2.8316  0.0961 -2.2342
  571MOL0     H75354   3.916   9.413   7.128 -0.7712  1.3609 -1.4394
  571MOL0     H75355   4.089   9.586   7.180 -1.7107  0.7819 -0.2909
  571MOL0     H75356   4.585   9.604   7.055  0.5761  0.0699  1.6143
  571MOL0     H75357   4.809   9.721   7.091  0.7722  1.5118  0.0262
  571MOL0     H75358   6.214  10.338   6.331  0.2312 -0.2779 -0.1261
  571MOL0     H75359   6.413  10.451   6.238  1.2925  0.8037 -1.3567
  571MOL0     H75360   6.736  10.495   6.080  0.5340  0.5426  1.2203
  571MOL0     H75361   6.970  10.559   6.072  1.0508  0.9108 -0.0413
  571MOL0     H75362   7.179  10.552   5.994  2.3880  0.9386  1.7446
  571MOL0     H75363   7.187  10.719   6.051 -0.5491 -1.0077  1.2325
  571MOL0     H75364   7.408  10.694   5.977  2.3893 -1.5313 -1.8969
  571MOL0     H75365   7.356  10.597   5.839  1.3166 -0.0363  0.3036
  571MOL0     H75366   7.352  10.895   5.896 -0.6208 -0.4234  1.3545
  571MOL0     H75367   7.260  10.843   5.749  1.8755  0.2271 -1.2166
  571MOL0     H75368   7.490  10.900   5.692 -1.5548  0.2275  0.2038
  571MOL0     H75369   7.553  10.766   5.789 -0.8568 -1.6009 -0.6435
  571MOL0     H75370   7.394  10.554   5.452  2.9706  0.4749 -0.4208
  571MOL0     H75371   6.902  10.690   5.659  0.6242  1.4636  0.6264
  571MOL0     H75372   6.672  10.617   5.676 -2.4918 -0.6470  0.9911
  572MOL0     O75373   4.098   9.145   4.395  0.1766 -0.1058 -0.1870
  572MOL0     C75374   4.162   9.250   4.397 -0.0560  0.6388  1.0143
  572MOL0     O75375   4.106   9.373   4.378  0.1717  0.0199 -0.1511
  572MOL0     C75376   3.982   9.379   4.320  0.0803  0.2269 -0.0685
  572MOL0     C75377   3.862   9.355   4.400  0.5841 -0.7674 -0.3477
  572MOL0     C75378   3.740   9.380   4.335 -0.2183 -0.0991  0.2971
  572MOL0     C75379   3.733   9.411   4.199 -0.5609  0.5696  0.8721
  572MOL0     O75380   3.602   9.424   4.158 -0.3700  0.7409  0.2795
  572MOL0     C75381   3.565   9.403   4.022 -0.0595  0.4168 -0.2594
  572MOL0     C75382   3.414   9.437   3.991 -0.6365  0.3765 -0.7788
  572MOL0     C75383   3.320   9.391   4.111 -1.2924 -0.4241  0.3804
  572MOL0     C75384   3.175   9.420   4.065  0.0885 -0.1660  0.6940
  572MOL0     C75385   3.067   9.355   4.153 -0.7566 -0.8084 -0.0559
  572MOL0     C75386   2.939   9.431   4.116  0.1081  0.1797  0.1829
  572MOL0     C75387   2.820   9.366   4.185 -0.8464 -0.1004 -0.6187
  572MOL0     C75388   2.765   9.237   4.140 -0.0078 -0.1929 -0.1572
  572MOL0     N75389   2.656   9.258   4.041 -0.5025  0.2295  0.2302
  572MOL0     C75390   2.522   9.285   4.069  0.0178 -0.5984 -0.3908
  572MOL0     C75391   2.461   9.283   3.947  0.0813 -0.8118 -0.6597
  572MOL0     C75392   2.299   9.265   3.929 -0.0967 -0.0896  0.6615
  572MOL0     C75393   2.263   9.252   3.773  0.3540  0.1648 -0.2820
  572MOL0     C75394   2.104   9.231   3.741  0.0497 -0.5518  0.3390
  572MOL0     C75395   2.044   9.360   3.685  0.1770 -0.5709  0.3660
  572MOL0     O75396   1.933   9.318   3.603  0.1202 -0.4225  0.9725
  572MOL0     C75397   1.804   9.328   3.656 -0.3043 -0.5690  0.0400
  572MOL0     C75398   1.699   9.313   3.569 -0.9109 -0.1959  0.3752
  572MOL0     C75399   1.563   9.331   3.607 -0.4866 -0.3303 -0.2837
  572MOL0     C75400   1.535   9.366   3.738  0.0711  0.4574  0.1031
  572MOL0     C75401   1.391   9.388   3.767  0.5133 -0.0765 -0.3083
  572MOL0     O75402   1.297   9.328   3.697 -0.1281 -0.0923 -0.4493
  572MOL0     C75403   1.158   9.356   3.709 -0.1137 -0.6760  1.1006
  572MOL0     C75404   1.098   9.480   3.678 -0.2917  0.7176  0.1714
  572MOL0     C75405   0.961   9.497   3.687  0.4782 -0.6186 -1.2276
  572MOL0     C75406   0.880   9.391   3.727  0.6814 -0.7231 -0.2719
  572MOL0     O75407   0.743   9.398   3.712 -0.2030  1.0926  0.1642
  572MOL0     C75408   0.659   9.324   3.812  0.0401 -0.0141 -0.2110
  572MOL0     C75409   0.513   9.371   3.790 -0.3868 -0.3369 -0.7162
  572MOL0     C75410   0.452   9.294   3.674  0.7566  0.5431 -0.0597
  572MOL0     C75411   0.308   9.309   3.669 -0.4458 -0.6412  0.6229
  572MOL0     C75412   0.232   9.198   3.587 -0.6530 -0.0543 -0.2828
  572MOL0     C75413   0.080   9.232   3.606 -0.3309 -0.7042  0.0429
  572MOL0     C75414  -0.011   9.149   3.511 -0.0439  0.2907  0.1393
  572MOL0     C75415  -0.154   9.170   3.545 -0.4505  0.5003 -0.4526
  572MOL0    Cl75416  -0.250   9.072   3.430 -0.1146  0.0468  0.1473
  572MOL0     C75417   0.937   9.268   3.760  0.3593 -0.0886  0.1372
  572MOL0     C75418   1.071   9.254   3.744  0.1024  0.2016  0.2246
  572MOL0     O75419   1.363   9.479   3.838 -0.1518 -0.3920 -0.4762
  572MOL0     C75420   1.638   9.368   3.835 -0.3654 -0.7861  0.0984
  572MOL0     C75421   1.776   9.347   3.791  0.4043 -0.5566 -0.6677
  572MOL0     N75422   2.557   9.251   3.854 -0.0248  0.9148 -0.5398
  572MOL0     N75423   2.669   9.223   3.912 -0.0345  0.1681 -0.2463
  572MOL0     C75424   3.848   9.425   4.117  0.3449 -0.2548  0.1846
  572MOL0     C75425   3.977   9.415   4.189  0.3884 -0.1075  0.1373
  572MOL0     C75426   4.305   9.243   4.439 -0.2150 -0.0025 -0.1735
  572MOL0     C75427   4.391   9.354   4.419  0.1076  0.5938 -0.1659
  572MOL0     C75428   4.527   9.348   4.455  0.0118  0.9120  0.1191
  572MOL0     C75429   4.576   9.229   4.516 -0.0259 -0.5151 -0.1751
  572MOL0     O75430   4.708   9.218   4.549  0.1902  0.2457  0.0232
  572MOL0     C75431   4.755   9.312   4.654 -0.1137  0.6573 -0.1783
  572MOL0     C75432   4.900   9.290   4.709 -0.0771 -0.2634 -0.0381
  572MOL0     C75433   4.911   9.153   4.775 -0.2280 -0.3181 -0.4275
  572MOL0     C75434   5.042   9.134   4.843  0.5063 -0.1690 -0.1414
  572MOL0     C75435   5.059   9.218   4.964 -0.2337  0.4617  0.5695
  572MOL0     C75436   5.097   9.286   5.057 -0.6664 -0.3430 -0.0329
  572MOL0     C75437   4.495   9.116   4.525 -0.8097 -0.5171 -0.0089
  572MOL0     C75438   4.362   9.123   4.500  0.4696  0.2209 -0.3229
  572MOL0     H75439   3.873   9.321   4.502  2.5081 -0.1808 -0.3261
  572MOL0     H75440   3.654   9.381   4.401  0.7152  0.6608  1.5769
  572MOL0     H75441   3.593   9.297   4.017  2.1052  0.9188  0.2839
  572MOL0     H75442   3.623   9.463   3.951 -0.0185  0.9179  0.1922
  572MOL0     H75443   3.387   9.373   3.907  1.8018  0.1697 -1.4773
  572MOL0     H75444   3.404   9.543   3.967 -0.2089  0.8077  0.8244
  572MOL0     H75445   3.351   9.456   4.193 -0.0345 -2.2793  1.4577
  572MOL0     H75446   3.337   9.286   4.137  2.3078  0.1250  0.8023
  572MOL0     H75447   3.163   9.529   4.069 -0.3913 -0.2129  0.5984
  572MOL0     H75448   3.158   9.381   3.964  3.0933  0.4918 -0.1629
  572MOL0     H75449   3.083   9.370   4.261  1.1646  1.4688 -0.5705
  572MOL0     H75450   3.052   9.250   4.129 -3.2504 -0.4342 -0.4432
  572MOL0     H75451   2.925   9.438   4.007  0.9459 -0.4741  0.0227
  572MOL0     H75452   2.952   9.537   4.139  3.4582  0.1220 -0.9059
  572MOL0     H75453   2.851   9.353   4.289 -0.9715  0.2998 -0.5275
  572MOL0     H75454   2.739   9.439   4.188 -2.3963 -1.7729  0.6696
  572MOL0     H75455   2.735   9.174   4.224 -2.3326  0.8986 -0.0984
  572MOL0     H75456   2.843   9.183   4.086  1.3392  0.1528  1.3510
  572MOL0     H75457   2.478   9.300   4.167  1.1975 -0.3687  0.1209
  572MOL0     H75458   2.239   9.346   3.971 -1.1041  1.2785 -2.9952
  572MOL0     H75459   2.252   9.178   3.975 -0.5860  1.1835  2.6940
  572MOL0     H75460   2.314   9.162   3.737  0.1322 -0.8433  1.7855
  572MOL0     H75461   2.316   9.333   3.722  2.3941 -2.0144 -1.8068
  572MOL0     H75462   2.108   9.159   3.659  4.1776  0.2699 -0.4126
  572MOL0     H75463   2.048   9.186   3.823 -0.2262 -3.7827 -1.4546
  572MOL0     H75464   2.114   9.403   3.613  1.3043 -1.6957  0.7465
  572MOL0     H75465   2.020   9.440   3.755  2.6341 -0.0257  0.6827
  572MOL0     H75466   1.724   9.284   3.468 -0.0796  2.2074 -0.1809
  572MOL0     H75467   1.485   9.314   3.533 -0.6494  1.2773 -0.5105
  572MOL0     H75468   1.158   9.561   3.637  2.4183 -1.8204 -1.2253
  572MOL0     H75469   0.931   9.600   3.667  0.2846 -0.1907  1.0279
  572MOL0     H75470   0.678   9.352   3.916  0.1176 -0.0301 -0.2203
  572MOL0     H75471   0.658   9.215   3.805  1.7471 -0.2013  1.6544
  572MOL0     H75472   0.505   9.479   3.774  3.8912  0.3444  0.7411
  572MOL0     H75473   0.459   9.349   3.883  1.6457 -0.9037  0.3706
  572MOL0     H75474   0.476   9.189   3.690  2.7308  1.2463  2.2086
  572MOL0     H75475   0.495   9.338   3.583 -0.3013  0.2161 -0.7425
  572MOL0     H75476   0.270   9.294   3.771  0.7828  0.1827  1.2260
  572MOL0     H75477   0.285   9.414   3.645  1.7890  0.0973  1.4353
  572MOL0     H75478   0.256   9.101   3.631 -0.1801 -0.7193 -1.9202
  572MOL0     H75479   0.254   9.191   3.480  0.0673 -3.0754 -0.0201
  572MOL0     H75480   0.055   9.338   3.596  0.7740 -0.2073  2.0377
  572MOL0     H75481   0.050   9.204   3.707  2.9456  0.3435  1.4258
  572MOL0     H75482   0.008   9.182   3.409 -0.7873 -0.7339 -0.3413
  572MOL0     H75483   0.015   9.044   3.524 -0.7559 -0.0669 -1.2586
  572MOL0     H75484  -0.161   9.279   3.532 -1.8088  0.5149  0.2248
  572MOL0     H75485  -0.171   9.138   3.648  1.5758 -1.1519 -0.5632
  572MOL0     H75486   0.879   9.181   3.788  0.5958 -0.0592  0.7267
  572MOL0     H75487   1.124   9.162   3.765  1.7094  1.1595  0.5975
  572MOL0     H75488   1.625   9.389   3.940 -3.1601 -0.1689 -0.2973
  572MOL0     H75489   1.862   9.354   3.858  1.5713 -1.1018 -2.0492
  572MOL0     H75490   3.832   9.457   4.014 -0.2528  0.1722  0.4071
  572MOL0     H75491   4.065   9.443   4.132  0.7546  1.4549  1.4075
  572MOL0     H75492   4.341   9.441   4.378 -1.3893  0.6455  1.6288
  572MOL0     H75493   4.591   9.434   4.437  1.6914 -0.0547  1.1924
  572MOL0     H75494   4.702   9.312   4.749  0.6082  4.5572  0.3891
  572MOL0     H75495   4.737   9.412   4.616 -2.5083  0.6268  0.7321
  572MOL0     H75496   4.977   9.310   4.633  0.1985  2.7801  0.9211
  572MOL0     H75497   4.919   9.366   4.785 -0.8792 -1.2521  1.1817
  572MOL0     H75498   4.905   9.073   4.701  1.5231 -1.6066  0.7519
  572MOL0     H75499   4.832   9.150   4.852 -0.5023  1.3509 -0.5974
  572MOL0     H75500   5.049   9.030   4.875  0.9468 -0.1785 -0.2643
  572MOL0     H75501   5.119   9.164   4.771  0.1964  2.1599  0.4020
  572MOL0     H75502   5.102   9.361   5.134  0.8776 -2.2127  1.8207
  572MOL0     H75503   4.540   9.021   4.550 -2.1765 -1.8494 -2.2705
  572MOL0     H75504   4.307   9.030   4.509  0.7427  0.0595 -0.3380
  573MOL0     O75505   6.516   0.950   0.470 -0.0500 -0.5379 -0.1638
  573MOL0     C75506   6.614   1.017   0.443 -0.3122  0.7017  0.7756
  573MOL0     O75507   6.616   1.143   0.378 -0.1659 -0.4006 -0.1780
  573MOL0     C75508   6.490   1.200   0.345  0.4305  0.8137  0.3892
  573MOL0     C75509   6.391   1.135   0.276 -0.0647 -0.8565 -0.8017
  573MOL0     C75510   6.272   1.194   0.234 -0.4627 -0.2549 -0.3720
  573MOL0     C75511   6.244   1.331   0.261 -0.7546 -0.9424  0.3059
  573MOL0     O75512   6.124   1.379   0.215 -0.7350  0.2182  0.3050
  573MOL0     C75513   6.088   1.517   0.244 -0.0922  0.5918 -0.2364
  573MOL0     C75514   5.969   1.541   0.153  0.1006  0.1382  0.5218
  573MOL0     C75515   5.852   1.462   0.199  0.4708  0.9035  0.6096
  573MOL0     C75516   5.774   1.536   0.309 -0.0333 -0.0388  0.0016
  573MOL0     C75517   5.676   1.641   0.245 -0.2127 -0.3447 -0.5525
  573MOL0     C75518   5.569   1.592   0.148 -0.6087  0.2981 -0.0727
  573MOL0     C75519   5.448   1.679   0.144  0.2308 -0.1809 -0.0326
  573MOL0     C75520   5.381   1.645   0.017  1.0369 -0.4919 -0.0060
  573MOL0     N75521   5.233   1.670   0.038 -0.7371 -0.4692 -0.7949
  573MOL0     C75522   5.163   1.788   0.022 -0.1687  0.0875  0.3498
  573MOL0     C75523   5.036   1.771   0.060  0.1901 -0.0383  0.4544
  573MOL0     C75524   4.926   1.868   0.036 -0.1181 -0.6897 -0.6082
  573MOL0     C75525   4.789   1.815   0.049 -0.5127  0.5918  0.3049
  573MOL0     C75526   4.747   1.721  -0.070  0.3418 -0.7194  0.1106
  573MOL0     C75527   4.611   1.662  -0.043  0.4241 -0.7373  0.5483
  573MOL0     O75528   4.518   1.768  -0.043  0.1616  0.0744  0.3222
  573MOL0     C75529   4.390   1.736  -0.007 -0.2834  0.2724 -0.9328
  573MOL0     C75530   4.358   1.604   0.044 -0.1859 -0.3616 -0.0783
  573MOL0     C75531   4.230   1.571   0.073 -0.3937  0.8605 -0.6205
  573MOL0     C75532   4.130   1.672   0.068  0.0744 -0.7533  0.0280
  573MOL0     C75533   3.995   1.645   0.121  0.3329 -0.6474 -0.0262
  573MOL0     O75534   3.900   1.729   0.069 -0.0329 -0.7597 -0.2871
  573MOL0     C75535   3.770   1.724   0.103  0.1424 -0.5810  0.1181
  573MOL0     C75536   3.711   1.827   0.183 -0.0952 -0.3812  0.0400
  573MOL0     C75537   3.570   1.827   0.208  0.0648  0.1820 -0.7768
  573MOL0     C75538   3.494   1.720   0.162  0.5291 -0.2083 -0.1467
  573MOL0     O75539   3.362   1.703   0.188 -0.2090  0.4203  0.0729
  573MOL0     C75540   3.278   1.780   0.098 -0.3371 -0.0967  0.1250
  573MOL0     C75541   3.131   1.727   0.102  0.0309 -0.6506  0.0467
  573MOL0     C75542   3.041   1.834   0.040  0.2466 -0.9174 -0.4877
  573MOL0     C75543   2.898   1.787   0.034 -0.2904  1.1704 -0.0262
  573MOL0     C75544   2.808   1.864  -0.065 -0.1585 -0.3298  0.0662
  573MOL0     C75545   2.659   1.838  -0.060  0.3850  0.2902  0.8224
  573MOL0     C75546   2.585   1.914  -0.171  0.7027 -0.8061 -0.4978
  573MOL0     C75547   2.461   1.850  -0.214 -0.0226 -0.2848  0.3601
  573MOL0    Cl75548   2.376   1.780  -0.081 -0.1482  0.1363 -0.3714
  573MOL0     C75549   3.548   1.625   0.070  0.0579  0.0548 -0.2551
  573MOL0     C75550   3.687   1.635   0.040 -0.0600  0.0216 -0.5309
  573MOL0     O75551   3.977   1.548   0.190 -0.3973 -0.3583  0.8595
  573MOL0     C75552   4.163   1.804   0.020  0.1215  0.1032 -0.2403
  573MOL0     C75553   4.294   1.835  -0.013 -0.2385  0.2744  0.1590
  573MOL0     N75554   5.030   1.640   0.091  0.2624  0.6906  0.2428
  573MOL0     N75555   5.147   1.585   0.092 -0.0591 -0.7821 -0.0146
  573MOL0     C75556   6.345   1.399   0.323 -0.0603  0.2702 -0.3462
  573MOL0     C75557   6.466   1.336   0.360 -0.4809  0.2654 -0.3320
  573MOL0     C75558   6.738   0.952   0.478  0.3856 -1.3044 -0.5035
  573MOL0     C75559   6.730   0.828   0.545  0.3586 -0.0434  0.2551
  573MOL0     C75560   6.855   0.764   0.564 -0.3896 -0.2940 -0.3018
  573MOL0     C75561   6.979   0.824   0.537  0.0123 -0.5469  1.1154
  573MOL0     O75562   7.105   0.771   0.567 -0.6872  0.0722  0.3367
  573MOL0     C75563   7.113   0.642   0.635  0.1957 -0.3293  1.1485
  573MOL0     C75564   7.121   0.543   0.520  0.7302 -0.7506 -0.8988
  573MOL0     C75565   7.149   0.400   0.549 -0.1159  0.2653  0.3245
  573MOL0     C75566   7.306   0.366   0.548 -0.2580  0.3504  0.0250
  573MOL0     C75567   7.332   0.230   0.596 -0.2634  0.0719  0.2240
  573MOL0     C75568   7.366   0.126   0.656  0.5568  0.6885  0.2176
  573MOL0     C75569   6.979   0.951   0.488  0.2784 -0.0128  0.5303
  573MOL0     C75570   6.859   1.010   0.450  0.3289  0.0384  0.5299
  573MOL0     H75571   6.419   1.037   0.240  2.4968 -1.0403  1.3255
  573MOL0     H75572   6.213   1.127   0.173 -1.6231  0.0551  0.3824
  573MOL0     H75573   6.170   1.586   0.222  0.9294 -0.0346  1.4216
  573MOL0     H75574   6.053   1.533   0.346 -0.1258  0.0242 -0.1607
  573MOL0     H75575   6.006   1.513   0.054  4.9001  4.7448  0.5121
  573MOL0     H75576   5.938   1.646   0.152 -1.3271 -0.2501  1.2256
  573MOL0     H75577   5.884   1.364   0.234 -1.4812  0.2137  0.5604
  573MOL0     H75578   5.789   1.441   0.111 -1.5985 -2.2212  2.6491
  573MOL0     H75579   5.720   1.462   0.368 -2.0177  2.4562  1.5533
  573MOL0     H75580   5.845   1.581   0.379  0.4396  0.1062 -0.5644
  573MOL0     H75581   5.735   1.716   0.191  0.3249  0.8705  1.5837
  573MOL0     H75582   5.626   1.696   0.326  2.5718  0.2991  0.8511
  573MOL0     H75583   5.535   1.492   0.179 -2.7717  1.5123  1.8168
  573MOL0     H75584   5.611   1.585   0.047 -0.5532 -0.1453 -0.0226
  573MOL0     H75585   5.384   1.653   0.229 -1.1538  0.5754 -0.8192
  573MOL0     H75586   5.481   1.783   0.147 -1.0098  0.5140 -4.1199
  573MOL0     H75587   5.407   1.542  -0.007  2.4650 -0.2800  0.5660
  573MOL0     H75588   5.419   1.715  -0.059  1.9224  1.9291  2.4899
  573MOL0     H75589   5.198   1.878  -0.028 -2.8940  1.4435  0.6907
  573MOL0     H75590   4.945   1.935  -0.049  3.2271  0.9566  1.2521
  573MOL0     H75591   4.931   1.930   0.125 -2.6699 -1.2287 -0.0193
  573MOL0     H75592   4.717   1.895   0.069  1.0044  1.8120  1.0894
  573MOL0     H75593   4.786   1.753   0.139  1.3393 -1.4404 -0.9273
  573MOL0     H75594   4.743   1.768  -0.169  2.6807 -1.5591 -0.4604
  573MOL0     H75595   4.827   1.646  -0.075  2.3548  1.4174 -2.1891
  573MOL0     H75596   4.610   1.615   0.056 -2.1474 -0.1319  0.8822
  573MOL0     H75597   4.578   1.610  -0.134  0.6082  0.6229 -0.3287
  573MOL0     H75598   4.434   1.527   0.054 -0.1363 -0.3365 -0.2604
  573MOL0     H75599   4.197   1.476   0.113 -3.3674  2.1973  0.3821
  573MOL0     H75600   3.771   1.905   0.227 -0.8380 -1.7102  3.7320
  573MOL0     H75601   3.545   1.909   0.274 -0.5014  0.4094 -1.2673
  573MOL0     H75602   3.311   1.776  -0.006  1.8460 -2.0681  0.8050
  573MOL0     H75603   3.281   1.887   0.119 -0.0245 -0.1228  0.2209
  573MOL0     H75604   3.099   1.709   0.205  0.9320  2.5655  1.0079
  573MOL0     H75605   3.123   1.647   0.027  1.8624  0.5485 -1.5231
  573MOL0     H75606   3.076   1.861  -0.060 -0.4978  0.4172 -0.4168
  573MOL0     H75607   3.040   1.926   0.099 -0.2549 -2.3219  1.8419
  573MOL0     H75608   2.905   1.681   0.008  0.1291  0.6135  2.1727
  573MOL0     H75609   2.852   1.793   0.133  1.2099  0.1433  0.7628
  573MOL0     H75610   2.850   1.843  -0.163  1.2535  0.1736  0.5468
  573MOL0     H75611   2.818   1.966  -0.028 -1.5991 -1.0848  2.8913
  573MOL0     H75612   2.631   1.863   0.042 -4.5980 -0.5179 -0.0591
  573MOL0     H75613   2.639   1.732  -0.077 -2.3597  0.1891  3.8134
  573MOL0     H75614   2.562   2.018  -0.145 -1.5260 -1.2056 -0.6472
  573MOL0     H75615   2.648   1.922  -0.259 -1.7997  1.2589 -2.2484
  573MOL0     H75616   2.498   1.789  -0.297  3.7804  1.9651  0.1501
  573MOL0     H75617   2.393   1.920  -0.264 -0.2916  0.4078  1.6644
  573MOL0     H75618   3.497   1.549   0.012  0.7184  0.4942 -1.4403
  573MOL0     H75619   3.729   1.561  -0.028 -2.0123 -1.0878 -0.6078
  573MOL0     H75620   4.087   1.881   0.026  0.7690  0.6809  1.3439
  573MOL0     H75621   4.324   1.935  -0.044  1.4432 -1.2678 -3.8826
  573MOL0     H75622   6.345   1.507   0.324  0.7315  0.3202  2.5967
  573MOL0     H75623   6.549   1.387   0.409 -1.0820  0.3348  0.6522
  573MOL0     H75624   6.637   0.774   0.559  0.0769  0.1863 -0.6563
  573MOL0     H75625   6.853   0.657   0.584 -1.6916 -0.2052  0.1302
  573MOL0     H75626   7.025   0.633   0.698 -3.0264 -1.0885 -3.0087
  573MOL0     H75627   7.203   0.639   0.698  0.4341 -1.1308  0.7837
  573MOL0     H75628   7.030   0.537   0.460 -0.7441  1.5638  0.9240
  573MOL0     H75629   7.190   0.590   0.448 -0.0208  0.4995 -0.8380
  573MOL0     H75630   7.108   0.327   0.479 -0.5593  1.2115 -0.4077
  573MOL0     H75631   7.114   0.374   0.650 -3.0882  0.7686 -0.4921
  573MOL0     H75632   7.343   0.380   0.446 -0.2832 -1.2838 -0.2382
  573MOL0     H75633   7.357   0.427   0.623 -0.9883  1.0532 -0.0328
  573MOL0     H75634   7.402   0.034   0.697 -3.2720 -1.9208 -1.6488
  573MOL0     H75635   7.066   1.014   0.478 -1.2565  1.9197 -1.8789
  573MOL0     H75636   6.858   1.101   0.391  0.4516 -0.7719 -0.7560
  574MOL0     O75637   6.295   2.313   0.620  0.1922  0.2529  0.5560
  574MOL0     C75638   6.393   2.263   0.680 -0.4724  0.0998 -0.1616
  574MOL0     O75639   6.386   2.201   0.804 -0.3403  0.7142 -0.1056
  574MOL0     C75640   6.274   2.182   0.869 -0.5742  0.2777 -0.4296
  574MOL0     C75641   6.141   2.191   0.828 -0.0127 -0.3656 -0.4275
  574MOL0     C75642   6.036   2.152   0.915  0.1362 -0.5457 -0.1178
  574MOL0     C75643   6.071   2.096   1.044 -0.2788  0.0200  0.3437
  574MOL0     O75644   5.960   2.073   1.129  0.4179 -1.2317 -0.7096
  574MOL0     C75645   5.963   1.958   1.218  0.0995  0.2335 -0.0827
  574MOL0     C75646   5.838   1.866   1.232  0.2797  1.0223 -0.2824
  574MOL0     C75647   5.715   1.948   1.247  0.0543  0.5358  0.2167
  574MOL0     C75648   5.598   1.865   1.295 -0.8521  0.2143  0.1591
  574MOL0     C75649   5.471   1.956   1.306  0.3110  0.0675 -0.4462
  574MOL0     C75650   5.350   1.889   1.385 -0.1349 -0.4236  1.0819
  574MOL0     C75651   5.223   1.978   1.370  0.8490  0.0066 -0.2052
  574MOL0     C75652   5.106   1.915   1.456 -0.1261  0.3052  0.3463
  574MOL0     N75653   4.973   1.952   1.431  0.6142 -0.2455  0.1295
  574MOL0     C75654   4.862   1.876   1.441  0.0983 -0.1018  1.1323
  574MOL0     C75655   4.765   1.970   1.458 -1.4547 -0.9162 -0.4784
  574MOL0     C75656   4.621   1.950   1.488  0.2308 -0.5273 -0.5343
  574MOL0     C75657   4.554   2.054   1.579  0.2836 -0.5516 -0.1490
  574MOL0     C75658   4.621   2.051   1.717  0.8309  0.2307 -0.0783
  574MOL0     C75659   4.560   2.160   1.810  0.3723  0.6137 -0.2966
  574MOL0     O75660   4.413   2.142   1.819 -1.4345 -0.0681 -0.4381
  574MOL0     C75661   4.334   2.251   1.853 -0.6330  0.4817  0.0138
  574MOL0     C75662   4.199   2.244   1.802 -0.1561 -0.4684  0.4197
  574MOL0     C75663   4.101   2.342   1.830 -0.4909  0.3860  1.0471
  574MOL0     C75664   4.139   2.452   1.906 -0.3484  0.1138  0.0614
  574MOL0     C75665   4.049   2.578   1.916  0.1934  0.2051  0.3743
  574MOL0     O75666   3.939   2.568   1.831 -0.0536 -0.6115 -0.0151
  574MOL0     C75667   3.831   2.658   1.842 -0.7434  0.7487  0.3352
  574MOL0     C75668   3.706   2.597   1.844 -0.0605  0.1975 -0.4481
  574MOL0     C75669   3.589   2.665   1.856 -0.5207 -0.5857  0.0958
  574MOL0     C75670   3.592   2.804   1.868 -0.0211 -0.5207 -0.5678
  574MOL0     O75671   3.476   2.875   1.860  0.1073 -0.5234 -0.2880
  574MOL0     C75672   3.445   2.957   1.977  0.0560 -0.5656  0.3406
  574MOL0     C75673   3.299   2.986   1.999  0.1452  0.5066 -0.3790
  574MOL0     C75674   3.231   3.028   1.866 -0.9139 -0.0439  0.0577
  574MOL0     C75675   3.082   3.034   1.889 -0.4292  0.1059  0.0143
  574MOL0     C75676   3.017   3.084   1.763  0.1687 -0.1935  0.4591
  574MOL0     C75677   2.866   3.122   1.777 -0.6549 -0.7745 -0.6237
  574MOL0     C75678   2.836   3.247   1.871 -0.2054  0.0227 -0.0214
  574MOL0     C75679   2.878   3.383   1.813  0.1527 -0.6723  0.9854
  574MOL0    Cl75680   2.790   3.432   1.661  0.4359 -0.0388 -0.1221
  574MOL0     C75681   3.711   2.870   1.859  0.3465  0.3335  0.0979
  574MOL0     C75682   3.834   2.801   1.834  0.2698 -0.9041 -0.1187
  574MOL0     O75683   4.078   2.661   1.999 -0.1274 -0.1012 -0.0371
  574MOL0     C75684   4.274   2.461   1.960 -0.4780  0.1754 -0.2796
  574MOL0     C75685   4.372   2.359   1.940 -0.1148 -0.1958 -0.1817
  574MOL0     N75686   4.818   2.095   1.448 -0.8129 -0.2476  0.0365
  574MOL0     N75687   4.942   2.087   1.431 -0.0820  0.3535  0.4042
  574MOL0     C75688   6.205   2.102   1.090  0.1499 -0.5123  0.8073
  574MOL0     C75689   6.305   2.144   0.997  0.6744 -0.6128 -0.1553
  574MOL0     C75690   6.521   2.266   0.607  0.1600  0.3875 -0.5828
  574MOL0     C75691   6.534   2.284   0.469 -0.1275  0.1079 -0.6426
  574MOL0     C75692   6.656   2.317   0.404  0.5694 -0.1596 -0.1345
  574MOL0     C75693   6.774   2.308   0.477 -0.0788 -0.5694 -0.3563
  574MOL0     O75694   6.894   2.354   0.416  1.0087  1.2955  0.6172
  574MOL0     C75695   7.003   2.329   0.501  0.0648  0.2807  0.7836
  574MOL0     C75696   7.133   2.368   0.425 -0.2151  0.1807 -0.6164
  574MOL0     C75697   7.142   2.520   0.376  0.0249  0.4345  0.3656
  574MOL0     C75698   7.271   2.555   0.311  0.2902  0.7530  0.8988
  574MOL0     C75699   7.294   2.462   0.191  0.3341 -0.8884  0.0159
  574MOL0     C75700   7.308   2.381   0.100  0.4095 -0.2782  0.5990
  574MOL0     C75701   6.768   2.263   0.614 -0.3585  0.9897 -0.0822
  574MOL0     C75702   6.648   2.251   0.675 -0.4535  0.2623 -1.4049
  574MOL0     H75703   6.127   2.213   0.722  3.7164  0.1383 -0.9387
  574MOL0     H75704   5.934   2.155   0.880  0.6011 -3.9530 -2.2420
  574MOL0     H75705   5.994   2.002   1.313  0.5659 -2.7054  1.2262
  574MOL0     H75706   6.044   1.891   1.188 -0.1913 -0.9931  1.7756
  574MOL0     H75707   5.865   1.815   1.325  2.0209  1.7679 -0.3463
  574MOL0     H75708   5.820   1.795   1.151  0.2124  0.4693  0.2069
  574MOL0     H75709   5.686   2.004   1.157 -2.3762 -1.3482 -0.2806
  574MOL0     H75710   5.724   2.015   1.333  0.8310 -0.8502  1.2623
  574MOL0     H75711   5.570   1.787   1.224 -1.0855 -1.4506  1.9950
  574MOL0     H75712   5.623   1.822   1.392  1.6645  0.0029 -0.5290
  574MOL0     H75713   5.435   1.982   1.206 -0.2344  1.4786  0.0871
  574MOL0     H75714   5.506   2.050   1.351  0.5258  1.7464 -3.8258
  574MOL0     H75715   5.371   1.889   1.492  2.9716 -0.2042  0.5837
  574MOL0     H75716   5.351   1.788   1.343  0.0286 -0.1657  0.4610
  574MOL0     H75717   5.239   2.077   1.414  1.1587  0.1028 -0.5286
  574MOL0     H75718   5.205   1.994   1.263 -0.5599  1.0313  0.1556
  574MOL0     H75719   5.140   1.937   1.557  0.7308  1.7279 -0.2160
  574MOL0     H75720   5.106   1.807   1.438 -0.1616  0.4078 -0.2840
  574MOL0     H75721   4.862   1.768   1.449  2.1143 -0.5955 -2.8552
  574MOL0     H75722   4.603   1.850   1.528 -0.5507 -0.1769  0.0255
  574MOL0     H75723   4.565   1.959   1.395 -3.0999 -0.1457  1.3600
  574MOL0     H75724   4.449   2.024   1.588  0.6037 -1.9385 -0.7398
  574MOL0     H75725   4.556   2.156   1.540 -3.0838 -0.9004 -1.5887
  574MOL0     H75726   4.599   1.959   1.771 -2.1208 -0.0949 -1.6063
  574MOL0     H75727   4.728   2.074   1.720  0.9662 -0.3737 -0.2010
  574MOL0     H75728   4.585   2.262   1.780  2.7148 -0.6479 -3.1375
  574MOL0     H75729   4.595   2.154   1.913 -3.2082  1.4365  1.0993
  574MOL0     H75730   4.187   2.158   1.736 -1.8096  0.0920 -0.0453
  574MOL0     H75731   4.003   2.341   1.782  0.2294  0.2896 -0.4845
  574MOL0     H75732   3.709   2.489   1.836  0.5518  0.3034 -1.8270
  574MOL0     H75733   3.492   2.617   1.860  0.0558 -1.9861 -1.4567
  574MOL0     H75734   3.494   3.052   1.953 -1.2900 -0.0913 -0.6677
  574MOL0     H75735   3.488   2.910   2.066  1.0036  2.6193  1.7128
  574MOL0     H75736   3.284   3.067   2.072 -0.6295 -1.6391  1.9775
  574MOL0     H75737   3.246   2.899   2.039 -3.5042  0.6051 -4.3066
  574MOL0     H75738   3.266   2.951   1.796  2.3792  1.7178 -0.4264
  574MOL0     H75739   3.284   3.119   1.839 -2.1279  0.0986 -2.1518
  574MOL0     H75740   3.041   2.939   1.924  2.0668 -0.4621  1.6942
  574MOL0     H75741   3.061   3.101   1.972 -0.0376 -1.6435  1.5950
  574MOL0     H75742   3.032   3.014   1.681 -1.5007  0.8931 -0.8437
  574MOL0     H75743   3.076   3.171   1.733  1.5838 -0.9654  0.8935
  574MOL0     H75744   2.817   3.031   1.814 -1.2359 -1.2867 -2.5649
  574MOL0     H75745   2.821   3.135   1.678 -0.4647 -3.5836 -1.1828
  574MOL0     H75746   2.728   3.261   1.880 -0.0918  0.0872  1.5150
  574MOL0     H75747   2.864   3.231   1.976 -0.5108 -1.0620 -0.0905
  574MOL0     H75748   2.987   3.394   1.807 -0.0298  0.8520 -0.6345
  574MOL0     H75749   2.841   3.458   1.884 -0.0828  0.7741 -0.5978
  574MOL0     H75750   3.722   2.977   1.849  1.8433  0.1178 -0.9661
  574MOL0     H75751   3.931   2.849   1.832  0.4785 -1.2251 -3.4860
  574MOL0     H75752   4.302   2.549   2.017 -0.5627 -0.0388  0.0994
  574MOL0     H75753   4.473   2.382   1.972 -0.3133  0.3510  0.0820
  574MOL0     H75754   6.240   2.087   1.192  0.1475  0.6805  1.0015
  574MOL0     H75755   6.405   2.141   1.041  1.1478  0.3283 -1.1148
  574MOL0     H75756   6.442   2.300   0.413 -0.9782  1.6099  1.0459
  574MOL0     H75757   6.662   2.363   0.305  2.9772  0.4600  0.2526
  574MOL0     H75758   6.998   2.221   0.519 -2.9603  0.4828  1.8353
  574MOL0     H75759   6.986   2.390   0.590 -4.3423  2.1101 -1.0282
  574MOL0     H75760   7.223   2.348   0.483 -0.5688  1.3123  0.3400
  574MOL0     H75761   7.137   2.308   0.333  2.8705 -1.8348  0.6579
  574MOL0     H75762   7.136   2.587   0.462 -0.1207  1.4938 -0.4592
  574MOL0     H75763   7.067   2.543   0.300 -1.1607 -1.5209  0.8647
  574MOL0     H75764   7.267   2.661   0.283 -0.9763  0.8474  1.3439
  574MOL0     H75765   7.358   2.537   0.374 -0.1080 -0.9452  1.0145
  574MOL0     H75766   7.318   2.310   0.021 -0.9431 -1.8266  1.7650
  574MOL0     H75767   6.859   2.265   0.673 -0.3947 -3.2581  0.4225
  574MOL0     H75768   6.643   2.233   0.782  1.3635  1.2025 -1.1216
  575MOL0     O75769  10.896   2.827   6.741  0.1163 -0.3899 -0.4816
  575MOL0     C75770  10.956   2.932   6.765  0.1523  0.5344 -0.4091
  575MOL0     O75771  10.897   3.034   6.819 -0.0865 -0.2518  0.1979
  575MOL0     C75772  10.758   3.043   6.831 -0.1028  0.1451 -0.0630
  575MOL0     C75773  10.692   3.158   6.794 -0.0269 -0.8754 -0.5293
  575MOL0     C75774  10.555   3.168   6.789  0.1612 -0.0605  0.0301
  575MOL0     C75775  10.474   3.063   6.826 -0.0898 -0.5759  0.1785
  575MOL0     O75776  10.335   3.064   6.825  0.1532 -0.8418 -0.1259
  575MOL0     C75777  10.261   3.182   6.779  0.0995 -0.2442 -0.5636
  575MOL0     C75778  10.125   3.184   6.854  0.2175  0.1292  0.2190
  575MOL0     C75779  10.005   3.261   6.788 -0.0391 -0.4954 -0.1709
  575MOL0     C75780  10.040   3.412   6.779  0.9200  0.3916  0.0958
  575MOL0     C75781   9.959   3.496   6.683  0.5287  0.5015 -0.3201
  575MOL0     C75782   9.809   3.491   6.721  1.1724 -0.3260  0.0378
  575MOL0     C75783   9.715   3.501   6.597 -0.4381  0.6187  0.2578
  575MOL0     C75784   9.731   3.628   6.515  0.4561  1.1151 -0.9512
  575MOL0     N75785   9.709   3.750   6.602  0.1992  0.5488  0.3573
  575MOL0     C75786   9.590   3.784   6.664 -0.7314  1.2573  0.8700
  575MOL0     C75787   9.620   3.892   6.747 -0.5241  0.9138  0.7185
  575MOL0     C75788   9.533   3.975   6.838 -0.4425  0.4702 -0.2320
  575MOL0     C75789   9.456   3.881   6.936  0.2021  0.2658  0.9824
  575MOL0     C75790   9.388   3.961   7.048 -0.5484 -1.2396 -0.4562
  575MOL0     C75791   9.292   4.065   6.992  0.2439 -0.9588  0.1356
  575MOL0     O75792   9.246   4.155   7.086 -0.5530 -0.0176 -0.0690
  575MOL0     C75793   9.168   4.115   7.185 -0.2117 -0.0295  0.2716
  575MOL0     C75794   9.171   4.211   7.287 -0.2261  0.0720 -0.3111
  575MOL0     C75795   9.080   4.193   7.387 -0.7559 -0.9599  0.1393
  575MOL0     C75796   9.004   4.071   7.399  0.0578 -0.5258 -0.7687
  575MOL0     C75797   8.916   4.064   7.515 -0.0356 -0.1684 -0.1224
  575MOL0     O75798   8.930   4.156   7.606 -0.6023  0.5599 -0.6597
  575MOL0     C75799   8.833   4.173   7.709  0.3281 -0.5346  1.0936
  575MOL0     C75800   8.732   4.269   7.719  0.0153 -0.7942  0.1608
  575MOL0     C75801   8.622   4.253   7.809 -0.5603 -0.2862 -0.1279
  575MOL0     C75802   8.626   4.142   7.893  0.5829 -0.0872  0.7175
  575MOL0     O75803   8.533   4.133   7.992 -0.5557 -0.1077 -0.0428
  575MOL0     C75804   8.396   4.158   7.946  0.0365  0.7192  0.4877
  575MOL0     C75805   8.297   4.105   8.046  0.4230  0.5662  0.1622
  575MOL0     C75806   8.149   4.087   7.985  0.7746 -0.0783 -0.5820
  575MOL0     C75807   8.053   4.062   8.105 -0.7047 -0.1552  0.0054
  575MOL0     C75808   7.912   4.044   8.052  0.1040 -0.1912 -0.1140
  575MOL0     C75809   7.819   3.994   8.167 -0.2002  0.3832  0.4108
  575MOL0     C75810   7.680   3.959   8.124  0.1095  1.0775 -0.2142
  575MOL0     C75811   7.618   4.070   8.049  0.6424  0.2951 -1.1039
  575MOL0    Cl75812   7.449   4.029   8.012 -0.0808  0.2546  0.4370
  575MOL0     C75813   8.727   4.048   7.879  0.5229 -0.7450 -0.3276
  575MOL0     C75814   8.837   4.062   7.799  0.5786 -0.7944 -0.3925
  575MOL0     O75815   8.838   3.974   7.519 -0.7748  0.3448  0.0687
  575MOL0     C75816   9.013   3.972   7.305  0.6873 -0.5981 -0.5280
  575MOL0     C75817   9.086   4.004   7.189  0.3870  0.3680 -1.1219
  575MOL0     N75818   9.756   3.918   6.723 -0.1141 -0.5001 -0.3313
  575MOL0     N75819   9.811   3.832   6.646  0.2453 -0.3559 -0.1856
  575MOL0     C75820  10.535   2.949   6.876 -0.0112  0.1997 -0.3015
  575MOL0     C75821  10.676   2.942   6.884  0.5379  0.4614 -0.2309
  575MOL0     C75822  11.106   2.935   6.746 -0.6921 -0.3126 -1.1995
  575MOL0     C75823  11.183   2.840   6.674  0.4637 -0.3187 -0.9329
  575MOL0     C75824  11.320   2.848   6.674 -0.4892 -0.0581  0.0400
  575MOL0     C75825  11.391   2.943   6.742  0.4454 -0.5645  0.1219
  575MOL0     O75826  11.531   2.946   6.735 -0.2967 -0.5914 -0.0649
  575MOL0     C75827  11.580   3.014   6.621 -0.6115 -0.5362  0.1908
  575MOL0     C75828  11.611   2.911   6.508  0.6758  0.0615  1.1082
  575MOL0     C75829  11.719   2.797   6.527  0.4273  0.0857  0.6489
  575MOL0     C75830  11.854   2.851   6.571 -0.9344 -0.0178  0.0067
  575MOL0     C75831  11.893   2.973   6.496  0.2068 -0.2735 -0.4051
  575MOL0     C75832  11.926   3.082   6.446 -0.2525  0.6854  0.3337
  575MOL0     C75833  11.324   3.045   6.806  0.7226  0.2129  0.5205
  575MOL0     C75834  11.185   3.038   6.811 -0.1457  0.1493 -0.0192
  575MOL0     H75835  10.749   3.242   6.758 -0.3254 -1.0285 -1.3709
  575MOL0     H75836  10.514   3.256   6.739  0.1104 -1.1409 -1.9588
  575MOL0     H75837  10.247   3.176   6.670  1.5262 -2.2093 -0.6856
  575MOL0     H75838  10.311   3.273   6.812 -1.8191  0.5981  0.1793
  575MOL0     H75839  10.149   3.228   6.952  0.1763  1.2947 -0.2822
  575MOL0     H75840  10.092   3.081   6.871 -3.4366  1.1604  0.2872
  575MOL0     H75841   9.916   3.259   6.851  0.3538 -0.1322  0.4068
  575MOL0     H75842   9.990   3.218   6.688  1.5697  1.0242 -1.1123
  575MOL0     H75843  10.020   3.461   6.874  0.8026  0.4588  0.0382
  575MOL0     H75844  10.145   3.426   6.752  1.0211 -2.2759 -1.2339
  575MOL0     H75845   9.969   3.443   6.588 -0.2564 -3.3648  1.5654
  575MOL0     H75846   9.987   3.602   6.686 -3.6499  1.7630  0.4017
  575MOL0     H75847   9.802   3.586   6.774 -0.8374 -0.1594 -0.4672
  575MOL0     H75848   9.775   3.407   6.783 -3.7803 -0.2537 -2.0702
  575MOL0     H75849   9.753   3.417   6.538 -2.3866  0.2219 -0.4958
  575MOL0     H75850   9.608   3.485   6.608 -0.8789  1.0585 -2.5694
  575MOL0     H75851   9.665   3.630   6.427  0.3418 -0.0420 -0.9105
  575MOL0     H75852   9.832   3.625   6.473  0.5572  0.4175 -0.6629
  575MOL0     H75853   9.494   3.734   6.656  0.9001 -1.8398 -1.5448
  575MOL0     H75854   9.460   4.018   6.770 -0.9003 -3.6113 -2.6244
  575MOL0     H75855   9.589   4.054   6.889 -0.5357  1.0312 -0.9893
  575MOL0     H75856   9.529   3.820   6.991  0.6051  2.2636  2.7812
  575MOL0     H75857   9.391   3.814   6.880 -0.0444  0.4829  1.0106
  575MOL0     H75858   9.337   3.885   7.108  0.1418 -0.6235  0.9533
  575MOL0     H75859   9.464   4.007   7.111  0.1988 -1.8001 -0.9384
  575MOL0     H75860   9.212   4.014   6.939 -0.0866  0.4797 -0.7908
  575MOL0     H75861   9.340   4.127   6.916  0.3625 -0.5232  0.5606
  575MOL0     H75862   9.237   4.297   7.284 -2.1702  1.6319 -0.7340
  575MOL0     H75863   9.069   4.275   7.457  0.0822 -1.4982  0.9109
  575MOL0     H75864   8.737   4.352   7.649  0.2204 -0.5742  0.4297
  575MOL0     H75865   8.556   4.337   7.821  0.7157  0.8363 -0.6905
  575MOL0     H75866   8.385   4.106   7.850  2.1025  0.8844  0.1287
  575MOL0     H75867   8.378   4.266   7.950 -0.3666  0.6973 -0.4400
  575MOL0     H75868   8.298   4.161   8.140  0.7481  1.8683 -0.5786
  575MOL0     H75869   8.335   4.009   8.082 -0.2211  1.5396  3.8349
  575MOL0     H75870   8.153   4.015   7.903 -2.1667 -0.5832 -0.3743
  575MOL0     H75871   8.118   4.180   7.937  4.2348  1.2495 -0.5531
  575MOL0     H75872   8.081   3.977   8.167  0.6063  0.7830  0.7599
  575MOL0     H75873   8.055   4.150   8.171  0.9634  0.0189 -0.2345
  575MOL0     H75874   7.911   3.965   7.976 -3.2099 -1.1397  0.7514
  575MOL0     H75875   7.883   4.139   8.006  0.2124 -0.1045 -0.0039
  575MOL0     H75876   7.811   4.067   8.249 -3.0965 -1.1493  1.6475
  575MOL0     H75877   7.861   3.899   8.202 -0.2067 -0.2609 -1.2595
  575MOL0     H75878   7.677   3.865   8.067  2.1639  0.4029  0.6839
  575MOL0     H75879   7.614   3.950   8.211 -0.9841 -1.0113 -1.1853
  575MOL0     H75880   7.665   4.091   7.952  0.1095  1.4578 -1.1247
  575MOL0     H75881   7.634   4.164   8.104  1.6564  0.6667 -1.9938
  575MOL0     H75882   8.735   3.961   7.944 -0.1306 -1.9064 -1.7374
  575MOL0     H75883   8.919   3.991   7.786  2.7047  1.2933  0.7921
  575MOL0     H75884   8.943   3.889   7.304  0.0361 -0.0724 -2.3623
  575MOL0     H75885   9.069   3.939   7.104 -3.1300  2.1288 -1.9454
  575MOL0     H75886  10.482   2.861   6.912 -0.7164  1.1936  1.1762
  575MOL0     H75887  10.723   2.851   6.921 -1.3599 -0.6389 -0.3690
  575MOL0     H75888  11.126   2.762   6.624 -0.2428 -1.1563  1.0825
  575MOL0     H75889  11.369   2.776   6.608  0.2606 -0.7710  1.3400
  575MOL0     H75890  11.658   3.086   6.647 -0.3521 -1.3427  1.7775
  575MOL0     H75891  11.501   3.082   6.587 -1.9528 -1.8593  0.5520
  575MOL0     H75892  11.519   2.859   6.479  1.7245 -1.2214 -0.0526
  575MOL0     H75893  11.648   2.967   6.421 -0.8994 -0.5197  0.0248
  575MOL0     H75894  11.728   2.749   6.429 -1.0154 -1.2596  1.1265
  575MOL0     H75895  11.690   2.713   6.591  1.1086 -0.8002 -0.1825
  575MOL0     H75896  11.855   2.871   6.679  1.2904  0.7034 -0.0937
  575MOL0     H75897  11.925   2.772   6.545  0.8471  1.5398 -0.0660
  575MOL0     H75898  11.946   3.169   6.387  2.2384  0.1074  0.1970
  575MOL0     H75899  11.375   3.127   6.857  1.7556  0.5187 -0.9460
  575MOL0     H75900  11.132   3.099   6.883 -1.0181 -1.9029  1.1648
  576MOL0     O75901   6.345   8.543   1.744 -0.3050  0.1523 -0.6077
  576MOL0     C75902   6.415   8.640   1.726 -0.5364 -0.0665  1.1276
  576MOL0     O75903   6.380   8.759   1.683  0.1664  0.1766  0.1928
  576MOL0     C75904   6.246   8.773   1.661 -0.3911 -0.6699  0.6882
  576MOL0     C75905   6.199   8.749   1.536 -1.0275  0.6569  0.6897
  576MOL0     C75906   6.061   8.744   1.508 -0.1600  0.6190  0.4029
  576MOL0     C75907   5.969   8.792   1.604 -0.1170 -0.9363 -0.6368
  576MOL0     O75908   5.831   8.819   1.567 -0.0861  0.3428 -0.3553
  576MOL0     C75909   5.801   8.834   1.429  0.0968  0.6253  1.3463
  576MOL0     C75910   5.844   8.970   1.375 -0.2036 -0.1502  0.8682
  576MOL0     C75911   5.782   8.980   1.233 -1.0314  0.0702 -0.2095
  576MOL0     C75912   5.811   9.121   1.175 -0.5904  0.3364  0.1797
  576MOL0     C75913   5.743   9.133   1.042 -0.3993 -0.4414  0.5376
  576MOL0     C75914   5.782   9.269   0.974  0.4839  0.2220  0.2998
  576MOL0     C75915   5.732   9.295   0.825 -0.3722 -0.6920 -0.7364
  576MOL0     C75916   5.587   9.308   0.818 -0.6514 -1.0724 -0.3753
  576MOL0     N75917   5.538   9.293   0.679 -0.0286 -0.2262 -0.5895
  576MOL0     C75918   5.411   9.260   0.640 -0.0301  0.1068  0.2718
  576MOL0     C75919   5.413   9.275   0.504  0.5060 -0.6634 -0.4893
  576MOL0     C75920   5.292   9.246   0.416 -0.0153 -0.7485 -0.3736
  576MOL0     C75921   5.223   9.383   0.408  0.4458 -0.0819 -1.0741
  576MOL0     C75922   5.130   9.385   0.288 -0.2201 -0.3100  0.0223
  576MOL0     C75923   5.008   9.300   0.312 -0.3342 -0.0655  0.1703
  576MOL0     O75924   4.924   9.309   0.195  0.9045 -1.3835 -0.3261
  576MOL0     C75925   4.834   9.206   0.182  0.1111 -0.0711 -0.1821
  576MOL0     C75926   4.814   9.109   0.273 -0.5298  0.3500 -0.1870
  576MOL0     C75927   4.729   8.999   0.247  1.0290 -0.8641 -0.4802
  576MOL0     C75928   4.652   8.993   0.132 -0.3391  0.2851 -0.1476
  576MOL0     C75929   4.559   8.882   0.108 -0.9237  0.1160  0.3244
  576MOL0     O75930   4.535   8.795   0.211  0.6683  0.1478  0.5060
  576MOL0     C75931   4.435   8.694   0.202 -0.7158  0.3255  0.1678
  576MOL0     C75932   4.392   8.644   0.322 -0.3295 -0.2476 -0.1044
  576MOL0     C75933   4.313   8.522   0.328  0.4553  0.6984  0.6998
  576MOL0     C75934   4.266   8.461   0.211  0.3136 -0.8643  0.2311
  576MOL0     O75935   4.185   8.349   0.226 -0.0180 -0.2464 -0.2507
  576MOL0     C75936   4.220   8.224   0.162 -0.4364 -0.3671  0.0736
  576MOL0     C75937   4.097   8.131   0.185 -0.9917 -0.5107  1.1189
  576MOL0     C75938   4.129   7.985   0.157  0.4647 -0.6669 -0.0493
  576MOL0     C75939   4.166   7.957   0.009 -0.8516 -0.4046 -0.7943
  576MOL0     C75940   4.189   7.807  -0.014  0.1713  0.5590  1.1011
  576MOL0     C75941   4.065   7.731  -0.048 -0.4607 -0.1339 -0.7558
  576MOL0     C75942   4.084   7.600  -0.117 -0.2715 -0.1877  0.3142
  576MOL0     C75943   4.199   7.518  -0.052 -1.4063  1.4482  0.6873
  576MOL0    Cl75944   4.215   7.352  -0.120  0.0314 -0.2673  0.0414
  576MOL0     C75945   4.304   8.519   0.095  0.4955  0.0394 -0.2223
  576MOL0     C75946   4.384   8.629   0.085  0.1285  0.4032 -0.1533
  576MOL0     O75947   4.497   8.888  -0.004  0.4592  0.0748  0.2739
  576MOL0     C75948   4.676   9.090   0.041  0.2153 -0.7116  0.3214
  576MOL0     C75949   4.755   9.206   0.063  0.5500 -0.5805 -0.3775
  576MOL0     N75950   5.543   9.317   0.464 -0.3277 -0.1367  0.0384
  576MOL0     N75951   5.616   9.320   0.568  0.3334 -0.0048  0.5023
  576MOL0     C75952   6.016   8.811   1.730 -0.0299  0.7474 -0.1164
  576MOL0     C75953   6.153   8.796   1.760  0.6330  1.1466  1.0906
  576MOL0     C75954   6.555   8.611   1.761  0.3431  0.2315  0.1020
  576MOL0     C75955   6.598   8.500   1.835  0.1906  0.2752  0.8559
  576MOL0     C75956   6.732   8.473   1.847 -0.4053  0.9452  0.0396
  576MOL0     C75957   6.829   8.566   1.803  0.2756 -0.1341  0.2436
  576MOL0     O75958   6.961   8.533   1.812 -0.2151 -0.1417  0.7124
  576MOL0     C75959   7.049   8.647   1.821  0.1194  0.3186 -0.8804
  576MOL0     C75960   7.183   8.602   1.887 -1.2925 -0.1137  0.2374
  576MOL0     C75961   7.283   8.723   1.875  0.1098  0.7778 -0.0867
  576MOL0     C75962   7.426   8.681   1.918  0.4930 -0.1263  0.5340
  576MOL0     C75963   7.435   8.646   2.061  0.4649 -0.1745 -0.0566
  576MOL0     C75964   7.446   8.621   2.181 -0.6161  0.3687  0.4625
  576MOL0     C75965   6.784   8.682   1.726 -0.5017 -0.3643 -0.1042
  576MOL0     C75966   6.648   8.698   1.705 -0.6404  0.4277  0.3985
  576MOL0     H75967   6.273   8.738   1.457 -0.1682  0.2896  1.5290
  576MOL0     H75968   6.031   8.710   1.410  3.5908  0.4794 -0.8596
  576MOL0     H75969   5.694   8.822   1.410  0.5995  0.2371 -1.8154
  576MOL0     H75970   5.845   8.748   1.379  0.6907  0.8621  1.4475
  576MOL0     H75971   5.953   8.982   1.370 -0.2308 -0.1158  0.2131
  576MOL0     H75972   5.802   9.050   1.435 -2.6435  0.9313 -2.0333
  576MOL0     H75973   5.675   8.959   1.244 -0.7401 -1.4265 -0.1272
  576MOL0     H75974   5.819   8.898   1.171  1.9322  1.0143  0.1244
  576MOL0     H75975   5.769   9.190   1.249 -2.5816 -1.3890  0.7637
  576MOL0     H75976   5.917   9.136   1.152 -0.5256  0.9740  0.8618
  576MOL0     H75977   5.636   9.122   1.059 -0.5001 -0.9397 -0.3371
  576MOL0     H75978   5.750   9.051   0.970 -2.1574 -0.6471  0.5598
  576MOL0     H75979   5.891   9.277   0.967  0.2519  2.3125 -1.8132
  576MOL0     H75980   5.741   9.344   1.041  1.2623  0.2814  0.7244
  576MOL0     H75981   5.766   9.391   0.785 -2.7753  0.3734 -0.4274
  576MOL0     H75982   5.761   9.214   0.759  3.1578  0.1998 -0.4834
  576MOL0     H75983   5.549   9.404   0.855  1.6312  0.5251 -1.9351
  576MOL0     H75984   5.529   9.229   0.868 -0.6301 -0.2127  1.0653
  576MOL0     H75985   5.324   9.229   0.697 -1.0495  0.9669 -0.7681
  576MOL0     H75986   5.223   9.177   0.466 -3.7777  3.2717  0.6033
  576MOL0     H75987   5.322   9.209   0.318 -2.6589 -0.0417 -1.5560
  576MOL0     H75988   5.296   9.463   0.395  0.2209 -0.1698 -3.2271
  576MOL0     H75989   5.174   9.405   0.504  3.9489 -0.2800  0.9112
  576MOL0     H75990   5.093   9.484   0.261  1.4836  0.6096  0.8809
  576MOL0     H75991   5.176   9.344   0.197  1.1742 -0.1328  0.6208
  576MOL0     H75992   4.949   9.346   0.392 -2.1139  0.3393 -1.3075
  576MOL0     H75993   5.045   9.199   0.330  0.8426  0.5566  1.4538
  576MOL0     H75994   4.866   9.108   0.369 -1.9862  2.1955  0.6709
  576MOL0     H75995   4.715   8.936   0.334 -0.8035  0.6062  0.3685
  576MOL0     H75996   4.424   8.694   0.412  0.2208  1.9464 -1.4314
  576MOL0     H75997   4.270   8.484   0.420 -0.9020  0.5899  0.0429
  576MOL0     H75998   4.304   8.176   0.212 -0.1457  1.3228  1.3052
  576MOL0     H75999   4.243   8.230   0.055  0.5889 -0.7755  0.2583
  576MOL0     H76000   4.016   8.162   0.119 -0.9221 -3.1480 -0.3018
  576MOL0     H76001   4.050   8.138   0.284 -4.3473 -1.3342 -0.2844
  576MOL0     H76002   4.039   7.929   0.183 -0.0498  0.3708  0.4734
  576MOL0     H76003   4.195   7.945   0.234 -0.0485 -0.2444  0.6226
  576MOL0     H76004   4.090   7.991  -0.062  1.0546 -1.1327 -3.3392
  576MOL0     H76005   4.259   8.008  -0.015 -0.4573 -0.5367  0.3946
  576MOL0     H76006   4.234   7.757   0.072  0.8895 -1.7327 -0.4878
  576MOL0     H76007   4.263   7.793  -0.095 -4.8331 -0.8031 -3.8948
  576MOL0     H76008   4.003   7.793  -0.113  1.3018  1.6021 -0.8973
  576MOL0     H76009   4.004   7.713   0.040  1.1104  1.1703  0.6725
  576MOL0     H76010   3.994   7.538  -0.121 -1.4021  1.4510 -1.9308
  576MOL0     H76011   4.115   7.622  -0.219 -0.0872  2.2096  0.8251
  576MOL0     H76012   4.189   7.497   0.054  1.2029  0.8107  0.8541
  576MOL0     H76013   4.295   7.568  -0.062  1.0328 -2.9377 -0.3041
  576MOL0     H76014   4.280   8.468   0.003  1.1403  1.5855 -1.2841
  576MOL0     H76015   4.402   8.672  -0.013  0.5160  0.4119 -0.0797
  576MOL0     H76016   4.624   9.087  -0.054 -1.1952  2.1861  0.8783
  576MOL0     H76017   4.754   9.286  -0.010 -0.8827 -0.2352 -0.0016
  576MOL0     H76018   5.967   8.860   1.814  3.2843  1.6370  1.4425
  576MOL0     H76019   6.192   8.808   1.860  0.9153 -0.4540  1.1930
  576MOL0     H76020   6.546   8.420   1.887  0.6474 -0.5021  0.1577
  576MOL0     H76021   6.769   8.386   1.901  0.9617  1.4111 -0.1051
  576MOL0     H76022   7.016   8.724   1.891  2.8810  0.9412 -0.1270
  576MOL0     H76023   7.065   8.695   1.724  1.3871  1.8363  0.0199
  576MOL0     H76024   7.170   8.583   1.994  0.6465 -0.4151  0.4574
  576MOL0     H76025   7.228   8.513   1.842 -1.1632 -0.6682  1.4171
  576MOL0     H76026   7.249   8.797   1.948 -0.5975 -1.3499  1.8861
  576MOL0     H76027   7.290   8.754   1.771  0.0791  0.2453 -0.2526
  576MOL0     H76028   7.466   8.600   1.856 -1.1344  0.7531 -1.8035
  576MOL0     H76029   7.486   8.770   1.896 -0.1392 -0.5868 -4.2061
  576MOL0     H76030   7.448   8.626   2.288 -1.8897 -2.0457  0.6793
  576MOL0     H76031   6.845   8.755   1.674 -0.5306  0.2678  0.7376
  576MOL0     H76032   6.618   8.777   1.637 -0.6822 -1.6691 -2.1181
  577MOL0     O76033   4.949   1.006   7.670 -0.4521  0.6090 -0.1558
  577MOL0     C76034   4.993   1.104   7.607  0.6973  0.3295  0.5530
  577MOL0     O76035   4.928   1.226   7.607 -0.7046  0.3399 -0.6791
  577MOL0     C76036   4.797   1.240   7.651 -0.9582  0.8826 -0.0226
  577MOL0     C76037   4.778   1.332   7.749 -0.7339 -0.1530  0.7401
  577MOL0     C76038   4.656   1.354   7.800  0.2878  0.7589  0.6579
  577MOL0     C76039   4.547   1.272   7.762 -0.5218  0.9505 -0.6471
  577MOL0     O76040   4.422   1.299   7.800  0.6921  0.6452 -0.0532
  577MOL0     C76041   4.327   1.322   7.698  0.3149 -0.5093 -0.3907
  577MOL0     C76042   4.292   1.470   7.709  0.6645 -0.1773 -0.1796
  577MOL0     C76043   4.174   1.495   7.618  0.3986  0.5340  0.2648
  577MOL0     C76044   4.114   1.637   7.621 -0.3668 -0.6769 -0.1951
  577MOL0     C76045   3.992   1.665   7.538 -0.3256  0.5938 -0.1512
  577MOL0     C76046   3.867   1.583   7.570  0.1618  0.1864 -0.7503
  577MOL0     C76047   3.827   1.584   7.721 -0.4701  0.0475  1.1070
  577MOL0     C76048   3.688   1.527   7.735  0.1542 -0.1005 -0.3821
  577MOL0     N76049   3.586   1.603   7.663 -0.6208  0.4276  0.4186
  577MOL0     C76050   3.568   1.745   7.677 -0.0535 -0.1648  0.1073
  577MOL0     C76051   3.470   1.782   7.579  0.0869 -0.3502 -0.6823
  577MOL0     C76052   3.411   1.916   7.541 -0.6488 -0.6120 -0.6439
  577MOL0     C76053   3.524   2.012   7.488 -0.2503 -0.6608 -0.3016
  577MOL0     C76054   3.490   2.155   7.506  0.2808  0.9445  0.6811
  577MOL0     C76055   3.350   2.193   7.448  0.4083  0.0579  0.0492
  577MOL0     O76056   3.343   2.143   7.307 -1.2723 -0.6606 -0.2968
  577MOL0     C76057   3.223   2.103   7.257 -0.1441  0.2656 -0.4377
  577MOL0     C76058   3.093   2.122   7.317 -0.2669  0.6817  0.0437
  577MOL0     C76059   2.983   2.102   7.235  0.4786 -0.4496 -0.6099
  577MOL0     C76060   2.994   2.078   7.096  0.1837  1.0808  0.6364
  577MOL0     C76061   2.866   2.080   7.008  0.6252  0.2745 -0.5241
  577MOL0     O76062   2.752   2.100   7.076  0.6346  0.5285  0.1468
  577MOL0     C76063   2.622   2.078   7.019 -0.1917 -0.1626  0.3710
  577MOL0     C76064   2.524   2.061   7.119  0.1271  0.2918 -0.0025
  577MOL0     C76065   2.390   2.043   7.085 -0.6863  0.4597 -0.2130
  577MOL0     C76066   2.351   2.050   6.953 -0.5965  0.4262  0.9368
  577MOL0     O76067   2.220   2.041   6.902 -0.1537  1.0594  0.2031
  577MOL0     C76068   2.131   1.966   6.980  0.6424 -0.0586 -0.4235
  577MOL0     C76069   2.016   1.914   6.893  0.2694 -0.6351 -0.8730
  577MOL0     C76070   1.914   2.025   6.871 -0.1218  0.0365 -0.5662
  577MOL0     C76071   1.804   1.979   6.774 -0.0854 -0.2678 -0.3284
  577MOL0     C76072   1.696   2.087   6.746 -0.1964  0.1827 -0.4842
  577MOL0     C76073   1.577   2.041   6.665  0.3422  0.7442 -0.7886
  577MOL0     C76074   1.461   2.146   6.649 -0.1015 -0.4590 -0.1558
  577MOL0     C76075   1.335   2.078   6.581 -0.0984 -0.9130 -0.6125
  577MOL0    Cl76076   1.253   2.226   6.510  0.3507 -0.3289  0.5401
  577MOL0     C76077   2.452   2.069   6.854  0.0549 -0.8899  0.9140
  577MOL0     C76078   2.590   2.076   6.885 -0.0055  0.1623  0.4964
  577MOL0     O76079   2.877   2.058   6.890 -0.5675  0.2376 -0.5287
  577MOL0     C76080   3.117   2.049   7.042  0.9314  0.2337  0.4439
  577MOL0     C76081   3.235   2.057   7.126  0.6764 -0.2278 -0.0412
  577MOL0     N76082   3.438   1.663   7.509 -0.0202  0.9012  0.4604
  577MOL0     N76083   3.513   1.564   7.557  0.2628 -0.4857  0.1182
  577MOL0     C76084   4.571   1.164   7.674 -0.1629 -0.7198 -0.8559
  577MOL0     C76085   4.695   1.154   7.612 -0.6047  0.2391 -0.0730
  577MOL0     C76086   5.129   1.090   7.544  0.8961  0.2573  0.1221
  577MOL0     C76087   5.219   0.978   7.568 -0.0245  0.1639  0.0001
  577MOL0     C76088   5.349   0.983   7.508 -0.7552 -0.3088  0.3825
  577MOL0     C76089   5.385   1.069   7.410 -0.4672  0.0744  0.4596
  577MOL0     O76090   5.506   1.060   7.351  0.0055  0.3065  0.6767
  577MOL0     C76091   5.509   1.050   7.210  0.5968 -0.4244  0.4566
  577MOL0     C76092   5.655   1.084   7.156  0.1234  0.6171  0.1733
  577MOL0     C76093   5.756   0.968   7.158  0.1718  1.1781  0.0797
  577MOL0     C76094   5.882   1.017   7.100  0.6128 -0.0625 -0.0818
  577MOL0     C76095   5.997   0.939   7.145  0.8588  0.2087  0.7006
  577MOL0     C76096   6.096   0.883   7.199  0.4688 -0.4826 -0.8833
  577MOL0     C76097   5.294   1.173   7.386 -0.8182 -0.5247  0.6213
  577MOL0     C76098   5.175   1.184   7.454  0.5804 -0.0282  0.1440
  577MOL0     H76099   4.858   1.398   7.781 -1.5735  0.4614  1.6543
  577MOL0     H76100   4.641   1.442   7.862 -0.3170  1.0668  0.0892
  577MOL0     H76101   4.239   1.261   7.721  1.3371 -1.0490  2.4506
  577MOL0     H76102   4.366   1.301   7.598 -0.4163  2.3437 -1.3823
  577MOL0     H76103   4.380   1.521   7.668  2.7220 -1.8089  1.9512
  577MOL0     H76104   4.270   1.495   7.813  0.4702  0.2931 -0.3315
  577MOL0     H76105   4.088   1.435   7.651  0.0252  0.7244 -0.3515
  577MOL0     H76106   4.212   1.467   7.520  2.5321 -1.9699  1.6709
  577MOL0     H76107   4.089   1.674   7.721  1.1884  0.4569 -0.1840
  577MOL0     H76108   4.197   1.701   7.590 -0.7821 -0.1711 -0.2738
  577MOL0     H76109   4.024   1.641   7.436  1.4747  2.2787 -0.0245
  577MOL0     H76110   3.968   1.771   7.543 -2.0916  0.2183  0.0080
  577MOL0     H76111   3.889   1.479   7.543 -2.7260 -0.4056 -1.1748
  577MOL0     H76112   3.790   1.628   7.507  2.5707  3.5916 -1.5024
  577MOL0     H76113   3.898   1.516   7.769  2.1159  1.2469 -0.7054
  577MOL0     H76114   3.832   1.685   7.762 -2.1651  1.6309 -2.1590
  577MOL0     H76115   3.663   1.524   7.841  2.0120  1.0274  0.1220
  577MOL0     H76116   3.682   1.423   7.700 -0.9566  0.1982 -1.1417
  577MOL0     H76117   3.611   1.818   7.744  1.6661 -1.7164  0.7639
  577MOL0     H76118   3.364   1.968   7.625 -0.2045  1.6477 -1.6895
  577MOL0     H76119   3.340   1.895   7.461  0.4390 -2.0689 -1.2793
  577MOL0     H76120   3.563   1.983   7.390 -0.1953  1.6435 -1.0112
  577MOL0     H76121   3.612   2.002   7.553 -1.0586  1.5592  1.2421
  577MOL0     H76122   3.487   2.169   7.614  0.4210  1.5676  0.6089
  577MOL0     H76123   3.566   2.219   7.461  1.6879  0.5702  2.4355
  577MOL0     H76124   3.328   2.300   7.449 -1.8151 -0.3387  1.2449
  577MOL0     H76125   3.283   2.141   7.518  0.2188 -1.6702 -1.3663
  577MOL0     H76126   3.084   2.145   7.423  2.4586 -0.9510  0.7611
  577MOL0     H76127   2.886   2.108   7.284  1.7251  1.5645  1.8694
  577MOL0     H76128   2.551   2.053   7.224 -3.9054  1.8342  1.3650
  577MOL0     H76129   2.325   2.022   7.169  1.7950 -2.9423  1.1303
  577MOL0     H76130   2.085   2.026   7.060 -0.8549 -1.1540 -0.4335
  577MOL0     H76131   2.166   1.872   7.023 -1.2721 -0.7320 -0.2233
  577MOL0     H76132   1.972   1.826   6.941 -2.1612  0.1857 -1.4445
  577MOL0     H76133   2.053   1.881   6.795  0.9283  0.0949 -0.8829
  577MOL0     H76134   1.968   2.113   6.837  1.0620  0.0599  1.2793
  577MOL0     H76135   1.874   2.057   6.967 -0.5517  1.3031 -1.1539
  577MOL0     H76136   1.850   1.936   6.684  0.3562 -1.0258  0.2428
  577MOL0     H76137   1.753   1.898   6.826 -1.7130  1.9835  1.7841
  577MOL0     H76138   1.756   2.158   6.688 -0.6747  0.9558 -0.0501
  577MOL0     H76139   1.662   2.148   6.830 -0.7887  0.3445 -0.8361
  577MOL0     H76140   1.546   1.942   6.699 -1.1349  1.7264  0.9076
  577MOL0     H76141   1.616   2.020   6.565  0.0738  1.1958 -0.9883
  577MOL0     H76142   1.429   2.179   6.749 -0.9009 -0.1373 -0.5105
  577MOL0     H76143   1.490   2.229   6.584 -2.8395  0.1651 -0.7248
  577MOL0     H76144   1.274   2.034   6.660  2.0256  1.6344  2.7455
  577MOL0     H76145   1.358   2.005   6.503  0.4401 -1.2749 -0.1278
  577MOL0     H76146   2.424   2.064   6.749  2.0497 -1.4008  0.3733
  577MOL0     H76147   2.656   2.081   6.799 -0.5727  0.3737  0.0723
  577MOL0     H76148   3.121   2.025   6.936 -1.1540 -0.6917  0.5166
  577MOL0     H76149   3.336   2.055   7.086  0.4861  1.7195 -0.6746
  577MOL0     H76150   4.481   1.105   7.657 -0.2128 -1.2952  1.0842
  577MOL0     H76151   4.702   1.077   7.535 -0.2052  0.1636  0.0376
  577MOL0     H76152   5.192   0.905   7.643  1.4996  0.6207  1.0277
  577MOL0     H76153   5.423   0.906   7.528 -0.4130  0.3440  1.6615
  577MOL0     H76154   5.435   1.112   7.159  0.1134 -1.7963 -0.5741
  577MOL0     H76155   5.476   0.949   7.183 -1.2861  0.4174 -0.6102
  577MOL0     H76156   5.650   1.107   7.049  2.3229 -0.7986 -0.3077
  577MOL0     H76157   5.691   1.171   7.212  2.6667  0.3412 -0.9080
  577MOL0     H76158   5.724   0.876   7.108  0.9661  0.2543  1.2080
  577MOL0     H76159   5.768   0.934   7.262  2.0336 -2.8825 -1.2611
  577MOL0     H76160   5.869   1.011   6.992 -2.0666  1.8521  0.0266
  577MOL0     H76161   5.914   1.118   7.128  1.4214 -0.3936  0.2121
  577MOL0     H76162   6.187   0.837   7.231  0.8312 -0.0213 -1.2336
  577MOL0     H76163   5.315   1.244   7.307 -0.1969 -0.3526  0.9357
  577MOL0     H76164   5.114   1.272   7.435  0.3226 -0.3212 -0.3845
  578MOL0     O76165   1.035   9.522   1.080  0.0037  0.0231  0.3267
  578MOL0     C76166   1.096   9.630   1.086  0.2198  0.1239 -0.9930
  578MOL0     O76167   1.067   9.724   1.189 -0.4061 -0.6471 -0.0222
  578MOL0     C76168   0.976   9.693   1.274  0.0919  0.7727 -0.1894
  578MOL0     C76169   1.003   9.590   1.367  0.5140  0.4343 -0.2973
  578MOL0     C76170   0.900   9.537   1.452  0.1587 -0.2567  0.6405
  578MOL0     C76171   0.771   9.592   1.438 -0.4747 -0.1920 -0.7649
  578MOL0     O76172   0.687   9.537   1.522  0.5599  0.8408 -0.2077
  578MOL0     C76173   0.619   9.631   1.603  0.1245  0.0715  0.2928
  578MOL0     C76174   0.477   9.630   1.549 -0.0500 -0.1280  0.2592
  578MOL0     C76175   0.385   9.735   1.618  0.1821  0.2962 -0.7809
  578MOL0     C76176   0.275   9.791   1.547 -0.0417  0.1820  0.3643
  578MOL0     C76177   0.197   9.895   1.615  0.5074 -0.3061 -0.1818
  578MOL0     C76178   0.108   9.843   1.734 -0.1818 -0.1069 -0.1033
  578MOL0     C76179   0.025   9.956   1.809  0.4252  1.7003  0.2287
  578MOL0     C76180  -0.082  10.017   1.715  0.3178 -0.2703 -0.0188
  578MOL0     N76181  -0.148  10.129   1.787 -1.2080  0.9168  0.1439
  578MOL0     C76182  -0.265  10.108   1.860  0.0487  0.4039 -0.0621
  578MOL0     C76183  -0.304  10.243   1.893  0.8838  0.4762 -1.2343
  578MOL0     C76184  -0.427  10.279   1.969  0.3276 -0.1720 -0.6302
  578MOL0     C76185  -0.538  10.283   1.869 -0.2394  0.4825  0.4266
  578MOL0     C76186  -0.533  10.418   1.786  0.6423  0.5448 -0.5672
  578MOL0     C76187  -0.663  10.448   1.708 -0.2222  0.5001  0.0906
  578MOL0     O76188  -0.725  10.327   1.670  0.4491 -0.7884 -0.2791
  578MOL0     C76189  -0.839  10.335   1.591 -0.5136  0.1968  0.7200
  578MOL0     C76190  -0.901  10.212   1.560  0.1755  1.6366  0.2625
  578MOL0     C76191  -1.024  10.206   1.490  0.6390  0.0507  0.5146
  578MOL0     C76192  -1.084  10.329   1.450 -0.7115 -0.0647 -0.5579
  578MOL0     C76193  -1.226  10.339   1.407  0.0181  0.1887 -0.8529
  578MOL0     O76194  -1.263  10.464   1.378  0.0779 -0.5467 -0.0477
  578MOL0     C76195  -1.396  10.489   1.349 -0.4953 -0.0942 -0.9204
  578MOL0     C76196  -1.470  10.606   1.383  0.1061 -0.5618  0.7372
  578MOL0     C76197  -1.600  10.620   1.337  0.0542  1.2025 -0.4280
  578MOL0     C76198  -1.655  10.517   1.257  0.0230  0.0896 -0.2619
  578MOL0     O76199  -1.780  10.523   1.197 -0.1820  0.4826  0.8897
  578MOL0     C76200  -1.831  10.659   1.180 -0.3109  0.2744  0.4176
  578MOL0     C76201  -1.887  10.677   1.029  0.2548 -0.6815  0.0654
  578MOL0     C76202  -2.033  10.633   1.033 -0.0486 -0.1898  0.7823
  578MOL0     C76203  -2.111  10.670   0.904  0.5686 -0.1505  0.1604
  578MOL0     C76204  -2.247  10.606   0.915 -0.1092  0.2435  0.4676
  578MOL0     C76205  -2.331  10.683   1.016 -0.9834 -1.5853 -0.6118
  578MOL0     C76206  -2.465  10.615   1.033 -0.8025 -1.0730 -1.0286
  578MOL0     C76207  -2.568  10.677   1.138 -0.2880  0.0978  0.7833
  578MOL0    Cl76208  -2.663  10.814   1.056 -0.0434  0.0478  0.0181
  578MOL0     C76209  -1.584  10.418   1.213  0.1943 -0.7393 -0.5104
  578MOL0     C76210  -1.457  10.403   1.258 -0.3417  0.0008 -0.4632
  578MOL0     O76211  -1.294  10.240   1.413  0.3382 -0.0973 -0.6372
  578MOL0     C76212  -1.018  10.455   1.471 -0.0222  0.0326 -0.6817
  578MOL0     C76213  -0.893  10.450   1.534  0.8476  0.0207  0.3349
  578MOL0     N76214  -0.211  10.327   1.843 -0.9750 -0.0273 -0.0676
  578MOL0     N76215  -0.118  10.261   1.793  0.0235  0.4995  0.6804
  578MOL0     C76216   0.742   9.704   1.357 -0.5691  0.1863 -0.2146
  578MOL0     C76217   0.843   9.750   1.272 -0.4397  0.0990 -0.1590
  578MOL0     C76218   1.210   9.643   0.993 -0.9407 -0.1656 -0.2673
  578MOL0     C76219   1.246   9.548   0.895  0.1759 -0.8404 -0.8933
  578MOL0     C76220   1.363   9.562   0.817  0.3758 -1.2055  0.7232
  578MOL0     C76221   1.437   9.682   0.830  0.0392 -0.0358 -0.0555
  578MOL0     O76222   1.544   9.718   0.758  0.5033 -0.4019 -0.3199
  578MOL0     C76223   1.622   9.622   0.683 -0.1815  0.7860  0.0674
  578MOL0     C76224   1.750   9.693   0.657 -0.1847  1.0226 -0.8792
  578MOL0     C76225   1.846   9.601   0.586 -0.3574  0.6138 -1.0671
  578MOL0     C76226   1.988   9.649   0.550  0.1082 -0.6905  0.6025
  578MOL0     C76227   2.074   9.665   0.664  0.5802 -0.1256  0.8408
  578MOL0     C76228   2.143   9.682   0.766  0.9813  1.0062 -0.2035
  578MOL0     C76229   1.400   9.776   0.933 -0.3534  0.3805  0.1112
  578MOL0     C76230   1.292   9.759   1.011  0.0367 -0.3408 -0.4348
  578MOL0     H76231   1.106   9.555   1.372 -0.1831 -1.5370  3.0119
  578MOL0     H76232   0.923   9.458   1.522  0.8892 -2.3961 -1.8759
  578MOL0     H76233   0.650   9.733   1.578 -0.0923  0.2777  0.8528
  578MOL0     H76234   0.629   9.615   1.711 -4.6405 -2.8596  0.5831
  578MOL0     H76235   0.426   9.534   1.563  0.0689 -0.2923 -0.3806
  578MOL0     H76236   0.471   9.644   1.441 -2.1384 -1.0938  0.2174
  578MOL0     H76237   0.454   9.814   1.649  1.9331 -1.0759 -1.0165
  578MOL0     H76238   0.345   9.684   1.706 -0.4675 -0.4642 -1.4961
  578MOL0     H76239   0.320   9.843   1.461  1.3420  0.1677  1.0612
  578MOL0     H76240   0.213   9.713   1.502  0.2359  0.8723 -1.3017
  578MOL0     H76241   0.118   9.925   1.544 -2.5218 -0.9617  2.6643
  578MOL0     H76242   0.247   9.985   1.652 -3.8713  1.6627  1.6602
  578MOL0     H76243   0.175   9.805   1.812 -0.4295  1.4251  0.9118
  578MOL0     H76244   0.039   9.766   1.697 -0.7767  0.7496 -0.8061
  578MOL0     H76245  -0.032   9.917   1.894 -1.2234  0.8628 -1.2059
  578MOL0     H76246   0.085  10.038   1.849  3.3222  0.9918 -2.2836
  578MOL0     H76247  -0.161   9.953   1.673 -2.4718  2.6494  0.3531
  578MOL0     H76248  -0.037  10.068   1.629  1.0929  0.9978  1.1011
  578MOL0     H76249  -0.312  10.014   1.887 -1.0057  0.4093 -1.6976
  578MOL0     H76250  -0.413  10.374   2.020 -1.1032 -1.3245  2.1169
  578MOL0     H76251  -0.449  10.202   2.044 -0.8831 -0.7016 -1.4901
  578MOL0     H76252  -0.635  10.264   1.915 -2.8922  1.7462 -4.0869
  578MOL0     H76253  -0.518  10.193   1.809 -0.6196 -0.8829  2.2405
  578MOL0     H76254  -0.527  10.507   1.849  0.8328 -0.9266  1.5774
  578MOL0     H76255  -0.446  10.416   1.719  0.7606  1.1184 -0.4355
  578MOL0     H76256  -0.640  10.508   1.620  1.5992  0.0944  0.2530
  578MOL0     H76257  -0.730  10.498   1.779 -0.6705  3.7841 -2.4247
  578MOL0     H76258  -0.875  10.111   1.591 -2.4459  1.0031  0.6172
  578MOL0     H76259  -1.078  10.115   1.466  2.3172 -0.7462 -0.4962
  578MOL0     H76260  -1.419  10.673   1.452 -1.2897 -0.3447  1.6102
  578MOL0     H76261  -1.654  10.708   1.370 -2.1348 -0.0363 -0.4990
  578MOL0     H76262  -1.755  10.738   1.182  0.3876 -0.0737 -3.3869
  578MOL0     H76263  -1.897  10.668   1.266 -1.5532  0.4570 -0.5353
  578MOL0     H76264  -1.829  10.624   0.953  3.9970  4.1606 -0.9651
  578MOL0     H76265  -1.889  10.781   0.994  3.2923 -0.5690 -0.0591
  578MOL0     H76266  -2.073  10.688   1.119  0.3962  2.1756 -0.4471
  578MOL0     H76267  -2.048  10.527   1.056  1.6332 -0.6570 -0.1504
  578MOL0     H76268  -2.128  10.776   0.885 -2.5666 -0.8867 -2.0585
  578MOL0     H76269  -2.066  10.633   0.811 -1.8961  0.7427 -1.5169
  578MOL0     H76270  -2.248  10.500   0.940  0.4746 -0.5797 -2.6232
  578MOL0     H76271  -2.302  10.623   0.822  0.7230  1.5474  0.1857
  578MOL0     H76272  -2.344  10.785   0.979  4.0607 -0.7100 -0.7707
  578MOL0     H76273  -2.279  10.691   1.112 -0.1034  4.3996 -1.1912
  578MOL0     H76274  -2.525  10.591   0.944  1.3371 -2.8163 -2.1116
  578MOL0     H76275  -2.440  10.518   1.077 -1.0109  0.1060  1.9049
  578MOL0     H76276  -2.513  10.719   1.223 -3.5176  0.2958  2.9665
  578MOL0     H76277  -2.643  10.602   1.163 -1.4714  0.5999 -1.0900
  578MOL0     H76278  -1.637  10.341   1.159 -1.3365 -0.7329  0.8919
  578MOL0     H76279  -1.409  10.319   1.209 -0.0896  0.1617 -0.4890
  578MOL0     H76280  -1.056  10.548   1.431  0.1407  0.3462 -0.1134
  578MOL0     H76281  -0.846  10.547   1.549 -0.2265  0.9138 -1.8077
  578MOL0     H76282   0.644   9.751   1.354 -0.0247  1.3164 -1.1921
  578MOL0     H76283   0.813   9.838   1.216 -0.2593  0.4798  0.3343
  578MOL0     H76284   1.181   9.463   0.878  0.0455 -0.7430 -0.8818
  578MOL0     H76285   1.397   9.482   0.752  3.8945  0.8101 -0.1504
  578MOL0     H76286   1.571   9.609   0.587 -0.9433  3.2824  0.0577
  578MOL0     H76287   1.638   9.525   0.731  2.3024 -0.1476 -2.4128
  578MOL0     H76288   1.723   9.777   0.592  0.6159  1.6748 -0.3782
  578MOL0     H76289   1.790   9.720   0.755  0.6652 -4.7934  0.7709
  578MOL0     H76290   1.817   9.567   0.486 -0.1941 -1.7986 -0.3491
  578MOL0     H76291   1.859   9.511   0.647 -2.1921  1.0489  0.0462
  578MOL0     H76292   2.032   9.586   0.473 -0.5426 -1.3151  0.7322
  578MOL0     H76293   1.978   9.743   0.495  0.7867 -0.5202  0.7557
  578MOL0     H76294   2.195   9.704   0.857 -0.2721 -0.7484  1.0063
  578MOL0     H76295   1.454   9.870   0.943  1.5451 -0.6007 -0.4119
  578MOL0     H76296   1.271   9.828   1.092  1.6761 -0.7905  0.4169
  579MOL0     O76297   2.461   7.009   3.351  0.6935  0.1520  1.3664
  579MOL0     C76298   2.497   6.897   3.370 -0.3483 -0.7750 -0.2719
  579MOL0     O76299   2.454   6.789   3.299  0.4888  0.3770  0.1155
  579MOL0     C76300   2.356   6.806   3.203 -0.0321  0.4563  0.7064
  579MOL0     C76301   2.401   6.834   3.074 -0.3664 -0.2971  0.1909
  579MOL0     C76302   2.315   6.863   2.968 -0.1865  0.0569 -1.0230
  579MOL0     C76303   2.176   6.879   2.990  0.3997 -0.0355 -0.4698
  579MOL0     O76304   2.094   6.911   2.886  0.1148  0.2608 -0.5945
  579MOL0     C76305   1.957   6.927   2.904  0.2010 -0.8857 -0.0056
  579MOL0     C76306   1.909   6.941   2.759  1.1990 -0.4259  0.2809
  579MOL0     C76307   1.755   6.934   2.758 -0.6064  0.1954 -0.8033
  579MOL0     C76308   1.694   6.916   2.615 -0.4453  0.3578 -0.0382
  579MOL0     C76309   1.556   6.869   2.620 -0.3582 -0.0357 -0.0843
  579MOL0     C76310   1.485   6.913   2.488 -0.9719  0.1093  0.4283
  579MOL0     C76311   1.346   6.854   2.507  0.0215 -1.1628  0.9424
  579MOL0     C76312   1.317   6.704   2.508 -0.1662 -0.0092  0.3171
  579MOL0     N76313   1.170   6.667   2.513 -0.5476 -0.1193 -0.2176
  579MOL0     C76314   1.120   6.563   2.579 -0.4445 -0.6782 -0.7759
  579MOL0     C76315   0.993   6.542   2.540 -0.6892 -0.6657  0.5630
  579MOL0     C76316   0.910   6.414   2.557 -0.6178  1.0950 -1.1688
  579MOL0     C76317   0.982   6.306   2.482  0.1015 -0.7307 -1.1519
  579MOL0     C76318   0.891   6.183   2.495 -0.1149 -0.6897 -0.3413
  579MOL0     C76319   0.918   6.093   2.371 -0.5283 -0.2791  0.1732
  579MOL0     O76320   0.866   6.148   2.258 -0.5906  0.2533 -0.2764
  579MOL0     C76321   0.728   6.143   2.234  0.0806 -0.5841 -0.1277
  579MOL0     C76322   0.689   6.205   2.120  0.0426 -0.0976  0.6651
  579MOL0     C76323   0.556   6.213   2.080 -0.6070 -0.5717 -0.8214
  579MOL0     C76324   0.455   6.149   2.163 -0.2604 -0.7494  0.4235
  579MOL0     C76325   0.318   6.145   2.128  0.5193  0.0433 -0.3154
  579MOL0     O76326   0.254   6.250   2.063 -0.3831 -0.0157 -0.0256
  579MOL0     C76327   0.120   6.229   2.049  0.2400 -0.2526  0.1336
  579MOL0     C76328   0.068   6.165   1.937  0.5487  0.3895  0.4426
  579MOL0     C76329  -0.073   6.157   1.918  0.8706 -0.1351 -0.7301
  579MOL0     C76330  -0.160   6.213   2.010 -0.4775 -0.9129 -0.6567
  579MOL0     O76331  -0.302   6.210   2.015 -0.3912  0.2901 -0.4779
  579MOL0     C76332  -0.371   6.156   1.903  0.1354  0.4913  0.9458
  579MOL0     C76333  -0.522   6.182   1.926  0.1501 -0.0543 -0.0618
  579MOL0     C76334  -0.593   6.161   1.790 -0.0026  0.1949 -0.2474
  579MOL0     C76335  -0.742   6.127   1.815  0.2609  0.4587  0.1595
  579MOL0     C76336  -0.824   6.210   1.916  0.4821 -0.2539  0.3694
  579MOL0     C76337  -0.970   6.161   1.902 -1.0631 -0.0774  0.0477
  579MOL0     C76338  -1.056   6.205   2.020 -0.3530  0.1123  0.0121
  579MOL0     C76339  -1.195   6.162   1.989 -0.0547  0.5662  0.5990
  579MOL0    Cl76340  -1.317   6.210   2.103 -0.2673 -0.1896 -0.3413
  579MOL0     C76341  -0.103   6.277   2.122 -0.4099 -0.1089  0.1077
  579MOL0     C76342   0.033   6.302   2.129  0.0077  0.9833 -0.5575
  579MOL0     O76343   0.269   6.036   2.142  0.1039  0.1097 -0.7556
  579MOL0     C76344   0.501   6.091   2.282  0.7399  0.7862  0.2176
  579MOL0     C76345   0.634   6.089   2.328 -0.1972 -0.1311  0.5782
  579MOL0     N76346   0.962   6.650   2.457  0.5874  0.5660  0.3661
  579MOL0     N76347   1.073   6.721   2.441  0.8084  0.6430 -0.9330
  579MOL0     C76348   2.129   6.846   3.127  0.3095 -0.2684 -0.2013
  579MOL0     C76349   2.220   6.798   3.226  0.1469  0.7941 -0.2345
  579MOL0     C76350   2.589   6.874   3.483 -0.1502 -0.6712  0.7515
  579MOL0     C76351   2.691   6.957   3.520  0.1101 -0.0495 -0.1378
  579MOL0     C76352   2.771   6.927   3.628 -0.4593  0.2937 -0.1905
  579MOL0     C76353   2.757   6.808   3.709  0.0308 -0.0049 -0.7965
  579MOL0     O76354   2.849   6.788   3.816  0.0698  0.4374 -0.2034
  579MOL0     C76355   2.796   6.770   3.946  0.1727 -0.4961 -0.2286
  579MOL0     C76356   2.826   6.893   4.034  1.0117  0.0617 -0.1489
  579MOL0     C76357   2.973   6.934   4.029  0.3913  0.0154 -0.5664
  579MOL0     C76358   2.993   7.068   4.094 -0.0287  0.5179 -0.1371
  579MOL0     C76359   3.130   7.102   4.077  0.2064 -0.5054  0.5983
  579MOL0     C76360   3.251   7.131   4.066  0.4392 -0.0333 -0.3120
  579MOL0     C76361   2.652   6.724   3.673 -0.2282  0.2880  0.9714
  579MOL0     C76362   2.573   6.755   3.558  1.3579  0.2958  0.2165
  579MOL0     H76363   2.509   6.840   3.059 -0.6459  2.0863 -1.2959
  579MOL0     H76364   2.359   6.903   2.877 -1.6384  1.6795 -1.0698
  579MOL0     H76365   1.924   7.016   2.960  1.7082  1.1175 -2.1379
  579MOL0     H76366   1.907   6.835   2.937  0.3744 -1.6953 -1.8674
  579MOL0     H76367   1.950   6.865   2.693  5.0113  1.1173  0.6061
  579MOL0     H76368   1.934   7.037   2.713 -2.5337 -0.4485 -2.2507
  579MOL0     H76369   1.714   7.022   2.807 -0.2007 -0.4606  0.7674
  579MOL0     H76370   1.729   6.853   2.826 -0.6190  0.2449 -0.7493
  579MOL0     H76371   1.686   7.017   2.572  0.6678  0.4112 -0.1362
  579MOL0     H76372   1.757   6.854   2.552 -2.3857 -0.0777 -1.6625
  579MOL0     H76373   1.494   6.909   2.701  0.0271  0.1330  0.1267
  579MOL0     H76374   1.567   6.760   2.613  1.2485  0.1773 -1.8941
  579MOL0     H76375   1.533   6.872   2.399  2.9071 -0.0160  2.3451
  579MOL0     H76376   1.485   7.022   2.481  0.1236  0.0777 -0.2720
  579MOL0     H76377   1.295   6.896   2.594 -0.7801 -0.4580  0.1447
  579MOL0     H76378   1.282   6.895   2.428  1.3192  1.3809  1.1161
  579MOL0     H76379   1.377   6.657   2.587 -2.3203 -2.5921  0.5533
  579MOL0     H76380   1.359   6.663   2.416  0.7055  1.9273 -0.1911
  579MOL0     H76381   1.183   6.504   2.645 -1.0466 -2.1737 -1.4879
  579MOL0     H76382   0.804   6.425   2.529 -2.0007 -1.0087  2.5801
  579MOL0     H76383   0.907   6.385   2.662  1.3773 -1.3939 -1.7145
  579MOL0     H76384   1.081   6.284   2.524 -0.6998 -1.3714  0.4640
  579MOL0     H76385   1.002   6.325   2.376 -0.7050 -2.0558 -1.5679
  579MOL0     H76386   0.909   6.126   2.587 -2.5832 -1.7028 -0.4210
  579MOL0     H76387   0.787   6.214   2.503  0.3464  0.4762  1.7499
  579MOL0     H76388   0.867   5.998   2.388 -0.1726 -0.0744  2.7042
  579MOL0     H76389   1.027   6.090   2.372 -0.5402 -1.7205  2.1200
  579MOL0     H76390   0.771   6.245   2.061 -1.3389  1.3920 -0.3060
  579MOL0     H76391   0.528   6.266   1.990 -2.5748  1.7054  0.9985
  579MOL0     H76392   0.128   6.112   1.865 -2.0994 -0.5348 -1.2487
  579MOL0     H76393  -0.118   6.098   1.839  2.1840 -0.1712 -1.4666
  579MOL0     H76394  -0.348   6.050   1.889 -1.1775  0.3559 -0.3639
  579MOL0     H76395  -0.338   6.219   1.820 -0.8961  2.9525  2.2835
  579MOL0     H76396  -0.539   6.280   1.972 -2.2629 -1.4389  2.3127
  579MOL0     H76397  -0.552   6.098   1.989  2.7508 -0.7215  0.4152
  579MOL0     H76398  -0.546   6.074   1.744  2.5620  1.3428  0.0020
  579MOL0     H76399  -0.586   6.254   1.733  2.3710  0.6347  0.6700
  579MOL0     H76400  -0.794   6.121   1.719  0.2370 -1.4313  0.2390
  579MOL0     H76401  -0.757   6.023   1.849  0.3726  0.3405 -0.1502
  579MOL0     H76402  -0.812   6.319   1.915 -0.7492 -0.0223  2.5504
  579MOL0     H76403  -0.776   6.189   2.012  0.3749  1.5910  0.8652
  579MOL0     H76404  -0.963   6.051   1.900 -0.3536 -0.0318 -1.3002
  579MOL0     H76405  -1.000   6.205   1.807 -0.1060  0.4077 -0.0386
  579MOL0     H76406  -1.031   6.159   2.116 -0.9543 -0.1370  0.0524
  579MOL0     H76407  -1.064   6.313   2.030  2.5170  0.3637  0.5980
  579MOL0     H76408  -1.191   6.055   1.967  3.3462  1.1752 -2.8664
  579MOL0     H76409  -1.217   6.211   1.893  2.4812 -0.3119 -0.5209
  579MOL0     H76410  -0.170   6.317   2.198 -1.3965  0.2271 -0.9107
  579MOL0     H76411   0.078   6.361   2.209  0.6825 -0.7012  0.3697
  579MOL0     H76412   0.433   6.046   2.353 -0.9552  0.2546 -1.6521
  579MOL0     H76413   0.671   6.039   2.418 -0.2138 -1.9568 -0.3768
  579MOL0     H76414   2.022   6.841   3.145  0.1590  1.0323 -0.6512
  579MOL0     H76415   2.174   6.771   3.320 -0.8444  0.9569 -0.6631
  579MOL0     H76416   2.712   7.045   3.460  2.4357 -0.0316  0.5796
  579MOL0     H76417   2.849   7.000   3.649  0.8635 -0.6792 -1.5155
  579MOL0     H76418   2.824   6.685   4.009 -1.1051  0.2178  1.3817
  579MOL0     H76419   2.688   6.757   3.939  0.2698 -1.6569  0.1982
  579MOL0     H76420   2.761   6.974   3.999 -2.5433 -3.0792 -1.4879
  579MOL0     H76421   2.786   6.876   4.134 -3.5204  0.8226 -1.5790
  579MOL0     H76422   2.997   6.947   3.923  1.5364 -3.9437 -0.9670
  579MOL0     H76423   3.038   6.854   4.067 -0.2930  0.3513  1.4247
  579MOL0     H76424   2.920   7.139   4.054  0.5865  0.6529 -1.0510
  579MOL0     H76425   2.972   7.065   4.201  0.5133  0.1049 -0.0395
  579MOL0     H76426   3.352   7.167   4.075  0.2968  0.6282 -1.2655
  579MOL0     H76427   2.638   6.626   3.718  2.9625 -1.8900 -2.2183
  579MOL0     H76428   2.493   6.684   3.536  0.4893  1.5643 -0.8459
  580MOL0     O76429   2.289   4.403  10.018  0.0397  0.6473 -0.8557
  580MOL0     C76430   2.339   4.401   9.909 -0.5434  0.4098  0.1189
  580MOL0     O76431   2.287   4.452   9.796 -0.3072 -0.0033  0.3851
  580MOL0     C76432   2.176   4.530   9.809 -0.6772  0.3451 -0.0138
  580MOL0     C76433   2.062   4.494   9.735 -0.3741  0.6030  0.0420
  580MOL0     C76434   1.953   4.580   9.729 -1.0521 -0.4987 -0.8357
  580MOL0     C76435   1.949   4.705   9.795 -1.2470 -0.7094  0.1184
  580MOL0     O76436   1.855   4.802   9.803 -0.3054  0.1633 -0.5629
  580MOL0     C76437   1.763   4.817   9.699  0.4243 -0.0659  0.2592
  580MOL0     C76438   1.712   4.963   9.709 -0.7923  0.2660 -0.1461
  580MOL0     C76439   1.598   4.978   9.621 -0.8500  0.0731  0.9396
  580MOL0     C76440   1.605   4.910   9.481 -0.5633 -0.0748  0.7822
  580MOL0     C76441   1.497   4.967   9.381  0.5521 -0.7084 -0.0299
  580MOL0     C76442   1.349   4.954   9.437  0.1119  0.9010  0.5847
  580MOL0     C76443   1.288   4.816   9.412  0.3627  0.0659 -0.4367
  580MOL0     C76444   1.176   4.783   9.507 -0.2809 -0.0484 -0.3205
  580MOL0     N76445   1.108   4.651   9.476 -0.5248 -0.8841 -0.7994
  580MOL0     C76446   1.067   4.558   9.571  0.6976  0.1531  0.4912
  580MOL0     C76447   1.028   4.451   9.504  0.9904  0.2563  0.7434
  580MOL0     C76448   0.955   4.328   9.557  0.6230  0.5350 -0.0207
  580MOL0     C76449   0.806   4.360   9.545  0.7001 -0.1969 -0.2532
  580MOL0     C76450   0.738   4.331   9.413  0.6194 -0.1823  0.3945
  580MOL0     C76451   0.735   4.182   9.373  0.4466  0.3122  0.5508
  580MOL0     O76452   0.664   4.176   9.244 -0.0809  0.1979 -0.1328
  580MOL0     C76453   0.531   4.180   9.242  0.4689  0.4304  0.2001
  580MOL0     C76454   0.464   4.276   9.171  0.4100  0.0611 -0.2964
  580MOL0     C76455   0.325   4.291   9.180 -0.5356 -0.3069  0.1834
  580MOL0     C76456   0.251   4.194   9.258  0.0844 -0.1831  0.4162
  580MOL0     C76457   0.100   4.201   9.266 -0.4617 -0.5799  0.8112
  580MOL0     O76458   0.037   4.254   9.163 -0.0263 -0.0139  0.0858
  580MOL0     C76459  -0.103   4.272   9.156 -1.2281  0.1706 -0.0664
  580MOL0     C76460  -0.163   4.269   9.030 -0.1132 -0.8674  0.1790
  580MOL0     C76461  -0.297   4.269   9.008 -0.2270  0.8200  0.3505
  580MOL0     C76462  -0.386   4.281   9.110 -0.2051 -0.5223 -0.4929
  580MOL0     O76463  -0.519   4.286   9.088  0.3475  0.6912  0.6634
  580MOL0     C76464  -0.570   4.185   8.987  0.0438  0.0044 -0.2019
  580MOL0     C76465  -0.716   4.164   9.001 -0.3152 -0.0890 -0.2559
  580MOL0     C76466  -0.746   4.088   9.137  1.4177 -0.1444  0.3533
  580MOL0     C76467  -0.894   4.051   9.150 -0.2482 -0.0024  0.6271
  580MOL0     C76468  -0.991   4.174   9.159 -0.6623  0.9556 -0.2944
  580MOL0     C76469  -1.137   4.129   9.170 -0.0744  0.1472  0.1311
  580MOL0     C76470  -1.194   4.061   9.295 -0.1092 -0.3254  0.7955
  580MOL0     C76471  -1.319   4.134   9.352 -0.6073  0.1876  0.1548
  580MOL0    Cl76472  -1.398   4.038   9.485  0.3538 -0.1079  0.2931
  580MOL0     C76473  -0.327   4.294   9.241  0.2221  0.1377  0.9041
  580MOL0     C76474  -0.183   4.296   9.267 -0.8401 -1.0839 -0.1644
  580MOL0     O76475   0.049   4.140   9.359  0.3482  0.6231 -0.6667
  580MOL0     C76476   0.318   4.092   9.316  0.5220 -0.3406 -0.0670
  580MOL0     C76477   0.457   4.089   9.313 -0.2505 -1.3934  0.1191
  580MOL0     N76478   1.032   4.479   9.372  0.1204 -0.3203  1.0808
  580MOL0     N76479   1.079   4.601   9.356 -0.1304  0.7259  0.5899
  580MOL0     C76480   2.065   4.736   9.875 -0.4710  0.3776  0.3753
  580MOL0     C76481   2.178   4.646   9.883 -0.1740 -0.1466 -0.0923
  580MOL0     C76482   2.456   4.311   9.883  0.7488  0.6298  0.2035
  580MOL0     C76483   2.528   4.266   9.995 -0.2043 -0.6428  0.7494
  580MOL0     C76484   2.632   4.178   9.985  0.0195  0.1066  0.8867
  580MOL0     C76485   2.653   4.118   9.863 -0.2884  0.1980 -0.2615
  580MOL0     O76486   2.758   4.035   9.836 -0.2726 -0.3176  0.0335
  580MOL0     C76487   2.849   3.991   9.937 -0.6608 -0.5575  0.6838
  580MOL0     C76488   2.798   3.903  10.050  0.1434  0.1505  0.7265
  580MOL0     C76489   2.912   3.884  10.158 -0.1440 -0.8023  0.3560
  580MOL0     C76490   2.871   3.805  10.283  0.6492  0.0194  0.1637
  580MOL0     C76491   2.986   3.782  10.367  0.3262  0.2857 -0.1153
  580MOL0     C76492   3.074   3.749  10.442 -0.4694 -0.0144 -0.0463
  580MOL0     C76493   2.576   4.153   9.755 -0.2472  0.6862  0.2187
  580MOL0     C76494   2.486   4.255   9.759 -0.2304 -0.5029 -0.7558
  580MOL0     H76495   2.058   4.401   9.678 -1.6312 -0.6532  2.0662
  580MOL0     H76496   1.871   4.562   9.660  0.2575  0.4453 -2.7225
  580MOL0     H76497   1.672   4.758   9.714 -2.1083  3.9660  2.3394
  580MOL0     H76498   1.806   4.794   9.601  1.2856  0.6236  0.4606
  580MOL0     H76499   1.788   5.038   9.685  0.4382 -0.8586  0.1220
  580MOL0     H76500   1.680   4.971   9.814 -1.1227 -1.5348 -0.0693
  580MOL0     H76501   1.568   5.082   9.606  2.0075  0.6738 -1.7059
  580MOL0     H76502   1.517   4.928   9.675 -1.1639 -0.5950 -0.1129
  580MOL0     H76503   1.698   4.947   9.436  0.4460 -1.7568  1.4034
  580MOL0     H76504   1.596   4.802   9.486 -3.1535  0.0976  0.9152
  580MOL0     H76505   1.498   4.919   9.282  2.7838  1.0439 -0.9486
  580MOL0     H76506   1.515   5.075   9.370  1.8292 -1.0361 -1.6549
  580MOL0     H76507   1.289   5.029   9.385  0.0851 -1.8149 -3.8096
  580MOL0     H76508   1.358   4.977   9.543  1.7158 -0.6898  0.8566
  580MOL0     H76509   1.258   4.815   9.306  0.1099  1.5739 -0.4058
  580MOL0     H76510   1.372   4.749   9.434 -0.2581 -0.0050  1.9980
  580MOL0     H76511   1.103   4.864   9.518 -0.6909 -0.4330 -0.1826
  580MOL0     H76512   1.217   4.779   9.608  3.1440 -0.1911 -1.5790
  580MOL0     H76513   1.074   4.563   9.679 -2.2363 -0.3212  0.7888
  580MOL0     H76514   0.983   4.302   9.660 -0.1144 -1.0013 -0.1724
  580MOL0     H76515   0.986   4.241   9.498 -0.8244 -0.3056  0.4061
  580MOL0     H76516   0.799   4.469   9.554  2.1551 -0.1734  1.0926
  580MOL0     H76517   0.744   4.314   9.622 -1.3890 -1.8410 -2.7348
  580MOL0     H76518   0.634   4.364   9.419 -0.2364 -2.4759 -0.4706
  580MOL0     H76519   0.787   4.396   9.341  0.3468  2.8406  2.7605
  580MOL0     H76520   0.693   4.118   9.451  0.5373 -2.1033 -1.2210
  580MOL0     H76521   0.835   4.139   9.361 -0.5540 -2.6328  1.6920
  580MOL0     H76522   0.522   4.348   9.114 -0.1582 -0.1105 -1.1016
  580MOL0     H76523   0.276   4.374   9.130  0.0461  1.8603  2.9875
  580MOL0     H76524  -0.085   4.270   8.954  1.3987 -3.5089  1.5101
  580MOL0     H76525  -0.329   4.240   8.908  1.4409 -1.6815  0.4724
  580MOL0     H76526  -0.520   4.089   9.004 -1.7500 -0.6119  2.1855
  580MOL0     H76527  -0.547   4.220   8.886 -2.7304  2.2375 -0.1788
  580MOL0     H76528  -0.759   4.107   8.918  1.2536  0.3185 -1.3953
  580MOL0     H76529  -0.778   4.254   8.992 -1.8933 -1.2626 -1.7964
  580MOL0     H76530  -0.729   4.150   9.226  4.2280  0.1178 -0.2976
  580MOL0     H76531  -0.687   3.997   9.151  0.8740 -0.4986  0.3829
  580MOL0     H76532  -0.923   3.989   9.065 -1.7815 -0.8044  1.6929
  580MOL0     H76533  -0.912   3.989   9.238 -0.9857 -1.2161 -0.3518
  580MOL0     H76534  -0.987   4.241   9.073 -2.0976 -0.2375 -1.3147
  580MOL0     H76535  -0.959   4.235   9.244  0.1803  1.6887 -1.1134
  580MOL0     H76536  -1.161   4.060   9.089  0.8503 -1.9667  1.5495
  580MOL0     H76537  -1.189   4.224   9.154  0.3776  0.7795  2.1110
  580MOL0     H76538  -1.236   3.963   9.270 -1.6508  0.3244  0.7149
  580MOL0     H76539  -1.121   4.045   9.375 -0.5038 -3.1601  0.6868
  580MOL0     H76540  -1.387   4.143   9.266  1.8366 -2.3654 -2.2638
  580MOL0     H76541  -1.297   4.237   9.378  3.7267 -0.3375 -0.6850
  580MOL0     H76542  -0.402   4.292   9.319 -2.5244 -0.9190 -1.5679
  580MOL0     H76543  -0.143   4.309   9.367 -1.4847  0.1694 -0.0456
  580MOL0     H76544   0.266   4.014   9.369  0.9336 -1.6023 -1.4443
  580MOL0     H76545   0.493   4.011   9.379 -0.6386 -1.1267  0.6591
  580MOL0     H76546   2.066   4.832   9.925  0.1345 -0.0531  1.2247
  580MOL0     H76547   2.261   4.676   9.945 -0.9482 -0.3517  1.0786
  580MOL0     H76548   2.514   4.303  10.096  2.9189 -1.2824  1.5158
  580MOL0     H76549   2.699   4.153  10.067  1.5951 -0.2729 -0.4590
  580MOL0     H76550   2.892   4.079   9.985  0.1279 -0.1348 -0.7621
  580MOL0     H76551   2.936   3.941   9.893 -0.6425  1.1520 -1.3914
  580MOL0     H76552   2.712   3.939  10.107  0.8821  0.3926  1.7108
  580MOL0     H76553   2.768   3.809  10.002 -3.2598 -0.1323  3.0072
  580MOL0     H76554   2.964   3.978  10.177  0.1173 -1.0929  1.1117
  580MOL0     H76555   2.990   3.825  10.108  0.1193 -0.7019  0.6433
  580MOL0     H76556   2.803   3.870  10.338  2.0184  3.7249 -2.1093
  580MOL0     H76557   2.824   3.710  10.255  0.5187  0.0024  0.4393
  580MOL0     H76558   3.145   3.703  10.509 -3.1663 -0.8388  2.4791
  580MOL0     H76559   2.601   4.108   9.659  1.2803  2.4891 -0.2835
  580MOL0     H76560   2.422   4.276   9.674 -1.5646  2.1043  0.7601
  581MOL0     O76561   4.632   4.996  11.227 -0.1904 -0.6027  0.5122
  581MOL0     C76562   4.703   4.896  11.202  0.7112  0.1857  0.2583
  581MOL0     O76563   4.656   4.788  11.134  0.2295  0.1593  0.1869
  581MOL0     C76564   4.526   4.776  11.094 -0.5409  0.5066  0.1407
  581MOL0     C76565   4.422   4.743  11.179 -0.7508  0.4833  0.8213
  581MOL0     C76566   4.296   4.720  11.125  0.3454 -0.1638  0.4664
  581MOL0     C76567   4.272   4.724  10.991 -0.3043  0.1764  0.2514
  581MOL0     O76568   4.150   4.700  10.933  0.1606 -0.2963 -0.5658
  581MOL0     C76569   4.116   4.763  10.808 -0.1289 -0.9559 -0.8550
  581MOL0     C76570   3.962   4.738  10.771  0.6785 -0.1554 -0.5956
  581MOL0     C76571   3.927   4.755  10.622  0.8901 -0.0224 -0.5727
  581MOL0     C76572   3.791   4.709  10.587  0.6224  0.0778 -0.2612
  581MOL0     C76573   3.673   4.801  10.632 -1.0471 -0.1343 -0.0387
  581MOL0     C76574   3.672   4.943  10.577  0.2385 -0.1702  0.2422
  581MOL0     C76575   3.652   4.947  10.421 -0.5973  1.3032 -0.4339
  581MOL0     C76576   3.626   5.095  10.373  0.0075  0.5649 -1.1013
  581MOL0     N76577   3.484   5.124  10.377 -1.0807 -0.7255  0.2839
  581MOL0     C76578   3.399   5.072  10.284 -0.2322 -0.2419 -0.5339
  581MOL0     C76579   3.283   5.096  10.333  0.0602  0.2240 -0.5534
  581MOL0     C76580   3.156   5.074  10.258 -0.0064 -0.6281 -0.4001
  581MOL0     C76581   3.044   5.183  10.273  0.3016  0.0390  0.3634
  581MOL0     C76582   2.917   5.156  10.186  0.2518  0.2325 -0.1544
  581MOL0     C76583   2.804   5.243  10.236  0.2528 -0.3541  0.0009
  581MOL0     O76584   2.691   5.222  10.150 -0.1007  0.2701 -0.5047
  581MOL0     C76585   2.608   5.323  10.122  0.0397  0.1405  0.6329
  581MOL0     C76586   2.608   5.454  10.173 -0.2640 -0.3536  0.4631
  581MOL0     C76587   2.520   5.550  10.128 -0.8550 -1.2925  0.0556
  581MOL0     C76588   2.429   5.517  10.023  0.2310 -0.6464  0.3460
  581MOL0     C76589   2.328   5.616   9.985 -0.7882 -0.2263  0.0863
  581MOL0     O76590   2.312   5.735  10.052 -0.2297  0.6011  0.1926
  581MOL0     C76591   2.221   5.827  10.015 -1.3486 -1.0300  0.1895
  581MOL0     C76592   2.242   5.915   9.905 -0.2409  0.4004  0.2258
  581MOL0     C76593   2.141   6.001   9.874  0.1884 -0.0273  0.3012
  581MOL0     C76594   2.030   6.008   9.952  0.3455 -0.1451  0.8438
  581MOL0     O76595   1.942   6.100   9.907  0.1994 -0.1454 -0.0935
  581MOL0     C76596   1.802   6.093   9.940 -0.1874 -0.4850 -0.1292
  581MOL0     C76597   1.709   6.186   9.848  0.0057 -0.6293 -0.5155
  581MOL0     C76598   1.755   6.327   9.862  0.0793  0.0487  0.6616
  581MOL0     C76599   1.690   6.420   9.764 -0.8498 -0.3880  1.0177
  581MOL0     C76600   1.728   6.575   9.747  0.0138  0.4831  0.1236
  581MOL0     C76601   1.770   6.636   9.877  0.3288 -0.2106 -0.6892
  581MOL0     C76602   1.827   6.779   9.858  0.0855  0.0373  0.6868
  581MOL0     C76603   1.717   6.883   9.825 -0.7454  0.4034  0.1295
  581MOL0    Cl76604   1.606   6.911   9.968  0.0190  0.0848  0.0779
  581MOL0     C76605   2.007   5.924  10.059 -0.0326  0.4426  0.8565
  581MOL0     C76606   2.107   5.831  10.087  0.6949 -0.3008 -0.4882
  581MOL0     O76607   2.258   5.573   9.891  0.2201 -0.2259  0.5072
  581MOL0     C76608   2.427   5.386   9.969 -0.8561 -0.0986  0.7242
  581MOL0     C76609   2.511   5.288  10.020 -0.3670  0.4430 -0.6513
  581MOL0     N76610   3.301   5.162  10.452  0.2968 -0.5273 -0.3040
  581MOL0     N76611   3.417   5.172  10.478 -0.0314  0.0692  0.5136
  581MOL0     C76612   4.377   4.755  10.906 -0.6813 -0.1570  1.0225
  581MOL0     C76613   4.508   4.776  10.956 -0.1038 -0.8247 -0.5110
  581MOL0     C76614   4.841   4.907  11.244 -0.0041 -1.0224 -0.2343
  581MOL0     C76615   4.895   5.029  11.283 -0.6119 -0.3183  0.0056
  581MOL0     C76616   5.022   5.039  11.340 -0.4578  0.2008  1.0975
  581MOL0     C76617   5.095   4.921  11.355 -0.1953  0.2939 -0.4398
  581MOL0     O76618   5.203   4.915  11.435 -0.1527  0.1320 -0.3388
  581MOL0     C76619   5.194   4.976  11.565  0.0586  0.3446  0.4981
  581MOL0     C76620   5.228   4.876  11.675 -0.3641  0.0898  0.3768
  581MOL0     C76621   5.363   4.818  11.660  0.7879 -0.7200 -1.1601
  581MOL0     C76622   5.431   4.797  11.793 -0.5852  0.5998  0.6339
  581MOL0     C76623   5.557   4.710  11.793  0.2481 -0.3635 -0.2442
  581MOL0     C76624   5.653   4.630  11.806  0.0474  0.2121 -0.3799
  581MOL0     C76625   5.038   4.799  11.317 -0.0711 -0.1944  1.0123
  581MOL0     C76626   4.910   4.787  11.267  0.1839 -0.1555 -0.2725
  581MOL0     H76627   4.436   4.741  11.287  0.9075  0.1194  0.6155
  581MOL0     H76628   4.217   4.684  11.191 -0.6410  0.8440 -0.1238
  581MOL0     H76629   4.172   4.716  10.726  1.7156  1.7277 -1.2739
  581MOL0     H76630   4.147   4.868  10.802 -1.5768 -0.3619  1.0519
  581MOL0     H76631   3.905   4.811  10.829  0.0823 -0.9702 -0.1348
  581MOL0     H76632   3.931   4.640  10.808  0.1530  0.2442  0.0536
  581MOL0     H76633   4.004   4.702  10.566  0.1874  1.1110 -2.7634
  581MOL0     H76634   3.936   4.859  10.588  1.5680  0.2438  0.3863
  581MOL0     H76635   3.783   4.698  10.479 -3.0478 -1.8990  0.0427
  581MOL0     H76636   3.768   4.614  10.638 -6.4136  1.5200  0.2528
  581MOL0     H76637   3.680   4.805  10.741  3.8503  2.9438 -0.1562
  581MOL0     H76638   3.576   4.761  10.599 -0.9581 -0.1324 -0.3047
  581MOL0     H76639   3.764   4.999  10.599  0.0878  0.5650 -0.9077
  581MOL0     H76640   3.586   4.995  10.621 -1.0446 -1.1483 -1.0181
  581MOL0     H76641   3.740   4.903  10.374 -2.1936 -1.7474 -0.8666
  581MOL0     H76642   3.574   4.875  10.392  0.9733 -0.9139  0.5577
  581MOL0     H76643   3.658   5.116  10.271 -0.7626  0.1441 -1.4404
  581MOL0     H76644   3.674   5.164  10.443 -1.4419  0.2558  0.2606
  581MOL0     H76645   3.427   5.022  10.192  2.4598 -1.2647  0.7295
  581MOL0     H76646   3.122   4.975  10.288 -0.2595 -0.6827 -0.8510
  581MOL0     H76647   3.174   5.072  10.150  0.6029  2.0723 -0.4193
  581MOL0     H76648   3.086   5.283  10.257  0.6734 -0.4327 -1.8715
  581MOL0     H76649   3.006   5.179  10.376 -1.0385  0.9836 -0.0697
  581MOL0     H76650   2.943   5.165  10.080  2.6823  0.3388  0.3763
  581MOL0     H76651   2.895   5.050  10.196  0.5575  0.2175  0.4280
  581MOL0     H76652   2.838   5.347  10.234  0.4888 -0.4477 -0.9538
  581MOL0     H76653   2.784   5.217  10.341 -1.5550  1.5664  0.2042
  581MOL0     H76654   2.667   5.469  10.262 -0.0649 -0.9470  0.4393
  581MOL0     H76655   2.524   5.647  10.176 -0.6380 -1.9566  1.4422
  581MOL0     H76656   2.331   5.909   9.843 -0.1184  1.3556  0.2978
  581MOL0     H76657   2.152   6.075   9.796  2.3110  0.6411  1.1671
  581MOL0     H76658   1.792   6.129  10.042  0.5106  3.3048 -1.2648
  581MOL0     H76659   1.763   5.991   9.930  0.9642 -0.8064 -1.7497
  581MOL0     H76660   1.604   6.187   9.877 -1.8885  1.1841 -6.1513
  581MOL0     H76661   1.723   6.154   9.744 -1.4206  1.0239 -1.2686
  581MOL0     H76662   1.859   6.330   9.826  0.0326 -0.3688  0.4902
  581MOL0     H76663   1.747   6.383   9.956  2.5677  2.0253 -0.1808
  581MOL0     H76664   1.718   6.371   9.670  1.5213 -0.4480  1.6995
  581MOL0     H76665   1.581   6.412   9.777 -1.1261  1.1302 -0.0317
  581MOL0     H76666   1.650   6.633   9.697  1.1225  2.5609  0.6819
  581MOL0     H76667   1.812   6.579   9.676  0.8195 -0.4457  1.0021
  581MOL0     H76668   1.844   6.570   9.922  1.7944  0.8250 -1.4977
  581MOL0     H76669   1.682   6.631   9.942  1.2204 -0.2452  0.5479
  581MOL0     H76670   1.883   6.809   9.947  1.7129 -0.6714 -0.0759
  581MOL0     H76671   1.897   6.779   9.774 -0.9220 -0.6474 -0.1819
  581MOL0     H76672   1.649   6.851   9.746  2.6577 -1.5332 -2.3209
  581MOL0     H76673   1.758   6.978   9.789  0.8215 -0.3885 -0.2978
  581MOL0     H76674   1.924   5.943  10.127  1.2985  0.9340  2.3906
  581MOL0     H76675   2.096   5.750  10.159  0.0974 -0.1883 -0.4467
  581MOL0     H76676   2.366   5.367   9.881 -1.4974  0.8882  0.9477
  581MOL0     H76677   2.505   5.190   9.974  1.6306 -1.0868  2.0244
  581MOL0     H76678   4.372   4.763  10.798  2.2799  0.8706  0.8646
  581MOL0     H76679   4.597   4.788  10.895  1.5137 -1.9406  1.5263
  581MOL0     H76680   4.839   5.121  11.273 -1.3030 -0.8473 -1.2259
  581MOL0     H76681   5.052   5.138  11.370 -1.9366  2.1543 -3.0423
  581MOL0     H76682   5.096   5.023  11.576  0.1423  0.6875 -0.1606
  581MOL0     H76683   5.276   5.049  11.562  0.5416 -0.1813 -2.5035
  581MOL0     H76684   5.215   4.923  11.773 -0.9697 -1.3607  1.0361
  581MOL0     H76685   5.157   4.793  11.662  1.9751 -2.2248  1.3932
  581MOL0     H76686   5.426   4.881  11.597  2.0290 -1.1163 -0.3464
  581MOL0     H76687   5.361   4.717  11.619 -0.1977 -1.5660  0.7911
  581MOL0     H76688   5.451   4.895  11.836 -1.7548  1.4812 -0.7477
  581MOL0     H76689   5.358   4.745  11.857 -1.0685  0.6570  0.1384
  581MOL0     H76690   5.742   4.575  11.828  0.0310 -0.2934 -1.4787
  581MOL0     H76691   5.089   4.707  11.346  0.1272 -0.4623 -0.1326
  581MOL0     H76692   4.864   4.690  11.253 -0.2728 -0.0990  0.7712
  582MOL0     O76693   2.386   3.753   9.507  0.4940  0.0958  0.0380
  582MOL0     C76694   2.403   3.635   9.525  0.9059  0.3535  0.4081
  582MOL0     O76695   2.316   3.532   9.496 -0.2492 -0.6659 -0.2538
  582MOL0     C76696   2.183   3.561   9.488  0.0306 -0.0484 -0.2529
  582MOL0     C76697   2.120   3.615   9.598 -0.8778  0.2322  0.5963
  582MOL0     C76698   1.987   3.648   9.600 -0.3088 -0.0527 -0.6703
  582MOL0     C76699   1.907   3.616   9.488  0.8507  0.5243 -0.5877
  582MOL0     O76700   1.779   3.675   9.480  0.8705  0.0225 -0.4104
  582MOL0     C76701   1.706   3.693   9.362  0.1414  0.0024 -0.3885
  582MOL0     C76702   1.608   3.808   9.389  0.0726  0.4852 -0.4890
  582MOL0     C76703   1.516   3.786   9.508  0.2326 -0.6189  0.3638
  582MOL0     C76704   1.427   3.911   9.540 -0.3574 -0.4951  0.3854
  582MOL0     C76705   1.344   3.882   9.660 -0.0822  0.0270  1.0007
  582MOL0     C76706   1.315   4.009   9.746  0.0235  0.7595 -0.2514
  582MOL0     C76707   1.256   4.130   9.679  0.9285 -0.5210  0.1949
  582MOL0     C76708   1.310   4.263   9.747 -0.7705  0.2220 -0.1405
  582MOL0     N76709   1.263   4.295   9.883 -0.2064 -0.3049 -0.5747
  582MOL0     C76710   1.276   4.216   9.992 -0.5672  0.1840 -0.6793
  582MOL0     C76711   1.201   4.282  10.086  0.9761 -0.1159 -0.4558
  582MOL0     C76712   1.169   4.235  10.230  0.4850 -0.1145 -0.0849
  582MOL0     C76713   1.302   4.243  10.316  0.4068  0.4024  0.0533
  582MOL0     C76714   1.276   4.229  10.469  0.7776 -0.0669  0.9380
  582MOL0     C76715   1.253   4.083  10.506 -0.1041  0.0347  0.2034
  582MOL0     O76716   1.372   4.003  10.495  0.4783 -0.2199  0.2688
  582MOL0     C76717   1.472   4.004  10.590 -0.0854 -0.5998 -0.4038
  582MOL0     C76718   1.468   4.073  10.720  0.2955 -0.3809  0.2667
  582MOL0     C76719   1.582   4.090  10.802 -0.2353 -0.6482 -0.0768
  582MOL0     C76720   1.696   4.027  10.755  0.0446  0.0630  0.1902
  582MOL0     C76721   1.827   4.038  10.822 -0.5221 -0.4169 -0.2339
  582MOL0     O76722   1.939   4.066  10.745 -0.3008 -0.3398 -1.0637
  582MOL0     C76723   2.067   4.087  10.796  0.0825 -0.3620  0.0419
  582MOL0     C76724   2.124   4.007  10.896  0.3248 -0.1856  0.2161
  582MOL0     C76725   2.257   4.036  10.926 -0.9828 -0.0822  0.0839
  582MOL0     C76726   2.329   4.127  10.862  0.4679 -0.2365 -0.5332
  582MOL0     O76727   2.455   4.147  10.910 -0.0018  0.5449 -0.0067
  582MOL0     C76728   2.553   4.183  10.814 -0.1627  0.9464  0.7068
  582MOL0     C76729   2.688   4.145  10.876 -0.6575  0.2537  0.9457
  582MOL0     C76730   2.711   4.248  10.992 -0.0461  0.4158  0.0256
  582MOL0     C76731   2.852   4.235  11.058  0.4281 -0.5820 -0.2185
  582MOL0     C76732   2.864   4.102  11.131 -0.0979 -0.1175  0.6029
  582MOL0     C76733   2.989   4.098  11.212 -0.6029  0.6592  0.6636
  582MOL0     C76734   3.094   4.000  11.147  1.2426 -0.2941 -0.3841
  582MOL0     C76735   3.237   4.019  11.203  0.7857 -0.8347  0.0117
  582MOL0    Cl76736   3.354   3.909  11.120  0.3589 -0.2877 -0.0818
  582MOL0     C76737   2.269   4.203  10.764  0.9940  0.3379  0.3971
  582MOL0     C76738   2.137   4.181  10.733  0.0153  0.2221  0.3559
  582MOL0     O76739   1.822   4.041  10.948 -0.2417 -0.1439  0.6872
  582MOL0     C76740   1.692   3.939  10.642  0.0962 -0.2237 -0.3655
  582MOL0     C76741   1.578   3.921  10.559 -0.4139 -0.4586 -0.7347
  582MOL0     N76742   1.146   4.391  10.036 -0.2193 -0.2098  0.3622
  582MOL0     N76743   1.178   4.400   9.912 -0.9122  0.0469 -0.9744
  582MOL0     C76744   1.964   3.549   9.385 -0.1798 -0.7364  0.3943
  582MOL0     C76745   2.096   3.516   9.376 -0.4373  0.1701 -0.2906
  582MOL0     C76746   2.546   3.591   9.559  0.0409  0.7961  0.0316
  582MOL0     C76747   2.648   3.686   9.555  0.7274 -0.1550 -0.7577
  582MOL0     C76748   2.775   3.656   9.599  0.3482  0.4124  0.4013
  582MOL0     C76749   2.811   3.520   9.635  0.3819  0.1437 -0.8382
  582MOL0     O76750   2.935   3.504   9.690  0.5706  0.2545  0.3762
  582MOL0     C76751   2.943   3.409   9.803 -0.0143  0.7641  0.4736
  582MOL0     C76752   3.062   3.440   9.889  0.2835  0.0320 -0.7212
  582MOL0     C76753   3.177   3.358   9.831 -0.3863  0.8167  0.3047
  582MOL0     C76754   3.311   3.388   9.896  0.6260  0.0985  0.8853
  582MOL0     C76755   3.412   3.323   9.812 -0.4377  0.3367  0.5220
  582MOL0     C76756   3.488   3.255   9.744  0.1014 -0.1733 -0.0939
  582MOL0     C76757   2.702   3.422   9.633  0.5374 -0.6150 -0.1772
  582MOL0     C76758   2.578   3.456   9.584  0.1093  0.1950  0.0984
  582MOL0     H76759   2.178   3.650   9.683  0.2229 -0.7694  0.2813
  582MOL0     H76760   1.937   3.711   9.672 -1.8112 -2.7390  0.8225
  582MOL0     H76761   1.652   3.604   9.330 -0.7693  1.1303 -2.1688
  582MOL0     H76762   1.766   3.720   9.275 -0.3754 -0.2060 -0.8116
  582MOL0     H76763   1.549   3.838   9.301  0.6104  0.9234 -0.7133
  582MOL0     H76764   1.676   3.891   9.411  1.2759 -0.7325  0.5562
  582MOL0     H76765   1.576   3.767   9.598  1.0676  2.0988  0.4547
  582MOL0     H76766   1.448   3.701   9.492  1.3214 -1.7657  1.5056
  582MOL0     H76767   1.495   3.994   9.560 -0.8562 -0.1102  0.4960
  582MOL0     H76768   1.368   3.934   9.452  1.1365  0.7948 -0.3359
  582MOL0     H76769   1.400   3.824   9.735  0.0801 -1.2717 -0.0930
  582MOL0     H76770   1.259   3.821   9.629  0.5585 -0.7065  0.6576
  582MOL0     H76771   1.411   4.036   9.790 -0.2801  1.7325 -0.1644
  582MOL0     H76772   1.253   3.979   9.831  1.7762  0.7505  1.0787
  582MOL0     H76773   1.271   4.131   9.571  0.1099  2.1269  0.0429
  582MOL0     H76774   1.147   4.133   9.688  1.0213  3.1649  2.7234
  582MOL0     H76775   1.287   4.346   9.680  0.9713  0.9361  0.0964
  582MOL0     H76776   1.419   4.265   9.758 -0.7283 -0.9141 -0.2724
  582MOL0     H76777   1.342   4.131  10.011 -1.5801 -0.1351  1.7967
  582MOL0     H76778   1.128   4.133  10.229 -0.8604  0.4126 -0.5632
  582MOL0     H76779   1.095   4.305  10.269 -0.5173 -0.8973 -0.5235
  582MOL0     H76780   1.352   4.339  10.303 -1.3541  1.1525 -1.8147
  582MOL0     H76781   1.370   4.167  10.278 -1.1849  0.4665 -3.3676
  582MOL0     H76782   1.367   4.268  10.515  0.4238  2.5257 -0.3627
  582MOL0     H76783   1.194   4.289  10.510 -0.5378 -0.7148 -0.6203
  582MOL0     H76784   1.175   4.032  10.448  0.6233 -0.2822 -0.5168
  582MOL0     H76785   1.220   4.074  10.610  4.2358 -0.2061  1.7575
  582MOL0     H76786   1.377   4.114  10.764 -0.8882 -1.2718 -1.2350
  582MOL0     H76787   1.582   4.152  10.891 -0.6326  1.9436 -1.7673
  582MOL0     H76788   2.057   3.952  10.961  3.2207 -3.9855  0.3363
  582MOL0     H76789   2.316   3.988  11.004  0.4852  0.0988 -0.8708
  582MOL0     H76790   2.551   4.289  10.787 -1.2935  1.5474  2.8931
  582MOL0     H76791   2.521   4.116  10.734  1.2845 -0.3571  1.1647
  582MOL0     H76792   2.769   4.154  10.802 -0.5762  1.3930  1.1523
  582MOL0     H76793   2.680   4.041  10.908  2.0689 -0.7687 -1.1692
  582MOL0     H76794   2.643   4.220  11.072  0.5681  0.5128  0.5903
  582MOL0     H76795   2.687   4.348  10.954 -1.1131  0.3968  0.6109
  582MOL0     H76796   2.939   4.258  10.996  0.2648 -1.1995 -0.6876
  582MOL0     H76797   2.850   4.313  11.135 -1.6316 -0.2348 -0.5565
  582MOL0     H76798   2.865   4.032  11.047 -3.1257  1.6427 -1.0907
  582MOL0     H76799   2.777   4.086  11.196 -0.4474  0.8042  0.3720
  582MOL0     H76800   2.970   4.077  11.318 -0.8922  2.3128  0.9600
  582MOL0     H76801   3.030   4.199  11.212 -1.0413  0.8444  0.0179
  582MOL0     H76802   3.077   3.894  11.170 -0.6140 -0.4131 -2.0853
  582MOL0     H76803   3.093   4.014  11.039  0.0569 -0.5938 -0.4189
  582MOL0     H76804   3.247   4.003  11.311  0.7563 -0.2371  0.1074
  582MOL0     H76805   3.269   4.122  11.186  0.1349 -0.6953 -0.3664
  582MOL0     H76806   2.329   4.287  10.730  1.8239 -0.7327 -0.8721
  582MOL0     H76807   2.089   4.250  10.665  0.7933 -0.1444 -0.5800
  582MOL0     H76808   1.786   3.888  10.624 -1.1618 -1.4372 -4.6752
  582MOL0     H76809   1.571   3.873  10.462 -3.3675  0.9560 -1.3074
  582MOL0     H76810   1.899   3.528   9.301  1.0496  2.6587 -1.6064
  582MOL0     H76811   2.133   3.456   9.293  0.4675 -0.0571  0.2578
  582MOL0     H76812   2.622   3.790   9.537  3.2940  0.7872  0.4561
  582MOL0     H76813   2.847   3.738   9.594  0.9423 -0.1281 -0.0004
  582MOL0     H76814   2.937   3.302   9.778  0.3607  0.5325  1.3369
  582MOL0     H76815   2.851   3.424   9.861 -0.2072  2.1040 -0.1485
  582MOL0     H76816   3.097   3.544   9.892 -1.2276  0.5644 -1.0246
  582MOL0     H76817   3.054   3.413   9.995  0.4758  0.9475 -0.4634
  582MOL0     H76818   3.186   3.381   9.724  1.7127 -0.7916  0.0919
  582MOL0     H76819   3.143   3.254   9.832 -0.6392  0.8992  0.5477
  582MOL0     H76820   3.336   3.494   9.908  4.5075 -0.5338 -0.1643
  582MOL0     H76821   3.319   3.342   9.996  2.0229 -0.7992  0.3861
  582MOL0     H76822   3.561   3.200   9.688  1.2211 -0.1711  1.3330
  582MOL0     H76823   2.726   3.318   9.652 -0.1721 -0.8164 -0.3468
  582MOL0     H76824   2.502   3.380   9.567  1.4435 -1.0898 -0.3612
  583MOL0     O76825   9.784   2.956   8.794 -0.5475 -0.2438  0.5638
  583MOL0     C76826   9.794   3.072   8.759 -0.1624  0.9275 -0.4020
  583MOL0     O76827   9.682   3.167   8.759  0.0422  0.0278  0.1667
  583MOL0     C76828   9.574   3.123   8.827  0.4494 -0.8897  0.2007
  583MOL0     C76829   9.466   3.071   8.764 -0.1209 -0.1288 -0.8500
  583MOL0     C76830   9.355   3.019   8.837  1.0514 -0.3998  0.0852
  583MOL0     C76831   9.364   3.025   8.979  0.2620  0.4829  0.2559
  583MOL0     O76832   9.263   2.968   9.047  0.0081 -0.3242  0.2787
  583MOL0     C76833   9.293   2.918   9.182  0.7098 -0.2862 -0.1480
  583MOL0     C76834   9.203   2.805   9.229  0.9286  1.3079 -0.0236
  583MOL0     C76835   9.059   2.840   9.230  0.3354  0.5872  0.1924
  583MOL0     C76836   8.989   2.716   9.280 -0.9642  0.2730  0.3202
  583MOL0     C76837   8.838   2.724   9.249  1.0931 -0.4010 -0.8352
  583MOL0     C76838   8.775   2.586   9.273 -0.7833 -0.0737 -0.3277
  583MOL0     C76839   8.628   2.587   9.247  0.4930 -0.5974 -0.1122
  583MOL0     C76840   8.560   2.450   9.265 -0.2018 -0.7424 -0.7807
  583MOL0     N76841   8.422   2.459   9.228 -0.3651 -0.3791  0.6806
  583MOL0     C76842   8.372   2.428   9.105 -0.4763 -0.5352 -0.1751
  583MOL0     C76843   8.240   2.428   9.115  0.0792  0.3975  0.1435
  583MOL0     C76844   8.139   2.394   9.008 -0.1675 -0.3334 -0.6883
  583MOL0     C76845   8.124   2.244   8.996 -1.2072  0.5610 -0.6704
  583MOL0     C76846   8.011   2.216   8.899  0.3374  0.7041  0.4159
  583MOL0     C76847   7.870   2.240   8.947 -0.2156  0.0531  0.3428
  583MOL0     O76848   7.856   2.185   9.075 -0.5421  0.3321 -0.1913
  583MOL0     C76849   7.751   2.100   9.090  0.3393 -0.8665  0.1804
  583MOL0     C76850   7.776   1.977   9.151  0.1174 -0.2052  0.8302
  583MOL0     C76851   7.669   1.885   9.174  0.7252  0.3315 -0.0740
  583MOL0     C76852   7.536   1.928   9.149 -0.1785 -0.2664  0.2168
  583MOL0     C76853   7.423   1.840   9.184 -0.2429  1.2380 -0.0922
  583MOL0     O76854   7.294   1.866   9.135 -0.9619 -0.5040  0.1968
  583MOL0     C76855   7.180   1.799   9.177 -0.3432  0.7710 -0.1246
  583MOL0     C76856   7.070   1.873   9.209 -0.2475 -0.4849  0.0155
  583MOL0     C76857   6.951   1.812   9.235  0.3576 -0.4994  0.2517
  583MOL0     C76858   6.943   1.673   9.246  0.6757  0.6767  0.7059
  583MOL0     O76859   6.825   1.607   9.282  0.3155 -0.0405 -0.2889
  583MOL0     C76860   6.708   1.681   9.333  0.0469 -0.0531  0.3890
  583MOL0     C76861   6.587   1.597   9.371 -0.6666  0.4740 -0.0382
  583MOL0     C76862   6.618   1.501   9.486  0.2915  0.4168 -0.4092
  583MOL0     C76863   6.501   1.401   9.522  0.0914  0.0914 -0.1445
  583MOL0     C76864   6.484   1.297   9.410  0.2516 -0.6736  1.0294
  583MOL0     C76865   6.373   1.205   9.438 -0.9755 -0.0005 -0.4774
  583MOL0     C76866   6.360   1.094   9.331 -0.9605 -1.0141 -1.0371
  583MOL0     C76867   6.269   0.972   9.370  0.1080 -0.6189 -0.0642
  583MOL0    Cl76868   6.245   0.862   9.242 -0.2291 -0.3334 -0.5369
  583MOL0     C76869   7.051   1.594   9.212 -0.2736 -0.2177  0.3007
  583MOL0     C76870   7.165   1.654   9.162 -0.6501  0.0080  0.0173
  583MOL0     O76871   7.447   1.747   9.258  0.1380 -0.4166 -0.1888
  583MOL0     C76872   7.512   2.063   9.104  0.2252 -0.6950  0.3377
  583MOL0     C76873   7.613   2.148   9.050 -0.2509 -0.0027 -0.6158
  583MOL0     N76874   8.213   2.477   9.239 -0.9559 -1.3015 -0.8210
  583MOL0     N76875   8.325   2.495   9.309  0.2601  0.4298  0.1044
  583MOL0     C76876   9.472   3.084   9.039  0.7753  0.3430  0.6106
  583MOL0     C76877   9.581   3.116   8.963 -0.3795  0.6069  0.0331
  583MOL0     C76878   9.925   3.122   8.719  0.5528  0.5784  0.7928
  583MOL0     C76879   9.934   3.259   8.698 -0.5661 -0.6674 -0.2845
  583MOL0     C76880  10.051   3.314   8.658 -0.5381 -0.4796  0.6835
  583MOL0     C76881  10.157   3.227   8.617 -0.0209 -0.2300 -0.0112
  583MOL0     O76882  10.272   3.290   8.570 -0.6810 -0.3755 -0.0070
  583MOL0     C76883  10.313   3.235   8.445 -0.4524 -0.2114  0.0074
  583MOL0     C76884  10.430   3.322   8.388  0.2961 -0.2713 -0.2026
  583MOL0     C76885  10.545   3.339   8.483 -0.0393  0.2440  0.0864
  583MOL0     C76886  10.646   3.441   8.434  0.1837  0.5920  0.5722
  583MOL0     C76887  10.771   3.443   8.510 -0.1360  0.0504  0.7320
  583MOL0     C76888  10.876   3.420   8.558  0.4762 -0.8575 -0.0888
  583MOL0     C76889  10.143   3.087   8.632 -0.8222  0.0097 -0.7561
  583MOL0     C76890  10.031   3.031   8.683  1.0497  1.1235 -0.7055
  583MOL0     H76891   9.483   3.070   8.657 -0.1470 -0.6490 -0.8489
  583MOL0     H76892   9.280   2.954   8.793 -0.1527  0.1384  1.2655
  583MOL0     H76893   9.292   2.989   9.265 -0.0144 -3.1136  2.4453
  583MOL0     H76894   9.390   2.869   9.171  1.0079  0.5286 -1.2839
  583MOL0     H76895   9.230   2.780   9.332  1.9317  0.6398 -0.4231
  583MOL0     H76896   9.226   2.722   9.161 -0.6122  0.7385  0.1184
  583MOL0     H76897   9.029   2.866   9.128 -0.6334 -0.6172  0.1447
  583MOL0     H76898   9.042   2.928   9.294 -4.0896  0.1531 -0.0758
  583MOL0     H76899   9.037   2.633   9.227 -2.4145 -1.1738  1.1800
  583MOL0     H76900   9.004   2.709   9.388  2.6630 -1.2972 -0.1385
  583MOL0     H76901   8.813   2.764   9.150 -0.4291  0.0629 -0.2770
  583MOL0     H76902   8.783   2.785   9.320 -0.7858 -2.4758 -0.3843
  583MOL0     H76903   8.790   2.558   9.377 -2.6391  2.8701  0.8550
  583MOL0     H76904   8.813   2.509   9.204  1.2012  0.9621 -0.4548
  583MOL0     H76905   8.583   2.657   9.319  0.7230 -0.6199  0.0542
  583MOL0     H76906   8.627   2.611   9.140  5.0933 -3.8157 -1.1799
  583MOL0     H76907   8.563   2.429   9.373 -2.3009 -0.1985 -0.5654
  583MOL0     H76908   8.606   2.370   9.208 -0.2821  0.1677 -2.1601
  583MOL0     H76909   8.433   2.404   9.019  1.1232 -0.5029  0.9139
  583MOL0     H76910   8.173   2.428   8.909  3.0104 -0.9113  0.0854
  583MOL0     H76911   8.043   2.434   9.043 -0.2838 -0.8084 -0.4579
  583MOL0     H76912   8.109   2.201   9.095  3.6628 -1.3409 -0.4860
  583MOL0     H76913   8.221   2.204   8.966 -0.9619 -0.3549  1.2257
  583MOL0     H76914   8.018   2.297   8.825  3.1812  0.0852 -0.0969
  583MOL0     H76915   8.011   2.118   8.852 -2.3576  0.6492  0.3271
  583MOL0     H76916   7.814   2.173   8.882  1.7895  0.2625 -1.7039
  583MOL0     H76917   7.839   2.345   8.944  0.5054  0.2519 -0.4475
  583MOL0     H76918   7.877   1.946   9.177  1.9377  2.2703 -2.5427
  583MOL0     H76919   7.678   1.789   9.224 -3.6398  0.6279  1.6831
  583MOL0     H76920   7.079   1.981   9.222  0.9263 -0.5354 -0.2980
  583MOL0     H76921   6.872   1.884   9.253  1.5436  0.7309  0.6464
  583MOL0     H76922   6.683   1.764   9.267  1.6339 -0.1780 -0.3963
  583MOL0     H76923   6.740   1.730   9.426  1.1724 -0.0217 -0.0073
  583MOL0     H76924   6.559   1.545   9.279 -1.0296 -3.1342  1.9097
  583MOL0     H76925   6.507   1.667   9.397  1.2299  3.4091 -1.6141
  583MOL0     H76926   6.638   1.560   9.576  2.2089  0.9086 -1.1021
  583MOL0     H76927   6.708   1.440   9.467  0.7214  0.0480  2.2998
  583MOL0     H76928   6.524   1.348   9.614 -1.6717 -1.3958 -0.4924
  583MOL0     H76929   6.403   1.448   9.539 -0.3759 -1.9843  4.0876
  583MOL0     H76930   6.579   1.244   9.419  3.3915  4.3055  1.0956
  583MOL0     H76931   6.476   1.343   9.311 -1.4294 -0.0464  1.4105
  583MOL0     H76932   6.283   1.265   9.455 -0.8248  0.1701 -0.2818
  583MOL0     H76933   6.392   1.153   9.532  1.3013  1.6237  0.0346
  583MOL0     H76934   6.323   1.140   9.238  0.4327  1.2268 -0.5538
  583MOL0     H76935   6.458   1.051   9.313  1.0428  1.8788  1.8799
  583MOL0     H76936   6.170   1.012   9.393 -0.3082 -1.5857 -0.1002
  583MOL0     H76937   6.304   0.927   9.464  0.4145  0.7024  0.4724
  583MOL0     H76938   7.047   1.487   9.234  0.6251 -0.2124  0.4958
  583MOL0     H76939   7.258   1.607   9.130 -1.3025 -0.0369 -1.9187
  583MOL0     H76940   7.417   2.111   9.085  0.6587  0.9600  1.9929
  583MOL0     H76941   7.590   2.237   8.993 -0.6481 -0.1397 -0.6718
  583MOL0     H76942   9.470   3.098   9.147 -0.6753 -4.9017  1.5333
  583MOL0     H76943   9.670   3.157   9.010 -2.3098  5.2362  0.2516
  583MOL0     H76944   9.854   3.330   8.719  0.6009  0.3012  1.0621
  583MOL0     H76945  10.048   3.421   8.639 -1.0377 -0.6216 -0.0825
  583MOL0     H76946  10.230   3.229   8.375 -0.2307 -0.5559 -0.2331
  583MOL0     H76947  10.351   3.133   8.459 -0.6297 -0.8102 -3.2194
  583MOL0     H76948  10.471   3.293   8.291  0.6164 -0.9811  0.1367
  583MOL0     H76949  10.386   3.420   8.369 -0.3892 -0.9797 -2.6650
  583MOL0     H76950  10.603   3.245   8.482  0.5486  0.5224 -3.1225
  583MOL0     H76951  10.505   3.367   8.581 -1.0512  0.0578 -0.2643
  583MOL0     H76952  10.660   3.423   8.327 -1.1791  0.8380  0.3321
  583MOL0     H76953  10.594   3.538   8.439  1.9302  1.6325 -0.2833
  583MOL0     H76954  10.960   3.395   8.620 -0.9505 -0.0642  2.2769
  583MOL0     H76955  10.233   3.030   8.615 -0.5147  1.1269 -3.3084
  583MOL0     H76956  10.038   2.924   8.700  3.4459  1.1942 -0.8333
  584MOL0     O76957   9.504   5.907  10.166  0.4185 -0.0564 -0.8197
  584MOL0     C76958   9.556   6.017  10.167 -0.3417 -0.7675 -0.0372
  584MOL0     O76959   9.484   6.136  10.164 -0.7799 -0.5691  0.3831
  584MOL0     C76960   9.344   6.151  10.154 -0.5354  0.1370  0.3661
  584MOL0     C76961   9.297   6.268  10.213 -0.2496  0.2062 -0.1020
  584MOL0     C76962   9.165   6.309  10.209  0.0165  0.3272  0.3756
  584MOL0     C76963   9.078   6.221  10.134  0.1281 -0.2915 -0.6199
  584MOL0     O76964   8.936   6.228  10.124 -0.5832 -0.0798  0.1377
  584MOL0     C76965   8.872   6.303  10.226  0.2218  0.1385 -0.0253
  584MOL0     C76966   8.716   6.319  10.191 -0.5862 -0.9448  1.0996
  584MOL0     C76967   8.659   6.170  10.234  0.0838 -0.5090  0.2723
  584MOL0     C76968   8.506   6.176  10.252 -1.1522  0.7223 -0.8264
  584MOL0     C76969   8.436   6.163  10.122 -0.6968  1.0110 -0.2163
  584MOL0     C76970   8.283   6.186  10.136  0.5408  0.2313 -0.8437
  584MOL0     C76971   8.211   6.174   9.999 -0.3026 -0.2961 -0.8788
  584MOL0     C76972   8.055   6.201   9.997 -0.6111 -0.8461 -0.6675
  584MOL0     N76973   8.011   6.173   9.858 -0.1792 -1.0691  0.2605
  584MOL0     C76974   7.958   6.060   9.802  0.2332  0.6771 -0.3498
  584MOL0     C76975   7.924   6.097   9.676  0.3734  0.0244  0.4733
  584MOL0     C76976   7.864   6.010   9.572 -1.1601  0.4350  0.6927
  584MOL0     C76977   7.759   5.908   9.626  0.7723  0.5236  0.7018
  584MOL0     C76978   7.666   5.875   9.505  0.1184 -0.6685  1.0140
  584MOL0     C76979   7.563   5.771   9.552  0.0935  0.4777  0.2554
  584MOL0     O76980   7.449   5.777   9.468  0.1649 -0.2632 -0.3628
  584MOL0     C76981   7.348   5.857   9.517  0.1799  0.1286  0.4538
  584MOL0     C76982   7.219   5.831   9.455 -1.0918 -0.4915  0.4379
  584MOL0     C76983   7.104   5.902   9.496 -0.8081 -0.1486  0.8330
  584MOL0     C76984   7.117   6.003   9.597 -0.0042  0.7361 -0.0047
  584MOL0     C76985   7.001   6.091   9.635 -0.0220 -0.5647  0.4452
  584MOL0     O76986   6.880   6.059   9.584  0.1726 -0.7695 -0.2946
  584MOL0     C76987   6.783   6.158   9.591  0.2420 -0.0108 -0.7156
  584MOL0     C76988   6.657   6.120   9.637 -0.7574  0.7278 -0.2423
  584MOL0     C76989   6.543   6.206   9.635  0.2375  0.1012  0.4811
  584MOL0     C76990   6.570   6.341   9.603 -0.4125  0.4528  0.0411
  584MOL0     O76991   6.463   6.424   9.590 -0.2860 -0.3010  0.0107
  584MOL0     C76992   6.410   6.479   9.712 -0.7750 -0.4990 -0.1718
  584MOL0     C76993   6.264   6.433   9.751 -0.9875 -1.1502 -0.4125
  584MOL0     C76994   6.160   6.482   9.655 -0.0029  0.6739 -0.2723
  584MOL0     C76995   6.015   6.449   9.706 -0.5542  0.0251 -0.5617
  584MOL0     C76996   5.898   6.497   9.615 -0.5085  0.1249  0.7663
  584MOL0     C76997   5.883   6.647   9.625  0.3191  0.6646  0.4395
  584MOL0     C76998   5.789   6.685   9.516  0.5999  0.6236  0.0111
  584MOL0     C76999   5.770   6.831   9.499 -0.0220 -0.5647  0.1656
  584MOL0    Cl77000   5.742   6.932   9.642  0.2328  0.0214  0.3071
  584MOL0     C77001   6.691   6.377   9.552  0.6612 -0.1310  0.2801
  584MOL0     C77002   6.799   6.293   9.542  0.2370 -0.5523 -0.1260
  584MOL0     O77003   7.030   6.187   9.707 -0.1039 -0.4668 -0.7043
  584MOL0     C77004   7.243   6.015   9.657  0.6596 -0.5690  0.1230
  584MOL0     C77005   7.357   5.958   9.606 -1.3197  0.0975 -0.5659
  584MOL0     N77006   7.943   6.226   9.650 -0.4581 -0.7145 -0.1220
  584MOL0     N77007   8.007   6.266   9.756 -1.0246  0.2770  0.3248
  584MOL0     C77008   9.124   6.106  10.073  0.4288 -0.0223 -0.1166
  584MOL0     C77009   9.259   6.070  10.092  0.6216  0.7091  0.6637
  584MOL0     C77010   9.706   6.009  10.166  0.5870 -0.3887  0.3308
  584MOL0     C77011   9.774   6.115  10.226  0.1814 -0.7997  0.1406
  584MOL0     C77012   9.907   6.124  10.226 -0.2864  0.3528 -0.4980
  584MOL0     C77013   9.982   6.028  10.156 -0.0556  0.0420  0.2738
  584MOL0     O77014  10.116   6.017  10.156 -1.2463 -0.0956  0.7099
  584MOL0     C77015  10.197   6.125  10.212 -0.4096  0.6048  0.0750
  584MOL0     C77016  10.343   6.099  10.210  0.4089 -0.1267 -0.5732
  584MOL0     C77017  10.405   6.106  10.354 -0.3485  0.1461  0.6437
  584MOL0     C77018  10.557   6.094  10.359  0.0297 -0.0676 -0.0990
  584MOL0     C77019  10.609   6.035  10.486 -0.9514 -0.3003 -0.2296
  584MOL0     C77020  10.637   5.999  10.596 -0.3528  0.4812 -0.1225
  584MOL0     C77021   9.914   5.930  10.076  0.0458  0.0933  0.0854
  584MOL0     C77022   9.779   5.917  10.089 -0.4413 -0.9235  0.3393
  584MOL0     H77023   9.369   6.324  10.272 -1.2345  0.2546  1.0958
  584MOL0     H77024   9.140   6.403  10.257  0.8216  0.2232  1.0200
  584MOL0     H77025   8.919   6.401  10.232  0.3335  0.2958 -2.3748
  584MOL0     H77026   8.871   6.252  10.323 -3.1163 -0.8845 -0.4471
  584MOL0     H77027   8.706   6.345  10.085 -0.7050  1.5318  1.6555
  584MOL0     H77028   8.680   6.408  10.243  0.0697 -0.7055  1.1528
  584MOL0     H77029   8.700   6.142  10.331  1.8466  1.7097  0.2616
  584MOL0     H77030   8.686   6.096  10.158 -0.7460 -1.8693  1.2800
  584MOL0     H77031   8.466   6.096  10.315  0.0373  0.8597  0.1323
  584MOL0     H77032   8.481   6.264  10.311 -0.5518 -0.5702  1.4980
  584MOL0     H77033   8.451   6.064  10.079  1.2831  1.4429 -0.6212
  584MOL0     H77034   8.479   6.238  10.055  2.4796 -1.6560 -1.4564
  584MOL0     H77035   8.264   6.284  10.182 -0.9760  0.0528 -1.0364
  584MOL0     H77036   8.247   6.116  10.211  2.1799  1.3115  1.0586
  584MOL0     H77037   8.252   6.243   9.925 -2.1575  0.5116 -1.2035
  584MOL0     H77038   8.230   6.070   9.972 -1.7652 -2.2608  4.4049
  584MOL0     H77039   8.027   6.302  10.028  0.4849 -0.4287 -1.0001
  584MOL0     H77040   8.006   6.140  10.073 -0.6997  1.2438  1.0250
  584MOL0     H77041   7.974   5.972   9.863  1.4952  2.2228  1.6947
  584MOL0     H77042   7.939   5.959   9.510 -0.7371 -0.3531  1.8257
  584MOL0     H77043   7.799   6.071   9.508 -0.3027  0.0437 -0.5928
  584MOL0     H77044   7.701   5.971   9.694  1.8804  0.2752  1.9237
  584MOL0     H77045   7.804   5.821   9.677 -0.4218 -1.3744 -1.3001
  584MOL0     H77046   7.611   5.958   9.459  0.3536 -2.4783 -2.9483
  584MOL0     H77047   7.729   5.821   9.434 -0.6825  0.8392 -0.9224
  584MOL0     H77048   7.546   5.771   9.660 -0.5854 -1.2809  0.1904
  584MOL0     H77049   7.588   5.666   9.535  0.6215  0.4844  0.9521
  584MOL0     H77050   7.214   5.756   9.377 -1.4595  0.3332 -0.3427
  584MOL0     H77051   7.003   5.892   9.459  0.2160  0.7384 -2.5530
  584MOL0     H77052   6.651   6.021   9.680  0.4611  1.2937  1.2910
  584MOL0     H77053   6.444   6.170   9.660 -0.1725 -1.8604 -3.1459
  584MOL0     H77054   6.412   6.588   9.700 -2.0531 -0.6815 -2.7726
  584MOL0     H77055   6.471   6.446   9.796 -0.0947 -2.3367 -1.3130
  584MOL0     H77056   6.233   6.475   9.848  0.7240  0.7163 -0.6323
  584MOL0     H77057   6.266   6.324   9.754 -0.6983 -1.2091 -1.9750
  584MOL0     H77058   6.181   6.437   9.557 -0.1240  0.4683 -0.2041
  584MOL0     H77059   6.164   6.591   9.647 -0.7704  0.6382 -1.5884
  584MOL0     H77060   6.001   6.342   9.722 -0.8934  0.0351 -0.7780
  584MOL0     H77061   5.995   6.498   9.802 -2.8821  0.4795 -1.2195
  584MOL0     H77062   5.805   6.452   9.649 -0.6896  1.3395  1.9053
  584MOL0     H77063   5.913   6.479   9.508  1.1802  2.5323  0.5218
  584MOL0     H77064   5.973   6.705   9.604  0.9523  0.0067  1.2385
  584MOL0     H77065   5.841   6.675   9.722 -1.5741 -1.8680  0.4373
  584MOL0     H77066   5.811   6.644   9.417  0.4507  0.9810 -0.1734
  584MOL0     H77067   5.694   6.637   9.540  1.1263 -1.6050 -1.9835
  584MOL0     H77068   5.683   6.847   9.434  0.3779 -1.2087 -0.5499
  584MOL0     H77069   5.858   6.877   9.452  1.0570 -1.5904  1.1092
  584MOL0     H77070   6.696   6.479   9.514  0.6037 -0.2079  0.0694
  584MOL0     H77071   6.884   6.325   9.483  1.9417  0.0209  2.5041
  584MOL0     H77072   7.243   6.082   9.743  0.6076  1.3163 -1.2842
  584MOL0     H77073   7.452   5.985   9.651 -1.9222  1.8084 -0.2396
  584MOL0     H77074   9.067   6.040  10.009  1.1643 -1.1931  0.4089
  584MOL0     H77075   9.288   5.971  10.060 -0.5523  0.7785 -0.7531
  584MOL0     H77076   9.714   6.192  10.273 -2.3651 -1.3910 -1.8818
  584MOL0     H77077   9.960   6.197  10.285  1.8281 -1.8099  0.4093
  584MOL0     H77078  10.162   6.135  10.315 -2.0816 -0.6346 -0.3135
  584MOL0     H77079  10.175   6.223  10.169 -1.1677  0.7970  0.8762
  584MOL0     H77080  10.362   6.001  10.164 -0.0425 -0.7322  0.5013
  584MOL0     H77081  10.387   6.172  10.141 -1.2199  0.7196 -0.7743
  584MOL0     H77082  10.359   6.042  10.430  3.3838  1.0573  3.9756
  584MOL0     H77083  10.387   6.205  10.396  3.5868  1.9837 -1.5114
  584MOL0     H77084  10.588   6.035  10.272 -1.2617 -2.5446  1.0323
  584MOL0     H77085  10.607   6.191  10.347  0.4989 -0.0011  2.0149
  584MOL0     H77086  10.656   5.955  10.692 -0.7952  0.9309  0.1736
  584MOL0     H77087   9.977   5.873  10.008 -0.5235  0.5471 -0.8507
  584MOL0     H77088   9.735   5.844  10.022  2.3714  0.7511 -3.7197
  585MOL0     O77089   4.612   7.058  10.204 -0.2429  0.2005 -0.5124
  585MOL0     C77090   4.580   7.089  10.318  0.6922 -0.3141  0.1104
  585MOL0     O77091   4.450   7.110  10.360 -0.3463  0.3125 -0.1596
  585MOL0     C77092   4.344   7.050  10.306  0.2578  1.2014  0.9643
  585MOL0     C77093   4.218   7.119  10.302  0.0865  0.5582 -0.5939
  585MOL0     C77094   4.094   7.061  10.263  0.1083  0.4964 -0.9241
  585MOL0     C77095   4.100   6.926  10.229 -0.4348 -0.1544 -0.1025
  585MOL0     O77096   3.988   6.855  10.193 -0.1425 -0.4030 -0.4813
  585MOL0     C77097   3.948   6.855  10.055  0.3216 -0.1413 -0.0024
  585MOL0     C77098   3.811   6.788  10.038  0.6862  0.3378 -0.3087
  585MOL0     C77099   3.708   6.871  10.120  0.0047 -1.1460 -0.7609
  585MOL0     C77100   3.691   7.021  10.071 -0.7412  0.2891 -0.9972
  585MOL0     C77101   3.613   7.040   9.947  0.2264 -0.4980  0.6924
  585MOL0     C77102   3.460   7.028   9.963  0.1510  0.2814 -0.0682
  585MOL0     C77103   3.395   7.137  10.042 -0.2653 -0.2484 -0.2551
  585MOL0     C77104   3.315   7.078  10.161 -0.6037  0.1871  0.7879
  585MOL0     N77105   3.234   7.183  10.209 -0.1129 -0.0406  0.0762
  585MOL0     C77106   3.097   7.195  10.185 -0.7680 -0.4129  0.3247
  585MOL0     C77107   3.064   7.316  10.227 -0.1694  0.3488  0.2250
  585MOL0     C77108   2.941   7.394  10.210 -0.4560 -0.5375  0.2147
  585MOL0     C77109   2.943   7.474  10.077 -0.0618 -0.1653 -0.4113
  585MOL0     C77110   2.801   7.515  10.034 -0.0979 -0.2575 -0.2735
  585MOL0     C77111   2.689   7.415  10.058 -0.1166 -0.1300  0.5017
  585MOL0     O77112   2.558   7.456  10.011 -0.7426  0.1561 -0.1338
  585MOL0     C77113   2.472   7.520  10.094  0.3694  0.1636  0.2563
  585MOL0     C77114   2.375   7.444  10.150  1.1512  0.6757  0.5109
  585MOL0     C77115   2.284   7.496  10.242 -0.5047  0.2943 -0.4422
  585MOL0     C77116   2.280   7.628  10.280  0.1572  0.8038 -0.5355
  585MOL0     C77117   2.173   7.692  10.362 -0.1504 -0.3424 -0.2600
  585MOL0     O77118   2.171   7.822  10.378 -0.4446  0.0339 -0.2225
  585MOL0     C77119   2.087   7.884  10.473  0.7691  0.4589 -0.5085
  585MOL0     C77120   1.946   7.892  10.455  0.1065 -0.1465  0.6239
  585MOL0     C77121   1.874   7.956  10.550  0.1175 -0.7533  0.5834
  585MOL0     C77122   1.934   8.028  10.658  0.6164  0.5732 -0.2004
  585MOL0     O77123   1.870   8.081  10.768 -0.1466 -0.1963  0.1094
  585MOL0     C77124   1.731   8.115  10.767  0.4611 -0.4489  0.0546
  585MOL0     C77125   1.677   8.182  10.893 -0.0419 -0.5575  0.3182
  585MOL0     C77126   1.688   8.090  11.012  0.5239 -0.2572  0.1758
  585MOL0     C77127   1.653   8.126  11.158  0.0403 -0.7621 -0.7612
  585MOL0     C77128   1.504   8.126  11.191  0.2694 -0.1764 -0.2976
  585MOL0     C77129   1.435   8.265  11.172  0.0233 -0.2777 -0.3510
  585MOL0     C77130   1.285   8.249  11.211 -0.6823 -0.6678  0.2695
  585MOL0     C77131   1.217   8.376  11.197  0.2280  0.5453  0.2582
  585MOL0    Cl77132   1.040   8.354  11.211 -0.2410 -0.7466 -0.1910
  585MOL0     C77133   2.074   8.032  10.659  1.1607 -0.1550  0.2153
  585MOL0     C77134   2.150   7.969  10.561 -0.2715 -0.9618 -0.1360
  585MOL0     O77135   2.081   7.614  10.399 -0.3848 -0.1332 -0.4026
  585MOL0     C77136   2.380   7.709  10.216 -0.8099  0.1396  0.1730
  585MOL0     C77137   2.482   7.657  10.122  0.2255  0.6421 -0.3524
  585MOL0     N77138   3.167   7.367  10.295 -0.6900  0.5572  0.1094
  585MOL0     N77139   3.278   7.292  10.282 -0.1727 -0.0243 -0.8972
  585MOL0     C77140   4.221   6.855  10.228  0.5668  0.5158  1.1475
  585MOL0     C77141   4.337   6.914  10.264  0.2725 -0.2204  0.3755
  585MOL0     C77142   4.688   7.131  10.412 -0.0275  0.1456 -0.5398
  585MOL0     C77143   4.814   7.111  10.376 -0.1793  0.4985  0.2355
  585MOL0     C77144   4.920   7.149  10.459 -0.7286 -0.6276  0.4073
  585MOL0     C77145   4.892   7.207  10.582  0.5314 -0.4223  0.7220
  585MOL0     O77146   5.001   7.217  10.662 -0.1433 -0.9893 -1.1903
  585MOL0     C77147   5.112   7.311  10.631  0.5707  0.1449 -0.5302
  585MOL0     C77148   5.232   7.292  10.714  0.0395  0.0728  0.3319
  585MOL0     C77149   5.304   7.155  10.702 -0.4289  0.8917  0.0710
  585MOL0     C77150   5.458   7.160  10.743  0.1907  0.7460  0.2367
  585MOL0     C77151   5.477   7.226  10.875  0.9111 -0.1589 -0.1697
  585MOL0     C77152   5.500   7.293  10.971 -0.8014  0.4355  0.3715
  585MOL0     C77153   4.762   7.235  10.624 -0.3128  0.3262  0.2872
  585MOL0     C77154   4.665   7.192  10.533  0.1124  0.4915  0.5765
  585MOL0     H77155   4.217   7.222  10.334  2.3989  0.0614  1.3847
  585MOL0     H77156   4.002   7.118  10.267  0.0625  0.5577 -2.2754
  585MOL0     H77157   4.029   6.807  10.000  2.0513  1.1511  1.3236
  585MOL0     H77158   3.939   6.960  10.025 -0.0436  0.0933  0.9071
  585MOL0     H77159   3.816   6.688  10.082  3.2092 -0.0005 -1.1842
  585MOL0     H77160   3.780   6.785   9.933  0.1507 -0.3556 -0.1399
  585MOL0     H77161   3.733   6.882  10.226 -0.4306  1.7399 -0.8659
  585MOL0     H77162   3.605   6.833  10.120 -1.5382  2.6177 -1.1495
  585MOL0     H77163   3.634   7.069  10.152 -1.5092  0.2018 -1.4791
  585MOL0     H77164   3.785   7.077  10.065 -0.7093  0.5022  0.7860
  585MOL0     H77165   3.652   6.968   9.874 -0.5354 -0.6884  0.4596
  585MOL0     H77166   3.632   7.140   9.907 -1.2602  0.6783  2.7380
  585MOL0     H77167   3.437   6.930  10.006  1.9701  0.5039  1.5555
  585MOL0     H77168   3.413   7.036   9.864 -1.8084  2.3849  0.9548
  585MOL0     H77169   3.470   7.202  10.088 -0.0942 -0.2368 -0.5509
  585MOL0     H77170   3.340   7.197   9.968 -1.2068  0.0179  0.6311
  585MOL0     H77171   3.383   7.032  10.233  0.1215 -2.0234 -1.1668
  585MOL0     H77172   3.256   6.994  10.122 -2.1834  1.2972  0.6994
  585MOL0     H77173   3.038   7.132  10.119 -0.0703  1.3235 -2.1017
  585MOL0     H77174   2.931   7.455  10.300 -1.6810 -1.4868  0.7559
  585MOL0     H77175   2.863   7.317  10.213 -0.1998 -0.8258 -0.3324
  585MOL0     H77176   2.989   7.416   9.996 -0.3158 -1.1128  0.1000
  585MOL0     H77177   3.003   7.563  10.096 -1.1886  1.2528 -3.0482
  585MOL0     H77178   2.780   7.610  10.085  2.0583 -0.1419  0.5219
  585MOL0     H77179   2.800   7.533   9.926 -1.5204  2.5391  0.1007
  585MOL0     H77180   2.681   7.383  10.163 -0.3898  0.6766  0.7388
  585MOL0     H77181   2.719   7.328  10.000 -0.8746  0.9897 -1.6674
  585MOL0     H77182   2.376   7.339  10.124 -0.0840  0.6553  0.5041
  585MOL0     H77183   2.212   7.438  10.298 -0.6057  0.2540 -0.6126
  585MOL0     H77184   1.896   7.842  10.372  2.9089  2.1616 -2.7996
  585MOL0     H77185   1.766   7.951  10.551  0.0932 -1.3358 -1.0166
  585MOL0     H77186   1.675   8.025  10.740  2.7076 -1.5492 -1.2578
  585MOL0     H77187   1.727   8.186  10.683  1.1989 -1.8014 -1.1722
  585MOL0     H77188   1.570   8.194  10.874 -0.3002 -1.5402  1.0736
  585MOL0     H77189   1.727   8.277  10.909 -0.1420 -0.2142 -1.2346
  585MOL0     H77190   1.793   8.061  11.023  0.3665 -0.1821  2.5868
  585MOL0     H77191   1.634   8.000  10.980  0.8856 -0.5461  0.3823
  585MOL0     H77192   1.706   8.048  11.212  0.5065  0.0548 -0.0051
  585MOL0     H77193   1.703   8.219  11.187  0.6257 -1.2996 -0.0339
  585MOL0     H77194   1.497   8.096  11.296 -1.7549 -2.0509 -0.8876
  585MOL0     H77195   1.454   8.049  11.131  0.2537 -2.3241  2.2364
  585MOL0     H77196   1.450   8.309  11.073  0.2050 -3.4177 -1.8340
  585MOL0     H77197   1.483   8.335  11.241 -1.4786 -1.5545  2.1470
  585MOL0     H77198   1.233   8.187  11.137 -1.7814 -0.9658  1.2405
  585MOL0     H77199   1.272   8.198  11.307  0.7913 -2.4865 -0.4477
  585MOL0     H77200   1.245   8.438  11.112  0.4690  1.8891  1.2830
  585MOL0     H77201   1.244   8.450  11.274 -2.2002 -0.1017  1.8539
  585MOL0     H77202   2.110   8.099  10.736 -1.3619 -0.9314  2.2209
  585MOL0     H77203   2.258   7.960  10.567 -0.3179 -3.0149 -1.3002
  585MOL0     H77204   2.384   7.817  10.230 -0.6989  0.0091  1.2396
  585MOL0     H77205   2.558   7.708  10.063 -0.7196  0.5469 -1.7100
  585MOL0     H77206   4.228   6.748  10.212 -2.2863 -0.0073  2.7775
  585MOL0     H77207   4.425   6.851  10.270  2.2623  2.4544  2.0048
  585MOL0     H77208   4.840   7.063  10.282  0.1914 -1.0154  1.0869
  585MOL0     H77209   5.021   7.126  10.425 -0.4702  0.7710  0.1913
  585MOL0     H77210   5.071   7.410  10.652  1.1599  0.2245  0.2614
  585MOL0     H77211   5.141   7.306  10.525  1.3923 -1.5017 -0.2588
  585MOL0     H77212   5.298   7.377  10.700 -0.5119  0.2142 -1.7146
  585MOL0     H77213   5.203   7.297  10.820  2.8358  0.9644  1.1505
  585MOL0     H77214   5.292   7.121  10.598  2.0030  3.7277 -1.2935
  585MOL0     H77215   5.253   7.085  10.768 -0.0822  0.0738 -0.5073
  585MOL0     H77216   5.495   7.058  10.751  0.9273  0.8720 -1.1082
  585MOL0     H77217   5.512   7.213  10.663 -1.2174 -0.1320 -1.3694
  585MOL0     H77218   5.517   7.348  11.061 -0.3175 -1.6701  1.6247
  585MOL0     H77219   4.734   7.270  10.723  0.1272  2.0284 -0.1621
  585MOL0     H77220   4.562   7.208  10.563 -1.0868 -1.5718 -2.0568
  586MOL0     O77221   0.355   9.998   5.836  0.1971  0.1035  0.6216
  586MOL0     C77222   0.422  10.074   5.769  0.0840  0.0981 -0.3771
  586MOL0     O77223   0.379  10.180   5.683  0.1461  0.0483 -0.5564
  586MOL0     C77224   0.254  10.161   5.629  0.2325  1.4856  0.1626
  586MOL0     C77225   0.181  10.276   5.581  1.0438 -0.1364  0.4428
  586MOL0     C77226   0.046  10.268   5.552 -0.2346  0.2134  0.9092
  586MOL0     C77227  -0.021  10.149   5.546  0.5810  0.4989  0.7642
  586MOL0     O77228  -0.149  10.142   5.503  0.2879  0.1263  0.8989
  586MOL0     C77229  -0.249  10.157   5.603 -0.3317  0.2105 -0.6053
  586MOL0     C77230  -0.355  10.042   5.609 -0.5631 -0.0706  0.7348
  586MOL0     C77231  -0.305   9.908   5.676  0.9333  0.1734 -0.5886
  586MOL0     C77232  -0.377   9.790   5.617  0.7960 -0.1297  0.1906
  586MOL0     C77233  -0.481   9.719   5.703  1.1490 -0.1798 -0.2282
  586MOL0     C77234  -0.542   9.606   5.617  0.1324  0.4061  0.0494
  586MOL0     C77235  -0.452   9.474   5.603 -0.4167  0.0980 -0.3395
  586MOL0     C77236  -0.507   9.354   5.514 -0.9681 -0.4813  0.1419
  586MOL0     N77237  -0.602   9.300   5.606  0.3235  0.5337 -0.0104
  586MOL0     C77238  -0.583   9.202   5.703 -0.3325  0.6223 -0.2175
  586MOL0     C77239  -0.700   9.177   5.752 -0.3985  0.3177 -0.0467
  586MOL0     C77240  -0.737   9.078   5.861  0.7382  0.0100  0.0489
  586MOL0     C77241  -0.877   9.025   5.861  0.3794 -0.5718  0.4313
  586MOL0     C77242  -0.987   9.135   5.883  0.1926 -0.1371  0.6254
  586MOL0     C77243  -1.125   9.067   5.923 -1.2494  0.1377  0.6265
  586MOL0     O77244  -1.226   9.163   5.950 -0.9290 -0.2093 -0.6997
  586MOL0     C77245  -1.328   9.127   6.035 -0.5054 -0.1331  0.0515
  586MOL0     C77246  -1.324   9.026   6.142  0.1258  0.0839  1.3778
  586MOL0     C77247  -1.438   9.007   6.226  0.2834  0.8796  0.4024
  586MOL0     C77248  -1.553   9.083   6.205  0.6742  0.1594 -1.0711
  586MOL0     C77249  -1.679   9.060   6.288  0.2102  0.9639  0.8131
  586MOL0     O77250  -1.672   8.955   6.378  0.6704 -0.6794 -0.5696
  586MOL0     C77251  -1.788   8.926   6.447 -0.3679  0.6817  1.4149
  586MOL0     C77252  -1.821   8.959   6.574 -0.7008 -0.7303  0.5821
  586MOL0     C77253  -1.943   8.931   6.629  0.5209 -0.4077 -0.1580
  586MOL0     C77254  -2.039   8.852   6.557  0.0646  0.4703  0.0586
  586MOL0     O77255  -2.158   8.833   6.623 -0.3967 -0.6964 -0.0887
  586MOL0     C77256  -2.249   8.760   6.544 -0.2380  0.3216  0.3945
  586MOL0     C77257  -2.370   8.734   6.633 -0.1468 -0.1367  0.6402
  586MOL0     C77258  -2.434   8.870   6.669 -0.3759  0.2133  0.4692
  586MOL0     C77259  -2.447   8.978   6.559  0.3349  0.4513 -0.2681
  586MOL0     C77260  -2.528   9.094   6.596 -0.2917 -0.3256  0.5711
  586MOL0     C77261  -2.679   9.064   6.639 -0.3039 -0.3170  0.9988
  586MOL0     C77262  -2.763   9.190   6.619 -0.4233 -1.0449  0.0520
  586MOL0     C77263  -2.797   9.227   6.470 -0.5284 -0.1898 -0.5455
  586MOL0    Cl77264  -2.923   9.142   6.402  0.4569 -0.1821 -0.0758
  586MOL0     C77265  -1.993   8.799   6.426  0.1954 -0.4442  0.5248
  586MOL0     C77266  -1.871   8.840   6.373 -0.4594 -0.5718 -0.3940
  586MOL0     O77267  -1.785   9.117   6.260  0.2402  0.0411  0.5680
  586MOL0     C77268  -1.551   9.190   6.112 -1.4054 -0.0545  0.7869
  586MOL0     C77269  -1.440   9.205   6.029 -0.1557 -0.4376  0.0029
  586MOL0     N77270  -0.791   9.244   5.681  0.0907 -0.7635 -0.4877
  586MOL0     N77271  -0.734   9.314   5.590 -0.4079 -0.3129 -0.7128
  586MOL0     C77272   0.050  10.038   5.572  0.5599  0.4957 -0.0196
  586MOL0     C77273   0.180  10.042   5.618 -0.0818 -0.2829  0.2682
  586MOL0     C77274   0.560  10.071   5.797  0.0864 -0.1388 -0.5619
  586MOL0     C77275   0.646  10.158   5.727  0.4163 -0.0848  0.2242
  586MOL0     C77276   0.784  10.145   5.739 -0.1237  0.5947 -0.9465
  586MOL0     C77277   0.842  10.055   5.828 -0.2790  0.4216 -0.0879
  586MOL0     O77278   0.979  10.069   5.851 -0.8807  1.1266 -0.3251
  586MOL0     C77279   1.044   9.997   5.949  0.3936 -0.5232 -0.5318
  586MOL0     C77280   1.189  10.051   5.961 -0.1559 -1.1190 -0.9013
  586MOL0     C77281   1.275  10.005   5.848  0.7196 -0.6389 -0.5010
  586MOL0     C77282   1.422  10.055   5.870 -0.3068 -0.1922  0.0573
  586MOL0     C77283   1.496   9.972   5.971  0.2690  0.0758 -0.0595
  586MOL0     C77284   1.564   9.911   6.054 -0.4301  0.0905  0.6143
  586MOL0     C77285   0.758   9.954   5.893 -0.0241  0.1580  0.5538
  586MOL0     C77286   0.620   9.978   5.883  0.6650 -0.2461  0.6303
  586MOL0     H77287   0.240  10.367   5.580  0.0586  0.5167 -0.0143
  586MOL0     H77288  -0.000  10.364   5.532 -4.4690 -1.8972 -0.5480
  586MOL0     H77289  -0.303  10.245   5.568 -0.6832  1.5420  2.8416
  586MOL0     H77290  -0.205  10.187   5.699  0.7008 -0.6596 -0.7799
  586MOL0     H77291  -0.382  10.019   5.505 -2.3858  0.7121  1.0031
  586MOL0     H77292  -0.449  10.071   5.656 -0.8651 -0.8092  0.6107
  586MOL0     H77293  -0.322   9.911   5.784 -0.1214 -1.2475 -0.6772
  586MOL0     H77294  -0.199   9.894   5.655  1.0556  0.0261  0.0929
  586MOL0     H77295  -0.404   9.809   5.513  2.0475  1.0569  0.0498
  586MOL0     H77296  -0.295   9.719   5.611  0.6320 -0.4026  1.0597
  586MOL0     H77297  -0.553   9.791   5.744  4.5860  2.3375  2.0065
  586MOL0     H77298  -0.445   9.665   5.791 -1.0732 -0.3400  0.6485
  586MOL0     H77299  -0.560   9.641   5.516  1.0184  0.3974 -0.1220
  586MOL0     H77300  -0.637   9.581   5.664  1.2625 -0.8196  1.8187
  586MOL0     H77301  -0.359   9.513   5.560 -0.4939 -0.0121 -0.6087
  586MOL0     H77302  -0.435   9.436   5.704  0.4616 -2.6418 -1.4306
  586MOL0     H77303  -0.440   9.272   5.488  1.1345  1.3318 -0.5215
  586MOL0     H77304  -0.557   9.393   5.424 -1.4663 -1.7759 -0.1565
  586MOL0     H77305  -0.488   9.163   5.735 -1.3170 -1.0021  0.8359
  586MOL0     H77306  -0.709   9.113   5.961 -0.1261 -1.2378  0.7493
  586MOL0     H77307  -0.670   8.994   5.838 -0.1450 -0.5867 -0.3770
  586MOL0     H77308  -0.887   8.958   5.947  1.9911 -1.9602 -0.4026
  586MOL0     H77309  -0.899   8.968   5.771 -1.2835  1.3374 -0.4653
  586MOL0     H77310  -0.955   9.199   5.965  2.0992  1.0715 -0.9909
  586MOL0     H77311  -1.000   9.195   5.793  2.9743 -1.0322 -0.4563
  586MOL0     H77312  -1.108   8.999   6.006 -1.7379  0.0856  0.6847
  586MOL0     H77313  -1.157   9.003   5.840 -0.2336  0.8219 -0.3317
  586MOL0     H77314  -1.244   8.955   6.156 -0.2015 -1.5761 -3.3678
  586MOL0     H77315  -1.443   8.927   6.298 -1.5763  0.8434  0.2817
  586MOL0     H77316  -1.736   9.006   6.623  0.5052 -2.9136  0.6972
  586MOL0     H77317  -1.957   8.963   6.732  1.9796 -1.9011  0.5580
  586MOL0     H77318  -2.212   8.658   6.532 -1.9646 -0.2850 -0.0183
  586MOL0     H77319  -2.279   8.798   6.446 -0.1659 -2.0161 -0.5813
  586MOL0     H77320  -2.340   8.677   6.722 -1.0279 -0.6885  0.5936
  586MOL0     H77321  -2.430   8.662   6.577  1.1871 -1.2095  0.5454
  586MOL0     H77322  -2.371   8.926   6.739 -0.6171  1.4529 -0.2793
  586MOL0     H77323  -2.530   8.844   6.715 -0.1144 -1.8566 -0.0638
  586MOL0     H77324  -2.344   9.004   6.532  1.4021 -2.5483  0.5067
  586MOL0     H77325  -2.497   8.934   6.472 -3.3104 -1.8288  2.6998
  586MOL0     H77326  -2.531   9.166   6.514 -0.5349 -0.6988  0.2533
  586MOL0     H77327  -2.470   9.146   6.674  0.6665 -0.0971 -0.2732
  586MOL0     H77328  -2.673   9.033   6.744  2.6122  2.0989  1.6792
  586MOL0     H77329  -2.727   8.987   6.577 -1.7274  1.9681 -0.9409
  586MOL0     H77330  -2.862   9.170   6.663 -1.3932 -1.0316 -1.9886
  586MOL0     H77331  -2.708   9.274   6.662 -1.6803  0.9838 -2.0328
  586MOL0     H77332  -2.709   9.208   6.408  0.8469 -0.2632  1.3320
  586MOL0     H77333  -2.817   9.334   6.465  1.3205  0.2982  1.1679
  586MOL0     H77334  -2.058   8.741   6.362 -1.0040 -0.4998  1.7411
  586MOL0     H77335  -1.838   8.811   6.274 -3.7530  0.6494 -2.0042
  586MOL0     H77336  -1.638   9.249   6.084  0.3052  0.7390 -3.6492
  586MOL0     H77337  -1.455   9.281   5.953 -1.1271 -0.1619  0.4597
  586MOL0     H77338   0.009   9.940   5.553  1.0955  0.0167  1.2216
  586MOL0     H77339   0.218   9.941   5.630 -2.2604 -1.5163 -2.1883
  586MOL0     H77340   0.611  10.241   5.666  1.2826 -0.2264 -0.4771
  586MOL0     H77341   0.845  10.205   5.672 -1.3475 -0.6335 -3.2766
  586MOL0     H77342   1.042   9.889   5.933 -2.1446 -0.4485 -1.2551
  586MOL0     H77343   0.990  10.022   6.042 -2.2204 -3.2700 -1.1422
  586MOL0     H77344   1.189  10.160   5.974 -0.7790 -1.0005 -1.7848
  586MOL0     H77345   1.235  10.011   6.053  1.5714 -1.1299 -1.7210
  586MOL0     H77346   1.228  10.046   5.758 -0.8244  2.8795  1.6962
  586MOL0     H77347   1.270   9.897   5.835 -3.0231 -0.7352  0.7045
  586MOL0     H77348   1.479  10.072   5.778 -1.0397  3.2032  0.0837
  586MOL0     H77349   1.412  10.156   5.913 -0.3589 -0.4614  0.6820
  586MOL0     H77350   1.599   9.849   6.134  0.9938 -0.1629 -0.1713
  586MOL0     H77351   0.794   9.875   5.957  1.5212  0.7950  0.5317
  586MOL0     H77352   0.550   9.908   5.929 -1.9240 -1.1686 -4.0007
  587MOL0     O77353   6.016   4.631   1.381 -0.2838 -0.2848 -0.4232
  587MOL0     C77354   6.128   4.583   1.373 -0.2429 -0.4312 -0.1734
  587MOL0     O77355   6.161   4.450   1.407  0.2128 -1.0259  0.3123
  587MOL0     C77356   6.063   4.366   1.458  0.3167  0.5069  0.5725
  587MOL0     C77357   5.926   4.376   1.436  0.3612  0.5650  0.4987
  587MOL0     C77358   5.838   4.294   1.500  0.8001  1.0190 -0.1478
  587MOL0     C77359   5.884   4.197   1.595  0.8526 -0.3530 -0.3071
  587MOL0     O77360   5.779   4.128   1.649  0.9448  0.3067 -0.3345
  587MOL0     C77361   5.816   4.021   1.740  0.2493  0.2057 -0.6288
  587MOL0     C77362   5.699   3.954   1.815  0.9043  0.1029  0.6918
  587MOL0     C77363   5.602   3.891   1.730  0.4101  0.9702 -0.5518
  587MOL0     C77364   5.493   3.832   1.816 -0.6148 -0.0177 -0.5826
  587MOL0     C77365   5.373   3.771   1.733 -0.1356 -1.3695 -0.8873
  587MOL0     C77366   5.289   3.682   1.836  0.5040  0.3698 -0.2424
  587MOL0     C77367   5.166   3.633   1.767  0.0825 -0.9587 -0.0078
  587MOL0     C77368   5.183   3.508   1.673 -0.5537 -0.7092 -0.0118
  587MOL0     N77369   5.052   3.463   1.639  0.2682  0.4378 -0.1407
  587MOL0     C77370   4.943   3.526   1.588  0.0191  0.3432 -0.9559
  587MOL0     C77371   4.861   3.424   1.546 -0.1568 -0.5489  0.2588
  587MOL0     C77372   4.732   3.444   1.472  0.3215 -0.3328  0.0360
  587MOL0     C77373   4.624   3.481   1.580  0.6007  0.0066  0.8679
  587MOL0     C77374   4.558   3.358   1.647 -0.5942 -0.0679 -0.9233
  587MOL0     C77375   4.462   3.397   1.754 -0.9793 -0.2629 -0.2567
  587MOL0     O77376   4.362   3.291   1.760  0.1505 -0.2356  0.0678
  587MOL0     C77377   4.246   3.319   1.839 -0.1514  1.1253  1.1461
  587MOL0     C77378   4.222   3.427   1.922 -0.4427  0.3624  0.5321
  587MOL0     C77379   4.107   3.438   1.989  1.0525 -0.2860  0.5711
  587MOL0     C77380   3.995   3.358   1.969  0.5526  0.4611  0.4108
  587MOL0     C77381   3.856   3.382   2.023  0.1005  0.2513  0.0488
  587MOL0     O77382   3.762   3.318   1.958 -0.0627 -0.2574 -0.7936
  587MOL0     C77383   3.628   3.341   1.987 -0.6645 -0.1077 -0.2446
  587MOL0     C77384   3.530   3.351   1.882  0.2439 -0.5230 -0.3611
  587MOL0     C77385   3.393   3.356   1.910  0.5686  0.3600  0.4248
  587MOL0     C77386   3.343   3.357   2.041 -0.6167  0.0516 -0.0775
  587MOL0     O77387   3.212   3.374   2.047  0.1119 -0.0363  0.3718
  587MOL0     C77388   3.151   3.386   2.183 -0.9467 -0.1167  0.2409
  587MOL0     C77389   3.005   3.410   2.176  1.6277  0.4208 -0.8053
  587MOL0     C77390   2.963   3.537   2.255 -0.4272 -0.0936 -0.2238
  587MOL0     C77391   2.818   3.553   2.291  0.7292  0.3599  0.4138
  587MOL0     C77392   2.713   3.593   2.188 -0.4184  0.1853  0.8454
  587MOL0     C77393   2.749   3.713   2.096  0.9514 -0.2389  0.3334
  587MOL0     C77394   2.772   3.837   2.185 -0.5201  0.3588  0.5676
  587MOL0     C77395   2.808   3.964   2.097  1.1902  0.4364  0.7224
  587MOL0    Cl77396   2.950   3.922   2.001  0.0320 -0.0908  0.1516
  587MOL0     C77397   3.434   3.355   2.142 -0.5985  0.7693 -0.7956
  587MOL0     C77398   3.575   3.341   2.119 -0.6615  0.1757  0.2369
  587MOL0     O77399   3.843   3.461   2.114  0.4047  0.1482 -0.1242
  587MOL0     C77400   4.021   3.243   1.880 -0.2486 -0.4090  0.6921
  587MOL0     C77401   4.143   3.230   1.818 -0.5067  0.7801  0.1552
  587MOL0     N77402   4.915   3.302   1.581  0.3502  0.1182 -0.0395
  587MOL0     N77403   5.041   3.327   1.615 -0.0698 -0.0369  0.2050
  587MOL0     C77404   6.021   4.184   1.619 -0.7355  0.4605 -0.0971
  587MOL0     C77405   6.109   4.262   1.545  0.3992 -0.2027 -0.7392
  587MOL0     C77406   6.236   4.670   1.329  0.1810 -0.0704 -0.0158
  587MOL0     C77407   6.360   4.613   1.317  0.3542 -0.8156 -0.2404
  587MOL0     C77408   6.460   4.695   1.269  0.2826  0.3752 -0.4788
  587MOL0     C77409   6.441   4.828   1.220 -0.3296 -0.3964  0.4845
  587MOL0     O77410   6.532   4.915   1.165  0.5835  0.3796  0.0695
  587MOL0     C77411   6.661   4.866   1.120 -0.4259  0.8384  0.0179
  587MOL0     C77412   6.740   4.985   1.089  0.5754 -0.2110  0.7143
  587MOL0     C77413   6.889   4.956   1.081  0.2998  0.0874 -0.3867
  587MOL0     C77414   6.973   5.085   1.080 -0.1281  0.3671 -0.0711
  587MOL0     C77415   6.974   5.145   0.955  0.0115 -0.4188 -0.8544
  587MOL0     C77416   6.982   5.209   0.853  0.3946  0.3016 -0.7484
  587MOL0     C77417   6.319   4.876   1.227  0.1293  0.1819  0.5419
  587MOL0     C77418   6.219   4.801   1.291 -0.5378 -0.2648 -0.1803
  587MOL0     H77419   5.875   4.444   1.368 -0.1685 -1.4996 -1.2843
  587MOL0     H77420   5.733   4.308   1.481  0.5212  0.3487  0.8209
  587MOL0     H77421   5.876   4.054   1.826  0.5128 -2.4427  0.3159
  587MOL0     H77422   5.877   3.950   1.684  2.2895  0.9790  0.4805
  587MOL0     H77423   5.642   4.030   1.869  0.6403  0.0776  0.4493
  587MOL0     H77424   5.742   3.889   1.892  0.0484 -1.7682 -0.3608
  587MOL0     H77425   5.656   3.807   1.686  1.1799  1.5710 -0.7814
  587MOL0     H77426   5.542   3.945   1.657 -3.4431 -0.7484  1.0675
  587MOL0     H77427   5.545   3.747   1.862 -0.0902  1.1955  1.1800
  587MOL0     H77428   5.467   3.904   1.894  0.7712  0.2639 -0.3405
  587MOL0     H77429   5.408   3.704   1.653  1.7525 -1.3714 -0.1110
  587MOL0     H77430   5.314   3.852   1.689 -1.0272 -1.1187  0.6793
  587MOL0     H77431   5.264   3.734   1.928 -2.6150  0.4386 -1.0245
  587MOL0     H77432   5.352   3.593   1.848  0.5887  0.3960 -0.4713
  587MOL0     H77433   5.092   3.609   1.844  0.3153 -0.9018  0.2347
  587MOL0     H77434   5.122   3.716   1.712 -0.4385 -2.2916 -1.6541
  587MOL0     H77435   5.242   3.433   1.726 -0.0155  0.3465  0.9232
  587MOL0     H77436   5.230   3.535   1.578 -1.9943 -0.6861 -0.7497
  587MOL0     H77437   4.938   3.634   1.580  2.7053  0.6859  0.7442
  587MOL0     H77438   4.706   3.351   1.419  2.2086 -2.2492  2.2582
  587MOL0     H77439   4.759   3.528   1.407  2.7565  2.4467  4.2030
  587MOL0     H77440   4.540   3.542   1.545  1.9774  2.9936  2.3578
  587MOL0     H77441   4.661   3.544   1.662 -2.5900  2.8652  0.3535
  587MOL0     H77442   4.504   3.297   1.575  1.2907 -4.6933  1.1922
  587MOL0     H77443   4.637   3.293   1.684 -1.1130 -0.5296 -0.6186
  587MOL0     H77444   4.408   3.490   1.733 -2.1111 -1.1849 -1.6538
  587MOL0     H77445   4.506   3.392   1.854 -1.9862 -1.6524  0.1507
  587MOL0     H77446   4.302   3.497   1.946 -0.9120  0.6200  1.3882
  587MOL0     H77447   4.099   3.527   2.052 -1.2580 -1.3528  1.9229
  587MOL0     H77448   3.583   3.346   1.787  3.7374  0.5382  1.3415
  587MOL0     H77449   3.333   3.361   1.820  1.9830  2.8671 -0.4699
  587MOL0     H77450   3.212   3.461   2.232  1.1897 -0.4199 -1.7771
  587MOL0     H77451   3.172   3.293   2.237 -0.6112  1.1998  2.4667
  587MOL0     H77452   2.954   3.324   2.220  2.8511 -0.0059 -0.1829
  587MOL0     H77453   2.982   3.421   2.069  0.1375  1.6567 -0.3898
  587MOL0     H77454   2.991   3.626   2.197 -3.0232 -0.1224 -1.6790
  587MOL0     H77455   3.012   3.539   2.352 -0.4676 -1.1641 -0.1705
  587MOL0     H77456   2.780   3.463   2.340  0.0907  0.6301  0.4271
  587MOL0     H77457   2.824   3.636   2.363 -1.7098  0.7096  0.2898
  587MOL0     H77458   2.616   3.613   2.234 -1.8479  1.1753 -2.3159
  587MOL0     H77459   2.691   3.504   2.127  3.1664  0.0570 -0.5083
  587MOL0     H77460   2.659   3.725   2.034 -1.5305 -1.7368  3.3418
  587MOL0     H77461   2.839   3.698   2.036  0.7487  2.6579 -0.8529
  587MOL0     H77462   2.686   3.855   2.251 -0.3221 -0.8465  1.1711
  587MOL0     H77463   2.859   3.816   2.247 -0.6132 -1.4474  0.1458
  587MOL0     H77464   2.822   4.055   2.155  1.2304  1.1481 -0.3859
  587MOL0     H77465   2.725   3.981   2.028  0.8313 -1.5684  0.5822
  587MOL0     H77466   3.397   3.363   2.244 -1.3496 -2.0850 -0.7593
  587MOL0     H77467   3.652   3.335   2.196 -0.4585  0.9464  0.1081
  587MOL0     H77468   3.937   3.184   1.846 -1.1281  0.7489  0.7997
  587MOL0     H77469   4.159   3.151   1.745  1.6767  3.0861 -2.1150
  587MOL0     H77470   6.070   4.118   1.689  1.0837  1.8446 -0.0034
  587MOL0     H77471   6.216   4.245   1.546  0.1391 -2.4071 -2.0995
  587MOL0     H77472   6.392   4.515   1.352  1.0341 -0.9098 -1.0918
  587MOL0     H77473   6.556   4.647   1.259 -0.0223  0.1803 -3.2930
  587MOL0     H77474   6.648   4.795   1.038 -0.5024  0.6528  0.1900
  587MOL0     H77475   6.709   4.805   1.197  0.6231  0.0878 -1.1983
  587MOL0     H77476   6.688   5.021   0.999 -1.1356 -1.0601  1.3195
  587MOL0     H77477   6.716   5.064   1.161 -1.1658  1.8754 -1.9364
  587MOL0     H77478   6.911   4.888   0.998  1.3878  1.5418 -1.3486
  587MOL0     H77479   6.915   4.905   1.175  0.5753  3.7296  1.6896
  587MOL0     H77480   6.950   5.170   1.145  0.6686 -0.8197  1.8507
  587MOL0     H77481   7.078   5.065   1.103  0.6627  1.8951 -2.0049
  587MOL0     H77482   6.986   5.261   0.759 -0.5323 -0.0651 -1.0016
  587MOL0     H77483   6.287   4.971   1.186  1.4845  0.4696  0.0968
  587MOL0     H77484   6.119   4.843   1.295  1.2901  4.8436  1.8099
  588MOL0     O77485  10.997   4.489   4.217 -0.0608  0.2192 -0.0902
  588MOL0     C77486  11.017   4.429   4.325 -0.6240 -0.6041 -1.0381
  588MOL0     O77487  10.931   4.352   4.388  0.3769  0.0145  0.0134
  588MOL0     C77488  10.797   4.339   4.348 -0.5623  0.4993 -0.6128
  588MOL0     C77489  10.732   4.389   4.238  0.5985 -0.0597 -0.1593
  588MOL0     C77490  10.594   4.358   4.220  0.2023  0.2685 -0.4085
  588MOL0     C77491  10.528   4.271   4.321 -0.8947  0.0312  0.0735
  588MOL0     O77492  10.404   4.231   4.316  0.5453  0.6118  0.3254
  588MOL0     C77493  10.308   4.310   4.238  0.2762 -0.4428 -0.4409
  588MOL0     C77494  10.177   4.242   4.243 -0.3607  0.3850  0.2630
  588MOL0     C77495  10.098   4.272   4.364 -0.5182  0.4647 -0.1154
  588MOL0     C77496   9.950   4.213   4.347  0.6520 -0.0657 -0.7976
  588MOL0     C77497   9.870   4.211   4.475  0.4769 -0.2333 -0.0896
  588MOL0     C77498   9.737   4.133   4.454 -0.2605 -0.3964 -0.4819
  588MOL0     C77499   9.662   4.137   4.580 -0.0138  0.4929  0.7859
  588MOL0     C77500   9.542   4.047   4.577  1.0908  1.0045 -0.1409
  588MOL0     N77501   9.505   4.019   4.718  0.1355 -0.2223  0.1512
  588MOL0     C77502   9.448   4.105   4.811 -0.8273 -0.1939  0.7766
  588MOL0     C77503   9.424   4.028   4.917  0.3758  0.1165  0.1317
  588MOL0     C77504   9.349   4.077   5.033 -0.1059  0.7843  0.4759
  588MOL0     C77505   9.197   4.093   5.014  0.1060  0.4046 -0.8557
  588MOL0     C77506   9.132   4.203   5.108  0.2907  0.5593  0.2917
  588MOL0     C77507   9.152   4.189   5.255  0.1496 -0.6845 -0.1972
  588MOL0     O77508   9.097   4.302   5.330  0.0986 -0.3286  0.5126
  588MOL0     C77509   8.964   4.295   5.369  0.5161  0.3711  0.2982
  588MOL0     C77510   8.876   4.186   5.360  0.3048 -0.7479  0.6826
  588MOL0     C77511   8.757   4.196   5.430 -0.6152 -0.2848  0.8523
  588MOL0     C77512   8.715   4.304   5.501  0.3356 -0.6066 -1.1876
  588MOL0     C77513   8.593   4.312   5.578  0.5205  0.5684  0.1630
  588MOL0     O77514   8.565   4.436   5.649  0.5172  0.9908 -0.5605
  588MOL0     C77515   8.450   4.447   5.726  0.1527  0.3192 -0.6418
  588MOL0     C77516   8.392   4.570   5.706  0.7764 -0.0486 -0.7228
  588MOL0     C77517   8.280   4.597   5.781  0.1480  0.7251  0.2185
  588MOL0     C77518   8.229   4.514   5.884 -0.1074  0.4910  0.2994
  588MOL0     O77519   8.124   4.561   5.958 -0.1586 -0.0301  0.1112
  588MOL0     C77520   8.087   4.478   6.069  0.8724 -0.3699  0.1500
  588MOL0     C77521   7.979   4.549   6.153  0.2260  0.6497 -0.4784
  588MOL0     C77522   7.967   4.468   6.285  0.9571  1.5081  0.1322
  588MOL0     C77523   7.843   4.507   6.370  0.1825 -0.3954 -1.1776
  588MOL0     C77524   7.870   4.591   6.508  0.6051  0.9345  1.4741
  588MOL0     C77525   7.743   4.655   6.562  0.7688 -0.0095  0.5131
  588MOL0     C77526   7.754   4.722   6.696 -0.4906  0.2530  0.2852
  588MOL0     C77527   7.627   4.788   6.763 -0.1681 -0.6815  0.6229
  588MOL0    Cl77528   7.609   4.947   6.681  0.1737 -0.1968  0.4901
  588MOL0     C77529   8.296   4.390   5.899 -0.5305  0.4979  0.5058
  588MOL0     C77530   8.402   4.354   5.824 -1.1313  0.2323 -0.2817
  588MOL0     O77531   8.515   4.215   5.570  0.1743 -0.7365  0.7715
  588MOL0     C77532   8.798   4.415   5.497 -0.3268 -1.4678  0.4177
  588MOL0     C77533   8.921   4.410   5.441  0.2392  0.2800 -0.0463
  588MOL0     N77534   9.466   3.903   4.896 -0.2732  0.4167  0.2372
  588MOL0     N77535   9.526   3.898   4.786  0.0916  0.1840 -0.2601
  588MOL0     C77536  10.605   4.215   4.416 -0.0730 -0.2492  1.1213
  588MOL0     C77537  10.736   4.247   4.431  0.7708  0.0705  0.2330
  588MOL0     C77538  11.152   4.440   4.384  0.1285  0.0037 -0.7368
  588MOL0     C77539  11.172   4.416   4.520  0.3482 -0.1692 -0.5386
  588MOL0     C77540  11.297   4.422   4.574 -0.9159 -0.5322  0.0025
  588MOL0     C77541  11.412   4.456   4.499  0.5351 -0.1095 -0.7888
  588MOL0     O77542  11.536   4.441   4.540  0.1894 -0.3759  0.3035
  588MOL0     C77543  11.573   4.426   4.679  0.7934  0.1335  0.3048
  588MOL0     C77544  11.726   4.464   4.688  1.4741  0.3493 -0.7627
  588MOL0     C77545  11.779   4.435   4.825 -0.6164  0.1096  0.9992
  588MOL0     C77546  11.914   4.496   4.839  0.0431 -0.9668 -1.2910
  588MOL0     C77547  11.975   4.443   4.962  0.3602  0.0649  0.5967
  588MOL0     C77548  12.027   4.390   5.058 -0.7756  0.4143  0.7566
  588MOL0     C77549  11.385   4.482   4.359 -0.5524  0.7737  0.8683
  588MOL0     C77550  11.263   4.464   4.299  0.6446 -0.3873 -0.1722
  588MOL0     H77551  10.781   4.453   4.166  2.0270 -0.6511  0.2515
  588MOL0     H77552  10.546   4.407   4.137 -0.0385  2.2924  0.8697
  588MOL0     H77553  10.333   4.331   4.133 -1.7998  0.5116 -0.7981
  588MOL0     H77554  10.302   4.410   4.281 -0.7630  0.4243 -2.4715
  588MOL0     H77555  10.183   4.138   4.209  0.2648 -0.5909  3.0629
  588MOL0     H77556  10.117   4.288   4.164 -2.0002 -0.3038  1.0481
  588MOL0     H77557  10.106   4.378   4.387  3.3909  0.3001 -0.0142
  588MOL0     H77558  10.138   4.217   4.450  0.2625  1.8192  0.4103
  588MOL0     H77559   9.895   4.267   4.270  0.7756 -1.5207 -1.9540
  588MOL0     H77560   9.945   4.109   4.312 -3.1731 -0.4380  0.4502
  588MOL0     H77561   9.845   4.312   4.508  0.1394 -0.2254 -0.3550
  588MOL0     H77562   9.933   4.166   4.552  0.1790 -2.5703 -1.1216
  588MOL0     H77563   9.757   4.030   4.426  2.4855 -0.2598  0.6841
  588MOL0     H77564   9.682   4.180   4.372 -1.1995 -0.3286  0.1675
  588MOL0     H77565   9.729   4.103   4.659 -0.2169 -0.5200  0.5387
  588MOL0     H77566   9.646   4.241   4.609  0.2371  0.5578  0.6896
  588MOL0     H77567   9.567   3.958   4.519 -0.5820  0.2542  0.2164
  588MOL0     H77568   9.458   4.102   4.532  0.0862  0.1387  0.6250
  588MOL0     H77569   9.418   4.208   4.795  1.5090  0.5607  0.8687
  588MOL0     H77570   9.399   4.171   5.058 -0.7188  1.0737  0.6452
  588MOL0     H77571   9.370   4.007   5.115  1.1271 -0.1198 -0.5522
  588MOL0     H77572   9.136   4.004   5.031 -0.8834  1.1101 -0.6339
  588MOL0     H77573   9.192   4.120   4.908  2.1867  1.5704 -0.7142
  588MOL0     H77574   9.171   4.304   5.087  0.3000  0.8251  1.5525
  588MOL0     H77575   9.023   4.205   5.097  0.1041  1.7719  1.9802
  588MOL0     H77576   9.258   4.196   5.281  0.3127 -0.8272 -0.7860
  588MOL0     H77577   9.112   4.095   5.295  3.1214 -0.4384  4.0266
  588MOL0     H77578   8.888   4.087   5.316 -1.5052 -1.9493  2.6631
  588MOL0     H77579   8.687   4.114   5.421 -1.5543  0.6225 -0.4398
  588MOL0     H77580   8.442   4.642   5.641 -1.5001  1.0219 -1.3767
  588MOL0     H77581   8.238   4.696   5.768  0.5095  1.4636  3.6748
  588MOL0     H77582   8.174   4.453   6.129  1.4484  1.9979  0.4139
  588MOL0     H77583   8.050   4.381   6.035 -0.4544  1.0581 -2.9221
  588MOL0     H77584   7.881   4.557   6.105 -0.0061  0.2625 -0.0772
  588MOL0     H77585   8.016   4.645   6.190 -2.3046  0.4699  3.0668
  588MOL0     H77586   8.056   4.480   6.348  0.9034  3.3198 -0.0898
  588MOL0     H77587   7.961   4.360   6.271 -1.3705  1.7257 -0.8950
  588MOL0     H77588   7.792   4.575   6.302  0.5353 -1.2181 -2.3025
  588MOL0     H77589   7.781   4.423   6.404  1.5716 -2.3040 -3.0192
  588MOL0     H77590   7.952   4.663   6.506 -0.2626  1.9335  1.0616
  588MOL0     H77591   7.902   4.503   6.564 -1.2988 -0.1646  0.9334
  588MOL0     H77592   7.656   4.588   6.555 -0.5144  1.7405 -1.9508
  588MOL0     H77593   7.720   4.733   6.488 -2.3683 -1.8891 -0.7318
  588MOL0     H77594   7.779   4.646   6.771 -1.1174  0.0077  0.2482
  588MOL0     H77595   7.844   4.784   6.693  0.1992 -0.7701 -1.4365
  588MOL0     H77596   7.643   4.807   6.870 -0.5179  0.0942  0.5425
  588MOL0     H77597   7.536   4.727   6.752  0.8694 -1.9791 -1.2941
  588MOL0     H77598   8.254   4.322   5.973  0.1181  0.9862  1.3438
  588MOL0     H77599   8.450   4.258   5.840 -0.9022  0.1535 -1.4037
  588MOL0     H77600   8.772   4.502   5.556 -0.5427 -2.0378  1.1766
  588MOL0     H77601   8.991   4.492   5.454 -1.0437  1.5089 -0.5467
  588MOL0     H77602  10.553   4.150   4.486 -0.3376  0.0269  1.1825
  588MOL0     H77603  10.796   4.200   4.509 -1.3808 -0.8471  1.4183
  588MOL0     H77604  11.088   4.404   4.587  3.1495 -0.6665  3.1784
  588MOL0     H77605  11.301   4.380   4.674 -0.1708  1.7635  0.9909
  588MOL0     H77606  11.560   4.319   4.695 -1.3415  0.2982 -0.0876
  588MOL0     H77607  11.502   4.487   4.735  0.3217 -0.3739  0.2612
  588MOL0     H77608  11.773   4.404   4.610 -1.0600 -1.7822 -0.7915
  588MOL0     H77609  11.738   4.572   4.676  0.4316  0.7096  1.0424
  588MOL0     H77610  11.800   4.327   4.826  2.0829  0.5427 -0.4192
  588MOL0     H77611  11.707   4.450   4.906  0.0265  0.0405  1.5886
  588MOL0     H77612  11.963   4.487   4.742  0.2854 -0.6129 -1.2059
  588MOL0     H77613  11.896   4.603   4.855  1.3846 -0.9687  0.6213
  588MOL0     H77614  12.067   4.341   5.144  1.7426 -1.6621 -1.4023
  588MOL0     H77615  11.459   4.509   4.285 -2.4246  1.2800 -0.9037
  588MOL0     H77616  11.245   4.482   4.193 -0.1081 -1.0945 -0.1778
  589MOL0     O77617  10.192   5.861   1.708  0.1727  0.1383  0.9416
  589MOL0     C77618  10.197   5.738   1.718 -1.2854  0.2900  0.0487
  589MOL0     O77619  10.095   5.666   1.762  0.5268 -0.4442  0.2022
  589MOL0     C77620   9.973   5.715   1.810 -0.3008  0.0742  0.4026
  589MOL0     C77621   9.892   5.617   1.867 -0.4103  0.5399  0.2525
  589MOL0     C77622   9.763   5.638   1.920 -0.1628  0.4177 -0.3114
  589MOL0     C77623   9.719   5.767   1.940 -0.4172 -0.0326 -0.4354
  589MOL0     O77624   9.587   5.785   1.978  0.2284 -0.7121 -0.6970
  589MOL0     C77625   9.550   5.912   2.031  0.1622 -0.1838 -0.2926
  589MOL0     C77626   9.414   5.907   2.097 -0.5158  0.0732 -0.1792
  589MOL0     C77627   9.312   5.833   2.005 -0.3373  0.6329 -0.3642
  589MOL0     C77628   9.184   5.813   2.087  0.2899 -0.3692  0.3638
  589MOL0     C77629   9.068   5.784   2.002 -0.0039  0.5801 -0.2079
  589MOL0     C77630   8.934   5.810   2.073 -0.0459  0.2607 -0.0379
  589MOL0     C77631   8.809   5.759   1.991  0.2831  0.3094 -0.1518
  589MOL0     C77632   8.781   5.833   1.862  0.6428 -0.1718  0.2421
  589MOL0     N77633   8.644   5.807   1.819  0.4920  0.3731  0.0983
  589MOL0     C77634   8.590   5.683   1.791 -0.0177  0.9899  0.4781
  589MOL0     C77635   8.454   5.694   1.808 -0.0859 -0.4827 -0.5878
  589MOL0     C77636   8.345   5.585   1.792 -0.3961  1.2360 -0.5367
  589MOL0     C77637   8.242   5.601   1.680  0.2199  0.5960 -0.5375
  589MOL0     C77638   8.148   5.483   1.683  0.6808 -0.3002  0.3149
  589MOL0     C77639   8.036   5.518   1.590 -0.7712 -0.0081  1.1063
  589MOL0     O77640   7.943   5.414   1.592  0.5051 -0.5256  0.3023
  589MOL0     C77641   7.815   5.430   1.544  0.3066 -0.4768 -0.3355
  589MOL0     C77642   7.783   5.547   1.467  0.1045  0.3200 -0.1930
  589MOL0     C77643   7.652   5.570   1.426  0.0317  0.6060  0.3631
  589MOL0     C77644   7.548   5.477   1.452 -0.5884  0.2405  0.0083
  589MOL0     C77645   7.401   5.483   1.398  0.1358 -0.5649  0.3737
  589MOL0     O77646   7.325   5.377   1.428 -0.0157 -0.2267 -0.4164
  589MOL0     C77647   7.190   5.374   1.414 -0.2534  0.2543 -0.5365
  589MOL0     C77648   7.128   5.252   1.434  0.0447  0.0509 -0.2273
  589MOL0     C77649   6.996   5.215   1.405 -0.3033 -0.7751 -0.3857
  589MOL0     C77650   6.908   5.323   1.359  0.4413 -0.6514 -0.3256
  589MOL0     O77651   6.769   5.305   1.326 -0.0643 -0.2506  0.3699
  589MOL0     C77652   6.686   5.202   1.368  0.4132 -0.3727 -0.5457
  589MOL0     C77653   6.651   5.229   1.521 -0.1521 -0.1049 -0.7838
  589MOL0     C77654   6.544   5.132   1.574  0.5128 -0.6147  0.9870
  589MOL0     C77655   6.563   4.983   1.553  0.0696  0.3736 -0.5735
  589MOL0     C77656   6.699   4.930   1.600  0.9710 -0.0073  1.2390
  589MOL0     C77657   6.730   4.949   1.750 -0.1806  0.1846 -0.5556
  589MOL0     C77658   6.870   4.890   1.778 -0.7458  0.5227  0.2419
  589MOL0     C77659   6.925   4.928   1.915 -0.0729 -0.2945  0.6758
  589MOL0    Cl77660   7.096   4.891   1.922 -0.3568  0.1966  0.1699
  589MOL0     C77661   6.966   5.455   1.352  0.5667  1.1098 -0.5573
  589MOL0     C77662   7.105   5.472   1.376 -0.7802  0.3556 -0.2006
  589MOL0     O77663   7.374   5.576   1.331 -1.1714 -0.5341 -0.2548
  589MOL0     C77664   7.587   5.375   1.534  0.2201  0.5418 -0.4342
  589MOL0     C77665   7.712   5.347   1.571 -0.3828 -0.7480 -0.4811
  589MOL0     N77666   8.426   5.823   1.845 -0.2494  0.6513 -0.2268
  589MOL0     N77667   8.532   5.886   1.849 -0.5260 -0.4744  0.2114
  589MOL0     C77668   9.799   5.876   1.898  0.2559  0.6355 -0.0523
  589MOL0     C77669   9.927   5.848   1.836  0.5574  0.0002 -0.1330
  589MOL0     C77670  10.322   5.670   1.687 -0.4256 -0.4588  0.2142
  589MOL0     C77671  10.351   5.535   1.711  1.7028  0.4556 -0.8320
  589MOL0     C77672  10.474   5.478   1.687 -0.5136 -0.3401 -0.5126
  589MOL0     C77673  10.573   5.556   1.632 -0.6063  0.5151 -0.1711
  589MOL0     O77674  10.693   5.485   1.616  0.2292  0.4989  0.3822
  589MOL0     C77675  10.806   5.561   1.583  0.0224  0.5028  0.6758
  589MOL0     C77676  10.924   5.471   1.547  0.2365  0.4388 -0.9429
  589MOL0     C77677  11.038   5.551   1.494 -0.3282 -0.4272 -0.5083
  589MOL0     C77678  11.176   5.484   1.514  0.1596  0.2848 -0.5713
  589MOL0     C77679  11.282   5.533   1.428 -0.4477  0.3178  0.0704
  589MOL0     C77680  11.377   5.581   1.372  0.2611  0.0851 -0.3771
  589MOL0     C77681  10.559   5.686   1.605  1.7013  0.2298  0.2907
  589MOL0     C77682  10.434   5.746   1.636 -0.5574  0.0927 -0.7869
  589MOL0     H77683   9.919   5.513   1.855  1.8019  0.8869  1.7255
  589MOL0     H77684   9.711   5.546   1.945 -1.7398  1.2170 -0.5357
  589MOL0     H77685   9.527   5.989   1.957  2.1215 -0.3304 -1.1075
  589MOL0     H77686   9.627   5.946   2.101 -0.5546  1.0296 -0.0560
  589MOL0     H77687   9.371   6.006   2.112  0.3716  0.9252 -2.7156
  589MOL0     H77688   9.418   5.855   2.193 -0.2228  0.3766 -0.0276
  589MOL0     H77689   9.355   5.734   1.987  1.9621  1.5779 -0.4584
  589MOL0     H77690   9.306   5.893   1.913  0.6700  1.5711  0.1542
  589MOL0     H77691   9.195   5.725   2.151  0.2930 -1.2927 -0.8675
  589MOL0     H77692   9.161   5.899   2.150 -3.0793 -0.9709  0.1254
  589MOL0     H77693   9.073   5.679   1.971  0.9293  0.1109  1.4237
  589MOL0     H77694   9.063   5.842   1.909  0.0304  1.0039  0.0559
  589MOL0     H77695   8.920   5.918   2.082  1.8858  0.5147  0.2060
  589MOL0     H77696   8.926   5.765   2.172 -5.7458  2.4147  0.9010
  589MOL0     H77697   8.818   5.656   1.954 -3.3183 -0.2527  0.1827
  589MOL0     H77698   8.718   5.762   2.052  1.1164 -0.0817  1.1644
  589MOL0     H77699   8.862   5.798   1.797 -0.1906  0.1637 -1.0175
  589MOL0     H77700   8.793   5.941   1.876 -2.5232  0.1224  1.4084
  589MOL0     H77701   8.649   5.596   1.765 -0.5636  1.0860 -1.1991
  589MOL0     H77702   8.294   5.592   1.888 -0.0854  0.9545 -0.3474
  589MOL0     H77703   8.373   5.479   1.787  2.3923  1.7419  1.5684
  589MOL0     H77704   8.283   5.612   1.580  2.2745 -2.3100 -0.1358
  589MOL0     H77705   8.171   5.680   1.708 -1.3857 -1.0403  0.2529
  589MOL0     H77706   8.193   5.390   1.646 -3.4323 -2.9366  1.2689
  589MOL0     H77707   8.115   5.456   1.784  0.4865 -1.1673  0.0266
  589MOL0     H77708   8.080   5.527   1.490  0.0847 -2.4834  1.1639
  589MOL0     H77709   7.988   5.610   1.623 -2.2844 -0.1735 -0.4776
  589MOL0     H77710   7.860   5.620   1.442  1.4088 -0.7065  0.6833
  589MOL0     H77711   7.634   5.659   1.366  1.4009  1.5213  1.2657
  589MOL0     H77712   7.187   5.165   1.461 -0.6120 -0.3395 -0.0093
  589MOL0     H77713   6.958   5.113   1.406  0.2555 -0.9763  0.1985
  589MOL0     H77714   6.751   5.115   1.352  1.2941  0.2710 -0.5250
  589MOL0     H77715   6.592   5.199   1.313  0.8645  1.8347 -1.5661
  589MOL0     H77716   6.616   5.331   1.539 -0.1275 -0.1471 -0.4848
  589MOL0     H77717   6.740   5.216   1.583 -1.2421  0.0805  0.9120
  589MOL0     H77718   6.448   5.168   1.536  1.4004  0.5534 -0.2611
  589MOL0     H77719   6.537   5.142   1.683 -1.0272  0.5411  0.8259
  589MOL0     H77720   6.480   4.933   1.604  2.8914 -2.1006  1.9935
  589MOL0     H77721   6.543   4.958   1.448  0.0082 -1.7441 -0.0984
  589MOL0     H77722   6.767   4.972   1.525  1.1120 -2.6617 -0.2309
  589MOL0     H77723   6.703   4.824   1.574 -0.3915  0.3974 -0.9392
  589MOL0     H77724   6.660   4.889   1.810 -0.3895  1.6621  0.7369
  589MOL0     H77725   6.714   5.051   1.786 -0.9083 -0.8197  2.2312
  589MOL0     H77726   6.861   4.782   1.770 -0.8814  0.6185 -1.2563
  589MOL0     H77727   6.952   4.917   1.710  0.3306 -3.0066 -0.0388
  589MOL0     H77728   6.863   4.871   1.984 -2.9212 -0.0681 -1.5030
  589MOL0     H77729   6.911   5.033   1.941  0.2465 -0.6410  2.3435
  589MOL0     H77730   6.904   5.536   1.316  0.6595  1.1594 -0.6080
  589MOL0     H77731   7.142   5.573   1.362  0.7389 -0.0965  0.3356
  589MOL0     H77732   7.516   5.301   1.570  0.8817  0.1807  0.1651
  589MOL0     H77733   7.733   5.260   1.632 -3.1299 -2.8551 -2.2575
  589MOL0     H77734   9.754   5.975   1.895  0.6380  0.8506 -3.7731
  589MOL0     H77735   9.983   5.933   1.799 -1.7088  0.9364 -1.6383
  589MOL0     H77736  10.274   5.476   1.759  1.1241  0.2173 -1.9983
  589MOL0     H77737  10.500   5.377   1.717  1.0018  0.3030  0.4592
  589MOL0     H77738  10.843   5.615   1.671 -1.6216  0.6688  1.2865
  589MOL0     H77739  10.799   5.625   1.495 -0.3566 -1.2288 -0.6203
  589MOL0     H77740  10.949   5.407   1.632 -1.5905 -1.2994 -1.6384
  589MOL0     H77741  10.887   5.407   1.467  0.2508  1.5916 -1.8948
  589MOL0     H77742  11.039   5.647   1.546  1.2744 -0.1363 -1.0294
  589MOL0     H77743  11.030   5.566   1.386  1.0335  2.6478 -0.2947
  589MOL0     H77744  11.201   5.482   1.621 -0.9735  1.3439 -0.2637
  589MOL0     H77745  11.160   5.378   1.491 -0.5405  0.5673 -1.4605
  589MOL0     H77746  11.462   5.624   1.324  0.1119 -3.4093 -4.2514
  589MOL0     H77747  10.641   5.743   1.562  3.3842 -1.1542  1.5146
  589MOL0     H77748  10.412   5.851   1.618  0.4705  0.5475  0.5043
  590MOL0     O77749   8.932   4.732   6.969  0.3477 -0.0138 -0.4145
  590MOL0     C77750   9.031   4.684   7.014 -0.1776 -0.6116 -0.2211
  590MOL0     O77751   9.058   4.671   7.145  0.4647 -0.1220 -0.4021
  590MOL0     C77752   8.966   4.695   7.247  0.6722 -0.2188 -0.1465
  590MOL0     C77753   8.993   4.620   7.364 -0.4142 -0.5367  0.5041
  590MOL0     C77754   8.908   4.624   7.472  0.2883  0.2510 -0.3386
  590MOL0     C77755   8.801   4.712   7.462  0.1793  0.0576 -0.3612
  590MOL0     O77756   8.718   4.733   7.569 -0.2582 -0.6732  0.0453
  590MOL0     C77757   8.768   4.703   7.697 -0.1167 -0.7590 -0.8397
  590MOL0     C77758   8.654   4.729   7.794 -0.0290 -0.2520  0.1751
  590MOL0     C77759   8.683   4.694   7.936 -0.2207  0.4699 -0.7672
  590MOL0     C77760   8.597   4.771   8.035 -0.1106  0.6198 -0.1358
  590MOL0     C77761   8.443   4.757   8.012 -0.1634  0.9894  0.3490
  590MOL0     C77762   8.394   4.614   7.987 -0.5357 -0.4148 -0.4268
  590MOL0     C77763   8.242   4.612   7.968  0.2688 -1.4703  0.4642
  590MOL0     C77764   8.187   4.468   7.962 -1.2437 -0.2015  0.8282
  590MOL0     N77765   8.047   4.459   8.010 -0.7591 -0.2127 -0.2201
  590MOL0     C77766   8.001   4.468   8.144  0.9007 -0.4547 -0.2441
  590MOL0     C77767   7.862   4.464   8.131  0.4204  0.5730  0.3375
  590MOL0     C77768   7.766   4.437   8.244  0.0232 -0.2890  0.0985
  590MOL0     C77769   7.640   4.524   8.233  0.1553 -0.0199 -0.0892
  590MOL0     C77770   7.655   4.661   8.171  1.0014 -0.1634 -0.7992
  590MOL0     C77771   7.529   4.746   8.180 -1.2745  0.4811 -0.8555
  590MOL0     O77772   7.419   4.696   8.109  0.4634  0.0273 -0.1209
  590MOL0     C77773   7.313   4.788   8.088 -0.3743 -0.3377 -0.1959
  590MOL0     C77774   7.207   4.724   8.031  0.0966  0.4963  0.4857
  590MOL0     C77775   7.090   4.799   8.012 -0.6741  0.4458  0.4812
  590MOL0     C77776   7.082   4.932   8.040 -0.6777  0.6096 -0.5883
  590MOL0     C77777   6.958   5.001   8.019  0.1190 -0.1022 -0.3111
  590MOL0     O77778   6.874   4.944   7.922 -0.6247 -0.0125 -0.0160
  590MOL0     C77779   6.748   5.000   7.916  1.1305 -0.2374  0.5600
  590MOL0     C77780   6.682   4.995   7.786 -0.1060  0.9058 -0.4829
  590MOL0     C77781   6.551   5.042   7.762 -0.3497  0.4415  0.5210
  590MOL0     C77782   6.473   5.069   7.872  0.7795 -0.5813 -0.2472
  590MOL0     O77783   6.340   5.101   7.839 -0.7486 -0.2171  0.1212
  590MOL0     C77784   6.248   5.141   7.944  0.5060  0.0689 -0.3619
  590MOL0     C77785   6.113   5.172   7.886  0.0729 -0.4225  0.1130
  590MOL0     C77786   6.011   5.209   7.999  0.9586 -0.8033  0.6822
  590MOL0     C77787   5.865   5.209   7.947 -0.1467  0.2973 -0.0064
  590MOL0     C77788   5.778   5.285   8.040 -0.0000  0.1207  0.1331
  590MOL0     C77789   5.646   5.326   7.958  0.0111 -0.5469  0.0816
  590MOL0     C77790   5.541   5.399   8.045  0.9052  0.4829  0.5775
  590MOL0     C77791   5.410   5.394   7.966 -0.3339 -0.1658 -0.3860
  590MOL0    Cl77792   5.408   5.533   7.850 -0.0442  0.0809 -0.2558
  590MOL0     C77793   6.529   5.070   8.007  0.3823  0.4861  0.1086
  590MOL0     C77794   6.664   5.033   8.030 -0.4935  0.5539  0.1758
  590MOL0     O77795   6.943   5.110   8.075  0.4794 -0.3954 -0.2714
  590MOL0     C77796   7.189   4.988   8.111  0.3957  0.7510  0.0455
  590MOL0     C77797   7.306   4.920   8.139 -0.2154 -0.1199 -0.6011
  590MOL0     N77798   7.830   4.463   8.002 -0.2071 -0.3340  0.2437
  590MOL0     N77799   7.934   4.470   7.930 -0.3837  0.5196  0.6879
  590MOL0     C77800   8.759   4.779   7.346 -0.9565  0.1367  0.1153
  590MOL0     C77801   8.845   4.764   7.239 -0.3814  0.6387  0.4699
  590MOL0     C77802   9.130   4.631   6.920 -0.2282 -0.0701  1.1877
  590MOL0     C77803   9.109   4.651   6.780  0.0017  0.4870 -0.8429
  590MOL0     C77804   9.181   4.575   6.686  0.1471 -0.9316  0.3060
  590MOL0     C77805   9.277   4.475   6.727  0.2285 -0.4779 -0.4656
  590MOL0     O77806   9.352   4.401   6.639  0.1841 -0.9694 -1.3328
  590MOL0     C77807   9.339   4.425   6.496  0.1802  0.7138 -0.1775
  590MOL0     C77808   9.422   4.315   6.414 -0.0966 -0.7897 -0.1929
  590MOL0     C77809   9.552   4.293   6.491 -0.0228  0.0877  0.1870
  590MOL0     C77810   9.670   4.233   6.415 -1.1682 -0.3976 -0.5608
  590MOL0     C77811   9.627   4.136   6.317  0.4070  0.3256  0.0983
  590MOL0     C77812   9.601   4.048   6.234  1.0346 -0.4096  0.0373
  590MOL0     C77813   9.285   4.457   6.861 -1.1792 -0.3572 -0.5032
  590MOL0     C77814   9.226   4.534   6.962  0.5019 -0.5751 -0.0528
  590MOL0     H77815   9.074   4.548   7.360  0.4428  0.2712  2.3298
  590MOL0     H77816   8.931   4.563   7.559  1.0630  1.0235  0.0086
  590MOL0     H77817   8.849   4.775   7.711 -0.7599 -0.2711  0.5724
  590MOL0     H77818   8.806   4.601   7.705 -2.0717 -1.4391  0.7019
  590MOL0     H77819   8.570   4.672   7.755 -0.8437  1.7035 -1.0827
  590MOL0     H77820   8.620   4.833   7.794 -1.5349 -0.7138 -1.1889
  590MOL0     H77821   8.787   4.719   7.961  0.2796 -3.2806  1.7335
  590MOL0     H77822   8.672   4.587   7.957 -1.6771 -0.1999 -4.2031
  590MOL0     H77823   8.622   4.737   8.136 -0.1928 -0.0289 -0.3294
  590MOL0     H77824   8.621   4.878   8.032  1.8513  0.2146 -0.3416
  590MOL0     H77825   8.427   4.818   7.923  0.4971  0.3467 -0.2231
  590MOL0     H77826   8.398   4.806   8.099  1.5738 -0.0862  1.9432
  590MOL0     H77827   8.403   4.545   8.071 -5.3501 -1.8092 -0.7213
  590MOL0     H77828   8.436   4.562   7.900  0.1330 -0.1558 -0.2659
  590MOL0     H77829   8.185   4.658   8.049  0.4231  0.5247 -0.5007
  590MOL0     H77830   8.225   4.660   7.871  2.6643  0.5876  0.9527
  590MOL0     H77831   8.237   4.406   8.036 -2.5301 -2.5594 -0.1657
  590MOL0     H77832   8.192   4.424   7.862 -0.7127 -0.6002  1.0298
  590MOL0     H77833   8.047   4.472   8.242 -0.3042 -3.2538  0.5364
  590MOL0     H77834   7.816   4.463   8.338  0.4171 -0.5608 -0.0342
  590MOL0     H77835   7.744   4.331   8.231 -0.2994 -0.0475 -1.4802
  590MOL0     H77836   7.586   4.525   8.328  1.0090  0.0390  0.4073
  590MOL0     H77837   7.570   4.471   8.168 -0.6714  0.5763  0.2923
  590MOL0     H77838   7.737   4.714   8.220 -0.6970  1.8279  0.0014
  590MOL0     H77839   7.681   4.660   8.064  1.6110  2.7118 -0.7560
  590MOL0     H77840   7.576   4.839   8.145  2.1330  0.6635  3.3936
  590MOL0     H77841   7.505   4.772   8.283  2.0084 -1.2020  0.4821
  590MOL0     H77842   7.220   4.619   8.006 -1.9189  0.7652 -2.0997
  590MOL0     H77843   7.006   4.746   7.970  0.3153  0.7856 -2.1278
  590MOL0     H77844   6.742   4.955   7.706 -1.2300  1.0485 -1.4168
  590MOL0     H77845   6.507   5.036   7.663 -1.3738 -0.4873  1.0043
  590MOL0     H77846   6.293   5.234   7.980  1.5462  0.6237 -2.9263
  590MOL0     H77847   6.222   5.070   8.023 -1.7741  0.5899 -0.5652
  590MOL0     H77848   6.061   5.091   7.833 -3.9805  2.6233 -1.1149
  590MOL0     H77849   6.118   5.260   7.822 -1.1512 -0.5924 -0.2498
  590MOL0     H77850   6.025   5.312   8.033 -4.4248 -0.0302  1.4809
  590MOL0     H77851   6.012   5.149   8.090  0.2167 -1.2984  0.3793
  590MOL0     H77852   5.859   5.247   7.845  0.4828  0.4550  0.0108
  590MOL0     H77853   5.825   5.107   7.950 -0.5627  0.4369 -0.6099
  590MOL0     H77854   5.826   5.376   8.076 -2.3546  0.9496  1.4524
  590MOL0     H77855   5.757   5.225   8.129 -0.1761  2.6891  1.9424
  590MOL0     H77856   5.597   5.239   7.911 -0.0241  0.5042 -1.9156
  590MOL0     H77857   5.672   5.390   7.874 -0.4896 -0.9450 -0.3919
  590MOL0     H77858   5.536   5.344   8.139 -1.6479 -1.8067 -0.7656
  590MOL0     H77859   5.561   5.504   8.066 -4.3021  1.5327  1.5989
  590MOL0     H77860   5.321   5.420   8.023 -2.7985  2.3297 -4.8322
  590MOL0     H77861   5.384   5.300   7.917 -1.4084  1.1838 -2.5623
  590MOL0     H77862   6.465   5.092   8.091 -1.6985  0.9536 -1.5178
  590MOL0     H77863   6.697   5.036   8.133 -2.3713  0.3559  0.8199
  590MOL0     H77864   7.167   5.086   8.150 -2.5894  0.3141 -0.3330
  590MOL0     H77865   7.382   4.971   8.198 -2.0499  1.1054  0.7907
  590MOL0     H77866   8.675   4.846   7.339 -0.6186  0.8057  1.8077
  590MOL0     H77867   8.814   4.809   7.145 -1.0684 -0.2652  0.2491
  590MOL0     H77868   9.021   4.704   6.746 -2.9273 -1.8932  2.2782
  590MOL0     H77869   9.157   4.612   6.587 -3.0025  2.2155  1.9949
  590MOL0     H77870   9.386   4.520   6.470  2.3720 -0.0567  0.6804
  590MOL0     H77871   9.236   4.419   6.462  0.8295 -1.2856 -2.0727
  590MOL0     H77872   9.365   4.222   6.419 -0.7935 -0.4691  5.5887
  590MOL0     H77873   9.442   4.360   6.317 -0.5963 -1.8474 -0.8052
  590MOL0     H77874   9.527   4.230   6.576  1.4003  0.2691  0.7620
  590MOL0     H77875   9.589   4.390   6.527  0.8052 -0.8114  1.8597
  590MOL0     H77876   9.721   4.319   6.370 -0.1311  0.8301  2.6432
  590MOL0     H77877   9.726   4.182   6.494  0.0755 -0.9893 -1.7845
  590MOL0     H77878   9.582   3.996   6.142  0.4194 -1.9719  0.9915
  590MOL0     H77879   9.356   4.382   6.894  0.0801  1.1887  0.4823
  590MOL0     H77880   9.243   4.512   7.067 -0.6362  2.3938  0.8713
  591MOL0     O77881   3.527  11.082   2.328 -0.0293 -0.8118  0.1659
  591MOL0     C77882   3.633  11.055   2.276 -0.1602 -0.1805 -0.0994
  591MOL0     O77883   3.652  11.002   2.151  0.7015 -0.4442 -0.0708
  591MOL0     C77884   3.546  10.949   2.076 -0.6126 -0.5066  0.0008
  591MOL0     C77885   3.544  10.809   2.048  0.2276 -1.2923 -0.0871
  591MOL0     C77886   3.442  10.755   1.970 -0.4307  0.1820 -0.7924
  591MOL0     C77887   3.344  10.835   1.911 -0.1511  0.1284 -0.9489
  591MOL0     O77888   3.247  10.790   1.831 -0.1744 -0.6205 -0.1052
  591MOL0     C77889   3.229  10.640   1.814 -0.2334 -0.3934  0.2774
  591MOL0     C77890   3.111  10.620   1.711  0.1272  0.3380  0.0522
  591MOL0     C77891   2.971  10.643   1.763  0.2565 -1.3833 -0.1144
  591MOL0     C77892   2.864  10.566   1.674 -1.1495 -0.2265  1.1782
  591MOL0     C77893   2.717  10.620   1.695  0.0900 -0.2762 -0.6993
  591MOL0     C77894   2.647  10.588   1.821 -0.0918 -0.1953 -0.4277
  591MOL0     C77895   2.499  10.627   1.810  0.0980  0.1408 -0.4902
  591MOL0     C77896   2.420  10.531   1.727  0.2181 -0.8535  0.1569
  591MOL0     N77897   2.281  10.519   1.778 -0.2784  0.1519  0.0679
  591MOL0     C77898   2.208  10.629   1.809  0.5759  0.2136 -0.0657
  591MOL0     C77899   2.087  10.574   1.839  0.2224 -0.2264  0.5142
  591MOL0     C77900   1.962  10.657   1.867 -0.0135  0.4557  0.5633
  591MOL0     C77901   1.938  10.659   2.015  0.1914 -0.5891  0.2471
  591MOL0     C77902   1.805  10.729   2.048  0.1264 -0.2322 -0.0024
  591MOL0     C77903   1.742  10.699   2.189 -0.5756  0.1984  0.4518
  591MOL0     O77904   1.612  10.761   2.182  0.4170  0.8573 -0.2474
  591MOL0     C77905   1.503  10.708   2.252 -0.2673  0.8669  0.0853
  591MOL0     C77906   1.385  10.699   2.180 -0.3557  0.0170 -0.0273
  591MOL0     C77907   1.267  10.665   2.245  0.5162 -0.1454 -0.2521
  591MOL0     C77908   1.261  10.619   2.380 -0.6255 -0.4906 -1.2158
  591MOL0     C77909   1.135  10.581   2.443  0.1715  0.6832 -0.6580
  591MOL0     O77910   1.143  10.566   2.582 -0.3741  1.0889  0.6254
  591MOL0     C77911   1.028  10.540   2.649 -0.5387  0.2032 -0.2188
  591MOL0     C77912   0.989  10.623   2.758  0.6668 -0.5405  0.7862
  591MOL0     C77913   0.871  10.596   2.834 -1.2333 -1.0601  0.0128
  591MOL0     C77914   0.807  10.470   2.804 -0.0180 -0.6058 -0.2573
  591MOL0     O77915   0.698  10.458   2.880  0.6122  0.2926  0.0660
  591MOL0     C77916   0.637  10.331   2.891 -0.1100 -1.0273  0.6527
  591MOL0     C77917   0.491  10.363   2.943 -0.7271  0.7443  0.3009
  591MOL0     C77918   0.428  10.229   2.971 -0.5870 -0.5440 -0.4248
  591MOL0     C77919   0.295  10.249   3.043  0.0321  1.0580  0.5092
  591MOL0     C77920   0.219  10.112   3.060 -0.6630  0.6866 -0.0946
  591MOL0     C77921   0.113  10.112   3.161 -0.5688 -0.3797 -0.2957
  591MOL0     C77922  -0.019  10.179   3.122 -0.2155 -0.7217  0.0155
  591MOL0     C77923  -0.124  10.087   3.073  0.5465  0.1560  0.2007
  591MOL0    Cl77924  -0.197   9.978   3.186 -0.1774  0.1862 -1.0662
  591MOL0     C77925   0.852  10.384   2.708  0.3445 -1.0401 -0.6418
  591MOL0     C77926   0.964  10.420   2.638 -0.0709  0.3325 -0.5779
  591MOL0     O77927   1.028  10.570   2.376 -0.1659  0.3814 -0.1179
  591MOL0     C77928   1.378  10.613   2.449  0.5952  0.0147 -0.4478
  591MOL0     C77929   1.502  10.645   2.378  0.5318 -0.4521  0.0120
  591MOL0     N77930   2.092  10.440   1.842  0.4082  0.9951 -0.0379
  591MOL0     N77931   2.213  10.405   1.802  0.3174 -0.4204  0.1288
  591MOL0     C77932   3.367  10.973   1.927 -0.0683  0.0341  0.4115
  591MOL0     C77933   3.467  11.031   1.999  0.3519  0.1298 -0.5607
  591MOL0     C77934   3.751  11.084   2.357 -0.1164 -0.3188  0.9734
  591MOL0     C77935   3.754  11.122   2.487  0.3094 -0.9734 -1.0880
  591MOL0     C77936   3.873  11.131   2.559 -0.7632  1.1662 -0.7019
  591MOL0     C77937   3.990  11.099   2.496 -0.5142  0.0449 -0.3491
  591MOL0     O77938   4.116  11.118   2.553  0.1434 -0.5771  0.1848
  591MOL0     C77939   4.123  11.185   2.678 -1.1464 -0.0420  0.6110
  591MOL0     C77940   4.272  11.198   2.718  0.2194  0.1562  0.9622
  591MOL0     C77941   4.284  11.183   2.872 -0.2372  0.6527  0.6366
  591MOL0     C77942   4.427  11.210   2.903 -0.0606  0.1247  0.2626
  591MOL0     C77943   4.487  11.079   2.920 -0.2789 -0.2493 -0.4137
  591MOL0     C77944   4.532  10.971   2.940  0.0969  0.5666 -0.7563
  591MOL0     C77945   3.993  11.062   2.365  0.4364 -0.8826  0.3355
  591MOL0     C77946   3.875  11.068   2.288 -0.7036 -0.4399  0.1135
  591MOL0     H77947   3.607  10.755   2.117 -0.0713 -1.3633  0.1322
  591MOL0     H77948   3.449  10.648   1.957 -0.6491  0.1014 -0.2688
  591MOL0     H77949   3.204  10.594   1.910 -2.4303  0.4713  0.1911
  591MOL0     H77950   3.318  10.595   1.768  0.1225 -0.2181  0.7943
  591MOL0     H77951   3.106  10.517   1.674  0.4302  0.2178  0.3446
  591MOL0     H77952   3.124  10.688   1.626 -1.3128 -0.3706 -0.7811
  591MOL0     H77953   2.954  10.750   1.746  1.8668 -0.8689  1.1940
  591MOL0     H77954   2.967  10.616   1.869  3.9928  1.0324  0.8575
  591MOL0     H77955   2.896  10.565   1.570  2.0941 -1.6623  2.0461
  591MOL0     H77956   2.873  10.458   1.689 -1.7864 -0.3487  0.6845
  591MOL0     H77957   2.657  10.575   1.616 -0.5946  1.9566 -1.5078
  591MOL0     H77958   2.711  10.722   1.656  1.8195 -0.0685 -0.5115
  591MOL0     H77959   2.700  10.642   1.900  1.4888 -2.4068  0.1400
  591MOL0     H77960   2.661  10.485   1.854 -2.0330 -0.2206  0.4070
  591MOL0     H77961   2.460  10.611   1.911  2.4235  1.5155  0.6966
  591MOL0     H77962   2.493  10.733   1.782  5.3483  1.3629  1.9136
  591MOL0     H77963   2.465  10.432   1.725  0.4327 -0.7617  0.3082
  591MOL0     H77964   2.413  10.577   1.628  2.4400 -0.7127  0.0116
  591MOL0     H77965   2.235  10.734   1.806  0.1425  0.3144 -1.8592
  591MOL0     H77966   1.878  10.617   1.809  0.2711 -0.0690  0.5030
  591MOL0     H77967   1.983  10.762   1.842 -1.2603  0.6740  0.3656
  591MOL0     H77968   2.024  10.705   2.065 -1.3095  3.5404 -0.5393
  591MOL0     H77969   1.940  10.555   2.047 -0.0503 -0.3881  0.9226
  591MOL0     H77970   1.827  10.836   2.039  1.2670 -0.5887 -2.6135
  591MOL0     H77971   1.730  10.717   1.970  0.8468 -2.1946 -0.4538
  591MOL0     H77972   1.806  10.745   2.266  3.2786 -1.3372 -1.5501
  591MOL0     H77973   1.731  10.592   2.207 -0.9372  0.3196  0.9754
  591MOL0     H77974   1.395  10.728   2.076 -0.3925  0.0185 -0.0307
  591MOL0     H77975   1.168  10.665   2.199 -0.3546 -1.6291  1.4823
  591MOL0     H77976   1.044  10.715   2.778 -2.3067  1.5081  0.2281
  591MOL0     H77977   0.824  10.667   2.901  1.3641 -1.0562  2.0096
  591MOL0     H77978   0.699  10.267   2.955 -1.8547 -1.5921  1.8634
  591MOL0     H77979   0.630  10.274   2.798 -1.5842 -0.1701  0.1964
  591MOL0     H77980   0.435  10.418   2.868  0.7483  0.1483 -1.3076
  591MOL0     H77981   0.503  10.412   3.040 -0.0149  0.2478  0.4811
  591MOL0     H77982   0.491  10.165   3.033  1.7527 -0.3702 -2.5019
  591MOL0     H77983   0.415  10.173   2.878 -0.5596 -0.8792 -0.2325
  591MOL0     H77984   0.322  10.294   3.139  1.8250 -0.8528  0.9870
  591MOL0     H77985   0.238  10.319   2.980  1.3277  0.9243 -0.8649
  591MOL0     H77986   0.295  10.039   3.088 -2.1302 -0.2105  1.7967
  591MOL0     H77987   0.172  10.091   2.963  0.8485  0.8226 -0.8821
  591MOL0     H77988   0.150  10.158   3.252 -2.3930 -2.3740  1.5744
  591MOL0     H77989   0.094  10.006   3.183 -0.4999 -0.4894 -0.7537
  591MOL0     H77990  -0.053  10.228   3.213  0.8762  0.6011 -0.2631
  591MOL0     H77991  -0.004  10.246   3.037  2.6327 -0.4074  0.6893
  591MOL0     H77992  -0.069  10.032   2.996  1.8044  1.3322  0.2071
  591MOL0     H77993  -0.207  10.141   3.027  1.5275 -0.6513 -2.7126
  591MOL0     H77994   0.796  10.292   2.690 -0.0247 -0.9591  0.0594
  591MOL0     H77995   0.986  10.343   2.565  0.6066  0.6796 -0.7546
  591MOL0     H77996   1.380  10.577   2.551 -0.2363  0.8261 -0.1421
  591MOL0     H77997   1.597  10.663   2.427  1.1143 -3.1391  0.0224
  591MOL0     H77998   3.293  11.044   1.891 -1.6600 -1.1435  1.2450
  591MOL0     H77999   3.474  11.138   2.013  0.1354 -0.0160  0.8230
  591MOL0     H78000   3.664  11.156   2.537 -0.3408 -1.8162 -1.6563
  591MOL0     H78001   3.865  11.169   2.660 -2.0410  1.6091 -0.9440
  591MOL0     H78002   4.068  11.121   2.747 -1.8021  1.9490  2.0021
  591MOL0     H78003   4.084  11.287   2.664  1.1732  1.0140  1.3749
  591MOL0     H78004   4.328  11.120   2.666  0.7701  1.4319 -0.4002
  591MOL0     H78005   4.305  11.296   2.685 -1.9819  0.3874 -0.7470
  591MOL0     H78006   4.262  11.085   2.916  1.1583  0.5042  1.0599
  591MOL0     H78007   4.221  11.253   2.927 -2.4373 -0.7481  0.0021
  591MOL0     H78008   4.481  11.272   2.831 -0.5326 -0.5335 -0.6742
  591MOL0     H78009   4.440  11.248   3.005  0.4154 -0.2946  0.3600
  591MOL0     H78010   4.569  10.872   2.960  1.0055  0.6975 -1.7071
  591MOL0     H78011   4.080  11.034   2.306 -0.9930 -1.1770 -1.7416
  591MOL0     H78012   3.879  11.055   2.180  0.4877 -0.3698  0.1345
  592MOL0     O78013   8.176   8.764   7.286  0.2159  0.1610  0.2825
  592MOL0     C78014   8.115   8.668   7.330 -0.9071  0.5755  0.1321
  592MOL0     O78015   8.170   8.564   7.407  0.0789 -0.2577 -0.4711
  592MOL0     C78016   8.298   8.572   7.450 -0.0243  0.7028 -0.7268
  592MOL0     C78017   8.377   8.688   7.477  0.7091 -0.5154  0.0847
  592MOL0     C78018   8.508   8.685   7.534  0.7015  0.2102  0.8099
  592MOL0     C78019   8.564   8.561   7.564 -0.1164 -0.0364  0.1862
  592MOL0     O78020   8.690   8.564   7.615  0.3149  0.0284 -0.9409
  592MOL0     C78021   8.751   8.440   7.668  0.0267  0.2725  0.5705
  592MOL0     C78022   8.820   8.375   7.557  0.2123  0.3269  0.1164
  592MOL0     C78023   8.888   8.237   7.593 -0.3580 -0.4720  0.6891
  592MOL0     C78024   8.993   8.247   7.706 -0.2040 -0.3781 -0.6870
  592MOL0     C78025   9.094   8.133   7.705 -0.5581  0.0899  0.5330
  592MOL0     C78026   9.207   8.158   7.797  1.0122 -0.2357  0.7659
  592MOL0     C78027   9.310   8.045   7.811  0.8184  0.1486 -0.3500
  592MOL0     C78028   9.383   8.014   7.681  0.1894  0.2229  0.4288
  592MOL0     N78029   9.494   7.918   7.675  0.7752  0.8925  0.0497
  592MOL0     C78030   9.588   7.898   7.575  0.3470 -0.5314 -0.2226
  592MOL0     C78031   9.667   7.789   7.609  0.4195 -0.3345 -0.1248
  592MOL0     C78032   9.788   7.728   7.538  0.0258 -0.2866 -0.4400
  592MOL0     C78033   9.914   7.790   7.594 -0.4318  0.5352  0.5633
  592MOL0     C78034   9.938   7.765   7.739 -0.3370 -0.4262  0.6229
  592MOL0     C78035   9.891   7.885   7.828 -0.0430 -0.9664  0.1507
  592MOL0     O78036   9.979   7.999   7.816 -0.0771 -0.0888 -0.2692
  592MOL0     C78037  10.115   7.985   7.849  0.4491  0.0427 -0.2005
  592MOL0     C78038  10.171   7.903   7.947  0.4694  0.0860  0.1893
  592MOL0     C78039  10.306   7.875   7.956  0.3435 -0.1300 -0.0965
  592MOL0     C78040  10.401   7.958   7.891 -0.5028 -0.0530 -0.2943
  592MOL0     C78041  10.541   7.949   7.922 -0.0060  0.2005 -0.5352
  592MOL0     O78042  10.618   8.038   7.848  0.0882 -0.7347  0.2848
  592MOL0     C78043  10.760   8.035   7.855  0.1486 -0.1475 -0.8532
  592MOL0     C78044  10.826   8.142   7.782  0.1715  0.6629 -0.2037
  592MOL0     C78045  10.968   8.153   7.785 -0.1535  0.8324 -0.7511
  592MOL0     C78046  11.056   8.067   7.854  0.3411  0.6239  0.5542
  592MOL0     O78047  11.188   8.095   7.849 -0.4606  0.1032 -0.7554
  592MOL0     C78048  11.264   7.973   7.856  0.1798  0.3204 -0.2524
  592MOL0     C78049  11.402   8.009   7.818 -0.9719 -0.7155  0.5776
  592MOL0     C78050  11.486   7.890   7.844  0.4807  0.4691 -0.4364
  592MOL0     C78051  11.630   7.913   7.823 -0.9560 -0.6672  0.1783
  592MOL0     C78052  11.728   7.805   7.860  0.7976 -0.2954  0.2012
  592MOL0     C78053  11.722   7.671   7.787  0.4560 -0.3818 -0.0517
  592MOL0     C78054  11.824   7.567   7.853 -0.1287 -0.5125  0.3736
  592MOL0     C78055  11.975   7.582   7.833 -0.4735 -0.4500  0.4986
  592MOL0    Cl78056  12.045   7.723   7.921 -0.8134  0.1829 -0.3290
  592MOL0     C78057  10.992   7.972   7.937 -1.5304 -0.0628 -0.2709
  592MOL0     C78058  10.851   7.947   7.931  0.3725  0.1793  0.5624
  592MOL0     O78059  10.577   7.879   8.015  0.0234 -0.7863  0.1902
  592MOL0     C78060  10.345   8.051   7.796 -0.4948  0.1592  0.1632
  592MOL0     C78061  10.212   8.059   7.781  1.4601  1.1569 -0.5404
  592MOL0     N78062   9.611   7.741   7.728 -0.2583  0.5081 -0.0109
  592MOL0     N78063   9.520   7.820   7.769 -0.1412 -0.2028 -0.2794
  592MOL0     C78064   8.487   8.446   7.536  0.7153  0.7599 -0.5342
  592MOL0     C78065   8.360   8.449   7.476 -0.8965 -0.3906 -0.0788
  592MOL0     C78066   7.972   8.665   7.311 -0.1846  0.4627  0.3993
  592MOL0     C78067   7.884   8.614   7.409 -0.4265 -0.0163 -0.1007
  592MOL0     C78068   7.744   8.609   7.392 -0.1014  0.2576 -0.2622
  592MOL0     C78069   7.684   8.647   7.268 -0.1130 -0.6577 -0.1772
  592MOL0     O78070   7.546   8.636   7.254 -0.9004  0.7497  0.3357
  592MOL0     C78071   7.487   8.669   7.133  1.4154 -0.4915 -0.5334
  592MOL0     C78072   7.333   8.630   7.133 -0.1863 -0.4876 -0.5304
  592MOL0     C78073   7.266   8.665   6.994 -0.3008 -0.4219 -0.6360
  592MOL0     C78074   7.200   8.796   7.004  0.0921 -0.6552  0.2172
  592MOL0     C78075   7.138   8.842   6.874  0.0789 -0.5611 -0.1750
  592MOL0     C78076   7.099   8.904   6.776 -0.6867 -0.1867  0.2652
  592MOL0     C78077   7.774   8.687   7.167  0.5674 -0.8878 -0.5417
  592MOL0     C78078   7.912   8.698   7.189 -0.6895 -0.1985 -0.3357
  592MOL0     H78079   8.353   8.794   7.471  2.0566 -0.1160  1.3317
  592MOL0     H78080   8.564   8.776   7.554  0.1583  1.3662 -2.2679
  592MOL0     H78081   8.685   8.367   7.714  1.7315 -3.9505 -2.9174
  592MOL0     H78082   8.824   8.467   7.745 -0.0689 -1.7063  1.4048
  592MOL0     H78083   8.907   8.436   7.531 -0.1949  0.8807  0.0201
  592MOL0     H78084   8.753   8.372   7.471 -0.4186  1.9348  0.5181
  592MOL0     H78085   8.943   8.208   7.503 -1.1691  1.0972 -0.3512
  592MOL0     H78086   8.816   8.160   7.622 -0.6206 -0.4949 -0.0131
  592MOL0     H78087   9.045   8.342   7.692  1.1012 -0.5438  2.3266
  592MOL0     H78088   8.962   8.249   7.811 -1.0379 -1.6993 -0.8830
  592MOL0     H78089   9.133   8.131   7.603  1.2243  0.2690  1.1752
  592MOL0     H78090   9.047   8.039   7.736  0.8278 -0.3153  1.5036
  592MOL0     H78091   9.168   8.174   7.898  2.0735 -0.5084  1.2319
  592MOL0     H78092   9.257   8.251   7.769  0.8933 -0.4558 -0.2003
  592MOL0     H78093   9.380   8.071   7.891 -0.0640 -1.8752  1.1726
  592MOL0     H78094   9.262   7.952   7.842 -0.8281  0.8717 -0.5963
  592MOL0     H78095   9.415   8.109   7.637  0.1391 -0.1201 -0.3619
  592MOL0     H78096   9.314   7.964   7.613  0.9484  0.2116 -0.3548
  592MOL0     H78097   9.608   7.959   7.488 -0.5348 -0.2264 -0.2214
  592MOL0     H78098   9.783   7.745   7.430  3.0704 -2.8164 -1.1236
  592MOL0     H78099   9.781   7.619   7.545 -2.2145 -0.1801 -0.1675
  592MOL0     H78100   9.909   7.898   7.580  4.0217  1.1208  1.9793
  592MOL0     H78101   9.989   7.738   7.534  0.4312  1.5899  0.6916
  592MOL0     H78102   9.897   7.672   7.779  0.7767 -2.2269 -2.1064
  592MOL0     H78103  10.045   7.742   7.739 -0.4211 -1.0078 -1.3434
  592MOL0     H78104   9.883   7.847   7.930 -2.1507 -0.9961  0.0179
  592MOL0     H78105   9.790   7.920   7.807 -0.7234 -2.4485  0.8596
  592MOL0     H78106  10.096   7.853   8.007 -2.0979  0.2280 -2.6259
  592MOL0     H78107  10.343   7.805   8.030  2.7099  0.0708 -0.9937
  592MOL0     H78108  10.773   8.221   7.729  1.2582  0.8140 -1.1077
  592MOL0     H78109  11.015   8.241   7.741  1.4196 -0.1284 -1.0645
  592MOL0     H78110  11.227   7.898   7.784 -1.8750  1.3696 -0.3547
  592MOL0     H78111  11.266   7.935   7.958  0.2871 -0.9697 -0.7057
  592MOL0     H78112  11.441   8.095   7.875 -2.6935  0.4954 -0.0076
  592MOL0     H78113  11.410   8.025   7.710  0.2560 -2.4598  0.3613
  592MOL0     H78114  11.459   7.807   7.778 -1.3690  1.1800 -0.6235
  592MOL0     H78115  11.463   7.857   7.945 -0.0073 -0.7556 -0.9197
  592MOL0     H78116  11.651   7.925   7.716  1.3032 -2.6987  0.3150
  592MOL0     H78117  11.655   8.004   7.876  0.0204 -0.5256 -0.5018
  592MOL0     H78118  11.716   7.792   7.968  1.3339 -0.6352  0.2222
  592MOL0     H78119  11.825   7.848   7.833 -1.0520  3.7241 -0.9332
  592MOL0     H78120  11.730   7.683   7.678 -0.6062  2.8058  0.1250
  592MOL0     H78121  11.619   7.635   7.799 -0.3044  0.9286 -2.1198
  592MOL0     H78122  11.815   7.574   7.962  0.6222 -1.4412  0.5106
  592MOL0     H78123  11.803   7.461   7.833  0.0419 -0.7477  1.3529
  592MOL0     H78124  11.998   7.588   7.726  1.8846 -3.3732  0.7025
  592MOL0     H78125  12.024   7.492   7.872  0.5630  0.7448  2.1239
  592MOL0     H78126  11.056   7.921   8.008 -0.7113 -0.5568 -1.3272
  592MOL0     H78127  10.804   7.871   7.992 -2.9523  2.5330  1.1884
  592MOL0     H78128  10.416   8.110   7.737 -0.1318  0.0937  0.5295
  592MOL0     H78129  10.166   8.126   7.709 -1.3835 -0.3018 -0.2248
  592MOL0     H78130   8.534   8.353   7.567  1.8121  0.9016 -1.6988
  592MOL0     H78131   8.307   8.357   7.452 -1.9014 -0.0059  0.6270
  592MOL0     H78132   7.918   8.566   7.501 -1.8954 -2.8102 -0.8762
  592MOL0     H78133   7.677   8.573   7.470  1.0834 -0.2238  0.5557
  592MOL0     H78134   7.527   8.611   7.049 -0.8464  0.9668 -2.7665
  592MOL0     H78135   7.501   8.775   7.113  3.0422 -1.0745 -3.1434
  592MOL0     H78136   7.329   8.522   7.148  0.7851 -0.5383 -0.5163
  592MOL0     H78137   7.292   8.688   7.216  1.1974  0.1326 -0.2458
  592MOL0     H78138   7.186   8.593   6.977 -1.6074  0.8879 -0.2023
  592MOL0     H78139   7.337   8.664   6.911 -0.0992 -1.0967 -0.4601
  592MOL0     H78140   7.112   8.786   7.068  0.0150 -0.8309  0.0834
  592MOL0     H78141   7.269   8.876   7.032  1.5212 -2.2912  1.5858
  592MOL0     H78142   7.066   8.951   6.686  2.1497  1.7426  0.0944
  592MOL0     H78143   7.737   8.708   7.067 -1.6894  0.4064  0.4845
  592MOL0     H78144   7.985   8.730   7.115  1.5339 -1.1249  1.3461
  593MOL0     O78145   1.681   1.774   1.088 -0.1664  0.1417 -0.5438
  593MOL0     C78146   1.616   1.763   1.189  0.0320 -0.7214  0.4857
  593MOL0     O78147   1.663   1.734   1.314 -0.8164 -1.3038  0.4725
  593MOL0     C78148   1.797   1.729   1.341 -1.5238  0.2135 -0.4666
  593MOL0     C78149   1.895   1.669   1.258  0.2019 -0.8735  0.0419
  593MOL0     C78150   2.035   1.661   1.297  0.2722  0.1292 -0.9495
  593MOL0     C78151   2.074   1.709   1.427 -0.4776  0.2045 -0.1310
  593MOL0     O78152   2.210   1.734   1.473 -0.2347  0.4269  0.2713
  593MOL0     C78153   2.308   1.663   1.404  0.2949  0.6910 -0.5849
  593MOL0     C78154   2.375   1.730   1.292  0.0382  1.0318 -1.1323
  593MOL0     C78155   2.470   1.843   1.339  0.4643  0.1321 -0.1307
  593MOL0     C78156   2.500   1.941   1.222  0.4214 -0.7438 -0.5377
  593MOL0     C78157   2.631   2.029   1.246  0.0326  0.5638 -1.0487
  593MOL0     C78158   2.628   2.132   1.360  0.0715 -0.9899 -0.3989
  593MOL0     C78159   2.531   2.250   1.332  1.1327 -0.2768  0.2449
  593MOL0     C78160   2.581   2.329   1.217 -0.2756  0.7795 -0.0432
  593MOL0     N78161   2.496   2.444   1.201 -0.1836  0.7984 -0.5025
  593MOL0     C78162   2.364   2.461   1.243 -0.0385 -0.4804 -0.1922
  593MOL0     C78163   2.344   2.588   1.202 -0.3104  0.0137  0.7839
  593MOL0     C78164   2.217   2.660   1.215 -0.2381 -0.6794  1.0693
  593MOL0     C78165   2.114   2.584   1.294 -0.0494  1.1762  0.5065
  593MOL0     C78166   1.976   2.659   1.305 -0.4338  0.1989  0.1290
  593MOL0     C78167   1.981   2.811   1.360 -0.2151 -0.1294 -0.0395
  593MOL0     O78168   1.851   2.846   1.423 -1.1400  0.1625 -0.1717
  593MOL0     C78169   1.741   2.855   1.344  0.1861  0.8233 -0.4354
  593MOL0     C78170   1.617   2.870   1.413  0.8240  0.4750  0.4514
  593MOL0     C78171   1.499   2.875   1.348  0.2074 -0.2401 -0.1158
  593MOL0     C78172   1.496   2.857   1.207  0.4189 -0.2744  0.1973
  593MOL0     C78173   1.370   2.870   1.139 -0.7107  0.9711  0.1625
  593MOL0     O78174   1.388   2.897   1.004  0.4385  0.0089 -0.1004
  593MOL0     C78175   1.273   2.904   0.930  0.1961 -0.7006  0.6577
  593MOL0     C78176   1.180   3.014   0.947 -0.1767  0.9137  0.5143
  593MOL0     C78177   1.076   3.017   0.857 -0.8126  0.1800 -0.3063
  593MOL0     C78178   1.069   2.932   0.741 -0.3764 -0.0516  0.0346
  593MOL0     O78179   0.960   2.950   0.659  0.3569 -0.4692 -0.0160
  593MOL0     C78180   0.946   2.878   0.531 -0.1793  0.1776  0.0219
  593MOL0     C78181   0.799   2.896   0.495 -0.7459 -0.5778  1.1980
  593MOL0     C78182   0.786   2.835   0.358 -0.3998  0.6163  0.2200
  593MOL0     C78183   0.656   2.857   0.281 -0.1357  0.1022  0.5682
  593MOL0     C78184   0.544   2.770   0.348  0.0147 -0.2222 -0.0655
  593MOL0     C78185   0.425   2.767   0.250  0.1168 -0.9405 -0.0363
  593MOL0     C78186   0.293   2.691   0.283  0.0495  0.5786 -0.5947
  593MOL0     C78187   0.319   2.547   0.282  0.2164  0.5272  0.3946
  593MOL0    Cl78188   0.178   2.454   0.343 -0.4316  0.0327  0.1506
  593MOL0     C78189   1.156   2.819   0.733  0.0542 -0.6401 -0.2497
  593MOL0     C78190   1.256   2.812   0.831 -0.9486  0.0751 -0.4197
  593MOL0     O78191   1.262   2.841   1.194 -0.4229 -0.1991 -0.1214
  593MOL0     C78192   1.622   2.852   1.138  0.5309  0.1066 -0.5108
  593MOL0     C78193   1.741   2.848   1.201  0.1365 -0.3999 -0.2457
  593MOL0     N78194   2.452   2.639   1.136  0.0746 -0.2655  0.0823
  593MOL0     N78195   2.541   2.553   1.133 -0.5214  0.0715  0.4337
  593MOL0     C78196   1.973   1.761   1.502 -0.4217 -0.1342  0.6846
  593MOL0     C78197   1.837   1.776   1.466 -0.2909  0.2441  0.4564
  593MOL0     C78198   1.474   1.809   1.191 -0.2025  0.5093 -0.1967
  593MOL0     C78199   1.391   1.774   1.301 -0.2472  0.2163  0.4922
  593MOL0     C78200   1.253   1.804   1.285 -0.8485 -0.6058 -0.1375
  593MOL0     C78201   1.197   1.869   1.166 -0.3216  0.7000 -0.3646
  593MOL0     O78202   1.071   1.894   1.151 -0.3738 -0.8258  0.1778
  593MOL0     C78203   0.975   1.810   1.215  0.8697 -0.6166 -0.0426
  593MOL0     C78204   0.835   1.865   1.163 -0.1055 -0.9246 -0.6258
  593MOL0     C78205   0.815   1.832   1.014 -0.0964  0.2575  0.0527
  593MOL0     C78206   0.695   1.890   0.951  1.0390 -0.6553  0.5771
  593MOL0     C78207   0.568   1.822   0.951  0.2807 -0.0307  0.1247
  593MOL0     C78208   0.470   1.748   0.942  0.6371  0.9344 -0.5663
  593MOL0     C78209   1.286   1.911   1.074 -0.6372  0.4580  0.3515
  593MOL0     C78210   1.423   1.881   1.082 -0.1232 -0.1300  0.7035
  593MOL0     H78211   1.867   1.645   1.156 -0.0650 -2.1975  0.4099
  593MOL0     H78212   2.110   1.614   1.233  1.8488  1.7115 -0.3420
  593MOL0     H78213   2.269   1.563   1.382 -1.6970  1.3655 -0.3010
  593MOL0     H78214   2.377   1.636   1.485  1.1426 -0.3492 -1.6130
  593MOL0     H78215   2.289   1.767   1.235 -0.4234  1.5101 -0.1501
  593MOL0     H78216   2.427   1.659   1.228 -2.4218 -2.1905  0.1796
  593MOL0     H78217   2.562   1.786   1.358  0.1951 -0.4371 -0.5020
  593MOL0     H78218   2.444   1.888   1.435  1.7489  0.8283 -0.0811
  593MOL0     H78219   2.522   1.886   1.130  0.6643  0.1036 -1.0016
  593MOL0     H78220   2.422   2.010   1.190  1.0572 -0.6267 -1.9373
  593MOL0     H78221   2.651   2.084   1.153  1.0701  1.1297 -0.5038
  593MOL0     H78222   2.719   1.966   1.263 -0.5357 -0.2080 -0.9246
  593MOL0     H78223   2.731   2.160   1.384 -1.1446  1.1511  3.0250
  593MOL0     H78224   2.606   2.085   1.456 -0.2062 -1.5510 -0.7339
  593MOL0     H78225   2.430   2.210   1.315 -0.8556  3.5793  1.8317
  593MOL0     H78226   2.536   2.303   1.427  1.6811 -1.5479  0.9509
  593MOL0     H78227   2.562   2.275   1.123 -1.4050 -0.0594  0.6409
  593MOL0     H78228   2.686   2.356   1.220 -0.9217  3.6104 -0.3595
  593MOL0     H78229   2.309   2.392   1.307 -0.8812  0.0851 -0.2841
  593MOL0     H78230   2.177   2.683   1.116  0.7944 -0.9438  0.5733
  593MOL0     H78231   2.241   2.754   1.265  1.4914 -1.3196  1.5358
  593MOL0     H78232   2.152   2.545   1.389 -0.4409 -0.9478 -0.1438
  593MOL0     H78233   2.092   2.494   1.236  0.4345  1.2923  0.1312
  593MOL0     H78234   1.934   2.669   1.205 -1.4076  2.2071  0.7019
  593MOL0     H78235   1.909   2.590   1.358  1.0614 -0.5508  1.1452
  593MOL0     H78236   2.000   2.882   1.279 -1.3126 -1.1088 -1.2098
  593MOL0     H78237   2.063   2.828   1.430 -0.2250  1.1807 -0.3361
  593MOL0     H78238   1.620   2.882   1.520  0.7218  1.2486  0.3742
  593MOL0     H78239   1.409   2.899   1.404  0.9258  0.7740  0.6367
  593MOL0     H78240   1.186   3.094   1.020  1.1547 -0.2908  1.7958
  593MOL0     H78241   1.004   3.095   0.879  0.6664  1.3517  0.6187
  593MOL0     H78242   0.968   2.771   0.536 -0.7702 -0.0223 -1.2151
  593MOL0     H78243   1.011   2.926   0.457  0.2754 -0.3805  0.0501
  593MOL0     H78244   0.780   3.003   0.503  4.3438  0.4163  3.6643
  593MOL0     H78245   0.756   2.844   0.581 -0.0794 -0.1415  1.8041
  593MOL0     H78246   0.803   2.727   0.358  1.9596  0.9041 -1.8002
  593MOL0     H78247   0.865   2.868   0.290 -0.6912 -1.5221 -1.2861
  593MOL0     H78248   0.632   2.963   0.289 -5.7278 -0.8345  0.6966
  593MOL0     H78249   0.669   2.838   0.174 -0.3054  0.2340  0.5241
  593MOL0     H78250   0.529   2.793   0.454  4.0190  1.0918  0.3941
  593MOL0     H78251   0.588   2.670   0.362  2.1865  0.8876  1.7344
  593MOL0     H78252   0.456   2.738   0.149 -1.0378  1.6453 -1.2168
  593MOL0     H78253   0.393   2.870   0.234  0.0205 -0.9999 -0.2353
  593MOL0     H78254   0.253   2.723   0.380  0.6667  1.6568 -0.6829
  593MOL0     H78255   0.217   2.709   0.206 -0.0233  1.7126 -0.2827
  593MOL0     H78256   0.409   2.521   0.338  0.1084  1.2640  0.9109
  593MOL0     H78257   0.342   2.520   0.178  1.0015 -0.9081  0.9062
  593MOL0     H78258   1.158   2.755   0.645  1.9100  0.6005 -1.1858
  593MOL0     H78259   1.329   2.732   0.819 -1.2827 -0.3761  0.4224
  593MOL0     H78260   1.639   2.852   1.030  2.3246  1.0900 -0.2585
  593MOL0     H78261   1.828   2.829   1.139  0.3715 -1.2838  0.3355
  593MOL0     H78262   1.997   1.798   1.601 -1.7941 -1.9825  1.7732
  593MOL0     H78263   1.770   1.810   1.545  1.1409  2.1090  0.9437
  593MOL0     H78264   1.435   1.720   1.383  1.8113  0.6101 -0.2894
  593MOL0     H78265   1.192   1.789   1.373 -1.3082 -3.0632 -0.7868
  593MOL0     H78266   0.981   1.829   1.322 -1.4696  2.6748 -0.3520
  593MOL0     H78267   0.981   1.705   1.183  0.5644 -0.4459 -0.6768
  593MOL0     H78268   0.760   1.816   1.227  1.1735  1.0692  2.6550
  593MOL0     H78269   0.818   1.971   1.181  0.2498 -0.5281 -2.4660
  593MOL0     H78270   0.814   1.722   1.008  2.4923 -0.1087  3.1915
  593MOL0     H78271   0.897   1.869   0.953 -1.1544  2.6228 -0.0506
  593MOL0     H78272   0.672   1.981   1.006 -0.5738 -1.7356  1.8123
  593MOL0     H78273   0.710   1.911   0.845 -0.0217  2.2859  0.9330
  593MOL0     H78274   0.388   1.680   0.930  0.6899  0.8468 -0.4293
  593MOL0     H78275   1.245   1.963   0.988 -1.6646  0.8374  1.0416
  593MOL0     H78276   1.486   1.926   1.005 -1.2345  1.7517  0.8276
  594MOL0     O78277  10.855   8.071  10.475 -0.3639  0.1381 -0.0003
  594MOL0     C78278  10.876   8.029  10.359  0.3797  0.7320 -0.4897
  594MOL0     O78279  10.783   7.968  10.282 -0.3836  0.2982 -0.8420
  594MOL0     C78280  10.652   7.979  10.313  0.3048  0.0906 -0.0466
  594MOL0     C78281  10.572   7.874  10.290  0.4856  0.5830 -0.7281
  594MOL0     C78282  10.431   7.878  10.319 -0.9870  0.6915 -0.4186
  594MOL0     C78283  10.375   8.002  10.368 -0.2987  0.1561 -0.0875
  594MOL0     O78284  10.241   7.994  10.387  0.0181 -0.2370 -0.4010
  594MOL0     C78285  10.159   8.109  10.404  0.5322 -0.0215  0.1161
  594MOL0     C78286  10.016   8.053  10.419  0.4077  0.3755  0.1326
  594MOL0     C78287   9.938   8.152  10.510  0.9367 -0.3175  0.2603
  594MOL0     C78288   9.800   8.096  10.555 -0.8327  0.3921  1.1211
  594MOL0     C78289   9.715   8.210  10.610 -0.1549 -0.1712  0.1167
  594MOL0     C78290   9.659   8.175  10.746  0.8258 -0.5304  0.4932
  594MOL0     C78291   9.576   8.055  10.747  0.2968  0.8317  0.6498
  594MOL0     C78292   9.518   8.016  10.885 -0.1914  1.1309 -0.0029
  594MOL0     N78293   9.442   8.134  10.927  0.4496  0.4978  0.2284
  594MOL0     C78294   9.331   8.197  10.874 -0.2173  0.2224 -0.2304
  594MOL0     C78295   9.317   8.313  10.939  0.6763 -0.8002 -0.8733
  594MOL0     C78296   9.205   8.415  10.908  0.9052 -0.8062  0.2615
  594MOL0     C78297   9.066   8.381  10.970 -1.0080 -1.4128  0.2820
  594MOL0     C78298   8.972   8.493  10.935  0.2799  1.1023  0.8029
  594MOL0     C78299   8.851   8.516  11.026  0.8734 -0.2434 -0.9430
  594MOL0     O78300   8.789   8.401  11.065 -0.4212  0.1525 -0.0832
  594MOL0     C78301   8.650   8.393  11.064 -0.0180  0.3076 -0.3300
  594MOL0     C78302   8.605   8.265  11.082 -0.0645 -0.0317 -0.8014
  594MOL0     C78303   8.464   8.228  11.095  0.0082 -0.6888 -0.9693
  594MOL0     C78304   8.374   8.333  11.103  0.2958  0.8637  1.0463
  594MOL0     C78305   8.228   8.320  11.105  0.6950 -0.7750  0.6024
  594MOL0     O78306   8.186   8.200  11.151  0.2109 -0.2410 -0.5036
  594MOL0     C78307   8.052   8.183  11.171  0.7303  1.1078 -0.1380
  594MOL0     C78308   7.968   8.114  11.083  0.4646  0.0677 -0.0170
  594MOL0     C78309   7.830   8.106  11.101  0.4085 -0.8781  0.6390
  594MOL0     C78310   7.780   8.133  11.230 -1.0257  0.6042  0.5090
  594MOL0     O78311   7.649   8.110  11.250 -0.2216 -0.2486  0.6698
  594MOL0     C78312   7.584   8.224  11.320  0.0777  0.2491  0.0638
  594MOL0     C78313   7.427   8.194  11.289 -0.6879  0.1283 -0.6882
  594MOL0     C78314   7.385   8.060  11.355  0.4949  0.7538  0.1512
  594MOL0     C78315   7.231   8.031  11.346 -0.2612 -0.3179 -0.4762
  594MOL0     C78316   7.191   7.891  11.414 -0.0675 -0.7585  0.2313
  594MOL0     C78317   7.039   7.883  11.435  0.3583 -0.1893  0.7520
  594MOL0     C78318   6.954   7.890  11.303 -0.2492 -0.3798 -0.0073
  594MOL0     C78319   6.811   7.840  11.311  0.0447 -1.1309 -0.1000
  594MOL0    Cl78320   6.827   7.665  11.332  0.4445  0.0865  0.0167
  594MOL0     C78321   7.865   8.210  11.319  0.0325  0.1529  0.5172
  594MOL0     C78322   7.998   8.233  11.288 -0.1062 -0.5513  0.7689
  594MOL0     O78323   8.144   8.398  11.051  0.4415  0.0655 -0.1725
  594MOL0     C78324   8.419   8.459  11.067 -0.1524 -0.8835 -0.6404
  594MOL0     C78325   8.557   8.495  11.051  0.4262 -0.1757 -0.0945
  594MOL0     N78326   9.408   8.318  11.037 -0.6551 -0.0227  0.3465
  594MOL0     N78327   9.486   8.215  11.027  0.7793 -0.1743  0.2002
  594MOL0     C78328  10.458   8.105  10.390  0.1267  0.1314  0.3526
  594MOL0     C78329  10.594   8.096  10.368 -0.1865  0.8035  0.0746
  594MOL0     C78330  11.020   8.020  10.312  0.5801 -0.6216 -0.5217
  594MOL0     C78331  11.045   7.966  10.187 -0.4103  0.2007  0.1750
  594MOL0     C78332  11.182   7.956  10.143 -0.0456  0.0608 -0.0787
  594MOL0     C78333  11.290   7.993  10.224 -1.1695  0.8607  0.1598
  594MOL0     O78334  11.414   7.972  10.174 -0.6219  0.6901 -0.5415
  594MOL0     C78335  11.525   8.045  10.216  0.0879  0.1218  0.0201
  594MOL0     C78336  11.641   7.957  10.184 -0.1571 -0.2755 -0.2214
  594MOL0     C78337  11.777   8.023  10.221  1.3693 -0.4149  0.0163
  594MOL0     C78338  11.902   7.950  10.190 -0.4469  0.2677  0.6313
  594MOL0     C78339  12.019   8.028  10.155  0.2973  0.0115 -0.4634
  594MOL0     C78340  12.120   8.093  10.134 -0.3651  0.8211  0.1300
  594MOL0     C78341  11.258   8.056  10.344  0.5986  0.5767 -0.0040
  594MOL0     C78342  11.129   8.066  10.384 -0.2702  0.4542 -0.3685
  594MOL0     H78343  10.621   7.783  10.258  3.6104  2.0883 -0.5833
  594MOL0     H78344  10.381   7.787  10.289  0.3173 -0.0637 -0.3511
  594MOL0     H78345  10.158   8.180  10.321  0.6894  1.6939  1.4936
  594MOL0     H78346  10.193   8.159  10.496 -0.2047 -1.1868  1.0445
  594MOL0     H78347  10.007   7.955  10.467 -1.6666  0.6757  0.4258
  594MOL0     H78348   9.964   8.047  10.323  1.3264  0.8275 -0.4048
  594MOL0     H78349   9.934   8.251  10.462 -1.2446  0.0552  1.0998
  594MOL0     H78350   9.999   8.175  10.598  3.5342 -0.0269 -1.4930
  594MOL0     H78351   9.760   8.055  10.462  0.4643  1.6637 -0.0325
  594MOL0     H78352   9.810   8.010  10.622 -1.0413 -2.3211 -2.0619
  594MOL0     H78353   9.627   8.226  10.548 -0.8515  0.4492  1.2405
  594MOL0     H78354   9.777   8.300  10.616  0.0254 -0.3692  1.8643
  594MOL0     H78355   9.594   8.257  10.780 -0.0717 -1.8117  1.9889
  594MOL0     H78356   9.736   8.159  10.822 -0.3062 -0.2216  1.7510
  594MOL0     H78357   9.494   8.076  10.677  0.8855  1.3829  0.1052
  594MOL0     H78358   9.632   7.968  10.710 -2.5664 -0.7319 -0.3213
  594MOL0     H78359   9.598   7.996  10.957 -0.6341  3.8970  1.3712
  594MOL0     H78360   9.462   7.923  10.869  0.1090  1.2334 -1.9209
  594MOL0     H78361   9.277   8.149  10.792  0.1187  0.7912 -0.7882
  594MOL0     H78362   9.197   8.422  10.799  1.0278 -2.6123  0.1105
  594MOL0     H78363   9.241   8.510  10.948 -0.5517 -0.2202  0.2436
  594MOL0     H78364   9.081   8.363  11.077 -0.3082 -0.3588  0.3772
  594MOL0     H78365   9.030   8.285  10.932 -1.3871 -2.2332  2.5450
  594MOL0     H78366   9.031   8.585  10.924 -0.4176  1.5452  0.7099
  594MOL0     H78367   8.942   8.466  10.833  0.8006 -0.9172  1.1406
  594MOL0     H78368   8.788   8.579  10.963  0.7372  0.2761 -0.2978
  594MOL0     H78369   8.879   8.566  11.120  0.0354 -2.0542  0.3257
  594MOL0     H78370   8.679   8.187  11.098  1.5179  0.8250 -3.4624
  594MOL0     H78371   8.432   8.125  11.107  0.0440 -0.6970 -0.9402
  594MOL0     H78372   8.023   8.069  11.001  2.3246  2.7622 -0.4022
  594MOL0     H78373   7.768   8.057  11.027 -0.3152 -0.7236  1.1368
  594MOL0     H78374   7.612   8.316  11.269 -2.5703  0.2804 -1.5044
  594MOL0     H78375   7.594   8.228  11.429 -2.0087 -0.1267  0.3045
  594MOL0     H78376   7.397   8.192  11.183 -4.3764  3.5773  0.0488
  594MOL0     H78377   7.366   8.273  11.334 -1.4264  1.6113 -3.9865
  594MOL0     H78378   7.410   8.065  11.462 -1.5072 -1.9721  0.8900
  594MOL0     H78379   7.438   7.975  11.312 -0.9362  0.0113 -0.2261
  594MOL0     H78380   7.184   8.114  11.400 -0.5921  0.0342 -1.2901
  594MOL0     H78381   7.198   8.046  11.243 -1.4189  3.3650  0.2730
  594MOL0     H78382   7.236   7.882  11.513  1.0008 -0.8754 -0.2399
  594MOL0     H78383   7.232   7.811  11.351  0.4007 -0.6824  0.4361
  594MOL0     H78384   7.012   7.968  11.498  1.8042  0.2125  0.8731
  594MOL0     H78385   7.019   7.789  11.487 -3.2533  1.2619  2.3115
  594MOL0     H78386   6.943   7.990  11.258 -0.5781  0.0160  0.9232
  594MOL0     H78387   7.000   7.830  11.225  1.4269 -4.2252  3.5927
  594MOL0     H78388   6.752   7.872  11.225 -1.4940 -3.0422  0.1826
  594MOL0     H78389   6.765   7.883  11.401  0.6835  0.2726 -0.4188
  594MOL0     H78390   7.835   8.246  11.417  3.4332 -2.8930  2.9490
  594MOL0     H78391   8.049   8.290  11.365 -1.0752 -2.5834  3.0540
  594MOL0     H78392   8.355   8.545  11.052  0.7885  0.0186  0.2736
  594MOL0     H78393   8.589   8.597  11.038 -0.3225  0.1885  0.7913
  594MOL0     H78394  10.423   8.207  10.404  1.2746  1.0358 -2.4916
  594MOL0     H78395  10.656   8.181  10.394  1.9500 -0.2518 -1.3721
  594MOL0     H78396  10.974   7.925  10.115  1.1744 -1.0268 -0.7577
  594MOL0     H78397  11.216   7.902  10.055 -0.6680 -0.0090 -0.2815
  594MOL0     H78398  11.526   8.067  10.323 -0.5559  2.4426 -0.4065
  594MOL0     H78399  11.536   8.143  10.170  0.9209 -0.2560 -0.5999
  594MOL0     H78400  11.632   7.860  10.232 -0.8745 -0.4228 -0.6507
  594MOL0     H78401  11.644   7.939  10.076  1.5266 -2.2643  0.1030
  594MOL0     H78402  11.780   8.048  10.327 -0.5361  1.7966 -0.3615
  594MOL0     H78403  11.784   8.127  10.188 -0.3796  0.6958  2.7942
  594MOL0     H78404  11.922   7.882  10.274  0.0521  0.0409  0.3369
  594MOL0     H78405  11.881   7.881  10.108  2.7087  2.0529 -1.9200
  594MOL0     H78406  12.209   8.149  10.111 -0.2060  0.2250 -0.7606
  594MOL0     H78407  11.339   8.079  10.412  1.1509 -4.3250  1.4113
  594MOL0     H78408  11.109   8.111  10.481  0.0949 -0.4214  0.1205
  595MOL0     O78409  10.679   5.499   0.339 -0.0211  0.2647 -0.6167
  595MOL0     C78410  10.627   5.437   0.430  0.2595 -0.4857 -0.3713
  595MOL0     O78411  10.494   5.452   0.472 -0.1370 -0.0563 -0.2065
  595MOL0     C78412  10.435   5.574   0.445 -0.4687  0.6397  0.6975
  595MOL0     C78413  10.371   5.590   0.321 -0.6609  0.2240 -0.4455
  595MOL0     C78414  10.285   5.693   0.318 -0.3562  0.2364 -0.4307
  595MOL0     C78415  10.261   5.782   0.427 -0.1847 -0.6391 -1.4628
  595MOL0     O78416  10.194   5.904   0.417  0.1901 -0.6889 -0.2504
  595MOL0     C78417  10.054   5.900   0.392 -0.2295 -0.7008 -0.1225
  595MOL0     C78418   9.982   5.853   0.512  1.0450  1.4484  0.3000
  595MOL0     C78419   9.835   5.822   0.477  0.0235  0.0080 -0.1361
  595MOL0     C78420   9.768   5.733   0.580  1.0908 -0.7719 -0.7514
  595MOL0     C78421   9.617   5.714   0.545 -0.7034  0.5068  0.1269
  595MOL0     C78422   9.542   5.634   0.652  0.5164  0.2879  0.1592
  595MOL0     C78423   9.391   5.629   0.615  0.0538  0.4037  0.1740
  595MOL0     C78424   9.291   5.563   0.707 -0.2417 -0.4101 -0.3287
  595MOL0     N78425   9.152   5.587   0.677 -0.5472  0.3959 -0.3686
  595MOL0     C78426   9.059   5.673   0.739 -0.5441 -0.5381  0.1590
  595MOL0     C78427   8.937   5.657   0.674 -0.0390  0.0927 -0.2737
  595MOL0     C78428   8.810   5.703   0.729 -0.0603  0.5421  0.4079
  595MOL0     C78429   8.707   5.591   0.698 -0.2540 -0.2363  0.0028
  595MOL0     C78430   8.580   5.601   0.776 -0.4650  1.3481 -0.3984
  595MOL0     C78431   8.504   5.736   0.747 -0.5550 -0.8192 -1.0227
  595MOL0     O78432   8.384   5.727   0.816  0.2508 -0.3486  0.2093
  595MOL0     C78433   8.283   5.640   0.772 -0.6671 -0.1276 -0.3656
  595MOL0     C78434   8.244   5.630   0.639 -0.0320 -0.9210 -0.3492
  595MOL0     C78435   8.144   5.533   0.603  0.0176  0.2008  0.6956
  595MOL0     C78436   8.081   5.457   0.702  0.1035  0.7204 -0.0221
  595MOL0     C78437   7.995   5.341   0.666  0.8404 -0.3523  0.5180
  595MOL0     O78438   7.965   5.319   0.530  0.2763  0.2849  0.2011
  595MOL0     C78439   7.885   5.206   0.492  0.2634 -0.3565  0.8410
  595MOL0     C78440   7.907   5.071   0.535 -0.4247  0.1208 -0.1848
  595MOL0     C78441   7.819   4.965   0.502 -0.1551 -0.1656  0.3346
  595MOL0     C78442   7.703   4.994   0.423  1.1823 -0.4227 -0.1657
  595MOL0     O78443   7.608   4.902   0.381 -0.2141  0.5985 -1.2565
  595MOL0     C78444   7.608   4.774   0.452  0.2820  1.1323 -0.0598
  595MOL0     C78445   7.481   4.701   0.400 -0.5392 -0.5039  0.4450
  595MOL0     C78446   7.447   4.586   0.491 -0.2688  0.3139  0.9584
  595MOL0     C78447   7.320   4.517   0.443  0.1862 -0.0169  0.7729
  595MOL0     C78448   7.305   4.386   0.514 -0.8336  1.1461  0.3848
  595MOL0     C78449   7.157   4.328   0.510 -1.3506  0.4900  0.6066
  595MOL0     C78450   7.091   4.310   0.378 -0.8254 -0.6490  0.3208
  595MOL0     C78451   7.130   4.166   0.327  0.2635 -0.8920 -0.6421
  595MOL0    Cl78452   7.020   4.116   0.205 -0.0704 -0.0576 -0.0385
  595MOL0     C78453   7.685   5.123   0.377 -0.4010 -0.2665 -0.1347
  595MOL0     C78454   7.776   5.231   0.400 -0.5742  0.5876 -0.2819
  595MOL0     O78455   7.938   5.287   0.757 -0.2158 -0.0001 -0.0584
  595MOL0     C78456   8.122   5.473   0.837 -0.2194  0.4530  0.0331
  595MOL0     C78457   8.231   5.555   0.872 -1.7573  0.1680  1.1214
  595MOL0     N78458   8.965   5.567   0.571 -0.9383 -0.8395 -0.8469
  595MOL0     N78459   9.095   5.533   0.570  1.1179 -0.0644  0.0958
  595MOL0     C78460  10.346   5.772   0.535 -0.7297  0.7515 -0.2577
  595MOL0     C78461  10.427   5.663   0.545  0.0063  0.6098  1.5343
  595MOL0     C78462  10.709   5.331   0.503  0.8894 -1.0439 -0.2560
  595MOL0     C78463  10.652   5.256   0.604 -0.1974  0.2619  0.7738
  595MOL0     C78464  10.732   5.171   0.676  0.3364 -0.8023  0.2851
  595MOL0     C78465  10.864   5.143   0.642 -1.1314  1.0094  0.7254
  595MOL0     O78466  10.935   5.049   0.724 -0.3257 -0.1746 -0.3674
  595MOL0     C78467  11.074   5.047   0.735 -1.4462 -0.6730  1.0022
  595MOL0     C78468  11.136   4.924   0.801  0.4926  0.3848 -0.2875
  595MOL0     C78469  11.228   4.845   0.708 -0.0901  0.9147 -0.2189
  595MOL0     C78470  11.156   4.734   0.637  0.6588  0.9952  0.5681
  595MOL0     C78471  11.236   4.660   0.540 -0.8153  0.3705 -0.4400
  595MOL0     C78472  11.305   4.599   0.472  0.8428  0.2610  0.4166
  595MOL0     C78473  10.914   5.208   0.529  0.2824 -0.4749 -0.3873
  595MOL0     C78474  10.838   5.310   0.464 -0.6508 -0.2781 -0.1004
  595MOL0     H78475  10.391   5.531   0.233  2.1271  2.2782 -1.3263
  595MOL0     H78476  10.232   5.711   0.225 -3.3081  1.9715  1.4158
  595MOL0     H78477  10.030   5.841   0.302  2.3703  1.4020 -2.3794
  595MOL0     H78478  10.009   5.998   0.371 -0.7227 -0.5386  1.5906
  595MOL0     H78479   9.978   5.933   0.586 -0.1386  1.3444  0.3570
  595MOL0     H78480  10.023   5.761   0.555 -1.8111 -0.1159 -0.0686
  595MOL0     H78481   9.829   5.779   0.376  0.4523 -1.0628  0.2799
  595MOL0     H78482   9.776   5.913   0.473  1.2806  0.9588  1.5703
  595MOL0     H78483   9.818   5.635   0.584 -0.9286 -1.8115  0.1706
  595MOL0     H78484   9.779   5.782   0.677 -1.7925  0.4201 -0.9348
  595MOL0     H78485   9.601   5.661   0.451 -1.4819 -0.5883  0.8458
  595MOL0     H78486   9.568   5.812   0.548  0.0173  0.8822 -0.2448
  595MOL0     H78487   9.556   5.687   0.747 -0.4497  0.9563 -0.0581
  595MOL0     H78488   9.593   5.537   0.653  2.3802  1.2160 -0.1544
  595MOL0     H78489   9.368   5.736   0.606  3.0272  0.9349 -4.4989
  595MOL0     H78490   9.374   5.590   0.514 -1.1858  1.0941  0.0888
  595MOL0     H78491   9.305   5.619   0.800 -1.2993 -0.9045  0.1526
  595MOL0     H78492   9.305   5.455   0.711  1.5493 -0.2649 -1.6144
  595MOL0     H78493   9.077   5.738   0.824  1.8105 -1.4322  0.4174
  595MOL0     H78494   8.788   5.787   0.663  0.1072 -0.6624 -1.2554
  595MOL0     H78495   8.821   5.737   0.832  0.7114  0.4181  0.3741
  595MOL0     H78496   8.755   5.493   0.709  1.4308  0.6755  1.4630
  595MOL0     H78497   8.690   5.599   0.590  0.6545  0.9252 -0.0715
  595MOL0     H78498   8.520   5.516   0.742  2.9419 -1.8502  0.9214
  595MOL0     H78499   8.600   5.595   0.883 -2.3061  1.3896 -0.0273
  595MOL0     H78500   8.496   5.745   0.638 -2.1960 -1.2806 -0.9664
  595MOL0     H78501   8.547   5.829   0.783 -1.5132 -0.8086  0.1589
  595MOL0     H78502   8.286   5.700   0.567  0.2831  1.2386  1.7983
  595MOL0     H78503   8.123   5.503   0.501  0.9329 -3.2870  1.3962
  595MOL0     H78504   7.989   5.048   0.602 -0.8393 -1.4999 -0.1960
  595MOL0     H78505   7.848   4.866   0.535 -2.9821 -1.4313 -0.6258
  595MOL0     H78506   7.605   4.783   0.560  1.2504  1.7665 -0.0756
  595MOL0     H78507   7.697   4.715   0.428 -1.0245 -1.5898  1.2861
  595MOL0     H78508   7.489   4.663   0.298  1.1012  2.1350 -0.5124
  595MOL0     H78509   7.396   4.770   0.400 -0.6575 -0.5930  2.3488
  595MOL0     H78510   7.437   4.609   0.597 -2.0385  1.3184  0.6034
  595MOL0     H78511   7.537   4.527   0.470  0.3035  1.9793 -1.7508
  595MOL0     H78512   7.226   4.570   0.457 -1.4448 -2.3242 -0.7203
  595MOL0     H78513   7.319   4.500   0.334  0.1208 -0.3363  0.8214
  595MOL0     H78514   7.334   4.397   0.619  2.1156 -0.0320 -0.1987
  595MOL0     H78515   7.378   4.322   0.464  0.1298 -0.4051  3.5239
  595MOL0     H78516   7.096   4.395   0.571 -2.1360 -0.7120  1.2007
  595MOL0     H78517   7.148   4.232   0.562  1.6839 -2.0133 -2.9378
  595MOL0     H78518   6.983   4.304   0.394 -0.9405 -1.4740 -0.6633
  595MOL0     H78519   7.112   4.386   0.303  0.2546 -0.6631  0.6003
  595MOL0     H78520   7.118   4.098   0.411 -2.2563 -0.9194 -0.9500
  595MOL0     H78521   7.235   4.157   0.295  0.0369 -1.1794 -1.3127
  595MOL0     H78522   7.599   5.146   0.314 -1.0677  0.0397  0.8585
  595MOL0     H78523   7.773   5.330   0.356  1.6195 -0.1407 -2.2867
  595MOL0     H78524   8.085   5.411   0.918  2.8064 -0.7114  0.6568
  595MOL0     H78525   8.287   5.563   0.964  1.0568  2.4869 -0.6084
  595MOL0     H78526  10.337   5.837   0.622 -0.7324  1.0269 -0.4632
  595MOL0     H78527  10.493   5.647   0.630  2.6506 -0.6065 -0.5889
  595MOL0     H78528  10.547   5.259   0.632  0.0947  0.0505  1.9480
  595MOL0     H78529  10.697   5.122   0.767  3.4846 -0.9262  1.5471
  595MOL0     H78530  11.112   5.142   0.774 -3.1369  1.6524 -2.4578
  595MOL0     H78531  11.111   5.042   0.632  2.0771  1.1990  1.9850
  595MOL0     H78532  11.189   4.943   0.895  0.8713  1.7127 -0.7483
  595MOL0     H78533  11.056   4.854   0.827  1.5179 -0.1883  1.5100
  595MOL0     H78534  11.308   4.806   0.771 -2.5032 -2.0315  1.3238
  595MOL0     H78535  11.278   4.912   0.638  1.4547 -1.4143 -1.4897
  595MOL0     H78536  11.111   4.665   0.709  0.5350  0.4536 -0.0211
  595MOL0     H78537  11.070   4.779   0.585  0.3183 -0.4386 -0.1510
  595MOL0     H78538  11.377   4.557   0.405 -0.8177 -3.6224  0.8164
  595MOL0     H78539  11.009   5.168   0.493  0.8873 -2.9640  3.4034
  595MOL0     H78540  10.880   5.340   0.368 -2.7843  1.7389 -0.5008
  596MOL0     O78541   6.239   0.028   6.245  0.3264  0.5824  0.1089
  596MOL0     C78542   6.275  -0.052   6.330  0.2469 -0.5251  0.2811
  596MOL0     O78543   6.187  -0.134   6.403 -0.0469 -0.4759  0.1978
  596MOL0     C78544   6.049  -0.119   6.383 -0.5839  0.2871 -0.1117
  596MOL0     C78545   5.981  -0.000   6.393  1.0371 -0.3526 -0.4293
  596MOL0     C78546   5.843   0.006   6.388  0.8399 -0.1671  0.3828
  596MOL0     C78547   5.765  -0.116   6.367 -0.7691 -1.0386  0.5223
  596MOL0     O78548   5.624  -0.125   6.365 -0.1872 -0.8276  0.3494
  596MOL0     C78549   5.553  -0.005   6.329  0.0361 -0.4867 -0.0844
  596MOL0     C78550   5.405  -0.038   6.321 -0.1852 -0.0569 -0.2092
  596MOL0     C78551   5.356  -0.126   6.210 -0.9119  0.4771  0.1364
  596MOL0     C78552   5.213  -0.167   6.215  0.1664 -0.1977 -0.8354
  596MOL0     C78553   5.185  -0.295   6.139 -0.5450  0.1010 -0.4169
  596MOL0     C78554   5.044  -0.348   6.178 -0.5774 -0.0251  0.7188
  596MOL0     C78555   4.931  -0.289   6.089 -0.9251 -0.0957  0.7951
  596MOL0     C78556   4.798  -0.368   6.117 -0.3246 -0.2108 -0.2895
  596MOL0     N78557   4.750  -0.341   6.257  0.4943 -0.0794  0.1531
  596MOL0     C78558   4.667  -0.236   6.290 -1.2347  0.6483  0.4578
  596MOL0     C78559   4.642  -0.261   6.428  0.3053  0.3673 -0.4051
  596MOL0     C78560   4.589  -0.157   6.526 -0.3449 -0.8245 -1.0403
  596MOL0     C78561   4.439  -0.141   6.508 -0.2101 -0.0500  0.0943
  596MOL0     C78562   4.388  -0.248   6.603  0.0833  0.4422 -0.2382
  596MOL0     C78563   4.237  -0.239   6.613 -0.1147 -0.1885  0.2808
  596MOL0     O78564   4.179  -0.296   6.493 -0.8721  0.2882 -0.1901
  596MOL0     C78565   4.040  -0.298   6.487  0.1428  0.9850  0.3521
  596MOL0     C78566   3.990  -0.361   6.369 -0.8991  0.0986 -0.1287
  596MOL0     C78567   3.853  -0.378   6.345 -0.3721  0.1659 -0.3510
  596MOL0     C78568   3.761  -0.331   6.444 -0.4634  0.7559  0.2071
  596MOL0     C78569   3.614  -0.333   6.427 -0.6006 -0.6726 -0.3304
  596MOL0     O78570   3.567  -0.388   6.308  0.5475 -0.6699  0.5849
  596MOL0     C78571   3.427  -0.377   6.295 -0.2117  0.2391 -0.3158
  596MOL0     C78572   3.365  -0.263   6.249  0.0289  0.7780  0.0348
  596MOL0     C78573   3.227  -0.268   6.228 -0.0072 -0.9877  0.8262
  596MOL0     C78574   3.150  -0.382   6.245 -0.2663  0.4331 -0.1757
  596MOL0     O78575   3.019  -0.365   6.217 -0.1217  0.7374  0.3196
  596MOL0     C78576   2.977  -0.413   6.091 -0.1419 -0.3132  0.2984
  596MOL0     C78577   2.870  -0.527   6.086 -0.1775 -0.4117 -0.4942
  596MOL0     C78578   2.761  -0.521   6.190  0.0246 -0.4161  0.3745
  596MOL0     C78579   2.631  -0.585   6.132 -0.6684 -0.6165 -0.1926
  596MOL0     C78580   2.557  -0.485   6.034 -0.1930  0.1310  0.3968
  596MOL0     C78581   2.430  -0.421   6.110 -0.2990 -0.2246  0.8991
  596MOL0     C78582   2.331  -0.355   6.020 -0.0014  0.2841  0.1562
  596MOL0     C78583   2.219  -0.269   6.070  0.0309 -0.0623 -0.6019
  596MOL0    Cl78584   2.112  -0.357   6.183  0.2045 -0.2688  0.0672
  596MOL0     C78585   3.214  -0.495   6.292  0.1322 -0.3396  0.0385
  596MOL0     C78586   3.356  -0.499   6.312 -0.5124  0.7176  0.4492
  596MOL0     O78587   3.544  -0.274   6.514  0.7831  0.4067  0.2937
  596MOL0     C78588   3.808  -0.271   6.564 -0.9896  0.4239  0.3526
  596MOL0     C78589   3.948  -0.258   6.583 -0.6536  0.9971 -1.1175
  596MOL0     N78590   4.705  -0.374   6.468  0.1537  0.3579 -0.3696
  596MOL0     N78591   4.760  -0.430   6.361 -0.3082 -0.1929  0.7174
  596MOL0     C78592   5.839  -0.236   6.350 -0.1879 -0.8723 -0.1549
  596MOL0     C78593   5.979  -0.238   6.368  0.1948  0.4544 -0.0484
  596MOL0     C78594   6.417  -0.052   6.363  0.0254  0.1762  0.6693
  596MOL0     C78595   6.501   0.047   6.315 -0.1216 -1.2940 -0.2680
  596MOL0     C78596   6.644   0.040   6.328  0.7325 -0.6229  0.2288
  596MOL0     C78597   6.703  -0.068   6.394  0.8493 -0.1148  0.5204
  596MOL0     O78598   6.841  -0.084   6.411  0.1577  0.9362  0.1828
  596MOL0     C78599   6.927  -0.005   6.335 -0.5098 -0.4222 -0.3296
  596MOL0     C78600   7.071  -0.043   6.334 -0.7121 -0.6176 -1.0611
  596MOL0     C78601   7.132  -0.041   6.477 -0.3475  0.4138  0.1081
  596MOL0     C78602   7.284  -0.035   6.470  0.3050  0.0643  0.7918
  596MOL0     C78603   7.343  -0.041   6.602 -0.2566  0.7771 -0.6761
  596MOL0     C78604   7.379  -0.053   6.716 -0.4737  0.3978 -0.1480
  596MOL0     C78605   6.615  -0.167   6.450 -0.4220  0.1354 -0.0981
  596MOL0     C78606   6.476  -0.151   6.437 -0.4127 -0.1308 -0.0890
  596MOL0     H78607   6.048   0.081   6.418  0.1900  0.5129 -0.8863
  596MOL0     H78608   5.791   0.101   6.398 -1.1962 -1.0878 -0.8559
  596MOL0     H78609   5.583   0.051   6.240  1.7919  1.4088  1.5974
  596MOL0     H78610   5.569   0.071   6.407  0.8483  0.1597 -0.8645
  596MOL0     H78611   5.361   0.063   6.316  1.7321  0.9353  1.5740
  596MOL0     H78612   5.377  -0.083   6.416  0.3332  1.9755  0.9578
  596MOL0     H78613   5.424  -0.211   6.221  0.7704  1.6507 -0.7522
  596MOL0     H78614   5.379  -0.074   6.117  0.6854 -3.0591 -1.6369
  596MOL0     H78615   5.179  -0.179   6.319  0.5131  2.1807 -0.3982
  596MOL0     H78616   5.155  -0.079   6.185  1.5083  2.0518  2.5408
  596MOL0     H78617   5.262  -0.369   6.163 -0.2354  0.7561  0.6974
  596MOL0     H78618   5.196  -0.265   6.034  0.1718  0.6325 -0.1962
  596MOL0     H78619   5.021  -0.329   6.283 -1.3204  1.7722  0.2736
  596MOL0     H78620   5.034  -0.455   6.158 -0.3152 -0.3136  2.0289
  596MOL0     H78621   4.919  -0.184   6.115 -0.0137  0.3567 -0.5099
  596MOL0     H78622   4.960  -0.301   5.984  0.5819 -0.0558  1.1838
  596MOL0     H78623   4.794  -0.476   6.097 -2.0037 -0.1763 -0.2197
  596MOL0     H78624   4.732  -0.328   6.039 -0.5550 -4.0450 -2.3045
  596MOL0     H78625   4.643  -0.153   6.224  1.6977  1.9126  0.8074
  596MOL0     H78626   4.650  -0.066   6.520  1.4887 -1.7513  1.7102
  596MOL0     H78627   4.607  -0.191   6.628 -2.1846 -0.1571 -0.4461
  596MOL0     H78628   4.407  -0.166   6.406 -1.8658  2.4099 -0.0753
  596MOL0     H78629   4.414  -0.038   6.536 -1.5947 -0.1295 -0.7293
  596MOL0     H78630   4.407  -0.346   6.557 -0.4292  0.6220 -0.8466
  596MOL0     H78631   4.436  -0.248   6.701 -1.0189  1.0942  0.3092
  596MOL0     H78632   4.200  -0.137   6.625 -0.0825 -0.1054 -0.2881
  596MOL0     H78633   4.198  -0.290   6.701  0.6959  0.2249  0.8885
  596MOL0     H78634   4.060  -0.385   6.290 -1.5921  3.5295 -1.9300
  596MOL0     H78635   3.827  -0.424   6.250 -0.5904  1.8333 -1.1459
  596MOL0     H78636   3.419  -0.172   6.224 -0.9374  1.4556  0.3562
  596MOL0     H78637   3.179  -0.175   6.201  2.3490  0.0504 -0.0912
  596MOL0     H78638   3.061  -0.444   6.028  0.3718  3.9842 -1.4859
  596MOL0     H78639   2.926  -0.329   6.041 -0.4166 -0.5264  0.2197
  596MOL0     H78640   2.929  -0.618   6.098 -1.0666 -0.8281  1.0015
  596MOL0     H78641   2.822  -0.523   5.988  2.0428 -0.0842 -1.6290
  596MOL0     H78642   2.755  -0.419   6.228  2.9880 -0.2215  0.5694
  596MOL0     H78643   2.785  -0.589   6.272 -0.4895  2.8149  3.4690
  596MOL0     H78644   2.664  -0.681   6.092 -1.4494 -0.5825 -0.9416
  596MOL0     H78645   2.569  -0.596   6.222  2.2854 -0.8801  1.9567
  596MOL0     H78646   2.513  -0.549   5.957  2.6128 -0.8372 -0.4997
  596MOL0     H78647   2.624  -0.414   5.987 -0.1622  0.7801  1.3848
  596MOL0     H78648   2.464  -0.353   6.189 -2.9679  0.6467  1.4009
  596MOL0     H78649   2.377  -0.505   6.155  1.2715 -0.3497  2.6412
  596MOL0     H78650   2.393  -0.294   5.954  0.2738 -2.8125 -2.6788
  596MOL0     H78651   2.291  -0.437   5.960  2.1072 -1.2988  0.7939
  596MOL0     H78652   2.158  -0.222   5.992 -2.2614  0.2189  1.2421
  596MOL0     H78653   2.266  -0.184   6.121 -1.1748 -0.9525  2.1934
  596MOL0     H78654   3.166  -0.585   6.330  2.2645 -1.7700 -0.5030
  596MOL0     H78655   3.407  -0.591   6.339 -1.2876  0.3979  0.8418
  596MOL0     H78656   3.742  -0.233   6.641  0.0155  0.5480  1.1914
  596MOL0     H78657   3.986  -0.220   6.678 -0.1696 -1.7355 -0.1390
  596MOL0     H78658   5.786  -0.327   6.323 -1.3103 -1.0576  2.4080
  596MOL0     H78659   6.043  -0.326   6.365  2.9783  2.3632 -1.3778
  596MOL0     H78660   6.462   0.134   6.262 -1.8054 -0.7385  1.7526
  596MOL0     H78661   6.718   0.110   6.289  3.1668 -1.9724  2.1026
  596MOL0     H78662   6.926   0.094   6.382 -0.8487 -0.6952  0.2441
  596MOL0     H78663   6.895  -0.006   6.230 -2.2749 -1.7364  0.1817
  596MOL0     H78664   7.088  -0.146   6.301  1.5588 -0.5750 -0.1752
  596MOL0     H78665   7.127   0.029   6.273  1.0618 -0.1459  0.9972
  596MOL0     H78666   7.101  -0.117   6.549  2.5024  1.4942  2.7498
  596MOL0     H78667   7.091   0.054   6.514 -1.9100 -0.0834 -0.2632
  596MOL0     H78668   7.320  -0.117   6.407  0.8731 -0.2628  1.5237
  596MOL0     H78669   7.323   0.052   6.418  1.0779 -1.2497 -0.9349
  596MOL0     H78670   7.401  -0.063   6.820  1.8753  1.9848 -0.4096
  596MOL0     H78671   6.652  -0.259   6.495  0.6544  0.4214 -0.3698
  596MOL0     H78672   6.415  -0.237   6.464  0.6650 -1.3339 -1.3503
  597MOL0     O78673   5.871   1.391   1.022 -0.0837  0.3823  0.5550
  597MOL0     C78674   5.908   1.405   1.135 -0.8528  0.5419  0.8330
  597MOL0     O78675   5.838   1.380   1.250  0.4467 -0.2407 -0.1248
  597MOL0     C78676   5.704   1.376   1.239  1.0477  0.6306  0.7703
  597MOL0     C78677   5.624   1.470   1.168 -0.0025  0.1530 -0.2415
  597MOL0     C78678   5.490   1.442   1.154  0.8030  0.7998 -0.9674
  597MOL0     C78679   5.420   1.336   1.221 -0.4129 -0.1353  0.2403
  597MOL0     O78680   5.280   1.332   1.209  0.2123  0.0089 -0.0061
  597MOL0     C78681   5.230   1.208   1.183 -0.3872  0.2920  0.5859
  597MOL0     C78682   5.087   1.202   1.220 -0.6239 -0.1746  0.2674
  597MOL0     C78683   5.061   1.162   1.369 -0.6060 -0.5757  0.5668
  597MOL0     C78684   4.923   1.195   1.398  0.2253 -0.6483 -0.8558
  597MOL0     C78685   4.890   1.189   1.548 -0.2345  1.1611 -0.4877
  597MOL0     C78686   4.743   1.218   1.573 -0.5243  0.1841  0.1732
  597MOL0     C78687   4.715   1.212   1.727 -0.6303 -0.4307  0.2864
  597MOL0     C78688   4.579   1.216   1.774 -1.8053 -0.1629 -0.0598
  597MOL0     N78689   4.561   1.164   1.909  1.0825 -0.2553  0.3002
  597MOL0     C78690   4.511   1.225   2.019  0.5853  0.5047  0.3007
  597MOL0     C78691   4.493   1.135   2.114 -1.0035 -0.1856  1.0650
  597MOL0     C78692   4.449   1.167   2.253 -1.2953 -0.6086 -0.5454
  597MOL0     C78693   4.299   1.194   2.268  0.0134  0.6556  0.1801
  597MOL0     C78694   4.225   1.065   2.229  0.3130 -0.4491 -0.3101
  597MOL0     C78695   4.083   1.071   2.287 -0.4920 -0.1366 -0.9503
  597MOL0     O78696   4.017   0.949   2.266  0.1375  0.1671 -0.0888
  597MOL0     C78697   3.882   0.957   2.277  0.4137  0.4002 -0.0000
  597MOL0     C78698   3.798   0.868   2.216  0.7443 -0.1046  0.2306
  597MOL0     C78699   3.662   0.853   2.239 -0.3797 -0.3173 -0.1197
  597MOL0     C78700   3.600   0.931   2.331 -0.6136 -0.7896  0.3035
  597MOL0     C78701   3.466   0.913   2.378  0.3040 -0.6084  0.4189
  597MOL0     O78702   3.421   0.788   2.338  0.4018  1.0436  0.0572
  597MOL0     C78703   3.295   0.750   2.330  0.8650 -1.2909 -0.1989
  597MOL0     C78704   3.185   0.837   2.352  0.0664  0.3533  0.3392
  597MOL0     C78705   3.058   0.778   2.335  0.2970  0.2626  0.2640
  597MOL0     C78706   3.037   0.637   2.324  0.3757 -0.1223  0.2496
  597MOL0     O78707   2.920   0.570   2.321 -1.2956 -0.2397  0.1929
  597MOL0     C78708   2.793   0.634   2.331  0.5417 -0.3204  0.6732
  597MOL0     C78709   2.688   0.531   2.312  0.9074  0.7787  0.1949
  597MOL0     C78710   2.653   0.432   2.424 -0.1922 -0.6067  0.1365
  597MOL0     C78711   2.594   0.518   2.533  0.2164 -0.5950 -0.2756
  597MOL0     C78712   2.570   0.448   2.668 -0.0595  0.3558 -0.4048
  597MOL0     C78713   2.452   0.357   2.656  0.0159  0.0081  0.0115
  597MOL0     C78714   2.408   0.285   2.781 -0.3141  0.5941 -0.8707
  597MOL0     C78715   2.249   0.264   2.774 -0.8427 -0.3718 -0.4920
  597MOL0    Cl78716   2.196   0.182   2.629 -0.0206  0.0134 -0.1152
  597MOL0     C78717   3.150   0.562   2.309 -0.5483 -0.7049  0.6349
  597MOL0     C78718   3.277   0.616   2.317  0.0132  0.0230 -0.0461
  597MOL0     O78719   3.402   0.999   2.450 -0.1727 -0.0951 -0.1540
  597MOL0     C78720   3.675   1.037   2.385  0.5163 -0.9382  0.0489
  597MOL0     C78721   3.816   1.042   2.366 -0.4860 -0.6046 -0.1862
  597MOL0     N78722   4.528   1.015   2.059  0.4765  0.4683  0.1981
  597MOL0     N78723   4.568   1.028   1.934 -0.8015  0.3063  0.8086
  597MOL0     C78724   5.490   1.268   1.312 -0.6493 -0.5682  0.8385
  597MOL0     C78725   5.636   1.278   1.312  1.2525  0.1468  0.1144
  597MOL0     C78726   6.041   1.466   1.154 -1.0570 -0.1308  0.3824
  597MOL0     C78727   6.145   1.452   1.060  0.4340 -0.7403  0.3535
  597MOL0     C78728   6.254   1.544   1.066 -0.5958  0.4917 -0.1374
  597MOL0     C78729   6.270   1.642   1.167 -0.1840  0.5242 -0.6470
  597MOL0     O78730   6.374   1.735   1.161  0.3746 -0.1117  0.4611
  597MOL0     C78731   6.375   1.845   1.247 -0.8516  0.1924 -0.4180
  597MOL0     C78732   6.462   1.809   1.377 -0.1863  0.0403  0.3652
  597MOL0     C78733   6.613   1.785   1.346  0.0035 -0.5770  0.3362
  597MOL0     C78734   6.714   1.797   1.464  0.0113  0.6682  0.5988
  597MOL0     C78735   6.658   1.828   1.595  0.0605 -0.4109 -0.0237
  597MOL0     C78736   6.606   1.843   1.707  0.3948  0.2237  1.0919
  597MOL0     C78737   6.163   1.645   1.256 -0.7695 -0.6236  0.1042
  597MOL0     C78738   6.056   1.566   1.257 -0.2942 -0.0321  0.7983
  597MOL0     H78739   5.664   1.550   1.106 -0.7634  1.3692  0.7846
  597MOL0     H78740   5.442   1.503   1.078 -0.2203  0.5093 -0.5706
  597MOL0     H78741   5.291   1.131   1.231  0.7507  0.4228 -0.5792
  597MOL0     H78742   5.241   1.194   1.075 -1.2629 -0.8460  0.6304
  597MOL0     H78743   5.023   1.138   1.158 -0.0218  2.7064 -3.7956
  597MOL0     H78744   5.048   1.302   1.200  3.4794  1.9938  1.8655
  597MOL0     H78745   5.127   1.222   1.432  0.6140 -2.2253  0.9271
  597MOL0     H78746   5.087   1.057   1.386  1.1429 -0.3771 -0.5658
  597MOL0     H78747   4.892   1.296   1.367 -1.5954  1.1894  5.3957
  597MOL0     H78748   4.851   1.134   1.343 -0.3360 -0.6795 -0.1069
  597MOL0     H78749   4.953   1.255   1.608  0.9668  1.8249 -2.4029
  597MOL0     H78750   4.897   1.083   1.577  2.1434  1.5239  0.4784
  597MOL0     H78751   4.675   1.151   1.520  0.8943 -1.1848  0.0276
  597MOL0     H78752   4.714   1.314   1.528 -3.7100 -0.1608  1.2392
  597MOL0     H78753   4.759   1.121   1.769 -0.5360  0.2817  1.7962
  597MOL0     H78754   4.764   1.289   1.788  2.2122 -2.5223  0.8754
  597MOL0     H78755   4.525   1.146   1.709 -1.4988 -1.1519  0.7176
  597MOL0     H78756   4.551   1.321   1.763  1.3119  0.4847 -4.7384
  597MOL0     H78757   4.510   1.333   2.034  1.6395  0.5931 -0.1602
  597MOL0     H78758   4.504   1.254   2.291 -2.8182  0.1350  0.0425
  597MOL0     H78759   4.489   1.087   2.317 -0.1930 -0.6889 -1.3007
  597MOL0     H78760   4.269   1.277   2.203  2.4117 -0.2867 -2.3375
  597MOL0     H78761   4.285   1.219   2.373 -1.6125 -1.0000  0.3959
  597MOL0     H78762   4.230   1.054   2.120  2.1168  2.0751 -0.5833
  597MOL0     H78763   4.276   0.978   2.272  1.8860 -0.5306 -2.1649
  597MOL0     H78764   4.024   1.152   2.242 -0.0156  1.1091  0.5623
  597MOL0     H78765   4.092   1.090   2.394  0.6785 -0.6885 -0.9310
  597MOL0     H78766   3.825   0.795   2.140 -0.3667 -1.8267  1.4148
  597MOL0     H78767   3.625   0.773   2.176  0.2283 -0.6165 -0.1104
  597MOL0     H78768   3.184   0.946   2.353 -1.8010  0.4401 -1.8341
  597MOL0     H78769   2.973   0.845   2.330 -0.8463 -1.1367  0.1405
  597MOL0     H78770   2.795   0.703   2.246 -1.4899 -1.8038 -0.6754
  597MOL0     H78771   2.767   0.692   2.420  1.4770  1.9887 -0.4731
  597MOL0     H78772   2.720   0.478   2.222  1.0953 -0.7020  1.1015
  597MOL0     H78773   2.593   0.580   2.287  0.1697 -0.6528  0.0919
  597MOL0     H78774   2.735   0.369   2.460  0.8140  2.3745  3.6453
  597MOL0     H78775   2.575   0.372   2.378  1.3287 -1.3206 -1.6459
  597MOL0     H78776   2.673   0.586   2.567 -1.0191 -0.2428  2.1742
  597MOL0     H78777   2.511   0.584   2.503  0.5568  0.3976  0.8642
  597MOL0     H78778   2.563   0.520   2.750  0.7150  0.5334 -0.4905
  597MOL0     H78779   2.660   0.387   2.682 -0.3675  0.1362  0.7015
  597MOL0     H78780   2.464   0.283   2.576 -1.4691  0.3533 -0.5660
  597MOL0     H78781   2.370   0.420   2.620 -0.3018 -1.8530 -2.8861
  597MOL0     H78782   2.460   0.189   2.778 -0.1042  0.5658  1.5670
  597MOL0     H78783   2.439   0.327   2.877  0.5049 -2.7035  0.4267
  597MOL0     H78784   2.211   0.366   2.783  4.5617  2.1046 -1.4869
  597MOL0     H78785   2.221   0.209   2.864 -0.2947 -1.5528 -1.0223
  597MOL0     H78786   3.145   0.459   2.273 -0.2066 -0.5211  0.0467
  597MOL0     H78787   3.366   0.555   2.307  2.6096  3.8919 -4.3852
  597MOL0     H78788   3.624   1.111   2.446 -0.7735 -2.4301  0.8607
  597MOL0     H78789   3.856   1.128   2.420 -1.0605 -0.4259 -0.0304
  597MOL0     H78790   5.438   1.204   1.382  0.0055 -1.5659  0.4420
  597MOL0     H78791   5.700   1.213   1.371 -1.1257 -2.1489  0.3556
  597MOL0     H78792   6.132   1.384   0.976  1.7056  0.6331 -1.0299
  597MOL0     H78793   6.319   1.540   0.979  0.6589 -1.4754  0.8185
  597MOL0     H78794   6.276   1.874   1.283  0.0821  2.4546  0.4367
  597MOL0     H78795   6.409   1.934   1.193  0.3005  0.2066  0.3062
  597MOL0     H78796   6.447   1.893   1.445 -1.9852  0.5055 -0.5309
  597MOL0     H78797   6.422   1.715   1.415  5.1230 -2.0597  1.7815
  597MOL0     H78798   6.649   1.861   1.276  1.1203 -0.1772  1.3027
  597MOL0     H78799   6.633   1.688   1.299  0.5643 -0.7568  0.9223
  597MOL0     H78800   6.762   1.700   1.479 -1.3019 -0.3237 -1.3369
  597MOL0     H78801   6.787   1.876   1.442 -0.2079  0.3277 -1.5438
  597MOL0     H78802   6.583   1.865   1.809 -0.2842  2.7306  0.4846
  597MOL0     H78803   6.167   1.708   1.345  0.5035 -2.7174  1.6213
  597MOL0     H78804   5.982   1.569   1.335  1.0852 -0.2325  2.1614
  598MOL0     O78805  11.111   6.168   8.219  0.1860  0.2319 -0.2751
  598MOL0     C78806  11.133   6.283   8.264 -0.0436 -0.0627 -0.1913
  598MOL0     O78807  11.046   6.383   8.255  0.3611 -0.7691  0.0565
  598MOL0     C78808  10.963   6.383   8.152 -0.6161 -0.7864 -0.3598
  598MOL0     C78809  11.013   6.379   8.024 -0.6947 -0.8760  0.3617
  598MOL0     C78810  10.924   6.409   7.918 -0.6446  0.5385 -0.3756
  598MOL0     C78811  10.792   6.452   7.947  0.5315  0.6665  0.0289
  598MOL0     O78812  10.692   6.467   7.859  0.3375 -0.1365  0.3738
  598MOL0     C78813  10.734   6.513   7.726  1.4079 -0.0184  0.1626
  598MOL0     C78814  10.603   6.516   7.639 -0.2968 -0.4202 -0.2359
  598MOL0     C78815  10.605   6.616   7.516  0.0904  0.0485 -0.4737
  598MOL0     C78816  10.613   6.768   7.561 -0.0605 -0.6240  0.6504
  598MOL0     C78817  10.507   6.815   7.663 -0.5809  1.1742 -0.2874
  598MOL0     C78818  10.376   6.815   7.590  0.1312 -0.2794 -0.0012
  598MOL0     C78819  10.258   6.850   7.669  0.6804 -0.4185  0.4902
  598MOL0     C78820  10.213   6.758   7.789  0.2471 -0.4652  0.9837
  598MOL0     N78821  10.066   6.778   7.813  0.1290 -0.5873 -0.3201
  598MOL0     C78822   9.957   6.706   7.765 -0.3246  0.3528  0.0251
  598MOL0     C78823   9.848   6.753   7.837  1.2527  0.1519 -0.3942
  598MOL0     C78824   9.709   6.687   7.857  0.3833 -0.1592 -0.0764
  598MOL0     C78825   9.617   6.802   7.887 -0.1195 -0.0654 -0.0734
  598MOL0     C78826   9.474   6.762   7.877 -0.5858 -0.1968  0.1119
  598MOL0     C78827   9.435   6.750   7.732  0.0301 -0.2733  0.1588
  598MOL0     O78828   9.302   6.685   7.720 -1.1682  0.0627  0.1124
  598MOL0     C78829   9.194   6.761   7.716  0.7504  0.4720 -0.9840
  598MOL0     C78830   9.196   6.901   7.733  0.0725  0.8847 -0.7492
  598MOL0     C78831   9.078   6.973   7.737 -0.3344 -0.5911  0.4786
  598MOL0     C78832   8.952   6.907   7.720  0.2181 -0.9168  0.3702
  598MOL0     C78833   8.825   6.986   7.707  0.2558  0.0458  0.9487
  598MOL0     O78834   8.716   6.912   7.667  0.3267  0.6015 -0.0897
  598MOL0     C78835   8.596   6.982   7.670  0.1780  0.1933  0.7673
  598MOL0     C78836   8.486   6.939   7.754  0.2451 -0.5731 -0.4764
  598MOL0     C78837   8.363   7.007   7.758  0.2007  1.2958  0.2927
  598MOL0     C78838   8.346   7.126   7.682  0.4336 -0.1976 -0.2485
  598MOL0     O78839   8.219   7.181   7.676 -0.1323 -0.0559 -0.0136
  598MOL0     C78840   8.111   7.136   7.754 -0.3539  0.4078 -0.4720
  598MOL0     C78841   8.006   7.246   7.768  0.5262 -0.1848 -0.0842
  598MOL0     C78842   7.929   7.259   7.630  0.1436  0.0695  0.0595
  598MOL0     C78843   7.795   7.338   7.631 -0.6485 -0.1743  0.2507
  598MOL0     C78844   7.761   7.380   7.486 -0.2210  0.0101  0.1092
  598MOL0     C78845   7.680   7.507   7.503  0.3138 -0.3278 -0.0964
  598MOL0     C78846   7.670   7.576   7.367  0.3225 -0.9493 -0.1983
  598MOL0     C78847   7.576   7.504   7.269  0.5770 -0.1713  0.2484
  598MOL0    Cl78848   7.543   7.608   7.135 -0.6389  0.4442 -0.3637
  598MOL0     C78849   8.447   7.177   7.601 -0.0894 -0.0943  0.1537
  598MOL0     C78850   8.570   7.109   7.600 -0.1822  0.0421 -0.4734
  598MOL0     O78851   8.836   7.108   7.734  0.1060 -0.6810 -0.1217
  598MOL0     C78852   8.948   6.772   7.707 -0.0248  0.3355 -0.3929
  598MOL0     C78853   9.065   6.695   7.703 -0.2248 -0.2669  1.1621
  598MOL0     N78854   9.890   6.841   7.938  0.0458  0.6817 -0.2909
  598MOL0     N78855  10.018   6.855   7.915  0.3069 -0.0460  0.0405
  598MOL0     C78856  10.746   6.454   8.079 -0.3851 -0.1295 -1.0423
  598MOL0     C78857  10.838   6.421   8.183  0.9416  0.8284  0.6335
  598MOL0     C78858  11.269   6.310   8.332  0.4159  0.1052  1.3077
  598MOL0     C78859  11.371   6.208   8.338 -0.1064 -0.1733  0.0088
  598MOL0     C78860  11.493   6.239   8.400  0.7765 -0.1814 -0.4818
  598MOL0     C78861  11.510   6.367   8.459 -0.1819 -0.3568 -0.2450
  598MOL0     O78862  11.621   6.403   8.536 -0.7946 -0.3857 -0.3039
  598MOL0     C78863  11.711   6.297   8.575 -0.9706 -0.7350  0.0891
  598MOL0     C78864  11.822   6.332   8.670  0.2639 -0.5122 -0.7809
  598MOL0     C78865  11.926   6.230   8.693 -0.3224  0.4305 -0.7973
  598MOL0     C78866  12.014   6.259   8.807  0.9547  0.9378  0.4049
  598MOL0     C78867  12.142   6.184   8.783 -0.9819  0.3018  0.1149
  598MOL0     C78868  12.243   6.122   8.749 -0.0159 -0.0355 -0.0650
  598MOL0     C78869  11.416   6.460   8.452 -0.2836 -0.4320  0.2190
  598MOL0     C78870  11.298   6.424   8.383  1.3396  0.1177  0.2943
  598MOL0     H78871  11.118   6.360   8.006 -0.2173  2.7062 -1.2734
  598MOL0     H78872  10.978   6.419   7.825  3.1983  2.3859  1.7923
  598MOL0     H78873  10.809   6.444   7.687  0.4546 -0.2036 -1.4369
  598MOL0     H78874  10.797   6.602   7.728  1.7878 -0.2898  1.6916
  598MOL0     H78875  10.508   6.531   7.691 -1.9222 -1.9574 -2.5318
  598MOL0     H78876  10.591   6.421   7.586  1.1001 -0.0882 -1.2207
  598MOL0     H78877  10.517   6.599   7.454 -1.9799 -1.5571  2.6461
  598MOL0     H78878  10.683   6.584   7.446 -0.9815 -0.6146 -1.4085
  598MOL0     H78879  10.710   6.765   7.613 -0.9930 -0.8396  2.4402
  598MOL0     H78880  10.614   6.827   7.469  0.9116 -1.6609 -0.0385
  598MOL0     H78881  10.525   6.910   7.714  1.7133  1.1716 -0.9889
  598MOL0     H78882  10.511   6.747   7.748 -2.9380  0.4564 -0.6803
  598MOL0     H78883  10.361   6.716   7.546 -0.5581 -0.0498 -0.2871
  598MOL0     H78884  10.394   6.881   7.505 -0.0734 -2.1736 -1.5752
  598MOL0     H78885  10.255   6.950   7.712 -2.1444  1.2043 -2.9587
  598MOL0     H78886  10.172   6.844   7.602 -2.1071 -1.3523  3.8733
  598MOL0     H78887  10.269   6.796   7.875  2.6587 -2.2771  0.2949
  598MOL0     H78888  10.235   6.654   7.764  0.8920 -0.3954  1.2454
  598MOL0     H78889   9.973   6.618   7.705  2.6225 -0.3111  1.5728
  598MOL0     H78890   9.709   6.608   7.932  1.8856  1.6460  1.9432
  598MOL0     H78891   9.680   6.646   7.760  0.2779 -1.9229  0.6580
  598MOL0     H78892   9.643   6.888   7.825 -1.1346 -1.4989 -2.6648
  598MOL0     H78893   9.621   6.837   7.990  2.0734 -1.7589  0.4906
  598MOL0     H78894   9.450   6.670   7.931 -0.2323 -0.9793 -1.0310
  598MOL0     H78895   9.418   6.842   7.927  1.2115  0.6207  0.9108
  598MOL0     H78896   9.495   6.678   7.675 -2.2602  0.6726 -3.8389
  598MOL0     H78897   9.443   6.845   7.678 -0.9229 -1.2147 -1.7298
  598MOL0     H78898   9.284   6.963   7.751  0.7292 -0.3769  0.6491
  598MOL0     H78899   9.090   7.081   7.750 -0.8141 -0.4711 -0.0326
  598MOL0     H78900   8.514   6.846   7.803  0.9113 -0.2563 -0.2446
  598MOL0     H78901   8.286   6.956   7.816  1.5535  0.1190  1.1251
  598MOL0     H78902   8.142   7.106   7.854 -0.8775 -0.5519 -0.5823
  598MOL0     H78903   8.064   7.050   7.705  0.4567  0.2586 -1.0182
  598MOL0     H78904   8.043   7.343   7.801 -1.0183  0.2489  0.4895
  598MOL0     H78905   7.928   7.196   7.827  0.2665  1.0381  0.6321
  598MOL0     H78906   7.911   7.167   7.573 -0.0433  0.0369  0.1694
  598MOL0     H78907   7.998   7.310   7.563 -0.0917  0.5651  0.1885
  598MOL0     H78908   7.721   7.263   7.660 -1.2222 -0.4250 -1.7096
  598MOL0     H78909   7.805   7.422   7.700  2.5011  1.5522 -2.0394
  598MOL0     H78910   7.709   7.301   7.430  1.1758  0.9595 -2.7103
  598MOL0     H78911   7.852   7.393   7.428  0.7194 -0.8615  1.3345
  598MOL0     H78912   7.746   7.575   7.559  1.6187 -2.2278  0.7692
  598MOL0     H78913   7.583   7.488   7.550  0.8520 -2.5781  0.2140
  598MOL0     H78914   7.636   7.678   7.383  3.5486 -0.1540  2.5996
  598MOL0     H78915   7.769   7.587   7.321  0.1170  0.1482 -0.3910
  598MOL0     H78916   7.487   7.466   7.320 -0.3221  2.6147  0.9096
  598MOL0     H78917   7.637   7.422   7.229  1.4634 -0.0991  1.4118
  598MOL0     H78918   8.439   7.262   7.534 -0.5966  0.9578  1.5155
  598MOL0     H78919   8.648   7.158   7.542 -0.3471  0.2081 -0.5564
  598MOL0     H78920   8.855   6.715   7.700  1.5773 -2.8378  1.7076
  598MOL0     H78921   9.063   6.586   7.706  0.8973 -0.3545 -0.1461
  598MOL0     H78922  10.640   6.469   8.098 -0.1749 -0.3938  0.5186
  598MOL0     H78923  10.791   6.419   8.281 -1.0764 -0.2172 -0.2901
  598MOL0     H78924  11.363   6.109   8.294  1.7613 -0.5410  0.4156
  598MOL0     H78925  11.561   6.160   8.430  2.4745  0.4650 -2.4141
  598MOL0     H78926  11.751   6.273   8.477 -1.8882  3.4008 -1.5170
  598MOL0     H78927  11.657   6.211   8.616 -0.8532 -1.8179 -1.9289
  598MOL0     H78928  11.892   6.403   8.625  2.4156 -1.2477  1.2622
  598MOL0     H78929  11.784   6.377   8.762  3.1595 -2.1977  1.3844
  598MOL0     H78930  11.989   6.218   8.604  0.6181  1.9494 -0.3754
  598MOL0     H78931  11.883   6.131   8.712 -1.6970  1.2400  0.5112
  598MOL0     H78932  12.031   6.367   8.811  0.0759  1.0512  2.5881
  598MOL0     H78933  11.963   6.227   8.898 -3.4056  1.9079 -1.4923
  598MOL0     H78934  12.334   6.069   8.728  0.2103 -0.0725  0.9199
  598MOL0     H78935  11.434   6.564   8.476 -1.5163 -0.6410  2.3620
  598MOL0     H78936  11.239   6.515   8.374  1.1272  0.1009  1.3617
  599MOL0     O78937  10.022   9.454   4.439  0.0171  0.1785  0.6605
  599MOL0     C78938  10.101   9.528   4.388 -0.4000  0.6885  0.3266
  599MOL0     O78939  10.104   9.665   4.397 -0.6887 -0.3379  0.2050
  599MOL0     C78940  10.009   9.732   4.472 -1.0691 -0.1600 -0.1976
  599MOL0     C78941  10.019   9.725   4.613  1.0912 -0.4491 -0.2591
  599MOL0     C78942   9.916   9.782   4.691  0.5009  0.2913 -0.4786
  599MOL0     C78943   9.808   9.846   4.634  0.5949 -0.1729 -0.8440
  599MOL0     O78944   9.696   9.909   4.694  0.2150 -0.1393 -0.1503
  599MOL0     C78945   9.650   9.873   4.820 -0.2196 -0.3479 -0.3842
  599MOL0     C78946   9.502   9.915   4.832  0.4292 -0.7216  0.7972
  599MOL0     C78947   9.456   9.899   4.975 -0.3789 -0.6035  0.6707
  599MOL0     C78948   9.321   9.968   4.998  0.4188  0.1936 -0.0239
  599MOL0     C78949   9.285   9.935   5.147 -0.0823 -0.1074 -0.7234
  599MOL0     C78950   9.152   9.985   5.187  0.1758  0.4299  0.7172
  599MOL0     C78951   9.097   9.929   5.318  0.0222 -0.0789 -0.3689
  599MOL0     C78952   8.962  10.008   5.345 -0.7392 -1.0287  0.1014
  599MOL0     N78953   8.920   9.993   5.482 -1.1124 -0.4841 -0.3452
  599MOL0     C78954   8.787   9.965   5.510  0.1190 -0.1308 -0.9463
  599MOL0     C78955   8.777  10.008   5.640  0.3982 -0.0075  0.2357
  599MOL0     C78956   8.658  10.011   5.737  0.0179 -0.8099 -1.0798
  599MOL0     C78957   8.674  10.118   5.854  0.2268 -0.4855  0.8534
  599MOL0     C78958   8.754  10.073   5.971 -0.9124  0.5589 -0.3167
  599MOL0     C78959   8.695   9.962   6.054 -0.8287 -0.0050  0.2255
  599MOL0     O78960   8.620  10.034   6.154 -0.1165  0.0276 -0.1973
  599MOL0     C78961   8.522   9.955   6.225  0.0692 -0.2548 -0.1144
  599MOL0     C78962   8.453  10.022   6.328 -0.0955 -0.6007  0.0955
  599MOL0     C78963   8.330   9.963   6.386  0.0166  0.5179  0.5260
  599MOL0     C78964   8.292   9.830   6.356 -0.1820  0.2494 -0.4808
  599MOL0     C78965   8.163   9.762   6.399  0.9300 -0.6002 -0.7931
  599MOL0     O78966   8.059   9.849   6.442  0.6391 -0.1080  0.4244
  599MOL0     C78967   7.959   9.794   6.522 -0.8196  1.0433  0.2059
  599MOL0     C78968   7.826   9.824   6.503 -0.2103 -0.4105 -0.1350
  599MOL0     C78969   7.730   9.777   6.594  0.2671 -0.1870 -1.2567
  599MOL0     C78970   7.769   9.693   6.693 -0.2996  0.7502  0.2815
  599MOL0     O78971   7.678   9.621   6.772  0.8279 -1.2086 -0.5696
  599MOL0     C78972   7.663   9.480   6.735 -0.5476  0.4547  0.4946
  599MOL0     C78973   7.637   9.438   6.584 -0.3363  0.0355  0.4129
  599MOL0     C78974   7.506   9.476   6.522 -0.7019  0.8677  0.1398
  599MOL0     C78975   7.486   9.426   6.380 -0.1129  0.4608 -0.2251
  599MOL0     C78976   7.389   9.513   6.306  0.1185  0.4658 -0.3766
  599MOL0     C78977   7.245   9.562   6.351  0.0464 -0.0500 -0.7911
  599MOL0     C78978   7.147   9.443   6.371  0.2476 -0.6383  0.2009
  599MOL0     C78979   7.001   9.478   6.402  0.0858 -0.3984  0.6644
  599MOL0    Cl78980   6.902   9.575   6.277 -0.1535 -0.0976  0.3229
  599MOL0     C78981   7.903   9.670   6.719  0.3070 -0.1187  0.6326
  599MOL0     C78982   7.998   9.733   6.636 -0.8572  0.8187 -0.4829
  599MOL0     O78983   8.157   9.639   6.394  0.1580 -0.0625  0.5160
  599MOL0     C78984   8.381   9.760   6.266  0.5768 -0.4592 -0.3980
  599MOL0     C78985   8.491   9.821   6.200  0.0834  0.5759 -0.4818
  599MOL0     N78986   8.905  10.040   5.680 -0.5831  0.3065  0.3158
  599MOL0     N78987   8.989  10.044   5.592  0.4525  0.8717  0.3102
  599MOL0     C78988   9.799   9.843   4.493 -0.0195 -0.0379  0.4045
  599MOL0     C78989   9.897   9.790   4.415 -0.0081  0.4117 -0.4730
  599MOL0     C78990  10.211   9.456   4.327 -1.1161 -0.3053  0.5444
  599MOL0     C78991  10.219   9.317   4.319 -0.3149 -0.0256 -0.2032
  599MOL0     C78992  10.330   9.241   4.276 -0.0395  0.8130  0.4894
  599MOL0     C78993  10.438   9.311   4.244  0.2729  0.3480  0.3228
  599MOL0     O78994  10.539   9.230   4.193 -0.2789  0.7993 -0.0620
  599MOL0     C78995  10.664   9.279   4.143  0.1556  0.1407  0.1232
  599MOL0     C78996  10.746   9.168   4.082 -0.5052  0.6990  0.1114
  599MOL0     C78997  10.668   9.068   4.001  0.7124 -0.6192  0.7103
  599MOL0     C78998  10.573   9.121   3.891  0.1928  0.9590  0.6118
  599MOL0     C78999  10.645   9.135   3.761  0.5947 -0.0739  0.1239
  599MOL0     C79000  10.689   9.149   3.644 -0.3390 -0.9752 -0.0994
  599MOL0     C79001  10.440   9.453   4.242  0.1488  0.3747  0.1402
  599MOL0     C79002  10.328   9.527   4.280  0.1996  0.6690 -0.6817
  599MOL0     H79003  10.103   9.677   4.662 -0.1412 -0.8974  1.5070
  599MOL0     H79004   9.909   9.780   4.799  2.2120  1.3326 -0.3085
  599MOL0     H79005   9.715   9.917   4.896 -1.8932  0.9406  0.3547
  599MOL0     H79006   9.664   9.765   4.833  2.0138  0.0771  1.3598
  599MOL0     H79007   9.439   9.855   4.765 -0.2223  1.9294 -1.1338
  599MOL0     H79008   9.490  10.018   4.799  1.3530 -0.4719  1.2085
  599MOL0     H79009   9.532   9.956   5.031  0.6885 -1.1743 -0.1477
  599MOL0     H79010   9.457   9.792   4.998  2.5047 -1.2143 -1.5681
  599MOL0     H79011   9.317  10.076   4.979 -0.4174  0.0210 -0.9586
  599MOL0     H79012   9.260   9.929   4.916  1.6793  1.2334 -1.5060
  599MOL0     H79013   9.350   9.987   5.219 -1.4188  0.9929 -0.2631
  599MOL0     H79014   9.277   9.827   5.154 -1.0222  0.0001  0.2562
  599MOL0     H79015   9.091   9.946   5.104  0.9378 -2.4915  1.3950
  599MOL0     H79016   9.149  10.094   5.188  5.4252  0.9622 -2.7593
  599MOL0     H79017   9.077   9.821   5.318 -3.6356  0.4138  1.4166
  599MOL0     H79018   9.161   9.959   5.401 -0.1493  2.2256 -0.9867
  599MOL0     H79019   8.880   9.988   5.275 -1.5573 -1.3271  1.1189
  599MOL0     H79020   8.979  10.116   5.335 -1.1102 -0.8199  1.5073
  599MOL0     H79021   8.714   9.922   5.442  2.3544 -1.9591 -2.3612
  599MOL0     H79022   8.642   9.910   5.775  2.8986 -1.0358 -0.2561
  599MOL0     H79023   8.567  10.045   5.685 -1.5896  2.7200  3.3669
  599MOL0     H79024   8.574  10.146   5.888 -0.2156 -0.5393 -0.3415
  599MOL0     H79025   8.714  10.212   5.813 -1.8108 -0.5062 -1.3916
  599MOL0     H79026   8.853  10.042   5.936 -1.8259 -0.8077 -1.8550
  599MOL0     H79027   8.769  10.157   6.039  0.8061 -0.5999  0.8371
  599MOL0     H79028   8.769   9.893   6.096  0.2416  1.4717  0.8387
  599MOL0     H79029   8.627   9.898   5.997 -3.6501 -0.6882  3.9357
  599MOL0     H79030   8.487  10.119   6.364  1.1523 -0.1439 -2.1365
  599MOL0     H79031   8.285  10.030   6.458  2.0128  1.0331  1.3523
  599MOL0     H79032   7.793   9.881   6.417  2.4384 -0.3561 -1.1921
  599MOL0     H79033   7.625   9.802   6.581  0.6618  3.3336  0.9522
  599MOL0     H79034   7.584   9.435   6.796 -0.6026  0.2452  0.2682
  599MOL0     H79035   7.760   9.435   6.760 -0.3141  0.2016 -0.8000
  599MOL0     H79036   7.644   9.329   6.576  0.0841 -0.0558  1.7725
  599MOL0     H79037   7.716   9.480   6.521  2.7433 -2.2202  2.4721
  599MOL0     H79038   7.483   9.583   6.521  2.0184  1.5248 -1.7266
  599MOL0     H79039   7.428   9.425   6.580 -2.5953  1.2198 -1.9509
  599MOL0     H79040   7.579   9.430   6.322 -0.1042  3.2796 -0.1998
  599MOL0     H79041   7.446   9.325   6.380  0.0054  0.4074 -0.9266
  599MOL0     H79042   7.384   9.452   6.215  1.5431 -1.0708  0.5180
  599MOL0     H79043   7.437   9.604   6.267 -0.8514 -0.2914 -3.6625
  599MOL0     H79044   7.211   9.622   6.266  4.1157  1.1031 -1.8020
  599MOL0     H79045   7.244   9.621   6.443  1.4363 -0.3290 -0.5764
  599MOL0     H79046   7.149   9.376   6.285 -0.1905 -0.0458 -0.2714
  599MOL0     H79047   7.169   9.375   6.455  0.7133  0.2315  0.8027
  599MOL0     H79048   6.997   9.506   6.507  0.4887  2.2081  0.0442
  599MOL0     H79049   6.949   9.383   6.416 -2.3495  1.0403  2.1868
  599MOL0     H79050   7.929   9.607   6.804 -0.8533 -1.1928  0.2325
  599MOL0     H79051   8.104   9.735   6.659 -0.6696  0.2445 -1.2710
  599MOL0     H79052   8.367   9.654   6.247 -0.3842 -0.7074  1.5219
  599MOL0     H79053   8.557   9.764   6.137  1.7193 -0.1670  1.7878
  599MOL0     H79054   9.714   9.895   4.451  0.3664 -0.9236 -1.5575
  599MOL0     H79055   9.880   9.790   4.307 -0.9534 -1.2305 -0.3552
  599MOL0     H79056  10.133   9.260   4.352  0.7126  0.0847  3.0591
  599MOL0     H79057  10.324   9.133   4.269 -1.2914  0.7359  2.0949
  599MOL0     H79058  10.714   9.331   4.224  0.9686  1.4681 -1.1770
  599MOL0     H79059  10.647   9.354   4.064 -1.2496 -0.3344 -0.0606
  599MOL0     H79060  10.832   9.212   4.033  0.7707  1.0528  2.4963
  599MOL0     H79061  10.776   9.121   4.177  1.5807  2.7689  0.5464
  599MOL0     H79062  10.606   9.010   4.070  1.3891 -0.7906  1.1891
  599MOL0     H79063  10.746   9.006   3.956  0.5723  1.2607 -2.4527
  599MOL0     H79064  10.482   9.064   3.872 -1.2220  3.3517 -0.2183
  599MOL0     H79065  10.541   9.223   3.916 -0.5530  1.2363 -1.3403
  599MOL0     H79066  10.725   9.167   3.545 -3.4602  0.5738 -1.0697
  599MOL0     H79067  10.528   9.492   4.193 -0.3473  0.0525 -1.0293
  599MOL0     H79068  10.319   9.635   4.276  0.4620  0.7819  1.1560
  600MOL0     O79069  10.390   2.525   9.623  0.2851  0.1511  0.1693
  600MOL0     C79070  10.324   2.422   9.634 -0.2579  0.2352  0.5650
  600MOL0     O79071  10.240   2.371   9.538  1.2385 -0.2650  0.2975
  600MOL0     C79072  10.207   2.420   9.409  0.4917  0.7093 -0.2747
  600MOL0     C79073  10.295   2.503   9.338 -0.6146 -0.2035  0.3607
  600MOL0     C79074  10.258   2.559   9.213  0.1325  0.7855 -0.4328
  600MOL0     C79075  10.136   2.525   9.154  0.0430  0.5341  0.4709
  600MOL0     O79076  10.094   2.566   9.033 -0.3339  0.0749 -0.4876
  600MOL0     C79077  10.197   2.608   8.943  0.3037  0.0196  0.2255
  600MOL0     C79078  10.139   2.638   8.808 -0.0291 -0.5844 -0.6827
  600MOL0     C79079  10.094   2.520   8.724  0.0632  0.4620  0.5230
  600MOL0     C79080  10.208   2.435   8.677 -0.0432  0.3848  0.3205
  600MOL0     C79081  10.148   2.359   8.558  0.1282  0.0398 -0.1003
  600MOL0     C79082  10.251   2.269   8.492 -0.3356  0.7999 -0.4867
  600MOL0     C79083  10.176   2.173   8.394 -1.1314 -0.2568  0.4106
  600MOL0     C79084  10.099   2.250   8.284  0.5351  0.3040 -0.3016
  600MOL0     N79085  10.073   2.162   8.167 -0.2794 -0.9518  0.2227
  600MOL0     C79086  10.024   2.038   8.171  0.1342  0.4819 -0.1330
  600MOL0     C79087   9.989   2.007   8.043 -1.3768 -0.5705 -0.3090
  600MOL0     C79088   9.941   1.879   7.989 -0.9148  0.0831  0.0138
  600MOL0     C79089   9.795   1.893   7.966  0.4016  0.2941  0.9762
  600MOL0     C79090   9.712   1.816   8.067  0.0879 -0.9380 -0.1313
  600MOL0     C79091   9.568   1.845   8.048  0.7146  0.5971  0.6635
  600MOL0     O79092   9.546   1.977   8.106  0.7953 -0.6609  1.0256
  600MOL0     C79093   9.418   2.024   8.111 -0.3599  0.1788  0.0669
  600MOL0     C79094   9.398   2.149   8.180 -0.0610  1.1919  0.6775
  600MOL0     C79095   9.275   2.218   8.170  0.2348 -0.7895 -0.8107
  600MOL0     C79096   9.171   2.164   8.104 -0.1824  0.2050 -0.6527
  600MOL0     C79097   9.040   2.224   8.086 -0.4445  0.4154  0.5372
  600MOL0     O79098   9.023   2.342   8.146  0.0521  0.2766  0.2865
  600MOL0     C79099   8.921   2.423   8.096  0.0604 -0.0671 -0.6817
  600MOL0     C79100   8.793   2.396   8.130  0.5465  0.0303  0.1787
  600MOL0     C79101   8.696   2.480   8.077  0.6132 -0.2349  0.0021
  600MOL0     C79102   8.722   2.587   7.996 -0.3648 -0.1926 -0.4801
  600MOL0     O79103   8.621   2.666   7.963  0.3274  0.6950  0.0937
  600MOL0     C79104   8.574   2.632   7.832  0.0630  0.7614  1.0896
  600MOL0     C79105   8.423   2.637   7.822 -0.3997  0.2697  0.2525
  600MOL0     C79106   8.373   2.584   7.686  0.3594  0.1689  0.1313
  600MOL0     C79107   8.229   2.642   7.668  0.0404 -0.1279  0.4761
  600MOL0     C79108   8.179   2.609   7.529 -0.9899  0.4147  0.2114
  600MOL0     C79109   8.041   2.669   7.502  0.2016 -0.3877 -0.3104
  600MOL0     C79110   8.023   2.685   7.350 -0.1653  0.2399  0.4503
  600MOL0     C79111   7.877   2.713   7.306 -0.0542 -0.2115  0.3650
  600MOL0    Cl79112   7.870   2.737   7.125 -0.7412  0.0358 -0.1112
  600MOL0     C79113   8.852   2.616   7.952 -0.4500 -0.3643 -0.2971
  600MOL0     C79114   8.949   2.532   8.009 -0.7204  0.6783 -0.2198
  600MOL0     O79115   8.948   2.158   8.035 -0.0238 -0.0509  0.3029
  600MOL0     C79116   9.195   2.035   8.044 -0.0431 -0.1503  0.1458
  600MOL0     C79117   9.314   1.970   8.044  0.3546  0.6724  0.3654
  600MOL0     N79118  10.013   2.122   7.963 -0.5970  0.5431  0.2735
  600MOL0     N79119  10.079   2.217   8.045 -0.0982  0.4947  0.1614
  600MOL0     C79120  10.044   2.451   9.226 -0.3840 -0.6412 -0.3565
  600MOL0     C79121  10.083   2.401   9.353 -0.1650 -0.2217 -0.5215
  600MOL0     C79122  10.333   2.365   9.775  0.7899 -0.1768  0.1653
  600MOL0     C79123  10.435   2.401   9.860 -0.2231  0.1930 -0.0230
  600MOL0     C79124  10.451   2.336   9.990  0.5411 -0.9234  0.0667
  600MOL0     C79125  10.354   2.235  10.024  0.2782 -0.2845 -0.3320
  600MOL0     O79126  10.373   2.165  10.142  0.0228 -0.1646 -0.0342
  600MOL0     C79127  10.258   2.138  10.225 -0.5605 -0.4876 -0.2641
  600MOL0     C79128  10.314   2.102  10.367 -0.2551 -0.4316  0.2378
  600MOL0     C79129  10.401   1.977  10.373  0.9455 -0.1152 -0.2731
  600MOL0     C79130  10.436   1.954  10.523 -0.5823 -0.1574  0.1716
  600MOL0     C79131  10.540   1.847  10.524  1.1228 -0.0650 -0.2373
  600MOL0     C79132  10.594   1.740  10.528 -0.4589 -0.5008 -0.2729
  600MOL0     C79133  10.258   2.197   9.933  0.5694 -0.5803 -1.0714
  600MOL0     C79134  10.242   2.264   9.817 -0.4858 -0.5182  0.1067
  600MOL0     H79135  10.390   2.537   9.381 -1.7235  0.4404  2.4543
  600MOL0     H79136  10.322   2.625   9.155  0.5601 -0.2030 -1.1132
  600MOL0     H79137  10.264   2.522   8.940  0.1955 -0.5546  5.2411
  600MOL0     H79138  10.243   2.700   8.982  1.3320  0.0642 -1.0220
  600MOL0     H79139  10.204   2.695   8.741  0.7973 -0.4880  0.1780
  600MOL0     H79140  10.064   2.715   8.829  1.6216  1.6980 -2.5447
  600MOL0     H79141  10.031   2.565   8.647 -1.1950  2.3101  2.5253
  600MOL0     H79142  10.023   2.457   8.779  1.9322 -1.4328  0.9088
  600MOL0     H79143  10.298   2.491   8.648  1.4470 -1.0479  1.8930
  600MOL0     H79144  10.248   2.372   8.758  2.0823  0.0982 -0.8737
  600MOL0     H79145  10.114   2.428   8.480 -0.2611  1.0361  0.9266
  600MOL0     H79146  10.066   2.299   8.597 -0.4285  1.9423  1.8609
  600MOL0     H79147  10.303   2.206   8.565  0.0307  0.2861 -1.1826
  600MOL0     H79148  10.322   2.330   8.436 -0.4973  1.7368  0.3016
  600MOL0     H79149  10.259   2.126   8.341  0.1826  1.4604  0.8330
  600MOL0     H79150  10.115   2.092   8.434  0.5815 -2.6111 -1.4536
  600MOL0     H79151  10.162   2.334   8.252  2.7652 -1.1021  0.1797
  600MOL0     H79152  10.004   2.278   8.330  0.0350 -0.0891 -1.0764
  600MOL0     H79153  10.001   1.973   8.254  2.4194  1.3713  1.2845
  600MOL0     H79154   9.959   1.795   8.057 -1.7261  0.4820  0.7555
  600MOL0     H79155  10.003   1.863   7.901 -2.3789  0.2286 -1.0874
  600MOL0     H79156   9.767   1.868   7.864  3.0031  1.0041  0.0253
  600MOL0     H79157   9.764   1.998   7.972 -0.5834  0.1983 -1.4230
  600MOL0     H79158   9.720   1.709   8.049  1.5332 -0.8610 -0.1004
  600MOL0     H79159   9.731   1.844   8.171 -2.2481 -4.7445  1.5124
  600MOL0     H79160   9.503   1.778   8.106 -0.0979  0.9740  0.2061
  600MOL0     H79161   9.544   1.846   7.941  0.4352 -0.5828  0.6923
  600MOL0     H79162   9.482   2.186   8.239 -1.9653  1.5194  3.4028
  600MOL0     H79163   9.256   2.310   8.225 -2.7570 -1.7559 -0.0458
  600MOL0     H79164   8.778   2.309   8.193 -0.8329 -0.3234 -0.5932
  600MOL0     H79165   8.594   2.455   8.105 -0.3318  0.4628 -2.4895
  600MOL0     H79166   8.599   2.527   7.810  0.6103  1.0609  0.2074
  600MOL0     H79167   8.619   2.693   7.753 -0.3126 -0.5388 -0.1770
  600MOL0     H79168   8.400   2.744   7.832  1.6292  0.8013 -0.2659
  600MOL0     H79169   8.383   2.581   7.907  0.2288  1.8809  1.6640
  600MOL0     H79170   8.370   2.475   7.673  0.4500  0.1855 -0.0268
  600MOL0     H79171   8.432   2.629   7.606  1.8057 -0.5071  0.7916
  600MOL0     H79172   8.162   2.602   7.745  1.3973  0.6469  2.1509
  600MOL0     H79173   8.236   2.750   7.688  0.0554 -0.1909  0.8109
  600MOL0     H79174   8.169   2.501   7.509 -2.0694  0.7489 -1.1914
  600MOL0     H79175   8.242   2.647   7.449  1.3105 -0.9073  1.2829
  600MOL0     H79176   8.050   2.768   7.547 -1.2107 -0.0963 -0.6195
  600MOL0     H79177   7.961   2.609   7.547 -0.6139 -1.1076 -2.5622
  600MOL0     H79178   8.074   2.777   7.320 -2.3664  1.1360 -0.7749
  600MOL0     H79179   8.059   2.593   7.303 -3.8466 -0.4220 -1.3904
  600MOL0     H79180   7.838   2.793   7.370 -1.8556 -1.2134  0.5731
  600MOL0     H79181   7.816   2.628   7.339 -1.8097  1.6327  2.1711
  600MOL0     H79182   8.877   2.706   7.895  1.0253 -0.8370 -0.4411
  600MOL0     H79183   9.051   2.533   7.971 -1.4576 -0.7783 -2.4533
  600MOL0     H79184   9.120   1.995   7.976  0.4671 -0.3791 -0.2930
  600MOL0     H79185   9.328   1.874   7.995  3.3843  0.2438  1.8553
  600MOL0     H79186   9.945   2.450   9.182 -1.2014  4.4110  0.7157
  600MOL0     H79187  10.009   2.356   9.419 -1.5112  2.6319  0.0670
  600MOL0     H79188  10.500   2.482   9.828 -0.3620  0.0860 -0.5854
  600MOL0     H79189  10.532   2.374  10.051  0.1167 -0.3272  0.2751
  600MOL0     H79190  10.200   2.056  10.182  1.6473 -2.9637  1.1906
  600MOL0     H79191  10.198   2.230  10.228  0.0168 -0.1037 -0.3085
  600MOL0     H79192  10.374   2.183  10.410  0.7868 -1.1560  0.1919
  600MOL0     H79193  10.222   2.092  10.426 -1.2825 -0.7723 -1.3472
  600MOL0     H79194  10.488   1.988  10.308  1.5655 -1.2245  0.3233
  600MOL0     H79195  10.342   1.896  10.329 -0.4444  0.8004 -0.1423
  600MOL0     H79196  10.474   2.043  10.574 -0.0871  0.5754 -1.4062
  600MOL0     H79197  10.348   1.927  10.582 -2.2691  4.4635  0.1987
  600MOL0     H79198  10.632   1.640  10.536 -2.1150 -1.0102  5.1938
  600MOL0     H79199  10.193   2.118   9.967 -1.0886  0.7852 -0.9386
  600MOL0     H79200  10.177   2.224   9.740 -1.9841 -0.4229  1.2837
  601MOL0     O79201  10.055  11.072  10.362  0.7104 -0.6556 -0.2402
  601MOL0     C79202   9.975  11.162  10.339 -0.9901 -0.1665  0.9291
  601MOL0     O79203   9.856  11.163  10.372  0.0872  0.1289  0.5303
  601MOL0     C79204   9.788  11.076  10.454  0.5663  1.5367  0.6664
  601MOL0     C79205   9.650  11.067  10.429 -0.6744  0.0780  0.5924
  601MOL0     C79206   9.569  10.996  10.511  0.1653  0.4291 -0.2658
  601MOL0     C79207   9.626  10.914  10.617 -0.4290 -0.2639 -0.4559
  601MOL0     O79208   9.548  10.847  10.706  0.1391  0.0015  0.0428
  601MOL0     C79209   9.407  10.882  10.702 -0.0082 -0.4881 -0.0811
  601MOL0     C79210   9.339  10.826  10.822  0.1746 -0.2963 -0.1236
  601MOL0     C79211   9.199  10.873  10.817 -0.6034 -0.4400 -0.3253
  601MOL0     C79212   9.118  10.803  10.926  0.3012  0.0947 -0.3186
  601MOL0     C79213   9.154  10.844  11.071 -0.1706  0.5106 -0.6178
  601MOL0     C79214   9.059  10.770  11.160  0.4207  0.1440  0.2144
  601MOL0     C79215   9.099  10.795  11.297  0.3029  0.1257 -0.2490
  601MOL0     C79216   9.042  10.699  11.411 -0.0178  0.6750  0.4628
  601MOL0     N79217   8.894  10.706  11.413 -0.3677  0.0174  0.2792
  601MOL0     C79218   8.809  10.801  11.470 -0.0347  0.2112  0.5292
  601MOL0     C79219   8.683  10.746  11.444 -0.6150 -0.5597  0.3816
  601MOL0     C79220   8.552  10.817  11.469  0.4183  0.0598 -1.1408
  601MOL0     C79221   8.484  10.851  11.336 -0.7810 -0.0940 -0.8158
  601MOL0     C79222   8.342  10.911  11.354 -0.8337  0.1874  0.1804
  601MOL0     C79223   8.249  10.813  11.412  1.4820 -0.2584 -0.6964
  601MOL0     O79224   8.137  10.893  11.464 -0.0611 -0.3291  0.0583
  601MOL0     C79225   8.037  10.816  11.524  0.6517 -0.3582 -0.7831
  601MOL0     C79226   8.020  10.676  11.521  0.0693 -0.0689 -0.1167
  601MOL0     C79227   7.915  10.620  11.580  0.8198 -0.1403  0.0815
  601MOL0     C79228   7.815  10.692  11.643  0.1377  0.0299  0.3907
  601MOL0     C79229   7.696  10.620  11.696 -0.4722  1.2786  0.3547
  601MOL0     O79230   7.705  10.486  11.712 -0.3127 -0.0887 -0.1495
  601MOL0     C79231   7.589  10.425  11.754 -1.0277 -0.6251  0.2917
  601MOL0     C79232   7.555  10.443  11.886 -0.6642  0.3814  0.1976
  601MOL0     C79233   7.440  10.380  11.938 -0.4109 -1.0593 -0.5153
  601MOL0     C79234   7.361  10.302  11.856  0.3205 -0.1152  0.9582
  601MOL0     O79235   7.250  10.234  11.895 -0.0001  0.1811  0.4811
  601MOL0     C79236   7.181  10.291  12.012 -1.1100  0.0225 -0.0503
  601MOL0     C79237   7.043  10.236  12.023  0.6732  0.1837  0.4404
  601MOL0     C79238   6.948  10.292  11.916 -1.1047 -0.5347 -0.2587
  601MOL0     C79239   6.806  10.240  11.927 -0.9699 -0.2755 -1.0600
  601MOL0     C79240   6.716  10.276  11.815 -0.0951  0.3599  0.4439
  601MOL0     C79241   6.562  10.260  11.856 -0.5118  0.1542  0.6425
  601MOL0     C79242   6.472  10.290  11.724 -0.0493 -0.3036 -0.1192
  601MOL0     C79243   6.333  10.238  11.733  0.2926 -0.8782  0.8012
  601MOL0    Cl79244   6.235  10.335  11.841  0.3677 -0.2448 -0.3093
  601MOL0     C79245   7.399  10.279  11.723  0.7717  0.8705 -0.6547
  601MOL0     C79246   7.511  10.338  11.674 -0.0686 -0.6386 -0.0343
  601MOL0     O79247   7.599  10.690  11.718 -0.2072  0.1656  0.5520
  601MOL0     C79248   7.826  10.833  11.648 -0.4131 -0.5683 -0.5821
  601MOL0     C79249   7.931  10.896  11.592  0.3585 -0.3098  0.7535
  601MOL0     N79250   8.698  10.637  11.375  0.0020  0.6121  0.2930
  601MOL0     N79251   8.818  10.614  11.349  0.0272  0.8832 -1.0544
  601MOL0     C79252   9.763  10.902  10.621 -0.1940  0.4703 -1.2431
  601MOL0     C79253   9.846  10.988  10.545 -0.7722  0.2893 -0.1199
  601MOL0     C79254  10.040  11.277  10.272  0.4378 -0.1262  0.6317
  601MOL0     C79255  10.167  11.261  10.209 -0.0219 -0.3733  0.4902
  601MOL0     C79256  10.232  11.364  10.137 -0.6410  0.7884 -0.7653
  601MOL0     C79257  10.179  11.490  10.140  0.0153 -0.5933 -0.2303
  601MOL0     O79258  10.260  11.587  10.091 -0.3227  0.3877  0.6986
  601MOL0     C79259  10.261  11.705  10.172  0.1818 -0.6145 -0.3133
  601MOL0     C79260  10.394  11.773  10.149 -0.3345  0.0522  0.0092
  601MOL0     C79261  10.516  11.696  10.193 -0.4774  0.7423 -0.5517
  601MOL0     C79262  10.646  11.753  10.139  0.0843  0.3031  0.1805
  601MOL0     C79263  10.691  11.874  10.205  0.7194 -0.1422  0.7343
  601MOL0     C79264  10.716  11.980  10.249 -0.2782  0.1597 -0.3407
  601MOL0     C79265  10.063  11.516  10.222 -0.2248  0.2366 -0.1168
  601MOL0     C79266   9.986  11.409  10.279 -0.0999  0.3095 -0.7263
  601MOL0     H79267   9.612  11.109  10.336  1.2692  0.2384 -0.1870
  601MOL0     H79268   9.463  10.989  10.488  0.6559  1.4183 -3.1657
  601MOL0     H79269   9.357  10.843  10.613 -0.5618 -0.3279  0.1524
  601MOL0     H79270   9.382  10.989  10.706 -3.9191 -1.2604  2.9657
  601MOL0     H79271   9.389  10.883  10.901  0.4913  1.7313 -1.7300
  601MOL0     H79272   9.355  10.719  10.838  0.8976 -0.4881 -1.8826
  601MOL0     H79273   9.144  10.852  10.725 -0.5695  1.1309 -0.7405
  601MOL0     H79274   9.198  10.983  10.812  0.7794 -0.4479 -4.6273
  601MOL0     H79275   9.010  10.807  10.907  0.1421 -2.3355 -0.2623
  601MOL0     H79276   9.130  10.695  10.917 -0.7282  0.0863 -2.1451
  601MOL0     H79277   9.146  10.951  11.091  0.4411  0.8705 -2.1675
  601MOL0     H79278   9.258  10.815  11.089 -0.1556 -0.4280 -2.0571
  601MOL0     H79279   9.070  10.661  11.152  0.1374 -0.3062  4.0792
  601MOL0     H79280   8.955  10.797  11.142  0.0357 -2.2468 -1.7966
  601MOL0     H79281   9.206  10.775  11.297  0.5555  0.8244 -4.0358
  601MOL0     H79282   9.071  10.897  11.325  0.1786  0.3232 -1.0645
  601MOL0     H79283   9.079  10.729  11.510  1.0102 -2.0156  0.9675
  601MOL0     H79284   9.078  10.598  11.391  1.1099  1.3405 -1.1128
  601MOL0     H79285   8.831  10.902  11.503  1.6192  0.5077 -1.2902
  601MOL0     H79286   8.572  10.904  11.533 -0.0947 -1.7599  1.6948
  601MOL0     H79287   8.501  10.734  11.520  1.0690 -0.1406 -0.7927
  601MOL0     H79288   8.482  10.766  11.268  0.0313 -0.2917 -0.6044
  601MOL0     H79289   8.539  10.930  11.285  1.7881 -1.6069 -0.6132
  601MOL0     H79290   8.350  10.995  11.424  0.4576  2.3524 -2.3622
  601MOL0     H79291   8.301  10.941  11.258  2.2981  1.5991 -0.8576
  601MOL0     H79292   8.290  10.764  11.501  0.3045 -4.5454 -2.2299
  601MOL0     H79293   8.228  10.733  11.340 -0.4668  0.4457 -0.9793
  601MOL0     H79294   8.099  10.613  11.482  1.1712  0.0336  1.8667
  601MOL0     H79295   7.911  10.511  11.584 -0.7775 -0.0742  1.1920
  601MOL0     H79296   7.628  10.503  11.940 -1.8388  0.2511  1.9768
  601MOL0     H79297   7.408  10.386  12.041 -1.8765  1.2716 -1.0227
  601MOL0     H79298   7.188  10.400  12.011  1.2983 -0.0753  0.1024
  601MOL0     H79299   7.232  10.272  12.107 -0.8044  2.3748  0.3157
  601MOL0     H79300   7.013  10.266  12.124 -0.4743 -2.1568  0.8629
  601MOL0     H79301   7.037  10.127  12.026  0.9417  0.1862  2.4216
  601MOL0     H79302   6.976  10.274  11.812 -4.0949  0.0525 -1.2683
  601MOL0     H79303   6.945  10.399  11.939  1.6334 -0.5748  0.5773
  601MOL0     H79304   6.820  10.132  11.925 -2.3137 -0.4890 -0.5127
  601MOL0     H79305   6.758  10.254  12.025 -0.4098  1.6305 -1.0238
  601MOL0     H79306   6.728  10.213  11.726 -3.0603 -0.1402  0.2733
  601MOL0     H79307   6.739  10.379  11.790  0.2647  0.2714  0.4130
  601MOL0     H79308   6.533  10.327  11.937  0.8297  0.6502  0.7255
  601MOL0     H79309   6.539  10.157  11.884  0.6408  0.0715  1.3066
  601MOL0     H79310   6.484  10.394  11.691 -1.1371 -0.0118  0.3924
  601MOL0     H79311   6.524  10.231  11.647  1.4095  0.0525  0.5635
  601MOL0     H79312   6.324  10.135  11.765  2.2979 -2.0884 -2.0499
  601MOL0     H79313   6.287  10.240  11.633  3.1480 -1.8721 -0.6541
  601MOL0     H79314   7.345  10.211  11.659 -2.0125  0.8225  1.5230
  601MOL0     H79315   7.540  10.318  11.571 -0.6628 -3.7835  0.3140
  601MOL0     H79316   7.743  10.890  11.688 -0.3981  1.0721 -2.7373
  601MOL0     H79317   7.952  11.002  11.581  1.1417 -0.6322 -1.5644
  601MOL0     H79318   9.806  10.837  10.697 -0.7475 -0.9366 -2.0934
  601MOL0     H79319   9.949  10.980  10.579 -0.1337  2.1557 -1.4173
  601MOL0     H79320  10.205  11.160  10.220 -1.1843 -0.8534  0.2606
  601MOL0     H79321  10.323  11.342  10.083  0.7415  4.3054 -0.0935
  601MOL0     H79322  10.244  11.693  10.279 -1.8616 -2.4198 -0.7603
  601MOL0     H79323  10.181  11.765  10.126 -1.7018 -2.3006  0.6159
  601MOL0     H79324  10.404  11.795  10.042 -0.6019  3.8787  0.6189
  601MOL0     H79325  10.384  11.872  10.194 -1.6243  1.5665 -3.2722
  601MOL0     H79326  10.494  11.592  10.168 -1.4716  1.3431 -2.3729
  601MOL0     H79327  10.507  11.697  10.302 -0.8933  0.0474 -0.5759
  601MOL0     H79328  10.725  11.678  10.147  0.6650  0.0661 -4.5765
  601MOL0     H79329  10.631  11.764  10.031  0.9972 -1.8289 -0.2139
  601MOL0     H79330  10.734  12.076  10.294  0.1346  0.4362 -1.0861
  601MOL0     H79331  10.029  11.617  10.242  1.9946  0.8608  0.8010
  601MOL0     H79332   9.897  11.426  10.339  0.6215  0.5799  0.3150
  602MOL0     O79333   2.687   0.577   0.519 -0.2180 -0.3628  0.6923
  602MOL0     C79334   2.771   0.649   0.570  0.2566 -0.3856 -0.7882
  602MOL0     O79335   2.794   0.672   0.702  0.0043 -0.5502  0.2169
  602MOL0     C79336   2.709   0.615   0.788  0.0788 -0.3395  0.3589
  602MOL0     C79337   2.591   0.683   0.812  0.7606  0.4536 -0.0409
  602MOL0     C79338   2.493   0.610   0.886  0.4752  1.2434  0.9211
  602MOL0     C79339   2.514   0.480   0.939 -0.1086 -0.9692  0.2751
  602MOL0     O79340   2.408   0.421   1.010 -0.0004  0.7664  0.7648
  602MOL0     C79341   2.396   0.280   0.990  0.0177  0.4703  0.0086
  602MOL0     C79342   2.271   0.248   0.909 -0.0549  0.2450 -0.0360
  602MOL0     C79343   2.266   0.318   0.778 -0.3395 -0.6574 -0.3706
  602MOL0     C79344   2.390   0.285   0.695 -0.1930  0.0118  0.5020
  602MOL0     C79345   2.377   0.346   0.552 -0.7142  0.6952  0.8894
  602MOL0     C79346   2.323   0.485   0.532  0.3771 -0.7586  0.9132
  602MOL0     C79347   2.293   0.517   0.389  0.3061  0.2757 -0.0297
  602MOL0     C79348   2.408   0.518   0.291  0.5937 -0.4109 -0.4267
  602MOL0     N79349   2.349   0.535   0.156  1.0346  0.3259  0.0617
  602MOL0     C79350   2.320   0.430   0.069 -0.3130 -0.4827 -0.4284
  602MOL0     C79351   2.293   0.489  -0.043 -0.1392 -0.0471 -0.0995
  602MOL0     C79352   2.262   0.426  -0.174 -0.1796  1.2686 -0.2410
  602MOL0     C79353   2.120   0.375  -0.199  0.3296  0.0964  0.6733
  602MOL0     C79354   2.074   0.246  -0.130 -0.3848 -0.1798 -0.0796
  602MOL0     C79355   1.922   0.226  -0.161  0.5299 -0.6278 -0.0483
  602MOL0     O79356   1.862   0.154  -0.055 -0.0197  0.1407  0.1782
  602MOL0     C79357   1.722   0.156  -0.042  0.5177 -0.5189  0.0556
  602MOL0     C79358   1.668   0.069   0.056  0.2069 -1.1230 -0.3376
  602MOL0     C79359   1.531   0.068   0.081 -0.7898  0.3732  0.8956
  602MOL0     C79360   1.451   0.161   0.008  0.8942 -0.4263  0.5705
  602MOL0     C79361   1.306   0.168   0.042 -1.4782 -0.9670  0.3433
  602MOL0     O79362   1.250   0.285   0.028 -0.8001  0.7723  1.0832
  602MOL0     C79363   1.113   0.301   0.042  0.0584 -0.1653 -0.3293
  602MOL0     C79364   1.022   0.210   0.095 -0.2131  0.1501  1.0514
  602MOL0     C79365   0.883   0.236   0.084  0.2756  0.0194  0.3964
  602MOL0     C79366   0.833   0.357   0.038 -0.1751 -0.7353  0.9042
  602MOL0     O79367   0.694   0.399   0.034 -0.8374  0.6342  0.2725
  602MOL0     C79368   0.610   0.327   0.122  0.2793 -0.8537  0.2402
  602MOL0     C79369   0.465   0.374   0.081 -0.2365  0.5182  0.0801
  602MOL0     C79370   0.364   0.309   0.180 -0.1184  0.6638 -0.6555
  602MOL0     C79371   0.216   0.315   0.127 -0.3785  0.0433  0.0816
  602MOL0     C79372   0.129   0.224   0.208  0.6282  0.9260 -0.5771
  602MOL0     C79373  -0.014   0.212   0.164 -0.2803  0.6357 -1.0646
  602MOL0     C79374  -0.091   0.345   0.197 -0.4128  0.5124 -0.2204
  602MOL0     C79375  -0.239   0.322   0.184 -0.7448 -0.2359  0.3015
  602MOL0    Cl79376  -0.312   0.255   0.324  0.1074  0.0882 -0.0633
  602MOL0     C79377   0.913   0.441  -0.020 -0.0334  0.2650  0.2625
  602MOL0     C79378   1.048   0.416  -0.021 -0.0513  0.0341 -0.4464
  602MOL0     O79379   1.252   0.059   0.072 -0.1289 -0.2621 -0.4625
  602MOL0     C79380   1.504   0.232  -0.101  0.3955 -0.1947  0.0748
  602MOL0     C79381   1.639   0.231  -0.127  0.7569  0.9132  0.4960
  602MOL0     N79382   2.287   0.627  -0.034  0.2747  0.3603  0.2398
  602MOL0     N79383   2.313   0.653   0.089 -0.1300  0.1699  0.8840
  602MOL0     C79384   2.643   0.428   0.930 -0.8572 -0.1050 -0.2410
  602MOL0     C79385   2.738   0.492   0.853  0.2745 -0.7031  0.5171
  602MOL0     C79386   2.863   0.718   0.475 -0.2361 -0.2249 -0.2701
  602MOL0     C79387   3.004   0.730   0.508  0.8859 -0.6709 -0.4171
  602MOL0     C79388   3.091   0.790   0.413 -0.8575  0.9026  0.8026
  602MOL0     C79389   3.042   0.813   0.284  0.2327 -0.2633 -0.2757
  602MOL0     O79390   3.140   0.865   0.200 -0.3003 -0.4678 -0.0484
  602MOL0     C79391   3.121   0.890   0.061  0.8224 -0.4109 -0.3343
  602MOL0     C79392   3.232   0.961  -0.011  0.4051 -0.0109 -0.7785
  602MOL0     C79393   3.372   0.890   0.011  0.1892  0.5868 -0.3493
  602MOL0     C79394   3.368   0.734  -0.027 -0.7031 -0.0772 -0.0355
  602MOL0     C79395   3.510   0.697  -0.015  0.6117  0.1716  0.5725
  602MOL0     C79396   3.631   0.682  -0.008 -0.1283  0.0461 -0.3183
  602MOL0     C79397   2.911   0.804   0.246  1.0347  0.1905 -0.5128
  602MOL0     C79398   2.816   0.753   0.345  0.1066  0.1196  0.0714
  602MOL0     H79399   2.559   0.778   0.771  2.0819 -0.3376 -3.1252
  602MOL0     H79400   2.392   0.647   0.902 -0.3878 -1.0175  1.1665
  602MOL0     H79401   2.400   0.225   1.085 -1.0263 -1.1726 -0.8612
  602MOL0     H79402   2.484   0.241   0.938  0.5951 -0.2888  1.4706
  602MOL0     H79403   2.194   0.285   0.976 -2.3345 -0.3131 -2.1812
  602MOL0     H79404   2.257   0.141   0.893 -1.1412  0.7715 -3.7759
  602MOL0     H79405   2.246   0.425   0.786 -1.8182 -1.0328  1.7229
  602MOL0     H79406   2.183   0.281   0.717 -0.8880  1.4290 -0.9835
  602MOL0     H79407   2.481   0.325   0.740 -1.3359  0.6605  2.3779
  602MOL0     H79408   2.396   0.176   0.690 -1.9929 -0.0577 -1.2884
  602MOL0     H79409   2.312   0.287   0.487  1.3685  1.2032 -1.8956
  602MOL0     H79410   2.472   0.334   0.498 -0.7808 -2.3519  1.2637
  602MOL0     H79411   2.399   0.560   0.557  0.7120  0.1257 -2.2782
  602MOL0     H79412   2.233   0.506   0.591  1.1018 -1.5357  2.3534
  602MOL0     H79413   2.225   0.437   0.359 -1.8235  1.2510  1.8192
  602MOL0     H79414   2.238   0.611   0.396 -0.6153 -0.2811  0.4021
  602MOL0     H79415   2.455   0.419   0.292  0.0437 -0.7767  2.9575
  602MOL0     H79416   2.484   0.593   0.314  0.3690 -0.8141  1.9092
  602MOL0     H79417   2.316   0.322   0.083  0.7262 -1.1659 -4.3369
  602MOL0     H79418   2.338   0.352  -0.200 -0.9070  0.0754  0.9043
  602MOL0     H79419   2.273   0.507  -0.247  1.1026 -0.1082 -1.6361
  602MOL0     H79420   2.099   0.348  -0.303 -1.0012  3.0827  0.0565
  602MOL0     H79421   2.059   0.460  -0.168 -0.4166 -1.1866  2.9584
  602MOL0     H79422   2.130   0.161  -0.170  0.0454  0.1257 -0.1383
  602MOL0     H79423   2.092   0.254  -0.022 -1.6423 -2.8737  0.4169
  602MOL0     H79424   1.921   0.181  -0.261  2.6934  0.1326 -0.4804
  602MOL0     H79425   1.886   0.329  -0.164  1.5516 -0.2842 -1.8492
  602MOL0     H79426   1.728  -0.007   0.105 -0.8667 -1.3852  0.6088
  602MOL0     H79427   1.486   0.019   0.166 -0.9835  0.2491  0.7214
  602MOL0     H79428   1.053   0.123   0.152 -0.4511  0.2328  1.3108
  602MOL0     H79429   0.816   0.165   0.131  0.7666  0.3884  1.7138
  602MOL0     H79430   0.634   0.366   0.221  1.5606 -0.7960 -0.0703
  602MOL0     H79431   0.616   0.218   0.116 -1.0987 -0.8893 -2.4485
  602MOL0     H79432   0.449   0.330  -0.018 -0.6145 -3.7019  1.7965
  602MOL0     H79433   0.452   0.482   0.077  0.3645  0.7047  2.0570
  602MOL0     H79434   0.380   0.350   0.280 -0.6841 -0.2198 -0.1829
  602MOL0     H79435   0.404   0.209   0.199  0.9936  1.5374  2.3018
  602MOL0     H79436   0.184   0.419   0.132 -3.7058 -0.6877 -2.6126
  602MOL0     H79437   0.209   0.285   0.022  0.9772  0.0141 -0.0180
  602MOL0     H79438   0.135   0.245   0.315  1.0788 -2.3224  0.1364
  602MOL0     H79439   0.175   0.127   0.189 -0.6874  0.5948 -2.3949
  602MOL0     H79440  -0.063   0.138   0.226  1.8990  0.8844  1.1221
  602MOL0     H79441  -0.013   0.188   0.057 -1.7037 -2.5652 -0.4593
  602MOL0     H79442  -0.074   0.383   0.298  0.6801  0.5926 -0.4250
  602MOL0     H79443  -0.067   0.425   0.126  0.2498 -0.3042 -0.9433
  602MOL0     H79444  -0.254   0.265   0.092 -2.3420 -1.7613  1.4504
  602MOL0     H79445  -0.279   0.424   0.171 -0.4076  0.0501  1.4302
  602MOL0     H79446   0.866   0.526  -0.068 -1.2418 -0.3197  0.3542
  602MOL0     H79447   1.102   0.487  -0.082  1.4527  2.2584  3.1367
  602MOL0     H79448   1.440   0.299  -0.158 -1.3420  1.2856  3.4425
  602MOL0     H79449   1.680   0.298  -0.202 -0.8883 -0.5070 -1.7867
  602MOL0     H79450   2.661   0.334   0.981  0.6726  1.0337  1.4699
  602MOL0     H79451   2.838   0.453   0.840  0.5249 -0.9253  2.7561
  602MOL0     H79452   3.031   0.700   0.609  1.8104  3.7068  0.8556
  602MOL0     H79453   3.194   0.808   0.440 -0.9893  0.6269  1.5041
  602MOL0     H79454   3.032   0.953   0.055 -0.1431 -1.7792 -0.7911
  602MOL0     H79455   3.088   0.797   0.013 -0.4140 -1.5236  2.4954
  602MOL0     H79456   3.222   0.961  -0.120 -0.5278 -1.9763 -0.7243
  602MOL0     H79457   3.243   1.059   0.038  0.7791 -0.5922  0.3436
  602MOL0     H79458   3.402   0.903   0.115 -0.1601  3.8934 -0.5511
  602MOL0     H79459   3.446   0.934  -0.057 -1.0500  1.1204 -1.4008
  602MOL0     H79460   3.304   0.688   0.049 -0.9204  3.1394  1.9296
  602MOL0     H79461   3.337   0.702  -0.127  1.0545 -1.7752 -0.1044
  602MOL0     H79462   3.733   0.657  -0.029 -0.2230 -0.6560  0.0432
  602MOL0     H79463   2.879   0.824   0.144  0.2490  1.9249  0.0440
  602MOL0     H79464   2.716   0.742   0.304  0.1089 -0.7246  0.2820
  603MOL0     O79465   2.619   7.319   0.970 -0.3411  0.7468 -0.4383
  603MOL0     C79466   2.592   7.306   0.847  1.0444 -0.9039 -0.3719
  603MOL0     O79467   2.466   7.276   0.801  0.3341 -0.3888  0.2204
  603MOL0     C79468   2.358   7.223   0.884 -1.7344  1.2205  0.1711
  603MOL0     C79469   2.375   7.149   1.007  0.2544 -0.3250 -0.2188
  603MOL0     C79470   2.263   7.120   1.085 -0.1076 -0.6938 -0.5055
  603MOL0     C79471   2.132   7.131   1.040  0.2659  0.0096 -0.0652
  603MOL0     O79472   2.031   7.089   1.129  0.1006 -0.6930  0.6876
  603MOL0     C79473   1.898   7.091   1.077  0.0805  0.6173 -0.4580
  603MOL0     C79474   1.821   7.031   1.202  1.2662 -0.2635 -0.1685
  603MOL0     C79475   1.683   6.985   1.146  0.7124  0.6130  0.4027
  603MOL0     C79476   1.584   6.988   1.264  1.2927  0.2643  0.4573
  603MOL0     C79477   1.438   6.942   1.215  0.5809  0.7305 -0.3054
  603MOL0     C79478   1.366   7.038   1.126 -0.0951  0.6937  0.3089
  603MOL0     C79479   1.229   6.991   1.092 -0.5312 -0.1543 -0.6174
  603MOL0     C79480   1.126   7.047   1.196 -0.4764 -0.1991 -0.1639
  603MOL0     N79481   0.986   7.029   1.148 -0.7187  0.4109  0.7224
  603MOL0     C79482   0.912   6.914   1.140 -0.7066  0.3436 -0.2136
  603MOL0     C79483   0.805   6.952   1.067  1.4111  1.0529  0.5952
  603MOL0     C79484   0.688   6.866   1.020 -0.4661 -0.3613  0.4079
  603MOL0     C79485   0.559   6.947   0.998 -0.7007  0.2297  0.0009
  603MOL0     C79486   0.455   6.876   0.901 -0.9082 -0.6444  0.0150
  603MOL0     C79487   0.326   6.959   0.871 -0.1817  0.5777  0.2860
  603MOL0     O79488   0.270   7.002   1.002  0.1897  0.6427  0.6165
  603MOL0     C79489   0.141   7.047   1.004  0.5662  0.4047 -1.0810
  603MOL0     C79490   0.061   7.088   0.888  0.6374  0.2897 -0.3419
  603MOL0     C79491  -0.080   7.127   0.907  0.0307 -0.3370 -0.0774
  603MOL0     C79492  -0.133   7.141   1.038 -0.2568 -0.3117 -0.5425
  603MOL0     C79493  -0.271   7.164   1.067  0.4337 -0.6287  0.5513
  603MOL0     O79494  -0.314   7.178   1.189  0.6899  0.5482 -0.0910
  603MOL0     C79495  -0.434   7.235   1.211 -0.1851 -0.5034  0.0932
  603MOL0     C79496  -0.441   7.364   1.246  0.0943 -0.1816 -0.7434
  603MOL0     C79497  -0.560   7.420   1.295  0.6740 -0.0698  0.9596
  603MOL0     C79498  -0.682   7.345   1.297  0.0085 -0.1129  0.7873
  603MOL0     O79499  -0.805   7.402   1.337 -0.6579 -0.2239 -0.2800
  603MOL0     C79500  -0.915   7.316   1.345  0.6411 -0.1840 -0.3872
  603MOL0     C79501  -1.034   7.395   1.404 -0.1156 -0.3597 -0.0632
  603MOL0     C79502  -1.019   7.448   1.553  0.0576  0.9666  0.7056
  603MOL0     C79503  -1.145   7.500   1.613  1.1552  0.0529 -0.6698
  603MOL0     C79504  -1.154   7.530   1.759  1.3108 -0.5822  0.4384
  603MOL0     C79505  -1.293   7.592   1.793  0.1603  0.4156  0.3792
  603MOL0     C79506  -1.312   7.606   1.948 -0.4650  0.0581 -0.3768
  603MOL0     C79507  -1.458   7.639   1.979 -0.5633 -0.6090 -0.5342
  603MOL0    Cl79508  -1.512   7.777   1.894  0.0032  0.5486 -0.7314
  603MOL0     C79509  -0.675   7.202   1.263 -0.0980 -1.1436  0.5848
  603MOL0     C79510  -0.549   7.156   1.214  0.3181 -0.4029 -0.2827
  603MOL0     O79511  -0.342   7.154   0.970  0.1201 -0.0902  0.5011
  603MOL0     C79512  -0.051   7.103   1.147  0.2814  0.1783  0.1402
  603MOL0     C79513   0.081   7.064   1.130  0.1495  1.0007 -0.0037
  603MOL0     N79514   0.827   7.080   1.020  0.9309  0.1870 -0.1029
  603MOL0     N79515   0.932   7.124   1.073 -0.4166 -0.6797  0.2608
  603MOL0     C79516   2.108   7.191   0.913  0.9623 -0.2360 -0.6606
  603MOL0     C79517   2.224   7.250   0.848  0.0974  0.4057 -0.4698
  603MOL0     C79518   2.690   7.364   0.752  0.7704 -1.0436 -0.6673
  603MOL0     C79519   2.814   7.400   0.797 -1.3144  0.0235  0.2958
  603MOL0     C79520   2.907   7.457   0.707  0.1293  0.2296 -0.8028
  603MOL0     C79521   2.869   7.490   0.579  0.2465 -0.9259 -0.2545
  603MOL0     O79522   2.966   7.569   0.508  0.3770  0.7312  0.8312
  603MOL0     C79523   2.933   7.612   0.372  0.2517 -0.1230 -0.5932
  603MOL0     C79524   2.958   7.518   0.259 -0.4846 -0.0486 -0.1475
  603MOL0     C79525   2.892   7.556   0.129  0.0086  0.2356 -1.2764
  603MOL0     C79526   2.959   7.488   0.018  0.1055  0.0688  0.2114
  603MOL0     C79527   2.929   7.350   0.024 -0.0762 -0.2065  0.3729
  603MOL0     C79528   2.924   7.229   0.022  0.4001 -0.3200  0.9143
  603MOL0     C79529   2.746   7.439   0.533 -0.5705 -1.3310 -0.4391
  603MOL0     C79530   2.659   7.377   0.619  0.1585  0.1401 -0.9636
  603MOL0     H79531   2.467   7.125   1.059 -1.2828 -2.5778  1.6738
  603MOL0     H79532   2.287   7.074   1.180  0.4337  2.2939  0.9032
  603MOL0     H79533   1.884   7.025   0.991 -1.1920  0.3395 -0.0645
  603MOL0     H79534   1.860   7.188   1.044 -0.8424  0.8529  1.1752
  603MOL0     H79535   1.805   7.112   1.274  0.9300 -0.7045  0.2585
  603MOL0     H79536   1.873   6.942   1.239 -0.7848 -1.3360  0.2972
  603MOL0     H79537   1.691   6.882   1.110 -0.3767 -0.6458  3.4985
  603MOL0     H79538   1.648   7.050   1.065  0.0547  1.9224  1.7092
  603MOL0     H79539   1.608   6.913   1.340 -2.8961 -0.3958  1.3900
  603MOL0     H79540   1.591   7.087   1.309  0.0037 -0.0845  1.4844
  603MOL0     H79541   1.374   6.933   1.303  4.8731 -1.8697  2.9512
  603MOL0     H79542   1.443   6.843   1.170  0.4048  0.7518 -0.3739
  603MOL0     H79543   1.429   7.041   1.036  2.7252 -4.3815  1.7516
  603MOL0     H79544   1.366   7.140   1.165  0.5661  0.6834  0.3493
  603MOL0     H79545   1.196   7.019   0.992  0.0177 -0.3610 -0.8537
  603MOL0     H79546   1.226   6.883   1.108 -0.0239 -0.0025  0.6520
  603MOL0     H79547   1.151   7.148   1.228 -0.8369 -0.6877  1.7948
  603MOL0     H79548   1.142   6.983   1.283 -1.6515 -2.5065 -1.5507
  603MOL0     H79549   0.917   6.811   1.176 -0.2129  0.2042 -0.6677
  603MOL0     H79550   0.670   6.778   1.083 -1.5022 -0.6440 -0.2564
  603MOL0     H79551   0.718   6.845   0.917  1.0438  1.3477  0.4326
  603MOL0     H79552   0.590   7.043   0.955 -0.6227  0.1779 -0.0583
  603MOL0     H79553   0.499   6.963   1.088 -1.2140 -1.5904  0.0351
  603MOL0     H79554   0.511   6.856   0.810 -0.6304 -0.4845  0.1481
  603MOL0     H79555   0.433   6.777   0.942  0.7667 -0.2485  2.0346
  603MOL0     H79556   0.253   6.890   0.827 -0.3726 -2.2039  4.3814
  603MOL0     H79557   0.353   7.040   0.803 -0.5732  0.9908  0.6132
  603MOL0     H79558   0.099   7.101   0.787  2.0744 -0.1590  0.1172
  603MOL0     H79559  -0.135   7.148   0.816 -0.0911  0.8373  0.2459
  603MOL0     H79560  -0.344   7.412   1.257 -1.2668  2.3660  1.3192
  603MOL0     H79561  -0.561   7.524   1.327  1.1490  0.1159  0.3679
  603MOL0     H79562  -0.885   7.246   1.424  2.4540  0.7300 -0.2071
  603MOL0     H79563  -0.949   7.268   1.253 -1.7511 -0.5936  0.6267
  603MOL0     H79564  -1.131   7.345   1.399 -0.1605 -0.1383 -2.9953
  603MOL0     H79565  -1.042   7.483   1.339  1.8635  1.0727  1.4859
  603MOL0     H79566  -0.954   7.536   1.542 -3.3216  3.5759  0.1828
  603MOL0     H79567  -0.969   7.378   1.620 -2.0451  0.3839  1.7109
  603MOL0     H79568  -1.192   7.581   1.556  0.0984  0.8313  1.2031
  603MOL0     H79569  -1.219   7.419   1.606  2.6836 -1.5757  1.0597
  603MOL0     H79570  -1.079   7.609   1.767 -0.0647  1.2646 -2.8839
  603MOL0     H79571  -1.137   7.443   1.824  0.4201 -0.1742  1.2473
  603MOL0     H79572  -1.375   7.531   1.756  1.8190 -2.6600  1.4715
  603MOL0     H79573  -1.295   7.688   1.740 -0.5231 -1.3817 -3.1655
  603MOL0     H79574  -1.287   7.508   1.990  1.2604  0.1600 -1.0697
  603MOL0     H79575  -1.243   7.680   1.990 -2.1753  0.0919  2.6034
  603MOL0     H79576  -1.454   7.656   2.087  0.8878  0.5392 -0.7408
  603MOL0     H79577  -1.524   7.552   1.966 -0.8429 -0.3723 -0.7013
  603MOL0     H79578  -0.753   7.126   1.266 -0.2231 -1.0453 -0.0949
  603MOL0     H79579  -0.535   7.049   1.201 -2.0783 -1.3834  3.5499
  603MOL0     H79580  -0.090   7.110   1.248 -1.5433  1.3521 -0.5989
  603MOL0     H79581   0.142   7.036   1.216  1.8601  1.0742 -1.1466
  603MOL0     H79582   2.011   7.210   0.869 -0.3789  2.8391  3.0384
  603MOL0     H79583   2.207   7.299   0.753  0.9375 -0.3564 -1.0326
  603MOL0     H79584   2.843   7.386   0.901 -1.8865  4.1904  1.1891
  603MOL0     H79585   3.009   7.491   0.722  0.5124  0.0102 -2.6682
  603MOL0     H79586   2.981   7.710   0.358  0.6797 -0.6915 -4.0007
  603MOL0     H79587   2.826   7.634   0.364  0.3853  0.5011 -0.7567
  603MOL0     H79588   3.065   7.531   0.239 -0.7028  0.4733 -1.0117
  603MOL0     H79589   2.931   7.417   0.291 -0.8075 -0.0712 -0.4943
  603MOL0     H79590   2.898   7.665   0.116  0.1817  0.0155 -3.3152
  603MOL0     H79591   2.785   7.537   0.138 -0.2987  2.1858 -0.2365
  603MOL0     H79592   2.916   7.532  -0.073  1.9801  1.3593 -0.1145
  603MOL0     H79593   3.066   7.510   0.006 -0.2387  0.6603 -2.6867
  603MOL0     H79594   2.951   7.126   0.038 -2.0233 -1.1993 -0.2069
  603MOL0     H79595   2.718   7.448   0.429 -1.4502  2.3376 -0.0057
  603MOL0     H79596   2.562   7.335   0.590 -0.3916  0.4111  0.4166
  604MOL0     O79597   8.678   3.846   9.744  0.7405  0.1142  0.3883
  604MOL0     C79598   8.636   3.912   9.649  0.0885 -0.1700 -0.6305
  604MOL0     O79599   8.510   3.905   9.592 -0.6360 -0.4779 -0.1616
  604MOL0     C79600   8.419   3.827   9.656  0.2788  0.1151 -0.1249
  604MOL0     C79601   8.383   3.858   9.789  0.5037  0.5417  0.4094
  604MOL0     C79602   8.281   3.797   9.860  0.5156 -0.8227  0.0245
  604MOL0     C79603   8.228   3.676   9.804  0.1570 -0.3247 -0.0609
  604MOL0     O79604   8.152   3.585   9.870  0.0339  0.3083 -0.3381
  604MOL0     C79605   8.089   3.620   9.998 -0.1951  0.5037  0.6095
  604MOL0     C79606   7.995   3.495  10.030  0.7876 -0.4794  0.0461
  604MOL0     C79607   7.900   3.514  10.148  0.1223  0.3333  0.1936
  604MOL0     C79608   7.819   3.387  10.181 -0.8082 -0.2210  1.0565
  604MOL0     C79609   7.773   3.382  10.331  0.4876 -0.3376 -0.2922
  604MOL0     C79610   7.664   3.273  10.338  0.2083  0.0622  0.7955
  604MOL0     C79611   7.615   3.229  10.484  0.4466  0.0005 -0.2215
  604MOL0     C79612   7.587   3.346  10.580 -0.2130 -0.5675  0.0015
  604MOL0     N79613   7.598   3.298  10.719  0.6030 -0.0024  0.4042
  604MOL0     C79614   7.531   3.200  10.778 -0.3012  0.5399 -0.7383
  604MOL0     C79615   7.569   3.202  10.914  0.4336  0.3662  0.9489
  604MOL0     C79616   7.513   3.111  11.015 -0.2667 -0.2919 -0.3305
  604MOL0     C79617   7.387   3.163  11.081  0.3827  1.0154  0.5483
  604MOL0     C79618   7.355   3.087  11.205 -0.2179  0.5332 -1.1716
  604MOL0     C79619   7.230   3.129  11.276 -0.0112 -1.2454  0.0371
  604MOL0     O79620   7.235   3.075  11.407  0.0826 -0.5036 -0.0063
  604MOL0     C79621   7.115   3.062  11.462  0.7434 -0.0348  0.0007
  604MOL0     C79622   7.041   3.176  11.495 -0.1760  0.1982 -0.1480
  604MOL0     C79623   6.921   3.166  11.550  0.9297  0.2709  0.1456
  604MOL0     C79624   6.872   3.035  11.589 -0.0842 -0.3863 -0.1733
  604MOL0     C79625   6.735   3.023  11.649 -0.4420  0.1016 -0.0281
  604MOL0     O79626   6.688   2.904  11.674  0.3602  0.7498  0.3375
  604MOL0     C79627   6.569   2.884  11.742  0.0894 -0.7460  0.0616
  604MOL0     C79628   6.547   2.754  11.773  0.3733 -0.4275 -0.6946
  604MOL0     C79629   6.434   2.704  11.835 -0.4641 -0.0934  0.0233
  604MOL0     C79630   6.329   2.786  11.862 -0.0317 -0.4284  0.1274
  604MOL0     O79631   6.206   2.754  11.901  0.1737  0.7018  0.3605
  604MOL0     C79632   6.164   2.624  11.954 -0.7354 -0.4392  0.1082
  604MOL0     C79633   6.039   2.648  12.039  0.3438  0.3329  0.4831
  604MOL0     C79634   5.984   2.522  12.085  1.0715 -0.3210 -0.2736
  604MOL0     C79635   5.851   2.554  12.167  0.2148  0.3860 -0.0551
  604MOL0     C79636   5.763   2.430  12.202 -0.0570 -0.0391  0.2440
  604MOL0     C79637   5.658   2.474  12.306 -1.0858 -0.3312 -0.5561
  604MOL0     C79638   5.586   2.348  12.346  0.8502  0.0416  0.5509
  604MOL0     C79639   5.453   2.386  12.416 -0.6858 -0.6907  0.4503
  604MOL0    Cl79640   5.323   2.268  12.381  0.0308  0.3003 -0.0560
  604MOL0     C79641   6.345   2.920  11.827 -0.7075 -0.2015  0.8426
  604MOL0     C79642   6.463   2.973  11.771 -0.0348 -0.0429 -0.0655
  604MOL0     O79643   6.692   3.130  11.697  0.5607 -0.2984 -0.0247
  604MOL0     C79644   6.946   2.922  11.557  0.3464  0.2993  0.0961
  604MOL0     C79645   7.067   2.936  11.489 -0.3313 -0.3359  0.5482
  604MOL0     N79646   7.650   3.308  10.936  0.5346  0.8111 -0.1090
  604MOL0     N79647   7.670   3.357  10.816  0.6028  1.0749 -0.3388
  604MOL0     C79648   8.246   3.662   9.667 -0.2429  0.1928 -0.1581
  604MOL0     C79649   8.349   3.729   9.594  0.2043  0.8725 -0.0511
  604MOL0     C79650   8.739   4.019   9.611  0.1750  0.6387 -0.3484
  604MOL0     C79651   8.857   4.048   9.686  0.5058 -0.0837  0.2844
  604MOL0     C79652   8.962   4.115   9.621 -0.1797  0.2900  0.0268
  604MOL0     C79653   8.948   4.175   9.496 -0.5797 -1.1745  0.4816
  604MOL0     O79654   9.051   4.246   9.444 -0.4364 -0.0399 -0.2278
  604MOL0     C79655   9.045   4.295   9.317 -0.3805 -0.3747  0.6132
  604MOL0     C79656   8.968   4.427   9.318  0.3023  0.7797 -0.6563
  604MOL0     C79657   8.943   4.455   9.170  0.1506 -0.4831 -0.7382
  604MOL0     C79658   8.872   4.589   9.154 -0.4002 -0.3773  0.3242
  604MOL0     C79659   8.873   4.614   9.007 -0.0480 -0.1701 -0.1786
  604MOL0     C79660   8.862   4.633   8.886 -0.9541 -0.4534 -0.1510
  604MOL0     C79661   8.821   4.153   9.438 -0.0771 -0.7179  0.6493
  604MOL0     C79662   8.721   4.074   9.488 -0.2665  0.2664  0.4972
  604MOL0     H79663   8.439   3.935   9.840  0.5331  0.2160  0.8814
  604MOL0     H79664   8.262   3.815   9.965 -1.0770  2.5395 -0.7209
  604MOL0     H79665   8.026   3.708   9.983 -0.9301  0.0704  1.0752
  604MOL0     H79666   8.160   3.637  10.080 -1.2955  1.9448  1.3070
  604MOL0     H79667   8.061   3.413  10.059  0.7054 -0.5691 -0.0170
  604MOL0     H79668   7.937   3.460   9.944 -0.4234  0.8206  0.3030
  604MOL0     H79669   7.834   3.598  10.125  0.7878  1.9484  3.5729
  604MOL0     H79670   7.968   3.543  10.229  1.4294  2.0075 -1.4089
  604MOL0     H79671   7.731   3.378  10.116  0.2166 -1.5005 -0.2399
  604MOL0     H79672   7.890   3.305  10.163  0.9078  0.9963  1.9972
  604MOL0     H79673   7.727   3.480  10.347  0.8741  0.5504 -3.7756
  604MOL0     H79674   7.854   3.360  10.401 -1.4081 -2.6211  1.3624
  604MOL0     H79675   7.707   3.193  10.277  1.6332  1.8117 -0.6544
  604MOL0     H79676   7.577   3.319  10.291  0.4542 -0.0391  0.2309
  604MOL0     H79677   7.524   3.173  10.461  1.2449 -0.2783 -3.0807
  604MOL0     H79678   7.693   3.169  10.532  2.4570  0.9797 -2.0893
  604MOL0     H79679   7.482   3.374  10.570 -0.9791 -3.3175 -0.2534
  604MOL0     H79680   7.656   3.430  10.565 -0.8970  0.1588  0.7758
  604MOL0     H79681   7.459   3.139  10.724  0.0706  0.3738 -1.0493
  604MOL0     H79682   7.595   3.086  11.082  0.4819  1.7477 -0.3927
  604MOL0     H79683   7.481   3.020  10.963  0.7363 -1.5923  1.2425
  604MOL0     H79684   7.302   3.160  11.013 -0.4825  1.9283  1.5459
  604MOL0     H79685   7.392   3.271  11.098 -2.6237  2.0407 -3.5968
  604MOL0     H79686   7.332   2.987  11.166 -0.5522  0.8087 -1.7034
  604MOL0     H79687   7.446   3.086  11.266 -1.2441  1.8273  0.4589
  604MOL0     H79688   7.144   3.076  11.233 -2.4985  1.5659  1.2306
  604MOL0     H79689   7.212   3.236  11.274 -3.4668 -1.6551  1.9543
  604MOL0     H79690   7.077   3.275  11.468  1.7822  0.1898  2.0575
  604MOL0     H79691   6.857   3.253  11.559 -2.7293 -2.2003  0.5126
  604MOL0     H79692   6.622   2.684  11.737  0.6988  0.3726 -1.6110
  604MOL0     H79693   6.433   2.597  11.852  1.6656 -0.3111 -0.8826
  604MOL0     H79694   6.241   2.587  12.022  0.4614  0.7489 -0.5513
  604MOL0     H79695   6.129   2.560  11.873  0.3666 -0.4166 -0.3945
  604MOL0     H79696   5.976   2.715  11.980  3.2141  3.4602  0.6477
  604MOL0     H79697   6.064   2.702  12.131  1.8838 -0.8000  0.7746
  604MOL0     H79698   6.056   2.465  12.145 -0.0925 -0.8667  0.6611
  604MOL0     H79699   5.964   2.451  12.004  1.4131 -0.0075 -0.6358
  604MOL0     H79700   5.879   2.593  12.265 -1.0856 -0.8810  0.8567
  604MOL0     H79701   5.789   2.627  12.114  1.2064  1.1422 -0.1962
  604MOL0     H79702   5.830   2.354  12.244  2.7246  0.3322 -3.0302
  604MOL0     H79703   5.723   2.394  12.108 -0.0066  1.8465 -0.5530
  604MOL0     H79704   5.593   2.542  12.250  0.4049  0.4326 -1.3873
  604MOL0     H79705   5.704   2.526  12.391 -3.1244  0.6464  0.0257
  604MOL0     H79706   5.563   2.290  12.256 -0.9161 -0.5547  1.3397
  604MOL0     H79707   5.650   2.280  12.403  1.9503 -2.5224 -3.3058
  604MOL0     H79708   5.419   2.487  12.395  1.6035 -0.0135 -0.1771
  604MOL0     H79709   5.476   2.388  12.523 -1.1553 -2.3762  0.6290
  604MOL0     H79710   6.254   2.981  11.829 -2.1825 -2.1178 -1.6493
  604MOL0     H79711   6.475   3.079  11.747  3.4433 -0.4439 -0.6305
  604MOL0     H79712   6.917   2.820  11.579  2.1902  0.0487  1.6617
  604MOL0     H79713   7.127   2.847  11.468  0.5573  1.0055 -3.5334
  604MOL0     H79714   8.193   3.578   9.623  1.4922 -1.1445  0.1855
  604MOL0     H79715   8.352   3.693   9.492 -0.3761 -1.2944  0.6371
  604MOL0     H79716   8.874   4.006   9.785 -0.2396  1.1894  0.9799
  604MOL0     H79717   9.050   4.119   9.684 -1.5420 -1.7150  2.2264
  604MOL0     H79718   9.007   4.218   9.249  0.5132 -2.1511  2.0444
  604MOL0     H79719   9.146   4.314   9.280 -0.6853 -1.0038 -0.6012
  604MOL0     H79720   8.874   4.421   9.375  0.0702  2.2658 -0.8415
  604MOL0     H79721   9.027   4.507   9.364  1.7646  0.6817 -2.2918
  604MOL0     H79722   8.890   4.368   9.129  1.7975 -3.8067  3.4763
  604MOL0     H79723   9.040   4.467   9.120  0.4095 -2.1179 -0.6905
  604MOL0     H79724   8.766   4.585   9.183 -0.8367 -0.3124 -1.2212
  604MOL0     H79725   8.913   4.673   9.211  1.5750 -1.5095  0.6680
  604MOL0     H79726   8.860   4.651   8.780  3.2242 -0.1334 -0.3306
  604MOL0     H79727   8.808   4.189   9.337  3.2781  3.6375  1.4283
  604MOL0     H79728   8.639   4.044   9.425 -1.5284  0.3973  2.0039
  605MOL0     O79729   2.288   4.736   3.193  0.6727 -0.3123 -0.5415
  605MOL0     C79730   2.407   4.728   3.219 -0.5411 -0.2459  0.5139
  605MOL0     O79731   2.446   4.726   3.349  0.3210 -0.5188  0.8451
  605MOL0     C79732   2.349   4.765   3.446  0.0849 -0.0485  1.1237
  605MOL0     C79733   2.294   4.665   3.535 -0.1563  0.3768 -1.0613
  605MOL0     C79734   2.189   4.703   3.629  0.4783 -0.1989  0.2199
  605MOL0     C79735   2.137   4.835   3.637  0.3055  0.0937 -0.0716
  605MOL0     O79736   2.043   4.865   3.732 -0.0322 -0.9512 -0.0171
  605MOL0     C79737   1.984   4.996   3.733 -0.0750  0.1835 -0.1529
  605MOL0     C79738   1.882   4.996   3.838 -0.0731  0.0617 -0.9611
  605MOL0     C79739   1.808   5.135   3.824 -0.7193 -0.2774  0.6718
  605MOL0     C79740   1.687   5.144   3.916 -0.0810  0.0207  0.3006
  605MOL0     C79741   1.611   5.272   3.885 -0.5806 -0.0282 -0.3401
  605MOL0     C79742   1.519   5.270   3.759  0.0758 -0.2807  0.0670
  605MOL0     C79743   1.437   5.396   3.743 -0.5664 -0.2065 -0.0939
  605MOL0     C79744   1.328   5.407   3.853 -0.5478 -0.5537  0.1204
  605MOL0     N79745   1.197   5.354   3.820  0.3968  0.5071  0.6037
  605MOL0     C79746   1.107   5.392   3.725  0.7550  0.3804 -0.5658
  605MOL0     C79747   0.996   5.316   3.745 -0.6442  0.4136 -0.3301
  605MOL0     C79748   0.865   5.305   3.674  0.7661  0.2511  0.3214
  605MOL0     C79749   0.869   5.195   3.570  0.0670 -0.1744  1.1341
  605MOL0     C79750   0.789   5.068   3.594  0.3825  0.3992  0.9875
  605MOL0     C79751   0.639   5.087   3.616 -0.7867 -0.4368 -0.2182
  605MOL0     O79752   0.600   5.141   3.485  0.4004 -0.7209 -0.4983
  605MOL0     C79753   0.469   5.190   3.470  0.2132 -0.1558  0.6106
  605MOL0     C79754   0.441   5.224   3.336 -0.1836 -0.2920 -0.1836
  605MOL0     C79755   0.323   5.289   3.310  0.1866 -0.0664 -0.9005
  605MOL0     C79756   0.225   5.306   3.416  1.0762  0.5711 -0.1124
  605MOL0     C79757   0.085   5.343   3.384  0.0460  0.1142  0.1905
  605MOL0     O79758   0.003   5.376   3.487  0.3000 -0.3510 -0.0119
  605MOL0     C79759  -0.140   5.391   3.468  0.5132  0.2798 -0.5051
  605MOL0     C79760  -0.218   5.296   3.416 -0.1029  0.4205  0.0439
  605MOL0     C79761  -0.357   5.308   3.409 -0.0858 -0.0889  0.4139
  605MOL0     C79762  -0.407   5.434   3.447 -0.4699  0.7164 -0.5874
  605MOL0     O79763  -0.545   5.452   3.464  1.0315 -0.3261  0.1361
  605MOL0     C79764  -0.641   5.358   3.415  0.2688 -0.3268 -0.2869
  605MOL0     C79765  -0.779   5.415   3.445 -0.3484 -0.2468  0.6874
  605MOL0     C79766  -0.789   5.544   3.365  0.2599 -0.1278  0.4353
  605MOL0     C79767  -0.905   5.636   3.404 -0.1561 -0.4156 -0.2024
  605MOL0     C79768  -1.037   5.580   3.450 -0.3491  0.4964  1.1158
  605MOL0     C79769  -1.122   5.692   3.497  0.1076 -0.0730  0.0211
  605MOL0     C79770  -1.256   5.632   3.557 -0.0652  0.1012  0.5691
  605MOL0     C79771  -1.328   5.741   3.613  1.1994 -0.3764 -0.0460
  605MOL0    Cl79772  -1.490   5.690   3.669 -0.2978  0.4909  0.2884
  605MOL0     C79773  -0.335   5.536   3.502 -0.3239  0.1035 -0.3233
  605MOL0     C79774  -0.196   5.511   3.520  0.0905 -0.6494 -0.4699
  605MOL0     O79775   0.065   5.358   3.269  0.5693  0.1634 -0.9133
  605MOL0     C79776   0.263   5.272   3.551  0.5254  0.1860  0.1405
  605MOL0     C79777   0.383   5.219   3.577  0.0669 -0.3381 -0.4423
  605MOL0     N79778   1.029   5.237   3.856 -0.6988 -0.3610 -0.0722
  605MOL0     N79779   1.153   5.249   3.888  0.5588 -0.2724  0.1682
  605MOL0     C79780   2.189   4.931   3.538  0.5591  0.6717 -0.4615
  605MOL0     C79781   2.302   4.899   3.455 -0.0830  0.1845  0.0291
  605MOL0     C79782   2.519   4.721   3.112 -0.1732 -0.0100 -0.4143
  605MOL0     C79783   2.487   4.729   2.976  0.6164 -0.1488  0.3084
  605MOL0     C79784   2.575   4.743   2.878 -0.7050 -0.2568  0.1472
  605MOL0     C79785   2.714   4.747   2.906  0.0263  0.9174  0.3216
  605MOL0     O79786   2.789   4.770   2.794 -0.4994 -0.1871  0.0312
  605MOL0     C79787   2.931   4.775   2.812 -0.9917  0.6381 -0.1142
  605MOL0     C79788   3.008   4.644   2.860 -0.0827 -0.0343  0.0813
  605MOL0     C79789   3.155   4.676   2.834 -1.0499 -0.4727  0.2164
  605MOL0     C79790   3.254   4.556   2.877 -0.3898 -0.0159  0.2201
  605MOL0     C79791   3.271   4.536   3.022 -0.6735  0.0487  0.6420
  605MOL0     C79792   3.287   4.543   3.147  0.1486 -0.1596  0.1054
  605MOL0     C79793   2.754   4.741   3.043 -0.0514  1.0203  0.7575
  605MOL0     C79794   2.658   4.730   3.145  0.0276  0.2421  0.3725
  605MOL0     H79795   2.325   4.561   3.543 -0.6959 -0.1209 -4.1831
  605MOL0     H79796   2.159   4.639   3.712  0.9557 -2.7229 -1.4526
  605MOL0     H79797   1.942   5.038   3.641  0.0075  0.4124 -0.0863
  605MOL0     H79798   2.062   5.063   3.771 -1.3278  0.5484  1.9043
  605MOL0     H79799   1.931   4.966   3.931  0.7422 -0.7658 -1.6375
  605MOL0     H79800   1.806   4.924   3.808 -2.4596  1.9729  0.1740
  605MOL0     H79801   1.770   5.158   3.724  3.5296  0.8183 -0.9399
  605MOL0     H79802   1.885   5.212   3.840  1.3561 -1.8952 -0.8790
  605MOL0     H79803   1.621   5.062   3.886  1.7050 -1.5593  0.4871
  605MOL0     H79804   1.701   5.130   4.023 -0.5801 -1.0655  0.2405
  605MOL0     H79805   1.684   5.352   3.870  2.9980 -2.7318  1.2021
  605MOL0     H79806   1.554   5.289   3.977  1.5513 -1.1006  1.2536
  605MOL0     H79807   1.440   5.194   3.767 -1.1606  0.9794  0.3123
  605MOL0     H79808   1.569   5.235   3.668 -2.0055 -3.2446 -0.0934
  605MOL0     H79809   1.506   5.480   3.735 -0.0397 -0.5198  0.8822
  605MOL0     H79810   1.378   5.399   3.651  0.1771 -2.2610 -0.6946
  605MOL0     H79811   1.300   5.510   3.877 -2.1671 -0.3774 -2.1806
  605MOL0     H79812   1.359   5.368   3.951  1.5822  0.5485 -0.0401
  605MOL0     H79813   1.125   5.459   3.641 -0.6983  0.1504 -1.0853
  605MOL0     H79814   0.853   5.403   3.628 -0.1208 -0.2320 -0.5214
  605MOL0     H79815   0.781   5.290   3.742 -1.9402 -0.1675 -2.8353
  605MOL0     H79816   0.975   5.169   3.571  0.0815 -0.1512  0.4513
  605MOL0     H79817   0.827   5.241   3.480  2.3012  3.5721  1.7718
  605MOL0     H79818   0.797   5.009   3.502 -0.1747  1.2116  0.3898
  605MOL0     H79819   0.825   4.998   3.669 -1.2337 -2.1451 -0.4749
  605MOL0     H79820   0.621   5.160   3.695 -2.4471 -1.8212  0.7475
  605MOL0     H79821   0.597   4.992   3.650  0.1184 -1.0362 -0.7331
  605MOL0     H79822   0.508   5.194   3.256  0.0560  0.2317 -0.1844
  605MOL0     H79823   0.291   5.312   3.209 -0.3018 -1.1337 -1.0065
  605MOL0     H79824  -0.171   5.204   3.382  1.8901  0.7174  1.7479
  605MOL0     H79825  -0.423   5.224   3.391 -2.2491  0.6472  3.9709
  605MOL0     H79826  -0.635   5.258   3.458 -2.1484 -1.6258 -2.6702
  605MOL0     H79827  -0.629   5.351   3.307  0.1187  0.7930 -0.3873
  605MOL0     H79828  -0.785   5.436   3.553 -1.8874  2.5777  0.1482
  605MOL0     H79829  -0.852   5.338   3.420  2.0015 -2.2713 -0.3516
  605MOL0     H79830  -0.790   5.508   3.261 -1.5008 -2.9368  1.3071
  605MOL0     H79831  -0.707   5.613   3.386 -1.6603  2.7248 -0.8607
  605MOL0     H79832  -0.876   5.704   3.484 -1.0515  2.2947 -2.0331
  605MOL0     H79833  -0.918   5.709   3.324  2.5232 -0.5821 -0.8697
  605MOL0     H79834  -1.024   5.510   3.533  2.6745 -1.0407 -0.4780
  605MOL0     H79835  -1.075   5.521   3.365 -1.6685  0.4966  1.6788
  605MOL0     H79836  -1.141   5.763   3.415  0.4580  0.1385  0.1221
  605MOL0     H79837  -1.058   5.741   3.571  1.0675 -1.7695  0.3698
  605MOL0     H79838  -1.310   5.590   3.471  2.1947 -2.0270  0.0655
  605MOL0     H79839  -1.227   5.556   3.630  1.9471 -1.2749 -1.5184
  605MOL0     H79840  -1.354   5.817   3.539  0.0162  1.8057  2.4500
  605MOL0     H79841  -1.280   5.771   3.706 -1.9209 -2.5716  2.5081
  605MOL0     H79842  -0.393   5.618   3.542 -1.8805 -1.3972  0.6729
  605MOL0     H79843  -0.137   5.587   3.570  1.4567 -0.5702 -2.1206
  605MOL0     H79844   0.197   5.274   3.637 -0.5594  0.1829 -0.6710
  605MOL0     H79845   0.398   5.199   3.682 -1.5983  0.8130  0.0637
  605MOL0     H79846   2.161   5.036   3.538  1.1101  0.8650  1.9921
  605MOL0     H79847   2.342   4.970   3.383  0.0648 -0.8411 -0.9326
  605MOL0     H79848   2.384   4.731   2.943  0.8448 -0.0967 -0.4214
  605MOL0     H79849   2.540   4.746   2.775  1.6719 -0.4509 -0.7310
  605MOL0     H79850   2.951   4.852   2.887  1.7536 -1.2644  1.2666
  605MOL0     H79851   2.983   4.811   2.723  1.4345  0.6204  1.2261
  605MOL0     H79852   2.988   4.613   2.963  1.2106  0.3672  0.4721
  605MOL0     H79853   2.980   4.561   2.795 -0.3677  2.0969 -2.7299
  605MOL0     H79854   3.183   4.762   2.895 -1.0120 -1.0146  0.9858
  605MOL0     H79855   3.178   4.689   2.728 -0.3528  1.3631  0.5565
  605MOL0     H79856   3.217   4.459   2.841 -0.8951 -0.0702  0.8722
  605MOL0     H79857   3.349   4.580   2.827 -1.8698  1.5220 -2.0175
  605MOL0     H79858   3.316   4.537   3.249  2.5449 -3.7123 -0.5947
  605MOL0     H79859   2.854   4.747   3.084  0.5699  1.9915 -0.8185
  605MOL0     H79860   2.681   4.732   3.251  1.1253  2.4742  0.1467
  606MOL0     O79861   7.530   2.433   0.713 -0.5636  0.2441 -0.8872
  606MOL0     C79862   7.618   2.510   0.703 -0.6191  0.4103 -0.0217
  606MOL0     O79863   7.616   2.638   0.743 -0.7094 -0.0915 -0.7555
  606MOL0     C79864   7.516   2.695   0.826 -0.2775 -0.4678  0.0496
  606MOL0     C79865   7.421   2.622   0.897 -0.4340  0.3751  0.5999
  606MOL0     C79866   7.326   2.687   0.973 -0.2754  0.1357  1.1412
  606MOL0     C79867   7.332   2.821   0.983 -0.5925 -0.4078  0.0971
  606MOL0     O79868   7.247   2.897   1.053  0.6176 -0.0497  0.5238
  606MOL0     C79869   7.141   2.844   1.141  0.2282 -0.1522 -0.7204
  606MOL0     C79870   7.031   2.953   1.143 -0.0452 -0.1371 -1.2819
  606MOL0     C79871   6.939   2.934   1.265 -1.2120 -0.7494  0.4595
  606MOL0     C79872   6.812   3.014   1.267  0.2025  0.7383  0.3510
  606MOL0     C79873   6.718   2.971   1.383 -0.2445  0.0250 -0.5544
  606MOL0     C79874   6.584   3.043   1.362 -0.2243 -0.3933 -0.4578
  606MOL0     C79875   6.471   2.986   1.452  0.4409 -0.3397  0.2865
  606MOL0     C79876   6.356   3.081   1.467 -0.7977 -0.5758 -0.4900
  606MOL0     N79877   6.270   3.030   1.570 -0.5478 -0.4346  0.4341
  606MOL0     C79878   6.152   2.967   1.537  0.4257  0.0832  0.1098
  606MOL0     C79879   6.080   2.963   1.651  0.0588  0.2476  0.2426
  606MOL0     C79880   5.949   2.894   1.674 -0.2256 -0.3890  0.9289
  606MOL0     C79881   5.891   2.923   1.817 -0.3942  0.5412  0.5295
  606MOL0     C79882   5.766   2.838   1.830 -0.1439 -0.0326 -0.2270
  606MOL0     C79883   5.653   2.877   1.733 -1.5491  0.0562  0.4576
  606MOL0     O79884   5.543   2.806   1.775 -0.2622  0.4996  0.2759
  606MOL0     C79885   5.417   2.835   1.749 -0.5043  0.2218  0.2508
  606MOL0     C79886   5.316   2.766   1.810  0.4452  0.0261  0.8480
  606MOL0     C79887   5.180   2.773   1.762  0.4498  0.5709  0.0308
  606MOL0     C79888   5.148   2.864   1.659  0.9144  0.6054  0.5133
  606MOL0     C79889   5.007   2.877   1.613 -0.3651  0.7929  0.3767
  606MOL0     O79890   4.982   2.928   1.493  0.1571 -0.5240 -0.0601
  606MOL0     C79891   4.858   2.938   1.445  0.4605 -0.1234  1.1911
  606MOL0     C79892   4.754   3.026   1.494  0.4431  0.0436 -0.0464
  606MOL0     C79893   4.624   3.017   1.443  0.9901  0.2243  0.2908
  606MOL0     C79894   4.587   2.934   1.338 -0.3200  1.0981 -0.2486
  606MOL0     O79895   4.462   2.948   1.300  0.6901 -0.5429  0.8908
  606MOL0     C79896   4.404   2.856   1.203 -0.8397  0.5671 -0.2393
  606MOL0     C79897   4.266   2.912   1.174  0.1425 -0.2542  0.4619
  606MOL0     C79898   4.183   2.802   1.111  0.0964  0.0004  0.3482
  606MOL0     C79899   4.043   2.856   1.097  0.3739  0.5281  0.3627
  606MOL0     C79900   3.937   2.748   1.084 -0.6113  0.1198  0.0177
  606MOL0     C79901   3.794   2.813   1.058 -0.2262  0.3388  0.4332
  606MOL0     C79902   3.688   2.702   1.020  0.4779 -0.3643 -0.3697
  606MOL0     C79903   3.548   2.757   1.014  0.9385 -0.1589 -0.5976
  606MOL0    Cl79904   3.433   2.615   1.055  0.3665 -0.0499 -0.3640
  606MOL0     C79905   4.683   2.844   1.293 -0.0157 -0.4265 -0.9103
  606MOL0     C79906   4.816   2.849   1.341  0.1390 -0.0059  0.8999
  606MOL0     O79907   4.922   2.843   1.689  0.1188  0.0677 -1.4336
  606MOL0     C79908   5.256   2.919   1.586 -0.0202 -0.3872 -0.5534
  606MOL0     C79909   5.391   2.896   1.628  0.6911 -0.6499  0.3924
  606MOL0     N79910   6.160   3.019   1.754  0.0482  0.4217  0.2008
  606MOL0     N79911   6.275   3.069   1.703 -0.2356  0.1722  0.0340
  606MOL0     C79912   7.429   2.903   0.917  0.6219  0.3345 -0.3620
  606MOL0     C79913   7.519   2.834   0.830 -0.4097  0.1287  0.0250
  606MOL0     C79914   7.740   2.484   0.624 -0.5921 -0.5696 -0.0577
  606MOL0     C79915   7.730   2.379   0.532 -0.8669 -0.6449 -0.4728
  606MOL0     C79916   7.844   2.361   0.454 -0.2587  0.4245  0.2929
  606MOL0     C79917   7.960   2.432   0.460 -0.4711 -0.1204 -0.1262
  606MOL0     O79918   8.059   2.408   0.363  0.3220  0.6689 -0.0172
  606MOL0     C79919   8.181   2.485   0.350 -0.6523  1.2681  0.4181
  606MOL0     C79920   8.153   2.623   0.277 -0.5257  0.8063 -0.0934
  606MOL0     C79921   8.281   2.699   0.257 -0.0062  0.0935  0.4008
  606MOL0     C79922   8.278   2.840   0.208  0.6650  0.3672  0.5998
  606MOL0     C79923   8.213   2.840   0.072  0.6018  0.0576 -0.0494
  606MOL0     C79924   8.148   2.843  -0.033  0.5239  0.1640  0.6421
  606MOL0     C79925   7.978   2.512   0.580 -0.2375  0.5648 -0.5917
  606MOL0     C79926   7.864   2.540   0.658  0.8048 -0.2088  0.0655
  606MOL0     H79927   7.416   2.515   0.910 -0.5095  0.2168 -0.5880
  606MOL0     H79928   7.250   2.629   1.022  0.5617 -2.1862 -0.1740
  606MOL0     H79929   7.173   2.827   1.244 -1.1786  2.1398  0.1677
  606MOL0     H79930   7.099   2.749   1.106 -0.3729 -0.8405  1.6390
  606MOL0     H79931   6.961   2.927   1.063  1.3526 -2.0272 -1.9727
  606MOL0     H79932   7.064   3.057   1.134  1.2694 -0.5073 -0.9985
  606MOL0     H79933   6.999   2.958   1.354  0.2571  2.3767 -1.2276
  606MOL0     H79934   6.902   2.831   1.259 -3.4948 -0.0345  1.1376
  606MOL0     H79935   6.838   3.120   1.275 -1.1975  1.2538 -1.2614
  606MOL0     H79936   6.759   3.006   1.171  0.0663 -1.2897  0.5466
  606MOL0     H79937   6.764   2.996   1.479 -0.6711 -0.3894 -0.2347
  606MOL0     H79938   6.691   2.865   1.385  4.9471 -1.6076 -0.1653
  606MOL0     H79939   6.549   3.030   1.259 -0.6027 -1.2794 -0.2255
  606MOL0     H79940   6.606   3.145   1.393  1.7675 -0.4590 -1.4859
  606MOL0     H79941   6.430   2.899   1.399  0.0085  0.3318 -0.5119
  606MOL0     H79942   6.516   2.957   1.547  1.0204  1.5398  0.6273
  606MOL0     H79943   6.296   3.097   1.377 -1.5854  0.2532  0.1589
  606MOL0     H79944   6.388   3.178   1.508  1.2485 -1.9362  1.3841
  606MOL0     H79945   6.137   2.913   1.444 -0.4292 -0.0415  0.3181
  606MOL0     H79946   5.969   2.788   1.657  1.3231  0.0676 -0.2893
  606MOL0     H79947   5.877   2.927   1.598  1.8522  2.0796 -0.1124
  606MOL0     H79948   5.877   3.029   1.838 -2.7122 -0.1121  2.8071
  606MOL0     H79949   5.955   2.901   1.903 -1.3571 -0.5802  0.9988
  606MOL0     H79950   5.782   2.731   1.815 -3.3941 -0.5146 -0.9000
  606MOL0     H79951   5.728   2.845   1.933 -5.8277 -0.7359 -1.9315
  606MOL0     H79952   5.687   2.849   1.633 -1.8730  0.3277  0.2682
  606MOL0     H79953   5.635   2.985   1.737  1.5461  0.9387 -3.3668
  606MOL0     H79954   5.340   2.708   1.899  0.8461 -3.9598 -1.6506
  606MOL0     H79955   5.101   2.726   1.818 -0.1350  0.5217 -0.8194
  606MOL0     H79956   4.771   3.100   1.572  0.7573  0.9847 -0.9873
  606MOL0     H79957   4.558   3.095   1.481 -1.2453 -0.7057 -1.4964
  606MOL0     H79958   4.393   2.754   1.242 -0.6874 -0.2725 -2.2617
  606MOL0     H79959   4.464   2.857   1.112 -0.7136  1.5865 -0.1553
  606MOL0     H79960   4.279   2.995   1.103 -2.5378 -0.9317 -0.9522
  606MOL0     H79961   4.208   2.948   1.259 -1.9866  2.3620 -1.9087
  606MOL0     H79962   4.175   2.712   1.173  0.0605 -1.3685 -1.5600
  606MOL0     H79963   4.238   2.772   1.022  1.2577 -1.4861  1.5212
  606MOL0     H79964   4.011   2.906   1.189 -0.8455 -2.4941  1.7081
  606MOL0     H79965   4.034   2.923   1.012  1.2293  0.6303  0.3419
  606MOL0     H79966   3.936   2.689   1.176 -1.4242 -1.0466 -0.7110
  606MOL0     H79967   3.967   2.691   0.995 -1.4343  2.8621 -2.1416
  606MOL0     H79968   3.800   2.870   0.965  0.3443 -2.7032 -1.5787
  606MOL0     H79969   3.755   2.875   1.138 -2.2200 -1.2615  0.7907
  606MOL0     H79970   3.709   2.659   0.922 -1.3023 -1.2458 -0.4162
  606MOL0     H79971   3.695   2.624   1.096  0.3936 -0.9167 -0.9215
  606MOL0     H79972   3.520   2.799   0.917  0.5188 -0.0262 -0.4231
  606MOL0     H79973   3.533   2.841   1.084  0.9216  1.3480 -2.3232
  606MOL0     H79974   4.644   2.773   1.220 -2.7895 -0.3877  0.4106
  606MOL0     H79975   4.878   2.783   1.281 -0.5862 -0.2629  0.4227
  606MOL0     H79976   5.243   2.988   1.502  1.6509  2.0291  1.0571
  606MOL0     H79977   5.472   2.944   1.573 -0.3417  1.1496  0.3787
  606MOL0     H79978   7.426   3.011   0.930 -3.5973  0.0871  2.9612
  606MOL0     H79979   7.596   2.884   0.772  0.8715  0.3675  1.8445
  606MOL0     H79980   7.639   2.322   0.520 -1.8492  0.4572  1.2640
  606MOL0     H79981   7.843   2.284   0.376  0.1050 -0.4370  1.1228
  606MOL0     H79982   8.248   2.430   0.283 -0.9306  1.1615  0.2247
  606MOL0     H79983   8.230   2.492   0.447  0.2970 -1.9617  0.2623
  606MOL0     H79984   8.107   2.595   0.182  0.7389  0.3358 -0.5916
  606MOL0     H79985   8.090   2.683   0.344  1.1879  1.0603  1.3658
  606MOL0     H79986   8.337   2.648   0.179  0.6452  0.6586  0.4886
  606MOL0     H79987   8.346   2.706   0.345 -0.1733  2.5705  0.4041
  606MOL0     H79988   8.227   2.908   0.277  1.2411  1.8594 -0.3888
  606MOL0     H79989   8.380   2.874   0.193 -0.0509  1.9843 -0.9102
  606MOL0     H79990   8.090   2.827  -0.122 -1.7316  0.2594  1.9931
  606MOL0     H79991   8.076   2.551   0.605  0.2666  0.2303 -1.9670
  606MOL0     H79992   7.882   2.610   0.740 -1.5715  0.5029  0.0382
  607MOL0     O79993   1.099   7.822   2.024 -1.0872 -0.0403  0.3330
  607MOL0     C79994   1.183   7.899   1.975 -0.6410 -0.0882  0.5674
  607MOL0     O79995   1.154   8.010   1.903 -0.5123 -0.7379  0.5025
  607MOL0     C79996   1.015   8.036   1.876  0.2469 -1.3351 -0.4706
  607MOL0     C79997   0.988   8.034   1.743  0.0680  0.5849 -0.5695
  607MOL0     C79998   0.854   8.044   1.695  0.0244 -0.1549  0.2734
  607MOL0     C79999   0.747   8.061   1.790 -0.6002 -0.2353 -0.1291
  607MOL0     O80000   0.621   8.093   1.755  0.9248 -0.3189 -0.4752
  607MOL0     C80001   0.583   8.088   1.620  0.0488  0.9028  0.1379
  607MOL0     C80002   0.592   8.218   1.555  0.5008 -0.2287  0.7961
  607MOL0     C80003   0.479   8.300   1.596 -0.6568  0.2279 -0.6548
  607MOL0     C80004   0.515   8.448   1.557  0.0519  1.0862 -1.2360
  607MOL0     C80005   0.421   8.552   1.611  0.2445  0.4065  0.7016
  607MOL0     C80006   0.296   8.556   1.518  0.2278 -0.6594 -0.7106
  607MOL0     C80007   0.230   8.695   1.542 -0.7056 -0.2859 -0.9058
  607MOL0     C80008   0.104   8.692   1.460 -0.5409  0.5659 -0.8549
  607MOL0     N80009   0.047   8.822   1.454 -0.4218 -0.1598  0.7701
  607MOL0     C80010  -0.039   8.858   1.549 -0.0837 -0.5535  0.6882
  607MOL0     C80011  -0.085   8.973   1.510 -0.3451 -0.2094  0.6357
  607MOL0     C80012  -0.186   9.060   1.583 -0.2202  0.6447  0.7439
  607MOL0     C80013  -0.322   8.993   1.593 -0.2072  0.4436  0.5789
  607MOL0     C80014  -0.441   9.094   1.624 -0.7378  1.0707 -0.0022
  607MOL0     C80015  -0.415   9.146   1.765 -0.1424  0.5600 -1.5278
  607MOL0     O80016  -0.474   9.274   1.790 -0.2840  0.0930 -0.6204
  607MOL0     C80017  -0.598   9.278   1.853 -0.3505 -1.3167  0.1117
  607MOL0     C80018  -0.611   9.250   1.988 -0.0658  0.4895  0.4776
  607MOL0     C80019  -0.728   9.271   2.053 -0.0550  1.1165 -0.2737
  607MOL0     C80020  -0.842   9.323   1.980 -0.8571  0.2283 -1.1288
  607MOL0     C80021  -0.963   9.351   2.060  0.6045  0.3378 -0.0689
  607MOL0     O80022  -0.962   9.316   2.195  0.2788  0.1377  0.3341
  607MOL0     C80023  -1.071   9.323   2.273  0.0798 -0.6138  1.5506
  607MOL0     C80024  -1.116   9.207   2.341 -0.6021 -0.1392 -0.4828
  607MOL0     C80025  -1.221   9.214   2.431  0.8150  0.5138 -0.6157
  607MOL0     C80026  -1.293   9.337   2.453  0.3118 -0.7330 -0.1345
  607MOL0     O80027  -1.394   9.347   2.545 -0.1080 -0.4339 -0.0410
  607MOL0     C80028  -1.503   9.245   2.535 -0.1986 -0.0124 -0.3309
  607MOL0     C80029  -1.625   9.289   2.609 -0.0919  0.6125  1.3280
  607MOL0     C80030  -1.602   9.287   2.757  0.5484  0.2640 -0.1888
  607MOL0     C80031  -1.725   9.311   2.850  0.9127  0.2101 -0.4061
  607MOL0     C80032  -1.671   9.293   2.993  0.2376 -0.1354  0.7225
  607MOL0     C80033  -1.782   9.355   3.087 -0.4267 -0.4307  0.0159
  607MOL0     C80034  -1.761   9.329   3.236 -0.0177 -0.2779  0.0592
  607MOL0     C80035  -1.851   9.405   3.331  0.4790 -0.1857  0.0615
  607MOL0    Cl80036  -2.013   9.324   3.327 -0.2369  0.3751 -0.1408
  607MOL0     C80037  -1.249   9.448   2.386 -0.4874  0.1359  0.8516
  607MOL0     C80038  -1.144   9.444   2.293  0.2962 -0.1023  0.2409
  607MOL0     O80039  -1.066   9.385   2.003  0.0265 -0.0431 -0.0389
  607MOL0     C80040  -0.825   9.360   1.844  0.2103  0.1212  0.7335
  607MOL0     C80041  -0.700   9.350   1.790 -0.5780  0.0605  0.3046
  607MOL0     N80042  -0.029   9.013   1.388 -1.2713 -0.0614 -0.0670
  607MOL0     N80043   0.058   8.920   1.356 -0.0936  0.5411  0.2084
  607MOL0     C80044   0.782   8.073   1.927  0.6310  0.9097 -0.7760
  607MOL0     C80045   0.911   8.055   1.974  0.4000 -0.0259 -0.1295
  607MOL0     C80046   1.320   7.868   2.008  0.3106 -0.0558 -0.6075
  607MOL0     C80047   1.427   7.959   1.976  0.9702 -0.1541  0.1655
  607MOL0     C80048   1.555   7.922   2.004 -1.2106  0.0272 -0.9525
  607MOL0     C80049   1.585   7.798   2.068 -0.2229  0.6538  0.3561
  607MOL0     O80050   1.715   7.758   2.090  0.2974  0.1256 -0.2504
  607MOL0     C80051   1.740   7.635   2.160  0.5608  0.7097  0.0514
  607MOL0     C80052   1.883   7.624   2.207 -0.4709 -0.2445  0.0795
  607MOL0     C80053   1.930   7.504   2.283  0.8630 -0.3882  0.3480
  607MOL0     C80054   1.829   7.440   2.385  0.0888 -0.6403 -0.2087
  607MOL0     C80055   1.742   7.343   2.328 -0.3336  0.6122  0.1880
  607MOL0     C80056   1.663   7.261   2.270  0.0729  0.8730 -0.8805
  607MOL0     C80057   1.475   7.713   2.101  0.0884 -0.8224 -0.3407
  607MOL0     C80058   1.352   7.750   2.076  0.3030 -0.8142  0.1154
  607MOL0     H80059   1.067   8.026   1.669  1.7869 -0.4628  1.2649
  607MOL0     H80060   0.842   8.050   1.588 -1.2769 -1.4919  0.3266
  607MOL0     H80061   0.480   8.052   1.623  0.3631 -0.1556 -0.8257
  607MOL0     H80062   0.648   8.016   1.569 -0.3504  1.5100 -1.2778
  607MOL0     H80063   0.583   8.206   1.447 -4.6522  1.6835  0.7493
  607MOL0     H80064   0.690   8.264   1.574  0.4314 -0.0719  0.7735
  607MOL0     H80065   0.463   8.300   1.704  2.0847  1.6280 -0.1603
  607MOL0     H80066   0.382   8.279   1.549 -1.4499  2.4213 -0.1055
  607MOL0     H80067   0.610   8.467   1.607  0.0672  2.1282 -1.6467
  607MOL0     H80068   0.527   8.455   1.449 -1.8018  1.7667 -1.4474
  607MOL0     H80069   0.473   8.647   1.598  0.7357 -0.0082 -0.5953
  607MOL0     H80070   0.402   8.542   1.718  1.6289 -0.7015  0.8698
  607MOL0     H80071   0.224   8.490   1.566 -1.1244  2.0434  1.2243
  607MOL0     H80072   0.316   8.532   1.413  1.5396 -0.8341 -0.4447
  607MOL0     H80073   0.198   8.691   1.646 -2.1535 -1.1606 -1.3618
  607MOL0     H80074   0.301   8.777   1.526  0.0299 -0.8123 -0.4533
  607MOL0     H80075   0.036   8.628   1.517 -2.5629  2.0756 -1.4573
  607MOL0     H80076   0.126   8.654   1.360  1.9961  0.2670 -0.2552
  607MOL0     H80077  -0.075   8.802   1.634  0.3897  1.5973  2.3920
  607MOL0     H80078  -0.192   9.152   1.525  1.2469 -1.0321 -2.3385
  607MOL0     H80079  -0.148   9.090   1.682  0.6835  3.7641 -0.4260
  607MOL0     H80080  -0.335   8.918   1.672  1.2202 -0.9458 -0.4411
  607MOL0     H80081  -0.341   8.950   1.495  0.8451  0.0283  0.5499
  607MOL0     H80082  -0.441   9.175   1.551 -1.9096  1.5376  0.4955
  607MOL0     H80083  -0.537   9.042   1.623 -2.3112  3.2416  5.0975
  607MOL0     H80084  -0.308   9.164   1.777  0.1984  0.8356 -4.3026
  607MOL0     H80085  -0.446   9.069   1.837  2.4016 -2.3301 -3.3115
  607MOL0     H80086  -0.530   9.213   2.050 -0.1717  2.0676  1.6469
  607MOL0     H80087  -0.739   9.245   2.158  1.4881  2.8222  0.3516
  607MOL0     H80088  -1.057   9.117   2.329  0.1734  0.2327  0.4539
  607MOL0     H80089  -1.243   9.126   2.490 -0.1184 -1.1632 -3.2766
  607MOL0     H80090  -1.475   9.150   2.580 -2.7214 -0.9649 -0.5923
  607MOL0     H80091  -1.527   9.224   2.430 -3.3767 -1.9889  0.6395
  607MOL0     H80092  -1.699   9.211   2.590  2.8804 -1.5160 -3.4758
  607MOL0     H80093  -1.666   9.383   2.572  1.8517  1.1042  0.2390
  607MOL0     H80094  -1.532   9.367   2.781 -1.8288  1.9626  1.5692
  607MOL0     H80095  -1.578   9.184   2.784 -1.6422 -0.8872 -2.2480
  607MOL0     H80096  -1.765   9.412   2.836 -1.4003 -0.1912  2.2571
  607MOL0     H80097  -1.798   9.233   2.829  1.3986  0.0418 -1.5374
  607MOL0     H80098  -1.580   9.352   3.003 -2.6691  4.7502  1.8727
  607MOL0     H80099  -1.635   9.190   3.001  1.0240 -0.0315 -1.0138
  607MOL0     H80100  -1.876   9.305   3.061 -0.1431 -0.0215 -2.0071
  607MOL0     H80101  -1.793   9.461   3.061 -1.8565 -0.7280 -0.6734
  607MOL0     H80102  -1.764   9.220   3.241  2.2115 -0.3669  0.6744
  607MOL0     H80103  -1.657   9.349   3.266 -0.1025 -0.1018  0.2388
  607MOL0     H80104  -1.852   9.510   3.298  1.2413 -0.4669 -0.8862
  607MOL0     H80105  -1.812   9.400   3.434  0.1789 -1.5874  0.1250
  607MOL0     H80106  -1.314   9.529   2.417 -0.2040  0.4153  0.7249
  607MOL0     H80107  -1.119   9.542   2.255 -0.8220  0.8217  1.7467
  607MOL0     H80108  -0.905   9.400   1.783  0.3580  0.4736  0.7650
  607MOL0     H80109  -0.693   9.391   1.690 -2.3513 -1.1834 -0.3727
  607MOL0     H80110   0.692   8.077   1.988 -1.2065  0.2825 -3.2747
  607MOL0     H80111   0.947   8.033   2.074  0.3372  2.2696  0.4515
  607MOL0     H80112   1.420   8.053   1.923 -0.5861  0.2461  1.0283
  607MOL0     H80113   1.642   7.982   1.980  0.0184 -0.4949  1.8221
  607MOL0     H80114   1.723   7.550   2.093  1.7455  0.7873 -0.3681
  607MOL0     H80115   1.670   7.623   2.244  0.5651  2.5911  0.3703
  607MOL0     H80116   1.952   7.648   2.126 -2.0295 -0.7401 -1.4632
  607MOL0     H80117   1.900   7.704   2.280  1.8469  0.0604 -0.7318
  607MOL0     H80118   2.025   7.523   2.334  1.4488 -0.9812 -0.5025
  607MOL0     H80119   1.955   7.425   2.212  0.7616  0.9766 -1.2542
  607MOL0     H80120   1.890   7.382   2.454 -1.8651 -3.6492 -0.8505
  607MOL0     H80121   1.769   7.517   2.434  0.1518  0.4510 -1.7686
  607MOL0     H80122   1.588   7.201   2.222  0.7507 -0.4657 -0.3274
  607MOL0     H80123   1.485   7.621   2.158 -0.0157 -0.5544  0.1126
  607MOL0     H80124   1.266   7.685   2.087 -0.8742  0.1936 -2.3615
  608MOL0     O80125   1.695   2.936   5.584  0.0147 -0.3654  0.6534
  608MOL0     C80126   1.706   2.965   5.699  0.6782 -0.5814 -0.5415
  608MOL0     O80127   1.600   2.971   5.786  1.0066  0.4703 -0.2818
  608MOL0     C80128   1.472   2.963   5.742  0.6256 -0.6447 -0.1815
  608MOL0     C80129   1.379   3.036   5.810 -0.2757 -0.2101  0.1765
  608MOL0     C80130   1.239   3.020   5.788  0.2166 -0.1425  0.0783
  608MOL0     C80131   1.181   2.933   5.704  0.8528 -0.1299  0.8039
  608MOL0     O80132   1.041   2.919   5.691 -0.2440 -0.0870 -0.1626
  608MOL0     C80133   0.982   2.802   5.628 -0.3883 -0.2010  0.1001
  608MOL0     C80134   0.847   2.752   5.682  0.1669  0.7396 -0.2595
  608MOL0     C80135   0.732   2.839   5.646  0.5106  0.8172  0.1025
  608MOL0     C80136   0.595   2.769   5.674 -0.3791  1.0729  0.5266
  608MOL0     C80137   0.480   2.868   5.690  0.1676  0.6169 -0.3677
  608MOL0     C80138   0.349   2.797   5.733 -0.1784 -0.4365  0.2302
  608MOL0     C80139   0.233   2.906   5.738  0.0238  0.1024  0.0122
  608MOL0     C80140   0.099   2.828   5.778  0.3605 -0.3807 -0.2931
  608MOL0     N80141  -0.019   2.917   5.765 -0.5865 -0.7534  0.4467
  608MOL0     C80142  -0.041   3.046   5.819  1.2298  0.9245 -0.2972
  608MOL0     C80143  -0.176   3.060   5.798 -0.1052 -0.5795  0.5518
  608MOL0     C80144  -0.270   3.167   5.862  0.2997  0.6635  0.6656
  608MOL0     C80145  -0.419   3.133   5.855 -0.2578 -0.0254 -0.4809
  608MOL0     C80146  -0.476   3.156   5.715 -1.0574 -0.1967 -0.3392
  608MOL0     C80147  -0.552   3.291   5.707  0.3245 -0.0559  0.6281
  608MOL0     O80148  -0.693   3.267   5.742  1.0923  0.1744 -0.8518
  608MOL0     C80149  -0.780   3.371   5.726  0.5246  0.1782 -0.6475
  608MOL0     C80150  -0.788   3.463   5.617 -0.1913  0.1722  1.5427
  608MOL0     C80151  -0.899   3.542   5.595  0.3334 -0.2162 -0.0438
  608MOL0     C80152  -1.005   3.528   5.689 -0.2497 -0.5282 -0.2317
  608MOL0     C80153  -1.124   3.617   5.687  0.8794 -0.3325 -0.0185
  608MOL0     O80154  -1.207   3.617   5.799  0.0253 -0.4404  1.1946
  608MOL0     C80155  -1.324   3.689   5.784 -0.6200  0.8729  1.4176
  608MOL0     C80156  -1.407   3.687   5.668 -0.5920  0.3865 -1.0368
  608MOL0     C80157  -1.539   3.734   5.674  0.4516 -0.1410  0.0231
  608MOL0     C80158  -1.602   3.771   5.799  0.2286 -0.3946  0.1409
  608MOL0     O80159  -1.733   3.803   5.811 -0.4180 -0.1683  0.1067
  608MOL0     C80160  -1.826   3.694   5.803 -0.3415  0.5892 -0.0308
  608MOL0     C80161  -1.875   3.673   5.951  0.2309  0.0390  0.2842
  608MOL0     C80162  -1.938   3.799   6.017  0.5708 -1.0122  0.0103
  608MOL0     C80163  -2.091   3.821   6.021  0.2768  0.1312  0.1379
  608MOL0     C80164  -2.127   3.955   6.084  0.2308 -0.8056  0.0813
  608MOL0     C80165  -2.064   4.004   6.213  0.0272  0.4017 -0.4312
  608MOL0     C80166  -2.071   3.897   6.313  0.1677 -0.4520  0.5264
  608MOL0     C80167  -2.030   3.957   6.447  0.3093 -0.4732 -0.7553
  608MOL0    Cl80168  -2.011   3.818   6.562  0.0893  0.0817  0.2751
  608MOL0     C80169  -1.514   3.790   5.913 -0.3626  0.1008  0.4124
  608MOL0     C80170  -1.373   3.756   5.901 -0.0135 -0.4960  0.1394
  608MOL0     O80171  -1.125   3.697   5.598 -0.1427  0.7416 -0.5227
  608MOL0     C80172  -1.005   3.435   5.790 -0.0872  0.3394  0.3017
  608MOL0     C80173  -0.897   3.356   5.808  0.3109 -1.2385  0.3383
  608MOL0     N80174  -0.227   2.946   5.734 -0.5126  0.1452  0.4478
  608MOL0     N80175  -0.131   2.870   5.704 -1.0780 -0.0308 -0.7398
  608MOL0     C80176   1.273   2.842   5.653 -0.2889  1.2132  0.1553
  608MOL0     C80177   1.416   2.861   5.668 -0.4071 -0.1769 -0.6632
  608MOL0     C80178   1.843   2.991   5.750 -0.3414  0.4814 -0.3386
  608MOL0     C80179   1.872   3.027   5.884 -0.6110  0.1294 -0.0951
  608MOL0     C80180   2.003   3.053   5.942  0.4844 -0.4908  1.1530
  608MOL0     C80181   2.110   3.018   5.862  0.9893  0.7447  0.1873
  608MOL0     O80182   2.231   3.045   5.920  0.4933 -0.2877 -1.1442
  608MOL0     C80183   2.344   2.983   5.865 -0.9885 -0.5365 -0.0419
  608MOL0     C80184   2.475   3.024   5.925  1.1826 -0.1952 -0.2468
  608MOL0     C80185   2.601   2.956   5.859  1.3282  0.4405 -0.3546
  608MOL0     C80186   2.695   2.907   5.961  0.3454 -0.2969 -0.5659
  608MOL0     C80187   2.802   2.822   5.899  0.6360 -0.4924 -0.2636
  608MOL0     C80188   2.895   2.765   5.846 -0.0155 -0.3049 -0.5762
  608MOL0     C80189   2.091   2.971   5.730  0.0093  0.8575  0.1577
  608MOL0     C80190   1.962   2.949   5.679  0.5214  0.0412 -1.1599
  608MOL0     H80191   1.420   3.107   5.881  1.8702  0.8193 -1.9615
  608MOL0     H80192   1.177   3.098   5.833 -0.2443 -0.3306 -0.2202
  608MOL0     H80193   1.045   2.713   5.636 -1.1841 -0.9492 -1.4251
  608MOL0     H80194   0.978   2.826   5.521  0.9125 -0.0263  0.0728
  608MOL0     H80195   0.845   2.758   5.791  1.0061 -0.3653 -0.1670
  608MOL0     H80196   0.829   2.648   5.654 -0.9714  1.1184 -1.0122
  608MOL0     H80197   0.740   2.853   5.538 -0.3227  1.0794  0.0687
  608MOL0     H80198   0.738   2.935   5.697  2.9161  0.7166  0.0933
  608MOL0     H80199   0.576   2.703   5.589  0.8829  0.4395  0.7136
  608MOL0     H80200   0.597   2.705   5.762 -0.0636  2.4943  1.5878
  608MOL0     H80201   0.466   2.919   5.594  0.8212 -0.9855 -1.3572
  608MOL0     H80202   0.513   2.938   5.767  3.1918 -0.8510 -0.1832
  608MOL0     H80203   0.356   2.752   5.833  2.6023 -0.1375  0.2573
  608MOL0     H80204   0.324   2.717   5.664  1.6648  0.5755 -1.7226
  608MOL0     H80205   0.242   2.987   5.811 -0.5074  0.4969 -0.3595
  608MOL0     H80206   0.234   2.958   5.642  2.7678 -1.0012 -0.6730
  608MOL0     H80207   0.101   2.797   5.883 -0.8428 -2.5376 -0.8579
  608MOL0     H80208   0.098   2.733   5.724  0.7772 -0.0475 -0.8864
  608MOL0     H80209   0.034   3.109   5.865  0.3621  3.3858 -2.0375
  608MOL0     H80210  -0.256   3.265   5.816 -1.6614  0.8474  0.3716
  608MOL0     H80211  -0.248   3.185   5.968 -1.0478  2.9005  0.6180
  608MOL0     H80212  -0.484   3.201   5.911  1.4849  0.8642  0.5302
  608MOL0     H80213  -0.436   3.035   5.902 -1.2355  1.4373  2.4335
  608MOL0     H80214  -0.384   3.156   5.656 -0.2891  2.0360  0.7216
  608MOL0     H80215  -0.535   3.071   5.679  1.1171 -1.6743 -0.6377
  608MOL0     H80216  -0.541   3.328   5.604  0.6895  0.4498  0.8477
  608MOL0     H80217  -0.513   3.370   5.771  0.9461 -0.8918  1.3052
  608MOL0     H80218  -0.703   3.468   5.548  1.6165  0.1430  3.6652
  608MOL0     H80219  -0.899   3.608   5.509 -1.8149  2.1068  1.5908
  608MOL0     H80220  -1.372   3.645   5.574  1.1822 -0.3440 -0.0941
  608MOL0     H80221  -1.596   3.732   5.582 -3.9056 -1.1196  2.4535
  608MOL0     H80222  -1.789   3.597   5.766 -2.0992  0.0887 -0.5788
  608MOL0     H80223  -1.915   3.717   5.744 -0.9279  2.9040  1.6444
  608MOL0     H80224  -1.783   3.648   6.004  1.3440 -1.1327 -2.0405
  608MOL0     H80225  -1.953   3.596   5.954 -0.2272  0.3754 -1.4326
  608MOL0     H80226  -1.899   3.896   5.987  2.5755 -0.9754  2.4351
  608MOL0     H80227  -1.894   3.782   6.116  0.0647  2.7486  1.0352
  608MOL0     H80228  -2.139   3.811   5.923 -0.1416  1.3510  0.2039
  608MOL0     H80229  -2.131   3.741   6.083  0.8185 -1.1993 -1.1670
  608MOL0     H80230  -2.236   3.954   6.099  0.5100 -0.4671  2.3482
  608MOL0     H80231  -2.104   4.028   6.005 -0.8485 -0.8405 -0.2889
  608MOL0     H80232  -2.115   4.096   6.246  1.5744  1.7246 -1.5779
  608MOL0     H80233  -1.963   4.037   6.188 -0.3430  1.0209 -1.2035
  608MOL0     H80234  -2.165   3.842   6.322 -0.9816  1.4425  0.5458
  608MOL0     H80235  -1.992   3.822   6.299  1.6769  0.9458  1.1368
  608MOL0     H80236  -2.106   4.031   6.473  1.7556  0.5677  0.8120
  608MOL0     H80237  -1.935   4.010   6.435  1.1841 -1.3805  1.5482
  608MOL0     H80238  -1.541   3.828   6.011  0.3746  3.5282 -0.5653
  608MOL0     H80239  -1.300   3.770   5.980  0.6655 -1.5139 -0.2899
  608MOL0     H80240  -1.078   3.408   5.866  0.6393 -2.0348  0.2598
  608MOL0     H80241  -0.905   3.276   5.881  0.9132 -1.9819 -0.3769
  608MOL0     H80242   1.242   2.753   5.599  0.2847  1.5112 -0.6731
  608MOL0     H80243   1.486   2.786   5.633  1.1028  0.5752  0.5539
  608MOL0     H80244   1.786   3.034   5.950 -1.1260 -0.3727 -0.7018
  608MOL0     H80245   2.009   3.100   6.040 -2.1072  2.3214  0.1252
  608MOL0     H80246   2.342   2.993   5.756  3.8489 -2.9434 -0.6182
  608MOL0     H80247   2.335   2.878   5.893 -0.0383 -0.4536  0.6117
  608MOL0     H80248   2.499   3.131   5.923  1.1445 -0.0054  3.3568
  608MOL0     H80249   2.461   3.009   6.032 -0.0268 -3.3880 -0.7530
  608MOL0     H80250   2.642   3.037   5.797  1.4035  0.5188 -0.2014
  608MOL0     H80251   2.565   2.878   5.791 -1.7582  0.7838  0.7401
  608MOL0     H80252   2.741   2.994   6.009 -0.4979  0.9385 -1.9125
  608MOL0     H80253   2.638   2.842   6.030  0.9920 -0.9331 -0.6195
  608MOL0     H80254   2.981   2.710   5.816  2.0488  0.7296  2.8839
  608MOL0     H80255   2.167   2.934   5.662 -1.5303  1.6647 -2.1076
  608MOL0     H80256   1.954   2.903   5.581 -0.6127 -0.4047 -0.8752
  609MOL0     O80257  10.351   9.401   8.026 -0.2129  0.0504 -0.1992
  609MOL0     C80258  10.426   9.391   8.125  0.2077  0.8166 -0.4675
  609MOL0     O80259  10.379   9.374   8.258  0.1877  0.9061  0.1914
  609MOL0     C80260  10.239   9.372   8.260 -0.2912  0.6076  0.5456
  609MOL0     C80261  10.161   9.257   8.289 -1.4201 -0.0792  0.0211
  609MOL0     C80262  10.025   9.274   8.307  0.4530  0.2092  0.2808
  609MOL0     C80263   9.954   9.395   8.282 -0.6032 -0.2611  0.0252
  609MOL0     O80264   9.818   9.419   8.296  0.0584 -0.5279  0.2926
  609MOL0     C80265   9.731   9.318   8.260  0.6694  0.2292  0.0611
  609MOL0     C80266   9.580   9.345   8.291 -0.0817  0.0773 -0.1248
  609MOL0     C80267   9.524   9.460   8.204  0.5149  0.4348  0.1640
  609MOL0     C80268   9.369   9.481   8.223  0.5328  0.1662 -0.3189
  609MOL0     C80269   9.291   9.570   8.119 -0.5139 -0.0010  0.1047
  609MOL0     C80270   9.330   9.719   8.141  0.1511 -0.0032 -0.9101
  609MOL0     C80271   9.267   9.812   8.039  0.3834 -0.1838  0.1901
  609MOL0     C80272   9.330   9.955   8.057  0.6639  0.1949  0.1875
  609MOL0     N80273   9.249  10.060   7.982  0.3671 -0.4096 -0.9408
  609MOL0     C80274   9.237  10.067   7.842  0.4439 -0.6552  0.1603
  609MOL0     C80275   9.159  10.181   7.824  0.1617 -0.6530  0.1672
  609MOL0     C80276   9.097  10.212   7.689 -0.2591 -0.0614  0.2586
  609MOL0     C80277   8.977  10.126   7.650  0.8908 -0.6546 -0.7694
  609MOL0     C80278   8.853  10.216   7.647 -0.4996  0.1848 -0.1390
  609MOL0     C80279   8.726  10.134   7.645  0.0274  0.7352  0.4116
  609MOL0     O80280   8.712  10.049   7.760 -0.0991 -0.2024  0.1905
  609MOL0     C80281   8.591   9.997   7.788  0.2318 -0.5665 -1.3142
  609MOL0     C80282   8.487   9.993   7.703 -0.2966 -1.2620 -0.3370
  609MOL0     C80283   8.373   9.922   7.738  0.9655  0.0746  1.0397
  609MOL0     C80284   8.353   9.846   7.849 -0.0814 -0.7041 -0.0954
  609MOL0     C80285   8.227   9.775   7.877  0.4642 -0.1276 -1.0288
  609MOL0     O80286   8.143   9.763   7.770  0.2930  0.1337  0.4766
  609MOL0     C80287   8.035   9.671   7.787 -0.0958 -0.2749 -0.3858
  609MOL0     C80288   7.930   9.702   7.868 -0.0283  0.3476  0.1077
  609MOL0     C80289   7.814   9.624   7.853 -1.1622  0.0472  0.1022
  609MOL0     C80290   7.810   9.513   7.772  0.2008  0.3009 -0.2504
  609MOL0     O80291   7.688   9.462   7.751 -0.5745  0.4745  0.7107
  609MOL0     C80292   7.673   9.334   7.683 -0.3067  0.2869  0.6491
  609MOL0     C80293   7.529   9.288   7.717 -0.1255  0.9140  0.4214
  609MOL0     C80294   7.416   9.369   7.642  0.7142  0.2617 -1.1293
  609MOL0     C80295   7.278   9.311   7.682  0.3567  0.8897  0.0593
  609MOL0     C80296   7.172   9.384   7.595 -0.0823  0.7846 -0.1720
  609MOL0     C80297   7.029   9.336   7.621  0.6008 -0.1082  0.5260
  609MOL0     C80298   6.943   9.326   7.497  0.2198 -0.6929 -0.0438
  609MOL0     C80299   6.919   9.449   7.400 -0.6853  0.5938  0.2156
  609MOL0    Cl80300   6.778   9.436   7.291  0.3040 -0.1263 -0.0945
  609MOL0     C80301   7.919   9.471   7.699 -1.0087  0.2052  0.1523
  609MOL0     C80302   8.040   9.553   7.707 -0.0069 -0.1390 -0.0590
  609MOL0     O80303   8.216   9.721   7.987  0.7840 -0.7211 -0.4569
  609MOL0     C80304   8.463   9.850   7.949 -0.4104  0.7756 -0.0864
  609MOL0     C80305   8.572   9.928   7.915 -0.4381 -0.2827 -0.2359
  609MOL0     N80306   9.116  10.227   7.948 -0.3757 -0.3239  0.3204
  609MOL0     N80307   9.178  10.156   8.043  0.2466  0.4750 -0.7217
  609MOL0     C80308  10.036   9.509   8.257 -0.5317  0.3911  0.6396
  609MOL0     C80309  10.173   9.496   8.260  0.1604 -0.2641 -0.0888
  609MOL0     C80310  10.570   9.379   8.095 -0.2552 -0.5278  0.1279
  609MOL0     C80311  10.624   9.373   7.964 -0.6179 -0.1097 -0.2723
  609MOL0     C80312  10.763   9.361   7.945  0.1090  0.2137 -0.3335
  609MOL0     C80313  10.846   9.356   8.061 -0.4049  0.5567 -0.2076
  609MOL0     O80314  10.987   9.335   8.043 -0.6100  0.2626  0.5734
  609MOL0     C80315  11.075   9.342   8.164 -0.4898  0.1749  0.4145
  609MOL0     C80316  11.222   9.326   8.131  0.8401 -0.7971  0.6699
  609MOL0     C80317  11.250   9.191   8.065 -0.1280 -0.3439 -0.0131
  609MOL0     C80318  11.393   9.141   8.057  0.1299  0.6595 -0.1353
  609MOL0     C80319  11.476   9.233   7.978 -0.2498  0.9346  0.1680
  609MOL0     C80320  11.532   9.315   7.910  0.0173  0.8220 -0.1508
  609MOL0     C80321  10.801   9.361   8.194 -0.3989  0.3844  0.5906
  609MOL0     C80322  10.659   9.365   8.210 -0.2366 -1.2174 -0.1315
  609MOL0     H80323  10.210   9.160   8.295 -1.4514 -0.4952 -3.8890
  609MOL0     H80324   9.960   9.192   8.335  1.3473  0.1979  2.5826
  609MOL0     H80325   9.752   9.228   8.318 -2.5823  0.5253  1.9539
  609MOL0     H80326   9.730   9.304   8.151  0.8233 -1.9040  0.2834
  609MOL0     H80327   9.566   9.362   8.398 -1.2776 -0.4832 -0.1812
  609MOL0     H80328   9.515   9.262   8.263 -1.2693  1.1284 -0.5740
  609MOL0     H80329   9.542   9.436   8.099 -1.6188 -2.0489  0.2614
  609MOL0     H80330   9.572   9.556   8.229  0.7055  0.5153 -0.4907
  609MOL0     H80331   9.318   9.384   8.226  0.2904  0.1404 -2.9888
  609MOL0     H80332   9.367   9.512   8.328 -0.1308  1.3425 -0.6648
  609MOL0     H80333   9.186   9.541   8.132 -0.0873 -2.3552 -1.1096
  609MOL0     H80334   9.320   9.547   8.016  2.1741  3.6339 -0.1543
  609MOL0     H80335   9.439   9.730   8.140  0.2417 -0.1139  1.4539
  609MOL0     H80336   9.303   9.754   8.240  1.5731  0.2773 -0.5945
  609MOL0     H80337   9.287   9.779   7.937 -0.0490 -0.5287  0.2126
  609MOL0     H80338   9.159   9.817   8.059  0.6696  1.2006  1.6367
  609MOL0     H80339   9.432   9.956   8.018  0.2303  5.1462 -1.5400
  609MOL0     H80340   9.349   9.981   8.162  1.2438 -0.6849  0.3105
  609MOL0     H80341   9.267   9.991   7.771  0.0505  1.3895 -2.3139
  609MOL0     H80342   9.168  10.187   7.610 -0.5051 -1.8714  0.5626
  609MOL0     H80343   9.067  10.317   7.692 -5.0438 -1.1563 -0.2957
  609MOL0     H80344   8.971  10.036   7.711  1.1152 -1.9641 -2.6153
  609MOL0     H80345   8.984  10.088   7.548 -0.1560  1.2705 -1.6116
  609MOL0     H80346   8.842  10.272   7.740 -2.1703 -0.0487 -0.1675
  609MOL0     H80347   8.851  10.289   7.566 -3.6644  1.6345  1.0680
  609MOL0     H80348   8.746  10.066   7.561  2.2434  0.0817  1.3976
  609MOL0     H80349   8.635  10.194   7.634 -2.0419 -2.5767 -3.6032
  609MOL0     H80350   8.481  10.051   7.611 -2.2255 -0.6366  0.1265
  609MOL0     H80351   8.286   9.920   7.672  2.0923  1.1998 -0.5454
  609MOL0     H80352   7.926   9.795   7.923  0.2333  0.3748  0.0787
  609MOL0     H80353   7.728   9.646   7.917 -2.3654  0.0100 -1.4407
  609MOL0     H80354   7.744   9.265   7.728 -0.8760 -1.1595 -0.5934
  609MOL0     H80355   7.679   9.343   7.574 -0.0832 -0.5454  0.5899
  609MOL0     H80356   7.519   9.300   7.826  1.4415  1.6389  0.5030
  609MOL0     H80357   7.516   9.181   7.698 -0.6495  0.6441  2.0971
  609MOL0     H80358   7.428   9.358   7.534  0.5273  1.1343 -1.2504
  609MOL0     H80359   7.421   9.474   7.674  1.8388  0.6432 -2.4772
  609MOL0     H80360   7.275   9.204   7.661  0.4981  0.6827  1.0385
  609MOL0     H80361   7.253   9.332   7.787 -0.4483  0.1128  0.0333
  609MOL0     H80362   7.197   9.352   7.493 -1.7433 -1.6544  0.1013
  609MOL0     H80363   7.176   9.493   7.604 -2.4235  1.0355 -1.5766
  609MOL0     H80364   6.979   9.391   7.701  0.7239 -3.1512  2.9168
  609MOL0     H80365   7.025   9.237   7.668 -1.4416  0.1540  0.9868
  609MOL0     H80366   6.980   9.239   7.442 -0.2680 -0.6564 -0.4365
  609MOL0     H80367   6.848   9.286   7.534  0.3996 -0.6689  0.4500
  609MOL0     H80368   7.005   9.467   7.335 -1.6076 -0.5723 -1.3811
  609MOL0     H80369   6.895   9.541   7.454 -0.6516 -1.1280  3.4032
  609MOL0     H80370   7.905   9.383   7.637  0.5693 -1.2282  1.7253
  609MOL0     H80371   8.130   9.520   7.656 -0.2277  0.4764 -0.8647
  609MOL0     H80372   8.470   9.803   8.047 -0.2177 -2.4940 -1.5221
  609MOL0     H80373   8.663   9.919   7.973  0.0703  0.0725 -0.9655
  609MOL0     H80374   9.987   9.606   8.253 -0.8074  0.2386  0.1520
  609MOL0     H80375  10.250   9.572   8.251 -1.4117  1.2570 -1.2953
  609MOL0     H80376  10.554   9.368   7.881 -0.1889  0.2185 -0.6571
  609MOL0     H80377  10.795   9.350   7.842  3.0299  0.9740  0.4031
  609MOL0     H80378  11.050   9.263   8.235  0.0222  0.8545  1.3680
  609MOL0     H80379  11.061   9.432   8.224  1.5024 -1.8133  4.2282
  609MOL0     H80380  11.246   9.403   8.058 -1.1075  0.8423  1.6618
  609MOL0     H80381  11.277   9.337   8.225 -0.3396  2.6384  1.0649
  609MOL0     H80382  11.213   9.199   7.962  0.4430  1.1714 -0.1245
  609MOL0     H80383  11.191   9.114   8.116  1.4477  0.1300  2.6981
  609MOL0     H80384  11.440   9.131   8.156  1.3821 -1.7887 -0.8778
  609MOL0     H80385  11.405   9.040   8.017  1.1870 -0.0231  1.7392
  609MOL0     H80386  11.599   9.372   7.848  2.0306 -2.4913 -1.2623
  609MOL0     H80387  10.861   9.342   8.283  0.5057 -2.7324 -0.5682
  609MOL0     H80388  10.622   9.364   8.312  2.9496  1.2001  1.2301
  610MOL0     O80389   6.302   0.511   7.018 -0.0100 -0.1149 -0.6204
  610MOL0     C80390   6.308   0.601   6.933  0.2696 -0.3723 -0.3491
  610MOL0     O80391   6.419   0.652   6.880 -0.1943 -0.6701 -0.1351
  610MOL0     C80392   6.541   0.632   6.943 -0.5522 -0.1252 -0.1546
  610MOL0     C80393   6.609   0.736   7.007 -0.0925  0.0536  0.3078
  610MOL0     C80394   6.730   0.719   7.073 -0.4459 -0.6012  0.2536
  610MOL0     C80395   6.795   0.596   7.064  0.4712 -0.1613  0.3061
  610MOL0     O80396   6.912   0.569   7.124  0.2583  0.8872  0.2675
  610MOL0     C80397   6.966   0.676   7.207  0.3863  1.2444 -0.1768
  610MOL0     C80398   7.094   0.638   7.272 -0.3845  0.2647 -0.4380
  610MOL0     C80399   7.078   0.518   7.368  0.5428 -0.1500  0.4326
  610MOL0     C80400   6.994   0.546   7.492  0.2551 -0.5369 -0.7519
  610MOL0     C80401   6.856   0.467   7.504 -0.4119 -0.0736  0.1844
  610MOL0     C80402   6.756   0.472   7.385  0.4477 -0.1515  0.1847
  610MOL0     C80403   6.617   0.408   7.421 -0.3295  1.0180  0.1605
  610MOL0     C80404   6.527   0.413   7.301 -1.0707  0.2167  0.2863
  610MOL0     N80405   6.391   0.381   7.339 -0.1553  0.3534 -0.5023
  610MOL0     C80406   6.295   0.474   7.385  0.2250 -0.2525  0.5691
  610MOL0     C80407   6.197   0.393   7.435 -0.0990  0.4763  0.0218
  610MOL0     C80408   6.079   0.453   7.504  0.8114 -0.1676  0.4865
  610MOL0     C80409   5.980   0.531   7.413  0.3879  0.0428 -0.3537
  610MOL0     C80410   5.916   0.440   7.303 -0.7222  0.2049  0.2144
  610MOL0     C80411   5.808   0.510   7.227 -0.2178 -0.8749  0.0786
  610MOL0     O80412   5.702   0.534   7.311 -0.3676  0.1543  0.3145
  610MOL0     C80413   5.584   0.588   7.260 -0.3798 -0.1479  0.0103
  610MOL0     C80414   5.540   0.581   7.122  0.1472 -0.0622 -0.8758
  610MOL0     C80415   5.427   0.641   7.083  0.6204 -0.3928  0.1348
  610MOL0     C80416   5.342   0.703   7.176 -0.3296  0.1259 -0.1081
  610MOL0     C80417   5.221   0.785   7.145 -0.1951 -0.4275 -0.3313
  610MOL0     O80418   5.112   0.777   7.228 -0.5388  0.5638 -0.3008
  610MOL0     C80419   5.007   0.867   7.232 -0.7384  0.0675  1.3226
  610MOL0     C80420   5.017   1.007   7.195 -0.4036 -0.1768 -0.3090
  610MOL0     C80421   4.905   1.081   7.189 -0.0564 -0.8333 -0.6170
  610MOL0     C80422   4.782   1.036   7.227 -0.2877 -0.1041 -0.4939
  610MOL0     O80423   4.666   1.112   7.238  0.1568  0.0493 -1.0717
  610MOL0     C80424   4.681   1.258   7.252  0.4825  0.4864 -0.1738
  610MOL0     C80425   4.536   1.310   7.298 -0.3616  0.6897  0.1148
  610MOL0     C80426   4.538   1.465   7.319 -0.0202  0.5896  0.5844
  610MOL0     C80427   4.595   1.496   7.458  0.2886 -0.3975  0.2006
  610MOL0     C80428   4.599   1.645   7.479 -0.0657 -0.3324 -0.3886
  610MOL0     C80429   4.716   1.720   7.415 -0.3149  0.5262  0.6949
  610MOL0     C80430   4.690   1.872   7.425  0.1632 -0.2031 -0.0415
  610MOL0     C80431   4.772   1.936   7.316 -0.0654 -0.0580 -0.6051
  610MOL0    Cl80432   4.660   1.995   7.194 -0.4729 -0.1155 -0.0043
  610MOL0     C80433   4.767   0.896   7.257  0.2525 -0.1515  0.9527
  610MOL0     C80434   4.878   0.812   7.261 -0.3131 -0.0639 -0.2540
  610MOL0     O80435   5.225   0.848   7.040 -0.9054  0.6783 -0.4815
  610MOL0     C80436   5.376   0.688   7.313  0.7429  0.4290 -0.4617
  610MOL0     C80437   5.498   0.639   7.355  0.1670 -0.2113 -0.4186
  610MOL0     N80438   6.242   0.259   7.419 -0.0530 -0.2559  0.1230
  610MOL0     N80439   6.362   0.256   7.376  0.1698 -0.2530  0.2101
  610MOL0     C80440   6.727   0.488   6.996 -0.0612 -0.4419 -0.2230
  610MOL0     C80441   6.609   0.503   6.935  0.4934  0.3015 -0.1628
  610MOL0     C80442   6.173   0.635   6.873 -0.5392  0.2479  1.1014
  610MOL0     C80443   6.054   0.573   6.918  0.0531 -0.1058  1.0201
  610MOL0     C80444   5.931   0.591   6.853 -0.3655  0.0625  0.3549
  610MOL0     C80445   5.924   0.681   6.745  0.5807  0.2610  0.1956
  610MOL0     O80446   5.803   0.725   6.696 -0.0206 -0.2938  0.1337
  610MOL0     C80447   5.765   0.846   6.768 -0.3398  0.7179  0.2211
  610MOL0     C80448   5.614   0.865   6.773 -0.0866  0.2012 -0.5420
  610MOL0     C80449   5.552   0.886   6.635  0.3850 -0.8883 -1.1852
  610MOL0     C80450   5.402   0.914   6.637  0.1938  0.1351  0.2177
  610MOL0     C80451   5.333   0.800   6.697  0.1902  1.3071  0.5718
  610MOL0     C80452   5.253   0.706   6.722 -0.1220  0.3803 -0.5264
  610MOL0     C80453   6.041   0.740   6.698 -0.1503  0.6700 -0.1421
  610MOL0     C80454   6.164   0.717   6.759 -0.3098 -0.6050  0.3843
  610MOL0     H80455   6.564   0.833   7.024 -2.8671 -1.2157  0.7031
  610MOL0     H80456   6.778   0.804   7.120  1.0511 -1.7862  0.9798
  610MOL0     H80457   6.905   0.704   7.293  1.4908  1.7516  0.4645
  610MOL0     H80458   6.988   0.762   7.144 -0.0445  2.4098  1.2059
  610MOL0     H80459   7.134   0.724   7.327 -0.3358 -0.6958  1.0716
  610MOL0     H80460   7.167   0.621   7.192  1.7493  0.6148  1.3241
  610MOL0     H80461   7.176   0.483   7.401  1.5816  2.5744  0.4991
  610MOL0     H80462   7.039   0.435   7.308  1.2894  0.1244 -0.4468
  610MOL0     H80463   7.071   0.531   7.569  0.1607  1.7891 -0.1306
  610MOL0     H80464   6.966   0.652   7.492 -1.8619 -1.0551 -0.5245
  610MOL0     H80465   6.806   0.503   7.595  1.0264 -0.4492  1.1607
  610MOL0     H80466   6.893   0.365   7.520  1.6709  1.0312  3.6508
  610MOL0     H80467   6.800   0.422   7.298 -0.9287 -0.0751 -0.5901
  610MOL0     H80468   6.731   0.574   7.356 -0.2043 -0.5728 -0.7950
  610MOL0     H80469   6.637   0.307   7.456  2.2673  1.1907 -0.6029
  610MOL0     H80470   6.577   0.461   7.508  0.7530  0.5568  0.9537
  610MOL0     H80471   6.568   0.345   7.226  0.8087 -1.0435  2.3385
  610MOL0     H80472   6.528   0.517   7.265  1.5038  0.1826  0.0996
  610MOL0     H80473   6.291   0.583   7.380 -0.2573 -0.2067  1.6976
  610MOL0     H80474   6.118   0.507   7.591 -2.2617  1.9243  0.7347
  610MOL0     H80475   6.029   0.369   7.551 -1.1150  1.6178  1.8117
  610MOL0     H80476   6.045   0.608   7.371 -0.4796 -0.0442 -1.9291
  610MOL0     H80477   5.898   0.574   7.471  0.8615  0.7883 -0.2301
  610MOL0     H80478   5.995   0.402   7.238 -2.3472  1.8508 -2.9344
  610MOL0     H80479   5.871   0.353   7.353 -0.5890  0.0997  0.1524
  610MOL0     H80480   5.781   0.455   7.137 -0.1568 -0.2080 -0.3511
  610MOL0     H80481   5.843   0.606   7.189 -0.9645 -0.2744  0.8744
  610MOL0     H80482   5.596   0.528   7.047 -1.0728 -0.2799 -1.6542
  610MOL0     H80483   5.390   0.643   6.981 -0.8464  2.1486  0.6110
  610MOL0     H80484   5.111   1.044   7.154 -1.1383  1.9553 -0.2014
  610MOL0     H80485   4.916   1.187   7.166  1.4893 -0.6751  0.6354
  610MOL0     H80486   4.730   1.295   7.162  0.4588 -0.9191 -0.7852
  610MOL0     H80487   4.753   1.275   7.333  2.0065 -1.3173 -1.0897
  610MOL0     H80488   4.510   1.246   7.383  2.5472  1.3904  1.6772
  610MOL0     H80489   4.465   1.289   7.218  1.0066 -0.4261 -0.8590
  610MOL0     H80490   4.434   1.499   7.315  0.2864  1.4527 -1.8708
  610MOL0     H80491   4.605   1.509   7.244 -0.4745 -0.1652 -0.2877
  610MOL0     H80492   4.535   1.448   7.536 -2.0659  1.6506 -0.2347
  610MOL0     H80493   4.697   1.458   7.471 -0.4205 -1.7304  2.5377
  610MOL0     H80494   4.602   1.665   7.587 -0.5877 -0.7642 -0.2898
  610MOL0     H80495   4.504   1.683   7.440 -0.9595 -1.7143  0.3587
  610MOL0     H80496   4.736   1.686   7.313  1.2256  0.6613  0.9245
  610MOL0     H80497   4.809   1.700   7.468 -0.5578 -1.0872  0.5838
  610MOL0     H80498   4.585   1.902   7.419 -0.0300 -0.5369  1.3259
  610MOL0     H80499   4.726   1.907   7.523 -1.2811  4.4913 -0.9071
  610MOL0     H80500   4.839   1.857   7.279 -0.3793 -0.0866 -1.1117
  610MOL0     H80501   4.840   2.013   7.354  0.1098 -1.9907  3.5708
  610MOL0     H80502   4.669   0.859   7.286  0.7797 -2.4450 -0.0133
  610MOL0     H80503   4.870   0.709   7.292  3.6503 -0.8931 -1.3495
  610MOL0     H80504   5.310   0.723   7.392 -1.2883 -0.8635 -1.4971
  610MOL0     H80505   5.530   0.634   7.458  0.9412 -2.0916 -0.6908
  610MOL0     H80506   6.776   0.391   6.996  0.9583  0.0593 -0.1954
  610MOL0     H80507   6.556   0.418   6.895 -0.8202 -0.1699  2.3813
  610MOL0     H80508   6.062   0.496   6.993 -0.3937  0.1559  1.3411
  610MOL0     H80509   5.842   0.543   6.892 -1.0712 -0.5887 -1.8662
  610MOL0     H80510   5.814   0.927   6.711  1.9350 -0.8867 -0.2476
  610MOL0     H80511   5.805   0.850   6.870 -0.6919 -1.9052  0.5136
  610MOL0     H80512   5.574   0.768   6.804 -2.8193  0.9342 -1.4819
  610MOL0     H80513   5.576   0.946   6.837 -2.5504  0.7440 -2.5399
  610MOL0     H80514   5.567   0.794   6.577  4.4435 -2.6543  2.1511
  610MOL0     H80515   5.602   0.976   6.598  1.4515 -0.4907  1.0549
  610MOL0     H80516   5.366   1.007   6.683 -2.5336 -0.4666 -0.4869
  610MOL0     H80517   5.371   0.924   6.532 -0.6483  0.4601  0.4862
  610MOL0     H80518   5.176   0.642   6.761 -0.5565  0.4292 -1.2702
  610MOL0     H80519   6.033   0.787   6.601  0.7080 -0.6660 -0.8949
  610MOL0     H80520   6.248   0.777   6.724  0.4782 -0.8229  1.8467
  611MOL0     O80521   9.792   1.007   5.485  0.0169 -0.1209  0.3194
  611MOL0     C80522   9.855   0.903   5.468 -0.0290 -0.3191 -0.4262
  611MOL0     O80523   9.800   0.785   5.426 -0.3726 -0.0289  0.3543
  611MOL0     C80524   9.663   0.781   5.434  0.5988  0.6262 -0.6441
  611MOL0     C80525   9.591   0.806   5.318  0.5150  0.0427 -0.0396
  611MOL0     C80526   9.459   0.788   5.306 -0.3126 -0.1688  0.1173
  611MOL0     C80527   9.394   0.741   5.416  0.2566  0.0894  0.4004
  611MOL0     O80528   9.262   0.709   5.408  0.6345  0.0229  0.6216
  611MOL0     C80529   9.167   0.826   5.413 -0.1527  0.1144  0.9545
  611MOL0     C80530   9.025   0.771   5.405  0.8311 -0.2853  0.6165
  611MOL0     C80531   8.927   0.889   5.410  0.5249 -0.1536  0.0305
  611MOL0     C80532   8.784   0.835   5.423  0.3760 -0.4756 -0.2928
  611MOL0     C80533   8.681   0.945   5.421 -0.4555 -0.7568 -0.6569
  611MOL0     C80534   8.535   0.884   5.421 -0.5255 -0.4066 -0.6629
  611MOL0     C80535   8.425   0.993   5.433 -0.4506  0.8016 -0.7610
  611MOL0     C80536   8.286   0.924   5.454  0.9885  0.7397 -0.6324
  611MOL0     N80537   8.189   1.015   5.506  0.3280  0.2432 -0.1311
  611MOL0     C80538   8.110   1.109   5.438 -0.6883 -0.3376  0.2731
  611MOL0     C80539   8.022   1.157   5.531  0.4545  0.0292 -0.3385
  611MOL0     C80540   7.911   1.257   5.501  0.5976 -0.1012  0.1061
  611MOL0     C80541   7.815   1.269   5.630 -0.1371  0.0220  1.3695
  611MOL0     C80542   7.704   1.368   5.599 -0.0587  0.2999  0.1367
  611MOL0     C80543   7.614   1.404   5.719  0.5549  0.3274 -0.4612
  611MOL0     O80544   7.525   1.294   5.759  0.1945  0.5362 -0.4143
  611MOL0     C80545   7.396   1.277   5.714  0.5670  0.9582  0.2890
  611MOL0     C80546   7.325   1.368   5.634 -0.0201  0.0888 -0.4651
  611MOL0     C80547   7.191   1.363   5.608 -0.2606 -0.2157  0.3453
  611MOL0     C80548   7.115   1.260   5.659  0.1504  0.2531  0.2785
  611MOL0     C80549   6.969   1.257   5.611  0.4887  0.6101 -0.9087
  611MOL0     O80550   6.909   1.152   5.668 -0.2105 -0.1102  0.6833
  611MOL0     C80551   6.769   1.145   5.689 -0.9056  0.3038  0.3712
  611MOL0     C80552   6.731   1.053   5.792  0.4095 -0.1740  0.3841
  611MOL0     C80553   6.598   1.038   5.819  0.0111 -0.3744  0.5096
  611MOL0     C80554   6.493   1.108   5.747 -0.1833  0.8579  0.4813
  611MOL0     O80555   6.352   1.102   5.767  0.0595  0.2485  0.2574
  611MOL0     C80556   6.293   0.995   5.840 -0.9086 -1.2135 -0.7299
  611MOL0     C80557   6.323   0.857   5.776  0.0094 -0.0036 -0.3138
  611MOL0     C80558   6.212   0.833   5.672 -0.4728 -0.3943 -0.2439
  611MOL0     C80559   6.271   0.749   5.559 -0.4513 -0.1828  1.0945
  611MOL0     C80560   6.160   0.723   5.454  0.2798  0.1816  0.2048
  611MOL0     C80561   6.031   0.654   5.507  0.6334 -0.0608 -0.2406
  611MOL0     C80562   6.067   0.520   5.578  0.6429  0.2358  0.5794
  611MOL0     C80563   5.956   0.438   5.630  0.4885  0.6874  0.7118
  611MOL0    Cl80564   5.834   0.425   5.496 -0.0969 -0.9917  0.0148
  611MOL0     C80565   6.531   1.196   5.647  0.1207  0.3908 -0.3396
  611MOL0     C80566   6.662   1.212   5.619 -0.4293 -0.6456  0.6269
  611MOL0     O80567   6.916   1.355   5.564  0.2785 -0.1154 -0.0773
  611MOL0     C80568   7.183   1.152   5.729  0.1302 -0.1323  0.3699
  611MOL0     C80569   7.320   1.167   5.754 -0.0800  0.3441  0.1074
  611MOL0     N80570   8.055   1.094   5.648  0.0729  0.5385  0.3979
  611MOL0     N80571   8.150   1.007   5.633 -1.0510 -0.1581 -0.2424
  611MOL0     C80572   9.455   0.727   5.541 -0.4746  0.0145  0.1591
  611MOL0     C80573   9.593   0.751   5.545 -0.1274  0.2100 -0.3680
  611MOL0     C80574  10.006   0.915   5.490  0.1359  1.2426 -0.1801
  611MOL0     C80575  10.061   1.021   5.566 -0.5341 -0.0495 -0.0291
  611MOL0     C80576  10.198   1.033   5.582 -0.4030  0.9528  0.5882
  611MOL0     C80577  10.282   0.925   5.536 -0.4847 -1.1895  0.1000
  611MOL0     O80578  10.419   0.941   5.561  0.2882 -0.4654 -0.7885
  611MOL0     C80579  10.507   0.839   5.520 -0.0641 -0.2209 -0.7843
  611MOL0     C80580  10.654   0.889   5.541  0.2335  0.4137  0.5600
  611MOL0     C80581  10.765   0.783   5.500  0.5335  0.5313  0.2447
  611MOL0     C80582  10.757   0.657   5.585 -0.6384 -1.0149  0.3154
  611MOL0     C80583  10.885   0.592   5.579 -0.6925  0.4686  0.4422
  611MOL0     C80584  10.995   0.535   5.577  1.1142  0.0640 -0.4381
  611MOL0     C80585  10.222   0.812   5.470 -0.3289 -0.4517  0.1305
  611MOL0     C80586  10.088   0.808   5.456  0.0704 -0.2835 -0.8097
  611MOL0     H80587   9.647   0.845   5.233 -0.4329  2.3563  0.3255
  611MOL0     H80588   9.411   0.820   5.214  0.3729 -2.3688 -1.0827
  611MOL0     H80589   9.177   0.880   5.319 -2.2732 -1.0258  0.0234
  611MOL0     H80590   9.182   0.877   5.509 -0.3927  0.5547  0.7593
  611MOL0     H80591   9.011   0.701   5.488 -1.4208  0.6097  1.0683
  611MOL0     H80592   9.010   0.709   5.316 -0.3899 -1.8361  1.8555
  611MOL0     H80593   8.941   0.950   5.321  1.5740  0.4370  0.5864
  611MOL0     H80594   8.946   0.951   5.498 -3.1715  2.8394 -1.0450
  611MOL0     H80595   8.773   0.757   5.347 -0.6913 -0.4036 -0.2182
  611MOL0     H80596   8.776   0.778   5.516  0.6714 -1.4013 -0.8106
  611MOL0     H80597   8.690   1.017   5.339  1.0423 -1.4343 -1.1222
  611MOL0     H80598   8.703   0.988   5.519 -0.7813 -0.0295 -0.8893
  611MOL0     H80599   8.518   0.813   5.502  0.0648  1.2368  0.9886
  611MOL0     H80600   8.529   0.837   5.323  1.0225  0.8524 -1.3997
  611MOL0     H80601   8.440   1.051   5.525 -0.3845 -1.3339  0.6758
  611MOL0     H80602   8.418   1.063   5.350  3.3276  2.2138 -0.1010
  611MOL0     H80603   8.290   0.842   5.527  0.3156  0.0795 -1.3181
  611MOL0     H80604   8.250   0.877   5.362 -1.0830  0.7992  0.0875
  611MOL0     H80605   8.116   1.132   5.332  2.1285  0.2565  0.4991
  611MOL0     H80606   7.852   1.224   5.415  0.0104 -1.6916  1.0731
  611MOL0     H80607   7.960   1.355   5.493 -3.1431  2.1293  1.5203
  611MOL0     H80608   7.874   1.308   5.714  0.0885  5.0694 -0.7974
  611MOL0     H80609   7.773   1.170   5.650 -1.5710  0.2261 -0.4043
  611MOL0     H80610   7.758   1.455   5.560 -0.9172 -0.1386 -2.1894
  611MOL0     H80611   7.641   1.329   5.518  0.3383  0.8379 -0.4452
  611MOL0     H80612   7.562   1.497   5.696  1.8375  1.2895  0.4245
  611MOL0     H80613   7.677   1.437   5.802 -1.6110  0.1252  1.3559
  611MOL0     H80614   7.384   1.447   5.588  1.3325 -0.0116  1.0254
  611MOL0     H80615   7.154   1.437   5.538 -0.0805 -1.9157 -1.6465
  611MOL0     H80616   6.805   0.985   5.832  2.3202 -0.2227 -2.9072
  611MOL0     H80617   6.567   0.978   5.905  1.1615  1.0197  1.9586
  611MOL0     H80618   6.187   1.022   5.845 -1.1992 -2.0137 -2.0542
  611MOL0     H80619   6.313   1.002   5.947  0.9469 -0.0422 -1.1063
  611MOL0     H80620   6.317   0.778   5.851 -1.3109 -1.6455 -2.0460
  611MOL0     H80621   6.421   0.857   5.727  0.0483  0.9406 -0.2389
  611MOL0     H80622   6.173   0.929   5.638 -2.0050 -1.1895 -0.8586
  611MOL0     H80623   6.118   0.794   5.714 -1.7192  4.1703  1.8734
  611MOL0     H80624   6.333   0.807   5.490 -0.7464  0.1841  1.1350
  611MOL0     H80625   6.330   0.666   5.600  4.9157  2.2207 -0.8284
  611MOL0     H80626   6.184   0.672   5.360 -3.7908  0.0007 -0.9370
  611MOL0     H80627   6.116   0.819   5.425 -1.2203 -0.1654  1.2348
  611MOL0     H80628   5.970   0.631   5.419  2.4515 -2.3547 -1.0078
  611MOL0     H80629   5.983   0.721   5.579  0.9630  0.3347 -0.3858
  611MOL0     H80630   6.135   0.462   5.514  3.8141  3.6283  0.5202
  611MOL0     H80631   6.124   0.544   5.668  2.9652 -2.9728  0.1232
  611MOL0     H80632   5.906   0.474   5.720  0.2491  0.4905  0.6581
  611MOL0     H80633   6.001   0.344   5.662  0.2986  0.5281  0.5122
  611MOL0     H80634   6.451   1.249   5.596 -0.0265 -0.9873 -1.6206
  611MOL0     H80635   6.695   1.279   5.540 -0.7088 -0.7164  0.4472
  611MOL0     H80636   7.125   1.072   5.774 -3.0612  2.3670  1.0618
  611MOL0     H80637   7.375   1.092   5.810  2.3936  1.9565 -0.0430
  611MOL0     H80638   9.404   0.690   5.629  1.2783  0.1605  1.2766
  611MOL0     H80639   9.651   0.731   5.634 -1.5410 -0.5979  0.4003
  611MOL0     H80640  10.002   1.102   5.607  2.2976  2.5232 -0.6910
  611MOL0     H80641  10.225   1.121   5.640 -0.3654  2.0209 -0.9743
  611MOL0     H80642  10.492   0.821   5.413  2.2964 -1.4252 -0.9784
  611MOL0     H80643  10.497   0.746   5.576 -0.4522  0.8100  0.9259
  611MOL0     H80644  10.681   0.975   5.479 -2.4014  0.0880 -1.2559
  611MOL0     H80645  10.669   0.922   5.644  0.5179  1.0673  0.3103
  611MOL0     H80646  10.862   0.831   5.517  1.5626 -1.9735  1.8050
  611MOL0     H80647  10.750   0.759   5.394  0.7666  1.1310  0.0664
  611MOL0     H80648  10.745   0.672   5.692  3.1247 -0.5123  0.8075
  611MOL0     H80649  10.682   0.589   5.543 -1.8609  0.0367  0.7192
  611MOL0     H80650  11.086   0.479   5.590 -0.3277 -2.3458 -0.1013
  611MOL0     H80651  10.279   0.727   5.437 -1.4764 -0.6649 -1.4535
  611MOL0     H80652  10.033   0.719   5.428 -1.0107  0.4561 -1.0745
  612MOL0     O80653   6.825   5.701   5.688 -0.0116  0.1944  1.0524
  612MOL0     C80654   6.881   5.810   5.660 -0.1983 -0.4924 -0.1583
  612MOL0     O80655   6.820   5.931   5.647 -0.4069 -0.0723 -0.1515
  612MOL0     C80656   6.687   5.924   5.611  0.3401  0.0880  0.0776
  612MOL0     C80657   6.603   6.032   5.651  0.7910  0.5459  0.3077
  612MOL0     C80658   6.465   6.035   5.624 -0.8143  0.1192 -0.0513
  612MOL0     C80659   6.407   5.927   5.562  0.4184  1.1948 -0.2897
  612MOL0     O80660   6.276   5.917   5.519 -0.1980  0.0956  0.4408
  612MOL0     C80661   6.175   5.991   5.580  0.7493  0.4086 -0.7451
  612MOL0     C80662   6.038   5.941   5.536 -0.2658  0.5859  0.0200
  612MOL0     C80663   5.937   6.001   5.630  0.5938  0.9472  0.6368
  612MOL0     C80664   5.796   5.941   5.591  0.3693 -0.6119 -0.3333
  612MOL0     C80665   5.741   6.008   5.467  0.7206 -0.7249 -0.4885
  612MOL0     C80666   5.588   5.999   5.441 -0.3850 -0.0160 -0.1062
  612MOL0     C80667   5.549   5.853   5.420 -0.0144  0.0886 -0.7482
  612MOL0     C80668   5.408   5.846   5.360 -0.4864  0.2159 -0.6129
  612MOL0     N80669   5.305   5.896   5.448 -0.7237  0.3544 -0.4260
  612MOL0     C80670   5.260   5.838   5.567 -0.6206 -0.4917  0.0290
  612MOL0     C80671   5.154   5.915   5.616 -1.2009 -0.1445  0.2571
  612MOL0     C80672   5.073   5.897   5.734  0.2007 -0.1577  0.6368
  612MOL0     C80673   4.939   5.837   5.691  0.0203  0.8909 -0.0799
  612MOL0     C80674   4.855   5.779   5.807  0.4668 -0.6532 -0.6282
  612MOL0     C80675   4.819   5.900   5.893 -0.6592 -0.2193 -0.3925
  612MOL0     O80676   4.724   5.877   5.995  1.2063  0.4115 -0.4013
  612MOL0     C80677   4.593   5.848   5.953 -0.0073  0.9019  0.4169
  612MOL0     C80678   4.508   5.771   6.036  0.0868  0.2093  0.3226
  612MOL0     C80679   4.381   5.748   5.992  0.6130  0.1448 -0.1782
  612MOL0     C80680   4.319   5.792   5.869 -0.7581 -0.2780 -1.2584
  612MOL0     C80681   4.180   5.757   5.827  0.3363 -0.7220 -0.2697
  612MOL0     O80682   4.121   5.839   5.727 -1.1701 -0.2805  0.4790
  612MOL0     C80683   3.990   5.830   5.698  0.2683  0.9064 -0.2009
  612MOL0     C80684   3.895   5.733   5.743  0.1985 -0.5558  0.4858
  612MOL0     C80685   3.761   5.749   5.716 -0.0782  0.8506  0.6486
  612MOL0     C80686   3.713   5.871   5.670  0.5008  0.4465 -0.4575
  612MOL0     O80687   3.578   5.870   5.661  0.0224 -0.0935  0.1287
  612MOL0     C80688   3.509   5.985   5.609  0.3701  0.2669  0.8238
  612MOL0     C80689   3.345   5.955   5.603  0.0862 -0.4755  0.2844
  612MOL0     C80690   3.287   5.952   5.747  0.0067  0.1978 -0.5019
  612MOL0     C80691   3.280   6.094   5.807 -0.4940  0.0224 -0.3780
  612MOL0     C80692   3.247   6.082   5.961  0.1319 -0.2952  0.0566
  612MOL0     C80693   3.092   6.061   5.989 -0.3078 -0.2260  0.3246
  612MOL0     C80694   3.011   6.190   5.968  0.2323  0.1082 -0.3461
  612MOL0     C80695   2.863   6.169   5.993  0.4011 -0.7276 -1.1120
  612MOL0    Cl80696   2.779   6.317   5.943 -0.4074  0.1550  0.0314
  612MOL0     C80697   3.802   5.955   5.610  0.6057  0.5796  0.3439
  612MOL0     C80698   3.940   5.930   5.618 -0.8123  0.0757  0.2174
  612MOL0     O80699   4.141   5.654   5.873 -0.6758  0.2919 -0.7241
  612MOL0     C80700   4.408   5.864   5.792 -0.3765 -0.3940 -0.3741
  612MOL0     C80701   4.537   5.885   5.827  0.4444  0.1891  0.4346
  612MOL0     N80702   5.136   6.017   5.525 -0.0726  1.0062 -0.0512
  612MOL0     N80703   5.220   5.996   5.431  0.0076  0.0942  0.3379
  612MOL0     C80704   6.483   5.822   5.525  0.2631 -0.1985  0.2694
  612MOL0     C80705   6.622   5.824   5.536  0.4013  0.3877 -0.2232
  612MOL0     C80706   7.026   5.814   5.654  0.0183 -0.1239 -0.1371
  612MOL0     C80707   7.088   5.935   5.631 -0.1289 -0.0878 -0.5621
  612MOL0     C80708   7.230   5.943   5.635  0.1248 -0.1028  0.7129
  612MOL0     C80709   7.311   5.821   5.642  0.8267 -0.9418 -0.0631
  612MOL0     O80710   7.446   5.836   5.632  0.0515  0.4822  0.3979
  612MOL0     C80711   7.534   5.717   5.636 -0.2438 -0.8381  0.8112
  612MOL0     C80712   7.674   5.760   5.668 -0.2242 -0.0570 -0.0502
  612MOL0     C80713   7.751   5.811   5.544 -1.1182  0.1758 -0.8172
  612MOL0     C80714   7.891   5.854   5.588  0.2557 -0.0528 -0.5417
  612MOL0     C80715   7.980   5.874   5.477 -0.6279  0.4693 -0.6453
  612MOL0     C80716   8.061   5.891   5.398  0.1650  0.2181 -0.3630
  612MOL0     C80717   7.238   5.704   5.650  0.1921  0.8715 -0.0009
  612MOL0     C80718   7.102   5.698   5.659  0.3480 -0.6401  0.6076
  612MOL0     H80719   6.653   6.108   5.711  2.2449 -0.4806  0.4473
  612MOL0     H80720   6.409   6.124   5.651  0.8086  0.7742  1.2991
  612MOL0     H80721   6.181   6.097   5.556 -0.3129  0.8058  0.6194
  612MOL0     H80722   6.184   5.977   5.688  0.3484 -0.2082 -0.7816
  612MOL0     H80723   6.031   5.832   5.544  1.9857  0.4631  0.9828
  612MOL0     H80724   6.015   5.967   5.432 -2.7393  0.3488  0.4445
  612MOL0     H80725   5.932   6.109   5.619  0.8721  1.1480  2.2648
  612MOL0     H80726   5.957   5.974   5.735  2.3933  0.1720  0.1442
  612MOL0     H80727   5.798   5.832   5.581  0.6556 -0.4443 -2.8185
  612MOL0     H80728   5.724   5.970   5.668  0.0671 -3.3452  0.5063
  612MOL0     H80729   5.798   5.963   5.384  0.8775 -1.1739 -0.1421
  612MOL0     H80730   5.755   6.115   5.482  0.3660 -0.9744  2.1123
  612MOL0     H80731   5.569   6.065   5.356 -3.3259  0.7358  1.0300
  612MOL0     H80732   5.534   6.031   5.530 -2.4173 -0.7473 -1.0109
  612MOL0     H80733   5.606   5.811   5.337 -2.9523 -0.0924 -2.8660
  612MOL0     H80734   5.554   5.789   5.508 -0.5614 -0.3757 -1.0405
  612MOL0     H80735   5.375   5.744   5.340 -3.1773  0.2766  2.5868
  612MOL0     H80736   5.418   5.899   5.265  1.4655  0.0511 -0.5560
  612MOL0     H80737   5.320   5.762   5.618  2.3410  0.3751 -1.8887
  612MOL0     H80738   5.046   5.991   5.785 -2.1404 -1.2386  1.5444
  612MOL0     H80739   5.125   5.836   5.809  2.0275  1.5887  0.8773
  612MOL0     H80740   4.968   5.751   5.631 -0.8773  0.5264  0.0039
  612MOL0     H80741   4.885   5.907   5.626  2.4242  2.1478 -0.8537
  612MOL0     H80742   4.768   5.726   5.766 -0.7917  1.9743 -1.5677
  612MOL0     H80743   4.916   5.721   5.877 -0.4674  0.5536  1.2575
  612MOL0     H80744   4.783   5.977   5.825 -2.9415  2.0793  3.0683
  612MOL0     H80745   4.908   5.932   5.948  0.0994 -0.2059 -1.6006
  612MOL0     H80746   4.553   5.730   6.126  2.0690  3.6641  1.1099
  612MOL0     H80747   4.314   5.690   6.055 -2.5118  1.8955 -1.6558
  612MOL0     H80748   3.921   5.633   5.776 -2.8310 -2.1909 -1.5417
  612MOL0     H80749   3.691   5.671   5.744  1.7832 -2.3345 -2.6137
  612MOL0     H80750   3.551   5.990   5.508 -0.2150 -1.1722  0.4799
  612MOL0     H80751   3.531   6.084   5.651  1.1662  3.1161 -5.1933
  612MOL0     H80752   3.324   5.857   5.561  1.1010  0.5616 -3.0636
  612MOL0     H80753   3.306   6.035   5.539  0.7155 -1.0299 -0.8206
  612MOL0     H80754   3.339   5.879   5.810 -0.2831  1.9415  1.9284
  612MOL0     H80755   3.186   5.912   5.732  0.4154 -1.4678  0.8428
  612MOL0     H80756   3.373   6.150   5.788 -0.7487  0.2536 -0.9632
  612MOL0     H80757   3.202   6.151   5.757  1.1486  1.4518 -1.4269
  612MOL0     H80758   3.285   6.169   6.015  0.5454 -0.7697  0.5335
  612MOL0     H80759   3.288   5.988   5.999 -2.5090 -0.7536  2.0407
  612MOL0     H80760   3.079   6.022   6.090  0.2126 -2.0527 -0.2712
  612MOL0     H80761   3.053   5.986   5.921 -0.3198  2.6606 -3.1598
  612MOL0     H80762   3.049   6.271   6.031  0.2060 -1.2800  1.5294
  612MOL0     H80763   3.019   6.220   5.863 -3.1541  1.5289 -0.3421
  612MOL0     H80764   2.844   6.155   6.100 -0.2495  0.3038 -1.0806
  612MOL0     H80765   2.831   6.078   5.940 -1.5248 -0.7088 -0.0911
  612MOL0     H80766   3.761   6.036   5.550 -2.7434 -0.2924  1.2259
  612MOL0     H80767   4.006   6.004   5.574 -3.3870 -0.0590 -4.6313
  612MOL0     H80768   4.369   5.887   5.693 -0.5496 -0.3270 -0.2902
  612MOL0     H80769   4.589   5.939   5.748 -0.3598 -1.5966 -1.4008
  612MOL0     H80770   6.438   5.736   5.478 -1.6315  0.8466  0.0579
  612MOL0     H80771   6.674   5.733   5.507 -1.4030 -1.3861  1.6534
  612MOL0     H80772   7.036   6.026   5.603  1.0981  0.9734  0.4646
  612MOL0     H80773   7.271   6.042   5.617  1.5340 -0.1296  3.2991
  612MOL0     H80774   7.543   5.684   5.533  4.5672  1.0551  0.3919
  612MOL0     H80775   7.497   5.649   5.713 -1.5112  0.9767  1.8954
  612MOL0     H80776   7.685   5.816   5.761  0.7408 -0.1384 -0.1015
  612MOL0     H80777   7.732   5.668   5.683 -2.3022 -1.7038 -1.4992
  612MOL0     H80778   7.699   5.886   5.485 -1.4372 -1.4485 -2.6947
  612MOL0     H80779   7.770   5.733   5.470  0.0251  0.0976 -0.4651
  612MOL0     H80780   7.889   5.946   5.647 -2.5937 -0.1978 -0.2843
  612MOL0     H80781   7.937   5.773   5.645  0.9697  0.5367 -0.2579
  612MOL0     H80782   8.130   5.884   5.316 -0.6306 -3.4584 -0.8841
  612MOL0     H80783   7.278   5.605   5.630 -0.7275  0.6262 -0.7008
  612MOL0     H80784   7.044   5.607   5.665 -2.5345  0.9352 -1.1671
  613MOL0     O80785   4.467   1.462   8.989  0.5307 -0.1763 -0.8660
  613MOL0     C80786   4.529   1.365   9.024  0.0034  0.8250 -0.1222
  613MOL0     O80787   4.496   1.275   9.132  0.2805 -0.8441  0.0932
  613MOL0     C80788   4.368   1.277   9.172 -0.1675  0.8441 -0.4419
  613MOL0     C80789   4.354   1.324   9.302 -0.2991 -0.3951  0.4490
  613MOL0     C80790   4.228   1.321   9.366  0.6068 -0.5329  0.7838
  613MOL0     C80791   4.117   1.280   9.300 -0.1767 -0.0430  0.0098
  613MOL0     O80792   3.991   1.276   9.367 -0.3410 -0.1893  0.4117
  613MOL0     C80793   3.860   1.243   9.307 -0.7539 -0.3947  0.5440
  613MOL0     C80794   3.749   1.230   9.409  0.2571 -1.1583  0.5349
  613MOL0     C80795   3.737   1.096   9.488  0.5047 -0.9367 -0.8168
  613MOL0     C80796   3.606   1.095   9.573  0.5762 -0.2589 -0.4284
  613MOL0     C80797   3.592   0.960   9.634 -0.1638 -0.3021  0.0117
  613MOL0     C80798   3.536   0.970   9.773 -0.5960 -0.5736 -0.4664
  613MOL0     C80799   3.554   0.833   9.845 -0.0889 -0.2432  0.5132
  613MOL0     C80800   3.461   0.832   9.977  0.2969 -0.6008 -0.0604
  613MOL0     N80801   3.317   0.797   9.946 -0.4780 -0.2506 -0.2807
  613MOL0     C80802   3.255   0.683   9.977  0.6046  0.3535 -0.7349
  613MOL0     C80803   3.138   0.686   9.912  0.5446  0.1953 -0.2147
  613MOL0     C80804   3.043   0.575   9.889 -0.2946 -0.3196 -0.0752
  613MOL0     C80805   2.915   0.613   9.955  0.3220 -0.0950  0.4528
  613MOL0     C80806   2.803   0.508   9.932 -1.0796 -0.4113 -0.2883
  613MOL0     C80807   2.710   0.502  10.054 -0.1566 -0.2427  0.1495
  613MOL0     O80808   2.591   0.419  10.025 -0.4043  0.3156 -0.6971
  613MOL0     C80809   2.474   0.481   9.985  0.0220 -0.1293 -0.0571
  613MOL0     C80810   2.366   0.412   9.937  0.0700  0.9421 -1.1486
  613MOL0     C80811   2.243   0.454   9.899  0.2429  0.0628  0.0280
  613MOL0     C80812   2.219   0.587   9.906 -0.3575 -0.0094  0.4766
  613MOL0     C80813   2.091   0.639   9.869 -0.0634  0.5511  1.5442
  613MOL0     O80814   2.010   0.564   9.779 -0.2978  0.4579  0.3959
  613MOL0     C80815   1.891   0.615   9.739  1.3410 -0.6522  0.3192
  613MOL0     C80816   1.856   0.590   9.606 -0.4133 -0.0431  0.0560
  613MOL0     C80817   1.729   0.641   9.560 -0.1137 -0.1752  0.5934
  613MOL0     C80818   1.648   0.720   9.637  0.5230  0.9399  0.4902
  613MOL0     O80819   1.525   0.766   9.601 -0.2711 -0.0392 -0.5638
  613MOL0     C80820   1.426   0.662   9.586  0.4802 -0.3808  0.7061
  613MOL0     C80821   1.284   0.714   9.592  0.8055 -0.0616  0.1564
  613MOL0     C80822   1.249   0.828   9.490 -0.7648 -0.1104  0.2760
  613MOL0     C80823   1.104   0.868   9.487 -0.3680 -0.4997  0.4245
  613MOL0     C80824   1.062   0.971   9.374  0.4942 -0.1593 -0.1192
  613MOL0     C80825   0.913   0.992   9.384 -0.7545 -0.5773  0.5082
  613MOL0     C80826   0.821   0.894   9.321  0.2184 -0.1227  0.6913
  613MOL0     C80827   0.846   0.880   9.169  0.4726  1.3132  0.2876
  613MOL0    Cl80828   0.720   0.775   9.103  0.2569  0.3615  0.3454
  613MOL0     C80829   1.686   0.750   9.769 -0.5775 -0.6105  0.5228
  613MOL0     C80830   1.806   0.696   9.823 -0.0850  0.1068  1.1454
  613MOL0     O80831   2.070   0.746   9.920  0.4162 -0.0464  0.8189
  613MOL0     C80832   2.326   0.667   9.945 -0.5898  0.2041  0.4865
  613MOL0     C80833   2.456   0.618   9.974 -0.2725 -0.7885  0.0825
  613MOL0     N80834   3.125   0.815   9.857  0.1567 -0.2877  0.5293
  613MOL0     N80835   3.215   0.885   9.906 -0.1687  0.0469 -0.2271
  613MOL0     C80836   4.139   1.235   9.173 -0.3199  0.5119  0.6508
  613MOL0     C80837   4.256   1.227   9.106  0.2555  0.2419  0.7267
  613MOL0     C80838   4.667   1.343   8.973 -0.1649  0.1828  0.0591
  613MOL0     C80839   4.727   1.430   8.874 -0.3313 -0.0460 -0.5310
  613MOL0     C80840   4.853   1.409   8.825 -0.5186  0.1210 -0.3124
  613MOL0     C80841   4.931   1.304   8.867 -0.6284  1.0560  0.1337
  613MOL0     O80842   5.058   1.265   8.817  0.6998  0.7067 -0.9098
  613MOL0     C80843   5.143   1.359   8.752  0.0571  0.8945  0.7577
  613MOL0     C80844   5.198   1.309   8.625 -0.8358  0.0098  0.0455
  613MOL0     C80845   5.086   1.299   8.512  0.4911  1.1329  0.6712
  613MOL0     C80846   5.135   1.295   8.366  0.0013 -0.0960 -0.6525
  613MOL0     C80847   5.178   1.429   8.325  0.5054  0.2625  0.2102
  613MOL0     C80848   5.210   1.535   8.283  0.5801 -0.1493  0.7762
  613MOL0     C80849   4.870   1.215   8.961 -0.2586  1.0171 -0.0774
  613MOL0     C80850   4.742   1.229   9.012 -0.0181 -0.8932 -0.4932
  613MOL0     H80851   4.439   1.376   9.345 -0.1801  0.5893 -0.8954
  613MOL0     H80852   4.219   1.359   9.467  0.6067  3.7062 -0.5984
  613MOL0     H80853   3.860   1.147   9.254 -1.4523 -0.6694  1.0373
  613MOL0     H80854   3.834   1.331   9.247 -1.0029 -0.6950  0.2070
  613MOL0     H80855   3.653   1.227   9.357  1.7556 -3.1711 -2.4283
  613MOL0     H80856   3.752   1.314   9.479  2.0568 -0.8502  0.1327
  613MOL0     H80857   3.828   1.080   9.548  0.6688  0.1672 -0.7571
  613MOL0     H80858   3.716   1.015   9.418 -1.7738  1.4526 -3.0888
  613MOL0     H80859   3.607   1.172   9.651 -3.0713  0.4181 -0.8640
  613MOL0     H80860   3.519   1.109   9.508  0.9174 -0.2593 -0.8885
  613MOL0     H80861   3.691   0.914   9.637  0.2681  0.3980 -1.9516
  613MOL0     H80862   3.520   0.904   9.573 -0.0596  2.4473 -2.9246
  613MOL0     H80863   3.431   1.000   9.773 -0.8581 -1.4616 -0.6601
  613MOL0     H80864   3.598   1.035   9.835 -0.2699 -1.6372  0.3481
  613MOL0     H80865   3.518   0.753   9.780 -0.9916 -0.2281  0.9730
  613MOL0     H80866   3.661   0.822   9.863  0.3409  1.5095 -0.6849
  613MOL0     H80867   3.478   0.930  10.023  1.2054  0.4008 -2.3822
  613MOL0     H80868   3.490   0.760  10.055  0.8044  0.9171  1.2117
  613MOL0     H80869   3.286   0.594  10.031  1.6554  1.7618  1.0422
  613MOL0     H80870   3.083   0.482   9.931 -1.0767 -0.8015 -0.3755
  613MOL0     H80871   3.025   0.568   9.781  0.8626  2.7106 -0.5333
  613MOL0     H80872   2.879   0.712   9.925  0.7976  0.1426  0.6553
  613MOL0     H80873   2.943   0.628  10.060  1.6919  1.9183 -0.1286
  613MOL0     H80874   2.750   0.532   9.839 -0.8291 -1.3054 -0.6675
  613MOL0     H80875   2.846   0.408   9.924 -1.4343 -0.6972  1.1101
  613MOL0     H80876   2.679   0.601  10.087 -0.7672 -0.2240 -0.4457
  613MOL0     H80877   2.765   0.455  10.136 -1.6822  0.3388  1.5573
  613MOL0     H80878   2.397   0.308   9.932  1.2449  1.1985  0.1480
  613MOL0     H80879   2.168   0.388   9.856 -0.5254  1.5140 -0.9457
  613MOL0     H80880   1.923   0.533   9.543 -1.7413 -0.5190 -0.9561
  613MOL0     H80881   1.692   0.620   9.460  0.3257 -1.4300  0.6739
  613MOL0     H80882   1.434   0.594   9.672  2.1166 -1.2196 -0.0787
  613MOL0     H80883   1.432   0.602   9.495 -0.3913 -1.3001  1.2268
  613MOL0     H80884   1.274   0.743   9.697  2.0356 -1.6005  0.7444
  613MOL0     H80885   1.207   0.636   9.583 -1.5720  2.1974 -0.2433
  613MOL0     H80886   1.277   0.789   9.392 -0.6829  0.7937 -0.0676
  613MOL0     H80887   1.308   0.920   9.494 -1.4213  0.3394 -0.1538
  613MOL0     H80888   1.049   0.776   9.463 -1.6841  0.3718  0.0086
  613MOL0     H80889   1.070   0.891   9.588  2.7334  1.7639  1.1164
  613MOL0     H80890   1.097   0.961   9.271  0.1234  2.5419 -0.5793
  613MOL0     H80891   1.113   1.061   9.409  1.1735 -0.6961  0.3234
  613MOL0     H80892   0.890   1.087   9.335 -0.5637  0.7634  2.8741
  613MOL0     H80893   0.890   1.011   9.489  0.9889  2.4199  0.4425
  613MOL0     H80894   0.828   0.796   9.368  0.2701 -0.2393  0.4435
  613MOL0     H80895   0.718   0.925   9.340  0.7353  2.0212  0.3143
  613MOL0     H80896   0.939   0.828   9.142 -1.4060 -1.6759 -0.9732
  613MOL0     H80897   0.831   0.973   9.114 -0.3993 -0.2023 -2.2064
  613MOL0     H80898   1.628   0.830   9.815  0.4602  1.3509 -1.4422
  613MOL0     H80899   1.829   0.714   9.928  0.5449  2.7946  0.6138
  613MOL0     H80900   2.311   0.774   9.938  0.3345  0.3836  1.1491
  613MOL0     H80901   2.525   0.697  10.001  1.7013 -2.4544  0.1259
  613MOL0     H80902   4.051   1.190   9.126 -0.3424  2.2720 -1.1097
  613MOL0     H80903   4.258   1.176   9.010  1.7362 -3.4103  2.4871
  613MOL0     H80904   4.665   1.514   8.843  0.7163  1.7987  2.0328
  613MOL0     H80905   4.893   1.480   8.753  1.5659  0.3842  1.0269
  613MOL0     H80906   5.227   1.368   8.821 -1.0209 -0.8633  2.4020
  613MOL0     H80907   5.096   1.456   8.734  0.1183  0.7122 -0.5007
  613MOL0     H80908   5.274   1.377   8.586  2.5104 -2.0507  2.4150
  613MOL0     H80909   5.244   1.211   8.643  1.5118  0.4379 -2.8661
  613MOL0     H80910   5.019   1.384   8.523  0.6133  1.2772  0.3041
  613MOL0     H80911   5.035   1.205   8.534  0.6112  1.1836  1.1837
  613MOL0     H80912   5.218   1.228   8.342 -0.3837 -0.7305 -0.2317
  613MOL0     H80913   5.049   1.268   8.305 -1.6453  0.4969  1.2702
  613MOL0     H80914   5.245   1.636   8.278  2.4745 -0.7185  1.6572
  613MOL0     H80915   4.935   1.132   8.989 -0.9842  0.7858  0.9567
  613MOL0     H80916   4.720   1.156   9.089 -0.9766  0.8889  0.9957
  614MOL0     O80917   4.291   9.215   6.517 -0.1716 -0.0820 -0.1577
  614MOL0     C80918   4.299   9.334   6.522 -0.1616  0.1404  1.0173
  614MOL0     O80919   4.192   9.419   6.537 -0.0023  0.3766  0.1961
  614MOL0     C80920   4.075   9.382   6.480 -0.0003 -0.5544  0.0641
  614MOL0     C80921   3.975   9.340   6.569  0.2496  0.9417  0.8361
  614MOL0     C80922   3.841   9.337   6.525 -0.1595  0.4361  0.4832
  614MOL0     C80923   3.811   9.350   6.387 -0.6361  0.0272 -0.3324
  614MOL0     O80924   3.690   9.332   6.329 -0.0248  1.2039 -0.5238
  614MOL0     C80925   3.584   9.275   6.405  0.4372 -1.0612 -0.3879
  614MOL0     C80926   3.464   9.242   6.320 -1.0532 -0.2841 -0.7188
  614MOL0     C80927   3.344   9.191   6.395  1.4119 -0.6744  0.2999
  614MOL0     C80928   3.236   9.298   6.425 -0.5101 -0.6111  0.2884
  614MOL0     C80929   3.111   9.221   6.455  0.3656 -0.7101 -0.1674
  614MOL0     C80930   3.001   9.317   6.511  0.3214  0.7399  0.9130
  614MOL0     C80931   2.866   9.254   6.541  1.0749  0.0392  1.1333
  614MOL0     C80932   2.864   9.145   6.644  0.5552  0.1620 -1.5000
  614MOL0     N80933   2.828   9.190   6.780 -0.4823 -0.1447 -0.3655
  614MOL0     C80934   2.920   9.233   6.872 -0.2586  0.0173  0.1066
  614MOL0     C80935   2.835   9.249   6.982 -0.0520 -0.3213  0.2411
  614MOL0     C80936   2.895   9.272   7.118  0.0697  0.5578 -0.1892
  614MOL0     C80937   2.778   9.250   7.211 -0.2598  1.2375 -0.4072
  614MOL0     C80938   2.805   9.237   7.365  0.0669 -0.1071 -0.4151
  614MOL0     C80939   2.677   9.231   7.444 -0.2501  0.3234  0.6091
  614MOL0     O80940   2.612   9.105   7.413  0.3070 -0.0302  0.0216
  614MOL0     C80941   2.509   9.059   7.492 -0.6036  0.2137 -0.3775
  614MOL0     C80942   2.467   8.936   7.463  0.2472 -0.4281 -0.0429
  614MOL0     C80943   2.358   8.874   7.540 -0.9260  0.0718  0.2087
  614MOL0     C80944   2.297   8.936   7.645  0.0167 -0.5664  0.1545
  614MOL0     C80945   2.195   8.866   7.727 -0.4726  0.3269 -0.4384
  614MOL0     O80946   2.116   8.773   7.667 -0.3364 -0.1739  0.1117
  614MOL0     C80947   1.974   8.759   7.695  0.0411 -0.8533 -0.1567
  614MOL0     C80948   1.903   8.640   7.672 -0.5014 -0.0231  0.8734
  614MOL0     C80949   1.773   8.625   7.710  0.5735 -1.3873 -0.4867
  614MOL0     C80950   1.700   8.733   7.756 -0.0437  1.0561 -1.3499
  614MOL0     O80951   1.570   8.708   7.794  0.3788  0.8504  0.2446
  614MOL0     C80952   1.478   8.821   7.783  0.3172  0.5638 -0.3143
  614MOL0     C80953   1.339   8.787   7.826  0.8083  0.4114  0.2602
  614MOL0     C80954   1.244   8.779   7.711 -0.1202  0.3486  0.1647
  614MOL0     C80955   1.106   8.760   7.766  0.0259  0.0781 -0.7155
  614MOL0     C80956   1.008   8.781   7.656  0.1372 -0.1614  0.0401
  614MOL0     C80957   0.881   8.704   7.678  1.1090 -0.2362  0.2254
  614MOL0     C80958   0.900   8.552   7.648 -0.1776 -0.0086 -0.9425
  614MOL0     C80959   0.820   8.460   7.732  0.2627 -0.0385  0.3792
  614MOL0    Cl80960   0.653   8.446   7.680  0.3275 -0.5128 -0.1270
  614MOL0     C80961   1.763   8.858   7.774  0.2651 -0.4932 -0.8341
  614MOL0     C80962   1.903   8.874   7.751  0.6431  0.2492  0.5304
  614MOL0     O80963   2.179   8.908   7.843 -0.8900  0.0422  0.5075
  614MOL0     C80964   2.350   9.065   7.685  0.0554 -0.0992  0.8896
  614MOL0     C80965   2.456   9.122   7.606  0.7683  0.6339  0.4434
  614MOL0     N80966   2.700   9.242   6.946  0.5976 -0.3713  0.2899
  614MOL0     N80967   2.696   9.209   6.823  0.6958 -0.8349 -0.3734
  614MOL0     C80968   3.913   9.381   6.296  1.3851 -0.3441  0.8563
  614MOL0     C80969   4.041   9.398   6.342 -0.2217 -0.2545 -0.1096
  614MOL0     C80970   4.423   9.405   6.551 -0.1295  0.1138 -0.1473
  614MOL0     C80971   4.441   9.548   6.551  0.3237  0.3736 -0.8201
  614MOL0     C80972   4.566   9.598   6.567 -0.7274 -0.6501 -0.7004
  614MOL0     C80973   4.682   9.523   6.574  0.3164  0.3215  0.0604
  614MOL0     O80974   4.809   9.566   6.581 -0.4831  0.1558  0.2868
  614MOL0     C80975   4.826   9.710   6.592 -0.3729 -0.0872  0.7658
  614MOL0     C80976   4.960   9.754   6.644 -0.7837 -0.0939  0.4534
  614MOL0     C80977   4.978   9.703   6.787 -0.3249  0.2226  0.8209
  614MOL0     C80978   5.111   9.721   6.851 -0.1776  0.3239  0.7222
  614MOL0     C80979   5.232   9.670   6.772 -0.9239 -0.5405  0.3622
  614MOL0     C80980   5.311   9.645   6.684  0.1438  0.7912  0.1818
  614MOL0     C80981   4.655   9.383   6.577 -0.6591  0.5605 -0.2105
  614MOL0     C80982   4.533   9.323   6.567 -0.2262  0.3830  1.3252
  614MOL0     H80983   4.014   9.330   6.669  0.4602  2.7052  0.9510
  614MOL0     H80984   3.770   9.293   6.594  1.0634  0.2489  1.6617
  614MOL0     H80985   3.561   9.351   6.481  2.3763 -0.7093 -0.0922
  614MOL0     H80986   3.617   9.188   6.463  0.2263 -0.9817 -0.1453
  614MOL0     H80987   3.499   9.167   6.248  0.1705  1.1811 -1.6897
  614MOL0     H80988   3.434   9.330   6.264 -0.8886  0.7786  0.7976
  614MOL0     H80989   3.367   9.134   6.486  1.8208 -0.8442  0.0919
  614MOL0     H80990   3.301   9.122   6.322  0.9587 -0.3567  0.2650
  614MOL0     H80991   3.257   9.365   6.508 -1.1310  2.1014 -1.5934
  614MOL0     H80992   3.228   9.370   6.342 -1.3589 -0.8358  0.1633
  614MOL0     H80993   3.134   9.135   6.520 -0.9034 -0.4505  0.6682
  614MOL0     H80994   3.067   9.178   6.364 -1.9152  0.4788  0.2894
  614MOL0     H80995   2.990   9.394   6.434  3.0762 -2.1293 -2.7257
  614MOL0     H80996   3.037   9.346   6.610 -1.6994 -0.6157  2.1290
  614MOL0     H80997   2.810   9.340   6.579 -2.1358 -0.0750 -2.7392
  614MOL0     H80998   2.823   9.211   6.450  0.3052  0.7669  1.1432
  614MOL0     H80999   2.954   9.083   6.643  0.8418  0.5080  0.1255
  614MOL0     H81000   2.775   9.087   6.618 -4.1386  5.3544  0.8938
  614MOL0     H81001   3.028   9.239   6.880 -0.2457 -1.7075  2.1676
  614MOL0     H81002   2.939   9.372   7.129 -1.5032  1.7167 -3.2383
  614MOL0     H81003   2.971   9.196   7.137  2.8562  3.1945 -0.1756
  614MOL0     H81004   2.742   9.154   7.170  1.2318  0.2449  0.5247
  614MOL0     H81005   2.702   9.327   7.194 -0.4758  0.7042 -2.1728
  614MOL0     H81006   2.871   9.153   7.389 -0.5845 -0.0224  1.8554
  614MOL0     H81007   2.852   9.327   7.405  1.3310 -1.5898  1.6110
  614MOL0     H81008   2.615   9.313   7.406 -0.0484  0.1347 -0.1520
  614MOL0     H81009   2.702   9.240   7.550 -0.0152 -2.7375  0.8974
  614MOL0     H81010   2.521   8.878   7.389  2.3367 -1.4077  2.1258
  614MOL0     H81011   2.320   8.774   7.521  0.1348 -0.3187  0.0521
  614MOL0     H81012   1.955   8.557   7.626 -0.3672  1.3921 -1.7294
  614MOL0     H81013   1.715   8.533   7.710 -3.4456  0.8892 -1.4498
  614MOL0     H81014   1.489   8.855   7.680  1.2066 -0.1885 -0.4793
  614MOL0     H81015   1.507   8.906   7.845 -0.8066  1.1525 -0.5650
  614MOL0     H81016   1.304   8.869   7.889 -0.9740  3.2108 -3.8735
  614MOL0     H81017   1.338   8.696   7.885 -0.0365  1.4904  1.9884
  614MOL0     H81018   1.256   8.703   7.634 -4.0837 -0.8842  0.5175
  614MOL0     H81019   1.245   8.874   7.657 -0.5523  1.6104  2.2509
  614MOL0     H81020   1.105   8.658   7.806  2.1199 -0.8742 -2.7932
  614MOL0     H81021   1.077   8.825   7.849 -1.0974  1.7760 -2.3368
  614MOL0     H81022   1.035   8.757   7.553 -0.6373  1.7514 -0.6594
  614MOL0     H81023   0.991   8.889   7.650  1.8639  0.0527 -1.9040
  614MOL0     H81024   0.798   8.748   7.623 -0.6151 -0.3687  2.5757
  614MOL0     H81025   0.859   8.720   7.784 -1.8318  0.1807 -0.3787
  614MOL0     H81026   0.893   8.530   7.541  1.9192  0.9322 -1.3094
  614MOL0     H81027   1.006   8.528   7.660 -0.0906  0.3614 -0.9473
  614MOL0     H81028   0.825   8.499   7.834  3.5906 -1.5856  0.9502
  614MOL0     H81029   0.858   8.358   7.744 -1.1343 -0.2903  4.2978
  614MOL0     H81030   1.707   8.939   7.818  1.2062 -0.5886  0.6145
  614MOL0     H81031   1.954   8.967   7.769  2.2013  0.0576 -2.3815
  614MOL0     H81032   2.320   9.121   7.773  0.3370 -1.4448  1.8689
  614MOL0     H81033   2.491   9.223   7.629 -0.4384  1.3061 -0.5574
  614MOL0     H81034   3.882   9.415   6.198  0.1300  1.9235  1.9266
  614MOL0     H81035   4.112   9.443   6.272 -1.8887  1.5759 -0.7030
  614MOL0     H81036   4.356   9.612   6.527 -0.5352 -1.4634 -3.1685
  614MOL0     H81037   4.570   9.704   6.591  1.3476 -0.5465 -1.3388
  614MOL0     H81038   4.748   9.767   6.643 -1.8918 -0.2439 -1.2712
  614MOL0     H81039   4.819   9.729   6.484 -3.5212 -2.0363  0.4940
  614MOL0     H81040   5.036   9.700   6.587  1.6444 -0.2463  3.5721
  614MOL0     H81041   4.973   9.862   6.634 -2.6649 -0.0029 -2.0407
  614MOL0     H81042   4.947   9.599   6.776  1.1023 -0.0771 -0.7011
  614MOL0     H81043   4.898   9.745   6.849 -1.7853 -0.7711 -0.3182
  614MOL0     H81044   5.124   9.828   6.867  2.6912  0.4294 -1.5111
  614MOL0     H81045   5.092   9.666   6.944  0.0970 -2.5124 -0.7760
  614MOL0     H81046   5.385   9.605   6.619 -2.3618 -3.4329 -0.4445
  614MOL0     H81047   4.739   9.317   6.595  0.1998  1.5646 -0.4921
  614MOL0     H81048   4.526   9.215   6.554 -1.4057  0.0464  4.2424
  615MOL0     O81049   4.913   4.016   0.574  0.7420 -0.5667  0.4177
  615MOL0     C81050   4.981   4.030   0.674 -0.2859  0.2106 -0.3386
  615MOL0     O81051   4.942   3.985   0.804  0.1074  1.3124  0.2003
  615MOL0     C81052   4.809   3.944   0.825  0.1727 -0.1160  0.5466
  615MOL0     C81053   4.731   4.018   0.908 -0.0298 -0.9932  0.1915
  615MOL0     C81054   4.595   3.982   0.936  1.1176 -0.2140  0.5977
  615MOL0     C81055   4.540   3.862   0.879 -0.3183 -0.1622  0.1365
  615MOL0     O81056   4.414   3.827   0.908  0.9109  0.8841 -0.5873
  615MOL0     C81057   4.310   3.926   0.899  0.1576  0.2580  0.2058
  615MOL0     C81058   4.183   3.848   0.870 -0.6646 -0.5539 -0.2310
  615MOL0     C81059   4.139   3.781   0.995  0.7565  0.2082 -0.8782
  615MOL0     C81060   3.993   3.720   0.984  0.1196 -0.4736 -0.7700
  615MOL0     C81061   3.943   3.640   1.105  0.4217  0.5174 -0.0975
  615MOL0     C81062   3.786   3.636   1.096  0.7611  0.0358  0.5435
  615MOL0     C81063   3.700   3.604   1.221 -1.1149  0.0744 -0.5049
  615MOL0     C81064   3.758   3.659   1.348  0.6656  0.2997 -0.5258
  615MOL0     N81065   3.665   3.642   1.461  0.1276 -0.1279  0.3588
  615MOL0     C81066   3.563   3.730   1.488 -0.1008 -0.6912  0.3636
  615MOL0     C81067   3.470   3.652   1.557  0.2953 -0.3901  0.0773
  615MOL0     C81068   3.356   3.714   1.626 -0.1110 -0.8745 -0.0325
  615MOL0     C81069   3.243   3.615   1.659  0.2200  0.0150  0.2400
  615MOL0     C81070   3.150   3.661   1.766  0.3466  0.0893 -0.2162
  615MOL0     C81071   3.208   3.675   1.906 -0.0307 -0.3597  0.5485
  615MOL0     O81072   3.277   3.802   1.910 -0.1728 -0.4008 -0.2735
  615MOL0     C81073   3.328   3.846   2.031  0.8528 -0.5389 -0.0705
  615MOL0     C81074   3.421   3.952   2.045  0.1092  0.0595  0.1270
  615MOL0     C81075   3.467   3.996   2.165 -0.7042  0.0356  0.6023
  615MOL0     C81076   3.427   3.930   2.284 -0.1560 -0.0920 -0.8777
  615MOL0     C81077   3.483   3.988   2.410  0.0389 -0.5379  0.7925
  615MOL0     O81078   3.557   4.103   2.401 -0.3741 -0.1045  0.5509
  615MOL0     C81079   3.599   4.164   2.516 -0.1469  0.2285 -0.0208
  615MOL0     C81080   3.733   4.161   2.545  0.0230 -0.1540 -0.3347
  615MOL0     C81081   3.773   4.221   2.662  0.1422  0.4116  0.4233
  615MOL0     C81082   3.679   4.279   2.754  0.0966  0.0886 -0.1461
  615MOL0     O81083   3.720   4.308   2.877 -0.6033 -0.0561  0.3421
  615MOL0     C81084   3.667   4.213   2.968  0.7370  0.1564 -0.5198
  615MOL0     C81085   3.785   4.170   3.062  1.0137 -0.1196  0.6915
  615MOL0     C81086   3.735   4.091   3.188  0.4988  0.9089 -0.3560
  615MOL0     C81087   3.836   4.080   3.295 -0.2309 -0.2777 -0.6187
  615MOL0     C81088   3.834   4.204   3.378 -1.2046 -0.0161 -0.2930
  615MOL0     C81089   3.939   4.189   3.497 -0.5501 -0.5228 -0.0056
  615MOL0     C81090   3.972   4.327   3.559 -0.0357 -0.7996  0.4394
  615MOL0     C81091   4.083   4.325   3.663  0.4564  0.2547  0.2655
  615MOL0    Cl81092   4.038   4.214   3.792  0.3832 -0.2958  0.3632
  615MOL0     C81093   3.543   4.279   2.721 -0.0089 -0.4746  0.3416
  615MOL0     C81094   3.501   4.234   2.593  0.6658 -0.1526 -0.0166
  615MOL0     O81095   3.471   3.921   2.512 -0.0846  0.6441  0.1738
  615MOL0     C81096   3.330   3.830   2.280 -1.2139 -0.3847  0.5791
  615MOL0     C81097   3.286   3.790   2.152 -0.2744 -0.9690  0.3810
  615MOL0     N81098   3.521   3.529   1.576 -0.1188 -0.1815  0.5039
  615MOL0     N81099   3.626   3.519   1.513 -0.5944 -0.0804 -0.4697
  615MOL0     C81100   4.623   3.794   0.789  0.3699 -0.9124 -0.0945
  615MOL0     C81101   4.750   3.832   0.757 -0.1963 -0.2850 -0.9455
  615MOL0     C81102   5.123   4.057   0.653  0.1676  0.3209  0.4548
  615MOL0     C81103   5.157   4.122   0.526  0.1543 -0.9240 -0.3025
  615MOL0     C81104   5.291   4.137   0.496  0.2506 -0.0177 -0.0748
  615MOL0     C81105   5.393   4.091   0.585 -0.6868 -0.6626 -0.7394
  615MOL0     O81106   5.528   4.103   0.574 -0.7129 -0.2747  0.3761
  615MOL0     C81107   5.571   4.163   0.450 -0.1503 -0.3131 -0.5574
  615MOL0     C81108   5.718   4.141   0.424 -0.0514  0.1800  0.5968
  615MOL0     C81109   5.799   4.243   0.514 -0.5638  0.0875 -0.0602
  615MOL0     C81110   5.948   4.202   0.523  0.3181 -0.3517 -0.8073
  615MOL0     C81111   6.012   4.219   0.383  0.0440 -0.0086 -0.1182
  615MOL0     C81112   6.059   4.212   0.269 -0.5393  0.2069 -0.5010
  615MOL0     C81113   5.355   4.022   0.705 -0.4501 -0.8355 -0.1009
  615MOL0     C81114   5.222   4.012   0.738 -0.0300  0.4725  0.7979
  615MOL0     H81115   4.773   4.111   0.946 -2.2452  0.1068  0.1267
  615MOL0     H81116   4.542   4.044   1.007 -1.2688  0.6236 -1.7521
  615MOL0     H81117   4.327   3.992   0.814  1.2438  3.3889  2.6586
  615MOL0     H81118   4.305   3.989   0.988 -0.0446  1.0433 -0.3566
  615MOL0     H81119   4.204   3.776   0.791  0.0513 -0.2351 -0.3443
  615MOL0     H81120   4.112   3.921   0.830  0.2147  1.1964  1.2473
  615MOL0     H81121   4.147   3.852   1.078  2.1820 -0.9946  0.0668
  615MOL0     H81122   4.211   3.702   1.021  1.2867  1.8755  3.6862
  615MOL0     H81123   3.923   3.799   0.959 -0.4506 -0.5456  0.5578
  615MOL0     H81124   3.984   3.649   0.900  3.1234 -0.4071 -1.2798
  615MOL0     H81125   3.973   3.685   1.200 -0.9762  0.5111  0.3767
  615MOL0     H81126   3.975   3.536   1.104 -3.6195 -0.8914 -0.1917
  615MOL0     H81127   3.753   3.567   1.018  0.1265  2.5692 -1.5999
  615MOL0     H81128   3.759   3.740   1.076  3.5333  0.3395 -2.3978
  615MOL0     H81129   3.594   3.626   1.205 -1.5178 -1.6325 -0.3194
  615MOL0     H81130   3.716   3.497   1.237 -0.1019  0.4169  0.9640
  615MOL0     H81131   3.781   3.766   1.351 -0.9152  0.6405  0.3150
  615MOL0     H81132   3.851   3.606   1.372  0.8975 -0.1469 -2.2362
  615MOL0     H81133   3.542   3.834   1.465 -1.3588 -0.2973  2.9879
  615MOL0     H81134   3.313   3.783   1.552 -0.6463 -2.8104 -1.6440
  615MOL0     H81135   3.391   3.768   1.714 -2.0909 -2.0048  1.5254
  615MOL0     H81136   3.287   3.518   1.686  1.8436  0.2991 -1.1812
  615MOL0     H81137   3.196   3.597   1.562  3.4469 -1.5315 -1.2145
  615MOL0     H81138   3.104   3.753   1.731 -0.5316 -1.5269 -3.7117
  615MOL0     H81139   3.070   3.586   1.771  0.8141 -0.3427  1.3503
  615MOL0     H81140   3.279   3.595   1.929  2.1111  0.8056 -1.4938
  615MOL0     H81141   3.125   3.675   1.977 -0.5585  0.2391 -0.0606
  615MOL0     H81142   3.435   3.986   1.943  1.6089 -1.8280 -0.3494
  615MOL0     H81143   3.524   4.088   2.171 -2.1858  1.1737 -1.3815
  615MOL0     H81144   3.803   4.105   2.484 -0.5146 -2.0224  0.6700
  615MOL0     H81145   3.875   4.221   2.698 -0.1218  1.5236  1.2427
  615MOL0     H81146   3.619   4.128   2.918 -2.3906  2.3481 -1.5369
  615MOL0     H81147   3.585   4.259   3.024  1.6098 -1.1738  2.0100
  615MOL0     H81148   3.834   4.263   3.093  2.2804  0.0315 -1.5869
  615MOL0     H81149   3.850   4.109   2.999  0.4586  0.3584 -0.3579
  615MOL0     H81150   3.716   3.992   3.145 -1.1572  2.0134 -2.3658
  615MOL0     H81151   3.636   4.128   3.217  0.5714  1.6036 -0.9754
  615MOL0     H81152   3.816   3.995   3.361 -0.2119 -0.3214 -0.6691
  615MOL0     H81153   3.932   4.065   3.245 -0.0872  2.4868 -1.3268
  615MOL0     H81154   3.738   4.231   3.422  0.6221  0.9676  3.4648
  615MOL0     H81155   3.892   4.274   3.316 -0.6641  0.1986  0.4431
  615MOL0     H81156   4.036   4.147   3.468  0.5167  1.6596  0.1212
  615MOL0     H81157   3.907   4.120   3.576 -0.0559  0.2147  0.8609
  615MOL0     H81158   3.996   4.394   3.476  0.9018  0.8198  1.9451
  615MOL0     H81159   3.882   4.380   3.592 -0.2212  0.3073 -1.6945
  615MOL0     H81160   4.107   4.419   3.714  0.5730 -1.0467  2.7430
  615MOL0     H81161   4.174   4.291   3.613  0.6184 -0.3437  0.9555
  615MOL0     H81162   3.467   4.318   2.788  1.1600 -0.6782  1.8311
  615MOL0     H81163   3.396   4.246   2.568  0.8299 -0.2591 -0.7633
  615MOL0     H81164   3.307   3.772   2.369  2.6703 -1.5756  1.0223
  615MOL0     H81165   3.203   3.720   2.144 -2.1241  1.2802 -3.7487
  615MOL0     H81166   4.574   3.703   0.755 -2.3701 -0.5128  2.4121
  615MOL0     H81167   4.809   3.768   0.693  0.5062  0.1260 -0.7186
  615MOL0     H81168   5.078   4.165   0.464 -1.2643  1.2185  2.7515
  615MOL0     H81169   5.306   4.182   0.398 -0.9158  2.3077  0.7283
  615MOL0     H81170   5.556   4.271   0.461 -2.4022 -0.6249 -0.1563
  615MOL0     H81171   5.515   4.121   0.366  1.7072 -0.6668 -1.6776
  615MOL0     H81172   5.737   4.037   0.450 -0.4650  0.0390  0.3498
  615MOL0     H81173   5.727   4.161   0.317 -0.5519 -0.6718  0.3893
  615MOL0     H81174   5.758   4.247   0.615 -1.7884  1.7825 -0.5672
  615MOL0     H81175   5.791   4.344   0.472 -0.9459 -0.0391 -0.3038
  615MOL0     H81176   6.004   4.241   0.608 -0.8160 -2.4060  0.9652
  615MOL0     H81177   5.961   4.096   0.545 -1.8265 -0.7462 -1.2423
  615MOL0     H81178   6.091   4.211   0.166 -0.7894  0.9284 -0.5913
  615MOL0     H81179   5.435   3.976   0.762  0.6635  1.7721  0.5821
  615MOL0     H81180   5.212   3.961   0.833  2.4078 -1.9992 -0.1392
  616MOL0     O81181   8.315  10.095   2.587  0.1791 -0.0647 -0.9062
  616MOL0     C81182   8.350   9.995   2.648 -0.6693  0.0427  0.8371
  616MOL0     O81183   8.273   9.932   2.738  0.1678  0.5627 -0.1930
  616MOL0     C81184   8.139   9.960   2.749  0.2809 -0.1187 -0.2107
  616MOL0     C81185   8.048   9.985   2.646  0.3104  0.6883 -0.7812
  616MOL0     C81186   7.920  10.031   2.661  1.3044  0.1993 -0.2359
  616MOL0     C81187   7.867  10.035   2.793 -1.1334 -0.1124  0.3730
  616MOL0     O81188   7.736  10.056   2.825  0.3733 -0.0248  0.4122
  616MOL0     C81189   7.631  10.042   2.732  0.0944 -0.2804 -0.5976
  616MOL0     C81190   7.502  10.082   2.804 -0.6319  0.2156 -0.3921
  616MOL0     C81191   7.381  10.074   2.715 -0.4834  0.4280  0.0637
  616MOL0     C81192   7.251  10.120   2.797 -0.1283  0.1237  0.1866
  616MOL0     C81193   7.129  10.083   2.719 -0.3511 -0.1034  0.6135
  616MOL0     C81194   7.013  10.154   2.778 -0.2724  0.2590 -0.6255
  616MOL0     C81195   6.889  10.126   2.696 -0.0052 -1.5057  0.5700
  616MOL0     C81196   6.768  10.197   2.770  0.9412 -0.1603  0.2782
  616MOL0     N81197   6.649  10.160   2.686 -0.6887  0.1760 -0.2504
  616MOL0     C81198   6.593  10.035   2.650 -0.5733 -0.1742 -0.2561
  616MOL0     C81199   6.489  10.059   2.577  0.1187 -0.5050  0.1606
  616MOL0     C81200   6.402   9.956   2.517  0.0987  0.2999  1.0196
  616MOL0     C81201   6.306   9.988   2.393  0.7820  0.4808  0.4766
  616MOL0     C81202   6.221   9.872   2.340  0.0093  0.7286 -0.4641
  616MOL0     C81203   6.101   9.932   2.258  0.3869  0.1628  0.2549
  616MOL0     O81204   6.032   9.839   2.178  0.4590 -0.3467 -0.1426
  616MOL0     C81205   5.949   9.902   2.079 -0.3978 -0.1106 -0.0880
  616MOL0     C81206   5.868   9.811   2.003 -0.7246  0.7643  0.3784
  616MOL0     C81207   5.786   9.844   1.904 -0.3114  0.3832 -0.4135
  616MOL0     C81208   5.766   9.988   1.873 -0.2954  0.8110  0.5725
  616MOL0     C81209   5.669  10.027   1.774 -0.8308  0.0649  0.1778
  616MOL0     O81210   5.617  10.150   1.789 -0.1158  0.9010 -0.0637
  616MOL0     C81211   5.543  10.200   1.686  0.5957 -0.6316  0.1637
  616MOL0     C81212   5.586  10.318   1.624 -0.4865  0.0940 -0.5278
  616MOL0     C81213   5.513  10.387   1.530  0.7120 -0.1912 -0.3232
  616MOL0     C81214   5.387  10.336   1.498 -1.1910  0.2341 -0.0007
  616MOL0     O81215   5.305  10.402   1.405  0.2012 -0.7255  0.0476
  616MOL0     C81216   5.225  10.328   1.310 -0.2919  0.2276 -0.3268
  616MOL0     C81217   5.075  10.324   1.338  0.4215  0.3036  0.1886
  616MOL0     C81218   4.997  10.261   1.224 -0.0547  1.1871 -0.2834
  616MOL0     C81219   5.031  10.102   1.212 -0.1640 -0.6544 -0.3942
  616MOL0     C81220   4.954  10.030   1.090 -0.2388 -0.2420 -0.6096
  616MOL0     C81221   4.804  10.021   1.126  0.7212  0.0972  0.1895
  616MOL0     C81222   4.721   9.934   1.032 -0.4980 -1.2214  1.0748
  616MOL0     C81223   4.571   9.958   1.049 -0.3503 -0.5137  1.3137
  616MOL0    Cl81224   4.470   9.861   0.937 -0.2030 -0.3504  0.3173
  616MOL0     C81225   5.348  10.208   1.550  0.3759 -0.4941 -1.0159
  616MOL0     C81226   5.424  10.142   1.643 -0.1382 -0.0325  0.1941
  616MOL0     O81227   5.640   9.948   1.686  0.1241 -0.3764 -0.2791
  616MOL0     C81228   5.839  10.075   1.952 -0.4029  0.1554  0.3299
  616MOL0     C81229   5.933  10.038   2.048  0.1502  0.5097 -0.1575
  616MOL0     N81230   6.467  10.192   2.581  0.6347 -0.5705  1.3701
  616MOL0     N81231   6.566  10.249   2.635  0.6061 -0.1776  0.0147
  616MOL0     C81232   7.955  10.000   2.890  0.3154 -0.0102 -0.4388
  616MOL0     C81233   8.095   9.977   2.877  0.2696 -0.2678 -0.0201
  616MOL0     C81234   8.494   9.948   2.631 -0.2688  0.2654 -0.6528
  616MOL0     C81235   8.566   9.903   2.742  0.1378  0.4640  0.1295
  616MOL0     C81236   8.698   9.854   2.731  0.0626  0.1521 -1.0780
  616MOL0     C81237   8.756   9.849   2.611  0.2808  0.0547  0.8103
  616MOL0     O81238   8.880   9.798   2.578  0.2779 -0.2774 -0.1771
  616MOL0     C81239   8.970   9.743   2.673 -0.2041 -0.5841 -0.3775
  616MOL0     C81240   9.030   9.869   2.754 -0.1084 -0.4982 -1.0045
  616MOL0     C81241   9.137   9.944   2.668 -0.2881 -0.4211 -0.5231
  616MOL0     C81242   9.217  10.058   2.752 -0.2657 -0.3266 -0.0065
  616MOL0     C81243   9.304  10.130   2.665 -0.4341  0.3673 -0.8780
  616MOL0     C81244   9.373  10.188   2.587  0.4617 -0.3404  0.7536
  616MOL0     C81245   8.688   9.910   2.501  0.6604  0.6932  0.6726
  616MOL0     C81246   8.555   9.960   2.512  0.7985 -1.5314  0.6042
  616MOL0     H81247   8.075   9.978   2.541  0.5362  0.0459 -0.6825
  616MOL0     H81248   7.857  10.066   2.581 -2.7866  1.2185  3.1059
  616MOL0     H81249   7.625   9.942   2.688  2.2735  0.4583 -2.7407
  616MOL0     H81250   7.658  10.112   2.653 -0.3760  0.6487  0.0538
  616MOL0     H81251   7.521  10.183   2.843  0.4982  0.2262 -0.9262
  616MOL0     H81252   7.488  10.019   2.892  0.4689  0.2696 -0.1573
  616MOL0     H81253   7.367   9.972   2.677 -1.3809 -0.0511  1.5981
  616MOL0     H81254   7.394  10.141   2.629 -0.1202  0.6030  0.2555
  616MOL0     H81255   7.233  10.066   2.890  0.2566  1.0023  0.7938
  616MOL0     H81256   7.261  10.228   2.813  2.4893  0.1953 -1.3407
  616MOL0     H81257   7.115   9.975   2.716 -0.9829 -0.0072 -0.2195
  616MOL0     H81258   7.145  10.115   2.616  1.0639  1.1775  1.1872
  616MOL0     H81259   7.026  10.263   2.783  0.0158  0.1902  0.5157
  616MOL0     H81260   6.996  10.114   2.879 -1.3875 -0.2927 -1.0158
  616MOL0     H81261   6.901  10.164   2.594 -3.3559 -1.0342  0.2610
  616MOL0     H81262   6.877  10.018   2.683 -1.3652 -1.2820 -0.2426
  616MOL0     H81263   6.797  10.302   2.778 -0.1232  0.1369  0.3801
  616MOL0     H81264   6.753  10.172   2.876  1.8243 -0.4726  0.3413
  616MOL0     H81265   6.638   9.938   2.666  1.5052  0.8822  0.8077
  616MOL0     H81266   6.336   9.922   2.597  1.5263  1.2773  2.6667
  616MOL0     H81267   6.472   9.876   2.493  0.0835  0.6814 -0.4204
  616MOL0     H81268   6.370  10.029   2.314  1.7647  1.4238  1.7008
  616MOL0     H81269   6.241  10.074   2.413  2.2868  2.5283 -2.6377
  616MOL0     H81270   6.286   9.814   2.274 -2.4861 -0.4232 -2.0142
  616MOL0     H81271   6.171   9.810   2.415 -1.4824  1.3340 -0.9169
  616MOL0     H81272   6.149  10.000   2.187  1.8871 -0.5611  0.5252
  616MOL0     H81273   6.033   9.991   2.320  0.4312  0.6280 -0.1271
  616MOL0     H81274   5.878   9.709   2.040  1.3333  1.6423  2.5056
  616MOL0     H81275   5.742   9.763   1.847  2.0610 -1.3127 -0.0358
  616MOL0     H81276   5.689  10.349   1.639 -0.5482 -0.3867  1.0935
  616MOL0     H81277   5.561  10.473   1.484 -0.1010  0.5533  0.1889
  616MOL0     H81278   5.282  10.236   1.294  1.7438  0.8349  2.6357
  616MOL0     H81279   5.238  10.382   1.215 -3.1940  2.5500  0.4173
  616MOL0     H81280   5.041  10.428   1.341 -1.8169 -0.2259 -2.2080
  616MOL0     H81281   5.048  10.266   1.427 -2.4860 -1.0460 -1.3929
  616MOL0     H81282   5.028  10.290   1.124 -0.9486 -1.9383 -1.5834
  616MOL0     H81283   4.891  10.279   1.244 -1.0523 -1.2553 -2.8238
  616MOL0     H81284   5.140  10.099   1.200  0.4119  3.5017  1.6789
  616MOL0     H81285   5.001  10.052   1.304 -1.4317  0.0786 -0.3827
  616MOL0     H81286   4.995   9.928   1.093 -0.8340 -0.4691  0.2913
  616MOL0     H81287   4.973  10.076   0.993 -4.1216 -2.8098 -2.8341
  616MOL0     H81288   4.768  10.124   1.124 -1.2457 -0.4702  2.0845
  616MOL0     H81289   4.789   9.984   1.228  1.1396 -0.2746  0.1193
  616MOL0     H81290   4.746   9.967   0.931  2.1041 -3.0857  0.9981
  616MOL0     H81291   4.739   9.828   1.055 -2.7007 -1.5902  1.2824
  616MOL0     H81292   4.548  10.062   1.024  1.1923  0.0116  1.9398
  616MOL0     H81293   4.552   9.943   1.156 -0.0255  2.6346  1.9086
  616MOL0     H81294   5.258  10.159   1.513 -0.8097 -1.1165  2.3708
  616MOL0     H81295   5.408  10.039   1.674 -1.3098 -1.1526 -3.5239
  616MOL0     H81296   5.838  10.180   1.925 -1.9551 -0.1770 -1.1098
  616MOL0     H81297   5.987  10.123   2.088 -1.6254  1.8288 -0.4225
  616MOL0     H81298   7.920   9.993   2.992 -3.2080 -2.0034 -1.6076
  616MOL0     H81299   8.154   9.952   2.965 -0.2652 -1.4535  0.0143
  616MOL0     H81300   8.504   9.912   2.831 -0.7475 -3.1166 -0.0031
  616MOL0     H81301   8.747   9.806   2.815 -0.3736 -3.4113 -2.7153
  616MOL0     H81302   9.055   9.691   2.628  0.1926 -0.4493  0.2090
  616MOL0     H81303   8.913   9.684   2.745 -1.1254  1.2438  0.4430
  616MOL0     H81304   8.947   9.937   2.778  0.3837  0.2360 -1.3438
  616MOL0     H81305   9.075   9.835   2.847 -0.5449 -2.2117 -1.3687
  616MOL0     H81306   9.087   9.986   2.580 -1.3556 -1.3703 -0.4038
  616MOL0     H81307   9.212   9.870   2.639  0.8990 -0.3357  2.0934
  616MOL0     H81308   9.144  10.129   2.793 -1.4994 -1.0638 -0.8614
  616MOL0     H81309   9.268   9.999   2.829  0.6512  2.8490  2.0088
  616MOL0     H81310   9.433  10.247   2.521 -0.6067  0.0250  0.0802
  616MOL0     H81311   8.734   9.907   2.403 -0.4619 -3.8637  0.0817
  616MOL0     H81312   8.498  10.002   2.429  2.6237 -0.0555  0.0054
  617MOL0     O81313   0.672   2.768   1.344 -0.6838 -0.2819  0.0522
  617MOL0     C81314   0.710   2.647   1.349 -0.6216  0.3448 -0.7158
  617MOL0     O81315   0.632   2.546   1.329 -0.4557 -0.1187 -0.3453
  617MOL0     C81316   0.502   2.561   1.278  0.4030 -0.0461 -0.1195
  617MOL0     C81317   0.406   2.461   1.312 -0.3335  0.7520  0.7462
  617MOL0     C81318   0.270   2.469   1.275  0.0810  0.5387  0.6971
  617MOL0     C81319   0.226   2.578   1.199  0.4346 -0.9956  0.1002
  617MOL0     O81320   0.099   2.585   1.138 -0.7863  0.5192  0.1191
  617MOL0     C81321   0.017   2.465   1.139 -1.0637  0.7777 -0.3438
  617MOL0     C81322  -0.054   2.443   1.010  0.7645  0.5674 -0.0501
  617MOL0     C81323  -0.161   2.552   0.975 -0.0998  0.8376  0.0409
  617MOL0     C81324  -0.276   2.549   1.083 -0.6968 -0.6393  0.1189
  617MOL0     C81325  -0.357   2.679   1.052  0.4526  0.9318 -0.5569
  617MOL0     C81326  -0.489   2.665   1.125  0.9267 -0.4480 -0.0019
  617MOL0     C81327  -0.575   2.780   1.070 -0.3122 -0.4429  0.0837
  617MOL0     C81328  -0.623   2.760   0.923 -1.2409 -0.1499  0.0109
  617MOL0     N81329  -0.744   2.821   0.891 -0.2525  0.3650 -0.1529
  617MOL0     C81330  -0.864   2.754   0.890 -0.2945  0.7159  0.0076
  617MOL0     C81331  -0.946   2.839   0.833 -0.3038 -0.3458  0.4847
  617MOL0     C81332  -1.084   2.801   0.805  0.5193 -0.2473 -0.4517
  617MOL0     C81333  -1.195   2.905   0.845 -0.3312 -0.5369  0.4729
  617MOL0     C81334  -1.156   2.977   0.976 -0.9098  0.1253  0.0905
  617MOL0     C81335  -1.281   3.055   1.021  0.3860 -0.8256 -0.2943
  617MOL0     O81336  -1.389   2.964   1.042 -0.8319 -0.5209  0.7049
  617MOL0     C81337  -1.504   3.020   1.102  0.4494  0.7166 -0.2020
  617MOL0     C81338  -1.615   2.936   1.126  1.0944  0.6916  0.3043
  617MOL0     C81339  -1.731   3.003   1.173  0.2701  0.4937 -0.6870
  617MOL0     C81340  -1.728   3.138   1.228  0.2097  0.3024  0.3480
  617MOL0     C81341  -1.857   3.201   1.298  0.0649 -0.4715  0.1510
  617MOL0     O81342  -1.954   3.125   1.340  0.3819  0.2031 -0.1906
  617MOL0     C81343  -2.063   3.190   1.400 -1.0479  0.7842 -0.1137
  617MOL0     C81344  -2.165   3.253   1.339 -0.0595 -0.1021 -0.0466
  617MOL0     C81345  -2.264   3.313   1.424  0.6169  0.6299  0.1302
  617MOL0     C81346  -2.260   3.307   1.567  0.1347  1.3046  0.2041
  617MOL0     O81347  -2.358   3.344   1.649  0.1553 -0.4059  0.6543
  617MOL0     C81348  -2.434   3.460   1.612  0.6150 -1.3871 -0.1253
  617MOL0     C81349  -2.463   3.535   1.741  0.0689  0.4939 -0.6507
  617MOL0     C81350  -2.330   3.600   1.793 -0.1740 -0.6709 -0.5095
  617MOL0     C81351  -2.264   3.501   1.885 -0.2813  0.4912  0.4599
  617MOL0     C81352  -2.133   3.551   1.956  0.0375 -0.3310  0.5561
  617MOL0     C81353  -2.029   3.605   1.857  0.0897  0.3505 -0.6222
  617MOL0     C81354  -1.998   3.506   1.744  0.1610  1.2474 -0.4314
  617MOL0     C81355  -1.863   3.539   1.682 -0.2293 -0.0354  0.0809
  617MOL0    Cl81356  -1.734   3.538   1.793  0.1349  0.0764  0.1505
  617MOL0     C81357  -2.154   3.232   1.626  0.4155  0.0157  0.4761
  617MOL0     C81358  -2.061   3.177   1.538 -0.2778 -0.4910  0.3893
  617MOL0     O81359  -1.861   3.328   1.303  0.1710  0.3114 -0.2947
  617MOL0     C81360  -1.616   3.207   1.213  0.1503  0.5002  0.7820
  617MOL0     C81361  -1.508   3.151   1.145 -0.3843  0.1380 -0.2616
  617MOL0     N81362  -0.885   2.960   0.815  0.0662 -0.4624 -0.2866
  617MOL0     N81363  -0.761   2.951   0.848 -0.2238  0.2522 -0.3128
  617MOL0     C81364   0.319   2.670   1.153 -0.0109 -0.2012  0.0937
  617MOL0     C81365   0.453   2.664   1.200  0.0354 -0.7538  0.1983
  617MOL0     C81366   0.851   2.618   1.389 -1.0374  0.4252 -0.4077
  617MOL0     C81367   0.891   2.483   1.407  0.2339  0.0717  0.2364
  617MOL0     C81368   1.025   2.443   1.427  0.4495 -0.0040 -0.0699
  617MOL0     C81369   1.113   2.548   1.438 -0.4292  0.8081 -0.4609
  617MOL0     O81370   1.241   2.510   1.458  0.7857  0.8576 -0.1345
  617MOL0     C81371   1.332   2.558   1.362 -0.4224  0.3685 -0.6637
  617MOL0     C81372   1.435   2.442   1.364  0.3588  0.3768  0.6793
  617MOL0     C81373   1.543   2.476   1.256  0.0953 -0.3672 -0.7077
  617MOL0     C81374   1.653   2.365   1.242 -0.7601  0.7110  1.1150
  617MOL0     C81375   1.719   2.354   1.365 -0.3759 -0.7367 -0.1093
  617MOL0     C81376   1.790   2.339   1.457  0.1853  1.3291  0.1777
  617MOL0     C81377   1.073   2.682   1.431  0.4490 -0.2534 -0.2800
  617MOL0     C81378   0.938   2.718   1.410  0.1839 -0.5322  0.0848
  617MOL0     H81379   0.462   2.383   1.363 -0.2237  0.6205  0.4267
  617MOL0     H81380   0.212   2.387   1.316  0.3608 -0.6514 -1.1716
  617MOL0     H81381  -0.043   2.463   1.230 -0.1665  0.5351  0.2586
  617MOL0     H81382   0.070   2.370   1.152 -0.3734  1.1900 -0.0963
  617MOL0     H81383  -0.102   2.345   1.016 -0.2737  1.0135 -0.7418
  617MOL0     H81384   0.024   2.441   0.933  1.3874  0.6898  0.5719
  617MOL0     H81385  -0.202   2.530   0.875 -0.9471  3.2357 -0.1992
  617MOL0     H81386  -0.117   2.651   0.961 -1.6097  1.1770 -3.3716
  617MOL0     H81387  -0.344   2.462   1.082 -1.7992  0.1805 -2.0322
  617MOL0     H81388  -0.230   2.543   1.182  1.6515 -2.3814 -0.9909
  617MOL0     H81389  -0.367   2.688   0.944  0.2320 -0.7400 -0.7047
  617MOL0     H81390  -0.298   2.762   1.094  3.2590 -0.5725 -1.2393
  617MOL0     H81391  -0.475   2.683   1.232 -0.2332  0.5532 -0.0038
  617MOL0     H81392  -0.541   2.572   1.102  1.8044 -0.8639 -0.3388
  617MOL0     H81393  -0.659   2.774   1.140 -0.0849  0.2044  0.4173
  617MOL0     H81394  -0.523   2.876   1.072 -1.2259  0.1006  2.8870
  617MOL0     H81395  -0.631   2.651   0.916  3.1771 -0.7232  0.8009
  617MOL0     H81396  -0.546   2.785   0.850 -0.4337 -3.1171 -0.3094
  617MOL0     H81397  -0.885   2.649   0.911 -1.2236  0.3588 -2.3888
  617MOL0     H81398  -1.099   2.717   0.873 -0.9725 -0.7092 -1.3183
  617MOL0     H81399  -1.074   2.758   0.705  1.2767 -2.2806  0.4495
  617MOL0     H81400  -1.288   2.847   0.849 -0.7629  0.1104  0.0007
  617MOL0     H81401  -1.192   2.982   0.767 -1.6251  1.3698  2.2051
  617MOL0     H81402  -1.123   2.908   1.054  0.3813  2.9272  2.2189
  617MOL0     H81403  -1.074   3.048   0.964 -0.6875 -0.3637 -1.4522
  617MOL0     H81404  -1.307   3.122   0.939  1.1756 -0.1389 -0.0002
  617MOL0     H81405  -1.251   3.106   1.113  0.2013  3.3794 -2.3581
  617MOL0     H81406  -1.628   2.838   1.081 -1.2547  1.1162 -0.0632
  617MOL0     H81407  -1.831   2.964   1.158 -1.1904  4.5296 -3.3520
  617MOL0     H81408  -2.174   3.235   1.232 -3.8656 -2.4947  0.4853
  617MOL0     H81409  -2.346   3.359   1.371 -0.7185 -0.2824  1.3233
  617MOL0     H81410  -2.521   3.426   1.554  0.5007  0.8051 -1.3426
  617MOL0     H81411  -2.383   3.530   1.545 -0.6289 -2.3469 -2.1701
  617MOL0     H81412  -2.501   3.470   1.821  1.4868 -1.1694 -1.2557
  617MOL0     H81413  -2.539   3.609   1.716 -0.7157  0.2256  0.8009
  617MOL0     H81414  -2.344   3.692   1.850  1.2567  0.7348 -2.2849
  617MOL0     H81415  -2.271   3.616   1.702  0.4391  1.0307  0.1357
  617MOL0     H81416  -2.334   3.465   1.961 -1.0710 -1.0266 -0.9165
  617MOL0     H81417  -2.228   3.412   1.833 -0.7760 -0.4595  1.6943
  617MOL0     H81418  -2.082   3.462   1.992 -1.0864 -0.0118  3.1203
  617MOL0     H81419  -2.154   3.616   2.042 -1.6830 -0.8887  0.5869
  617MOL0     H81420  -1.938   3.629   1.912 -0.3870 -2.1767  1.4923
  617MOL0     H81421  -2.074   3.697   1.818 -1.8992  1.3128  3.3616
  617MOL0     H81422  -1.983   3.407   1.788 -0.2228  1.9732  1.4176
  617MOL0     H81423  -2.073   3.502   1.665  0.1968 -3.1068 -0.5056
  617MOL0     H81424  -1.868   3.639   1.639 -3.5590  0.0958  0.5423
  617MOL0     H81425  -1.841   3.472   1.598 -2.5398  1.4769 -1.8556
  617MOL0     H81426  -2.151   3.197   1.728  1.8806 -0.5827  0.2564
  617MOL0     H81427  -1.977   3.123   1.582  2.4450  1.2832 -2.2208
  617MOL0     H81428  -1.605   3.306   1.257  1.1070  0.0197  1.6668
  617MOL0     H81429  -1.423   3.218   1.153  0.6127 -0.8113 -2.3384
  617MOL0     H81430   0.282   2.735   1.075 -0.7435 -0.6422  0.0568
  617MOL0     H81431   0.512   2.749   1.167 -1.7748  0.4692 -0.0427
  617MOL0     H81432   0.816   2.405   1.404  0.5679 -0.2327 -2.0921
  617MOL0     H81433   1.057   2.340   1.422  2.6943  0.6157  0.5092
  617MOL0     H81434   1.371   2.658   1.385  3.3348 -0.5415 -2.3284
  617MOL0     H81435   1.299   2.563   1.258  1.0622  4.8102 -1.1548
  617MOL0     H81436   1.482   2.437   1.463  0.6312  0.7910  0.5752
  617MOL0     H81437   1.388   2.348   1.337 -0.1103  0.3646  1.4972
  617MOL0     H81438   1.581   2.577   1.277 -3.0508  0.3783  2.5845
  617MOL0     H81439   1.492   2.494   1.161 -0.6272 -0.0371 -0.2734
  617MOL0     H81440   1.624   2.261   1.223  2.6452 -0.3015  0.7249
  617MOL0     H81441   1.724   2.396   1.165  0.6610 -0.2113  1.9974
  617MOL0     H81442   1.850   2.328   1.545 -0.8872 -1.6386  0.6531
  617MOL0     H81443   1.153   2.755   1.436  1.5181 -1.4676  3.2197
  617MOL0     H81444   0.907   2.822   1.398  1.4067 -0.2812 -1.2048
  618MOL0     O81445   2.426   0.479   5.947  0.2557 -0.1365 -0.4300
  618MOL0     C81446   2.503   0.489   5.857 -0.2663  0.7849  0.9668
  618MOL0     O81447   2.468   0.502   5.728 -1.1292 -0.1368  0.1936
  618MOL0     C81448   2.338   0.518   5.691 -0.5091 -0.6345 -0.0510
  618MOL0     C81449   2.295   0.439   5.583 -0.4181 -0.8867 -0.5234
  618MOL0     C81450   2.168   0.446   5.529  0.3561  0.5325  0.2599
  618MOL0     C81451   2.089   0.557   5.562  0.6097  0.0251 -0.0781
  618MOL0     O81452   1.977   0.595   5.483  0.0588 -0.1464 -0.1960
  618MOL0     C81453   1.864   0.502   5.491 -0.0953  0.0783  0.2687
  618MOL0     C81454   1.841   0.437   5.354 -0.2210  0.0127  0.1635
  618MOL0     C81455   1.756   0.514   5.256  0.1523 -0.1445 -0.9855
  618MOL0     C81456   1.600   0.493   5.274  0.0869  0.0137 -0.4156
  618MOL0     C81457   1.524   0.555   5.154 -0.0996  0.1455  0.0189
  618MOL0     C81458   1.375   0.529   5.181 -0.4004  0.6297 -0.5524
  618MOL0     C81459   1.278   0.559   5.071 -0.2397 -0.1140  0.5036
  618MOL0     C81460   1.145   0.503   5.102  0.4910  0.5853 -0.2824
  618MOL0     N81461   1.029   0.525   5.009 -0.1109  0.0111  0.6219
  618MOL0     C81462   0.906   0.468   5.023  0.5059 -0.2701 -0.0282
  618MOL0     C81463   0.841   0.496   4.913  0.4167  0.3907  0.2543
  618MOL0     C81464   0.695   0.463   4.889  0.4761  0.2773  0.4994
  618MOL0     C81465   0.634   0.515   4.759  0.0498  0.5470 -0.2450
  618MOL0     C81466   0.479   0.508   4.779 -0.4253  1.0384 -0.7436
  618MOL0     C81467   0.423   0.642   4.827 -0.1271  1.0100 -0.1231
  618MOL0     O81468   0.286   0.631   4.862 -0.5991 -0.1497  0.4782
  618MOL0     C81469   0.237   0.751   4.909  0.6441  0.0478  0.1509
  618MOL0     C81470   0.212   0.788   5.043  0.2781 -0.1657 -0.1045
  618MOL0     C81471   0.166   0.921   5.077 -0.3398 -0.1574 -0.1366
  618MOL0     C81472   0.127   1.011   4.973 -0.0767 -0.5209 -0.6060
  618MOL0     C81473   0.081   1.149   4.997  0.2629 -0.1555  0.2155
  618MOL0     O81474   0.039   1.175   5.128 -0.0351  0.4288 -0.6859
  618MOL0     C81475  -0.045   1.277   5.159  0.4823  0.3774  0.2935
  618MOL0     C81476  -0.157   1.312   5.077 -0.0382 -0.1397 -0.5422
  618MOL0     C81477  -0.243   1.411   5.123  0.2399  0.6758  0.8842
  618MOL0     C81478  -0.217   1.488   5.228  0.5015 -0.4916 -0.3430
  618MOL0     O81479  -0.313   1.585   5.241  0.5606 -0.2973 -0.1325
  618MOL0     C81480  -0.283   1.694   5.331  0.4025  1.1202  0.7256
  618MOL0     C81481  -0.400   1.792   5.336  0.1018 -0.3520  0.2081
  618MOL0     C81482  -0.451   1.844   5.194  0.1454 -0.2656 -0.4818
  618MOL0     C81483  -0.600   1.894   5.210 -0.6475  0.5021  0.1821
  618MOL0     C81484  -0.652   1.973   5.095 -0.1063  0.2870 -0.3212
  618MOL0     C81485  -0.638   1.893   4.968 -0.0666  0.2633 -0.5122
  618MOL0     C81486  -0.703   1.969   4.860 -0.2677  0.6945 -0.6017
  618MOL0     C81487  -0.813   1.891   4.785  0.3759 -0.2380  0.5328
  618MOL0    Cl81488  -0.846   2.009   4.659 -0.3250 -0.3987 -0.3231
  618MOL0     C81489  -0.101   1.464   5.304  0.4305  0.4180  0.0144
  618MOL0     C81490  -0.015   1.356   5.269  0.2966 -0.0783 -0.3922
  618MOL0     O81491   0.082   1.228   4.903  0.4544  0.0317  0.0767
  618MOL0     C81492   0.146   0.977   4.837 -0.3868  0.2847 -0.8830
  618MOL0     C81493   0.197   0.845   4.804 -0.2769  0.2160 -0.4555
  618MOL0     N81494   0.915   0.583   4.836 -0.3396  0.3253  0.1709
  618MOL0     N81495   1.027   0.595   4.899  1.4406 -0.1339  0.3565
  618MOL0     C81496   2.126   0.634   5.672 -0.2554  0.3211 -0.4388
  618MOL0     C81497   2.253   0.613   5.736  0.1172 -0.4526  0.2485
  618MOL0     C81498   2.651   0.473   5.901  0.4975 -0.1094 -0.1046
  618MOL0     C81499   2.750   0.537   5.825 -0.1064 -0.0931 -0.1777
  618MOL0     C81500   2.883   0.544   5.875 -0.2540  0.6940 -0.0569
  618MOL0     C81501   2.921   0.479   5.999  0.0671 -0.2209  0.0609
  618MOL0     O81502   3.056   0.475   6.017  0.3223  0.2810 -0.1357
  618MOL0     C81503   3.082   0.451   6.157 -0.2326  0.0880  0.1944
  618MOL0     C81504   3.224   0.486   6.198  0.3420 -0.7299  0.1174
  618MOL0     C81505   3.266   0.635   6.184 -0.5473  0.2110  0.2484
  618MOL0     C81506   3.207   0.724   6.283  0.4444  0.0585  0.9763
  618MOL0     C81507   3.226   0.680   6.421  1.1061 -0.8201 -1.3278
  618MOL0     C81508   3.266   0.649   6.533 -0.6932 -0.3806 -0.6799
  618MOL0     C81509   2.818   0.416   6.066  0.7884 -0.0740  0.0109
  618MOL0     C81510   2.679   0.405   6.020 -1.3592 -0.7175  0.8588
  618MOL0     H81511   2.352   0.351   5.555  1.6556  0.1856  0.1213
  618MOL0     H81512   2.128   0.371   5.462  0.1896  0.9955 -0.1631
  618MOL0     H81513   1.777   0.567   5.505 -0.8655 -0.9687  0.4867
  618MOL0     H81514   1.865   0.436   5.578  0.8377  1.5660  1.4297
  618MOL0     H81515   1.790   0.341   5.369 -1.6970  0.7172 -0.1085
  618MOL0     H81516   1.941   0.421   5.313  0.0194 -1.7787  1.3715
  618MOL0     H81517   1.776   0.476   5.156 -2.5157 -1.1460 -1.2374
  618MOL0     H81518   1.779   0.621   5.262 -1.4541  0.2487 -1.1819
  618MOL0     H81519   1.564   0.390   5.278 -0.0108  0.0719  0.3694
  618MOL0     H81520   1.562   0.542   5.364  2.6443 -2.4062  2.1756
  618MOL0     H81521   1.556   0.513   5.058 -0.0890  0.7112 -0.2301
  618MOL0     H81522   1.540   0.663   5.149 -2.1148  0.4856  0.3046
  618MOL0     H81523   1.335   0.587   5.265 -0.7574  0.0158 -0.2877
  618MOL0     H81524   1.369   0.424   5.213  0.7204  0.4762 -0.7996
  618MOL0     H81525   1.277   0.669   5.076 -0.2792 -0.1619  2.6539
  618MOL0     H81526   1.314   0.527   4.973  1.4877  1.0454  0.7090
  618MOL0     H81527   1.121   0.544   5.201  2.5180 -1.5682  1.1778
  618MOL0     H81528   1.156   0.395   5.108  0.7397  0.6158 -0.1776
  618MOL0     H81529   0.865   0.412   5.106 -1.4844  2.1075  0.7211
  618MOL0     H81530   0.628   0.497   4.968 -3.2067 -3.2020 -0.8007
  618MOL0     H81531   0.694   0.354   4.885  3.9479  0.0522  1.8104
  618MOL0     H81532   0.670   0.449   4.679  1.2416 -0.2794  0.9244
  618MOL0     H81533   0.659   0.619   4.737 -3.1103  1.0048 -2.3884
  618MOL0     H81534   0.425   0.495   4.685 -1.1089  2.7749 -0.6202
  618MOL0     H81535   0.449   0.426   4.845 -0.8560  2.7283  1.2683
  618MOL0     H81536   0.440   0.708   4.742 -1.8445  0.5495 -0.8566
  618MOL0     H81537   0.472   0.676   4.919 -0.3502  0.3353  0.2503
  618MOL0     H81538   0.246   0.727   5.126 -4.5309  2.6057  4.6028
  618MOL0     H81539   0.163   0.950   5.181 -0.1516  0.9838 -0.4293
  618MOL0     H81540  -0.168   1.258   4.983  1.2303 -0.1401 -0.7087
  618MOL0     H81541  -0.332   1.431   5.065 -0.1631  0.5453  1.4465
  618MOL0     H81542  -0.184   1.731   5.301  0.5403 -0.8181 -1.5983
  618MOL0     H81543  -0.279   1.651   5.431  2.5514  0.3642  0.3690
  618MOL0     H81544  -0.370   1.877   5.397  1.6705 -0.6074 -0.1696
  618MOL0     H81545  -0.486   1.747   5.387 -1.3622  1.0591 -0.8960
  618MOL0     H81546  -0.450   1.761   5.123  0.3693 -0.4164 -0.3000
  618MOL0     H81547  -0.384   1.922   5.155 -0.4407 -0.8644 -2.8777
  618MOL0     H81548  -0.651   1.798   5.228  3.5022 -1.6282  2.0007
  618MOL0     H81549  -0.600   1.949   5.305 -0.6134  0.0075  0.4740
  618MOL0     H81550  -0.610   2.073   5.081 -0.8229  0.6276 -0.0710
  618MOL0     H81551  -0.758   1.998   5.108 -0.8824 -1.2620 -2.8714
  618MOL0     H81552  -0.674   1.790   4.979 -0.0115  0.3489  0.6277
  618MOL0     H81553  -0.532   1.887   4.941 -0.0116 -3.2009  0.0298
  618MOL0     H81554  -0.763   2.055   4.892 -1.3245 -0.6517  1.2585
  618MOL0     H81555  -0.629   2.015   4.794 -0.5599  4.7162  1.4985
  618MOL0     H81556  -0.896   1.862   4.849  1.8393 -0.4610  2.4170
  618MOL0     H81557  -0.770   1.799   4.743 -0.4885  0.5205 -2.2124
  618MOL0     H81558  -0.089   1.521   5.396 -1.2218 -1.4098  1.4575
  618MOL0     H81559   0.077   1.330   5.322  1.0966 -0.8529 -2.0860
  618MOL0     H81560   0.106   1.043   4.761  2.1134  1.5644 -1.2092
  618MOL0     H81561   0.210   0.800   4.706 -1.7412 -0.1712 -0.5051
  618MOL0     H81562   2.058   0.714   5.697 -1.3069 -0.3448 -1.0793
  618MOL0     H81563   2.291   0.672   5.819 -0.0233 -0.9694  0.6917
  618MOL0     H81564   2.724   0.592   5.735  2.7115  1.1158 -0.3802
  618MOL0     H81565   2.964   0.598   5.827  1.7855 -0.5730  1.7457
  618MOL0     H81566   3.066   0.346   6.186  0.6200  0.4953  2.3423
  618MOL0     H81567   3.023   0.503   6.232 -0.2221 -1.5903  1.4363
  618MOL0     H81568   3.238   0.464   6.304 -0.6903  1.0645  0.6755
  618MOL0     H81569   3.287   0.426   6.131 -1.0456  1.3928 -3.3337
  618MOL0     H81570   3.250   0.667   6.080  3.0450  2.2883  0.1768
  618MOL0     H81571   3.374   0.639   6.199 -0.6236 -2.0767  1.9671
  618MOL0     H81572   3.261   0.817   6.267  1.9484 -0.8800  0.3631
  618MOL0     H81573   3.098   0.728   6.272  0.1096 -3.1014  2.0138
  618MOL0     H81574   3.318   0.620   6.622  2.9992 -1.1520 -2.8803
  618MOL0     H81575   2.844   0.361   6.155  0.9870  3.1716  2.1026
  618MOL0     H81576   2.606   0.382   6.098 -1.1292  0.5173  1.4590
  619MOL0     O81577   5.308   4.802   1.980  0.2064  0.0358 -0.3529
  619MOL0     C81578   5.341   4.918   1.951  0.1725 -0.3428  0.6354
  619MOL0     O81579   5.246   5.015   1.916  0.3138  0.1998 -0.3198
  619MOL0     C81580   5.108   4.999   1.935  0.7924  0.7340 -1.1245
  619MOL0     C81581   5.018   5.070   1.857  0.8607 -0.2787  0.0864
  619MOL0     C81582   4.876   5.048   1.857  0.1360 -0.1345  0.2365
  619MOL0     C81583   4.825   4.961   1.959  0.5560 -0.3959 -0.6786
  619MOL0     O81584   4.688   4.932   1.966  0.4598  0.1180 -0.1797
  619MOL0     C81585   4.577   5.001   1.903  0.9029 -0.6360 -0.5067
  619MOL0     C81586   4.457   4.917   1.957 -0.2441  0.4002 -0.0801
  619MOL0     C81587   4.325   4.968   1.891  0.5498 -1.1562  0.0794
  619MOL0     C81588   4.200   4.890   1.954  0.5897 -0.1331  0.1455
  619MOL0     C81589   4.058   4.929   1.910  0.5223 -0.1597 -0.4316
  619MOL0     C81590   3.964   4.860   2.006  0.9363 -0.4119  1.0452
  619MOL0     C81591   3.815   4.880   1.963  0.8039  0.8717  0.3734
  619MOL0     C81592   3.724   4.821   2.066  0.6981 -0.0235 -0.3775
  619MOL0     N81593   3.586   4.808   2.025  0.9839 -0.3341  0.1324
  619MOL0     C81594   3.529   4.710   1.945  0.3654  0.0753  0.1380
  619MOL0     C81595   3.404   4.757   1.913  0.8257  0.2102  1.0995
  619MOL0     C81596   3.320   4.671   1.821  0.2215 -0.3279 -0.1860
  619MOL0     C81597   3.213   4.574   1.893 -0.4777  0.7176 -0.1138
  619MOL0     C81598   3.071   4.624   1.910  0.6842  0.1931 -0.6796
  619MOL0     C81599   2.984   4.534   2.006 -0.2676  1.0941 -0.4795
  619MOL0     O81600   2.852   4.588   2.044 -0.0335  0.2666  0.6523
  619MOL0     C81601   2.764   4.490   2.059  0.0596  0.2565 -0.1419
  619MOL0     C81602   2.671   4.453   1.957 -0.5245 -0.3916  0.0563
  619MOL0     C81603   2.567   4.358   1.979 -0.6598  0.1432 -0.2607
  619MOL0     C81604   2.567   4.289   2.097  0.0826 -0.4537 -0.1564
  619MOL0     C81605   2.479   4.173   2.114  0.4047 -0.2523 -0.1751
  619MOL0     O81606   2.381   4.159   2.016 -0.7652 -0.0166 -0.5205
  619MOL0     C81607   2.301   4.049   2.022 -1.0618  1.0305 -0.9338
  619MOL0     C81608   2.158   4.076   2.000 -0.6850  0.8801  0.1490
  619MOL0     C81609   2.069   3.974   2.019 -1.2653  0.1902 -0.4314
  619MOL0     C81610   2.108   3.840   2.035  1.0757 -0.2531  0.6378
  619MOL0     O81611   2.010   3.739   2.037  0.3259 -0.3927  0.0271
  619MOL0     C81612   1.927   3.729   1.924  0.3937 -0.4569 -0.0739
  619MOL0     C81613   1.821   3.611   1.917 -0.1775 -0.5546 -0.1621
  619MOL0     C81614   1.813   3.520   2.043  0.8044  0.4605 -0.8593
  619MOL0     C81615   1.935   3.423   2.065 -0.2411 -0.0951  0.3053
  619MOL0     C81616   1.928   3.319   2.179 -0.2170  0.7807 -0.8374
  619MOL0     C81617   1.954   3.403   2.311  0.7099 -0.4226 -0.3224
  619MOL0     C81618   1.944   3.318   2.439 -0.1236  0.5108 -0.1885
  619MOL0     C81619   1.819   3.225   2.447  0.0606  0.1250  0.2425
  619MOL0    Cl81620   1.666   3.322   2.450  0.4338 -0.2546 -0.0599
  619MOL0     C81621   2.241   3.808   2.041  0.5257  0.0665 -0.1957
  619MOL0     C81622   2.339   3.915   2.036 -0.3517 -0.1314 -0.2422
  619MOL0     O81623   2.487   4.097   2.211 -0.4701 -0.2151 -0.1887
  619MOL0     C81624   2.649   4.330   2.202 -0.7702  0.6461  0.3006
  619MOL0     C81625   2.755   4.429   2.182  0.0865  0.1179  0.1384
  619MOL0     N81626   3.380   4.877   1.975 -0.1978 -1.7540 -0.1246
  619MOL0     N81627   3.495   4.912   2.034  0.3118  0.8490  0.4357
  619MOL0     C81628   4.914   4.898   2.042  0.2488 -0.1524 -0.6866
  619MOL0     C81629   5.051   4.911   2.028 -0.2521 -0.6820  0.0301
  619MOL0     C81630   5.480   4.962   1.937  0.1845  0.0275 -0.4468
  619MOL0     C81631   5.571   4.887   2.005 -1.1905 -0.7634  0.0640
  619MOL0     C81632   5.707   4.926   2.005  1.4120  0.1302 -0.4315
  619MOL0     C81633   5.746   5.039   1.939 -0.3230 -0.3535  0.2862
  619MOL0     O81634   5.882   5.082   1.936  0.1210  0.1774  1.2971
  619MOL0     C81635   5.984   5.001   1.991  0.4584  0.6152  0.2781
  619MOL0     C81636   6.105   5.098   1.969  0.4419  0.9459  0.0543
  619MOL0     C81637   6.234   5.017   2.004 -0.5099 -1.1897 -0.2547
  619MOL0     C81638   6.354   5.063   1.926 -0.2872 -1.2645 -1.1857
  619MOL0     C81639   6.473   5.018   1.984  0.1301  0.2860  1.1072
  619MOL0     C81640   6.575   4.980   2.038  0.3689 -0.2745 -0.3864
  619MOL0     C81641   5.650   5.121   1.873 -1.0533 -0.0245  0.3012
  619MOL0     C81642   5.525   5.076   1.858  0.1864  0.7456  0.1500
  619MOL0     H81643   5.053   5.131   1.774  0.6469  0.0400  0.2291
  619MOL0     H81644   4.806   5.092   1.786 -1.9600  0.7508  2.7039
  619MOL0     H81645   4.589   4.996   1.795  0.4906  2.8285 -0.8295
  619MOL0     H81646   4.583   5.108   1.926  0.7523  0.2429 -3.9962
  619MOL0     H81647   4.454   4.942   2.064  0.7703  0.9951 -0.1734
  619MOL0     H81648   4.474   4.811   1.941  0.3162  0.6495 -1.2948
  619MOL0     H81649   4.309   4.953   1.784 -5.2662  0.6131  0.3237
  619MOL0     H81650   4.323   5.076   1.905  1.3110 -1.3582  2.0754
  619MOL0     H81651   4.211   4.787   1.920 -1.6883 -0.4380  0.2013
  619MOL0     H81652   4.208   4.889   2.063  0.3501  1.2864  0.1895
  619MOL0     H81653   4.045   4.902   1.804  2.8873  2.8996 -1.6543
  619MOL0     H81654   4.049   5.037   1.923 -0.3589 -0.4669  1.9651
  619MOL0     H81655   3.973   4.895   2.109 -1.1195 -0.3899  1.2670
  619MOL0     H81656   3.996   4.756   2.008  2.7689  0.1222  2.9050
  619MOL0     H81657   3.792   4.987   1.959 -2.2273  0.4611  2.9758
  619MOL0     H81658   3.789   4.842   1.864  0.4629  0.3831  0.6493
  619MOL0     H81659   3.728   4.887   2.153 -0.4988 -0.5802  0.1229
  619MOL0     H81660   3.764   4.723   2.091 -0.8120 -0.6413 -0.2746
  619MOL0     H81661   3.568   4.616   1.907 -0.2347 -0.2985  0.4232
  619MOL0     H81662   3.380   4.616   1.748  0.5298 -1.0152  0.5855
  619MOL0     H81663   3.264   4.736   1.752  2.2989  1.0761 -0.6658
  619MOL0     H81664   3.256   4.546   1.990  1.4296 -5.6905 -2.3212
  619MOL0     H81665   3.219   4.479   1.840 -2.3094 -0.4800  1.6770
  619MOL0     H81666   3.077   4.727   1.946  1.3586 -0.2727  0.5847
  619MOL0     H81667   3.022   4.632   1.813  0.1910  0.4486 -0.4136
  619MOL0     H81668   3.028   4.511   2.103 -0.8607  0.3656 -0.3796
  619MOL0     H81669   2.970   4.434   1.965 -1.6618  1.6726 -1.5007
  619MOL0     H81670   2.670   4.503   1.861 -1.7195 -1.8975 -0.7591
  619MOL0     H81671   2.496   4.338   1.899  0.0088  1.9468 -1.3782
  619MOL0     H81672   2.123   4.173   1.966 -4.1454 -0.8128 -1.6159
  619MOL0     H81673   1.962   3.988   2.013 -1.7775 -2.2920  1.5717
  619MOL0     H81674   1.987   3.728   1.833 -0.0925 -1.6259 -0.4053
  619MOL0     H81675   1.879   3.827   1.917  3.6120  1.5441  2.7505
  619MOL0     H81676   1.832   3.559   1.821 -1.0959 -0.9660 -0.0523
  619MOL0     H81677   1.722   3.653   1.897 -0.2902 -1.0775 -0.7365
  619MOL0     H81678   1.722   3.460   2.039  0.4282  1.0477 -1.4836
  619MOL0     H81679   1.796   3.580   2.133 -1.2770 -0.4577 -0.5784
  619MOL0     H81680   1.953   3.370   1.971  0.0283 -0.6298  0.6520
  619MOL0     H81681   2.030   3.475   2.077  0.2504 -0.9791  0.3720
  619MOL0     H81682   2.009   3.246   2.171  0.3171  1.5399 -3.4321
  619MOL0     H81683   1.831   3.268   2.180  0.0672  0.2348 -0.6228
  619MOL0     H81684   1.889   3.490   2.296  5.3608  3.1715 -2.2949
  619MOL0     H81685   2.060   3.431   2.311  0.3215  1.1357 -0.0609
  619MOL0     H81686   2.034   3.256   2.445  1.9520  3.3702 -0.0385
  619MOL0     H81687   1.944   3.379   2.529  1.0582  0.2774 -0.0079
  619MOL0     H81688   1.830   3.167   2.539  2.3238  0.3611  0.1709
  619MOL0     H81689   1.816   3.162   2.357 -0.5948  0.0477  0.3135
  619MOL0     H81690   2.266   3.706   2.070  2.8789  0.7356  0.3539
  619MOL0     H81691   2.445   3.892   2.047  0.0668  1.2052 -1.3038
  619MOL0     H81692   2.646   4.280   2.299  2.5224 -3.1813 -1.2501
  619MOL0     H81693   2.821   4.458   2.262  1.5792 -0.8161 -0.7007
  619MOL0     H81694   4.878   4.829   2.118 -2.5153  2.4082  0.5820
  619MOL0     H81695   5.117   4.856   2.094  1.5043  0.6070 -0.5709
  619MOL0     H81696   5.539   4.794   2.051  0.4929 -0.3160  2.2881
  619MOL0     H81697   5.780   4.870   2.062  1.1910  1.8841  1.7021
  619MOL0     H81698   6.003   4.906   1.939  0.0826  0.3392  0.6404
  619MOL0     H81699   5.977   4.976   2.097  1.6085  1.5317  0.5967
  619MOL0     H81700   6.117   5.130   1.865  2.5208 -0.2392 -0.1269
  619MOL0     H81701   6.088   5.183   2.035  2.3066  3.8521 -2.9153
  619MOL0     H81702   6.238   4.908   1.999 -0.1595 -1.2175  0.5863
  619MOL0     H81703   6.257   5.025   2.110  1.3861  1.0813 -0.7480
  619MOL0     H81704   6.340   5.023   1.825 -0.5105  1.2718 -2.2345
  619MOL0     H81705   6.362   5.172   1.915  1.9265 -1.0922  1.2276
  619MOL0     H81706   6.667   4.976   2.093  1.2267 -2.4349 -1.8275
  619MOL0     H81707   5.691   5.210   1.827 -0.9145  0.8880  2.1038
  619MOL0     H81708   5.448   5.119   1.795 -0.2798 -0.3563 -0.0561
  620MOL0     O81709   1.906   4.232   4.262 -0.7210 -0.4587 -0.0650
  620MOL0     C81710   1.868   4.179   4.155 -0.0587 -0.1691  0.4292
  620MOL0     O81711   1.955   4.129   4.054 -0.9670  0.1605 -0.0287
  620MOL0     C81712   2.094   4.150   4.085  0.0191  0.3012  0.6078
  620MOL0     C81713   2.177   4.238   4.021 -0.4101 -0.2131 -1.1858
  620MOL0     C81714   2.302   4.265   4.081 -0.7408  0.1204 -0.1810
  620MOL0     C81715   2.356   4.188   4.190 -0.0716 -0.4005 -0.0277
  620MOL0     O81716   2.486   4.222   4.233  1.0800  0.1827  0.3667
  620MOL0     C81717   2.566   4.109   4.275  0.9307  0.4741  0.5979
  620MOL0     C81718   2.709   4.149   4.252 -0.9543  0.2059 -0.8095
  620MOL0     C81719   2.817   4.051   4.296  0.2846  1.1330  0.2929
  620MOL0     C81720   2.795   3.915   4.241 -0.0118 -0.2206 -0.5378
  620MOL0     C81721   2.927   3.849   4.245  0.6350  1.1568 -0.2396
  620MOL0     C81722   2.923   3.712   4.186 -0.7426 -0.2820  0.1417
  620MOL0     C81723   3.043   3.638   4.239 -0.0101 -0.6079 -0.1602
  620MOL0     C81724   3.057   3.491   4.188  1.3184 -0.3632  0.6570
  620MOL0     N81725   2.936   3.415   4.237 -0.5656 -0.5192  0.6946
  620MOL0     C81726   2.913   3.380   4.361 -0.1970 -0.1314 -0.5454
  620MOL0     C81727   2.783   3.356   4.368  0.2099  0.4019  0.4431
  620MOL0     C81728   2.694   3.329   4.487 -0.1476 -0.0451 -0.0945
  620MOL0     C81729   2.551   3.385   4.469  0.3425  0.3682 -1.0009
  620MOL0     C81730   2.454   3.342   4.578 -0.0758 -0.3491  0.5935
  620MOL0     C81731   2.431   3.187   4.578 -0.0340  0.7770 -0.2170
  620MOL0     O81732   2.414   3.126   4.445  0.1183  0.3325 -0.5418
  620MOL0     C81733   2.299   3.155   4.378  1.0564  0.1399 -0.9322
  620MOL0     C81734   2.185   3.208   4.443  0.4403 -0.0276 -0.1533
  620MOL0     C81735   2.071   3.237   4.356 -0.1134  0.1468 -0.7279
  620MOL0     C81736   2.071   3.207   4.223 -0.2949 -0.3021  1.1603
  620MOL0     C81737   1.950   3.228   4.130  0.2626  0.2330 -0.1882
  620MOL0     O81738   1.962   3.233   3.991  0.2518  0.1125 -0.1577
  620MOL0     C81739   1.849   3.257   3.907 -0.0256 -0.2783 -0.9051
  620MOL0     C81740   1.727   3.193   3.937  0.2755  0.3651 -0.1369
  620MOL0     C81741   1.611   3.226   3.854  0.2828 -0.1249 -0.6518
  620MOL0     C81742   1.616   3.326   3.751  0.0939  0.3670 -0.8358
  620MOL0     O81743   1.499   3.354   3.684 -0.0290 -0.1856 -0.0883
  620MOL0     C81744   1.501   3.487   3.617 -0.3209 -0.1360  0.1183
  620MOL0     C81745   1.519   3.482   3.473 -0.7521 -0.2612  0.0826
  620MOL0     C81746   1.414   3.568   3.398  0.1404 -0.5974 -1.0086
  620MOL0     C81747   1.269   3.507   3.410 -0.1418  0.1360  0.4720
  620MOL0     C81748   1.163   3.590   3.340 -0.4178 -0.5084  0.3030
  620MOL0     C81749   1.021   3.546   3.366 -0.0547  0.6252 -0.0607
  620MOL0     C81750   0.908   3.657   3.334  0.2030  0.6483  0.1224
  620MOL0     C81751   0.773   3.591   3.347 -0.6448 -0.1626  0.6335
  620MOL0    Cl81752   0.655   3.715   3.308 -0.3039 -0.2998 -0.2199
  620MOL0     C81753   1.744   3.383   3.729 -0.4876 -0.1217  0.3784
  620MOL0     C81754   1.855   3.346   3.803  0.4570  0.0869  0.1521
  620MOL0     O81755   1.850   3.261   4.196 -0.0692  0.0617 -0.5244
  620MOL0     C81756   2.184   3.142   4.176 -0.1939  1.0861  0.1584
  620MOL0     C81757   2.300   3.118   4.247 -0.4708 -0.0018 -0.4426
  620MOL0     N81758   2.735   3.361   4.237  0.9273  0.4169 -0.1917
  620MOL0     N81759   2.827   3.392   4.160 -0.1311  0.0711  1.0986
  620MOL0     C81760   2.280   4.081   4.231 -0.5350  0.0794  0.6034
  620MOL0     C81761   2.152   4.062   4.177  1.1239  0.4110 -0.3163
  620MOL0     C81762   1.720   4.170   4.125 -0.8879 -0.2150  0.2736
  620MOL0     C81763   1.677   4.138   3.993  0.5603  0.2641 -0.5497
  620MOL0     C81764   1.541   4.124   3.964  0.1137  0.7635 -0.4989
  620MOL0     C81765   1.447   4.152   4.064  1.3410  0.3008  0.1560
  620MOL0     O81766   1.314   4.149   4.013  0.2811 -0.9785  0.0382
  620MOL0     C81767   1.205   4.185   4.096 -0.0437  0.7497 -0.1370
  620MOL0     C81768   1.066   4.179   4.034 -0.4936 -0.6016  0.3413
  620MOL0     C81769   1.062   4.058   3.936 -0.1645  0.1413  0.6670
  620MOL0     C81770   0.922   4.011   3.891  0.7873  0.6363  0.2040
  620MOL0     C81771   0.842   4.120   3.829  0.3471 -0.2950 -0.3796
  620MOL0     C81772   0.790   4.223   3.796  0.7321 -0.2992  0.2132
  620MOL0     C81773   1.491   4.186   4.191  0.1564 -0.2096 -0.7070
  620MOL0     C81774   1.623   4.204   4.213  0.0433 -0.1389 -0.0558
  620MOL0     H81775   2.129   4.296   3.942 -4.0090 -1.0750  0.1478
  620MOL0     H81776   2.376   4.331   4.037  0.2936 -1.2597 -0.5859
  620MOL0     H81777   2.544   4.016   4.221  1.1087 -0.7540  2.5383
  620MOL0     H81778   2.549   4.066   4.374  1.9285 -4.2634 -0.9961
  620MOL0     H81779   2.732   4.244   4.302  2.5107 -1.0150  0.2461
  620MOL0     H81780   2.725   4.168   4.146  1.4737  1.3622 -0.3133
  620MOL0     H81781   2.813   4.029   4.403  2.8114 -3.2749 -0.2626
  620MOL0     H81782   2.914   4.091   4.267  0.4998  0.1455 -0.4002
  620MOL0     H81783   2.727   3.860   4.307  0.0704  0.9205  0.5222
  620MOL0     H81784   2.750   3.917   4.141  0.3221 -1.3905 -0.7318
  620MOL0     H81785   2.954   3.841   4.350  1.8195  0.9294 -0.5532
  620MOL0     H81786   3.007   3.901   4.192  1.4822 -1.8674 -2.1831
  620MOL0     H81787   2.931   3.712   4.077  2.1984 -3.0585  0.1983
  620MOL0     H81788   2.832   3.661   4.219 -2.7465  1.7925 -1.8637
  620MOL0     H81789   3.127   3.699   4.202  0.9106 -2.3734 -1.1232
  620MOL0     H81790   3.026   3.625   4.346 -0.3825 -3.9619 -0.5242
  620MOL0     H81791   3.142   3.436   4.228  1.0864 -0.7772  0.5887
  620MOL0     H81792   3.065   3.493   4.079  0.8738  0.8615  0.6307
  620MOL0     H81793   2.990   3.376   4.437 -2.4568  0.7662  1.9847
  620MOL0     H81794   2.744   3.374   4.574  0.4031 -1.7838  0.5252
  620MOL0     H81795   2.697   3.224   4.515 -0.9915 -0.1321 -0.2899
  620MOL0     H81796   2.511   3.356   4.371 -1.1319 -0.0560 -0.3054
  620MOL0     H81797   2.543   3.494   4.469 -2.0169  0.3266  1.7128
  620MOL0     H81798   2.499   3.375   4.672  1.7230 -0.6254 -0.1439
  620MOL0     H81799   2.359   3.396   4.573  0.6669  0.8540 -1.7152
  620MOL0     H81800   2.354   3.151   4.647  2.9503 -1.4542  2.2244
  620MOL0     H81801   2.524   3.143   4.616 -2.0017 -3.8258 -0.0358
  620MOL0     H81802   2.169   3.230   4.548 -0.3894 -2.2345  0.2360
  620MOL0     H81803   1.983   3.282   4.401  0.0470  1.3217 -1.5578
  620MOL0     H81804   1.706   3.119   4.014  0.0585  0.6277  0.0602
  620MOL0     H81805   1.518   3.175   3.878  0.3525  0.8951  2.1548
  620MOL0     H81806   1.575   3.553   3.664  0.8538 -1.7453  0.6270
  620MOL0     H81807   1.402   3.525   3.643 -1.4013 -1.6357 -1.5427
  620MOL0     H81808   1.499   3.380   3.438  0.0647 -0.7124  0.8846
  620MOL0     H81809   1.620   3.510   3.445 -1.5838  0.7964 -2.0762
  620MOL0     H81810   1.452   3.566   3.296 -2.3294 -0.4361 -2.0006
  620MOL0     H81811   1.420   3.671   3.434  0.2946  0.2083 -3.1979
  620MOL0     H81812   1.265   3.403   3.377 -2.1808  1.2519 -3.4687
  620MOL0     H81813   1.251   3.505   3.517  1.2908 -0.4858  0.7285
  620MOL0     H81814   1.182   3.587   3.232  0.3094 -2.9105  0.4334
  620MOL0     H81815   1.176   3.688   3.386  0.0950 -0.6619  0.4880
  620MOL0     H81816   1.008   3.514   3.470  0.1638 -1.7222 -0.6828
  620MOL0     H81817   1.027   3.456   3.304 -0.9699  0.9536 -0.6302
  620MOL0     H81818   0.924   3.740   3.404  1.9214  1.3484 -1.0477
  620MOL0     H81819   0.916   3.686   3.229 -0.1496 -1.2199 -0.4529
  620MOL0     H81820   0.753   3.551   3.447 -0.7871  0.0647  0.6966
  620MOL0     H81821   0.766   3.504   3.281 -1.0063 -0.9647  1.6971
  620MOL0     H81822   1.746   3.459   3.652 -1.7985 -0.7442 -0.3037
  620MOL0     H81823   1.946   3.393   3.767 -0.7172  0.8538 -2.0197
  620MOL0     H81824   2.188   3.110   4.073  1.4926 -0.6195  0.7063
  620MOL0     H81825   2.371   3.060   4.188 -1.1546 -2.1634  0.7646
  620MOL0     H81826   2.323   3.999   4.287  0.8745 -0.6279 -1.4145
  620MOL0     H81827   2.081   3.984   4.203  0.7979  0.7835 -0.0647
  620MOL0     H81828   1.756   4.123   3.920  0.1830  2.9078 -1.5978
  620MOL0     H81829   1.505   4.117   3.862 -1.5039 -1.5808  0.1773
  620MOL0     H81830   1.226   4.281   4.145 -0.3732 -0.4143  2.4642
  620MOL0     H81831   1.211   4.117   4.182 -0.7582  0.2628 -0.4616
  620MOL0     H81832   0.984   4.167   4.106 -0.0515 -2.0437  0.6310
  620MOL0     H81833   1.057   4.265   3.967 -3.0847  0.3056  1.7175
  620MOL0     H81834   1.107   3.971   3.985  1.3769  0.2575 -0.4650
  620MOL0     H81835   1.121   4.075   3.846 -0.0310 -0.6308  0.6063
  620MOL0     H81836   0.925   3.928   3.820  3.4628  1.1493 -0.3693
  620MOL0     H81837   0.872   3.978   3.982 -0.6737  3.1485  0.4085
  620MOL0     H81838   0.732   4.310   3.775 -1.8969 -1.5430  1.8688
  620MOL0     H81839   1.428   4.202   4.278  1.2850 -1.6324  0.4406
  620MOL0     H81840   1.660   4.222   4.313  1.0031 -2.2943  0.0397
  621MOL0     O81841   9.636   1.553   8.687 -0.6522  0.6112  0.5739
  621MOL0     C81842   9.712   1.571   8.781  0.0063 -0.8005  0.1765
  621MOL0     O81843   9.675   1.613   8.909  0.4913 -0.2369 -0.0401
  621MOL0     C81844   9.541   1.636   8.945 -0.8537  0.0494  0.8036
  621MOL0     C81845   9.511   1.757   8.992  0.2223 -0.2392 -0.4102
  621MOL0     C81846   9.375   1.776   9.034  0.2357  0.3312  0.0621
  621MOL0     C81847   9.278   1.678   9.018 -1.0978  0.7509  0.0165
  621MOL0     O81848   9.158   1.732   9.046  0.0368  0.6358 -0.0613
  621MOL0     C81849   9.037   1.682   8.976  0.2783  0.7925 -0.5404
  621MOL0     C81850   8.921   1.782   8.973  0.4124  0.3833 -0.9576
  621MOL0     C81851   8.807   1.707   8.916 -0.2628  0.1466 -0.2153
  621MOL0     C81852   8.687   1.805   8.910  0.2119 -0.7192 -0.3597
  621MOL0     C81853   8.554   1.741   8.868 -0.1146 -0.2097 -0.1518
  621MOL0     C81854   8.482   1.668   8.973 -0.5938 -0.3734  1.0195
  621MOL0     C81855   8.370   1.584   8.910  0.1168 -0.6536  1.0493
  621MOL0     C81856   8.298   1.501   9.016  0.4890 -0.1141  0.3431
  621MOL0     N81857   8.205   1.408   8.951 -0.2273 -0.1785  0.3500
  621MOL0     C81858   8.105   1.431   8.850 -0.7865  0.3496  0.1433
  621MOL0     C81859   8.072   1.306   8.806  0.2616 -0.1945  0.2446
  621MOL0     C81860   7.968   1.283   8.696 -0.5331  0.1747 -0.1692
  621MOL0     C81861   7.833   1.342   8.738 -0.1666 -0.0235  0.5984
  621MOL0     C81862   7.728   1.346   8.624 -0.0698  0.8070 -0.4283
  621MOL0     C81863   7.740   1.451   8.517  0.9164  0.2460  0.1007
  621MOL0     O81864   7.666   1.413   8.397 -0.8711 -0.0197  0.1210
  621MOL0     C81865   7.537   1.451   8.396 -1.1164 -0.8535 -0.0902
  621MOL0     C81866   7.499   1.588   8.408  0.0604  0.1236  0.0109
  621MOL0     C81867   7.363   1.622   8.411  0.9308 -0.8954 -0.2773
  621MOL0     C81868   7.263   1.533   8.401 -0.2734 -0.5147 -0.1805
  621MOL0     C81869   7.127   1.577   8.387 -0.4661 -0.5666 -0.3005
  621MOL0     O81870   7.051   1.485   8.317 -0.2359 -0.0393 -0.3241
  621MOL0     C81871   6.915   1.488   8.349 -0.0903 -0.8683 -0.0380
  621MOL0     C81872   6.864   1.428   8.465 -0.0683  0.7231 -0.4095
  621MOL0     C81873   6.729   1.410   8.479 -0.2617  0.4508 -0.2066
  621MOL0     C81874   6.640   1.454   8.386  0.3772 -0.6444  0.8535
  621MOL0     O81875   6.505   1.438   8.398  0.0604 -0.0212  0.5717
  621MOL0     C81876   6.433   1.372   8.287 -0.5518 -1.1143  0.8470
  621MOL0     C81877   6.322   1.285   8.337  0.5357  0.0487 -0.5148
  621MOL0     C81878   6.257   1.337   8.471 -0.1421 -0.0129 -0.0032
  621MOL0     C81879   6.116   1.280   8.482  0.4162 -0.2803 -0.9331
  621MOL0     C81880   6.063   1.277   8.624 -0.7430  0.6396  0.5791
  621MOL0     C81881   6.055   1.417   8.694  0.5367  0.4619 -0.4127
  621MOL0     C81882   5.992   1.413   8.828 -1.0724  0.1376 -0.7566
  621MOL0     C81883   6.072   1.320   8.937  0.4462 -0.1607  0.1492
  621MOL0    Cl81884   6.006   1.330   9.108 -0.1726  0.0427 -0.0165
  621MOL0     C81885   6.686   1.528   8.274 -0.2250 -1.0671  0.2889
  621MOL0     C81886   6.821   1.544   8.255  0.5751  0.9920  0.1247
  621MOL0     O81887   7.088   1.675   8.447 -0.2652  0.0759 -0.2817
  621MOL0     C81888   7.297   1.397   8.381 -1.0218 -0.3519  0.2587
  621MOL0     C81889   7.430   1.356   8.378 -0.3415 -0.0374 -0.0702
  621MOL0     N81890   8.133   1.212   8.880 -0.4409 -0.6610  0.1963
  621MOL0     N81891   8.213   1.273   8.961 -0.4087 -0.1593  0.3136
  621MOL0     C81892   9.315   1.548   8.983  0.4684  0.1758  0.9666
  621MOL0     C81893   9.448   1.528   8.942 -0.5281  0.4055 -0.5882
  621MOL0     C81894   9.857   1.555   8.753  0.3564  0.3746 -0.4758
  621MOL0     C81895   9.901   1.500   8.627 -1.0488  0.0748 -0.5589
  621MOL0     C81896  10.037   1.480   8.598  0.1218  0.1232 -0.5529
  621MOL0     C81897  10.135   1.514   8.696  1.0778  0.1832  0.3900
  621MOL0     O81898  10.260   1.492   8.662 -0.4786  0.5579 -0.1566
  621MOL0     C81899  10.369   1.569   8.727 -0.2456  0.3882  0.3921
  621MOL0     C81900  10.504   1.522   8.665  0.6317  0.2521 -0.4780
  621MOL0     C81901  10.615   1.612   8.722  0.7735  0.3729 -1.1402
  621MOL0     C81902  10.661   1.709   8.623 -0.3971  0.4612  0.9508
  621MOL0     C81903  10.566   1.800   8.569  0.5401 -0.3896 -0.3337
  621MOL0     C81904  10.489   1.879   8.518 -0.2681 -0.7727  0.3829
  621MOL0     C81905  10.100   1.566   8.820 -0.0197  0.3501  0.4318
  621MOL0     C81906   9.961   1.592   8.849  0.6811  0.6236 -0.0122
  621MOL0     H81907   9.577   1.843   8.996 -1.1373  0.8197  0.0099
  621MOL0     H81908   9.334   1.867   9.076 -0.2341  0.0459  0.2324
  621MOL0     H81909   9.008   1.587   9.022 -1.2438  1.2849 -0.4598
  621MOL0     H81910   9.069   1.667   8.873  1.6059 -1.0650  0.0768
  621MOL0     H81911   8.937   1.873   8.915 -0.6202  0.3661 -1.2883
  621MOL0     H81912   8.903   1.809   9.077  3.8712  0.0870 -0.1530
  621MOL0     H81913   8.778   1.620   8.975 -2.2456  0.4761 -0.6106
  621MOL0     H81914   8.833   1.686   8.812 -0.7958  0.2655 -0.3799
  621MOL0     H81915   8.676   1.842   9.013 -1.6780  1.2385 -1.1868
  621MOL0     H81916   8.702   1.889   8.841 -0.1940  0.5009  0.9699
  621MOL0     H81917   8.562   1.677   8.779 -1.0716 -0.7467  0.1361
  621MOL0     H81918   8.483   1.821   8.847 -2.3187 -1.7709  1.0492
  621MOL0     H81919   8.443   1.739   9.046  1.2573 -0.6309  2.3286
  621MOL0     H81920   8.563   1.607   9.016 -0.7139 -2.3064 -1.2400
  621MOL0     H81921   8.299   1.650   8.861  0.3156 -0.6547  0.7536
  621MOL0     H81922   8.417   1.531   8.826  1.4642  2.0679 -0.0414
  621MOL0     H81923   8.227   1.561   9.074  1.6517  1.3228  0.3229
  621MOL0     H81924   8.370   1.446   9.077  0.0164  2.0055  3.0183
  621MOL0     H81925   8.075   1.525   8.805 -0.3306  0.7774  0.7253
  621MOL0     H81926   7.953   1.175   8.683  1.8173 -0.1899 -0.3402
  621MOL0     H81927   8.004   1.323   8.600  0.5948  0.5001  0.3730
  621MOL0     H81928   7.850   1.444   8.774  0.2470  0.8248 -1.8359
  621MOL0     H81929   7.785   1.284   8.817 -1.3406 -0.2751 -0.2776
  621MOL0     H81930   7.734   1.253   8.567 -3.0695  0.4093 -0.2711
  621MOL0     H81931   7.627   1.348   8.666  1.0550  1.1845  2.4208
  621MOL0     H81932   7.846   1.466   8.497  0.9273  2.0649  1.2321
  621MOL0     H81933   7.699   1.544   8.559 -3.1062 -0.9206 -0.7382
  621MOL0     H81934   7.569   1.670   8.413  1.0556 -0.7662  1.6971
  621MOL0     H81935   7.342   1.727   8.430 -1.6273 -1.6317  1.5540
  621MOL0     H81936   6.937   1.374   8.523  1.9039  2.5976 -1.0471
  621MOL0     H81937   6.689   1.353   8.562  0.7404  1.0708  0.7306
  621MOL0     H81938   6.504   1.304   8.239 -0.4295  0.0941 -0.7686
  621MOL0     H81939   6.395   1.446   8.217 -2.7207 -2.3992  0.5772
  621MOL0     H81940   6.352   1.182   8.359 -1.1601 -0.0861  1.4752
  621MOL0     H81941   6.241   1.284   8.262 -0.3222  3.6150  0.2256
  621MOL0     H81942   6.252   1.446   8.474 -2.2213 -0.0727  1.7373
  621MOL0     H81943   6.305   1.294   8.560 -2.5668 -2.5858  0.1995
  621MOL0     H81944   6.040   1.337   8.428 -0.2876  1.4109  1.6886
  621MOL0     H81945   6.116   1.176   8.449  1.3461 -0.9639  1.0727
  621MOL0     H81946   6.135   1.215   8.678  0.9793  0.9567 -1.2239
  621MOL0     H81947   5.964   1.232   8.630 -1.0820  1.2983 -0.0032
  621MOL0     H81948   5.997   1.492   8.639  0.7998  4.1351  3.7975
  621MOL0     H81949   6.159   1.449   8.691  0.5932  0.4182  0.6822
  621MOL0     H81950   5.985   1.514   8.868 -1.0001  0.4059 -1.4197
  621MOL0     H81951   5.890   1.376   8.818 -0.6980 -1.8237  1.5816
  621MOL0     H81952   6.180   1.332   8.929  0.2094  0.8439 -3.1352
  621MOL0     H81953   6.062   1.216   8.905  0.1990 -0.0905 -0.0068
  621MOL0     H81954   6.623   1.590   8.212 -2.4604 -2.7936  0.7038
  621MOL0     H81955   6.859   1.601   8.171 -1.5551  2.7100  0.2297
  621MOL0     H81956   7.224   1.319   8.368 -2.2124  0.7258  0.2874
  621MOL0     H81957   7.461   1.253   8.368 -0.7257 -0.2790  1.0999
  621MOL0     H81958   9.241   1.470   8.968  2.1478 -1.3259 -0.0048
  621MOL0     H81959   9.468   1.434   8.891 -3.1052 -0.2891 -0.4594
  621MOL0     H81960   9.827   1.474   8.552 -1.7226 -4.2219  1.3255
  621MOL0     H81961  10.069   1.445   8.500  0.8905 -2.0881  0.4540
  621MOL0     H81962  10.368   1.548   8.834 -3.0851  2.2397  0.8353
  621MOL0     H81963  10.340   1.672   8.704 -1.4780 -0.4614 -2.3906
  621MOL0     H81964  10.528   1.419   8.693  0.8300  1.1307  3.0786
  621MOL0     H81965  10.497   1.531   8.556 -2.4853 -3.6769 -0.8162
  621MOL0     H81966  10.692   1.541   8.752  0.6967 -1.6964 -5.2489
  621MOL0     H81967  10.582   1.676   8.805  3.5341  1.0813 -0.5117
  621MOL0     H81968  10.739   1.766   8.675  2.2834 -0.4839 -1.7506
  621MOL0     H81969  10.709   1.651   8.544 -1.8346 -1.2804  1.2993
  621MOL0     H81970  10.427   1.953   8.471 -1.4261 -2.8959 -1.6553
  621MOL0     H81971  10.182   1.588   8.887  1.5256  0.9949 -1.5607
  621MOL0     H81972   9.920   1.611   8.947  0.8203 -0.2711  0.2335
  622MOL0     O81973   7.198  10.726   6.940 -0.6070 -0.1772  0.6415
  622MOL0     C81974   7.235  10.835   6.990 -0.1488 -0.2069 -0.0334
  622MOL0     O81975   7.167  10.952   6.987 -0.2950 -0.6126  0.2521
  622MOL0     C81976   7.046  10.947   6.931  0.1625 -1.2033 -0.0639
  622MOL0     C81977   7.020  10.976   6.800  0.9936  0.1556  0.6278
  622MOL0     C81978   6.895  10.954   6.748 -0.2345  0.0541 -0.5137
  622MOL0     C81979   6.779  10.906   6.818 -0.6707  0.7957  0.5061
  622MOL0     O81980   6.658  10.900   6.751  0.6055 -0.6271 -1.3382
  622MOL0     C81981   6.551  10.833   6.827 -0.2912 -0.4810  0.1287
  622MOL0     C81982   6.409  10.847   6.747  0.0938 -0.8385 -0.5530
  622MOL0     C81983   6.288  10.891   6.830  1.0340 -0.9889  0.5226
  622MOL0     C81984   6.168  10.924   6.741  0.1606  0.4183 -0.1592
  622MOL0     C81985   6.046  10.961   6.823  0.0730  0.6094  0.4763
  622MOL0     C81986   5.915  10.975   6.735  0.3193 -0.6205  1.0211
  622MOL0     C81987   5.788  10.985   6.822 -0.1749  0.2065  0.2978
  622MOL0     C81988   5.648  10.939   6.750 -0.2101 -0.2711 -0.0745
  622MOL0     N81989   5.532  10.969   6.830 -0.6137 -0.8373 -1.0912
  622MOL0     C81990   5.501  10.892   6.935  0.4474  0.5033 -0.7912
  622MOL0     C81991   5.367  10.931   6.963 -0.9059 -0.6088  0.2753
  622MOL0     C81992   5.272  10.863   7.062  0.0163  0.1909  0.0915
  622MOL0     C81993   5.182  10.969   7.124 -0.1824  0.5360 -0.3941
  622MOL0     C81994   5.122  10.917   7.253 -0.8019 -0.5299  0.0210
  622MOL0     C81995   5.031  11.024   7.323  0.5441  0.0912  0.2086
  622MOL0     O81996   4.969  10.960   7.426  0.4444 -0.3565  0.2883
  622MOL0     C81997   4.837  10.933   7.409 -0.5603 -0.6007 -0.0642
  622MOL0     C81998   4.754  10.977   7.512 -0.2743 -0.5594 -0.6174
  622MOL0     C81999   4.618  10.980   7.504 -0.2507 -0.2459  0.0309
  622MOL0     C82000   4.554  10.920   7.386  0.4879 -0.2187 -1.1958
  622MOL0     C82001   4.406  10.898   7.374 -0.7949 -0.1949 -0.1528
  622MOL0     O82002   4.347  10.850   7.263  0.7257  0.0003 -0.0281
  622MOL0     C82003   4.208  10.817   7.265  0.2753 -0.3443 -0.7191
  622MOL0     C82004   4.192  10.676   7.274 -0.3417 -0.1635  0.2262
  622MOL0     C82005   4.060  10.625   7.276 -0.5248 -0.0508  0.8704
  622MOL0     C82006   3.944  10.707   7.290 -0.2720  0.7296 -0.0266
  622MOL0     O82007   3.817  10.657   7.276 -0.4959 -0.0324 -0.8082
  622MOL0     C82008   3.797  10.516   7.311  0.6688 -0.0656  0.3022
  622MOL0     C82009   3.660  10.482   7.266  0.9027  0.6542  0.2794
  622MOL0     C82010   3.541  10.570   7.321  0.3443  0.1267 -0.5757
  622MOL0     C82011   3.416  10.513   7.273  0.0049  0.7106  0.3028
  622MOL0     C82012   3.287  10.546   7.348  0.0017  0.2435 -0.3483
  622MOL0     C82013   3.175  10.529   7.242 -0.2241  0.2493  0.2106
  622MOL0     C82014   3.045  10.580   7.295 -0.0453 -0.3670 -0.2723
  622MOL0     C82015   2.928  10.518   7.210 -0.4969 -0.4181  0.4122
  622MOL0    Cl82016   2.780  10.598   7.267 -0.2536 -0.1563  0.0259
  622MOL0     C82017   3.968  10.845   7.281 -0.3563  0.1838 -0.8044
  622MOL0     C82018   4.098  10.901   7.264 -0.8189  0.3513  0.2138
  622MOL0     O82019   4.345  10.922   7.479 -0.0860  0.3511 -0.3269
  622MOL0     C82020   4.644  10.871   7.281 -0.9475  0.1018 -0.2697
  622MOL0     C82021   4.777  10.896   7.286 -0.4148  0.2863  0.3149
  622MOL0     N82022   5.337  11.031   6.872  0.2665  0.8179  0.0923
  622MOL0     N82023   5.436  11.051   6.799  0.4956  0.1276  0.3391
  622MOL0     C82024   6.811  10.869   6.949 -0.4045 -0.5684 -0.2175
  622MOL0     C82025   6.942  10.886   7.000 -0.4458  1.3315 -0.1043
  622MOL0     C82026   7.374  10.839   7.052  0.0587  0.5613  0.4174
  622MOL0     C82027   7.438  10.722   7.096 -1.0160 -0.1330 -0.0803
  622MOL0     C82028   7.567  10.726   7.137  0.2686  1.0385  0.2902
  622MOL0     C82029   7.638  10.847   7.122  0.4919  0.4450  0.0474
  622MOL0     O82030   7.770  10.850   7.157 -0.0681  0.1651  0.0528
  622MOL0     C82031   7.871  10.904   7.072 -1.4168  0.0685 -0.1915
  622MOL0     C82032   7.998  10.821   7.058  0.2908  0.2008 -0.1478
  622MOL0     C82033   7.970  10.698   6.981  0.2269  0.3193 -0.3898
  622MOL0     C82034   8.100  10.623   6.940 -0.0089 -0.8479  0.0759
  622MOL0     C82035   8.173  10.592   7.058 -0.3525  0.1645  0.3473
  622MOL0     C82036   8.237  10.578   7.162 -0.3847 -0.0606  0.6900
  622MOL0     C82037   7.577  10.964   7.074  0.0780  0.2536 -0.0826
  622MOL0     C82038   7.445  10.958   7.048  0.4860  0.1296 -0.0191
  622MOL0     H82039   7.107  10.987   6.736  0.6077 -0.7530 -0.0645
  622MOL0     H82040   6.879  10.953   6.640 -1.1662 -0.2410 -0.3858
  622MOL0     H82041   6.537  10.885   6.922  0.3580 -0.6665  0.3295
  622MOL0     H82042   6.571  10.727   6.842 -0.8427 -1.2365 -3.4339
  622MOL0     H82043   6.387  10.751   6.698 -3.6008 -2.3247  3.3857
  622MOL0     H82044   6.420  10.921   6.667 -1.4474 -2.0685 -1.9927
  622MOL0     H82045   6.320  10.988   6.870 -1.4792  1.9194 -3.6524
  622MOL0     H82046   6.265  10.822   6.911  0.0295 -0.7996  0.4177
  622MOL0     H82047   6.195  11.005   6.673 -1.2975 -1.3025 -2.9816
  622MOL0     H82048   6.147  10.843   6.671  1.1385 -0.9468  1.0706
  622MOL0     H82049   6.076  11.047   6.884 -1.0369  0.7243  0.8983
  622MOL0     H82050   6.039  10.879   6.896  1.0799 -1.0400 -1.1850
  622MOL0     H82051   5.900  10.896   6.661  1.9004 -0.9139  0.9787
  622MOL0     H82052   5.920  11.071   6.682 -1.9164  0.5762  2.7959
  622MOL0     H82053   5.805  10.920   6.909 -2.2293 -1.1217 -0.2175
  622MOL0     H82054   5.762  11.085   6.857 -3.6780 -0.4037 -0.2407
  622MOL0     H82055   5.659  10.832   6.732 -1.8612 -0.6954  1.1484
  622MOL0     H82056   5.629  10.992   6.657  1.0811  2.1007  0.9184
  622MOL0     H82057   5.572  10.827   6.983  1.3765  0.7794 -1.7355
  622MOL0     H82058   5.332  10.806   7.134  1.7800  0.1510 -1.3371
  622MOL0     H82059   5.205  10.794   7.009  0.5515  0.3103 -0.7480
  622MOL0     H82060   5.106  10.979   7.046 -2.9634 -0.5865  1.9642
  622MOL0     H82061   5.231  11.066   7.138  0.1288  0.3666 -0.3250
  622MOL0     H82062   5.062  10.827   7.238  0.0076 -0.7367 -2.4649
  622MOL0     H82063   5.204  10.901   7.324  0.6951  1.9415 -1.0223
  622MOL0     H82064   4.961  11.067   7.250 -1.4237 -0.9775  1.3683
  622MOL0     H82065   5.091  11.110   7.355  0.9646  0.2113 -0.8633
  622MOL0     H82066   4.800  11.022   7.599  1.8996  0.3154 -2.1210
  622MOL0     H82067   4.572  11.022   7.592  2.0107  0.1842  1.1006
  622MOL0     H82068   4.277  10.609   7.264  0.9901  1.0053  2.7391
  622MOL0     H82069   4.049  10.517   7.271 -0.0056 -0.1716  1.9800
  622MOL0     H82070   3.792  10.509   7.420 -6.1100  0.1174  0.4224
  622MOL0     H82071   3.859  10.440   7.263 -0.1143  0.7982 -2.2599
  622MOL0     H82072   3.649  10.373   7.277 -0.1964  0.5913 -1.1420
  622MOL0     H82073   3.658  10.490   7.157 -3.2712 -1.4251 -0.0290
  622MOL0     H82074   3.560  10.673   7.289  4.5055 -0.7573 -1.6239
  622MOL0     H82075   3.531  10.568   7.430 -3.7691 -2.1925 -0.7785
  622MOL0     H82076   3.409  10.549   7.169  1.3567 -2.8757 -1.2079
  622MOL0     H82077   3.416  10.404   7.275 -0.2691  0.7217  0.8918
  622MOL0     H82078   3.293  10.653   7.370 -2.9548  0.8044 -1.6526
  622MOL0     H82079   3.281  10.494   7.444  0.6978 -0.2019 -0.5445
  622MOL0     H82080   3.165  10.423   7.216  0.7262  0.5488 -1.5692
  622MOL0     H82081   3.198  10.586   7.152  3.1470 -3.9471 -1.9676
  622MOL0     H82082   3.027  10.556   7.401 -0.7498  4.3762  0.9002
  622MOL0     H82083   3.053  10.688   7.282  1.3377  0.0686  3.1625
  622MOL0     H82084   2.910  10.414   7.240 -0.0695 -0.0480  2.0944
  622MOL0     H82085   2.949  10.539   7.105 -2.9665 -0.9397 -0.2525
  622MOL0     H82086   3.876  10.903   7.278 -0.2767  0.2870 -2.1275
  622MOL0     H82087   4.118  11.005   7.241  0.1639  0.0323 -0.4164
  622MOL0     H82088   4.593  10.829   7.194  1.0620 -0.0849 -1.4150
  622MOL0     H82089   4.848  10.865   7.210  1.2280 -1.9590  2.5930
  622MOL0     H82090   6.727  10.832   7.006 -2.2335 -0.7862 -2.9058
  622MOL0     H82091   6.964  10.847   7.098  0.8278  0.5724 -0.6730
  622MOL0     H82092   7.384  10.631   7.073 -0.4726  0.0319 -2.2001
  622MOL0     H82093   7.615  10.631   7.158  1.4540  1.2465 -1.2566
  622MOL0     H82094   7.895  11.003   7.112  1.1977  0.4701 -2.4377
  622MOL0     H82095   7.833  10.925   6.972 -1.2426  3.3183  0.3146
  622MOL0     H82096   8.075  10.884   7.010  0.3063  1.5324  1.5152
  622MOL0     H82097   8.029  10.805   7.161  1.5042  0.5707 -0.4340
  622MOL0     H82098   7.926  10.715   6.882  2.5788  0.5248 -1.4557
  622MOL0     H82099   7.914  10.629   7.045  2.1549  0.5686  1.7052
  622MOL0     H82100   8.086  10.535   6.877  0.8753  0.7952 -2.6168
  622MOL0     H82101   8.161  10.691   6.880  0.3442 -0.2869  1.0533
  622MOL0     H82102   8.294  10.575   7.252  1.0191 -0.8776 -0.1930
  622MOL0     H82103   7.653  11.040   7.060  1.4971 -1.4482 -2.6473
  622MOL0     H82104   7.383  11.045   7.031  0.1536  0.3547  2.0976
  623MOL0     O82105   5.820   1.523   2.339 -0.8480 -0.4695 -0.0941
  623MOL0     C82106   5.725   1.503   2.412 -0.5482 -0.3619  0.4930
  623MOL0     O82107   5.661   1.385   2.443  0.3800  0.1956  0.0235
  623MOL0     C82108   5.736   1.275   2.422 -0.5698 -0.2567 -1.1520
  623MOL0     C82109   5.833   1.248   2.517 -1.4020  0.8508 -0.2507
  623MOL0     C82110   5.924   1.142   2.497  0.2545 -0.1624  0.6165
  623MOL0     C82111   5.918   1.055   2.390 -0.1127  0.5894 -0.3715
  623MOL0     O82112   6.011   0.954   2.385 -0.6858 -0.1345 -0.8252
  623MOL0     C82113   6.038   0.875   2.267  0.4677 -0.0242  0.0501
  623MOL0     C82114   6.170   0.792   2.294 -0.6739 -0.3150 -0.8898
  623MOL0     C82115   6.301   0.868   2.329 -0.2367 -0.4471  0.3165
  623MOL0     C82116   6.343   0.970   2.219  0.9869 -0.1247  0.2164
  623MOL0     C82117   6.459   1.061   2.265 -1.5017  0.5108  0.0964
  623MOL0     C82118   6.523   1.127   2.145  0.7661  0.3876 -0.9117
  623MOL0     C82119   6.602   1.250   2.178  0.5465  0.5798  0.3302
  623MOL0     C82120   6.691   1.291   2.060  1.1344 -0.0402 -0.3708
  623MOL0     N82121   6.612   1.338   1.942 -0.0740 -0.4948 -0.3515
  623MOL0     C82122   6.524   1.446   1.940  0.1042 -0.0766 -1.0535
  623MOL0     C82123   6.484   1.447   1.808  1.0057  0.7069 -1.1522
  623MOL0     C82124   6.374   1.542   1.768  0.0806 -0.2758 -0.0237
  623MOL0     C82125   6.237   1.478   1.717 -0.1984 -0.2312 -0.0780
  623MOL0     C82126   6.142   1.568   1.638 -0.3021  0.2683 -0.6760
  623MOL0     C82127   5.995   1.531   1.662 -0.1642  0.7323 -0.6928
  623MOL0     O82128   5.911   1.626   1.590  0.1033  0.2611  0.2168
  623MOL0     C82129   5.778   1.620   1.620 -0.3592 -0.2178 -0.6285
  623MOL0     C82130   5.702   1.507   1.616  0.0979 -0.1454 -0.3000
  623MOL0     C82131   5.562   1.501   1.644 -0.5481  0.6230 -0.3904
  623MOL0     C82132   5.506   1.615   1.688 -0.5474 -0.4717 -0.2197
  623MOL0     C82133   5.357   1.614   1.708 -0.1246  0.4282 -0.2816
  623MOL0     O82134   5.278   1.505   1.670  0.0079  0.0359  0.0928
  623MOL0     C82135   5.146   1.521   1.693  0.0950 -0.2984  0.0481
  623MOL0     C82136   5.099   1.534   1.825  0.7781 -0.0974  0.7135
  623MOL0     C82137   4.964   1.554   1.842 -0.4699  0.3827 -0.1650
  623MOL0     C82138   4.869   1.555   1.735  1.1929  0.0394  1.8802
  623MOL0     O82139   4.732   1.550   1.750  0.5174 -0.4127 -0.4801
  623MOL0     C82140   4.673   1.653   1.839  0.6102 -0.0729 -0.7055
  623MOL0     C82141   4.527   1.630   1.829 -0.5375 -0.8042  0.2130
  623MOL0     C82142   4.456   1.732   1.919  0.4808  0.4940  0.3192
  623MOL0     C82143   4.312   1.731   1.910 -1.2341 -0.4290 -0.5399
  623MOL0     C82144   4.254   1.816   1.798 -0.2595 -0.1065 -0.3063
  623MOL0     C82145   4.111   1.778   1.760  0.1138  0.2156  0.9821
  623MOL0     C82146   4.052   1.875   1.656  0.0224 -0.2724 -0.8715
  623MOL0     C82147   3.909   1.869   1.626  0.5401 -0.2868 -0.5412
  623MOL0    Cl82148   3.869   1.967   1.477 -0.4703 -0.2058 -0.1876
  623MOL0     C82149   4.927   1.541   1.600  0.2700  0.0133  0.5456
  623MOL0     C82150   5.065   1.535   1.581  0.6994 -0.3922  0.0514
  623MOL0     O82151   5.317   1.713   1.765 -0.5594 -0.4234 -0.0413
  623MOL0     C82152   5.584   1.731   1.702  0.2090  0.2093 -0.1176
  623MOL0     C82153   5.719   1.739   1.665  0.2109 -0.4053  0.0239
  623MOL0     N82154   6.541   1.346   1.732 -0.0649  0.2160  0.0614
  623MOL0     N82155   6.622   1.285   1.818 -0.4617  0.0568 -0.2170
  623MOL0     C82156   5.812   1.078   2.296  0.0988 -0.1462 -0.4736
  623MOL0     C82157   5.722   1.183   2.311  0.8189 -0.2586 -0.3860
  623MOL0     C82158   5.650   1.615   2.465  0.5092  0.0776 -0.4810
  623MOL0     C82159   5.566   1.610   2.573  0.3181 -0.0432 -1.6156
  623MOL0     C82160   5.499   1.718   2.615  0.1845 -0.3037  0.2896
  623MOL0     C82161   5.504   1.840   2.542 -0.2515  0.4310  0.2985
  623MOL0     O82162   5.434   1.948   2.587  0.3737  0.0151  0.2512
  623MOL0     C82163   5.469   2.080   2.549 -0.1012 -0.5025  0.6772
  623MOL0     C82164   5.602   2.124   2.617 -1.1167  0.0088  0.2293
  623MOL0     C82165   5.710   2.202   2.522 -0.6746 -0.5915 -0.1287
  623MOL0     C82166   5.821   2.260   2.600  0.2734 -0.0154 -0.8802
  623MOL0     C82167   5.917   2.336   2.523 -0.1906  0.3252  0.5274
  623MOL0     C82168   6.000   2.411   2.468  0.7197 -0.5849 -0.6261
  623MOL0     C82169   5.580   1.839   2.425  0.2442  0.3747  0.1335
  623MOL0     C82170   5.659   1.732   2.386 -0.8564 -0.6236 -0.4713
  623MOL0     H82171   5.850   1.312   2.603  4.5069  2.2149 -1.9555
  623MOL0     H82172   6.009   1.126   2.563  0.0682 -0.7281  0.7264
  623MOL0     H82173   6.044   0.918   2.167  1.0336 -1.2331 -0.4574
  623MOL0     H82174   5.962   0.796   2.269 -0.3218  0.5620 -2.9229
  623MOL0     H82175   6.191   0.728   2.208  0.7333 -0.6689 -0.3100
  623MOL0     H82176   6.155   0.737   2.387  1.3567  0.6172  0.0409
  623MOL0     H82177   6.383   0.796   2.324 -1.2409 -1.5428 -1.1153
  623MOL0     H82178   6.299   0.913   2.429 -1.3322 -0.0196  0.1086
  623MOL0     H82179   6.361   0.926   2.120 -1.2179 -2.7110  0.8620
  623MOL0     H82180   6.255   1.033   2.206  3.3343  2.9300 -3.3636
  623MOL0     H82181   6.537   1.008   2.321 -1.9267  1.6889  1.8800
  623MOL0     H82182   6.425   1.141   2.332 -0.5393  1.2822 -0.3062
  623MOL0     H82183   6.444   1.166   2.080  1.1906  2.1384 -0.4211
  623MOL0     H82184   6.578   1.052   2.087  3.7503  1.5778  0.1832
  623MOL0     H82185   6.533   1.325   2.218  1.2140  0.4395  1.8567
  623MOL0     H82186   6.671   1.238   2.263  0.9327 -0.8449 -0.1604
  623MOL0     H82187   6.756   1.211   2.025  1.9659  0.8276 -0.8755
  623MOL0     H82188   6.748   1.375   2.100  0.1518 -0.2536  1.6044
  623MOL0     H82189   6.486   1.510   2.019 -1.4485  0.6132 -2.2997
  623MOL0     H82190   6.398   1.612   1.687 -3.5475  2.6889  1.1712
  623MOL0     H82191   6.356   1.611   1.851  0.2581  0.4583 -0.5846
  623MOL0     H82192   6.184   1.432   1.801  0.8627  3.5800  2.9727
  623MOL0     H82193   6.264   1.396   1.650  1.1721  1.1767 -1.3164
  623MOL0     H82194   6.151   1.674   1.663 -0.5080  0.2814 -0.6629
  623MOL0     H82195   6.171   1.569   1.532  0.9510 -0.1229 -0.3629
  623MOL0     H82196   5.968   1.536   1.768  2.6181  1.0522  0.0832
  623MOL0     H82197   5.985   1.425   1.638 -1.7021  0.4706  0.8833
  623MOL0     H82198   5.739   1.415   1.571 -1.7460  0.6165 -3.7776
  623MOL0     H82199   5.508   1.408   1.638  0.4056  0.0420 -0.2874
  623MOL0     H82200   5.170   1.513   1.904 -0.0698 -0.5927  1.3738
  623MOL0     H82201   4.927   1.556   1.944  2.3694 -0.3473  0.9961
  623MOL0     H82202   4.702   1.749   1.795  0.1949 -0.5174 -1.9880
  623MOL0     H82203   4.702   1.636   1.943  1.7327  1.6309 -0.6987
  623MOL0     H82204   4.503   1.532   1.873 -0.6942 -0.3926  1.0561
  623MOL0     H82205   4.494   1.631   1.725  0.5487 -2.0857 -0.1780
  623MOL0     H82206   4.487   1.837   1.914 -2.5374  1.7307  3.4444
  623MOL0     H82207   4.496   1.712   2.019  0.0393  1.7976  0.7734
  623MOL0     H82208   4.272   1.629   1.902 -0.3904 -0.7940 -0.2282
  623MOL0     H82209   4.266   1.768   2.002 -1.6123 -0.6579 -0.6330
  623MOL0     H82210   4.317   1.824   1.708 -1.0401  2.8512 -0.6839
  623MOL0     H82211   4.256   1.921   1.829  2.0115  0.0141 -0.6994
  623MOL0     H82212   4.041   1.779   1.845 -2.2494  0.0196 -0.8366
  623MOL0     H82213   4.110   1.675   1.724 -0.6510  0.9687 -1.3842
  623MOL0     H82214   4.069   1.977   1.692 -2.1911 -0.0211 -0.3817
  623MOL0     H82215   4.097   1.862   1.557  0.7485  0.6868 -0.6841
  623MOL0     H82216   3.853   1.901   1.714  0.5743  0.6925 -0.8578
  623MOL0     H82217   3.877   1.765   1.617 -1.0963 -0.3645  3.8056
  623MOL0     H82218   4.850   1.540   1.523 -0.0895 -0.2555  0.9043
  623MOL0     H82219   5.116   1.543   1.485 -0.7472  0.5241 -0.6796
  623MOL0     H82220   5.540   1.827   1.726  2.1256  1.5818 -1.7332
  623MOL0     H82221   5.768   1.834   1.682  3.2476 -1.8299 -0.0823
  623MOL0     H82222   5.816   1.006   2.215  2.9322  0.4714 -0.9894
  623MOL0     H82223   5.649   1.177   2.231 -1.0221 -1.5292  1.2871
  623MOL0     H82224   5.549   1.521   2.634 -1.3170 -0.8156 -3.1363
  623MOL0     H82225   5.440   1.717   2.706 -0.2524  1.2440  0.0496
  623MOL0     H82226   5.393   2.153   2.578  1.4601  1.4123  0.1539
  623MOL0     H82227   5.493   2.084   2.443  2.4524  0.4349  1.2051
  623MOL0     H82228   5.586   2.175   2.712  1.6514 -0.7357  1.2009
  623MOL0     H82229   5.638   2.031   2.662 -0.4683  0.4954  0.7301
  623MOL0     H82230   5.663   2.288   2.473 -0.1363 -0.4762 -0.4538
  623MOL0     H82231   5.738   2.137   2.438  2.1545 -1.9666  1.7390
  623MOL0     H82232   5.778   2.327   2.676 -0.9867 -0.4122 -1.2138
  623MOL0     H82233   5.867   2.173   2.649  1.0524  0.7197 -0.2847
  623MOL0     H82234   6.072   2.476   2.423  1.9880 -0.2163  1.7966
  623MOL0     H82235   5.596   1.924   2.358 -3.1110  0.0870 -1.2573
  623MOL0     H82236   5.740   1.747   2.316  0.0981 -0.9991  0.5149
  624MOL0     O82237   4.271   1.943   0.713  0.1594 -1.0470  0.0885
  624MOL0     C82238   4.298   1.903   0.598  0.0718  0.0575 -0.3542
  624MOL0     O82239   4.215   1.845   0.508  0.9757 -0.0455 -0.4966
  624MOL0     C82240   4.097   1.784   0.551  0.3331  0.5135 -0.1612
  624MOL0     C82241   3.996   1.757   0.456  0.0306 -1.3512  0.2825
  624MOL0     C82242   3.882   1.691   0.485  0.5964 -0.4314 -0.9228
  624MOL0     C82243   3.857   1.646   0.621  0.2246  0.9867  1.0703
  624MOL0     O82244   3.740   1.581   0.659  0.4897  0.2785 -0.0533
  624MOL0     C82245   3.629   1.602   0.558 -0.0832 -0.0076 -0.5552
  624MOL0     C82246   3.498   1.578   0.633  0.7419 -0.0815 -0.7047
  624MOL0     C82247   3.367   1.596   0.558  0.1424 -0.6858  0.5865
  624MOL0     C82248   3.256   1.515   0.622 -0.5487 -0.2847 -0.6047
  624MOL0     C82249   3.132   1.537   0.543  0.0122  0.6294 -0.0362
  624MOL0     C82250   3.003   1.484   0.600  0.0755  0.8628  1.3525
  624MOL0     C82251   2.886   1.563   0.539 -0.1654 -0.0386  0.0851
  624MOL0     C82252   2.751   1.522   0.594 -0.5014  0.0463 -0.4290
  624MOL0     N82253   2.634   1.565   0.517  0.5279  0.3205 -0.5168
  624MOL0     C82254   2.596   1.499   0.401  0.4378  0.0780  0.4462
  624MOL0     C82255   2.495   1.574   0.355 -0.5937  0.1349 -0.0645
  624MOL0     C82256   2.433   1.567   0.212 -0.7665  0.2051  0.5514
  624MOL0     C82257   2.350   1.445   0.182  0.4255 -0.6002  0.1914
  624MOL0     C82258   2.215   1.445   0.258  0.4934  0.1898 -0.7316
  624MOL0     C82259   2.113   1.563   0.245 -0.0848  0.2877 -0.0311
  624MOL0     O82260   2.087   1.609   0.115  0.2316  0.0460  0.1278
  624MOL0     C82261   1.979   1.699   0.091 -0.4221  0.2200  0.4164
  624MOL0     C82262   1.912   1.680  -0.028  0.3746 -0.2783 -0.3977
  624MOL0     C82263   1.811   1.771  -0.060  0.0053 -0.0013  0.0274
  624MOL0     C82264   1.761   1.859   0.031  0.2317 -0.1786  0.0895
  624MOL0     C82265   1.657   1.957  -0.007 -0.9826 -0.1907  0.4342
  624MOL0     O82266   1.614   1.956  -0.141  0.5776 -0.3786  0.0092
  624MOL0     C82267   1.496   2.023  -0.168 -0.0187  0.0473 -0.6595
  624MOL0     C82268   1.377   1.999  -0.092  0.0901 -0.0078  0.9975
  624MOL0     C82269   1.260   2.073  -0.140 -0.8655 -0.2008 -1.1157
  624MOL0     C82270   1.266   2.148  -0.254  0.5178  0.5313 -0.7038
  624MOL0     O82271   1.155   2.208  -0.303 -0.2838 -0.5589  0.3845
  624MOL0     C82272   1.027   2.138  -0.304  0.4733  0.0280 -0.0565
  624MOL0     C82273   0.934   2.222  -0.398  0.0918  0.0625  0.2188
  624MOL0     C82274   0.862   2.337  -0.323  0.3699 -0.3196 -0.7751
  624MOL0     C82275   0.762   2.414  -0.409  0.2521 -0.3854  0.3203
  624MOL0     C82276   0.642   2.334  -0.467  0.4262 -0.1859 -0.5499
  624MOL0     C82277   0.561   2.425  -0.559  1.5230 -0.5962  0.3741
  624MOL0     C82278   0.454   2.340  -0.626  0.7012  0.0047 -0.4582
  624MOL0     C82279   0.361   2.439  -0.691 -0.5623  0.0354  0.0686
  624MOL0    Cl82280   0.264   2.513  -0.568 -0.1685 -0.2087 -0.3105
  624MOL0     C82281   1.389   2.189  -0.302 -0.0102  0.4800  0.1918
  624MOL0     C82282   1.505   2.114  -0.279 -0.7754 -0.0934 -0.6222
  624MOL0     O82283   1.610   2.028   0.080  0.3743 -0.2867 -0.2913
  624MOL0     C82284   1.828   1.879   0.154  0.4929 -0.0079 -0.3938
  624MOL0     C82285   1.946   1.806   0.182 -0.1740  0.5793 -0.1620
  624MOL0     N82286   2.466   1.677   0.446 -0.5956 -0.2540 -0.4834
  624MOL0     N82287   2.551   1.668   0.544 -0.5075  0.7830  0.4025
  624MOL0     C82288   3.966   1.656   0.712 -0.2892  0.0081  0.1117
  624MOL0     C82289   4.084   1.719   0.679 -0.3527  0.1175  0.0152
  624MOL0     C82290   4.446   1.901   0.573 -0.3805  0.3334  0.2934
  624MOL0     C82291   4.498   1.853   0.447  0.4016  0.1119 -0.5597
  624MOL0     C82292   4.628   1.803   0.433 -0.0824 -1.2956 -0.0868
  624MOL0     C82293   4.718   1.846   0.540  0.0025  0.2093  1.7830
  624MOL0     O82294   4.854   1.815   0.550  0.7688 -0.3183 -0.3379
  624MOL0     C82295   4.928   1.796   0.426  0.1760  0.3714  0.0608
  624MOL0     C82296   5.085   1.793   0.456  0.1113  0.9602  0.1421
  624MOL0     C82297   5.141   1.930   0.490  0.0585 -0.4458 -0.2366
  624MOL0     C82298   5.247   1.976   0.402  0.2414  0.0698  0.0969
  624MOL0     C82299   5.200   2.040   0.283 -0.2531 -0.1371  1.2939
  624MOL0     C82300   5.163   2.073   0.172  0.4983 -0.8099 -0.2891
  624MOL0     C82301   4.671   1.917   0.646  0.0165  0.5198  0.1172
  624MOL0     C82302   4.538   1.933   0.666 -0.2671 -0.1030  0.1729
  624MOL0     H82303   4.009   1.789   0.353 -1.1328  1.1361  0.8329
  624MOL0     H82304   3.804   1.677   0.411 -1.2566  1.0267  0.6501
  624MOL0     H82305   3.641   1.543   0.467  1.2050 -1.5823  0.5746
  624MOL0     H82306   3.613   1.708   0.536 -2.1712 -0.2982 -0.6360
  624MOL0     H82307   3.500   1.660   0.706 -0.4013 -0.2632 -0.4585
  624MOL0     H82308   3.489   1.484   0.688 -1.8040  1.4280  1.7305
  624MOL0     H82309   3.378   1.564   0.453  0.2258 -1.6716  0.8806
  624MOL0     H82310   3.336   1.700   0.563 -1.9198 -1.2692  0.8588
  624MOL0     H82311   3.287   1.410   0.616 -3.9527 -1.3840 -1.0479
  624MOL0     H82312   3.251   1.562   0.720 -2.1490 -3.4101  0.9410
  624MOL0     H82313   3.135   1.486   0.446  0.4365  0.8183 -0.1263
  624MOL0     H82314   3.137   1.641   0.509  1.3714  1.2211  1.8170
  624MOL0     H82315   2.989   1.501   0.707 -0.2520  0.4981  1.3694
  624MOL0     H82316   3.009   1.377   0.579  2.2335  0.2292  4.4293
  624MOL0     H82317   2.909   1.669   0.549  0.3662 -0.2435  1.2528
  624MOL0     H82318   2.873   1.536   0.434 -0.2178 -0.1866  0.1279
  624MOL0     H82319   2.746   1.560   0.696  0.6871 -1.0209  0.0569
  624MOL0     H82320   2.755   1.414   0.609  1.1157  0.0409 -0.7193
  624MOL0     H82321   2.635   1.412   0.350 -0.9430  0.0086 -0.5285
  624MOL0     H82322   2.510   1.565   0.134 -2.8542 -2.0518 -1.5933
  624MOL0     H82323   2.375   1.659   0.205  0.5665  1.2165  2.0037
  624MOL0     H82324   2.404   1.354   0.211  0.9871 -1.1536 -2.3745
  624MOL0     H82325   2.330   1.440   0.075  1.8222  1.5120 -0.2096
  624MOL0     H82326   2.160   1.359   0.219 -1.6145  1.4205 -0.6000
  624MOL0     H82327   2.223   1.429   0.366 -2.6245 -0.4582 -0.5180
  624MOL0     H82328   2.140   1.648   0.308 -0.4532 -0.6355  1.4300
  624MOL0     H82329   2.018   1.526   0.285 -0.8341  0.0736 -1.9270
  624MOL0     H82330   1.941   1.600  -0.096  0.4481 -0.1094 -0.5643
  624MOL0     H82331   1.768   1.754  -0.159  1.1158 -1.3030 -0.2680
  624MOL0     H82332   1.364   1.933  -0.007  0.1915 -1.2187  0.0973
  624MOL0     H82333   1.164   2.067  -0.089  1.1476  0.8926  3.2813
  624MOL0     H82334   0.984   2.132  -0.203 -0.6042  0.5839 -0.4646
  624MOL0     H82335   1.039   2.035  -0.337  2.5550 -0.2691  1.4304
  624MOL0     H82336   0.863   2.155  -0.447  0.3477  0.8678 -1.3308
  624MOL0     H82337   0.986   2.261  -0.486 -0.2661 -1.5875 -0.7630
  624MOL0     H82338   0.936   2.408  -0.284  1.1029 -2.6748  2.5616
  624MOL0     H82339   0.814   2.296  -0.235 -0.5567  0.3081 -0.9784
  624MOL0     H82340   0.718   2.490  -0.344  0.4053  0.6688 -0.7795
  624MOL0     H82341   0.824   2.463  -0.485  2.2882 -0.3776  1.9271
  624MOL0     H82342   0.583   2.306  -0.380  0.8766 -0.0544 -0.2023
  624MOL0     H82343   0.670   2.242  -0.518  0.7202 -1.1648  1.3143
  624MOL0     H82344   0.628   2.465  -0.636 -1.1498  0.2738 -1.6657
  624MOL0     H82345   0.520   2.510  -0.505  0.8437 -2.4542  3.0011
  624MOL0     H82346   0.501   2.289  -0.710  2.6181  0.8633  0.0539
  624MOL0     H82347   0.405   2.272  -0.556  3.1608 -1.1728  0.2021
  624MOL0     H82348   0.289   2.386  -0.754 -0.5573 -1.4138  1.2365
  624MOL0     H82349   0.406   2.521  -0.748 -0.7366  0.7159  0.8873
  624MOL0     H82350   1.400   2.263  -0.381  3.4888  0.6450  0.6509
  624MOL0     H82351   1.598   2.134  -0.331  0.2522 -2.2373  0.2464
  624MOL0     H82352   1.811   1.958   0.226  1.4670 -0.0568 -0.0882
  624MOL0     H82353   2.004   1.820   0.273  1.1656  2.8152 -1.2749
  624MOL0     H82354   3.959   1.595   0.802  2.0816 -0.7489 -0.1302
  624MOL0     H82355   4.168   1.709   0.747  1.1021 -0.9684 -1.8311
  624MOL0     H82356   4.426   1.840   0.367 -0.8317 -1.6228  0.7664
  624MOL0     H82357   4.656   1.744   0.346 -1.3809 -2.7129  0.4145
  624MOL0     H82358   4.917   1.874   0.351  0.0906 -0.5402 -0.8986
  624MOL0     H82359   4.898   1.700   0.383 -0.1857  0.9406 -0.9985
  624MOL0     H82360   5.110   1.717   0.530  1.9261  0.1227 -1.2452
  624MOL0     H82361   5.139   1.747   0.373 -0.1713 -1.9018  1.4481
  624MOL0     H82362   5.185   1.936   0.590  3.4693  0.6723 -1.6683
  624MOL0     H82363   5.059   2.003   0.484  1.3358  1.0550 -0.0990
  624MOL0     H82364   5.301   2.048   0.465  0.8712 -2.3415  2.4647
  624MOL0     H82365   5.306   1.891   0.368 -2.3155 -1.5031 -0.7008
  624MOL0     H82366   5.136   2.117   0.078 -0.2823  0.2794  0.4263
  624MOL0     H82367   4.729   1.942   0.734  0.1934  0.3672  0.0436
  624MOL0     H82368   4.502   1.966   0.763 -3.0339  1.0353 -1.1338
  625MOL0     O82369   1.095   6.814   6.330  0.3790 -0.0303 -0.0572
  625MOL0     C82370   1.206   6.761   6.341 -0.1344 -0.7933 -0.9843
  625MOL0     O82371   1.230   6.631   6.351 -0.1374 -0.3438  0.0537
  625MOL0     C82372   1.133   6.536   6.332 -0.1701 -0.8185  0.0382
  625MOL0     C82373   1.024   6.522   6.425 -0.2713  0.3552 -0.1165
  625MOL0     C82374   0.930   6.416   6.414 -0.8348 -0.0052  0.1628
  625MOL0     C82375   0.933   6.342   6.298  0.4956 -0.5411  1.3415
  625MOL0     O82376   0.820   6.268   6.267  0.5432  0.1088  0.2977
  625MOL0     C82377   0.774   6.233   6.140 -0.0470  0.7147  0.2307
  625MOL0     C82378   0.622   6.204   6.159 -0.2328  0.1893  0.0845
  625MOL0     C82379   0.539   6.178   6.026 -0.5505 -0.7541 -0.0673
  625MOL0     C82380   0.391   6.166   6.058  1.3907  0.6547  0.6290
  625MOL0     C82381   0.297   6.203   5.935  0.5664  0.1995 -0.1448
  625MOL0     C82382   0.301   6.353   5.906 -0.4433  0.0373 -0.4073
  625MOL0     C82383   0.193   6.395   5.821  0.3243 -0.0727  1.3065
  625MOL0     C82384   0.190   6.320   5.680 -1.0394 -0.5102  0.2664
  625MOL0     N82385   0.129   6.184   5.671  0.1073  0.2132 -0.8678
  625MOL0     C82386   0.009   6.150   5.740 -0.0472 -0.3860 -0.0763
  625MOL0     C82387   0.006   6.011   5.737  0.1596  0.2061 -0.3241
  625MOL0     C82388  -0.095   5.932   5.821 -0.4140  0.0789  0.4354
  625MOL0     C82389  -0.224   5.911   5.736  0.3595 -0.1417  0.7751
  625MOL0     C82390  -0.335   5.843   5.810 -0.1503 -0.4929  0.6288
  625MOL0     C82391  -0.382   5.908   5.937  0.2191  0.1806 -0.6411
  625MOL0     O82392  -0.515   5.864   5.972 -0.4134  0.6479  0.7742
  625MOL0     C82393  -0.597   5.951   6.043 -0.2656  0.7233  0.2047
  625MOL0     C82394  -0.579   6.002   6.168  0.1639 -0.6461 -1.0148
  625MOL0     C82395  -0.659   6.093   6.238  0.3819  1.3513  0.0515
  625MOL0     C82396  -0.786   6.111   6.178  0.4995  1.5977  0.0548
  625MOL0     C82397  -0.901   6.167   6.253 -0.0830  0.1788  0.2780
  625MOL0     O82398  -1.031   6.178   6.189  0.5700  0.3878  0.6958
  625MOL0     C82399  -1.146   6.187   6.262  0.0084 -0.4257 -0.4828
  625MOL0     C82400  -1.204   6.321   6.292  0.0935 -0.4243  0.3936
  625MOL0     C82401  -1.316   6.331   6.371  0.0772 -0.3545 -0.2543
  625MOL0     C82402  -1.370   6.225   6.431  0.5992  0.3709 -0.2672
  625MOL0     O82403  -1.490   6.250   6.501 -0.2726 -0.3424 -0.1662
  625MOL0     C82404  -1.522   6.157   6.607 -0.5617 -0.7087  0.3924
  625MOL0     C82405  -1.621   6.234   6.700  0.2239  0.8042 -0.7293
  625MOL0     C82406  -1.771   6.234   6.659 -0.1862  0.6419 -0.4156
  625MOL0     C82407  -1.874   6.249   6.780  0.6787  0.6170 -1.0675
  625MOL0     C82408  -2.012   6.262   6.726 -0.2685 -0.1784  0.2345
  625MOL0     C82409  -2.123   6.207   6.827  0.0261 -0.3119 -0.3485
  625MOL0     C82410  -2.257   6.224   6.757  0.2694  1.1235  0.0450
  625MOL0     C82411  -2.316   6.364   6.749  0.8267 -0.0076  0.2042
  625MOL0    Cl82412  -2.487   6.364   6.700 -0.0522 -0.4922 -0.1227
  625MOL0     C82413  -1.313   6.099   6.400 -0.3703  0.1128 -0.7452
  625MOL0     C82414  -1.196   6.083   6.324 -0.5617  1.0039 -0.4324
  625MOL0     O82415  -0.872   6.212   6.365 -0.2748 -0.0850  0.5543
  625MOL0     C82416  -0.810   6.066   6.046  0.2939 -0.6641  0.2837
  625MOL0     C82417  -0.714   5.985   5.984 -0.1085 -0.0455 -0.3103
  625MOL0     N82418   0.115   5.968   5.653  0.0422 -0.7390 -0.7059
  625MOL0     N82419   0.193   6.073   5.639  0.5006  0.2010  0.1898
  625MOL0     C82420   1.038   6.350   6.204  0.1465  0.4488  0.4521
  625MOL0     C82421   1.143   6.447   6.224  0.3302 -1.0119 -0.3891
  625MOL0     C82422   1.315   6.864   6.358  0.1206  1.0215  0.3290
  625MOL0     C82423   1.438   6.826   6.418  0.4902 -0.4123  0.1615
  625MOL0     C82424   1.543   6.911   6.417  0.3531  0.7330 -0.0545
  625MOL0     C82425   1.536   7.045   6.387  0.7584  0.0370  0.2302
  625MOL0     O82426   1.646   7.129   6.382  0.9097 -0.1564 -0.3331
  625MOL0     C82427   1.774   7.079   6.409  0.0803 -0.8167 -0.4541
  625MOL0     C82428   1.863   7.206   6.435  0.2330 -0.0421 -0.3155
  625MOL0     C82429   1.900   7.285   6.309  1.0133  0.0217  0.4320
  625MOL0     C82430   1.977   7.410   6.329  1.1913 -0.0978 -0.1004
  625MOL0     C82431   2.122   7.385   6.352 -0.0229  0.0397  0.6776
  625MOL0     C82432   2.243   7.383   6.351  0.0354 -1.0302 -0.3583
  625MOL0     C82433   1.411   7.094   6.350  0.2317  0.8325  0.0323
  625MOL0     C82434   1.305   7.005   6.334  0.0477  0.4211 -0.2271
  625MOL0     H82435   1.018   6.583   6.515  1.1153  1.2528 -0.5988
  625MOL0     H82436   0.845   6.397   6.481 -1.8222 -2.4222 -1.6283
  625MOL0     H82437   0.829   6.143   6.111  0.2882  0.6493  1.0209
  625MOL0     H82438   0.796   6.315   6.072 -1.6022  2.7653  2.0394
  625MOL0     H82439   0.583   6.290   6.215 -0.1710 -0.6051  1.3835
  625MOL0     H82440   0.613   6.124   6.232  2.1904  0.6403  0.9422
  625MOL0     H82441   0.570   6.087   5.975 -1.4244 -0.8165 -0.5151
  625MOL0     H82442   0.565   6.259   5.957  1.6685 -1.1478  0.2381
  625MOL0     H82443   0.375   6.059   6.072 -2.1433  0.8329 -0.9108
  625MOL0     H82444   0.359   6.207   6.154 -0.6913 -0.9280  0.6849
  625MOL0     H82445   0.197   6.172   5.966  1.5698 -1.6968  1.4311
  625MOL0     H82446   0.324   6.137   5.851  0.6211  1.2997 -1.0180
  625MOL0     H82447   0.396   6.389   5.865  0.9164  0.6483  2.9429
  625MOL0     H82448   0.293   6.417   5.994  2.9710  2.1258 -1.3944
  625MOL0     H82449   0.093   6.391   5.866 -0.7849 -2.4886 -1.0601
  625MOL0     H82450   0.221   6.499   5.806 -0.4396 -0.0631 -0.3920
  625MOL0     H82451   0.286   6.315   5.629 -0.9208  0.4332  0.3792
  625MOL0     H82452   0.124   6.375   5.611  1.9290 -0.5989 -2.9099
  625MOL0     H82453  -0.047   6.223   5.797  0.9653 -0.1125  0.5888
  625MOL0     H82454  -0.106   5.984   5.917 -0.1215  1.7279 -0.3745
  625MOL0     H82455  -0.064   5.829   5.840 -2.7951 -0.8050 -0.1264
  625MOL0     H82456  -0.183   5.851   5.654  0.4074 -1.1436  1.5118
  625MOL0     H82457  -0.248   6.006   5.688  0.3179 -0.4847  0.1053
  625MOL0     H82458  -0.425   5.842   5.748  0.5068  1.1884 -0.4364
  625MOL0     H82459  -0.323   5.736   5.825 -0.5405 -0.5467  0.5664
  625MOL0     H82460  -0.382   6.017   5.933  5.9304  0.5933  1.4570
  625MOL0     H82461  -0.317   5.875   6.019 -0.9609  0.1295  0.2911
  625MOL0     H82462  -0.485   5.991   6.222 -0.8500  2.7219  1.7929
  625MOL0     H82463  -0.642   6.131   6.338 -2.6777  3.3926 -0.0749
  625MOL0     H82464  -1.182   6.413   6.239 -4.7222  0.4293 -0.6007
  625MOL0     H82465  -1.376   6.422   6.374 -1.3797 -1.2977  0.0846
  625MOL0     H82466  -1.435   6.127   6.667 -0.0774 -0.5379 -0.2117
  625MOL0     H82467  -1.562   6.065   6.562 -0.4790 -0.3071 -0.5311
  625MOL0     H82468  -1.611   6.339   6.726 -3.5223  1.0874  0.2269
  625MOL0     H82469  -1.610   6.174   6.791 -1.1522  0.8500 -0.4985
  625MOL0     H82470  -1.794   6.136   6.616  0.9753  0.3791 -0.4701
  625MOL0     H82471  -1.796   6.310   6.584 -2.4593  0.8932  0.5278
  625MOL0     H82472  -1.874   6.161   6.845  1.1623  0.5555 -1.1424
  625MOL0     H82473  -1.850   6.341   6.833  0.4411  1.1566 -1.8745
  625MOL0     H82474  -2.037   6.204   6.637 -2.4256 -0.3368  0.8945
  625MOL0     H82475  -2.026   6.368   6.699  1.2415 -0.4127 -1.7278
  625MOL0     H82476  -2.132   6.258   6.924 -3.9900 -2.3919  0.6182
  625MOL0     H82477  -2.116   6.103   6.861 -2.0119 -0.4536 -0.2592
  625MOL0     H82478  -2.256   6.182   6.656  0.0668  2.0172 -0.3382
  625MOL0     H82479  -2.326   6.157   6.810  1.1260  0.7109  0.6637
  625MOL0     H82480  -2.260   6.433   6.684 -2.3097  2.8613  0.2437
  625MOL0     H82481  -2.309   6.413   6.847  1.4883  1.6649 -0.6222
  625MOL0     H82482  -1.340   6.013   6.461 -0.6032 -1.6204 -3.1881
  625MOL0     H82483  -1.145   5.988   6.312  0.3268  1.4021  0.0886
  625MOL0     H82484  -0.906   6.082   5.999  1.1488 -0.8414 -1.6163
  625MOL0     H82485  -0.737   5.951   5.883  0.7908  0.5260 -0.7179
  625MOL0     H82486   1.056   6.282   6.121  3.3906  1.4568  0.1806
  625MOL0     H82487   1.227   6.454   6.155  3.8830  0.5769  3.6802
  625MOL0     H82488   1.460   6.721   6.434  3.3168  0.0707  0.0187
  625MOL0     H82489   1.638   6.870   6.449  0.5070  1.5325  0.5574
  625MOL0     H82490   1.806   7.013   6.328  1.2502 -1.6616  0.6494
  625MOL0     H82491   1.777   7.011   6.495 -1.1815 -1.6859 -1.0623
  625MOL0     H82492   1.812   7.264   6.513  0.3125 -0.5578  0.1206
  625MOL0     H82493   1.957   7.176   6.482 -2.0814 -1.8040  3.7498
  625MOL0     H82494   1.803   7.312   6.265  1.8777  1.2879 -0.7618
  625MOL0     H82495   1.946   7.212   6.242 -0.9683 -3.7162  2.8108
  625MOL0     H82496   1.974   7.455   6.230  2.6761 -2.1518 -1.1635
  625MOL0     H82497   1.932   7.472   6.407 -2.5551 -0.3704 -1.8446
  625MOL0     H82498   2.348   7.389   6.332 -0.4430 -0.4341 -3.3137
  625MOL0     H82499   1.393   7.199   6.331  3.6579  1.9534  2.0251
  625MOL0     H82500   1.207   7.047   6.313  0.2715  1.5482  0.8995
  626MOL0     O82501   3.942   5.574   0.408  0.0809  0.1037 -0.1217
  626MOL0     C82502   3.935   5.681   0.354 -0.5305  0.0216 -0.4289
  626MOL0     O82503   3.829   5.713   0.268  0.0257  0.3535  0.3529
  626MOL0     C82504   3.729   5.628   0.221  0.2835 -0.4468  0.1092
  626MOL0     C82505   3.692   5.613   0.087  0.0574  0.5570 -0.5348
  626MOL0     C82506   3.576   5.530   0.053 -0.1311  0.2877 -0.0494
  626MOL0     C82507   3.508   5.464   0.149  0.0029  0.3932 -0.2454
  626MOL0     O82508   3.391   5.403   0.115 -0.4679 -0.0978 -0.3843
  626MOL0     C82509   3.273   5.463   0.179 -0.2887  0.0568 -0.0777
  626MOL0     C82510   3.205   5.563   0.091  0.9786  0.5432  0.0930
  626MOL0     C82511   3.133   5.496  -0.024  0.1376  0.4533  1.0552
  626MOL0     C82512   3.003   5.426   0.008  0.3815  0.8284 -0.2383
  626MOL0     C82513   2.905   5.417  -0.103 -0.2854  0.4279  0.1685
  626MOL0     C82514   2.798   5.314  -0.059 -0.8234 -0.5991  0.6645
  626MOL0     C82515   2.684   5.342  -0.154  0.4937 -0.4937 -0.4448
  626MOL0     C82516   2.574   5.244  -0.123  0.4244 -0.0062 -0.3335
  626MOL0     N82517   2.464   5.242  -0.223  0.3107 -0.1136 -0.6323
  626MOL0     C82518   2.383   5.350  -0.236  0.2383  0.0685 -0.7518
  626MOL0     C82519   2.273   5.301  -0.295  0.8298  0.5039  0.0355
  626MOL0     C82520   2.165   5.380  -0.343  0.0065 -0.1295 -0.3816
  626MOL0     C82521   2.088   5.317  -0.468 -0.1620 -0.2368  0.0625
  626MOL0     C82522   2.027   5.431  -0.539  0.4620  0.2350  0.1095
  626MOL0     C82523   1.946   5.381  -0.661  0.6318  0.6487  0.1381
  626MOL0     O82524   1.836   5.298  -0.612  0.0379  0.2570  0.5056
  626MOL0     C82525   1.712   5.341  -0.641 -0.0500 -0.0749  1.0334
  626MOL0     C82526   1.679   5.400  -0.765 -0.5363  0.0558 -0.1982
  626MOL0     C82527   1.548   5.438  -0.796 -0.1767 -0.0376 -0.0992
  626MOL0     C82528   1.442   5.423  -0.710  0.3902  0.9014 -0.3126
  626MOL0     C82529   1.307   5.470  -0.729 -0.1941 -1.0835  0.1335
  626MOL0     O82530   1.215   5.485  -0.631 -0.3164  0.4800 -0.0485
  626MOL0     C82531   1.090   5.543  -0.653 -0.8560 -1.1035 -0.3547
  626MOL0     C82532   1.045   5.638  -0.743 -0.4365  0.6486  0.1002
  626MOL0     C82533   0.903   5.675  -0.738 -0.3621  0.0139  0.1506
  626MOL0     C82534   0.818   5.621  -0.648  0.1414  0.1422  0.2300
  626MOL0     O82535   0.679   5.626  -0.646 -0.7199 -0.4201 -0.0998
  626MOL0     C82536   0.627   5.725  -0.738  0.6809 -0.3309  0.5616
  626MOL0     C82537   0.618   5.871  -0.692 -0.6000  0.3192 -0.4682
  626MOL0     C82538   0.559   5.973  -0.782 -0.2634  0.2430  0.8814
  626MOL0     C82539   0.461   6.074  -0.711 -0.1909 -0.3857 -0.4106
  626MOL0     C82540   0.398   6.179  -0.813 -0.8869 -0.4074 -0.0199
  626MOL0     C82541   0.338   6.304  -0.740 -0.4160  0.6342  0.3871
  626MOL0     C82542   0.290   6.415  -0.834  0.7185  0.1500  0.0430
  626MOL0     C82543   0.158   6.381  -0.914 -0.1770  0.1704 -0.4170
  626MOL0    Cl82544   0.072   6.234  -0.842  0.1781  0.0525  0.5034
  626MOL0     C82545   0.875   5.557  -0.536 -0.6226 -0.0767 -0.1164
  626MOL0     C82546   1.010   5.514  -0.539 -0.1346 -0.2386  0.0147
  626MOL0     O82547   1.295   5.513  -0.852  0.1412 -0.5524 -0.1812
  626MOL0     C82548   1.471   5.366  -0.588 -0.4793  0.2483 -0.5157
  626MOL0     C82549   1.603   5.320  -0.556 -0.4393 -0.1434 -0.3570
  626MOL0     N82550   2.291   5.166  -0.320 -1.5345  0.1634  0.9499
  626MOL0     N82551   2.409   5.130  -0.282 -0.1600  0.2973  0.7132
  626MOL0     C82552   3.546   5.474   0.284 -0.1249  0.1835  0.1223
  626MOL0     C82553   3.656   5.551   0.321 -0.9244  1.2915 -0.5541
  626MOL0     C82554   4.029   5.792   0.388  0.3191  0.6198 -0.9316
  626MOL0     C82555   4.039   5.916   0.316  0.2215  0.0267  0.4816
  626MOL0     C82556   4.120   6.016   0.355  0.6484  0.2127 -0.7718
  626MOL0     C82557   4.195   6.011   0.472  0.5992  0.8802 -0.0715
  626MOL0     O82558   4.277   6.114   0.519  0.1726  0.5077  0.2494
  626MOL0     C82559   4.408   6.076   0.559 -0.6077 -0.1199 -0.1584
  626MOL0     C82560   4.500   6.196   0.502 -0.0809  0.3840 -1.2913
  626MOL0     C82561   4.629   6.135   0.458  0.0346 -0.0322  0.1282
  626MOL0     C82562   4.750   6.219   0.466  0.3154  0.1658 -1.1564
  626MOL0     C82563   4.790   6.265   0.606 -0.4310 -0.3918  0.7324
  626MOL0     C82564   4.827   6.294   0.716  0.2879 -0.0140  0.7466
  626MOL0     C82565   4.207   5.883   0.530  0.8767 -0.6412 -0.8441
  626MOL0     C82566   4.116   5.781   0.500  0.1023  0.3995  1.0781
  626MOL0     H82567   3.739   5.659   0.002  1.1138 -0.2356 -0.4035
  626MOL0     H82568   3.543   5.541  -0.050  0.1284 -0.4220 -0.2170
  626MOL0     H82569   3.286   5.520   0.272 -0.8968 -1.3793  0.9335
  626MOL0     H82570   3.201   5.385   0.206  0.3439 -0.5829 -0.2055
  626MOL0     H82571   3.286   5.627   0.056 -0.6684  1.8152 -1.6258
  626MOL0     H82572   3.127   5.622   0.139  0.9730  0.6290 -0.0204
  626MOL0     H82573   3.206   5.423  -0.062 -0.3667 -0.0396  1.0303
  626MOL0     H82574   3.102   5.564  -0.104 -1.0146 -1.2129  0.0323
  626MOL0     H82575   3.016   5.328   0.054 -0.0241 -0.0094 -1.8298
  626MOL0     H82576   2.945   5.486   0.079  0.8018 -1.4954  2.2050
  626MOL0     H82577   2.959   5.382  -0.191  0.7881 -0.9726  1.3220
  626MOL0     H82578   2.858   5.514  -0.119  0.0052 -0.0253 -5.1167
  626MOL0     H82579   2.761   5.328   0.043 -2.1122  1.9234 -0.0611
  626MOL0     H82580   2.842   5.215  -0.071  0.4049  0.0513 -0.4108
  626MOL0     H82581   2.641   5.440  -0.128  0.0277 -1.1115  1.2410
  626MOL0     H82582   2.710   5.334  -0.260 -1.0951 -2.4754 -0.7356
  626MOL0     H82583   2.543   5.250  -0.018 -1.0374  0.2612 -0.7568
  626MOL0     H82584   2.607   5.140  -0.118 -1.2750 -0.5456  1.0470
  626MOL0     H82585   2.415   5.445  -0.195 -0.2380 -0.4967  1.0171
  626MOL0     H82586   2.207   5.478  -0.371 -0.7069  0.9865  2.1552
  626MOL0     H82587   2.101   5.397  -0.256  1.1833 -1.7586  0.8559
  626MOL0     H82588   2.028   5.229  -0.445  0.5426 -1.2659 -1.8351
  626MOL0     H82589   2.164   5.281  -0.539  1.4172 -1.0324  2.0561
  626MOL0     H82590   1.954   5.465  -0.466 -3.6599 -2.4436 -2.3325
  626MOL0     H82591   2.097   5.512  -0.561 -1.4266  1.4895 -1.6950
  626MOL0     H82592   2.024   5.337  -0.724  1.6071  0.2008  1.6162
  626MOL0     H82593   1.904   5.464  -0.719 -0.5148 -1.0192 -1.5263
  626MOL0     H82594   1.751   5.423  -0.842 -2.4868  1.9763 -1.5815
  626MOL0     H82595   1.536   5.481  -0.895  3.0438  0.4081 -0.3949
  626MOL0     H82596   1.102   5.687  -0.821  1.1296 -0.6926  0.3601
  626MOL0     H82597   0.883   5.744  -0.819  0.5731  0.4600  0.2830
  626MOL0     H82598   0.523   5.693  -0.749  0.9146 -0.1955 -3.6352
  626MOL0     H82599   0.665   5.710  -0.839 -1.4847 -1.6579 -0.1139
  626MOL0     H82600   0.718   5.910  -0.671 -0.6428 -0.6137  1.7671
  626MOL0     H82601   0.572   5.866  -0.593 -0.3442  0.6402 -0.3303
  626MOL0     H82602   0.500   5.919  -0.857 -0.3091  1.8370 -0.2865
  626MOL0     H82603   0.641   6.016  -0.840  2.4895 -3.7029  1.4611
  626MOL0     H82604   0.388   6.013  -0.657  0.2521 -0.4391  0.1344
  626MOL0     H82605   0.518   6.138  -0.643 -2.4920  0.9899  0.3189
  626MOL0     H82606   0.319   6.140  -0.879  0.0269  0.4926 -1.6994
  626MOL0     H82607   0.478   6.219  -0.876 -1.9386 -0.8403 -1.6926
  626MOL0     H82608   0.422   6.335  -0.677  2.9866 -1.5155 -2.6813
  626MOL0     H82609   0.261   6.267  -0.671  0.5468 -4.6991 -0.8961
  626MOL0     H82610   0.262   6.495  -0.766 -0.0795 -2.0511  2.4858
  626MOL0     H82611   0.354   6.447  -0.917 -0.9510  0.8732 -1.0157
  626MOL0     H82612   0.202   6.351  -1.010  1.0258 -1.4296  0.5787
  626MOL0     H82613   0.093   6.468  -0.928 -0.7841 -0.4438 -1.6281
  626MOL0     H82614   0.820   5.531  -0.447 -0.9869 -1.7068 -0.7825
  626MOL0     H82615   1.052   5.461  -0.454  1.1029 -1.2003 -1.1634
  626MOL0     H82616   1.396   5.344  -0.513  0.5099 -0.5886  0.2488
  626MOL0     H82617   1.611   5.273  -0.458  2.3873 -0.3101 -0.5962
  626MOL0     H82618   3.488   5.441   0.370 -0.3329  0.8715  0.2476
  626MOL0     H82619   3.673   5.538   0.428  1.3927 -1.5278 -1.1419
  626MOL0     H82620   3.982   5.928   0.224  2.4505 -1.1403 -1.1412
  626MOL0     H82621   4.091   6.112   0.313 -0.7546  0.5049  0.7411
  626MOL0     H82622   4.438   5.978   0.521 -1.0899  0.7934 -3.1549
  626MOL0     H82623   4.408   6.080   0.668  0.7121  2.1272 -0.1865
  626MOL0     H82624   4.448   6.232   0.413 -0.9243 -0.6891 -1.2627
  626MOL0     H82625   4.519   6.268   0.582 -1.8023 -0.5576  0.0471
  626MOL0     H82626   4.610   6.083   0.363 -0.3257  1.3354 -0.5776
  626MOL0     H82627   4.652   6.054   0.527  1.1857 -0.9755 -1.3142
  626MOL0     H82628   4.845   6.172   0.440  0.8414  0.6449 -0.1744
  626MOL0     H82629   4.723   6.299   0.396 -1.4944 -0.3849 -1.1405
  626MOL0     H82630   4.851   6.345   0.806 -2.2448  0.8317  1.0209
  626MOL0     H82631   4.269   5.876   0.619 -1.6863  2.1095  1.4075
  626MOL0     H82632   4.119   5.685   0.551  0.8783 -0.3240 -0.2854
  627MOL0     O82633  10.088  10.276   4.006  0.7564  0.0569 -0.1564
  627MOL0     C82634  10.068  10.269   3.883  0.2196  0.8458  0.0217
  627MOL0     O82635   9.953  10.230   3.831  0.4304  0.3628 -0.1500
  627MOL0     C82636   9.847  10.203   3.919  0.3079 -0.3761  0.5849
  627MOL0     C82637   9.789  10.301   4.006  0.4324  0.3102  0.5695
  627MOL0     C82638   9.664  10.289   4.064  0.0351 -0.6047  0.9880
  627MOL0     C82639   9.601  10.163   4.057 -0.7735  0.0032 -0.1739
  627MOL0     O82640   9.496  10.149   4.141 -0.3996  0.8370 -0.5883
  627MOL0     C82641   9.481  10.018   4.191  0.0689  0.2492 -0.4989
  627MOL0     C82642   9.374  10.009   4.303  0.3764 -0.5269  0.2507
  627MOL0     C82643   9.235   9.979   4.242  0.8806  0.4880 -0.6368
  627MOL0     C82644   9.124   9.964   4.345 -0.0508  0.0742 -0.0798
  627MOL0     C82645   9.163   9.862   4.462  0.3553  0.0701  0.3052
  627MOL0     C82646   9.046   9.847   4.557  0.2347 -0.9982  0.0704
  627MOL0     C82647   9.070   9.730   4.663 -0.3323  0.0793 -0.5685
  627MOL0     C82648   9.016   9.753   4.803 -0.4904  0.1501  0.5631
  627MOL0     N82649   8.870   9.757   4.808  0.3556 -0.2992 -0.3250
  627MOL0     C82650   8.773   9.675   4.743 -0.3275 -0.0224  0.0958
  627MOL0     C82651   8.650   9.742   4.765 -0.0801 -0.0736 -0.2887
  627MOL0     C82652   8.506   9.693   4.734  0.2081 -0.2012 -0.8745
  627MOL0     C82653   8.432   9.625   4.853  0.2197 -0.3540 -0.1411
  627MOL0     C82654   8.506   9.502   4.918 -0.2336 -0.3841  0.2025
  627MOL0     C82655   8.467   9.366   4.862 -0.3151 -0.4839  0.7356
  627MOL0     O82656   8.505   9.365   4.722  0.3173  0.1575 -0.4685
  627MOL0     C82657   8.627   9.322   4.681  0.1425  0.5611 -0.4029
  627MOL0     C82658   8.724   9.258   4.759 -0.2069 -0.1854 -0.5408
  627MOL0     C82659   8.854   9.234   4.701 -0.5241 -0.2080  0.0804
  627MOL0     C82660   8.880   9.274   4.562 -0.0471  0.3531  0.9788
  627MOL0     C82661   9.015   9.256   4.507  0.2301 -0.1500  0.2064
  627MOL0     O82662   9.034   9.246   4.376 -0.2007 -0.5627 -0.3933
  627MOL0     C82663   9.171   9.232   4.339 -0.2428 -0.2322  0.1187
  627MOL0     C82664   9.225   9.105   4.350 -0.0661 -0.1567  0.3055
  627MOL0     C82665   9.350   9.078   4.319 -0.2418 -0.6067  0.4163
  627MOL0     C82666   9.436   9.183   4.268 -0.2142  0.2976 -0.4861
  627MOL0     O82667   9.567   9.169   4.222  0.0232  0.5404  0.3038
  627MOL0     C82668   9.656   9.082   4.301 -0.0132  1.0767  0.5105
  627MOL0     C82669   9.772   9.028   4.212  0.5434 -0.0762 -0.2702
  627MOL0     C82670   9.864   8.940   4.289  0.2958  0.0676 -0.9709
  627MOL0     C82671   9.948   9.007   4.407 -0.2696 -1.1517  0.2372
  627MOL0     C82672   9.995   8.903   4.504  0.0522  0.0309 -0.2793
  627MOL0     C82673  10.109   8.809   4.458  0.8556 -0.1573  0.3004
  627MOL0     C82674  10.250   8.873   4.462 -0.9109 -0.3784  0.7013
  627MOL0     C82675  10.355   8.793   4.374 -0.2118 -0.5873 -0.0576
  627MOL0    Cl82676  10.508   8.868   4.364 -0.3872  0.1784  0.0081
  627MOL0     C82677   9.386   9.311   4.262  0.4595 -0.9102  1.7299
  627MOL0     C82678   9.249   9.340   4.298  0.2666 -0.1144  0.2030
  627MOL0     O82679   9.096   9.230   4.597 -0.9913 -0.0481  0.0923
  627MOL0     C82680   8.782   9.339   4.496  0.7995  0.0000 -0.1354
  627MOL0     C82681   8.655   9.353   4.553  0.2002  0.3568  0.3231
  627MOL0     N82682   8.679   9.861   4.827 -0.2921  0.5340 -0.6222
  627MOL0     N82683   8.807   9.868   4.853 -0.1097  0.3335  0.4373
  627MOL0     C82684   9.661  10.057   3.985 -0.5746 -0.1818 -0.1960
  627MOL0     C82685   9.778  10.084   3.899 -0.4297 -0.6695  0.0868
  627MOL0     C82686  10.181  10.282   3.799  0.0625  0.1380  0.3515
  627MOL0     C82687  10.168  10.339   3.673  0.2559  0.1726 -0.7996
  627MOL0     C82688  10.266  10.342   3.574 -0.4058  1.5978 -0.3309
  627MOL0     C82689  10.387  10.286   3.609 -0.6430 -0.4205  0.1615
  627MOL0     O82690  10.480  10.262   3.511 -0.1792  0.1510  0.1544
  627MOL0     C82691  10.595  10.178   3.538 -0.1029 -0.0415  0.2056
  627MOL0     C82692  10.656  10.115   3.409 -0.1844  0.1472  1.1880
  627MOL0     C82693  10.746  10.217   3.323  0.4316  0.2671  0.2591
  627MOL0     C82694  10.683  10.361   3.304 -0.3627 -0.4847 -0.7212
  627MOL0     C82695  10.736  10.443   3.194 -0.5716 -0.0267 -0.4962
  627MOL0     C82696  10.793  10.501   3.109  0.4531  0.1046  0.6250
  627MOL0     C82697  10.407  10.243   3.739  0.6582  0.3306 -0.1428
  627MOL0     C82698  10.302  10.227   3.837  0.6778 -0.0249  0.0644
  627MOL0     H82699   9.824  10.404   4.011 -2.0888  1.4998 -2.3549
  627MOL0     H82700   9.617  10.373   4.115  2.1077  1.6574 -0.6092
  627MOL0     H82701   9.570   9.983   4.245  0.9222  0.8273 -1.5012
  627MOL0     H82702   9.456   9.950   4.109 -1.3720  1.3137 -0.9809
  627MOL0     H82703   9.362  10.097   4.367 -4.3314  0.1297 -1.1485
  627MOL0     H82704   9.409   9.929   4.368 -0.9791  0.9416  2.9537
  627MOL0     H82705   9.242   9.889   4.181 -0.9100 -0.4109  0.3915
  627MOL0     H82706   9.221  10.066   4.176  2.2408  1.3035  0.1105
  627MOL0     H82707   9.102  10.064   4.384  0.1909  0.2202 -0.3130
  627MOL0     H82708   9.037   9.926   4.292 -0.8125  1.2808  0.2526
  627MOL0     H82709   9.242   9.909   4.521 -0.7057 -0.5330  2.2711
  627MOL0     H82710   9.182   9.760   4.426 -2.3099 -0.2870 -0.2848
  627MOL0     H82711   8.958   9.819   4.498 -0.6856 -0.0126  0.9275
  627MOL0     H82712   9.012   9.940   4.603 -1.4102 -1.6549  0.2662
  627MOL0     H82713   9.034   9.635   4.623 -3.2385  1.0393 -0.4474
  627MOL0     H82714   9.178   9.741   4.682 -0.4404  0.7737 -0.3398
  627MOL0     H82715   9.059   9.846   4.843 -2.9722  1.1241  1.1912
  627MOL0     H82716   9.057   9.670   4.861  1.1421 -0.5341 -1.4348
  627MOL0     H82717   8.788   9.575   4.705  1.8921  0.4850 -0.5325
  627MOL0     H82718   8.509   9.625   4.648 -1.1151  2.3962 -3.1162
  627MOL0     H82719   8.446   9.778   4.700 -2.5098 -0.9962  1.5491
  627MOL0     H82720   8.333   9.593   4.819  0.4603 -2.2130  0.7612
  627MOL0     H82721   8.433   9.706   4.927  0.3570 -0.3618 -0.1341
  627MOL0     H82722   8.614   9.514   4.908 -0.4996  0.6196 -2.3934
  627MOL0     H82723   8.477   9.504   5.023 -3.5480  2.9602 -0.5505
  627MOL0     H82724   8.360   9.348   4.869 -0.1659 -1.2731  1.0524
  627MOL0     H82725   8.513   9.285   4.919  3.4330 -0.8558 -2.4063
  627MOL0     H82726   8.715   9.222   4.861  0.6894  2.4775  0.5674
  627MOL0     H82727   8.919   9.182   4.770 -0.7206  0.8397  1.0896
  627MOL0     H82728   9.167   9.019   4.381  1.3647 -1.5622 -0.8050
  627MOL0     H82729   9.374   8.973   4.326  2.0372 -0.0620  2.1760
  627MOL0     H82730   9.599   8.998   4.341 -1.8486  3.2823  2.9479
  627MOL0     H82731   9.692   9.146   4.383  3.4604  1.9118 -1.4481
  627MOL0     H82732   9.834   9.114   4.186 -0.9028  1.3919  0.9587
  627MOL0     H82733   9.734   8.965   4.131 -1.6333 -0.8502  1.2685
  627MOL0     H82734   9.930   8.899   4.212 -0.4383 -2.1469 -0.4995
  627MOL0     H82735   9.807   8.859   4.336  1.0362  2.0562  4.0427
  627MOL0     H82736  10.028   9.067   4.364 -1.6409  0.1040 -0.6993
  627MOL0     H82737   9.898   9.082   4.469 -1.9782  0.9412 -3.3037
  627MOL0     H82738   9.914   8.836   4.536 -0.3673  1.6124  2.2384
  627MOL0     H82739  10.028   8.946   4.599 -2.3907 -1.7471  1.5342
  627MOL0     H82740  10.079   8.775   4.358  0.0584 -1.4375  0.9417
  627MOL0     H82741  10.114   8.721   4.522 -0.8691  0.0280  0.7455
  627MOL0     H82742  10.246   8.969   4.410  0.7122 -0.7195 -0.1163
  627MOL0     H82743  10.298   8.884   4.560  2.1368  0.4463 -0.7523
  627MOL0     H82744  10.326   8.791   4.269 -0.2260  0.3410 -0.0864
  627MOL0     H82745  10.360   8.693   4.418  0.4714 -0.0530  1.1417
  627MOL0     H82746   9.444   9.396   4.227  0.2894 -1.1062  0.9375
  627MOL0     H82747   9.209   9.441   4.291  2.4789  0.8212  0.2518
  627MOL0     H82748   8.798   9.380   4.397 -0.1698  0.1777 -0.2319
  627MOL0     H82749   8.588   9.407   4.488  0.6380  0.1129 -0.3529
  627MOL0     H82750   9.622   9.956   3.979  1.1298 -0.9958  1.4994
  627MOL0     H82751   9.797  10.005   3.827 -1.6696 -0.4109 -0.5608
  627MOL0     H82752  10.071  10.380   3.648 -0.4391 -0.5078  0.7028
  627MOL0     H82753  10.261  10.379   3.472  0.4578  0.2371 -0.9054
  627MOL0     H82754  10.567  10.090   3.596  0.6826 -0.9755 -0.7925
  627MOL0     H82755  10.667  10.228   3.604 -2.0601  0.8737  1.7468
  627MOL0     H82756  10.716  10.032   3.448  0.8716  0.5859  0.5438
  627MOL0     H82757  10.577  10.073   3.347  0.3427 -0.3811  0.8543
  627MOL0     H82758  10.767  10.166   3.229 -0.5297  0.9028 -0.3046
  627MOL0     H82759  10.839  10.212   3.381  1.0855  1.0616 -0.6967
  627MOL0     H82760  10.577  10.356   3.282 -0.6078 -1.0186  0.4887
  627MOL0     H82761  10.684  10.420   3.397 -1.7110 -2.6950  0.7929
  627MOL0     H82762  10.849  10.541   3.028 -0.8559  2.7587  0.9348
  627MOL0     H82763  10.505  10.203   3.764  0.4128  1.0073  2.0660
  627MOL0     H82764  10.308  10.172   3.930  2.1850  1.2412  0.7522
  628MOL0     O82765  11.173   8.181   4.856  0.6450 -0.4838  0.7451
  628MOL0     C82766  11.225   8.071   4.859 -0.5010  1.0950  0.1455
  628MOL0     O82767  11.177   7.954   4.807 -0.3170  0.0237  0.2716
  628MOL0     C82768  11.045   7.956   4.774  0.2171  0.0709  0.3317
  628MOL0     C82769  11.008   7.999   4.648  1.0413 -0.1744 -0.2856
  628MOL0     C82770  10.867   8.014   4.622  0.3986 -0.1508 -0.4340
  628MOL0     C82771  10.769   7.996   4.716 -0.5295  0.1408 -0.0753
  628MOL0     O82772  10.645   8.013   4.680  0.0607  0.3955 -0.1685
  628MOL0     C82773  10.546   7.981   4.778 -1.2867  0.1558 -0.0181
  628MOL0     C82774  10.411   7.999   4.706 -0.2360  0.2174 -0.2065
  628MOL0     C82775  10.281   7.949   4.778 -0.3923  0.7390  0.5630
  628MOL0     C82776  10.148   8.022   4.738 -0.2402 -0.2343  0.2326
  628MOL0     C82777  10.030   7.955   4.799  0.4271  0.6572 -0.3640
  628MOL0     C82778   9.907   8.048   4.792 -0.4355 -0.3471 -0.6275
  628MOL0     C82779   9.789   7.976   4.849  0.1431  0.2083  0.2342
  628MOL0     C82780   9.655   8.060   4.868 -0.0436 -0.6181 -0.0914
  628MOL0     N82781   9.549   7.980   4.934  0.3937  0.0522  0.8428
  628MOL0     C82782   9.534   7.840   4.931 -1.5116  0.4059 -0.2339
  628MOL0     C82783   9.439   7.815   5.019  0.6271 -0.0954 -0.5778
  628MOL0     C82784   9.389   7.667   5.035 -0.1224  0.0018  0.7363
  628MOL0     C82785   9.437   7.604   5.165  0.1459  0.1812  0.2984
  628MOL0     C82786   9.417   7.691   5.290  0.3034 -0.1059  0.0744
  628MOL0     C82787   9.381   7.585   5.403  0.3683  0.3896 -0.2458
  628MOL0     O82788   9.250   7.532   5.369  0.3092 -0.5090 -0.2280
  628MOL0     C82789   9.148   7.609   5.407  0.0588  0.1490 -0.4734
  628MOL0     C82790   9.122   7.622   5.546  0.2737 -0.0047  0.2660
  628MOL0     C82791   9.019   7.713   5.585  1.1675 -0.0488 -0.3898
  628MOL0     C82792   8.939   7.776   5.489 -0.1906 -0.0225 -0.3563
  628MOL0     C82793   8.822   7.862   5.540 -0.6776 -0.4520  0.3226
  628MOL0     O82794   8.758   7.940   5.450  0.1541 -0.5187 -0.3695
  628MOL0     C82795   8.653   8.022   5.483  0.0569  0.2924 -0.0633
  628MOL0     C82796   8.665   8.144   5.423  0.0826  0.5603 -0.3351
  628MOL0     C82797   8.569   8.240   5.445  0.4518 -1.4179 -0.2754
  628MOL0     C82798   8.460   8.220   5.533 -0.4325 -0.3478  0.3606
  628MOL0     O82799   8.356   8.301   5.555 -0.3998 -0.3135 -0.0677
  628MOL0     C82800   8.371   8.434   5.516  0.6768 -0.4070  0.6374
  628MOL0     C82801   8.236   8.508   5.508 -0.2697  0.3062  0.5715
  628MOL0     C82802   8.130   8.444   5.424 -0.1990  0.0085  0.3933
  628MOL0     C82803   7.993   8.511   5.418  0.8858 -0.1420 -0.3171
  628MOL0     C82804   7.888   8.426   5.339 -0.6982 -0.3572  0.0561
  628MOL0     C82805   7.752   8.504   5.312 -0.2749  0.8911  0.6628
  628MOL0     C82806   7.678   8.445   5.187 -0.2196 -0.3493  0.8859
  628MOL0     C82807   7.537   8.504   5.168 -0.2176 -0.5827  0.5488
  628MOL0    Cl82808   7.448   8.439   5.017 -0.0755  0.1214 -0.5100
  628MOL0     C82809   8.453   8.092   5.591  0.1838  0.4093  0.9924
  628MOL0     C82810   8.550   7.997   5.569  0.8529  0.3115 -0.3104
  628MOL0     O82811   8.808   7.874   5.661  0.4987  1.0900  0.1212
  628MOL0     C82812   8.966   7.753   5.355  0.1358 -0.1262 -0.5253
  628MOL0     C82813   9.067   7.663   5.311  0.1802  0.1746 -0.1261
  628MOL0     N82814   9.380   7.930   5.061  0.2518  0.3300 -0.0668
  628MOL0     N82815   9.449   8.034   5.018 -0.3515  0.3511  0.5485
  628MOL0     C82816  10.812   7.955   4.846 -0.5034 -0.3509 -0.1948
  628MOL0     C82817  10.952   7.923   4.868 -1.0156 -0.3052 -0.1699
  628MOL0     C82818  11.348   8.048   4.939  0.8696  0.1710 -1.1439
  628MOL0     C82819  11.405   7.919   4.972 -0.5478  0.8686  0.7497
  628MOL0     C82820  11.525   7.904   5.041  0.3086 -0.7839 -0.2089
  628MOL0     C82821  11.586   8.012   5.104 -0.4323 -0.1847 -0.2415
  628MOL0     O82822  11.698   7.991   5.181 -0.4272 -0.5829  0.6611
  628MOL0     C82823  11.787   8.098   5.219  0.1246  0.8287  0.9084
  628MOL0     C82824  11.839   8.172   5.091 -0.6138 -0.3655 -0.0633
  628MOL0     C82825  11.974   8.116   5.044 -0.8268  0.2923  0.1000
  628MOL0     C82826  11.958   7.969   5.001 -0.1647 -0.2562  0.6050
  628MOL0     C82827  12.081   7.912   4.942  0.0055  0.5280  0.1586
  628MOL0     C82828  12.171   7.861   4.880 -0.0379  0.2472 -0.5165
  628MOL0     C82829  11.533   8.135   5.074  0.0379 -0.3407 -0.1626
  628MOL0     C82830  11.424   8.157   4.985 -0.3155 -0.1705 -0.4419
  628MOL0     H82831  11.082   8.016   4.571 -0.5651 -1.9581 -2.3883
  628MOL0     H82832  10.830   8.044   4.525  0.9225  0.4512 -0.4493
  628MOL0     H82833  10.544   8.035   4.873 -0.4336 -1.0606  0.7048
  628MOL0     H82834  10.559   7.875   4.797  0.2083 -0.0194 -1.7488
  628MOL0     H82835  10.414   7.966   4.601 -0.4536  0.2275 -0.2170
  628MOL0     H82836  10.402   8.106   4.687  0.0438  0.4283  0.8370
  628MOL0     H82837  10.292   7.966   4.886 -0.5050 -0.9019  0.8589
  628MOL0     H82838  10.261   7.842   4.763  1.3882  0.6146 -1.4614
  628MOL0     H82839  10.150   8.125   4.775 -1.7715 -0.4445  0.9782
  628MOL0     H82840  10.142   8.021   4.628  0.6058 -1.4448  0.1798
  628MOL0     H82841  10.052   7.934   4.904  1.8355  1.1831 -0.5207
  628MOL0     H82842  10.017   7.861   4.744  2.0018 -0.7771  1.5639
  628MOL0     H82843   9.886   8.081   4.690 -3.1106 -0.0075 -0.0378
  628MOL0     H82844   9.920   8.131   4.863  1.3774 -1.6966  0.6890
  628MOL0     H82845   9.763   7.892   4.784  0.0110  0.3251  0.1344
  628MOL0     H82846   9.811   7.931   4.946 -0.4680 -0.9747 -0.1607
  628MOL0     H82847   9.614   8.095   4.773 -2.9330  1.0394  1.6027
  628MOL0     H82848   9.675   8.148   4.929 -1.0644  1.2477 -2.3288
  628MOL0     H82849   9.583   7.763   4.873  0.3517  1.5558 -0.2743
  628MOL0     H82850   9.428   7.605   4.954  1.4320  3.1510 -1.1146
  628MOL0     H82851   9.280   7.661   5.030 -0.2209  2.0557 -0.5180
  628MOL0     H82852   9.545   7.585   5.159  0.2991  0.8716  0.8296
  628MOL0     H82853   9.396   7.503   5.171  1.0793 -0.4318 -2.1967
  628MOL0     H82854   9.505   7.753   5.310 -0.6653  1.7082 -1.0145
  628MOL0     H82855   9.340   7.769   5.281  2.3591  2.2467  1.5652
  628MOL0     H82856   9.383   7.637   5.499  1.2126 -0.4440  0.2100
  628MOL0     H82857   9.456   7.505   5.405  0.2522  0.1810 -2.0298
  628MOL0     H82858   9.172   7.577   5.631 -0.2304 -0.5391  0.2855
  628MOL0     H82859   8.991   7.722   5.690  1.7597 -1.2625 -0.1130
  628MOL0     H82860   8.760   8.160   5.372  0.4890  2.2076  0.8679
  628MOL0     H82861   8.596   8.329   5.388 -0.6212 -2.4996 -2.5890
  628MOL0     H82862   8.412   8.441   5.414 -0.7069  2.3949  0.1766
  628MOL0     H82863   8.429   8.504   5.577 -0.5574 -0.1831  1.5843
  628MOL0     H82864   8.260   8.608   5.471  1.1144 -1.2220 -3.1239
  628MOL0     H82865   8.191   8.509   5.608 -1.4201 -0.3114  0.0859
  628MOL0     H82866   8.113   8.339   5.449 -0.4722 -0.2163 -0.6604
  628MOL0     H82867   8.168   8.444   5.321 -1.0067  4.4430 -0.0861
  628MOL0     H82868   7.948   8.527   5.516  0.8693 -0.2507 -0.3066
  628MOL0     H82869   8.004   8.611   5.373  1.1322 -0.2050 -0.3995
  628MOL0     H82870   7.866   8.336   5.398  1.9127 -1.6133 -0.7321
  628MOL0     H82871   7.931   8.396   5.243  0.0524  0.2831  0.1875
  628MOL0     H82872   7.760   8.613   5.304 -0.0925  0.8299 -0.0784
  628MOL0     H82873   7.684   8.490   5.396  0.0877  1.5227  1.0707
  628MOL0     H82874   7.740   8.455   5.098  2.4841 -2.0418  2.4490
  628MOL0     H82875   7.669   8.339   5.214 -1.6748 -0.1885  1.1236
  628MOL0     H82876   7.549   8.613   5.162  3.2219 -0.9068 -1.6212
  628MOL0     H82877   7.485   8.482   5.262 -0.7960  2.2108  0.9637
  628MOL0     H82878   8.371   8.072   5.659 -1.0952 -0.3298 -0.6948
  628MOL0     H82879   8.536   7.905   5.626  1.0675  1.2694  1.3664
  628MOL0     H82880   8.908   7.805   5.278  1.5739  1.4909 -0.5740
  628MOL0     H82881   9.084   7.644   5.206  1.0971 -1.9431  0.3556
  628MOL0     H82882  10.743   7.938   4.928  0.2462 -0.5032  0.4154
  628MOL0     H82883  10.984   7.873   4.959 -0.9164 -1.1490 -0.6491
  628MOL0     H82884  11.355   7.829   4.939 -0.7892 -0.1842  3.7468
  628MOL0     H82885  11.557   7.804   5.070  1.3716 -0.4149 -0.0660
  628MOL0     H82886  11.871   8.048   5.268  0.2538  2.4653  2.4541
  628MOL0     H82887  11.739   8.164   5.292  1.7562  1.5767  1.3575
  628MOL0     H82888  11.768   8.171   5.007 -0.7632 -3.3177  0.0161
  628MOL0     H82889  11.857   8.277   5.117 -1.0596 -0.1252 -0.6940
  628MOL0     H82890  12.044   8.104   5.128 -1.8378  0.8761  1.0335
  628MOL0     H82891  12.013   8.168   4.956  0.0702 -1.7645 -0.7854
  628MOL0     H82892  11.925   7.906   5.085  2.1917 -3.2256 -0.4971
  628MOL0     H82893  11.882   7.967   4.922  0.8921  0.2698 -0.4435
  628MOL0     H82894  12.257   7.816   4.835  0.7428 -2.7742  3.4610
  628MOL0     H82895  11.588   8.222   5.111  0.5999 -2.5336  5.0009
  628MOL0     H82896  11.388   8.255   4.956  1.3770  0.1647 -1.5870
  629MOL0     O82897   9.168   2.594  10.349  0.4078  0.7139 -0.1891
  629MOL0     C82898   9.126   2.702  10.302  0.2431 -0.1208  0.1542
  629MOL0     O82899   8.994   2.734  10.277  0.1013 -0.2190  0.6332
  629MOL0     C82900   8.897   2.635  10.292 -0.6108  0.2225  0.9578
  629MOL0     C82901   8.829   2.582  10.173 -0.3725 -0.0124 -0.3565
  629MOL0     C82902   8.723   2.484  10.186 -0.3951 -0.1139  0.1884
  629MOL0     C82903   8.689   2.438  10.316  0.1051  0.6015 -0.4837
  629MOL0     O82904   8.611   2.332  10.350 -0.1290  0.1070  0.9003
  629MOL0     C82905   8.503   2.294  10.260 -0.2865 -0.3884  0.4207
  629MOL0     C82906   8.371   2.262  10.333  0.2414 -0.3988 -0.4576
  629MOL0     C82907   8.387   2.202  10.481 -0.3096 -0.3493 -0.3731
  629MOL0     C82908   8.256   2.130  10.512  0.2436 -0.1614  1.1909
  629MOL0     C82909   8.269   2.073  10.647  0.9469 -0.1335  0.7362
  629MOL0     C82910   8.133   2.013  10.691  0.4275  0.4667  0.9742
  629MOL0     C82911   8.136   1.939  10.826  0.7259  0.5361 -0.2003
  629MOL0     C82912   8.141   1.788  10.809  0.5463  0.8454  0.9876
  629MOL0     N82913   8.010   1.729  10.774 -0.3183  0.4021  0.3179
  629MOL0     C82914   7.986   1.643  10.675 -0.4422  0.3328  1.3219
  629MOL0     C82915   7.852   1.632  10.664  0.2658  0.5155 -0.2731
  629MOL0     C82916   7.770   1.558  10.559 -0.7461 -0.0175 -0.0670
  629MOL0     C82917   7.745   1.640  10.427  0.3994 -0.5624  0.4339
  629MOL0     C82918   7.619   1.592  10.354 -0.7584 -0.8575 -0.3003
  629MOL0     C82919   7.616   1.444  10.333 -0.5764  0.8734 -0.3601
  629MOL0     O82920   7.518   1.425  10.219  0.2700  0.0056 -0.0187
  629MOL0     C82921   7.383   1.463  10.227 -0.1543  0.3430  0.2331
  629MOL0     C82922   7.332   1.501  10.098 -0.2006 -0.1852 -0.1877
  629MOL0     C82923   7.196   1.547  10.095 -0.2499  0.2897 -0.6596
  629MOL0     C82924   7.118   1.541  10.215  0.5354 -0.3848 -0.6534
  629MOL0     C82925   6.978   1.590  10.213 -0.0335 -0.4495  0.2260
  629MOL0     O82926   6.929   1.618  10.336 -0.2604  0.4435  0.0950
  629MOL0     C82927   6.809   1.687  10.347 -0.0714  0.4266  0.3771
  629MOL0     C82928   6.806   1.800  10.427  0.8793  0.0503  0.5086
  629MOL0     C82929   6.686   1.849  10.464  0.7392 -0.7958 -0.3304
  629MOL0     C82930   6.566   1.797  10.423  0.6697 -0.0067  0.3647
  629MOL0     O82931   6.436   1.829  10.462  0.2481  0.1485 -0.6273
  629MOL0     C82932   6.419   1.950  10.543  0.1830 -0.4958 -0.1839
  629MOL0     C82933   6.274   1.957  10.570  0.5411 -0.2176  0.0239
  629MOL0     C82934   6.227   1.825  10.637 -0.4198 -0.1259  0.2490
  629MOL0     C82935   6.080   1.832  10.684 -0.7763 -0.1004  0.3325
  629MOL0     C82936   6.050   1.685  10.727  0.4972  0.2835  0.3420
  629MOL0     C82937   5.903   1.647  10.764 -0.1262 -0.4539 -0.8374
  629MOL0     C82938   5.878   1.690  10.917  0.2614  0.0204 -0.6985
  629MOL0     C82939   5.739   1.650  10.962 -0.5424  0.6972 -0.6019
  629MOL0    Cl82940   5.721   1.724  11.122  0.2657  0.3484  0.7357
  629MOL0     C82941   6.564   1.681  10.346 -1.1295  0.8438  1.1991
  629MOL0     C82942   6.690   1.621  10.309 -0.2771  0.6096 -1.1809
  629MOL0     O82943   6.932   1.621  10.101  0.2974 -0.7068  0.3506
  629MOL0     C82944   7.168   1.486  10.328 -0.2010  0.1277 -0.0177
  629MOL0     C82945   7.299   1.447  10.341 -0.1694  0.1573  0.5299
  629MOL0     N82946   7.796   1.697  10.769 -0.2556  0.1451 -0.5230
  629MOL0     N82947   7.893   1.753  10.836  0.1896  1.1284 -0.5686
  629MOL0     C82948   8.750   2.489  10.430  0.3849 -0.5732 -0.1985
  629MOL0     C82949   8.849   2.590  10.413 -0.0913  0.3008  0.7706
  629MOL0     C82950   9.218   2.802  10.272  0.0487 -0.7915 -0.1141
  629MOL0     C82951   9.180   2.916  10.201  0.6129 -0.3468 -0.2335
  629MOL0     C82952   9.285   3.008  10.151  0.6306 -0.5324  0.0717
  629MOL0     C82953   9.416   2.986  10.196 -0.5850  0.1499 -0.2540
  629MOL0     O82954   9.526   3.056  10.154 -0.5224  0.6350 -0.3796
  629MOL0     C82955   9.515   3.195  10.112  0.3709 -0.0406 -0.1283
  629MOL0     C82956   9.522   3.201   9.954  0.3316  0.3934 -0.2150
  629MOL0     C82957   9.542   3.342   9.916 -0.5442 -0.3299  0.2692
  629MOL0     C82958   9.596   3.361   9.770  0.5047  1.0561 -0.3150
  629MOL0     C82959   9.608   3.508   9.747 -0.2439 -0.2172  0.1554
  629MOL0     C82960   9.615   3.623   9.708 -0.9862  0.5333  0.6500
  629MOL0     C82961   9.449   2.880  10.283 -1.2492 -0.7218  0.0748
  629MOL0     C82962   9.349   2.794  10.328 -0.2017  0.2834  0.6442
  629MOL0     H82963   8.867   2.631  10.084 -1.2364 -0.4234 -0.9662
  629MOL0     H82964   8.666   2.444  10.102 -4.2441  1.9380  1.5695
  629MOL0     H82965   8.526   2.202  10.206 -2.2801 -1.9510  2.0901
  629MOL0     H82966   8.483   2.374  10.188  0.8101 -1.1630 -0.7697
  629MOL0     H82967   8.302   2.196  10.280  0.3301 -1.3064  0.5300
  629MOL0     H82968   8.319   2.359  10.333 -1.6722 -1.3694 -0.4857
  629MOL0     H82969   8.421   2.281  10.548  1.8521 -0.1373 -1.6265
  629MOL0     H82970   8.465   2.126  10.487 -0.6192 -0.9245 -2.5194
  629MOL0     H82971   8.177   2.204  10.504  0.4559 -0.0656 -0.4623
  629MOL0     H82972   8.227   2.050  10.442 -1.0010  0.3885  1.0443
  629MOL0     H82973   8.295   2.157  10.711 -2.0345  0.1052  1.7866
  629MOL0     H82974   8.341   1.991  10.650 -0.2633 -1.3010 -0.5674
  629MOL0     H82975   8.090   1.944  10.619  1.6410 -0.0536  0.7309
  629MOL0     H82976   8.068   2.100  10.709 -1.5065  0.2306 -3.5621
  629MOL0     H82977   8.216   1.978  10.889 -0.3369  2.9936 -0.2510
  629MOL0     H82978   8.052   1.962  10.893  1.7183  0.5211  1.0898
  629MOL0     H82979   8.169   1.735  10.900  0.5934 -0.8351  0.0447
  629MOL0     H82980   8.217   1.759  10.735  0.0074 -1.9665  1.4316
  629MOL0     H82981   8.061   1.602  10.608  1.0026  0.8171  2.5848
  629MOL0     H82982   7.677   1.529  10.608  0.6786 -1.8089  1.7472
  629MOL0     H82983   7.824   1.465  10.537  0.0566  0.9751 -2.7387
  629MOL0     H82984   7.832   1.628  10.361 -0.1558  0.0086 -0.4275
  629MOL0     H82985   7.723   1.746  10.440  0.9842 -0.5153  1.0745
  629MOL0     H82986   7.529   1.618  10.410  1.8340 -0.3366  4.1151
  629MOL0     H82987   7.618   1.645  10.259 -1.7457 -0.9564 -0.3583
  629MOL0     H82988   7.585   1.401  10.428  0.1785 -1.5190 -1.1330
  629MOL0     H82989   7.710   1.392  10.314 -1.0861  0.4030 -1.6978
  629MOL0     H82990   7.393   1.494  10.009  0.7384 -1.4338  0.5335
  629MOL0     H82991   7.162   1.594  10.004  1.2700  1.1728 -0.8115
  629MOL0     H82992   6.906   1.827  10.461  1.7158 -2.5528  0.3456
  629MOL0     H82993   6.685   1.931  10.535 -0.1267 -2.5853  1.8706
  629MOL0     H82994   6.442   2.042  10.488 -1.2580 -0.3329 -0.5510
  629MOL0     H82995   6.469   1.939  10.640  0.2426 -2.3183 -0.3959
  629MOL0     H82996   6.224   1.990  10.479  2.7568  4.7544  0.2254
  629MOL0     H82997   6.263   2.039  10.642  4.8387  1.1773 -0.5997
  629MOL0     H82998   6.285   1.806  10.728 -1.1090  0.8777  0.9238
  629MOL0     H82999   6.243   1.746  10.564 -0.9852  0.3127 -0.3548
  629MOL0     H83000   6.084   1.906  10.765  1.7214  2.9428 -2.2837
  629MOL0     H83001   6.013   1.858  10.602  1.9488 -1.9496 -2.7039
  629MOL0     H83002   6.113   1.660  10.813 -1.9294  0.8723  2.4196
  629MOL0     H83003   6.073   1.615  10.647  0.0924  0.2495  0.2546
  629MOL0     H83004   5.881   1.543  10.739 -1.3073 -0.6570  0.8811
  629MOL0     H83005   5.831   1.712  10.713  0.1057  0.7216  0.2747
  629MOL0     H83006   5.953   1.655  10.988  2.5243  5.1821 -0.0661
  629MOL0     H83007   5.881   1.799  10.929 -2.4957  0.2990 -1.7569
  629MOL0     H83008   5.726   1.542  10.975 -0.5925  0.4268 -2.6052
  629MOL0     H83009   5.683   1.706  10.886  1.7987  1.2552 -2.0196
  629MOL0     H83010   6.466   1.637  10.332  1.3232 -6.1527  2.2243
  629MOL0     H83011   6.694   1.526  10.257  1.9935  1.5225 -2.8601
  629MOL0     H83012   7.102   1.477  10.413 -5.5083  0.5493 -3.6536
  629MOL0     H83013   7.346   1.420  10.435 -3.9942 -1.5970  2.1533
  629MOL0     H83014   8.736   2.454  10.532  2.4680 -2.5327 -0.5091
  629MOL0     H83015   8.892   2.633  10.503 -2.5808 -0.7464  2.5907
  629MOL0     H83016   9.080   2.930  10.162  0.5867  2.5513  0.5791
  629MOL0     H83017   9.256   3.093  10.090 -1.5930  1.8630  4.0482
  629MOL0     H83018   9.603   3.249  10.149  0.4313  0.3462 -0.8200
  629MOL0     H83019   9.424   3.242  10.150 -0.7261 -2.1480  0.0001
  629MOL0     H83020   9.613   3.144   9.935  0.7184 -0.6975  3.8643
  629MOL0     H83021   9.439   3.149   9.906 -0.3877  0.3437  1.0241
  629MOL0     H83022   9.625   3.371   9.980 -1.2680 -2.6703  2.4182
  629MOL0     H83023   9.449   3.393   9.944  1.0844  1.7593  2.2408
  629MOL0     H83024   9.691   3.306   9.770 -0.8862 -1.5814  1.9031
  629MOL0     H83025   9.526   3.321   9.697  2.5743 -0.4655 -1.5923
  629MOL0     H83026   9.615   3.726   9.679 -0.9625  0.5869  0.8417
  629MOL0     H83027   9.554   2.876  10.308 -1.4843 -1.3380  0.9877
  629MOL0     H83028   9.373   2.706  10.386 -1.5512 -3.1036 -3.4743
  630MOL0     O83029   7.226  10.026   1.612  0.0265  0.0629  0.4423
  630MOL0     C83030   7.295  10.120   1.569 -1.1019  1.3295 -0.5537
  630MOL0     O83031   7.249  10.240   1.546 -0.1133 -0.1766  0.8241
  630MOL0     C83032   7.113  10.269   1.561  0.5235 -0.2513  0.0513
  630MOL0     C83033   7.079  10.363   1.471  0.0860  0.5676  0.6316
  630MOL0     C83034   6.953  10.423   1.474  0.6176  0.3699  0.8044
  630MOL0     C83035   6.857  10.390   1.572  0.5649  0.0060 -0.0949
  630MOL0     O83036   6.740  10.463   1.578 -0.0278  0.6080 -0.1324
  630MOL0     C83037   6.619  10.396   1.608 -0.6249  1.0526 -0.5608
  630MOL0     C83038   6.534  10.366   1.486  0.2211  0.9869  0.0348
  630MOL0     C83039   6.403  10.292   1.531 -0.2944  1.1308 -0.3935
  630MOL0     C83040   6.298  10.292   1.415 -0.0554 -0.1956  0.2262
  630MOL0     C83041   6.282  10.162   1.344  0.7280 -0.0740  0.8585
  630MOL0     C83042   6.400  10.092   1.283 -0.2649 -1.2186 -0.0331
  630MOL0     C83043   6.389   9.960   1.210  0.4575  0.8080  0.5428
  630MOL0     C83044   6.304   9.968   1.084  0.5091  0.0093  0.2272
  630MOL0     N83045   6.167   9.915   1.107 -0.8054 -0.8441  0.5174
  630MOL0     C83046   6.114   9.802   1.167  0.5223  0.3198 -0.1314
  630MOL0     C83047   5.982   9.799   1.136  0.6493  1.0796  0.5772
  630MOL0     C83048   5.888   9.687   1.166 -0.5497  0.1164  0.2519
  630MOL0     C83049   5.740   9.721   1.143 -0.1843  0.2779 -0.7908
  630MOL0     C83050   5.671   9.594   1.200 -0.5238  0.5576  0.1740
  630MOL0     C83051   5.545   9.584   1.120  0.0280 -0.2833 -0.1085
  630MOL0     O83052   5.489   9.452   1.150  0.2957  0.1249 -0.2742
  630MOL0     C83053   5.386   9.395   1.077  0.0037 -0.7895  0.1843
  630MOL0     C83054   5.313   9.478   0.985 -0.6385  0.6274 -0.2303
  630MOL0     C83055   5.216   9.415   0.903  0.2316  0.0139  0.5647
  630MOL0     C83056   5.182   9.274   0.906 -0.3851 -0.3115 -0.3438
  630MOL0     C83057   5.071   9.217   0.835  0.1920  0.1906  0.4223
  630MOL0     O83058   4.998   9.122   0.896 -1.2180 -0.2225 -0.0946
  630MOL0     C83059   4.879   9.089   0.831  0.1793 -0.9741 -0.3623
  630MOL0     C83060   4.757   9.157   0.873  0.3194  0.6718  0.3093
  630MOL0     C83061   4.633   9.122   0.822  0.1626  0.6860 -0.3184
  630MOL0     C83062   4.628   9.035   0.712 -0.4010 -0.5365  0.5494
  630MOL0     O83063   4.516   9.000   0.636 -0.7718 -0.2518 -0.5741
  630MOL0     C83064   4.394   8.993   0.717  0.0652  0.3888  0.0117
  630MOL0     C83065   4.284   8.915   0.656 -0.2629 -0.5092  0.7210
  630MOL0     C83066   4.168   8.888   0.754  0.4087  0.2277  0.7896
  630MOL0     C83067   4.043   8.837   0.682 -0.3826 -0.2392 -0.7484
  630MOL0     C83068   3.923   8.807   0.781  1.2993 -0.3416  0.5498
  630MOL0     C83069   3.804   8.764   0.691 -0.8254  0.3737  0.1527
  630MOL0     C83070   3.686   8.705   0.779  0.7620 -0.2223  0.2280
  630MOL0     C83071   3.551   8.693   0.700 -0.1616 -0.3809  0.4660
  630MOL0    Cl83072   3.566   8.586   0.552 -0.1824  0.3167 -0.0144
  630MOL0     C83073   4.753   8.975   0.667 -0.5070  0.1457  0.1431
  630MOL0     C83074   4.874   8.996   0.729  0.6772  0.1457  0.0486
  630MOL0     O83075   5.040   9.266   0.726 -0.7709  0.1023 -0.6416
  630MOL0     C83076   5.264   9.199   0.981  0.4514 -0.1491 -0.6119
  630MOL0     C83077   5.363   9.259   1.073  0.7474  0.3113 -0.1333
  630MOL0     N83078   5.959   9.908   1.061 -0.1679 -0.2754  0.7652
  630MOL0     N83079   6.062   9.981   1.042 -0.3553  0.0544 -0.0498
  630MOL0     C83080   6.901  10.298   1.671  0.1860  0.0143  0.9300
  630MOL0     C83081   7.025  10.230   1.671  0.6805 -0.3617  0.2438
  630MOL0     C83082   7.435  10.099   1.544 -0.8733  0.1288 -0.2812
  630MOL0     C83083   7.525  10.201   1.543 -0.1323  0.0816 -1.0247
  630MOL0     C83084   7.666  10.173   1.546  0.2375 -0.4649  0.0428
  630MOL0     C83085   7.720  10.046   1.532  0.4919 -0.0720  0.7731
  630MOL0     O83086   7.853  10.034   1.551  0.2341  0.0765 -0.2791
  630MOL0     C83087   7.906   9.901   1.563 -0.0463 -0.2251  0.0605
  630MOL0     C83088   8.062   9.897   1.574 -0.3487 -0.2857 -0.5997
  630MOL0     C83089   8.135   9.938   1.440 -0.1484 -0.8214  0.1851
  630MOL0     C83090   8.288   9.940   1.445 -0.2215  0.4359 -0.0578
  630MOL0     C83091   8.348   9.815   1.495 -0.1323  0.3320 -0.2131
  630MOL0     C83092   8.376   9.707   1.540  0.5473  0.0448  0.1538
  630MOL0     C83093   7.624   9.946   1.530 -0.6557  0.3295  0.1435
  630MOL0     C83094   7.489   9.968   1.536 -0.0919 -0.3195  0.7824
  630MOL0     H83095   7.154  10.392   1.399  1.2754 -2.9656  0.2340
  630MOL0     H83096   6.925  10.506   1.409 -2.1367 -0.8934  0.2212
  630MOL0     H83097   6.560  10.455   1.679  0.4394  0.1759  1.1353
  630MOL0     H83098   6.633  10.303   1.664 -2.8992  0.8658 -0.2024
  630MOL0     H83099   6.593  10.312   1.411 -2.3437  0.3932 -1.6620
  630MOL0     H83100   6.504  10.463   1.446  0.3913  0.7379 -0.7100
  630MOL0     H83101   6.359  10.357   1.608 -0.1350 -0.3426  0.9903
  630MOL0     H83102   6.417  10.190   1.569 -2.9939 -0.3051 -2.8686
  630MOL0     H83103   6.200  10.324   1.450 -0.6259 -0.4704 -1.0441
  630MOL0     H83104   6.323  10.371   1.343 -1.2208 -0.7206 -0.7796
  630MOL0     H83105   6.204  10.171   1.268  0.4343  0.7883  1.2551
  630MOL0     H83106   6.249  10.090   1.420  0.0307  0.1601  0.7862
  630MOL0     H83107   6.463  10.082   1.372 -1.6855  2.1333  1.4964
  630MOL0     H83108   6.446  10.172   1.224  0.1491 -2.2202 -1.1161
  630MOL0     H83109   6.494   9.933   1.193  0.2141 -0.9204  1.5080
  630MOL0     H83110   6.352   9.880   1.275 -0.3033 -0.1859 -1.0382
  630MOL0     H83111   6.339   9.919   0.993 -1.4707 -0.0998 -0.5225
  630MOL0     H83112   6.300  10.075   1.061 -1.8351 -0.2454 -0.8421
  630MOL0     H83113   6.170   9.716   1.203  1.5692  0.1120 -2.1165
  630MOL0     H83114   5.915   9.662   1.269  0.2025  0.2748  0.0996
  630MOL0     H83115   5.917   9.603   1.102 -2.4223 -2.3942  2.4773
  630MOL0     H83116   5.717   9.741   1.038  0.0054  3.0544 -0.3779
  630MOL0     H83117   5.713   9.810   1.201 -1.1254 -0.7376  0.3762
  630MOL0     H83118   5.718   9.496   1.190 -1.6025 -0.3906  3.1480
  630MOL0     H83119   5.639   9.607   1.304  2.1125  2.4061  0.8651
  630MOL0     H83120   5.576   9.586   1.015  2.0811  0.3517  0.4637
  630MOL0     H83121   5.476   9.668   1.135  1.8367  1.3279 -0.4103
  630MOL0     H83122   5.336   9.584   0.979 -0.0171  0.4224 -1.8261
  630MOL0     H83123   5.159   9.481   0.838  1.4449 -0.1391 -0.7040
  630MOL0     H83124   4.748   9.237   0.945 -1.2498  2.1371 -1.4258
  630MOL0     H83125   4.540   9.169   0.852 -0.1675  1.1774 -2.0196
  630MOL0     H83126   4.354   9.091   0.744  1.3051  1.7735 -2.8704
  630MOL0     H83127   4.403   8.952   0.818 -1.1716  0.8352  0.3248
  630MOL0     H83128   4.321   8.829   0.600 -1.8780 -1.1847  0.6295
  630MOL0     H83129   4.241   8.981   0.579 -0.5657 -0.6331  0.7812
  630MOL0     H83130   4.142   8.978   0.809  0.6159  0.4098  0.5890
  630MOL0     H83131   4.196   8.815   0.831  1.9431  0.3371  0.3700
  630MOL0     H83132   4.003   8.915   0.617 -1.1769 -1.4154 -1.7171
  630MOL0     H83133   4.067   8.751   0.619 -2.5313 -1.4186 -0.0666
  630MOL0     H83134   3.888   8.897   0.832 -2.1031 -0.3780 -1.4190
  630MOL0     H83135   3.942   8.732   0.859 -1.4358 -0.2588  1.3942
  630MOL0     H83136   3.836   8.689   0.618 -0.5926  1.2566 -0.6777
  630MOL0     H83137   3.767   8.843   0.624 -0.1731  0.5606 -0.0044
  630MOL0     H83138   3.707   8.603   0.811  0.6247 -0.2360  0.2752
  630MOL0     H83139   3.663   8.765   0.867 -2.4609  2.5536 -2.2202
  630MOL0     H83140   3.535   8.794   0.660 -0.0234 -0.0496  1.2304
  630MOL0     H83141   3.469   8.671   0.769 -0.4452  1.4382  0.7695
  630MOL0     H83142   4.745   8.925   0.571  2.4264  1.9173 -1.1570
  630MOL0     H83143   4.965   8.955   0.687  0.5182 -0.6562  0.4649
  630MOL0     H83144   5.266   9.090   0.979 -0.4364 -0.3057  2.3396
  630MOL0     H83145   5.424   9.189   1.130 -0.6797 -2.1766 -1.5013
  630MOL0     H83146   6.840  10.282   1.759 -1.7059 -2.1505 -0.6413
  630MOL0     H83147   7.053  10.163   1.751 -2.6714 -1.3612  0.7137
  630MOL0     H83148   7.504  10.307   1.558  2.8924  0.4730  1.5910
  630MOL0     H83149   7.737  10.254   1.555 -0.3318 -0.0175  0.6108
  630MOL0     H83150   7.893   9.846   1.469 -0.2739  1.3740 -0.8745
  630MOL0     H83151   7.856   9.853   1.648 -0.8527 -0.2891 -0.4447
  630MOL0     H83152   8.093   9.964   1.654 -1.1227  0.2941 -0.7691
  630MOL0     H83153   8.078   9.792   1.598 -0.6721 -0.5787 -1.5918
  630MOL0     H83154   8.122  10.047   1.431  1.5551 -0.4048  2.0846
  630MOL0     H83155   8.103   9.881   1.352  0.4858 -0.7019 -0.1326
  630MOL0     H83156   8.329   9.974   1.350  0.8164 -0.0088  0.2193
  630MOL0     H83157   8.318  10.021   1.512  0.3314 -2.4983  3.5819
  630MOL0     H83158   8.413   9.613   1.574 -1.7770 -0.6900  0.8164
  630MOL0     H83159   7.658   9.843   1.533 -0.0621  0.5030 -0.3297
  630MOL0     H83160   7.409   9.895   1.531 -1.6306  1.3633 -1.2320
  631MOL0     O83161   0.734   0.497   1.070  0.0045  0.7431 -0.2937
  631MOL0     C83162   0.841   0.547   1.031  0.1309  0.4354 -0.0374
  631MOL0     O83163   0.854   0.611   0.916  0.3549 -0.9837  0.3250
  631MOL0     C83164   0.772   0.608   0.807 -0.1186  0.2963 -0.6258
  631MOL0     C83165   0.803   0.703   0.711  0.8784 -0.7719  0.5388
  631MOL0     C83166   0.725   0.710   0.585  0.9342 -0.4549  0.3267
  631MOL0     C83167   0.628   0.608   0.560  0.3257 -0.8102  0.4673
  631MOL0     O83168   0.550   0.591   0.444  0.0112 -0.1538 -0.3694
  631MOL0     C83169   0.469   0.704   0.415  0.2663  0.1958 -0.3474
  631MOL0     C83170   0.357   0.669   0.326  0.1434 -0.2261 -0.8326
  631MOL0     C83171   0.272   0.801   0.287  0.2456  0.0445  0.0385
  631MOL0     C83172   0.136   0.758   0.216 -0.9663  0.3555  1.1507
  631MOL0     C83173   0.088   0.857   0.115 -0.2676 -0.2449  0.4432
  631MOL0     C83174  -0.034   0.810   0.040  0.1785 -0.3232  0.9155
  631MOL0     C83175  -0.085   0.913  -0.062  0.2901  0.5013  0.1633
  631MOL0     C83176  -0.210   0.848  -0.136  0.0985 -0.2788 -0.9266
  631MOL0     N83177  -0.322   0.942  -0.155 -0.2203  0.1055 -0.3216
  631MOL0     C83178  -0.400   0.980  -0.061 -0.2161  0.1209 -0.3152
  631MOL0     C83179  -0.468   1.079  -0.104  0.0264 -0.2664 -0.1702
  631MOL0     C83180  -0.578   1.151  -0.021  0.6684 -0.1057  0.1416
  631MOL0     C83181  -0.709   1.065  -0.004 -0.1805  0.1753 -0.0316
  631MOL0     C83182  -0.806   1.144   0.086  0.6748  0.7908 -0.7013
  631MOL0     C83183  -0.904   1.248   0.024  0.2524  0.9055  0.1000
  631MOL0     O83184  -1.031   1.186   0.006  0.1634  0.6347 -0.2576
  631MOL0     C83185  -1.120   1.239  -0.079 -0.3257 -0.4246 -0.3839
  631MOL0     C83186  -1.088   1.329  -0.181 -0.2500  0.2343  0.0842
  631MOL0     C83187  -1.193   1.380  -0.263 -0.4269  0.3846 -0.0040
  631MOL0     C83188  -1.329   1.345  -0.236  0.0195 -0.7589  0.1802
  631MOL0     C83189  -1.436   1.408  -0.318 -0.4719 -0.7948 -0.4192
  631MOL0     O83190  -1.560   1.338  -0.300 -0.1377  0.0980  0.4819
  631MOL0     C83191  -1.668   1.369  -0.381 -0.7217  0.0948 -0.1554
  631MOL0     C83192  -1.790   1.377  -0.317  0.3569 -0.0350 -0.2639
  631MOL0     C83193  -1.907   1.393  -0.377  0.7441  0.9668 -0.0321
  631MOL0     C83194  -1.911   1.410  -0.521  0.6604 -0.3104 -0.0909
  631MOL0     O83195  -2.030   1.457  -0.585  0.7584  0.2117 -0.3141
  631MOL0     C83196  -2.011   1.556  -0.693 -0.0400 -0.3510  0.7002
  631MOL0     C83197  -2.152   1.609  -0.733  0.1738  0.3544 -0.1258
  631MOL0     C83198  -2.229   1.515  -0.837  0.9771 -0.4062  0.3488
  631MOL0     C83199  -2.375   1.566  -0.854  0.2243  0.1655 -0.3590
  631MOL0     C83200  -2.450   1.468  -0.943 -0.1801  0.5272  0.5293
  631MOL0     C83201  -2.573   1.539  -1.001  0.6995 -0.4062 -0.7824
  631MOL0     C83202  -2.619   1.486  -1.133  0.0029  1.1235 -0.4071
  631MOL0     C83203  -2.684   1.353  -1.116  0.0651  0.8612  0.4733
  631MOL0    Cl83204  -2.755   1.300  -1.271 -0.4464  0.0355  0.1555
  631MOL0     C83205  -1.789   1.398  -0.591  0.5881 -0.9085  0.6082
  631MOL0     C83206  -1.665   1.384  -0.520 -0.0338  0.0192 -0.2750
  631MOL0     O83207  -1.411   1.500  -0.404 -0.2373  0.0293 -0.6437
  631MOL0     C83208  -1.354   1.261  -0.129  0.1029  0.0831 -0.1134
  631MOL0     C83209  -1.248   1.213  -0.046 -0.6344 -0.8839  0.8030
  631MOL0     N83210  -0.419   1.113  -0.228  0.5115 -0.2044  0.1979
  631MOL0     N83211  -0.343   1.027  -0.262  0.7488 -0.6879  0.3198
  631MOL0     C83212   0.608   0.514   0.661 -0.5385 -0.3696  0.6269
  631MOL0     C83213   0.666   0.522   0.785  1.4527 -0.5558 -0.1366
  631MOL0     C83214   0.968   0.522   1.110 -0.3786  0.9417  0.5914
  631MOL0     C83215   1.099   0.572   1.074 -0.1271 -0.3142 -1.0092
  631MOL0     C83216   1.211   0.554   1.159 -0.2931 -0.1083  0.1166
  631MOL0     C83217   1.196   0.473   1.271 -0.2375  0.8390  0.1720
  631MOL0     O83218   1.303   0.459   1.353  0.8272 -0.4393 -0.2011
  631MOL0     C83219   1.317   0.340   1.426 -0.0217  0.9628  0.3466
  631MOL0     C83220   1.466   0.341   1.459 -0.4073 -0.7502  0.5384
  631MOL0     C83221   1.518   0.211   1.498  0.1649  0.3163 -1.0465
  631MOL0     C83222   1.492   0.184   1.651  0.2074  0.3493  0.5398
  631MOL0     C83223   1.367   0.103   1.676  0.0393 -1.1418  0.2335
  631MOL0     C83224   1.263   0.041   1.681  0.1152  0.4104 -0.2566
  631MOL0     C83225   1.075   0.414   1.299 -0.0209 -0.1429 -0.4479
  631MOL0     C83226   0.962   0.436   1.221 -0.0000  0.6902 -0.8990
  631MOL0     H83227   0.892   0.763   0.730  0.0148  0.9852 -0.6459
  631MOL0     H83228   0.751   0.788   0.513 -0.8629  0.3084  0.4626
  631MOL0     H83229   0.531   0.774   0.358 -1.9727 -1.1728 -5.0584
  631MOL0     H83230   0.425   0.752   0.503  0.2710  0.1612 -0.3260
  631MOL0     H83231   0.288   0.608   0.385  0.1686  0.2209 -0.3216
  631MOL0     H83232   0.399   0.607   0.247  2.3367 -1.1583  0.9499
  631MOL0     H83233   0.338   0.872   0.237 -0.0628  2.1457  2.4265
  631MOL0     H83234   0.260   0.856   0.381  3.8161  0.5409  0.3764
  631MOL0     H83235   0.153   0.665   0.162 -3.3466 -0.2132  1.2727
  631MOL0     H83236   0.052   0.732   0.280  0.6964 -4.0074  1.8644
  631MOL0     H83237   0.168   0.889   0.048 -0.7575  0.3668  0.1339
  631MOL0     H83238   0.054   0.949   0.164 -1.4512 -0.7623  0.6341
  631MOL0     H83239  -0.113   0.791   0.114 -1.7095  1.1583 -0.6406
  631MOL0     H83240  -0.011   0.714  -0.008  0.4112 -0.3370  1.0547
  631MOL0     H83241  -0.099   1.005  -0.006  4.6526  0.4198  1.7271
  631MOL0     H83242  -0.013   0.933  -0.142  0.6325 -0.0313  0.3331
  631MOL0     H83243  -0.246   0.760  -0.082 -0.5755  0.2764 -0.4567
  631MOL0     H83244  -0.192   0.803  -0.234  0.0902 -0.6495 -0.7627
  631MOL0     H83245  -0.402   0.952   0.044  0.3598 -0.0775 -0.3570
  631MOL0     H83246  -0.596   1.252  -0.058  0.3211 -0.2112  0.0218
  631MOL0     H83247  -0.536   1.167   0.079  0.2214 -3.6464  1.0247
  631MOL0     H83248  -0.682   0.972   0.046  1.0594  1.0878  1.0628
  631MOL0     H83249  -0.742   1.039  -0.106  1.2379 -2.1080  0.0193
  631MOL0     H83250  -0.873   1.070   0.133  0.3404 -0.5440 -3.1182
  631MOL0     H83251  -0.755   1.192   0.170 -1.7662  0.5659  1.0073
  631MOL0     H83252  -0.854   1.269  -0.071  0.3313  2.1401  0.3967
  631MOL0     H83253  -0.912   1.336   0.088 -1.2090  1.1706 -0.4032
  631MOL0     H83254  -0.987   1.364  -0.196 -0.0512 -1.1744 -2.5365
  631MOL0     H83255  -1.157   1.418  -0.358  1.6492  0.6629  0.8442
  631MOL0     H83256  -1.796   1.350  -0.212  2.4909 -1.0719 -0.3623
  631MOL0     H83257  -1.996   1.399  -0.316  1.0826 -3.1055  1.1326
  631MOL0     H83258  -1.974   1.513  -0.787 -2.4886 -0.9357 -0.0820
  631MOL0     H83259  -1.947   1.637  -0.657  3.0510 -0.9372 -2.8539
  631MOL0     H83260  -2.131   1.703  -0.784 -1.9845  2.5945  2.7271
  631MOL0     H83261  -2.203   1.639  -0.641  1.2574 -1.5223  1.1592
  631MOL0     H83262  -2.239   1.410  -0.808  1.6156 -2.1209 -4.6584
  631MOL0     H83263  -2.169   1.516  -0.928 -1.2092  1.3299 -1.1876
  631MOL0     H83264  -2.421   1.580  -0.755  2.0286 -0.0489  0.5546
  631MOL0     H83265  -2.375   1.663  -0.904  0.8474 -0.1505 -0.9914
  631MOL0     H83266  -2.484   1.386  -0.878  2.7213  0.3134  1.9460
  631MOL0     H83267  -2.386   1.451  -1.030  1.5911  2.7839  1.3076
  631MOL0     H83268  -2.554   1.646  -1.000 -2.7533  0.4386  3.1011
  631MOL0     H83269  -2.653   1.521  -0.928  1.1293 -1.5465 -0.5634
  631MOL0     H83270  -2.683   1.561  -1.181  1.0868  0.7667 -2.5285
  631MOL0     H83271  -2.534   1.473  -1.201 -1.7033 -1.2503 -2.2579
  631MOL0     H83272  -2.772   1.369  -1.053 -0.5291 -1.4232  0.3183
  631MOL0     H83273  -2.624   1.283  -1.057 -1.2599 -0.5383  0.2437
  631MOL0     H83274  -1.797   1.416  -0.697 -2.3979  1.1063  1.0682
  631MOL0     H83275  -1.572   1.362  -0.570  0.4434 -1.3874  1.1385
  631MOL0     H83276  -1.456   1.238  -0.100  0.6736 -1.1336  1.0096
  631MOL0     H83277  -1.261   1.145   0.037  1.3149  1.0628  2.8597
  631MOL0     H83278   0.545   0.427   0.645 -1.3971  0.2778  0.3706
  631MOL0     H83279   0.653   0.437   0.851  1.3277  0.4898  1.2269
  631MOL0     H83280   1.111   0.638   0.988 -3.0599  0.4261 -0.9604
  631MOL0     H83281   1.312   0.581   1.132 -0.4055  1.6842  1.2821
  631MOL0     H83282   1.292   0.258   1.357  0.2020  1.2103 -0.0364
  631MOL0     H83283   1.253   0.343   1.514  0.5066 -0.4612  0.8068
  631MOL0     H83284   1.515   0.387   1.373 -1.4504 -0.8427 -0.1206
  631MOL0     H83285   1.490   0.415   1.537  0.5868  0.3355 -0.7365
  631MOL0     H83286   1.627   0.209   1.492  0.3765  1.8944  1.0599
  631MOL0     H83287   1.486   0.128   1.435 -1.1593  0.1619 -0.2194
  631MOL0     H83288   1.569   0.113   1.683  1.3600  0.3479 -2.0015
  631MOL0     H83289   1.501   0.273   1.713  1.0965 -0.2082  1.2484
  631MOL0     H83290   1.160   0.012   1.678 -0.4353  1.9468  1.8522
  631MOL0     H83291   1.066   0.338   1.376 -0.6398 -1.3538 -1.6630
  631MOL0     H83292   0.867   0.395   1.253  0.3737 -0.3711 -1.1020
  632MOL0     O83293   7.409   9.548   2.445  0.5064  0.2554 -0.5671
  632MOL0     C83294   7.453   9.512   2.331 -1.5996  0.2519  0.0783
  632MOL0     O83295   7.388   9.508   2.214  0.0340 -0.3023 -0.4068
  632MOL0     C83296   7.251   9.518   2.203  0.7769  1.3531 -0.0479
  632MOL0     C83297   7.165   9.578   2.297 -0.5983  0.4511  0.4993
  632MOL0     C83298   7.030   9.593   2.265 -0.1564 -0.3148 -0.7557
  632MOL0     C83299   6.972   9.538   2.153  0.5996  0.5177  0.4770
  632MOL0     O83300   6.840   9.543   2.124 -0.7368 -0.2646 -0.2937
  632MOL0     C83301   6.754   9.556   2.244  0.9049 -0.6380 -0.5819
  632MOL0     C83302   6.609   9.558   2.205  0.3487  0.3918 -0.0864
  632MOL0     C83303   6.514   9.496   2.313 -0.7533 -0.2213 -0.0663
  632MOL0     C83304   6.372   9.516   2.256  0.5253  0.6484  0.3898
  632MOL0     C83305   6.266   9.467   2.350  1.6312  0.0557  0.2331
  632MOL0     C83306   6.155   9.402   2.270 -0.5454 -0.3210 -0.8385
  632MOL0     C83307   6.022   9.374   2.350  0.2417 -0.4141 -0.2554
  632MOL0     C83308   6.031   9.256   2.441 -0.3016  0.4667  0.1365
  632MOL0     N83309   5.910   9.225   2.521 -0.1086 -0.5173 -0.2760
  632MOL0     C83310   5.814   9.138   2.483  0.7296 -0.8577  0.4023
  632MOL0     C83311   5.729   9.154   2.583  0.4775 -0.4787 -1.0888
  632MOL0     C83312   5.587   9.093   2.609 -0.3484 -1.1576  0.0413
  632MOL0     C83313   5.475   9.167   2.529 -0.1983 -0.6233  0.0642
  632MOL0     C83314   5.334   9.100   2.543 -0.6082 -0.3071 -0.6091
  632MOL0     C83315   5.243   9.177   2.452  0.7205  0.6616  0.1219
  632MOL0     O83316   5.258   9.102   2.324 -0.0297 -0.2503  0.0278
  632MOL0     C83317   5.137   9.084   2.250 -0.0948 -0.3039 -0.0266
  632MOL0     C83318   5.122   8.965   2.190 -0.6186  0.8756 -0.1227
  632MOL0     C83319   5.009   8.949   2.104  0.7023 -0.3157 -0.3434
  632MOL0     C83320   4.910   9.051   2.095  0.8485 -0.6919 -0.3657
  632MOL0     C83321   4.783   9.038   2.012  0.2824  0.0795 -1.2248
  632MOL0     O83322   4.772   8.923   1.940  0.4483  0.3247 -0.1236
  632MOL0     C83323   4.656   8.900   1.868 -0.3143 -1.2009 -0.2685
  632MOL0     C83324   4.586   8.797   1.931  0.4643 -1.1370  0.7301
  632MOL0     C83325   4.473   8.751   1.866  0.2206 -0.7267  0.7527
  632MOL0     C83326   4.426   8.810   1.748  0.0814 -1.1101  0.4177
  632MOL0     O83327   4.307   8.762   1.692  0.3911  0.7014  0.1670
  632MOL0     C83328   4.232   8.842   1.611  0.4336 -0.3013  0.1568
  632MOL0     C83329   4.087   8.800   1.637 -0.1935  0.0544 -0.1659
  632MOL0     C83330   3.982   8.900   1.569  0.4358  0.4722 -0.2224
  632MOL0     C83331   3.829   8.852   1.575  0.8185 -0.5760 -0.0748
  632MOL0     C83332   3.750   8.935   1.473  0.2257  0.3423 -0.5674
  632MOL0     C83333   3.610   8.877   1.449  0.1689 -0.1470 -0.7017
  632MOL0     C83334   3.512   8.988   1.415  0.3184  0.3428 -1.3169
  632MOL0     C83335   3.374   8.930   1.371 -1.0926 -0.0129  0.6751
  632MOL0    Cl83336   3.263   9.079   1.362  0.0290 -0.0680  0.5337
  632MOL0     C83337   4.499   8.914   1.691 -0.3418 -0.1022  0.3056
  632MOL0     C83338   4.605   8.972   1.754  0.3564  0.4275  0.5153
  632MOL0     O83339   4.694   9.131   2.012  0.1601  0.8423 -0.5215
  632MOL0     C83340   4.943   9.177   2.152  1.1847 -0.7442 -0.0196
  632MOL0     C83341   5.060   9.190   2.220 -0.4952  0.3852  0.0086
  632MOL0     N83342   5.775   9.251   2.681  0.3785 -0.1384 -0.4661
  632MOL0     N83343   5.892   9.280   2.639 -0.3667 -0.3449 -0.0155
  632MOL0     C83344   7.054   9.457   2.065  0.1229 -0.8460  0.0798
  632MOL0     C83345   7.188   9.460   2.091 -0.1661 -0.1020 -0.1109
  632MOL0     C83346   7.589   9.471   2.314  0.4575  0.1261  0.0620
  632MOL0     C83347   7.665   9.425   2.427  0.0279  0.5123 -0.2192
  632MOL0     C83348   7.790   9.358   2.412  0.1330 -0.2704  1.2437
  632MOL0     C83349   7.857   9.369   2.290 -0.6172  0.3664 -1.3420
  632MOL0     O83350   7.976   9.304   2.300 -0.1671 -0.2501  0.1946
  632MOL0     C83351   8.058   9.298   2.180 -0.5595 -0.9244 -0.5665
  632MOL0     C83352   8.174   9.196   2.198  0.6575 -0.1390  0.2493
  632MOL0     C83353   8.261   9.200   2.075 -0.2735  0.5301 -0.3821
  632MOL0     C83354   8.363   9.087   2.078  0.1339 -1.1368  0.3763
  632MOL0     C83355   8.478   9.114   1.995  0.3848 -0.1896  0.3656
  632MOL0     C83356   8.572   9.137   1.925 -0.1039 -0.4490  0.1816
  632MOL0     C83357   7.792   9.435   2.182  0.0437 -0.4151 -0.3054
  632MOL0     C83358   7.658   9.477   2.195  0.0950 -0.3643 -0.0216
  632MOL0     H83359   7.197   9.623   2.390  1.2611 -0.2093  0.2238
  632MOL0     H83360   6.971   9.642   2.342  2.1067 -1.5271  1.9352
  632MOL0     H83361   6.770   9.651   2.295  1.2485 -0.1456 -1.5671
  632MOL0     H83362   6.782   9.471   2.307  2.6690  0.1214 -0.2720
  632MOL0     H83363   6.608   9.482   2.126 -0.6194  0.1192  0.1666
  632MOL0     H83364   6.574   9.657   2.176  0.0649  0.3280  0.0395
  632MOL0     H83365   6.535   9.551   2.405  0.8893 -2.1615  0.7869
  632MOL0     H83366   6.536   9.390   2.332  1.5800 -0.4049 -3.0921
  632MOL0     H83367   6.357   9.618   2.219  0.1806 -0.6961 -3.7170
  632MOL0     H83368   6.354   9.459   2.164 -1.2803  3.7857 -1.3567
  632MOL0     H83369   6.214   9.549   2.402 -0.8982 -0.7216 -0.8959
  632MOL0     H83370   6.318   9.413   2.429  1.1806  2.8438  2.6414
  632MOL0     H83371   6.197   9.305   2.241  0.6774  0.1133 -0.5971
  632MOL0     H83372   6.144   9.478   2.192  1.7466 -1.1191 -2.0409
  632MOL0     H83373   5.984   9.453   2.416 -1.7836 -2.5029  1.2204
  632MOL0     H83374   5.940   9.345   2.284  0.6291  2.1221 -1.9975
  632MOL0     H83375   6.114   9.271   2.510  0.4661 -1.2369 -0.3543
  632MOL0     H83376   6.055   9.166   2.383 -2.1802 -0.0008  0.0148
  632MOL0     H83377   5.803   9.083   2.391 -0.6985  0.5191 -0.2936
  632MOL0     H83378   5.560   9.104   2.714  1.7603  0.5644  0.4886
  632MOL0     H83379   5.598   8.986   2.588  0.3060 -0.8374 -1.3852
  632MOL0     H83380   5.491   9.164   2.421 -0.9502  2.8736 -0.2384
  632MOL0     H83381   5.482   9.270   2.564  1.9300 -0.2782 -1.1895
  632MOL0     H83382   5.343   8.998   2.503 -1.9064 -0.1470 -1.3741
  632MOL0     H83383   5.315   9.104   2.650  0.9357  3.7815 -0.3057
  632MOL0     H83384   5.257   9.286   2.449  0.0692  0.7421 -0.7603
  632MOL0     H83385   5.142   9.149   2.484  0.6174 -0.7115 -1.2677
  632MOL0     H83386   5.184   8.877   2.204  2.0257  2.0101 -3.4307
  632MOL0     H83387   4.979   8.852   2.066  1.4683 -0.2069 -1.2432
  632MOL0     H83388   4.610   8.750   2.026 -0.6743 -3.1659  0.0752
  632MOL0     H83389   4.406   8.678   1.911 -0.8608 -0.3883 -0.2625
  632MOL0     H83390   4.244   8.810   1.507 -0.3901 -1.4586  0.3954
  632MOL0     H83391   4.254   8.948   1.629 -0.0514 -0.4502  1.7992
  632MOL0     H83392   4.057   8.818   1.740 -2.3638 -1.4056 -0.4717
  632MOL0     H83393   4.056   8.700   1.607 -1.5126 -0.4568  2.6020
  632MOL0     H83394   4.010   8.901   1.463  2.1566 -1.9005  0.1191
  632MOL0     H83395   3.993   8.997   1.619  0.9729 -0.5873  1.8673
  632MOL0     H83396   3.815   8.746   1.552 -1.3203 -0.6799  1.4548
  632MOL0     H83397   3.785   8.863   1.674 -0.5147  1.4776 -0.8349
  632MOL0     H83398   3.798   8.951   1.376 -1.4400 -0.3859 -1.5537
  632MOL0     H83399   3.738   9.033   1.519 -2.8155 -0.7568  1.2174
  632MOL0     H83400   3.575   8.810   1.528 -0.5673  0.5440 -0.4276
  632MOL0     H83401   3.623   8.804   1.368 -0.9143 -2.5084  1.1191
  632MOL0     H83402   3.491   9.056   1.499  0.3680  3.1517 -3.4310
  632MOL0     H83403   3.561   9.056   1.345  1.6753  0.9191  0.1137
  632MOL0     H83404   3.342   8.844   1.430  0.3439 -0.7631  0.4027
  632MOL0     H83405   3.375   8.889   1.270 -3.1007  0.6243  0.3433
  632MOL0     H83406   4.469   8.960   1.597 -0.5156  0.6216  0.7094
  632MOL0     H83407   4.648   9.065   1.718  0.7418 -0.1317 -0.5254
  632MOL0     H83408   4.875   9.261   2.141  1.6430 -0.1810  1.3026
  632MOL0     H83409   5.082   9.289   2.260 -1.8534 -0.0953  2.1085
  632MOL0     H83410   6.998   9.427   1.978 -4.6493  2.1635  1.6582
  632MOL0     H83411   7.260   9.411   2.026 -0.0363 -2.2192  1.5237
  632MOL0     H83412   7.618   9.427   2.525  1.9763  1.0590  0.7401
  632MOL0     H83413   7.842   9.310   2.494 -0.4492  0.9277  2.3542
  632MOL0     H83414   8.098   9.395   2.148 -0.2118 -1.4680 -1.8481
  632MOL0     H83415   8.005   9.263   2.091 -0.5832  1.7031 -1.6572
  632MOL0     H83416   8.228   9.210   2.293  0.1479 -0.9288  0.6670
  632MOL0     H83417   8.129   9.096   2.199 -1.1936  0.5432 -2.8939
  632MOL0     H83418   8.299   9.302   2.076 -1.5754  1.1637  3.8924
  632MOL0     H83419   8.193   9.185   1.990  0.8233 -0.7133 -1.0831
  632MOL0     H83420   8.402   9.069   2.178  0.9997 -0.3563  0.1929
  632MOL0     H83421   8.314   8.992   2.053  0.9770 -1.4873 -0.0069
  632MOL0     H83422   8.656   9.168   1.867 -0.1415 -0.6343  0.0256
  632MOL0     H83423   7.846   9.443   2.089 -0.4256  4.7804 -0.4111
  632MOL0     H83424   7.597   9.505   2.110 -0.8710  0.1656  0.8278
  633MOL0     O83425   3.067   7.112   7.753  0.2830  0.2568  0.0109
  633MOL0     C83426   3.115   7.218   7.793  0.3687  0.1121  0.0646
  633MOL0     O83427   3.032   7.327   7.843 -0.0736  0.4121  0.7897
  633MOL0     C83428   2.909   7.340   7.794 -0.3412  0.1369  0.6153
  633MOL0     C83429   2.791   7.346   7.865 -0.4752  0.0061 -0.3268
  633MOL0     C83430   2.667   7.361   7.797 -0.9284  0.1388 -0.6958
  633MOL0     C83431   2.663   7.367   7.660 -0.0543  0.1651  1.2079
  633MOL0     O83432   2.531   7.366   7.614  0.3871 -0.3652  0.3723
  633MOL0     C83433   2.488   7.392   7.484  0.3559  1.1434  0.6520
  633MOL0     C83434   2.357   7.312   7.458  0.1310 -0.3080  0.0479
  633MOL0     C83435   2.230   7.400   7.497 -0.3627 -0.3473 -0.1125
  633MOL0     C83436   2.104   7.340   7.457  0.0781  0.8239 -0.3523
  633MOL0     C83437   2.000   7.409   7.528  0.2268 -0.2023  0.0474
  633MOL0     C83438   1.924   7.508   7.447  0.3866  0.0811  0.4593
  633MOL0     C83439   1.875   7.478   7.301  0.2508  0.3797  0.1350
  633MOL0     C83440   1.800   7.594   7.244 -0.3799 -0.2755 -0.3496
  633MOL0     N83441   1.657   7.578   7.239  0.1589 -0.2597  0.2944
  633MOL0     C83442   1.594   7.566   7.123  0.2531 -0.2348  0.0630
  633MOL0     C83443   1.472   7.513   7.159 -0.7821  0.0600  0.3787
  633MOL0     C83444   1.365   7.469   7.063  0.6807 -0.3088  0.4457
  633MOL0     C83445   1.257   7.576   7.036  0.2918 -0.2608 -0.7825
  633MOL0     C83446   1.154   7.599   7.150 -0.6645 -0.6792 -0.4647
  633MOL0     C83447   1.050   7.494   7.154  0.3249  0.5329 -1.0563
  633MOL0     O83448   0.957   7.529   7.057  0.9855  0.1246  0.6833
  633MOL0     C83449   0.828   7.566   7.097 -0.2961  0.3195  0.0632
  633MOL0     C83450   0.732   7.581   7.001  0.6111  0.6581 -0.5915
  633MOL0     C83451   0.600   7.614   7.036 -0.1683 -0.3499 -0.5772
  633MOL0     C83452   0.568   7.655   7.168 -1.2311 -0.2251 -0.9927
  633MOL0     C83453   0.416   7.675   7.203 -0.1501  0.3884 -0.2837
  633MOL0     O83454   0.380   7.692   7.332 -0.1535 -0.2103 -0.1274
  633MOL0     C83455   0.256   7.726   7.374  0.9018  0.1097 -0.0041
  633MOL0     C83456   0.198   7.645   7.471 -0.2089  0.3211 -0.8074
  633MOL0     C83457   0.084   7.685   7.538 -0.2708  0.4862 -0.5106
  633MOL0     C83458   0.011   7.794   7.488  0.8538  0.2906 -0.2021
  633MOL0     O83459  -0.104   7.822   7.560  0.7077 -0.5976  0.5833
  633MOL0     C83460  -0.195   7.920   7.502 -0.6376 -0.3476  0.6656
  633MOL0     C83461  -0.331   7.870   7.538 -0.0989  0.3723 -0.4669
  633MOL0     C83462  -0.437   7.950   7.456  1.7970 -0.1237 -0.0437
  633MOL0     C83463  -0.580   7.922   7.513  0.1963 -0.2991 -0.0774
  633MOL0     C83464  -0.677   8.018   7.462  0.0589 -0.7345  0.3801
  633MOL0     C83465  -0.820   7.963   7.453 -0.2135  0.0175  0.6461
  633MOL0     C83466  -0.917   8.061   7.394 -0.7602  0.9095  0.5015
  633MOL0     C83467  -1.050   7.989   7.381 -0.5887 -0.0061  0.4270
  633MOL0    Cl83468  -1.036   7.893   7.226  0.0167 -0.1614  0.4959
  633MOL0     C83469   0.064   7.872   7.388 -0.5922 -0.2572 -0.0110
  633MOL0     C83470   0.186   7.838   7.328 -0.2210  0.1802  0.1481
  633MOL0     O83471   0.340   7.675   7.108 -0.4594  0.0715  0.5941
  633MOL0     C83472   0.676   7.657   7.260  0.4436  0.6776 -0.1605
  633MOL0     C83473   0.800   7.616   7.226 -0.0780  0.3333  0.3423
  633MOL0     N83474   1.464   7.504   7.297  1.2347  0.2019  0.4927
  633MOL0     N83475   1.575   7.554   7.343 -0.4664 -0.4367  0.6921
  633MOL0     C83476   2.778   7.376   7.585 -0.2310  0.0317  0.6152
  633MOL0     C83477   2.898   7.362   7.662 -0.1210  0.0483  0.5769
  633MOL0     C83478   3.256   7.222   7.818  0.0245 -0.7670  0.4363
  633MOL0     C83479   3.301   7.325   7.907 -0.4650 -0.2932  0.2287
  633MOL0     C83480   3.432   7.324   7.944  0.6642  0.3019 -0.5563
  633MOL0     C83481   3.524   7.230   7.905  0.0505 -0.1570 -0.4104
  633MOL0     O83482   3.651   7.209   7.953 -0.2093  1.1243  0.2596
  633MOL0     C83483   3.725   7.307   8.026 -0.0094 -0.6993 -0.6468
  633MOL0     C83484   3.833   7.230   8.093  0.3267  0.4560 -0.0468
  633MOL0     C83485   3.931   7.322   8.179  0.1921 -0.4187 -0.9321
  633MOL0     C83486   4.002   7.256   8.296 -0.8500  0.2890  0.6269
  633MOL0     C83487   4.076   7.365   8.364  0.3719  0.3568  0.1663
  633MOL0     C83488   4.139   7.450   8.418  0.4324 -0.6560 -0.3231
  633MOL0     C83489   3.476   7.134   7.817  0.3778  0.4936  0.3634
  633MOL0     C83490   3.343   7.128   7.765 -0.4611 -0.3360 -1.0207
  633MOL0     H83491   2.802   7.331   7.972 -0.4332 -0.4418 -0.3903
  633MOL0     H83492   2.578   7.360   7.859  0.6762 -0.6252  1.7062
  633MOL0     H83493   2.563   7.359   7.411 -1.4358 -3.9940  0.7545
  633MOL0     H83494   2.477   7.500   7.473 -0.4617  1.1218  1.2138
  633MOL0     H83495   2.365   7.225   7.524  0.4483  2.0445  3.3625
  633MOL0     H83496   2.338   7.287   7.353  0.5903 -0.6201  0.0408
  633MOL0     H83497   2.253   7.495   7.448  2.0970 -0.2439  1.0669
  633MOL0     H83498   2.240   7.428   7.602  1.1428  2.5395 -0.9172
  633MOL0     H83499   2.094   7.332   7.348 -3.7816 -0.8244 -0.0497
  633MOL0     H83500   2.107   7.238   7.496 -2.9781  0.1963 -1.4654
  633MOL0     H83501   2.039   7.460   7.617  1.3400 -2.5637  0.9924
  633MOL0     H83502   1.935   7.328   7.560  0.8724 -0.6175  0.3206
  633MOL0     H83503   1.980   7.602   7.446 -1.4086  1.2159  1.4811
  633MOL0     H83504   1.834   7.516   7.509 -0.2877 -0.9540 -0.3418
  633MOL0     H83505   1.962   7.479   7.234  0.1022  0.6766 -0.0545
  633MOL0     H83506   1.820   7.384   7.296  3.0415 -1.3647 -0.2910
  633MOL0     H83507   1.847   7.614   7.148  3.0363 -0.4572  1.1570
  633MOL0     H83508   1.820   7.674   7.317  1.2593 -0.5588 -0.4602
  633MOL0     H83509   1.635   7.596   7.027  1.1527  0.2418  0.5945
  633MOL0     H83510   1.329   7.369   7.092 -0.5635  0.4938  1.7856
  633MOL0     H83511   1.418   7.451   6.969  0.4648  1.1837  0.0138
  633MOL0     H83512   1.198   7.546   6.949  0.2211  1.0745 -1.2315
  633MOL0     H83513   1.306   7.672   7.013  1.7300 -0.3615  1.5332
  633MOL0     H83514   1.209   7.600   7.244  3.4096 -1.8680 -2.6170
  633MOL0     H83515   1.093   7.689   7.132 -1.4504 -1.1708 -0.3204
  633MOL0     H83516   1.010   7.481   7.255 -1.0005 -1.5605 -1.8022
  633MOL0     H83517   1.080   7.393   7.125 -4.7004 -1.6724  0.3212
  633MOL0     H83518   0.767   7.579   6.898  2.2802  2.5260 -0.1460
  633MOL0     H83519   0.525   7.620   6.958 -0.1320  1.0957 -0.5196
  633MOL0     H83520   0.251   7.559   7.510  2.4693  2.2218  0.0530
  633MOL0     H83521   0.045   7.643   7.630  0.8756  0.7146  0.0998
  633MOL0     H83522  -0.179   7.922   7.394  1.0057 -1.1432  0.8681
  633MOL0     H83523  -0.165   8.011   7.554  3.0784 -1.8552  1.5058
  633MOL0     H83524  -0.345   7.869   7.647 -1.4886 -0.2080 -0.6305
  633MOL0     H83525  -0.328   7.765   7.506  1.1429 -0.3637  1.8622
  633MOL0     H83526  -0.439   7.914   7.352  0.0784 -1.6170  0.4520
  633MOL0     H83527  -0.412   8.056   7.463  1.6967 -0.0295 -0.9224
  633MOL0     H83528  -0.604   7.822   7.474 -0.6115  0.1311 -0.7118
  633MOL0     H83529  -0.593   7.909   7.621  0.7413  0.6203  0.1064
  633MOL0     H83530  -0.650   8.032   7.357 -2.3671  0.3809 -0.1651
  633MOL0     H83531  -0.666   8.112   7.516  0.7101 -1.1962  1.0695
  633MOL0     H83532  -0.843   7.930   7.555 -2.3215  2.3747  1.0208
  633MOL0     H83533  -0.817   7.875   7.387 -2.3123 -0.1408  0.7099
  633MOL0     H83534  -0.928   8.149   7.459 -5.3881  2.8042 -2.3337
  633MOL0     H83535  -0.873   8.096   7.300 -0.7542 -1.9401 -0.6763
  633MOL0     H83536  -1.134   8.058   7.366 -0.0997  0.4680 -0.2382
  633MOL0     H83537  -1.082   7.926   7.464  3.9312 -2.3215  0.7198
  633MOL0     H83538   0.016   7.968   7.373 -1.9538 -0.2008  3.6939
  633MOL0     H83539   0.219   7.905   7.250 -2.2361  1.6254  0.4413
  633MOL0     H83540   0.664   7.687   7.364 -3.4850 -1.7914  0.3318
  633MOL0     H83541   0.863   7.633   7.314 -2.1243  0.7890  1.7917
  633MOL0     H83542   2.803   7.392   7.480  4.0139  3.0068  1.7659
  633MOL0     H83543   2.990   7.353   7.606 -0.4606 -0.6731  0.1182
  633MOL0     H83544   3.225   7.391   7.948 -1.8427 -2.5933  1.5932
  633MOL0     H83545   3.464   7.397   8.018  1.9620  1.3156 -2.0468
  633MOL0     H83546   3.662   7.339   8.110  0.0395  0.7542 -1.1532
  633MOL0     H83547   3.769   7.391   7.973  1.0609  1.1697  2.8830
  633MOL0     H83548   3.791   7.154   8.158 -1.1137 -1.7873 -3.3308
  633MOL0     H83549   3.886   7.186   8.008 -0.6893 -1.2982  0.1907
  633MOL0     H83550   3.879   7.414   8.207 -0.5960 -1.2296  0.3611
  633MOL0     H83551   4.018   7.347   8.118  1.2429  0.7705  0.9657
  633MOL0     H83552   3.923   7.222   8.364 -1.6094  0.1592 -0.3003
  633MOL0     H83553   4.061   7.173   8.257 -2.1612 -0.4249  0.0897
  633MOL0     H83554   4.194   7.531   8.460 -0.9579  0.2264 -0.1635
  633MOL0     H83555   3.554   7.070   7.778 -0.4693 -0.3895  0.1044
  633MOL0     H83556   3.300   7.047   7.707 -0.1729 -3.2293  2.4573
  634MOL0     O83557   7.970   1.694   0.051 -0.3985 -0.4171  0.6330
  634MOL0     C83558   7.898   1.637  -0.030 -0.6718 -0.0343  0.3685
  634MOL0     O83559   7.938   1.543  -0.116  0.4736 -0.2708 -0.4224
  634MOL0     C83560   8.075   1.514  -0.128 -0.3927 -0.6696 -0.2245
  634MOL0     C83561   8.129   1.495  -0.253  0.0122  0.4126  0.6742
  634MOL0     C83562   8.256   1.462  -0.281 -0.2963 -0.1229 -0.2092
  634MOL0     C83563   8.356   1.456  -0.177  0.6539  0.1595  0.4665
  634MOL0     O83564   8.483   1.420  -0.211  0.0782 -0.5124 -0.7282
  634MOL0     C83565   8.578   1.411  -0.102  0.1074  0.0671 -0.0777
  634MOL0     C83566   8.698   1.340  -0.168 -0.5914  1.5236 -0.4765
  634MOL0     C83567   8.775   1.419  -0.266  0.3692  0.2334 -0.4316
  634MOL0     C83568   8.928   1.390  -0.271  0.4063  0.0116  0.6010
  634MOL0     C83569   8.961   1.267  -0.355  0.0690  0.4510 -0.0614
  634MOL0     C83570   8.907   1.280  -0.500 -1.5692 -0.2675 -0.1127
  634MOL0     C83571   8.989   1.182  -0.587 -0.4069 -0.3497 -0.5438
  634MOL0     C83572   8.941   1.029  -0.574 -0.5404 -0.1998  0.3034
  634MOL0     N83573   8.797   1.022  -0.570  0.7097 -0.4972 -0.3036
  634MOL0     C83574   8.726   0.962  -0.469  0.3631  0.5059  0.5160
  634MOL0     C83575   8.595   1.002  -0.497 -1.0769 -0.1770 -0.3647
  634MOL0     C83576   8.481   1.020  -0.405  0.5908 -0.2111  0.0907
  634MOL0     C83577   8.336   1.004  -0.472  0.6996 -0.0639 -0.2659
  634MOL0     C83578   8.252   1.126  -0.410 -0.3273  1.0270  0.5994
  634MOL0     C83579   8.114   1.132  -0.473  0.3423  0.5520  0.3296
  634MOL0     O83580   8.031   1.242  -0.427 -0.0470  0.5756 -0.3241
  634MOL0     C83581   7.898   1.247  -0.449  0.4123  0.8743 -0.6090
  634MOL0     C83582   7.844   1.183  -0.560  0.9321  0.1327  0.7195
  634MOL0     C83583   7.708   1.199  -0.600  0.8699 -0.1924 -0.5817
  634MOL0     C83584   7.625   1.284  -0.523 -0.0854 -1.0242  0.3048
  634MOL0     C83585   7.480   1.298  -0.545  0.6330  0.9387  0.2342
  634MOL0     O83586   7.407   1.392  -0.473 -0.6867  0.5989 -0.8432
  634MOL0     C83587   7.282   1.421  -0.512  0.2894 -0.4458  0.0343
  634MOL0     C83588   7.176   1.332  -0.522 -0.2409  0.8154 -0.7506
  634MOL0     C83589   7.039   1.367  -0.534  0.2756  0.5943  0.2072
  634MOL0     C83590   7.007   1.500  -0.553  0.1788 -0.2014 -0.5965
  634MOL0     O83591   6.874   1.535  -0.548  0.2212 -0.2520 -0.3377
  634MOL0     C83592   6.775   1.438  -0.594 -0.0838 -0.7537 -0.2706
  634MOL0     C83593   6.633   1.508  -0.583 -1.4987 -0.6170  0.0634
  634MOL0     C83594   6.535   1.404  -0.648  0.0126  0.3437 -0.5303
  634MOL0     C83595   6.388   1.449  -0.618 -0.7789 -0.0657 -0.6204
  634MOL0     C83596   6.287   1.359  -0.691  0.1646 -0.1411 -0.5511
  634MOL0     C83597   6.261   1.413  -0.833 -0.7443 -0.3275  0.5177
  634MOL0     C83598   6.169   1.320  -0.909 -0.3270  0.7402 -0.2646
  634MOL0     C83599   6.147   1.349  -1.057  0.3111  0.0049 -0.4820
  634MOL0    Cl83600   5.982   1.291  -1.105 -0.1264  0.1530  0.0976
  634MOL0     C83601   7.111   1.593  -0.566  0.0598 -0.2909 -0.0230
  634MOL0     C83602   7.242   1.551  -0.547 -0.3782 -0.0001 -0.2991
  634MOL0     O83603   7.430   1.216  -0.621  0.0456 -0.3701 -0.3092
  634MOL0     C83604   7.682   1.343  -0.412 -0.2293 -0.4737 -0.0426
  634MOL0     C83605   7.818   1.334  -0.375 -0.2059  0.4666  0.6273
  634MOL0     N83606   8.591   1.063  -0.625 -0.2648 -0.1972  0.2427
  634MOL0     N83607   8.710   1.067  -0.669  0.8286  0.2247 -0.1235
  634MOL0     C83608   8.301   1.469  -0.054 -0.2808 -0.1269 -0.5119
  634MOL0     C83609   8.167   1.492  -0.025  0.0247  1.2470 -0.0068
  634MOL0     C83610   7.764   1.682  -0.036 -0.6375  0.4132 -0.4489
  634MOL0     C83611   7.695   1.676  -0.159 -0.1032  0.1576  0.2097
  634MOL0     C83612   7.567   1.718  -0.174  0.6793 -0.2649 -1.0440
  634MOL0     C83613   7.492   1.766  -0.068  0.8388  0.4690 -0.6556
  634MOL0     O83614   7.368   1.813  -0.091  0.4678 -0.7120  0.8862
  634MOL0     C83615   7.267   1.790   0.009  0.5089 -0.0180 -0.7062
  634MOL0     C83616   7.152   1.891  -0.011  0.0594 -0.4793  0.7357
  634MOL0     C83617   7.075   1.867  -0.147 -0.0070 -0.0078 -0.2627
  634MOL0     C83618   6.996   1.737  -0.166  0.3747 -0.3489 -0.1500
  634MOL0     C83619   6.889   1.734  -0.062  0.3556 -0.2318 -0.6527
  634MOL0     C83620   6.797   1.719   0.019 -0.2653 -0.0162  0.0285
  634MOL0     C83621   7.564   1.767   0.060 -0.1504  0.4960  1.1978
  634MOL0     C83622   7.693   1.716   0.076  0.9803 -0.4386  0.1126
  634MOL0     H83623   8.061   1.506  -0.338  2.1411 -0.7760 -1.3061
  634MOL0     H83624   8.288   1.432  -0.380 -1.2521 -2.0182  0.0115
  634MOL0     H83625   8.557   1.353  -0.012 -0.7184 -0.2652 -0.4720
  634MOL0     H83626   8.613   1.508  -0.066 -0.6187  0.3516 -0.1176
  634MOL0     H83627   8.668   1.248  -0.220  3.1875  0.8625 -1.8309
  634MOL0     H83628   8.762   1.311  -0.085 -0.0521 -0.4023 -1.4975
  634MOL0     H83629   8.768   1.525  -0.239  1.3937  0.2681 -0.2510
  634MOL0     H83630   8.727   1.398  -0.362 -1.5903 -3.3522  1.1230
  634MOL0     H83631   8.970   1.482  -0.312 -1.4545  1.5346  1.9170
  634MOL0     H83632   8.973   1.382  -0.171 -2.5886 -1.6270  1.9574
  634MOL0     H83633   8.926   1.175  -0.307 -1.5351  1.0833  0.0595
  634MOL0     H83634   9.070   1.275  -0.360  0.2561 -1.6765 -0.1963
  634MOL0     H83635   8.933   1.382  -0.529 -1.1043 -0.0664  1.0019
  634MOL0     H83636   8.800   1.255  -0.511 -1.4911 -1.1016  0.8910
  634MOL0     H83637   8.983   1.225  -0.688  1.4035  2.7464  0.4910
  634MOL0     H83638   9.091   1.198  -0.551  0.1482  0.8569 -2.4880
  634MOL0     H83639   8.988   0.984  -0.485 -0.0222 -0.5109 -0.1191
  634MOL0     H83640   8.978   0.974  -0.661  0.6571 -0.8451  1.1791
  634MOL0     H83641   8.765   0.921  -0.377 -0.0066 -1.9642 -0.3490
  634MOL0     H83642   8.497   1.124  -0.376  1.6355 -0.6359  1.1043
  634MOL0     H83643   8.492   0.958  -0.316 -0.5875 -1.8228 -0.8215
  634MOL0     H83644   8.286   0.910  -0.446 -0.0313  0.6411  1.0132
  634MOL0     H83645   8.346   1.022  -0.579 -3.7802 -0.3973 -0.9665
  634MOL0     H83646   8.240   1.122  -0.302  0.3064  3.3948  0.8127
  634MOL0     H83647   8.306   1.220  -0.426  2.5818 -0.1782  2.4995
  634MOL0     H83648   8.059   1.041  -0.444  1.2471  0.4765  1.8608
  634MOL0     H83649   8.125   1.117  -0.581  1.2553  1.4327  0.2926
  634MOL0     H83650   7.907   1.119  -0.621 -1.0214 -0.0531 -1.2323
  634MOL0     H83651   7.666   1.155  -0.689  1.0354 -0.6847 -0.4189
  634MOL0     H83652   7.203   1.227  -0.514 -3.3916 -0.1550 -1.3607
  634MOL0     H83653   6.967   1.288  -0.522  1.3898 -0.1275  2.9260
  634MOL0     H83654   6.773   1.351  -0.528 -1.8359 -1.3216 -1.0224
  634MOL0     H83655   6.806   1.409  -0.695  2.4963 -5.5911  1.5862
  634MOL0     H83656   6.633   1.604  -0.635 -0.7066 -0.2886  0.6631
  634MOL0     H83657   6.610   1.528  -0.478 -0.9646  1.4832 -0.1792
  634MOL0     H83658   6.559   1.305  -0.608 -1.6081  0.5926  1.2424
  634MOL0     H83659   6.542   1.397  -0.756 -3.2345  0.7583 -0.8696
  634MOL0     H83660   6.374   1.443  -0.510 -2.3731  0.1262 -0.7803
  634MOL0     H83661   6.369   1.555  -0.638  0.1716  0.5377  1.3940
  634MOL0     H83662   6.194   1.364  -0.634  0.5514  4.1802  0.0409
  634MOL0     H83663   6.313   1.253  -0.695 -1.0206 -0.5264  1.0220
  634MOL0     H83664   6.350   1.439  -0.892 -1.7495 -1.5765 -1.6639
  634MOL0     H83665   6.216   1.512  -0.824  1.3746  0.7926 -0.5439
  634MOL0     H83666   6.207   1.218  -0.904 -0.1524  0.6243 -2.7456
  634MOL0     H83667   6.074   1.315  -0.854  0.2117 -0.9805  0.5783
  634MOL0     H83668   6.222   1.301  -1.121  1.6169  2.1297 -0.6358
  634MOL0     H83669   6.152   1.457  -1.072 -2.8166  0.1914 -0.8492
  634MOL0     H83670   7.091   1.699  -0.581  3.4403  0.5379  0.5964
  634MOL0     H83671   7.320   1.626  -0.551 -0.3742 -0.0065 -0.3382
  634MOL0     H83672   7.628   1.398  -0.336  0.6014  0.4763 -0.1033
  634MOL0     H83673   7.856   1.388  -0.289  0.7140  1.9188 -0.6472
  634MOL0     H83674   8.370   1.452   0.029  2.2020  0.1881 -2.4068
  634MOL0     H83675   8.111   1.482   0.067 -1.4753 -1.4569 -1.0945
  634MOL0     H83676   7.744   1.631  -0.245  3.2254  1.0385  1.4765
  634MOL0     H83677   7.520   1.718  -0.272  0.9985  3.1702 -1.3493
  634MOL0     H83678   7.308   1.802   0.110  0.5417 -1.8724 -0.4528
  634MOL0     H83679   7.236   1.685  -0.002  0.6711 -0.3275  1.2735
  634MOL0     H83680   7.085   1.886   0.075  0.0790 -0.9030  0.7268
  634MOL0     H83681   7.186   1.995  -0.014 -1.9973  0.2959  2.1941
  634MOL0     H83682   7.152   1.863  -0.225 -0.8401  0.5884 -1.1227
  634MOL0     H83683   7.024   1.958  -0.179  1.0626  1.3520  1.6419
  634MOL0     H83684   6.957   1.726  -0.268  0.2948 -1.8250  0.0102
  634MOL0     H83685   7.056   1.647  -0.151  0.1442 -0.3227  0.9968
  634MOL0     H83686   6.726   1.719   0.099  0.8789 -2.3334  1.1232
  634MOL0     H83687   7.518   1.819   0.144 -1.0386  2.1506 -0.2445
  634MOL0     H83688   7.746   1.714   0.171  1.8908 -1.7777 -0.3846
  635MOL0     O83689   4.485   3.044   3.952 -0.3851 -0.0217  0.0338
  635MOL0     C83690   4.433   3.046   4.065 -0.1448  0.0728  0.5227
  635MOL0     O83691   4.507   3.024   4.175 -0.0535  0.6370  0.6790
  635MOL0     C83692   4.639   2.981   4.157  0.5948 -0.3678 -0.0131
  635MOL0     C83693   4.673   2.843   4.163 -0.2219 -0.0372 -0.0203
  635MOL0     C83694   4.801   2.798   4.152  0.0316 -0.4531 -1.7656
  635MOL0     C83695   4.909   2.890   4.137  0.5530  0.5039  0.3992
  635MOL0     O83696   5.034   2.836   4.107  0.0096 -0.4085 -0.5415
  635MOL0     C83697   5.072   2.715   4.169  0.1120  0.1283 -0.0531
  635MOL0     C83698   5.208   2.715   4.224  0.3006 -0.5046  0.1319
  635MOL0     C83699   5.327   2.733   4.125  0.2569  0.2068 -0.5636
  635MOL0     C83700   5.304   2.835   4.024 -0.9879 -0.0998  0.3968
  635MOL0     C83701   5.429   2.865   3.940 -0.3933 -0.2410 -0.6277
  635MOL0     C83702   5.391   2.958   3.822 -0.2063 -0.8211  0.5529
  635MOL0     C83703   5.290   3.070   3.865 -0.1861  0.0846 -0.5107
  635MOL0     C83704   5.288   3.189   3.779  0.1078 -0.4778  0.0849
  635MOL0     N83705   5.265   3.149   3.638 -0.4393  0.2867 -0.4015
  635MOL0     C83706   5.162   3.069   3.598  0.0811  0.4998 -1.2078
  635MOL0     C83707   5.192   3.040   3.470 -0.7468  0.0236 -0.2233
  635MOL0     C83708   5.122   2.948   3.376  0.7275 -0.7119  0.0023
  635MOL0     C83709   4.984   3.001   3.364 -0.4620  0.3644 -0.3703
  635MOL0     C83710   4.902   2.904   3.276 -0.0404  0.8936 -0.3463
  635MOL0     C83711   4.754   2.934   3.252 -0.2725 -0.8454 -0.2192
  635MOL0     O83712   4.701   2.831   3.171  0.4347  0.2407  0.3502
  635MOL0     C83713   4.567   2.805   3.158 -0.1130 -0.7706 -0.5275
  635MOL0     C83714   4.529   2.698   3.068 -0.2006 -0.6896  0.1358
  635MOL0     C83715   4.401   2.652   3.064 -0.2264  0.2815  1.1076
  635MOL0     C83716   4.301   2.703   3.150  0.0775  0.4691 -0.7920
  635MOL0     C83717   4.161   2.651   3.142 -0.4026  0.1714  0.2526
  635MOL0     O83718   4.088   2.703   3.244  0.4766 -0.4841 -0.7880
  635MOL0     C83719   3.950   2.707   3.234  0.5761 -0.3986  0.2107
  635MOL0     C83720   3.884   2.736   3.116 -0.1359 -0.3936  0.2163
  635MOL0     C83721   3.743   2.731   3.118 -0.1142 -0.9794 -0.4953
  635MOL0     C83722   3.674   2.703   3.243  0.0799 -0.6544  0.0246
  635MOL0     O83723   3.537   2.707   3.244 -0.2364 -0.0619  0.0608
  635MOL0     C83724   3.466   2.719   3.365 -0.1038  0.0605 -0.0452
  635MOL0     C83725   3.336   2.794   3.317 -0.4065 -0.3435  0.1067
  635MOL0     C83726   3.222   2.685   3.301 -0.2824  0.1371 -0.6501
  635MOL0     C83727   3.090   2.760   3.277 -0.4494  0.0519  0.0859
  635MOL0     C83728   2.983   2.670   3.226 -0.8029  0.1410 -0.3112
  635MOL0     C83729   2.843   2.738   3.245 -0.7757  0.4326  0.6559
  635MOL0     C83730   2.737   2.638   3.182  0.4330 -0.1178 -0.4957
  635MOL0     C83731   2.607   2.700   3.166  0.8877 -0.1564  0.5269
  635MOL0    Cl83732   2.477   2.606   3.075  0.0164 -0.0880 -0.0230
  635MOL0     C83733   3.750   2.689   3.355 -0.2270 -0.6241  0.2287
  635MOL0     C83734   3.886   2.687   3.357 -0.4885  0.1447  0.4844
  635MOL0     O83735   4.129   2.566   3.061 -0.2790  0.5153 -0.4902
  635MOL0     C83736   4.339   2.810   3.237 -0.7670  0.7360 -0.4338
  635MOL0     C83737   4.469   2.864   3.237 -0.0514  0.2569 -0.1888
  635MOL0     N83738   5.309   3.099   3.431 -0.4133 -0.6376 -0.4399
  635MOL0     N83739   5.350   3.166   3.533 -0.6065  0.4846  0.2037
  635MOL0     C83740   4.876   3.022   4.104  0.1383  0.4152 -0.4758
  635MOL0     C83741   4.744   3.065   4.117  0.3253  0.0169 -0.1119
  635MOL0     C83742   4.288   3.048   4.086 -0.0300  1.3257  0.6679
  635MOL0     C83743   4.236   3.042   4.209 -1.0027  0.1461 -0.1781
  635MOL0     C83744   4.097   3.041   4.238 -0.3072 -0.3092 -0.9172
  635MOL0     C83745   3.993   3.037   4.133  0.6885  0.8121  1.0055
  635MOL0     O83746   3.850   3.042   4.141 -0.5446  1.0343 -0.3169
  635MOL0     C83747   3.792   3.016   4.267 -0.4247 -0.0063  0.2150
  635MOL0     C83748   3.666   2.928   4.242  0.1854 -0.1739  0.2525
  635MOL0     C83749   3.538   3.004   4.240  0.6868 -0.5283 -0.2578
  635MOL0     C83750   3.541   3.140   4.165  0.4874 -0.6575  0.0672
  635MOL0     C83751   3.405   3.189   4.163  0.2009 -0.6079 -0.2072
  635MOL0     C83752   3.288   3.225   4.161 -0.0990 -0.1897 -0.1047
  635MOL0     C83753   4.052   3.034   4.002 -0.7074  0.3673 -0.6192
  635MOL0     C83754   4.194   3.039   3.978 -0.0546 -0.7175  0.4289
  635MOL0     H83755   4.589   2.776   4.180 -2.1437  2.5749  1.6797
  635MOL0     H83756   4.814   2.691   4.164  2.6213 -0.2178 -1.8904
  635MOL0     H83757   5.070   2.636   4.094  0.5562  0.2051 -0.1469
  635MOL0     H83758   5.005   2.688   4.251  2.0260 -2.2546  0.8245
  635MOL0     H83759   5.226   2.623   4.281  0.3954 -1.8805 -2.0394
  635MOL0     H83760   5.214   2.808   4.282 -2.0232  2.4915 -3.9484
  635MOL0     H83761   5.332   2.638   4.071 -1.3216 -1.7446  2.4328
  635MOL0     H83762   5.423   2.751   4.175 -0.5999 -0.0094  1.2184
  635MOL0     H83763   5.234   2.786   3.955  0.3069  0.0710 -1.0771
  635MOL0     H83764   5.253   2.924   4.063  1.5758  2.1404 -1.0509
  635MOL0     H83765   5.494   2.782   3.909  1.0426 -0.1505  1.8660
  635MOL0     H83766   5.491   2.932   4.000 -0.2390  0.5565 -1.6622
  635MOL0     H83767   5.342   2.903   3.741 -1.9243  0.5236  0.6256
  635MOL0     H83768   5.484   2.979   3.768 -1.5110 -0.8719 -1.8651
  635MOL0     H83769   5.186   3.034   3.866 -0.1097 -0.1459  0.7060
  635MOL0     H83770   5.320   3.097   3.967  2.1404  1.3845 -1.4822
  635MOL0     H83771   5.377   3.250   3.797 -1.9978  2.1756  2.7823
  635MOL0     H83772   5.204   3.253   3.808  2.5140  2.2650  1.4859
  635MOL0     H83773   5.082   3.038   3.664  0.1032 -1.0804 -1.8935
  635MOL0     H83774   5.126   2.851   3.425  0.6370  0.0197  1.4999
  635MOL0     H83775   5.175   2.955   3.280 -1.8931  0.7789 -1.4635
  635MOL0     H83776   4.976   3.091   3.303  0.7211 -1.9090 -4.2033
  635MOL0     H83777   4.936   3.015   3.461  2.0304 -2.1983  1.3998
  635MOL0     H83778   4.958   2.884   3.185 -1.4743 -1.6118 -0.7764
  635MOL0     H83779   4.901   2.809   3.329  3.6507  1.9667  2.0109
  635MOL0     H83780   4.738   3.032   3.205  2.7042 -1.2089 -2.2563
  635MOL0     H83781   4.709   2.938   3.352  2.9415  0.6001  1.3151
  635MOL0     H83782   4.611   2.660   3.008  0.7348 -0.1722  1.0507
  635MOL0     H83783   4.373   2.574   2.993 -0.1638 -0.5103  1.9419
  635MOL0     H83784   3.929   2.758   3.020 -0.4947 -1.7001 -0.2849
  635MOL0     H83785   3.692   2.760   3.027 -1.2217 -2.0841 -0.2513
  635MOL0     H83786   3.517   2.774   3.445 -1.9403  0.5425  0.8381
  635MOL0     H83787   3.443   2.621   3.409 -0.0935  0.0854  0.0156
  635MOL0     H83788   3.357   2.848   3.224  0.7813 -0.0658  0.5241
  635MOL0     H83789   3.303   2.870   3.388  0.0065  2.2061 -2.2448
  635MOL0     H83790   3.213   2.616   3.385  1.1652 -0.3442 -0.8713
  635MOL0     H83791   3.248   2.624   3.213  2.7885 -2.0825  1.5986
  635MOL0     H83792   3.056   2.804   3.371 -1.0113 -1.4089  0.5921
  635MOL0     H83793   3.109   2.828   3.193  0.9303 -2.4966 -1.8277
  635MOL0     H83794   2.995   2.572   3.273 -1.5165  1.0843  1.9605
  635MOL0     H83795   2.993   2.649   3.119 -0.7516  0.0373 -0.2861
  635MOL0     H83796   2.835   2.832   3.190 -3.7399  0.2169  0.5449
  635MOL0     H83797   2.820   2.748   3.352 -3.7120 -2.2728  0.4338
  635MOL0     H83798   2.781   2.609   3.086  0.3480 -0.1424 -0.5269
  635MOL0     H83799   2.722   2.555   3.251  3.7353  0.1643  0.7741
  635MOL0     H83800   2.617   2.798   3.118  2.5077 -0.1238  0.8611
  635MOL0     H83801   2.558   2.715   3.262  1.1743  0.9431  0.5130
  635MOL0     H83802   3.700   2.671   3.449  0.2957 -1.6875  0.3246
  635MOL0     H83803   3.945   2.663   3.445 -1.4322  0.2843  1.1611
  635MOL0     H83804   4.273   2.837   3.319 -4.0804 -2.6265 -1.7416
  635MOL0     H83805   4.499   2.943   3.304 -0.6338  0.4793 -0.1778
  635MOL0     H83806   4.954   3.084   4.061  0.5085 -0.3900 -0.9925
  635MOL0     H83807   4.729   3.170   4.095 -3.6895 -1.0652 -3.9430
  635MOL0     H83808   4.302   3.046   4.295 -1.0018  1.3306 -0.2168
  635MOL0     H83809   4.072   3.029   4.343 -0.6252 -5.1634 -1.3477
  635MOL0     H83810   3.779   3.113   4.314  3.4543 -0.5754  2.8852
  635MOL0     H83811   3.865   2.971   4.335  0.1345  1.0354  0.3185
  635MOL0     H83812   3.677   2.866   4.153 -0.5612  0.8819 -0.6121
  635MOL0     H83813   3.664   2.863   4.329  0.1331 -2.9973 -1.7273
  635MOL0     H83814   3.503   3.016   4.342 -0.0444 -3.0768 -0.1499
  635MOL0     H83815   3.460   2.946   4.190 -0.2822  0.7094 -0.2513
  635MOL0     H83816   3.601   3.218   4.213  1.6338 -0.1773 -2.0320
  635MOL0     H83817   3.577   3.134   4.062 -1.9745  3.9557 -1.3650
  635MOL0     H83818   3.184   3.251   4.150  0.2610  0.2622 -3.1028
  635MOL0     H83819   3.988   3.033   3.915  1.3002 -1.6551 -2.1954
  635MOL0     H83820   4.235   3.064   3.880 -2.7539 -0.7194 -0.8164
  636MOL0     O83821   8.533   7.313   3.303  0.3985 -0.5613  0.2488
  636MOL0     C83822   8.431   7.247   3.309 -0.7092  0.6031  0.3237
  636MOL0     O83823   8.299   7.287   3.282  0.2660  0.1223  0.6823
  636MOL0     C83824   8.253   7.416   3.252 -0.2854  0.8471  0.3420
  636MOL0     C83825   8.312   7.538   3.299 -0.9670 -0.2832  0.6363
  636MOL0     C83826   8.252   7.663   3.273 -0.1460 -0.1680  0.2772
  636MOL0     C83827   8.130   7.672   3.221 -0.1249  0.1738 -0.2450
  636MOL0     O83828   8.076   7.794   3.174  0.8495  0.3676  0.2642
  636MOL0     C83829   8.025   7.893   3.261 -0.2772  0.0094 -0.5932
  636MOL0     C83830   7.934   7.988   3.181  0.2668  0.0349 -0.3691
  636MOL0     C83831   7.787   7.944   3.195 -0.6163 -0.4619  0.1789
  636MOL0     C83832   7.757   7.812   3.123  0.0712  0.8773 -0.0804
  636MOL0     C83833   7.716   7.700   3.223  0.4348  0.9482 -0.9354
  636MOL0     C83834   7.655   7.571   3.167  0.1634  0.0278 -0.4239
  636MOL0     C83835   7.512   7.591   3.119  0.9028 -0.4673  0.1368
  636MOL0     C83836   7.406   7.578   3.232  0.2694  0.6973  0.1320
  636MOL0     N83837   7.277   7.570   3.179  0.1959 -0.9615 -0.2496
  636MOL0     C83838   7.197   7.465   3.180  0.0828  0.8003 -0.1093
  636MOL0     C83839   7.089   7.495   3.105 -0.9363  0.8779 -0.0030
  636MOL0     C83840   6.963   7.405   3.100  0.2738  1.0488  0.1938
  636MOL0     C83841   6.894   7.394   3.244  0.1938  0.0530  0.8575
  636MOL0     C83842   6.767   7.312   3.219  0.5600 -0.8636 -0.0985
  636MOL0     C83843   6.677   7.290   3.335 -0.5206 -0.6627  0.2950
  636MOL0     O83844   6.561   7.228   3.291  0.2463 -0.1901  0.2373
  636MOL0     C83845   6.454   7.200   3.363  0.6029  0.1487 -1.4875
  636MOL0     C83846   6.430   7.251   3.498  0.2779 -0.8586 -0.8517
  636MOL0     C83847   6.313   7.213   3.563  0.5821  0.3219 -0.2990
  636MOL0     C83848   6.229   7.114   3.516 -0.1788 -0.3834  0.8706
  636MOL0     C83849   6.100   7.077   3.569  0.0054  0.8850  0.3342
  636MOL0     O83850   6.061   6.948   3.563  0.0986  0.3026  0.1130
  636MOL0     C83851   5.938   6.912   3.617  0.4614  0.6898 -0.2759
  636MOL0     C83852   5.919   6.862   3.748 -0.5344  0.8624  1.0221
  636MOL0     C83853   5.788   6.827   3.786 -0.5481 -1.1922 -0.3402
  636MOL0     C83854   5.673   6.853   3.710  0.5177  0.1123 -0.0046
  636MOL0     O83855   5.548   6.813   3.736  0.1806 -0.4105 -0.7258
  636MOL0     C83856   5.502   6.795   3.872  0.2364  0.7531  0.0540
  636MOL0     C83857   5.343   6.818   3.872  0.1662  0.1320  1.4294
  636MOL0     C83858   5.288   6.795   4.016  0.3083 -0.6805  0.8770
  636MOL0     C83859   5.151   6.862   4.024 -0.3939  0.1802  0.0170
  636MOL0     C83860   5.097   6.847   4.160  0.0777 -0.4091 -0.4646
  636MOL0     C83861   5.088   6.695   4.203  0.9946  0.3823 -0.5869
  636MOL0     C83862   4.965   6.672   4.294  0.3107  0.5495  0.0336
  636MOL0     C83863   4.985   6.554   4.399  0.0032 -0.1499 -0.0525
  636MOL0    Cl83864   5.044   6.418   4.321  0.4462 -0.0873 -0.4738
  636MOL0     C83865   5.699   6.899   3.582 -0.4243  0.1762 -0.5097
  636MOL0     C83866   5.823   6.923   3.538 -0.6367 -0.4682  0.1619
  636MOL0     O83867   6.038   7.165   3.628 -0.2351  0.0707 -0.1673
  636MOL0     C83868   6.254   7.058   3.386  0.5830 -0.2499 -0.7368
  636MOL0     C83869   6.370   7.095   3.317  0.2352  0.1769 -0.3431
  636MOL0     N83870   7.093   7.626   3.072  0.6842  0.2098  0.7590
  636MOL0     N83871   7.207   7.674   3.121 -0.1087 -0.4765 -0.4586
  636MOL0     C83872   8.062   7.554   3.168 -1.1453  0.6063 -0.7107
  636MOL0     C83873   8.128   7.429   3.192  0.8369 -0.3062 -0.4215
  636MOL0     C83874   8.437   7.109   3.376 -0.1646  1.6796 -0.6508
  636MOL0     C83875   8.322   7.056   3.434 -0.6781 -0.2977  0.3071
  636MOL0     C83876   8.310   6.930   3.485 -0.5188  0.5373 -0.3692
  636MOL0     C83877   8.415   6.840   3.479  0.5977 -0.2156 -0.3282
  636MOL0     O83878   8.406   6.718   3.539  0.2589  0.3805  0.2685
  636MOL0     C83879   8.440   6.605   3.464 -0.1776 -1.2257  1.2142
  636MOL0     C83880   8.362   6.580   3.331  0.3355  0.0777  0.8855
  636MOL0     C83881   8.388   6.435   3.283  0.4253 -0.1336  1.1315
  636MOL0     C83882   8.322   6.414   3.142 -0.1949  0.7246 -0.7826
  636MOL0     C83883   8.175   6.437   3.141 -0.0312  0.7863 -0.2790
  636MOL0     C83884   8.056   6.471   3.130 -0.4120 -0.4362 -0.0388
  636MOL0     C83885   8.543   6.896   3.433  0.2656 -0.6927  0.4070
  636MOL0     C83886   8.551   7.026   3.384  0.0249 -0.0521 -0.4617
  636MOL0     H83887   8.408   7.519   3.347 -0.1118  1.1140 -0.4488
  636MOL0     H83888   8.299   7.751   3.315  1.2122 -0.0826 -1.3081
  636MOL0     H83889   8.119   7.944   3.288 -0.3577 -0.6287  0.9811
  636MOL0     H83890   7.984   7.853   3.354 -0.6715 -1.9240 -1.5535
  636MOL0     H83891   7.969   7.991   3.077  1.3231 -1.0765 -0.0578
  636MOL0     H83892   7.938   8.089   3.224  0.6071 -0.9422  2.0460
  636MOL0     H83893   7.730   8.024   3.147 -0.7840 -0.9093 -0.3676
  636MOL0     H83894   7.757   7.940   3.300  0.4355  2.8013  0.7210
  636MOL0     H83895   7.669   7.816   3.059 -0.7279 -5.4379 -0.0040
  636MOL0     H83896   7.837   7.769   3.062  1.9537  2.9411  0.7724
  636MOL0     H83897   7.666   7.726   3.316  0.8971  0.5656 -0.5734
  636MOL0     H83898   7.813   7.666   3.262 -0.8593 -0.7105  1.0660
  636MOL0     H83899   7.668   7.492   3.242  0.2090 -0.7569 -1.2545
  636MOL0     H83900   7.716   7.549   3.080  1.0673  1.6968 -0.2625
  636MOL0     H83901   7.500   7.683   3.061 -2.8581 -0.4656  0.6869
  636MOL0     H83902   7.493   7.516   3.041  0.3917  0.4763 -0.6645
  636MOL0     H83903   7.410   7.662   3.302 -2.0102 -0.2107  1.4760
  636MOL0     H83904   7.423   7.479   3.275  0.2221 -0.2008 -1.8162
  636MOL0     H83905   7.212   7.375   3.238 -0.4643 -2.1961 -4.1954
  636MOL0     H83906   6.984   7.307   3.055 -2.7072 -0.8165  2.5235
  636MOL0     H83907   6.890   7.465   3.046 -1.6447  0.3636  1.9050
  636MOL0     H83908   6.870   7.493   3.283  0.5340 -0.3665  2.1772
  636MOL0     H83909   6.957   7.334   3.311  1.4900 -0.5371 -0.8231
  636MOL0     H83910   6.713   7.368   3.143 -0.8872 -0.8986  0.8566
  636MOL0     H83911   6.790   7.215   3.175 -1.7589 -0.0824 -3.3856
  636MOL0     H83912   6.656   7.380   3.394 -1.1227 -1.8289  1.9362
  636MOL0     H83913   6.738   7.220   3.392  0.9617 -0.4800 -1.0004
  636MOL0     H83914   6.494   7.327   3.541 -1.1746 -0.9030  1.5735
  636MOL0     H83915   6.286   7.259   3.658 -1.0629 -1.3669  0.1146
  636MOL0     H83916   6.008   6.852   3.809  0.5788  1.4319 -0.4581
  636MOL0     H83917   5.790   6.782   3.885 -0.5676  1.6562  1.0605
  636MOL0     H83918   5.551   6.870   3.936  2.6320  2.2777 -3.2790
  636MOL0     H83919   5.526   6.695   3.908  1.8258  0.4596 -1.7054
  636MOL0     H83920   5.294   6.750   3.801 -0.4451 -0.2223  2.1813
  636MOL0     H83921   5.330   6.918   3.828 -1.1787 -1.7788 -3.1697
  636MOL0     H83922   5.355   6.833   4.093  1.6000 -0.0474 -0.5053
  636MOL0     H83923   5.283   6.687   4.036 -4.7243 -1.1783 -1.3915
  636MOL0     H83924   5.144   6.969   4.002 -0.5181  0.2487  0.3738
  636MOL0     H83925   5.094   6.805   3.950  0.7303 -2.2379  0.8803
  636MOL0     H83926   4.998   6.892   4.154 -0.0323 -0.8102 -2.4414
  636MOL0     H83927   5.152   6.898   4.240 -3.0736  0.7449  1.1220
  636MOL0     H83928   5.175   6.660   4.258  0.5970  0.7240  0.2666
  636MOL0     H83929   5.086   6.635   4.111 -0.6007 -0.7736  0.1686
  636MOL0     H83930   4.949   6.769   4.343 -1.2160 -0.3145  1.3539
  636MOL0     H83931   4.872   6.656   4.238  1.8271 -0.2170 -2.4277
  636MOL0     H83932   4.896   6.526   4.457  0.4844 -2.6407 -0.3988
  636MOL0     H83933   5.053   6.593   4.475 -0.3076  2.5294 -1.0633
  636MOL0     H83934   5.624   6.904   3.503  0.2179 -0.7018 -1.2038
  636MOL0     H83935   5.826   6.953   3.434 -0.0859  2.7535  0.9994
  636MOL0     H83936   6.191   6.984   3.338  1.9534 -3.6409  2.2264
  636MOL0     H83937   6.383   7.064   3.213 -1.1047  1.1684 -0.8400
  636MOL0     H83938   7.963   7.561   3.124 -1.8015  0.5343  0.6887
  636MOL0     H83939   8.080   7.339   3.157  2.2264 -1.2456 -0.0085
  636MOL0     H83940   8.236   7.121   3.428 -0.9345 -0.1880  3.3939
  636MOL0     H83941   8.215   6.894   3.523  0.4215 -0.1337  1.4583
  636MOL0     H83942   8.419   6.516   3.524  6.0812 -2.0689  2.8513
  636MOL0     H83943   8.547   6.624   3.452 -0.9468  2.5773 -1.4435
  636MOL0     H83944   8.256   6.593   3.356  1.0517  2.8200  2.9420
  636MOL0     H83945   8.391   6.651   3.252 -1.7512 -0.3186 -0.3210
  636MOL0     H83946   8.345   6.375   3.364 -0.0355 -0.1124  0.9087
  636MOL0     H83947   8.495   6.416   3.270  0.4783  1.0726 -0.5102
  636MOL0     H83948   8.361   6.494   3.078  2.6363 -0.1692 -0.3325
  636MOL0     H83949   8.348   6.319   3.094  1.1592 -0.1593  1.5600
  636MOL0     H83950   7.951   6.486   3.144 -0.5496 -1.4869  0.1545
  636MOL0     H83951   8.625   6.824   3.435 -1.3896 -2.6718  1.1689
  636MOL0     H83952   8.651   7.060   3.358  0.2165  1.0285  1.5317
  637MOL0     O83953   9.400   8.331   4.331 -0.3260  0.3215  0.5672
  637MOL0     C83954   9.405   8.241   4.255 -0.1394  1.1308 -0.3559
  637MOL0     O83955   9.311   8.196   4.171  0.8234 -0.1750  0.5401
  637MOL0     C83956   9.183   8.246   4.168  0.3098  0.3060  0.4531
  637MOL0     C83957   9.090   8.146   4.181 -1.1343  0.4525  0.2588
  637MOL0     C83958   8.955   8.185   4.208  0.2676  0.3682  1.0579
  637MOL0     C83959   8.918   8.316   4.206  0.6970 -0.2062  0.6208
  637MOL0     O83960   8.788   8.349   4.232  0.5590 -0.1787  0.3954
  637MOL0     C83961   8.739   8.458   4.149  0.3781 -0.2181  0.3631
  637MOL0     C83962   8.587   8.464   4.154 -0.1787  1.0209 -0.0049
  637MOL0     C83963   8.521   8.341   4.088  0.5651 -0.1294  0.6958
  637MOL0     C83964   8.368   8.358   4.090  0.1308 -0.8870 -0.7111
  637MOL0     C83965   8.297   8.289   3.979  0.5903 -0.4710  0.2754
  637MOL0     C83966   8.144   8.297   4.019 -0.4363 -0.3621 -0.3360
  637MOL0     C83967   8.077   8.216   3.909 -0.0711  0.8097  0.4703
  637MOL0     C83968   7.947   8.156   3.965 -0.3749  0.4465  0.4412
  637MOL0     N83969   7.865   8.058   3.889 -0.4608 -0.1349  1.1205
  637MOL0     C83970   7.770   8.081   3.797  0.1643 -0.8245 -0.3623
  637MOL0     C83971   7.752   7.968   3.731 -1.2771 -0.0668  0.1962
  637MOL0     C83972   7.669   7.937   3.607  0.7250  0.9775  0.1267
  637MOL0     C83973   7.552   7.836   3.630  0.9742  0.2269  0.9113
  637MOL0     C83974   7.430   7.850   3.534 -0.5626  0.3292 -0.0486
  637MOL0     C83975   7.303   7.761   3.563  0.0805 -0.5534 -0.6432
  637MOL0     O83976   7.342   7.621   3.547 -0.5039 -0.3972  0.3421
  637MOL0     C83977   7.253   7.530   3.572 -0.1071  0.2333 -0.0309
  637MOL0     C83978   7.111   7.545   3.560 -0.5875 -0.5588 -1.0258
  637MOL0     C83979   7.033   7.435   3.566  0.1152  0.7458  0.1282
  637MOL0     C83980   7.080   7.304   3.590 -0.7715 -0.5819  0.3159
  637MOL0     C83981   6.979   7.197   3.596  0.6590 -0.0695 -0.6720
  637MOL0     O83982   7.024   7.072   3.605 -0.5142 -0.0059 -0.6955
  637MOL0     C83983   6.952   6.957   3.627  0.3964 -0.5866  0.8450
  637MOL0     C83984   7.012   6.842   3.678  0.4143 -0.1193 -1.1402
  637MOL0     C83985   6.942   6.724   3.701  0.3465  0.7388  0.9100
  637MOL0     C83986   6.811   6.712   3.672  0.4037 -0.4387  0.7489
  637MOL0     O83987   6.758   6.593   3.700  0.0891  0.4224 -0.6079
  637MOL0     C83988   6.646   6.536   3.629 -0.0198 -0.3310 -0.0438
  637MOL0     C83989   6.597   6.411   3.700  0.5004 -0.4982 -0.1162
  637MOL0     C83990   6.488   6.345   3.614  0.9979 -0.3295 -0.1933
  637MOL0     C83991   6.439   6.226   3.699  0.2151  0.3107 -0.0965
  637MOL0     C83992   6.322   6.152   3.641  0.6378  0.5592 -0.3971
  637MOL0     C83993   6.257   6.079   3.759  0.7193  0.4402  0.4033
  637MOL0     C83994   6.144   5.988   3.707  0.0327 -0.5480 -0.6607
  637MOL0     C83995   6.063   5.926   3.819  0.1158 -0.4571 -0.7850
  637MOL0    Cl83996   5.959   5.787   3.780  0.1618  0.3369  0.3244
  637MOL0     C83997   6.743   6.822   3.607  0.2456  0.0883 -0.5235
  637MOL0     C83998   6.809   6.947   3.579 -0.1336  0.1853  0.7508
  637MOL0     O83999   6.858   7.229   3.612 -0.6790  0.1924 -0.1722
  637MOL0     C84000   7.220   7.289   3.591 -0.4700  0.3509 -0.4499
  637MOL0     C84001   7.304   7.399   3.584 -0.2878  1.1733  0.5885
  637MOL0     N84002   7.830   7.870   3.786  0.1664 -0.8801 -0.1408
  637MOL0     N84003   7.904   7.931   3.877 -0.0653  0.3678  0.5377
  637MOL0     C84004   9.013   8.412   4.177  1.0745 -0.9809 -0.2029
  637MOL0     C84005   9.150   8.383   4.165 -0.1531  0.6953  0.4875
  637MOL0     C84006   9.523   8.150   4.253  0.7728  0.2146 -0.6003
  637MOL0     C84007   9.624   8.174   4.348 -0.4092 -0.7487  0.0683
  637MOL0     C84008   9.736   8.099   4.367 -0.1379 -0.2506  1.1151
  637MOL0     C84009   9.752   7.978   4.287  1.0647  1.0383  0.6283
  637MOL0     O84010   9.859   7.904   4.305 -0.5890  0.2613 -0.7980
  637MOL0     C84011   9.910   7.806   4.214 -0.1689 -0.5521  0.5502
  637MOL0     C84012  10.039   7.740   4.267 -0.2203  0.2527  0.3815
  637MOL0     C84013  10.149   7.842   4.291  0.5521  0.3551  0.0509
  637MOL0     C84014  10.274   7.759   4.327  0.2069 -1.2173 -0.2146
  637MOL0     C84015  10.389   7.850   4.292  0.4623 -0.4714 -0.9168
  637MOL0     C84016  10.490   7.919   4.290 -0.6334 -0.0380  0.2311
  637MOL0     C84017   9.657   7.960   4.183 -0.3022 -0.2878  0.6207
  637MOL0     C84018   9.542   8.044   4.166  0.0552 -0.4523  0.8195
  637MOL0     H84019   9.124   8.044   4.194  0.1527  1.0530  2.0415
  637MOL0     H84020   8.888   8.104   4.235 -0.6099  0.4472 -0.7079
  637MOL0     H84021   8.775   8.452   4.046  1.1105  0.6042  0.5582
  637MOL0     H84022   8.783   8.549   4.191 -2.1230  2.4380 -2.2185
  637MOL0     H84023   8.538   8.548   4.104 -1.5392  0.1371 -0.2262
  637MOL0     H84024   8.549   8.470   4.256 -2.7783  3.6053 -0.9877
  637MOL0     H84025   8.538   8.249   4.144 -0.8297 -2.4904 -2.4688
  637MOL0     H84026   8.551   8.335   3.983 -1.0801 -0.9262  0.2377
  637MOL0     H84027   8.329   8.328   4.187  2.5000 -1.1649  0.2158
  637MOL0     H84028   8.346   8.465   4.080 -2.5014 -1.2727  0.2034
  637MOL0     H84029   8.329   8.184   3.978 -0.2223 -0.7276 -0.2136
  637MOL0     H84030   8.303   8.335   3.879 -1.4561  1.8291  1.1122
  637MOL0     H84031   8.099   8.396   4.024 -1.7915 -0.9430 -0.4856
  637MOL0     H84032   8.135   8.247   4.116  0.9359 -2.4124 -1.1849
  637MOL0     H84033   8.071   8.269   3.814  0.4998 -1.1632 -0.7166
  637MOL0     H84034   8.131   8.121   3.900 -1.3008  0.0283  1.1837
  637MOL0     H84035   7.888   8.242   3.997  2.3724  2.5510  0.2873
  637MOL0     H84036   7.976   8.094   4.051  1.2381  0.4217 -0.0875
  637MOL0     H84037   7.725   8.179   3.787 -1.2960 -1.4557 -0.2972
  637MOL0     H84038   7.732   7.905   3.524  0.3706 -2.2944  0.9744
  637MOL0     H84039   7.631   8.031   3.565 -1.7108 -0.0709 -0.2141
  637MOL0     H84040   7.508   7.849   3.729 -2.1801 -1.2011 -0.1391
  637MOL0     H84041   7.588   7.733   3.639  2.6156 -0.0050 -4.4622
  637MOL0     H84042   7.405   7.956   3.544 -1.0025  0.2050  0.1937
  637MOL0     H84043   7.468   7.820   3.436  0.1196 -1.5550  0.7312
  637MOL0     H84044   7.219   7.781   3.496 -0.6026 -0.2789  0.2768
  637MOL0     H84045   7.277   7.780   3.668 -2.2518  2.1283 -1.5779
  637MOL0     H84046   7.062   7.641   3.547  1.9813  1.2927  1.4235
  637MOL0     H84047   6.934   7.473   3.543  1.3814  2.9257 -2.1565
  637MOL0     H84048   7.116   6.849   3.708  0.5017 -1.7534 -0.9451
  637MOL0     H84049   6.994   6.643   3.752  0.0564 -0.1089 -0.1007
  637MOL0     H84050   6.677   6.495   3.533 -4.3995  2.2665 -2.9169
  637MOL0     H84051   6.568   6.613   3.619  0.9091  0.4636 -1.6060
  637MOL0     H84052   6.555   6.440   3.797 -2.6259 -0.1784 -1.4261
  637MOL0     H84053   6.672   6.335   3.724  2.0216  1.5214  1.8173
  637MOL0     H84054   6.532   6.313   3.519  0.4059  1.5180 -1.1361
  637MOL0     H84055   6.409   6.410   3.577  3.4688  2.9236 -0.1824
  637MOL0     H84056   6.520   6.153   3.707  2.0260  1.9312 -2.2638
  637MOL0     H84057   6.415   6.261   3.800  1.7823 -1.5670  1.0007
  637MOL0     H84058   6.363   6.080   3.570 -2.7043 -2.0083  0.0558
  637MOL0     H84059   6.252   6.220   3.592 -0.5786  1.0441  1.8701
  637MOL0     H84060   6.210   6.156   3.821  0.3182  2.1615 -1.8807
  637MOL0     H84061   6.332   6.032   3.822  2.3817 -0.0536 -1.8274
  637MOL0     H84062   6.074   6.045   3.646  0.8700  0.9154 -0.2944
  637MOL0     H84063   6.198   5.912   3.649 -0.5616 -1.7677  0.3291
  637MOL0     H84064   6.007   6.002   3.873 -0.3688 -2.2904  1.4348
  637MOL0     H84065   6.135   5.881   3.888 -1.2210 -0.9349  0.3336
  637MOL0     H84066   6.638   6.812   3.579 -0.4938  0.6782  1.7875
  637MOL0     H84067   6.749   7.018   3.522 -0.3341  0.1734  0.9453
  637MOL0     H84068   7.270   7.194   3.601 -1.1015  0.0174 -0.4056
  637MOL0     H84069   7.412   7.386   3.591 -0.2996  0.1470 -0.8602
  637MOL0     H84070   8.978   8.514   4.190 -1.8332 -1.9745  0.3799
  637MOL0     H84071   9.229   8.456   4.149 -0.8993  1.9191  2.0218
  637MOL0     H84072   9.617   8.253   4.422  0.6071 -3.7471  3.6639
  637MOL0     H84073   9.801   8.108   4.453 -0.0629  1.1271  0.9327
  637MOL0     H84074   9.929   7.855   4.118 -1.1325 -1.3676 -0.0893
  637MOL0     H84075   9.839   7.724   4.199  0.6195 -1.3553  1.1302
  637MOL0     H84076  10.020   7.684   4.360 -1.4596 -1.1888 -0.6778
  637MOL0     H84077  10.072   7.663   4.197  0.6693 -0.9141  2.0238
  637MOL0     H84078  10.137   7.918   4.369 -0.4440  1.0825 -0.7877
  637MOL0     H84079  10.172   7.889   4.196 -1.0237  2.3656  0.5802
  637MOL0     H84080  10.273   7.741   4.435  2.4653  2.2330  0.5452
  637MOL0     H84081  10.280   7.668   4.267  2.4584 -0.9061 -0.5350
  637MOL0     H84082  10.578   7.979   4.300 -1.0557  0.8528 -1.1841
  637MOL0     H84083   9.666   7.866   4.129 -1.1327 -0.0990  0.1387
  637MOL0     H84084   9.465   8.031   4.091 -1.0420  0.9318  1.6488
  638MOL0     O84085   2.710   1.403   1.249  0.2870  0.5362  0.0765
  638MOL0     C84086   2.711   1.275   1.272 -0.2004 -0.5113  0.5200
  638MOL0     O84087   2.606   1.186   1.245 -0.0039 -0.0639  0.0084
  638MOL0     C84088   2.480   1.230   1.215 -0.5796  0.6122  0.3745
  638MOL0     C84089   2.456   1.326   1.115 -0.8306 -0.2415 -0.2542
  638MOL0     C84090   2.332   1.367   1.092  0.4619  0.3165 -0.2819
  638MOL0     C84091   2.220   1.327   1.163  0.3466  0.6754 -0.2414
  638MOL0     O84092   2.089   1.374   1.136  0.1738 -0.0122  0.3056
  638MOL0     C84093   2.060   1.408   1.002  0.6473  0.2270  1.2256
  638MOL0     C84094   1.908   1.384   0.979 -0.2675 -0.0530  1.3485
  638MOL0     C84095   1.880   1.237   0.971 -0.5093  0.3324  0.3958
  638MOL0     C84096   1.731   1.208   0.948  0.4358  0.4344 -0.5547
  638MOL0     C84097   1.693   1.064   0.910 -1.0904  1.0781  0.0132
  638MOL0     C84098   1.725   1.034   0.758 -0.0588 -0.1801 -0.2393
  638MOL0     C84099   1.638   1.119   0.669 -0.7724  0.1068 -0.4766
  638MOL0     C84100   1.618   1.044   0.543 -0.2994 -0.0099 -0.0815
  638MOL0     N84101   1.538   1.115   0.448 -0.5811  0.0440 -0.4870
  638MOL0     C84102   1.425   1.190   0.467 -0.3140  0.1665 -0.5865
  638MOL0     C84103   1.390   1.239   0.347  0.0727 -0.2612  0.8381
  638MOL0     C84104   1.267   1.319   0.332 -0.5248  0.3929 -0.1759
  638MOL0     C84105   1.282   1.467   0.384  0.1613  0.2724  0.0781
  638MOL0     C84106   1.144   1.533   0.334 -0.4572  0.1750  0.9694
  638MOL0     C84107   1.128   1.679   0.384  0.4199  0.0339 -0.5317
  638MOL0     O84108   0.998   1.725   0.374  0.9513 -0.1931  0.3967
  638MOL0     C84109   0.945   1.749   0.257 -0.6052 -0.6057  0.1022
  638MOL0     C84110   1.019   1.753   0.141  0.2241  0.3181 -0.1530
  638MOL0     C84111   0.959   1.793   0.018 -0.0635 -0.2627 -0.5884
  638MOL0     C84112   0.822   1.816   0.009 -0.4915 -0.4308 -0.5418
  638MOL0     C84113   0.764   1.864  -0.110 -0.3035 -0.0226  0.3499
  638MOL0     O84114   0.634   1.827  -0.133 -0.0637  0.3711  0.1331
  638MOL0     C84115   0.557   1.875  -0.237 -0.1781  0.8514  0.0680
  638MOL0     C84116   0.421   1.863  -0.225  0.3128  0.0192 -0.1191
  638MOL0     C84117   0.332   1.916  -0.318 -0.7712  0.4470 -0.3835
  638MOL0     C84118   0.385   1.972  -0.436  0.1656 -0.0196  0.1203
  638MOL0     O84119   0.314   2.032  -0.532  0.3142 -0.0793  0.5117
  638MOL0     C84120   0.177   2.076  -0.515 -0.9583 -0.1326 -0.1224
  638MOL0     C84121   0.109   2.121  -0.640  0.7458  0.2485 -0.2894
  638MOL0     C84122   0.016   2.232  -0.608 -0.1211 -0.3483 -0.2832
  638MOL0     C84123  -0.030   2.301  -0.733  0.5119  0.3954  0.1216
  638MOL0     C84124  -0.116   2.216  -0.831  0.3212 -0.5327 -0.2884
  638MOL0     C84125  -0.226   2.309  -0.892  0.6280  0.2136 -0.5629
  638MOL0     C84126  -0.352   2.334  -0.805  0.9706 -0.3051 -0.7902
  638MOL0     C84127  -0.439   2.208  -0.807  0.2763 -0.0652  0.0337
  638MOL0    Cl84128  -0.612   2.250  -0.791  0.7762 -0.3404 -0.1274
  638MOL0     C84129   0.517   1.980  -0.455  0.0143 -1.0144 -0.6274
  638MOL0     C84130   0.608   1.932  -0.358 -0.2475 -0.2646 -0.8501
  638MOL0     O84131   0.832   1.934  -0.183  0.7721 -0.5125 -0.2854
  638MOL0     C84132   0.746   1.803   0.128 -0.0245 -0.3281  0.1600
  638MOL0     C84133   0.815   1.780   0.250 -0.3946  0.6119 -0.7456
  638MOL0     N84134   1.484   1.192   0.256  0.1258 -0.6069  0.1325
  638MOL0     N84135   1.575   1.119   0.314 -0.0995  0.5328  0.3171
  638MOL0     C84136   2.246   1.250   1.275  0.9379  0.0856  0.5046
  638MOL0     C84137   2.372   1.193   1.300 -0.4460  0.0495  0.7808
  638MOL0     C84138   2.834   1.221   1.330 -0.5055 -1.1140 -0.6606
  638MOL0     C84139   2.955   1.290   1.343  0.3710 -0.3393  0.2402
  638MOL0     C84140   3.073   1.242   1.397 -0.6046 -0.4765  0.2882
  638MOL0     C84141   3.087   1.107   1.428  0.1979 -0.8085 -0.2233
  638MOL0     O84142   3.195   1.043   1.470 -0.2357 -0.5554 -0.3354
  638MOL0     C84143   3.297   1.108   1.548  0.5730  0.3943 -0.5690
  638MOL0     C84144   3.397   1.007   1.599 -0.3478 -1.0821  0.3617
  638MOL0     C84145   3.520   1.001   1.494 -0.1210 -0.2016  0.0919
  638MOL0     C84146   3.613   0.891   1.533  0.0352 -0.5143 -0.3311
  638MOL0     C84147   3.642   0.881   1.678  0.9315 -0.4358 -0.3392
  638MOL0     C84148   3.663   0.885   1.800 -0.4778 -0.3302 -0.3582
  638MOL0     C84149   2.966   1.033   1.407 -0.5977 -0.5539  0.3779
  638MOL0     C84150   2.848   1.087   1.366 -0.1786 -0.1030 -0.3595
  638MOL0     H84151   2.531   1.360   1.044 -2.2339 -2.1788 -2.8516
  638MOL0     H84152   2.329   1.433   1.006 -1.4917  2.2520  1.1640
  638MOL0     H84153   2.117   1.341   0.937 -0.2315  2.0057 -1.5176
  638MOL0     H84154   2.086   1.510   0.974  1.5462 -0.0674  0.9544
  638MOL0     H84155   1.874   1.436   0.889 -0.5505 -0.2266  1.3526
  638MOL0     H84156   1.839   1.432   1.050 -2.5834  2.8472 -2.4743
  638MOL0     H84157   1.922   1.201   1.065  0.5830  1.8736  0.5282
  638MOL0     H84158   1.934   1.197   0.884 -1.2538 -1.1216  0.5608
  638MOL0     H84159   1.672   1.243   1.034  1.0875  0.2324 -0.0156
  638MOL0     H84160   1.700   1.269   0.863  1.2335  2.5019  0.5635
  638MOL0     H84161   1.588   1.057   0.940 -1.0283  1.3994  0.3102
  638MOL0     H84162   1.756   0.997   0.970  1.4457  1.6917 -1.8061
  638MOL0     H84163   1.698   0.930   0.735  1.8864 -0.3217 -2.1882
  638MOL0     H84164   1.827   1.057   0.729  0.2635 -2.8222 -1.5094
  638MOL0     H84165   1.542   1.146   0.714 -0.2471  2.3553 -0.5374
  638MOL0     H84166   1.699   1.210   0.659  1.1429 -0.9493  0.9791
  638MOL0     H84167   1.570   0.947   0.559 -0.8915  0.4949  1.3943
  638MOL0     H84168   1.716   1.014   0.504 -0.1498 -1.4533  1.3005
  638MOL0     H84169   1.367   1.213   0.556  1.0795  1.0298  0.1498
  638MOL0     H84170   1.195   1.264   0.393  0.6893  0.6362  1.5341
  638MOL0     H84171   1.235   1.312   0.228  0.2219 -0.1733 -0.3723
  638MOL0     H84172   1.376   1.511   0.349  1.2846  1.2003  3.8285
  638MOL0     H84173   1.290   1.466   0.493 -0.5924 -3.3606  0.2051
  638MOL0     H84174   1.127   1.524   0.227 -0.4141  0.1219  0.9667
  638MOL0     H84175   1.067   1.472   0.382 -0.3377 -0.7304  0.0442
  638MOL0     H84176   1.191   1.744   0.323  1.3314  1.1104  1.4561
  638MOL0     H84177   1.157   1.687   0.490 -0.2239 -2.5997 -0.0827
  638MOL0     H84178   1.125   1.728   0.137 -0.3431 -3.7103  3.3146
  638MOL0     H84179   1.023   1.802  -0.069  1.9267  4.1008  1.0742
  638MOL0     H84180   0.376   1.833  -0.131 -2.6777  1.5515 -0.9444
  638MOL0     H84181   0.224   1.907  -0.309 -1.0774  2.6166 -1.2577
  638MOL0     H84182   0.182   2.156  -0.440  0.3462  0.4020 -0.7358
  638MOL0     H84183   0.116   1.996  -0.473 -3.0647  1.4481  0.0050
  638MOL0     H84184   0.058   2.034  -0.681 -2.3231  0.2759  3.0462
  638MOL0     H84185   0.183   2.160  -0.712  3.5063 -0.8515  1.7702
  638MOL0     H84186   0.070   2.305  -0.546  0.1086 -1.9507  1.4999
  638MOL0     H84187  -0.074   2.198  -0.556 -0.8620  2.1269  0.1626
  638MOL0     H84188  -0.087   2.385  -0.693  0.6979  0.4376  0.2950
  638MOL0     H84189   0.053   2.344  -0.789 -0.8528 -0.6215 -2.9144
  638MOL0     H84190  -0.167   2.134  -0.780 -1.0974  1.1134  1.0500
  638MOL0     H84191  -0.045   2.181  -0.906  2.1830 -0.0642  1.1701
  638MOL0     H84192  -0.257   2.263  -0.987  0.8720  1.4667 -1.2777
  638MOL0     H84193  -0.182   2.406  -0.920  3.2305 -1.2087 -1.8050
  638MOL0     H84194  -0.330   2.358  -0.700 -1.2592  1.5909 -0.6902
  638MOL0     H84195  -0.413   2.418  -0.838  0.8114  0.6591  1.7228
  638MOL0     H84196  -0.420   2.142  -0.722 -0.2942 -0.8773 -0.4550
  638MOL0     H84197  -0.419   2.156  -0.901 -0.1417  2.1892 -1.4017
  638MOL0     H84198   0.571   2.020  -0.541  3.3700  0.3589  1.8558
  638MOL0     H84199   0.715   1.936  -0.379  0.9458  0.9308  4.1018
  638MOL0     H84200   0.641   1.830   0.126  0.2046  0.7759  1.6637
  638MOL0     H84201   0.755   1.766   0.340  0.6309 -3.5764 -0.5001
  638MOL0     H84202   2.163   1.233   1.342 -0.0132 -0.2444 -0.7236
  638MOL0     H84203   2.397   1.144   1.393 -0.0818 -0.7463  0.2707
  638MOL0     H84204   2.945   1.392   1.305 -3.3003 -0.8938 -0.6486
  638MOL0     H84205   3.153   1.313   1.412  0.4246 -1.2229 -1.3481
  638MOL0     H84206   3.255   1.154   1.639  0.0018 -5.0779  2.3615
  638MOL0     H84207   3.337   1.190   1.488 -0.6959  0.4718 -1.3473
  638MOL0     H84208   3.445   1.043   1.691  0.8059  1.9009 -1.2551
  638MOL0     H84209   3.350   0.910   1.618  2.2475 -2.3411  0.8156
  638MOL0     H84210   3.570   1.098   1.497 -0.7228  0.1988 -1.5651
  638MOL0     H84211   3.482   0.999   1.391  1.0485  0.9526 -0.3871
  638MOL0     H84212   3.574   0.799   1.488  1.5705 -0.9945 -0.7357
  638MOL0     H84213   3.696   0.924   1.471  0.9004  2.8507  2.3730
  638MOL0     H84214   3.672   0.874   1.906  0.2410 -1.1831 -0.4986
  638MOL0     H84215   2.984   0.932   1.441  0.3985  0.4879  3.2459
  638MOL0     H84216   2.763   1.020   1.355 -0.7361  0.4351  0.5293
  639MOL0     O84217   0.388   4.805   2.834 -0.4605 -0.1243  0.0542
  639MOL0     C84218   0.403   4.706   2.900  0.7582 -0.7439  0.1237
  639MOL0     O84219   0.296   4.643   2.961 -0.4104 -0.0738  0.9033
  639MOL0     C84220   0.168   4.685   2.940 -0.3180 -0.3296 -0.1941
  639MOL0     C84221   0.080   4.688   3.048  0.8297 -0.2466 -0.5043
  639MOL0     C84222  -0.057   4.705   3.037 -0.2831  0.4630  0.6287
  639MOL0     C84223  -0.119   4.710   2.911 -0.6731 -0.0834  0.0532
  639MOL0     O84224  -0.252   4.733   2.887  0.7554 -0.1336 -0.0951
  639MOL0     C84225  -0.337   4.818   2.965  0.4963 -0.7455 -0.6529
  639MOL0     C84226  -0.478   4.826   2.900  0.0803 -1.6632 -1.0077
  639MOL0     C84227  -0.490   4.908   2.778 -0.6227 -0.3133 -0.1278
  639MOL0     C84228  -0.633   4.922   2.730  0.4858  0.4206  0.2105
  639MOL0     C84229  -0.709   5.040   2.789 -0.3681 -0.1184  0.1663
  639MOL0     C84230  -0.861   5.036   2.753  0.0196 -0.0515  0.6440
  639MOL0     C84231  -0.892   5.065   2.610 -0.3347  0.2299 -1.1459
  639MOL0     C84232  -0.981   4.952   2.539 -0.5589 -0.1076  0.5474
  639MOL0     N84233  -1.121   4.984   2.550  0.8885 -0.0054  0.8784
  639MOL0     C84234  -1.184   4.974   2.675 -0.0966  0.6479 -0.1840
  639MOL0     C84235  -1.306   5.035   2.655  0.4598  0.5135  0.2850
  639MOL0     C84236  -1.405   5.076   2.758 -0.4098 -0.2024  0.8837
  639MOL0     C84237  -1.554   5.048   2.716 -0.4834  0.0853  0.1357
  639MOL0     C84238  -1.647   5.124   2.807  0.9185 -0.5629 -0.8612
  639MOL0     C84239  -1.788   5.110   2.753 -0.1302 -0.5396  0.7144
  639MOL0     O84240  -1.860   5.217   2.823 -0.7742  0.0301  0.1775
  639MOL0     C84241  -1.988   5.241   2.790 -0.0967  0.4850 -0.3226
  639MOL0     C84242  -2.040   5.200   2.669  0.5496  0.7189 -1.0494
  639MOL0     C84243  -2.175   5.207   2.636 -0.1661  0.0916 -0.2460
  639MOL0     C84244  -2.264   5.251   2.734 -1.0594  0.2546 -0.2456
  639MOL0     C84245  -2.407   5.239   2.703 -0.1064 -0.1790 -0.5455
  639MOL0     O84246  -2.486   5.327   2.777 -0.2353 -0.3555  0.0986
  639MOL0     C84247  -2.615   5.341   2.761  0.2651  0.0162 -0.0423
  639MOL0     C84248  -2.701   5.228   2.721  0.5569  0.1204 -0.8196
  639MOL0     C84249  -2.832   5.252   2.699  0.5046 -0.2793  0.2013
  639MOL0     C84250  -2.892   5.373   2.707  0.2204 -0.4796  0.6443
  639MOL0     O84251  -3.023   5.391   2.685  0.2079  0.0030  0.7173
  639MOL0     C84252  -3.118   5.287   2.647  0.0386 -0.4469 -0.0548
  639MOL0     C84253  -3.256   5.327   2.700 -0.3935  0.1904 -0.0577
  639MOL0     C84254  -3.367   5.216   2.667  0.1372 -0.2187  0.3626
  639MOL0     C84255  -3.415   5.223   2.517  0.0668  0.1238  0.2688
  639MOL0     C84256  -3.560   5.166   2.502 -0.2186  0.5882 -0.3368
  639MOL0     C84257  -3.579   5.097   2.358  0.3934 -0.1751 -0.4118
  639MOL0     C84258  -3.728   5.101   2.308  0.8013 -0.0030  0.0292
  639MOL0     C84259  -3.782   4.996   2.205  0.3345  2.3223 -0.2138
  639MOL0    Cl84260  -3.762   4.825   2.256 -0.2155  0.3661  0.2879
  639MOL0     C84261  -2.805   5.486   2.730  0.6764  0.0705 -0.2713
  639MOL0     C84262  -2.670   5.470   2.762 -0.4387 -1.1537 -0.9537
  639MOL0     O84263  -2.448   5.164   2.610 -0.3072 -0.0559 -0.4983
  639MOL0     C84264  -2.212   5.307   2.853  0.2752  0.3677  0.1387
  639MOL0     C84265  -2.074   5.291   2.881 -0.0503 -0.7465 -0.3381
  639MOL0     N84266  -1.309   5.085   2.525 -0.1900  0.1630  0.0016
  639MOL0     N84267  -1.203   5.034   2.456  0.9765  0.1562 -0.2909
  639MOL0     C84268  -0.035   4.712   2.800 -0.4048  0.1818 -0.5043
  639MOL0     C84269   0.108   4.700   2.812  0.0879  0.2277  0.0450
  639MOL0     C84270   0.531   4.643   2.919 -0.6130  0.0912  0.4508
  639MOL0     C84271   0.542   4.513   2.968  0.1701 -0.0760 -0.7810
  639MOL0     C84272   0.670   4.449   2.991  0.2643 -0.6564 -0.4529
  639MOL0     C84273   0.788   4.526   2.968  0.0947 -0.3975  0.5069
  639MOL0     O84274   0.915   4.489   3.005  0.0110 -0.0631  0.4443
  639MOL0     C84275   0.950   4.360   3.058 -0.3233 -0.1368  0.5246
  639MOL0     C84276   1.104   4.334   3.074  0.6892  0.0804  0.1542
  639MOL0     C84277   1.174   4.328   2.941 -0.1332 -0.0521  0.7069
  639MOL0     C84278   1.316   4.324   2.969 -0.7841  0.4630 -0.4478
  639MOL0     C84279   1.397   4.263   2.865  0.5090  0.3598  0.4985
  639MOL0     C84280   1.472   4.220   2.775 -0.0716 -0.6296  0.2563
  639MOL0     C84281   0.774   4.653   2.911 -0.1753 -0.3030 -0.3711
  639MOL0     C84282   0.650   4.706   2.883  0.4443  0.0235  0.1619
  639MOL0     H84283   0.118   4.684   3.149  0.4473  0.4773 -0.3210
  639MOL0     H84284  -0.123   4.717   3.122 -0.3431 -0.0387  0.6572
  639MOL0     H84285  -0.299   4.919   2.982  0.9621 -0.7009 -1.8274
  639MOL0     H84286  -0.336   4.766   3.061  0.0059 -2.5792 -1.5976
  639MOL0     H84287  -0.548   4.880   2.964  0.4398 -1.8858 -0.4181
  639MOL0     H84288  -0.515   4.723   2.887 -1.3441 -1.3573  0.3051
  639MOL0     H84289  -0.434   4.859   2.697 -0.3359  0.2320 -0.2652
  639MOL0     H84290  -0.441   5.004   2.799  0.0508 -1.3036  3.5196
  639MOL0     H84291  -0.627   4.944   2.623  0.7015  2.9022  0.6542
  639MOL0     H84292  -0.688   4.830   2.749 -2.9177  2.4891  1.2418
  639MOL0     H84293  -0.660   5.132   2.757 -0.1662  1.0568  3.4955
  639MOL0     H84294  -0.689   5.031   2.896  0.8174 -0.4064 -0.0665
  639MOL0     H84295  -0.925   5.105   2.809 -1.2822 -1.5936  1.1534
  639MOL0     H84296  -0.909   4.943   2.787  1.8875 -0.6468  1.7916
  639MOL0     H84297  -0.946   5.160   2.616  0.7969  1.0879 -3.3410
  639MOL0     H84298  -0.807   5.082   2.543 -0.0464 -2.0916 -1.4831
  639MOL0     H84299  -0.965   4.854   2.586  1.0094  0.2379  0.8113
  639MOL0     H84300  -0.965   4.943   2.432 -0.4296 -0.9170  0.6273
  639MOL0     H84301  -1.145   4.939   2.770 -0.5110  2.6832  0.8009
  639MOL0     H84302  -1.392   5.184   2.769 -1.3081  0.7783 -4.4950
  639MOL0     H84303  -1.382   5.020   2.848  1.3732 -0.3022  0.4036
  639MOL0     H84304  -1.575   4.941   2.707  1.3615 -0.3993  1.0875
  639MOL0     H84305  -1.576   5.093   2.619 -3.3385  0.2794  0.7675
  639MOL0     H84306  -1.651   5.090   2.911 -0.4536  0.3623 -0.5828
  639MOL0     H84307  -1.619   5.229   2.799 -0.6348  0.1935  2.0549
  639MOL0     H84308  -1.835   5.013   2.770 -0.1770 -0.9113 -1.2860
  639MOL0     H84309  -1.775   5.126   2.646  4.8032 -1.4801  0.9724
  639MOL0     H84310  -1.981   5.146   2.596  2.8211 -2.4797  2.7206
  639MOL0     H84311  -2.211   5.175   2.539  0.7598  0.0188 -0.5765
  639MOL0     H84312  -2.660   5.128   2.714  2.3858  0.8837 -2.0643
  639MOL0     H84313  -2.888   5.160   2.690  0.5128 -0.4843  1.9780
  639MOL0     H84314  -3.097   5.183   2.676 -0.6911 -0.6726 -0.3179
  639MOL0     H84315  -3.129   5.289   2.538  4.9628 -4.1520 -0.9988
  639MOL0     H84316  -3.288   5.430   2.680 -1.2147  0.2390  1.3986
  639MOL0     H84317  -3.233   5.318   2.806  4.2060 -1.6284 -0.9635
  639MOL0     H84318  -3.453   5.233   2.732 -1.0853 -3.9818 -0.0368
  639MOL0     H84319  -3.328   5.118   2.695  3.3760  1.1902  1.1668
  639MOL0     H84320  -3.411   5.327   2.483 -0.4389 -0.5804 -2.1438
  639MOL0     H84321  -3.346   5.166   2.454 -1.0585 -1.2182  0.2052
  639MOL0     H84322  -3.625   5.252   2.522  2.5850  2.4481  1.5088
  639MOL0     H84323  -3.583   5.097   2.584 -1.3488  2.8060  1.3110
  639MOL0     H84324  -3.550   4.992   2.362  0.7559 -0.0277  1.3402
  639MOL0     H84325  -3.521   5.160   2.290  1.2480  1.4844  1.7415
  639MOL0     H84326  -3.802   5.099   2.389  1.2204  0.9541  0.4481
  639MOL0     H84327  -3.740   5.201   2.264 -0.0745 -0.2189 -0.2563
  639MOL0     H84328  -3.725   4.998   2.111 -1.5630  1.1842 -1.4744
  639MOL0     H84329  -3.889   5.008   2.186 -0.0100  2.4870  1.6919
  639MOL0     H84330  -2.848   5.585   2.720 -1.0447 -0.5216  0.8681
  639MOL0     H84331  -2.616   5.560   2.788 -2.2142  0.0793 -1.2940
  639MOL0     H84332  -2.287   5.334   2.927 -2.5756 -0.7731 -2.1197
  639MOL0     H84333  -2.033   5.318   2.977 -2.5586 -2.1893  1.2477
  639MOL0     H84334  -0.083   4.736   2.705  0.0199 -1.8448 -1.2923
  639MOL0     H84335   0.178   4.704   2.729  1.1117 -2.7882  0.6339
  639MOL0     H84336   0.450   4.460   2.992  0.3937 -0.6667 -1.1917
  639MOL0     H84337   0.667   4.347   3.027 -0.8902 -0.4834  0.0052
  639MOL0     H84338   0.916   4.284   2.988 -0.2769  0.9103 -0.6746
  639MOL0     H84339   0.898   4.352   3.154 -1.9453  2.5382 -0.0389
  639MOL0     H84340   1.151   4.414   3.133  0.5470 -1.7863  2.9957
  639MOL0     H84341   1.126   4.244   3.132  1.7182  0.7571  0.8623
  639MOL0     H84342   1.140   4.416   2.886  2.6029  1.4000  1.1881
  639MOL0     H84343   1.141   4.237   2.890  1.3318 -0.2003 -0.0173
  639MOL0     H84344   1.332   4.431   2.981 -1.1876  0.3169  1.6886
  639MOL0     H84345   1.335   4.268   3.060 -0.4736  0.1399 -0.7074
  639MOL0     H84346   1.530   4.167   2.702 -1.3573 -3.8087  1.3764
  639MOL0     H84347   0.858   4.719   2.893 -0.5102  0.3490  0.4379
  639MOL0     H84348   0.636   4.807   2.846  1.5045 -0.3501 -1.3440
  640MOL0     O84349   2.141   6.403   0.696 -0.2284 -0.4098 -0.4025
  640MOL0     C84350   2.051   6.475   0.734 -0.1278  0.1031  1.1020
  640MOL0     O84351   2.048   6.615   0.751  0.3003 -0.0860  0.1332
  640MOL0     C84352   2.171   6.675   0.740 -0.2753  0.2316 -0.0936
  640MOL0     C84353   2.230   6.705   0.613  0.1731  0.5452  0.2805
  640MOL0     C84354   2.363   6.753   0.608  0.1017  0.0845  0.5195
  640MOL0     C84355   2.428   6.798   0.725 -0.0611 -0.2595 -0.3895
  640MOL0     O84356   2.551   6.855   0.716  0.0088  0.2474 -0.1409
  640MOL0     C84357   2.643   6.835   0.826 -0.4415 -0.2291  0.3738
  640MOL0     C84358   2.750   6.937   0.782  0.1826  0.2746  0.0509
  640MOL0     C84359   2.869   6.918   0.883  0.3524 -0.1314  0.7623
  640MOL0     C84360   2.947   6.799   0.855  0.0492  0.5530  0.2097
  640MOL0     C84361   3.008   6.733   0.977  0.2562 -0.5181  0.2141
  640MOL0     C84362   3.122   6.641   0.946 -0.7175 -0.5995 -0.5326
  640MOL0     C84363   3.087   6.514   0.874  0.6410 -0.2367 -0.3960
  640MOL0     C84364   3.034   6.412   0.967  0.1445 -0.4926  0.2940
  640MOL0     N84365   3.011   6.293   0.879  1.0776 -0.3345  0.0811
  640MOL0     C84366   3.107   6.202   0.851  0.3741  0.6518 -0.1665
  640MOL0     C84367   3.043   6.093   0.811 -0.8060  0.5295 -0.7512
  640MOL0     C84368   3.106   5.958   0.779  0.5978 -0.5306 -0.3833
  640MOL0     C84369   3.013   5.894   0.667 -0.4492  0.1227 -0.9353
  640MOL0     C84370   3.054   5.753   0.628  0.5195 -0.2928  0.3148
  640MOL0     C84371   2.976   5.704   0.509 -0.6336 -0.0513 -0.6870
  640MOL0     O84372   2.842   5.716   0.545 -0.0500  0.8166 -0.0594
  640MOL0     C84373   2.748   5.668   0.464  0.0158 -0.1819  0.8613
  640MOL0     C84374   2.619   5.654   0.509  0.1876 -0.1993 -0.4672
  640MOL0     C84375   2.518   5.601   0.426 -1.0399 -0.6744 -0.2097
  640MOL0     C84376   2.540   5.578   0.287 -0.4354 -0.1864 -0.0607
  640MOL0     C84377   2.428   5.530   0.199  0.0496  0.4445  0.7543
  640MOL0     O84378   2.316   5.510   0.262 -0.1429 -0.4654 -0.3421
  640MOL0     C84379   2.208   5.442   0.208  0.9183 -0.5008  0.5540
  640MOL0     C84380   2.095   5.448   0.289  0.3494 -0.2211  0.6883
  640MOL0     C84381   1.973   5.400   0.242 -0.2909  0.1300 -0.6208
  640MOL0     C84382   1.965   5.324   0.128 -0.1517  0.1605  0.3205
  640MOL0     O84383   1.844   5.288   0.078 -0.5178  0.4113  0.1851
  640MOL0     C84384   1.826   5.215  -0.045 -0.2908 -0.3470  0.5759
  640MOL0     C84385   1.695   5.259  -0.105  0.0612  0.4871 -0.6989
  640MOL0     C84386   1.575   5.212  -0.020 -0.1956 -0.4957  0.8779
  640MOL0     C84387   1.457   5.306  -0.067 -0.0836  0.2785  0.2200
  640MOL0     C84388   1.334   5.303   0.028 -0.5066  0.1973  0.4544
  640MOL0     C84389   1.258   5.167   0.016 -0.4044  0.2352  0.1985
  640MOL0     C84390   1.135   5.160   0.092  0.0324 -0.0064 -0.6456
  640MOL0     C84391   1.018   5.230   0.020  0.8572 -0.3303  0.1851
  640MOL0    Cl84392   0.867   5.180   0.099  0.2665  0.0625 -0.0091
  640MOL0     C84393   2.084   5.304   0.062 -0.8586  0.7187 -0.6632
  640MOL0     C84394   2.198   5.371   0.087  0.4490  0.0900 -0.6865
  640MOL0     O84395   2.440   5.504   0.077 -1.0935  0.2115 -0.2915
  640MOL0     C84396   2.673   5.597   0.238  0.4061 -0.1989  0.6382
  640MOL0     C84397   2.770   5.639   0.326  0.4121  0.9080  0.1823
  640MOL0     N84398   2.905   6.124   0.809  0.3511  0.7153  0.0265
  640MOL0     N84399   2.888   6.246   0.846  0.4360 -0.1735 -0.3270
  640MOL0     C84400   2.358   6.782   0.847 -1.1124  1.1672  0.5334
  640MOL0     C84401   2.233   6.717   0.853 -0.0563 -0.7993  0.6166
  640MOL0     C84402   1.918   6.421   0.750  0.5796 -0.9201 -0.2798
  640MOL0     C84403   1.900   6.281   0.747  0.6280  0.0355 -0.2291
  640MOL0     C84404   1.770   6.232   0.749  0.3349  1.2275 -0.5741
  640MOL0     C84405   1.659   6.315   0.759 -0.6253 -0.0698 -0.1090
  640MOL0     O84406   1.534   6.266   0.770 -0.1021 -0.1387  0.0515
  640MOL0     C84407   1.520   6.134   0.829 -0.6062  0.6273  0.4896
  640MOL0     C84408   1.382   6.101   0.879  0.1043  0.1743 -1.0035
  640MOL0     C84409   1.274   6.099   0.773 -0.0107 -0.5046 -0.4974
  640MOL0     C84410   1.150   6.024   0.831 -0.4751 -0.4254 -0.5908
  640MOL0     C84411   1.040   6.053   0.736  0.4325 -0.1744 -0.2911
  640MOL0     C84412   0.980   6.078   0.633 -0.1651 -0.1686 -0.1288
  640MOL0     C84413   1.673   6.451   0.779 -0.0292  0.2432 -0.3403
  640MOL0     C84414   1.801   6.502   0.772 -0.3432  0.1138  0.1884
  640MOL0     H84415   2.171   6.672   0.527 -1.6430  2.6601  0.6188
  640MOL0     H84416   2.406   6.755   0.508 -1.9698  0.6934 -0.4114
  640MOL0     H84417   2.671   6.730   0.841  0.2371 -0.2675 -0.9767
  640MOL0     H84418   2.612   6.872   0.924  1.3795  0.9687  0.5383
  640MOL0     H84419   2.722   7.042   0.782  1.1441  0.6089 -2.7224
  640MOL0     H84420   2.785   6.910   0.682 -0.0661 -0.9931  0.2912
  640MOL0     H84421   2.832   6.922   0.986 -0.6794  0.4773  0.3919
  640MOL0     H84422   2.933   7.006   0.878 -2.3297  1.8674 -1.3375
  640MOL0     H84423   2.897   6.725   0.791 -1.3645  1.0376  0.7067
  640MOL0     H84424   3.034   6.823   0.794  1.2221  0.2475  1.7046
  640MOL0     H84425   2.934   6.684   1.041  1.1695  1.5256  3.0103
  640MOL0     H84426   3.044   6.814   1.041 -0.5856 -0.6196  0.8478
  640MOL0     H84427   3.178   6.613   1.035 -0.5190 -1.8066 -1.0186
  640MOL0     H84428   3.196   6.691   0.883  0.9276 -2.9311 -0.5614
  640MOL0     H84429   3.018   6.529   0.791 -3.2114 -1.3441  2.2889
  640MOL0     H84430   3.178   6.476   0.825  1.3779 -0.3813  1.0215
  640MOL0     H84431   2.943   6.456   1.008  0.1335  1.3056 -1.4884
  640MOL0     H84432   3.102   6.391   1.050 -1.9311 -1.7532  1.7621
  640MOL0     H84433   3.214   6.210   0.868  0.7646 -1.5935 -1.2418
  640MOL0     H84434   3.111   5.887   0.863 -1.5047  1.8241  1.9029
  640MOL0     H84435   3.207   5.983   0.746 -0.1449  0.8112 -1.7134
  640MOL0     H84436   3.023   5.955   0.577  1.1153  1.2905 -0.0133
  640MOL0     H84437   2.910   5.897   0.704  0.1287  1.0299  0.7192
  640MOL0     H84438   3.161   5.764   0.607  0.0863  1.9173 -1.2082
  640MOL0     H84439   3.041   5.682   0.710 -0.0342 -0.8792 -0.2759
  640MOL0     H84440   3.000   5.598   0.497  4.0963  0.7906 -0.7325
  640MOL0     H84441   3.007   5.762   0.421 -0.2677  0.0046 -0.5218
  640MOL0     H84442   2.596   5.671   0.614 -2.6058 -3.4919 -0.3656
  640MOL0     H84443   2.426   5.571   0.474  0.1687 -0.3870  2.4984
  640MOL0     H84444   2.108   5.501   0.383  1.1306  0.4871  0.1903
  640MOL0     H84445   1.886   5.426   0.302  0.2673  0.4410  0.0781
  640MOL0     H84446   1.813   5.109  -0.021  0.4028 -1.0985 -2.0390
  640MOL0     H84447   1.904   5.243  -0.117 -0.4566 -0.2882  0.4200
  640MOL0     H84448   1.676   5.224  -0.206 -1.6825  0.9524 -0.5522
  640MOL0     H84449   1.707   5.368  -0.109 -1.5057  0.6473 -1.8637
  640MOL0     H84450   1.599   5.232   0.085  1.8642 -0.3092  0.4222
  640MOL0     H84451   1.551   5.108  -0.041 -2.8253  0.1198  0.5801
  640MOL0     H84452   1.503   5.405  -0.060 -3.0315  1.8063 -0.7921
  640MOL0     H84453   1.430   5.286  -0.171 -1.2667  2.0349  0.1588
  640MOL0     H84454   1.261   5.377  -0.006 -3.0865 -1.7262  1.4861
  640MOL0     H84455   1.366   5.316   0.132  2.3799 -1.2407 -0.1396
  640MOL0     H84456   1.322   5.079   0.007 -2.3908 -1.1642 -1.0071
  640MOL0     H84457   1.224   5.169  -0.087  0.3868  1.7256 -0.0575
  640MOL0     H84458   1.104   5.056   0.104  1.4176 -0.3978 -0.3878
  640MOL0     H84459   1.136   5.195   0.195 -0.7819 -1.2034 -0.2077
  640MOL0     H84460   1.007   5.203  -0.085  0.6385  2.9054 -0.7111
  640MOL0     H84461   1.023   5.339   0.019 -1.8907 -0.0943  1.4857
  640MOL0     H84462   2.094   5.245  -0.029 -2.1898  0.9646 -0.9840
  640MOL0     H84463   2.275   5.369   0.010 -0.8188  2.2006 -2.1291
  640MOL0     H84464   2.693   5.571   0.135 -1.1729 -0.6182  0.4097
  640MOL0     H84465   2.872   5.648   0.288  0.0765  0.8364 -0.7582
  640MOL0     H84466   2.407   6.819   0.936  2.5641 -0.7480 -0.4766
  640MOL0     H84467   2.178   6.714   0.947 -0.4860 -0.6888  0.3710
  640MOL0     H84468   1.986   6.217   0.728  0.9696  0.4232 -0.0328
  640MOL0     H84469   1.749   6.127   0.737 -2.2630  1.0271  3.8115
  640MOL0     H84470   1.599   6.127   0.904  1.4930 -2.4224 -1.7316
  640MOL0     H84471   1.545   6.058   0.754  0.8068  0.4499  1.1082
  640MOL0     H84472   1.389   5.999   0.919  1.5083  1.6114  2.8410
  640MOL0     H84473   1.364   6.175   0.958  2.4508 -1.0727  0.8251
  640MOL0     H84474   1.306   6.046   0.683  1.9587 -1.1261  0.5318
  640MOL0     H84475   1.243   6.197   0.736 -1.0468 -1.2081 -1.5715
  640MOL0     H84476   1.166   5.916   0.835  1.1129 -0.1777  0.2406
  640MOL0     H84477   1.132   6.072   0.928 -0.9727  0.5885 -1.1715
  640MOL0     H84478   0.922   6.100   0.546 -3.0865 -0.2286  1.6675
  640MOL0     H84479   1.592   6.518   0.805 -0.7127  1.2435 -4.3329
  640MOL0     H84480   1.804   6.609   0.789  1.3942 -0.1372  1.8832
  641MOL0     O84481   5.609  10.500   8.898  0.2190 -0.0856  0.0941
  641MOL0     C84482   5.655  10.562   8.797  0.4291  0.1280 -0.1693
  641MOL0     O84483   5.581  10.608   8.699 -0.0223 -0.5010  0.1948
  641MOL0     C84484   5.449  10.625   8.711  0.8552  0.5468  0.1550
  641MOL0     C84485   5.394  10.751   8.678  0.5445  0.7147 -0.1702
  641MOL0     C84486   5.256  10.757   8.663 -0.7862 -1.1139 -0.0502
  641MOL0     C84487   5.166  10.655   8.669 -0.0292 -0.1329  0.5094
  641MOL0     O84488   5.037  10.682   8.649 -0.6290 -0.2115  0.0764
  641MOL0     C84489   4.944  10.582   8.685  0.0786  0.1284 -0.7360
  641MOL0     C84490   4.801  10.626   8.653  0.1163 -0.3614  0.8191
  641MOL0     C84491   4.695  10.514   8.645  0.3200 -0.6967  0.5249
  641MOL0     C84492   4.554  10.570   8.591 -0.7489 -0.0419  0.6520
  641MOL0     C84493   4.463  10.458   8.552 -0.6494 -0.4625 -0.6643
  641MOL0     C84494   4.418  10.405   8.685  1.2189  0.6607  0.0728
  641MOL0     C84495   4.288  10.318   8.667  0.1545  0.2193  0.2740
  641MOL0     C84496   4.314  10.200   8.583  0.5119  0.3636  0.8830
  641MOL0     N84497   4.196  10.110   8.578 -0.1801  0.4411  0.0787
  641MOL0     C84498   4.074  10.159   8.566 -0.2133  0.8538  0.3497
  641MOL0     C84499   4.001  10.041   8.552 -0.2625 -0.1771 -0.0818
  641MOL0     C84500   3.854  10.036   8.525  1.0767 -0.1315 -0.4636
  641MOL0     C84501   3.821  10.042   8.377  0.5682 -0.0774  0.0253
  641MOL0     C84502   3.684   9.983   8.348 -0.1584 -0.2532 -0.7011
  641MOL0     C84503   3.567  10.050   8.423  0.0467  0.3904  0.1319
  641MOL0     O84504   3.456   9.966   8.384 -0.0704  1.0769 -0.0165
  641MOL0     C84505   3.329   9.980   8.442 -0.0132 -0.1935 -0.0372
  641MOL0     C84506   3.305  10.073   8.547 -0.5708 -0.2027  0.4073
  641MOL0     C84507   3.173  10.109   8.587  0.1269  0.2480  0.5551
  641MOL0     C84508   3.066  10.041   8.526 -0.1022  0.6125  0.5892
  641MOL0     C84509   2.924  10.066   8.558 -0.3451 -0.1248 -0.9814
  641MOL0     O84510   2.837   9.965   8.519  0.2597  0.3972 -0.7269
  641MOL0     C84511   2.701   9.957   8.548  0.1984  0.4347 -0.1640
  641MOL0     C84512   2.614   9.930   8.440 -1.0248  0.2986  0.2674
  641MOL0     C84513   2.485   9.894   8.469 -0.6126 -0.1877 -0.0869
  641MOL0     C84514   2.441   9.886   8.599  0.6943  0.9254 -1.2101
  641MOL0     O84515   2.306   9.847   8.622 -0.2529  0.1242  0.0616
  641MOL0     C84516   2.202   9.844   8.525  0.4349 -0.2671  0.0650
  641MOL0     C84517   2.167   9.990   8.480  0.1933  0.3836  0.0180
  641MOL0     C84518   2.033  10.002   8.412 -1.0991  0.1049 -0.2494
  641MOL0     C84519   2.042   9.944   8.273 -1.2526 -0.2949  0.0653
  641MOL0     C84520   1.936   9.967   8.178 -0.0743 -0.0537  0.3062
  641MOL0     C84521   1.801   9.892   8.195 -0.4077 -0.6055 -0.4064
  641MOL0     C84522   1.707   9.966   8.295 -0.3931  0.2464  0.4157
  641MOL0     C84523   1.601   9.884   8.374  0.0199 -0.9174  0.7186
  641MOL0    Cl84524   1.691   9.763   8.462 -0.3590  0.4033  0.2873
  641MOL0     C84525   2.528   9.915   8.704  0.1278  0.1101 -0.3750
  641MOL0     C84526   2.657   9.955   8.678  0.2833 -0.3601  0.0405
  641MOL0     O84527   2.897  10.161   8.629  0.4352 -0.8334  0.6806
  641MOL0     C84528   3.095   9.939   8.426 -0.4314 -0.6107  0.2576
  641MOL0     C84529   3.223   9.903   8.382  0.4960  0.3328 -0.3545
  641MOL0     N84530   4.080   9.933   8.556 -0.7420 -0.3085  0.4787
  641MOL0     N84531   4.206   9.978   8.583 -0.1725 -0.2033  0.1304
  641MOL0     C84532   5.219  10.530   8.702 -1.1789 -0.1229  0.9879
  641MOL0     C84533   5.359  10.517   8.724  0.6323 -0.3815 -0.1544
  641MOL0     C84534   5.795  10.569   8.773  0.5927  0.9457 -0.7595
  641MOL0     C84535   5.878  10.486   8.851 -0.2506  0.0943 -0.0199
  641MOL0     C84536   6.017  10.493   8.843  0.1263  0.0355  0.2081
  641MOL0     C84537   6.076  10.574   8.745 -0.0971 -0.0806  0.4961
  641MOL0     O84538   6.208  10.565   8.726 -0.2210  0.4996  0.2804
  641MOL0     C84539   6.290  10.642   8.809  0.1576  0.1096  0.6189
  641MOL0     C84540   6.422  10.580   8.857 -0.2961 -0.4591 -0.6927
  641MOL0     C84541   6.539  10.609   8.759 -0.3308  0.3455  0.4048
  641MOL0     C84542   6.663  10.533   8.796 -0.0495 -0.9712  0.1901
  641MOL0     C84543   6.728  10.582   8.918  0.2541 -0.1005 -0.9750
  641MOL0     C84544   6.764  10.619   9.033  1.5440  0.2473  0.7159
  641MOL0     C84545   5.990  10.665   8.676 -0.1474  0.1887  0.8670
  641MOL0     C84546   5.852  10.663   8.690  0.2980 -0.1076  0.6132
  641MOL0     H84547   5.451  10.841   8.653 -0.3426  1.0727 -0.9601
  641MOL0     H84548   5.215  10.856   8.644  1.2205  0.8954  4.5354
  641MOL0     H84549   4.962  10.555   8.790 -2.0983  0.9213 -0.0939
  641MOL0     H84550   4.964  10.496   8.621  0.3707 -0.5226  0.2027
  641MOL0     H84551   4.809  10.682   8.559  1.0923 -1.1363  0.4268
  641MOL0     H84552   4.765  10.699   8.726 -1.3759 -0.6066  0.3609
  641MOL0     H84553   4.692  10.478   8.749 -0.1225 -2.3718 -0.0339
  641MOL0     H84554   4.723  10.426   8.587 -1.5477 -1.0626  0.1081
  641MOL0     H84555   4.503  10.635   8.664 -1.9955 -0.5397  0.2583
  641MOL0     H84556   4.572  10.615   8.493  0.2054 -2.1530 -0.1927
  641MOL0     H84557   4.513  10.378   8.496 -1.3353  0.1991 -2.3019
  641MOL0     H84558   4.382  10.484   8.483 -1.0106 -1.0239 -0.4544
  641MOL0     H84559   4.396  10.479   8.762 -1.0374 -0.9575  1.0970
  641MOL0     H84560   4.490  10.344   8.738  1.7375  2.3611  1.3968
  641MOL0     H84561   4.247  10.299   8.766  0.4475 -0.6021  0.2422
  641MOL0     H84562   4.208  10.375   8.617  0.6667 -0.2511 -1.1443
  641MOL0     H84563   4.400  10.137   8.608  0.6912 -0.9832 -2.5105
  641MOL0     H84564   4.316  10.240   8.481 -2.0518  1.6157  1.2507
  641MOL0     H84565   4.024  10.255   8.572  0.4531  1.1952  0.4378
  641MOL0     H84566   3.810  10.125   8.571  1.8178 -0.1612  0.3185
  641MOL0     H84567   3.822   9.938   8.562  4.3769 -0.5719  1.6594
  641MOL0     H84568   3.885   9.977   8.318 -0.3777 -0.8601 -0.1673
  641MOL0     H84569   3.824  10.147   8.347 -4.1816  0.4006  0.3684
  641MOL0     H84570   3.670   9.989   8.239 -0.8798  1.2854 -0.5396
  641MOL0     H84571   3.686   9.875   8.369  1.7725  0.0468  0.9636
  641MOL0     H84572   3.549  10.153   8.392  1.4092  0.7606  0.5360
  641MOL0     H84573   3.585  10.053   8.531  1.1244  0.0032 -0.0270
  641MOL0     H84574   3.385  10.130   8.593 -2.7317  2.2601  1.3530
  641MOL0     H84575   3.148  10.184   8.661  1.7002  0.5851  0.7898
  641MOL0     H84576   2.649   9.917   8.338  0.5032 -0.5891  0.8720
  641MOL0     H84577   2.430   9.886   8.375 -2.5835  0.6560  0.9364
  641MOL0     H84578   2.112   9.798   8.567  1.1932 -2.6932 -0.7770
  641MOL0     H84579   2.236   9.782   8.441  1.0372 -1.3787  1.0903
  641MOL0     H84580   2.246  10.037   8.420 -0.5557 -0.1479 -1.4376
  641MOL0     H84581   2.161  10.044   8.575 -1.3019 -0.0813  0.2104
  641MOL0     H84582   2.020  10.110   8.408 -2.0251 -0.0036 -0.4998
  641MOL0     H84583   1.956   9.951   8.470  0.2050 -2.5798 -0.6953
  641MOL0     H84584   2.128   9.994   8.229 -0.7031  0.4953  1.9518
  641MOL0     H84585   2.063   9.837   8.288  2.4130  0.6491  3.2152
  641MOL0     H84586   1.972   9.923   8.084  0.9181  1.8522 -0.2559
  641MOL0     H84587   1.911  10.073   8.175  0.5735  0.1013  0.3689
  641MOL0     H84588   1.826   9.792   8.229  0.0748 -0.7708 -1.2222
  641MOL0     H84589   1.752   9.873   8.099  0.2960 -2.8938 -0.3710
  641MOL0     H84590   1.768  10.029   8.360  2.2968 -1.2537 -0.5104
  641MOL0     H84591   1.650  10.028   8.225 -1.1362 -0.8584  0.0057
  641MOL0     H84592   1.534   9.838   8.301 -3.2461  4.7578 -0.4835
  641MOL0     H84593   1.542   9.946   8.442  1.4500  2.9979 -1.2645
  641MOL0     H84594   2.485   9.911   8.804  0.3835  3.7616  0.0297
  641MOL0     H84595   2.712   9.964   8.771  0.2927  3.2083 -0.1894
  641MOL0     H84596   3.011   9.888   8.380 -2.1624  1.8762  0.4893
  641MOL0     H84597   3.226   9.838   8.295  2.1934 -1.4569  0.9321
  641MOL0     H84598   5.169  10.434   8.692 -3.1478  1.0750 -1.9628
  641MOL0     H84599   5.399  10.416   8.737  0.9130 -0.1577  0.7493
  641MOL0     H84600   5.839  10.419   8.927 -2.3415 -2.2924 -2.9636
  641MOL0     H84601   6.062  10.414   8.903 -0.7421 -1.5495 -1.1544
  641MOL0     H84602   6.224  10.669   8.892 -1.3794 -0.8576 -0.2213
  641MOL0     H84603   6.314  10.733   8.754 -0.6852  0.5775  1.0125
  641MOL0     H84604   6.450  10.636   8.946  1.3550  1.1995 -2.1546
  641MOL0     H84605   6.423  10.473   8.879 -0.0160 -0.3466 -0.1443
  641MOL0     H84606   6.561  10.716   8.760  1.1993  0.1324  3.9498
  641MOL0     H84607   6.509  10.579   8.658  2.5986  0.8041 -0.7022
  641MOL0     H84608   6.633  10.428   8.806  1.6098 -1.6973 -1.7635
  641MOL0     H84609   6.729  10.520   8.710  1.6599  0.8963  1.1402
  641MOL0     H84610   6.804  10.637   9.131  0.1924 -1.4390  1.6443
  641MOL0     H84611   6.041  10.731   8.606  2.4040 -1.6617  0.8859
  641MOL0     H84612   5.792  10.733   8.633  0.0120  2.0070  3.2948
  642MOL0     O84613   2.696   4.042   4.984 -0.2817  0.1325 -0.5172
  642MOL0     C84614   2.775   4.041   4.894  0.6868  0.7261  0.2334
  642MOL0     O84615   2.753   4.084   4.767 -0.5510 -0.1346 -0.0342
  642MOL0     C84616   2.641   4.147   4.739  0.4891  0.2168  0.1354
  642MOL0     C84617   2.513   4.114   4.782 -0.6670 -0.1623 -0.1556
  642MOL0     C84618   2.406   4.185   4.731  0.2050 -0.0976 -0.7171
  642MOL0     C84619   2.415   4.288   4.640 -0.2486 -0.0185 -0.6902
  642MOL0     O84620   2.297   4.360   4.614  0.4806  0.3244  0.1078
  642MOL0     C84621   2.291   4.472   4.519 -0.3791 -0.1275 -0.0962
  642MOL0     C84622   2.170   4.498   4.439  0.5799  0.2777 -0.9797
  642MOL0     C84623   2.049   4.470   4.538  0.4976  0.4150  0.4778
  642MOL0     C84624   1.911   4.520   4.484  0.1333 -0.2394 -0.7701
  642MOL0     C84625   1.792   4.452   4.550  0.7116 -0.0081 -0.5849
  642MOL0     C84626   1.671   4.527   4.501  0.2517 -0.0477 -0.3251
  642MOL0     C84627   1.545   4.505   4.590 -0.0127 -0.3243 -0.3096
  642MOL0     C84628   1.455   4.394   4.540  0.6526 -0.7150 -0.4377
  642MOL0     N84629   1.330   4.454   4.497 -0.0178  0.4759  0.2543
  642MOL0     C84630   1.311   4.502   4.370 -0.6038 -0.5024 -0.0987
  642MOL0     C84631   1.178   4.539   4.357 -1.1686  0.3364 -0.2383
  642MOL0     C84632   1.090   4.579   4.240 -0.2994  0.2193 -0.5287
  642MOL0     C84633   0.947   4.529   4.258 -0.3221 -0.3298  0.2221
  642MOL0     C84634   0.839   4.565   4.154 -0.1898 -1.0223 -0.6065
  642MOL0     C84635   0.697   4.519   4.169 -0.0526  0.1371  0.4325
  642MOL0     O84636   0.679   4.381   4.127 -0.0819  0.2697  0.5785
  642MOL0     C84637   0.575   4.299   4.169 -0.0217  0.4512  0.2058
  642MOL0     C84638   0.450   4.338   4.218 -0.0214 -0.0709  0.5067
  642MOL0     C84639   0.346   4.248   4.222 -0.3974  0.0317  0.0228
  642MOL0     C84640   0.360   4.106   4.183  0.2085  0.2203 -0.6662
  642MOL0     C84641   0.248   4.008   4.195  0.2655  0.0568  0.8579
  642MOL0     O84642   0.127   4.068   4.204  0.2825 -0.1113  0.1410
  642MOL0     C84643   0.016   3.993   4.208 -0.0936  0.2405  0.7476
  642MOL0     C84644  -0.090   4.050   4.287  0.3485  0.9437 -0.4632
  642MOL0     C84645  -0.216   3.982   4.275 -0.3844  0.4017  0.0596
  642MOL0     C84646  -0.230   3.860   4.192  0.2802  0.4789  0.1261
  642MOL0     O84647  -0.345   3.792   4.172 -0.3376 -0.2168 -0.0072
  642MOL0     C84648  -0.461   3.857   4.232 -0.0856  0.3768 -0.5405
  642MOL0     C84649  -0.597   3.797   4.183  0.9006  0.2917  0.1441
  642MOL0     C84650  -0.718   3.853   4.263 -0.7117 -0.7445  0.1675
  642MOL0     C84651  -0.854   3.794   4.214  0.0653 -0.2989  0.9719
  642MOL0     C84652  -0.961   3.840   4.310  0.7635  0.1780 -0.2100
  642MOL0     C84653  -1.097   3.776   4.292  0.1889  0.7825  0.1847
  642MOL0     C84654  -1.153   3.803   4.149  0.3384  0.7153 -0.5385
  642MOL0     C84655  -1.295   3.745   4.132 -0.5939 -0.0658 -0.0867
  642MOL0    Cl84656  -1.431   3.863   4.190 -0.9424 -0.1534  0.1839
  642MOL0     C84657  -0.124   3.809   4.117 -0.7538  0.1695 -0.4273
  642MOL0     C84658  -0.002   3.879   4.115 -0.6988 -0.8610 -0.3486
  642MOL0     O84659   0.273   3.890   4.195 -1.0560  0.3538 -0.1701
  642MOL0     C84660   0.490   4.070   4.124  1.0344 -0.5699  0.2549
  642MOL0     C84661   0.594   4.171   4.117 -0.1965  0.1793  0.1688
  642MOL0     N84662   1.133   4.537   4.490 -0.8779  0.7616 -0.7424
  642MOL0     N84663   1.223   4.480   4.573  0.2915 -0.0884  0.2573
  642MOL0     C84664   2.543   4.317   4.592  0.3982 -0.1519  1.0685
  642MOL0     C84665   2.650   4.245   4.635 -0.5354  0.4101 -1.2917
  642MOL0     C84666   2.911   3.992   4.913  0.3835  0.3934  0.0166
  642MOL0     C84667   3.000   4.007   4.808 -1.1181  0.0391  0.3009
  642MOL0     C84668   3.139   3.989   4.836  0.5238 -0.2250  0.2424
  642MOL0     C84669   3.187   3.947   4.957 -0.4364  0.7118 -0.5792
  642MOL0     O84670   3.321   3.926   4.997  0.5526 -0.3099 -0.5991
  642MOL0     C84671   3.426   3.978   4.909 -0.2265 -0.0252 -0.5553
  642MOL0     C84672   3.464   3.881   4.797 -0.0113  0.0999  0.1608
  642MOL0     C84673   3.584   3.933   4.723 -0.1830  0.7116  0.0039
  642MOL0     C84674   3.618   3.864   4.589  0.7052 -0.4922 -0.4718
  642MOL0     C84675   3.637   3.717   4.602  0.5208 -0.2930  0.6674
  642MOL0     C84676   3.640   3.599   4.629  0.5435 -0.1952  0.0386
  642MOL0     C84677   3.090   3.920   5.054  0.0502  0.6892  0.2208
  642MOL0     C84678   2.956   3.933   5.034  0.9911  0.2919  0.2632
  642MOL0     H84679   2.495   4.033   4.852 -1.5005 -0.6583 -0.9143
  642MOL0     H84680   2.307   4.167   4.770 -0.0717  4.4107  1.1752
  642MOL0     H84681   2.370   4.454   4.446 -1.1132 -2.0381 -0.4699
  642MOL0     H84682   2.307   4.568   4.569 -1.9453  0.6578 -1.0441
  642MOL0     H84683   2.164   4.430   4.354  0.8155 -1.0203  0.0021
  642MOL0     H84684   2.168   4.602   4.408  1.3970  0.0600 -1.8135
  642MOL0     H84685   2.064   4.519   4.635 -2.1670 -0.1660  1.2652
  642MOL0     H84686   2.051   4.361   4.551 -0.0860  0.4230  0.6549
  642MOL0     H84687   1.902   4.629   4.493 -1.9887 -0.5537  2.2009
  642MOL0     H84688   1.901   4.491   4.379 -0.9071  0.7908 -0.9774
  642MOL0     H84689   1.812   4.449   4.658  2.1515 -2.0341 -0.8524
  642MOL0     H84690   1.786   4.348   4.517 -0.3444 -0.1108 -0.1118
  642MOL0     H84691   1.646   4.508   4.396 -2.4241 -3.0894  0.6897
  642MOL0     H84692   1.691   4.634   4.515  0.3963 -0.1822  0.5250
  642MOL0     H84693   1.563   4.481   4.695 -2.3029 -1.2275 -0.0612
  642MOL0     H84694   1.489   4.598   4.601  2.5161  0.9633  3.5217
  642MOL0     H84695   1.446   4.322   4.621  1.2985 -0.7270 -0.3733
  642MOL0     H84696   1.503   4.349   4.453  1.2646  0.4775 -0.7426
  642MOL0     H84697   1.373   4.505   4.281 -0.3203  0.4014  0.1141
  642MOL0     H84698   1.140   4.569   4.143  0.8645 -1.4742  0.1916
  642MOL0     H84699   1.079   4.687   4.252  1.8663  0.3961  0.5265
  642MOL0     H84700   0.914   4.565   4.356  2.9511 -0.0512  1.3701
  642MOL0     H84701   0.951   4.420   4.260 -2.4506 -0.4571 -0.5437
  642MOL0     H84702   0.826   4.673   4.149 -3.6179 -1.2854 -0.0792
  642MOL0     H84703   0.878   4.532   4.057 -0.2341 -1.2492 -0.5473
  642MOL0     H84704   0.628   4.590   4.122 -1.8156 -0.8299  1.4490
  642MOL0     H84705   0.675   4.511   4.275  2.6625  0.2195  1.0844
  642MOL0     H84706   0.433   4.443   4.240 -0.2696 -0.6873  3.7738
  642MOL0     H84707   0.248   4.286   4.250  0.0608  1.6962 -0.5431
  642MOL0     H84708  -0.077   4.147   4.333 -0.8287  3.0636 -4.1299
  642MOL0     H84709  -0.299   4.030   4.325 -0.8771 -0.8351  0.4830
  642MOL0     H84710  -0.472   3.965   4.218 -6.7996  0.3705  1.3831
  642MOL0     H84711  -0.446   3.845   4.339  1.1276 -3.3057 -0.9894
  642MOL0     H84712  -0.597   3.690   4.203 -0.1728  0.0954 -0.7541
  642MOL0     H84713  -0.618   3.811   4.076 -0.9626  1.1084  0.5754
  642MOL0     H84714  -0.741   3.960   4.255 -4.2567 -1.5367 -2.8845
  642MOL0     H84715  -0.687   3.828   4.365 -0.2772  1.1604  0.5388
  642MOL0     H84716  -0.872   3.830   4.112  1.4089 -0.4641  0.6502
  642MOL0     H84717  -0.864   3.685   4.204 -2.7309  0.0572 -1.3038
  642MOL0     H84718  -0.970   3.946   4.286 -0.6720 -0.2678 -1.8532
  642MOL0     H84719  -0.934   3.835   4.416  0.5061 -0.0524 -0.1526
  642MOL0     H84720  -1.170   3.825   4.358  1.4494 -0.1282  2.3708
  642MOL0     H84721  -1.095   3.673   4.326  3.4514  0.0351 -1.9061
  642MOL0     H84722  -1.158   3.912   4.138  0.4299  0.7874  0.0843
  642MOL0     H84723  -1.088   3.763   4.071 -0.8022 -1.4850 -0.4592
  642MOL0     H84724  -1.294   3.647   4.181  1.3807  0.5275  1.1628
  642MOL0     H84725  -1.329   3.728   4.030  0.3433 -3.1564 -0.0018
  642MOL0     H84726  -0.141   3.727   4.048 -1.4252 -1.0490  1.1220
  642MOL0     H84727   0.070   3.853   4.039  0.7403  1.6433  0.0404
  642MOL0     H84728   0.509   3.970   4.086 -1.9377 -1.6132  1.2553
  642MOL0     H84729   0.696   4.161   4.082  0.3990  0.7475  1.6396
  642MOL0     H84730   2.549   4.393   4.515 -2.5592  0.9565  1.7781
  642MOL0     H84731   2.744   4.257   4.581 -0.1923 -2.4645 -1.4542
  642MOL0     H84732   2.979   4.036   4.706 -0.4868 -1.0453 -0.1546
  642MOL0     H84733   3.212   4.003   4.757  2.8483  2.3481  2.5911
  642MOL0     H84734   3.511   3.988   4.976  0.8985  2.7153 -2.1884
  642MOL0     H84735   3.408   4.075   4.860 -0.8476 -1.6816 -3.9543
  642MOL0     H84736   3.487   3.784   4.841 -1.7976 -0.7954 -0.7520
  642MOL0     H84737   3.384   3.871   4.723 -0.6665 -2.9504  1.1419
  642MOL0     H84738   3.670   3.921   4.789  0.2723 -2.2006 -0.9541
  642MOL0     H84739   3.570   4.037   4.692 -2.9364  0.2668 -0.5154
  642MOL0     H84740   3.529   3.882   4.528 -0.2530 -1.6247  0.5234
  642MOL0     H84741   3.712   3.905   4.551 -0.3179 -0.2021 -2.8260
  642MOL0     H84742   3.650   3.495   4.652  2.0576  0.3705  2.2101
  642MOL0     H84743   3.133   3.898   5.152 -2.3437  1.5198  1.5357
  642MOL0     H84744   2.882   3.906   5.109 -2.3605  3.5718 -1.5012
  643MOL0     O84745   7.913   5.908   3.125 -0.8755  0.2364 -0.1129
  643MOL0     C84746   7.961   5.836   3.034  0.1111  0.1548 -0.5474
  643MOL0     O84747   7.898   5.759   2.948 -0.1362  1.2588 -0.3478
  643MOL0     C84748   7.767   5.726   2.942  0.0088  0.2649 -0.2027
  643MOL0     C84749   7.752   5.616   2.857 -0.2427 -0.5766 -0.1555
  643MOL0     C84750   7.627   5.559   2.852  0.2026  0.3273  0.2475
  643MOL0     C84751   7.509   5.614   2.916  0.0646 -0.4189  0.4981
  643MOL0     O84752   7.387   5.561   2.903 -0.3599 -0.3229  0.4952
  643MOL0     C84753   7.370   5.453   2.817  0.2485  0.1381 -0.1096
  643MOL0     C84754   7.222   5.428   2.791  0.2640  0.0702  0.5445
  643MOL0     C84755   7.123   5.451   2.898  0.0156 -0.1709 -0.8834
  643MOL0     C84756   6.991   5.388   2.868 -0.6932  0.1100  0.3980
  643MOL0     C84757   6.903   5.403   2.992 -0.2406  0.3633  0.3293
  643MOL0     C84758   6.764   5.420   2.943 -0.9021 -0.2995 -0.0411
  643MOL0     C84759   6.677   5.452   3.070 -0.1097  0.8475 -0.5524
  643MOL0     C84760   6.534   5.477   3.042 -0.5412  0.0797 -0.0182
  643MOL0     N84761   6.463   5.349   2.999 -0.6719 -0.9771 -0.2136
  643MOL0     C84762   6.427   5.252   3.095 -0.3012  0.7398 -0.2176
  643MOL0     C84763   6.369   5.155   3.023 -0.2776 -0.8228  0.3342
  643MOL0     C84764   6.289   5.037   3.067 -0.5651  0.3927 -0.1812
  643MOL0     C84765   6.360   4.902   3.052  0.0776  0.0638  0.6025
  643MOL0     C84766   6.478   4.891   3.140  0.0319  0.2065  0.2076
  643MOL0     C84767   6.469   4.858   3.288  1.1486  0.1148 -0.9351
  643MOL0     O84768   6.453   4.982   3.362 -0.5329  0.0521  0.0632
  643MOL0     C84769   6.569   5.055   3.389 -0.0069 -0.2764  0.4929
  643MOL0     C84770   6.549   5.188   3.439 -0.5610  0.1145 -0.7971
  643MOL0     C84771   6.645   5.287   3.429  0.7099 -0.0733 -0.7049
  643MOL0     C84772   6.772   5.251   3.380  0.6508  0.2328  0.4004
  643MOL0     C84773   6.884   5.350   3.364  0.1179  0.3517  0.9368
  643MOL0     O84774   6.851   5.485   3.339 -0.1387  0.2268 -0.1149
  643MOL0     C84775   6.956   5.582   3.336  0.2868  0.3248  0.1311
  643MOL0     C84776   7.077   5.555   3.279  0.8689 -0.1930  0.7204
  643MOL0     C84777   7.179   5.650   3.282 -1.2486  0.2218  0.6065
  643MOL0     C84778   7.162   5.768   3.346 -0.9401 -0.3196  0.4212
  643MOL0     O84779   7.277   5.840   3.336 -0.7396  0.3568 -0.5071
  643MOL0     C84780   7.275   5.982   3.367 -0.7547 -0.8083  0.5048
  643MOL0     C84781   7.414   6.030   3.370  0.1981  0.9998 -0.5055
  643MOL0     C84782   7.436   6.178   3.409  0.4677  0.0518  0.4988
  643MOL0     C84783   7.584   6.212   3.411  0.3825 -0.6040  0.9533
  643MOL0     C84784   7.613   6.362   3.426 -0.3701 -0.6820  0.0616
  643MOL0     C84785   7.769   6.388   3.457  0.7787  0.3858  0.3621
  643MOL0     C84786   7.785   6.538   3.462  0.3261 -0.8434 -0.1254
  643MOL0     C84787   7.925   6.592   3.465 -0.0766 -0.3415 -0.0791
  643MOL0    Cl84788   7.925   6.769   3.458 -0.2349 -0.1093  0.1809
  643MOL0     C84789   7.038   5.802   3.400  0.2356 -0.7019  0.1370
  643MOL0     C84790   6.937   5.704   3.387  0.1315  0.0585  0.2990
  643MOL0     O84791   7.000   5.301   3.383 -0.6476  0.0827  0.1626
  643MOL0     C84792   6.801   5.120   3.348  1.1641  0.2492 -0.0752
  643MOL0     C84793   6.699   5.021   3.353 -0.7695  0.5298  0.3392
  643MOL0     N84794   6.386   5.190   2.887 -0.7136  0.0256  0.1550
  643MOL0     N84795   6.432   5.307   2.872 -0.2872 -0.2770  0.1897
  643MOL0     C84796   7.530   5.726   2.991  0.7822  0.2392  0.0842
  643MOL0     C84797   7.659   5.775   3.009 -0.1193 -0.0020  0.0909
  643MOL0     C84798   8.103   5.819   3.038 -0.7048 -0.6236  1.0329
  643MOL0     C84799   8.158   5.691   3.007 -0.2460 -0.3435  0.5818
  643MOL0     C84800   8.297   5.671   3.003  0.0157 -0.2353 -0.4058
  643MOL0     C84801   8.385   5.784   3.019  0.3454  0.3473  0.1240
  643MOL0     O84802   8.523   5.762   3.011  0.4609  0.4039  0.1420
  643MOL0     C84803   8.618   5.867   2.979  0.3381 -0.4122 -0.0200
  643MOL0     C84804   8.685   5.924   3.107  0.4792 -0.8333  0.2162
  643MOL0     C84805   8.751   6.060   3.074 -0.2690 -0.4272  0.1349
  643MOL0     C84806   8.875   6.079   2.985 -0.6957  0.2943 -0.3475
  643MOL0     C84807   8.994   6.028   3.046 -0.8582 -0.1396 -0.1743
  643MOL0     C84808   9.090   6.002   3.119 -0.4746  0.1566 -0.0571
  643MOL0     C84809   8.321   5.903   3.055  0.9471 -0.6641 -1.0194
  643MOL0     C84810   8.184   5.927   3.063 -0.2316 -0.2611 -0.4149
  643MOL0     H84811   7.840   5.579   2.805 -0.2101  2.5481 -2.6510
  643MOL0     H84812   7.627   5.462   2.805  0.1923  0.2280  0.4516
  643MOL0     H84813   7.412   5.364   2.866  2.1172 -0.4357 -2.5374
  643MOL0     H84814   7.418   5.464   2.720  3.4712  2.7939  1.5545
  643MOL0     H84815   7.221   5.324   2.757  1.8326 -0.4095  1.8100
  643MOL0     H84816   7.195   5.499   2.713  1.6638 -1.1469 -1.1218
  643MOL0     H84817   7.120   5.560   2.912  2.1375  0.0376 -1.5741
  643MOL0     H84818   7.161   5.403   2.989  2.8315  2.4987 -0.4687
  643MOL0     H84819   6.951   5.429   2.775 -1.3296  0.9823  1.0427
  643MOL0     H84820   6.994   5.279   2.855  0.4609  0.2890 -1.0831
  643MOL0     H84821   6.928   5.488   3.056  0.9666 -0.9419  1.6583
  643MOL0     H84822   6.902   5.314   3.055  4.0519  0.2117  0.4463
  643MOL0     H84823   6.725   5.326   2.902 -0.7697  0.1581 -1.2626
  643MOL0     H84824   6.764   5.500   2.868  2.1288  0.8323  1.0123
  643MOL0     H84825   6.664   5.363   3.133 -0.0044  1.4234  0.2931
  643MOL0     H84826   6.711   5.536   3.130  0.8646  1.2009 -1.5771
  643MOL0     H84827   6.538   5.552   2.962  2.2979  0.6229  0.5156
  643MOL0     H84828   6.499   5.516   3.138 -0.4355  0.2596 -0.0527
  643MOL0     H84829   6.424   5.262   3.203 -3.6459 -0.4007 -0.0793
  643MOL0     H84830   6.190   5.029   3.020 -2.3510  1.0658  3.2067
  643MOL0     H84831   6.250   5.046   3.169 -0.2910 -1.0539  0.0713
  643MOL0     H84832   6.390   4.906   2.947 -2.8291  0.0436 -0.3083
  643MOL0     H84833   6.299   4.812   3.063 -0.7035  0.3585 -1.1018
  643MOL0     H84834   6.533   4.803   3.104 -1.0312  0.2272 -1.6014
  643MOL0     H84835   6.548   4.972   3.118  1.5375 -1.0256  0.2906
  643MOL0     H84836   6.562   4.806   3.311 -0.3630 -1.9380  1.1652
  643MOL0     H84837   6.383   4.791   3.300 -0.5162  1.7125 -3.1023
  643MOL0     H84838   6.453   5.215   3.482  0.9512  1.8425  1.7569
  643MOL0     H84839   6.631   5.391   3.458  1.1253 -0.2968  0.3681
  643MOL0     H84840   7.090   5.473   3.209  3.0468 -1.0208  1.9932
  643MOL0     H84841   7.274   5.630   3.233 -1.4936  1.7674 -0.6073
  643MOL0     H84842   7.236   5.995   3.468 -3.0411  1.5108 -0.5439
  643MOL0     H84843   7.207   6.027   3.293 -4.2205 -2.6523  2.3037
  643MOL0     H84844   7.450   6.015   3.268 -1.5436 -2.6197 -0.7485
  643MOL0     H84845   7.469   5.963   3.437 -1.5322 -0.2148 -0.2223
  643MOL0     H84846   7.383   6.206   3.501 -1.0529  2.2295 -0.9194
  643MOL0     H84847   7.383   6.234   3.332 -0.1452 -1.9108 -0.5807
  643MOL0     H84848   7.650   6.156   3.479  0.1541  0.1542  1.8110
  643MOL0     H84849   7.623   6.185   3.313  0.3163 -1.2236  1.0937
  643MOL0     H84850   7.554   6.413   3.503 -2.1057 -1.9507 -0.3566
  643MOL0     H84851   7.578   6.417   3.338 -0.7042  2.3454  1.9270
  643MOL0     H84852   7.826   6.349   3.372 -0.6499  0.3085 -0.5941
  643MOL0     H84853   7.803   6.323   3.538 -1.8819 -0.4759  0.8959
  643MOL0     H84854   7.736   6.591   3.380  2.0902  4.5374  1.8633
  643MOL0     H84855   7.729   6.569   3.550 -0.2942  0.3277 -0.9118
  643MOL0     H84856   7.977   6.552   3.378  0.1836 -0.3974  0.1025
  643MOL0     H84857   7.978   6.561   3.555 -0.3041  1.9272  0.9278
  643MOL0     H84858   7.016   5.893   3.455  2.4098 -0.3542  0.5282
  643MOL0     H84859   6.838   5.733   3.419 -0.3254 -0.4335 -0.6341
  643MOL0     H84860   6.890   5.086   3.295  1.2998  1.0693 -0.3767
  643MOL0     H84861   6.724   4.924   3.312  1.2222  1.5016 -0.8654
  643MOL0     H84862   7.449   5.769   3.048  2.2423  1.7627  1.1179
  643MOL0     H84863   7.676   5.860   3.075  2.4609  0.5202 -1.1394
  643MOL0     H84864   8.087   5.613   2.981 -0.4991 -0.4515  1.5720
  643MOL0     H84865   8.346   5.578   2.977  0.9746 -0.3960  1.7281
  643MOL0     H84866   8.554   5.942   2.930  2.6159  2.9404  1.7322
  643MOL0     H84867   8.689   5.848   2.898 -1.8027  3.6689 -3.2478
  643MOL0     H84868   8.607   5.929   3.184 -1.8260 -1.8773 -1.9158
  643MOL0     H84869   8.757   5.858   3.157  1.6447  0.9727  1.0059
  643MOL0     H84870   8.780   6.095   3.174  0.6539  1.1928 -0.6476
  643MOL0     H84871   8.674   6.133   3.045  3.1342  4.0639  1.3457
  643MOL0     H84872   8.855   6.024   2.892  1.2526 -1.5190  0.2140
  643MOL0     H84873   8.889   6.182   2.952 -2.7152  0.4820 -0.7709
  643MOL0     H84874   9.173   5.966   3.177 -0.7260 -1.6979 -0.7890
  643MOL0     H84875   8.377   5.992   3.081  2.1074 -1.7453  0.3580
  643MOL0     H84876   8.143   6.024   3.089 -0.1844 -1.1723  3.7617
  644MOL0     O84877   7.899   0.101   7.533 -0.4658 -0.3834 -0.4152
  644MOL0     C84878   7.964  -0.002   7.564 -0.2196 -0.8571 -0.2190
  644MOL0     O84879   7.922  -0.122   7.552 -0.6491  0.1321  0.1368
  644MOL0     C84880   7.790  -0.156   7.544 -0.3102 -0.1219 -0.5546
  644MOL0     C84881   7.758  -0.247   7.440  0.2782  0.6974 -0.7699
  644MOL0     C84882   7.617  -0.284   7.433 -0.2925  0.3579  0.2762
  644MOL0     C84883   7.517  -0.236   7.519  0.6428  0.0542 -0.3555
  644MOL0     O84884   7.383  -0.261   7.510 -0.5080 -0.3354  0.1822
  644MOL0     C84885   7.346  -0.384   7.450 -0.0678 -0.6312 -0.5639
  644MOL0     C84886   7.197  -0.398   7.464 -1.1972 -0.7278 -0.7572
  644MOL0     C84887   7.138  -0.511   7.396 -0.2501  0.0803 -0.0541
  644MOL0     C84888   6.983  -0.518   7.414 -0.1217  0.1777  0.3999
  644MOL0     C84889   6.918  -0.636   7.332 -0.0655 -0.0026 -0.1458
  644MOL0     C84890   6.974  -0.768   7.391 -0.6019 -0.0512  0.3292
  644MOL0     C84891   6.906  -0.889   7.333 -0.0335  0.3049  0.0523
  644MOL0     C84892   6.998  -1.002   7.297 -0.9136 -0.0316 -0.9844
  644MOL0     N84893   6.944  -1.137   7.309  0.0581 -0.4504 -0.0635
  644MOL0     C84894   6.889  -1.202   7.198 -0.6954  0.1544  0.4805
  644MOL0     C84895   6.844  -1.322   7.251  0.3881  0.0212  0.4237
  644MOL0     C84896   6.788  -1.428   7.169  0.1381  0.3515  0.3255
  644MOL0     C84897   6.641  -1.441   7.202  0.1901 -0.3434  0.0218
  644MOL0     C84898   6.556  -1.336   7.133  0.1782  0.3477 -0.9775
  644MOL0     C84899   6.409  -1.337   7.173  0.4359  0.1279 -0.1412
  644MOL0     O84900   6.340  -1.466   7.154 -0.4493 -0.6834  0.0983
  644MOL0     C84901   6.206  -1.471   7.137 -0.8498 -0.3896 -0.1965
  644MOL0     C84902   6.161  -1.597   7.116 -0.0036 -0.4686  0.3390
  644MOL0     C84903   6.024  -1.624   7.122  0.6073 -0.8597 -0.1376
  644MOL0     C84904   5.925  -1.526   7.144  1.1244 -0.1161  0.0261
  644MOL0     C84905   5.779  -1.567   7.169  0.1453 -0.4817  0.5860
  644MOL0     O84906   5.760  -1.692   7.208 -0.7752 -0.6390 -0.2821
  644MOL0     C84907   5.632  -1.723   7.237  0.6969 -0.0848  0.1479
  644MOL0     C84908   5.532  -1.715   7.132 -0.1368 -0.1565 -0.5909
  644MOL0     C84909   5.395  -1.731   7.155 -0.0148 -0.4597  0.1320
  644MOL0     C84910   5.349  -1.751   7.285 -0.2399  0.5410 -0.2221
  644MOL0     O84911   5.218  -1.752   7.328  0.9609  0.2864  0.3968
  644MOL0     C84912   5.119  -1.800   7.235  1.1773  0.3181 -0.3821
  644MOL0     C84913   4.976  -1.815   7.306 -0.3314 -0.1230 -0.1693
  644MOL0     C84914   4.862  -1.866   7.208  0.1473  0.8008  0.2008
  644MOL0     C84915   4.765  -1.931   7.302 -0.1965 -0.1932 -0.7691
  644MOL0     C84916   4.659  -1.995   7.218  0.1019 -0.3929  0.5131
  644MOL0     C84917   4.558  -2.085   7.296 -0.1344  0.0037  0.6801
  644MOL0     C84918   4.438  -2.107   7.209 -0.3964 -0.7583 -0.5217
  644MOL0     C84919   4.341  -2.205   7.272  0.2866  0.5656 -0.2850
  644MOL0    Cl84920   4.430  -2.368   7.312 -0.0300 -0.3820  0.0800
  644MOL0     C84921   5.446  -1.740   7.395 -0.3475  0.0476  0.2638
  644MOL0     C84922   5.586  -1.738   7.376 -0.3055  0.3563  0.7231
  644MOL0     O84923   5.687  -1.482   7.155  0.6652  0.5522 -0.7431
  644MOL0     C84924   5.975  -1.397   7.152  0.4197  0.8560 -0.2398
  644MOL0     C84925   6.112  -1.369   7.144 -0.5573  0.7076 -0.1410
  644MOL0     N84926   6.866  -1.326   7.389 -0.6158 -0.2424 -0.3380
  644MOL0     N84927   6.933  -1.219   7.419 -0.4753  0.0778  0.2423
  644MOL0     C84928   7.559  -0.143   7.619  1.0357  0.2802  0.0627
  644MOL0     C84929   7.689  -0.099   7.625 -1.1283  0.3090  0.3619
  644MOL0     C84930   8.109   0.026   7.595 -0.0538 -0.3267  0.1822
  644MOL0     C84931   8.157   0.162   7.581 -0.3749 -0.0962 -0.0991
  644MOL0     C84932   8.296   0.185   7.586  0.1822 -0.1098 -0.1756
  644MOL0     C84933   8.394   0.083   7.614 -1.1244  0.3554 -0.1359
  644MOL0     O84934   8.526   0.117   7.636 -1.0592  0.0760 -0.5301
  644MOL0     C84935   8.617   0.006   7.658  0.2742 -0.3587  0.4560
  644MOL0     C84936   8.744   0.059   7.720 -0.1304  0.0918 -0.8313
  644MOL0     C84937   8.816   0.172   7.644 -0.6537 -0.5436 -0.0093
  644MOL0     C84938   8.942   0.214   7.724 -0.7142 -0.9590  0.3730
  644MOL0     C84939   9.062   0.135   7.675  0.0412 -0.0516  1.1133
  644MOL0     C84940   9.158   0.082   7.633  0.5315  1.0991  0.4392
  644MOL0     C84941   8.350  -0.050   7.625  0.6579 -0.1173  0.4607
  644MOL0     C84942   8.212  -0.074   7.613  0.4655  0.9101 -0.5240
  644MOL0     H84943   7.838  -0.299   7.387  0.6184 -0.2572  0.6206
  644MOL0     H84944   7.592  -0.373   7.376  2.1827  0.5316 -1.2331
  644MOL0     H84945   7.394  -0.468   7.501 -1.0262 -0.8329  0.0250
  644MOL0     H84946   7.372  -0.397   7.345 -2.0473 -1.1610 -1.0174
  644MOL0     H84947   7.148  -0.308   7.426  0.2998  0.8693  0.8902
  644MOL0     H84948   7.169  -0.398   7.570  1.4433  2.1303  0.0956
  644MOL0     H84949   7.177  -0.601   7.445  1.1797 -0.1814 -1.5880
  644MOL0     H84950   7.169  -0.513   7.291 -1.7860  2.4582 -0.6153
  644MOL0     H84951   6.954  -0.538   7.517  0.0384 -1.2018  0.1974
  644MOL0     H84952   6.951  -0.421   7.373  2.5889  0.2680 -1.8290
  644MOL0     H84953   6.958  -0.627   7.230  1.1702 -1.4938  0.1704
  644MOL0     H84954   6.810  -0.639   7.320  0.0231  0.6864 -1.3157
  644MOL0     H84955   6.966  -0.767   7.500  2.8574  1.0313  0.6905
  644MOL0     H84956   7.082  -0.769   7.374 -0.6029  2.0825 -0.0051
  644MOL0     H84957   6.837  -0.931   7.407  2.8647 -1.7450  1.8457
  644MOL0     H84958   6.853  -0.861   7.242  1.6618  1.0225 -0.7711
  644MOL0     H84959   7.085  -1.009   7.363 -2.2220  0.5068  0.9030
  644MOL0     H84960   7.035  -0.979   7.197  2.5358 -1.7786 -0.2547
  644MOL0     H84961   6.893  -1.168   7.095 -1.1805 -2.1310 -0.3369
  644MOL0     H84962   6.844  -1.520   7.187  3.8017  1.9848 -1.6221
  644MOL0     H84963   6.798  -1.401   7.063  0.7606  0.9352  0.5240
  644MOL0     H84964   6.619  -1.431   7.309 -2.1957  0.7758 -0.5086
  644MOL0     H84965   6.610  -1.541   7.172 -0.6054  0.2866 -1.3890
  644MOL0     H84966   6.599  -1.237   7.148  3.5502 -1.1611  0.5323
  644MOL0     H84967   6.562  -1.364   7.028  0.0953  0.8231 -1.1086
  644MOL0     H84968   6.362  -1.260   7.110  2.1701  0.3187 -1.2920
  644MOL0     H84969   6.401  -1.316   7.280  2.1032 -1.0879  0.2557
  644MOL0     H84970   6.225  -1.678   7.082  2.0446  0.4502  1.8180
  644MOL0     H84971   5.995  -1.728   7.113 -0.1327 -0.8815  2.0787
  644MOL0     H84972   5.564  -1.701   7.029  2.7284  1.0957  0.3500
  644MOL0     H84973   5.326  -1.723   7.072 -0.7668 -5.6607 -0.0170
  644MOL0     H84974   5.153  -1.901   7.211  0.2642 -0.0403 -0.1942
  644MOL0     H84975   5.101  -1.748   7.141 -2.8153  3.1544  1.6524
  644MOL0     H84976   4.962  -1.715   7.348 -3.1922 -1.4684  2.4624
  644MOL0     H84977   5.003  -1.884   7.386  2.3677  0.6648 -0.2742
  644MOL0     H84978   4.901  -1.933   7.131 -1.0225  1.0439 -0.6277
  644MOL0     H84979   4.813  -1.787   7.151 -1.6680  0.2446  0.9169
  644MOL0     H84980   4.808  -2.009   7.366  1.4725  2.8944  2.1962
  644MOL0     H84981   4.727  -1.859   7.375  1.8722  2.4806 -2.1445
  644MOL0     H84982   4.695  -2.046   7.128 -0.8820 -0.9980  0.4491
  644MOL0     H84983   4.588  -1.919   7.186 -0.1221 -0.4713  0.8245
  644MOL0     H84984   4.514  -2.033   7.381  1.0159  0.8642  0.7826
  644MOL0     H84985   4.605  -2.174   7.339 -0.5069  0.1507  1.4059
  644MOL0     H84986   4.382  -2.014   7.199  0.5633  0.1373  1.7092
  644MOL0     H84987   4.461  -2.140   7.108 -1.9951  0.6166 -1.3751
  644MOL0     H84988   4.259  -2.230   7.205 -0.7544  2.2733  0.3005
  644MOL0     H84989   4.307  -2.164   7.367 -0.6183 -0.5942 -0.0874
  644MOL0     H84990   5.410  -1.746   7.497  1.8887 -2.6972  1.0077
  644MOL0     H84991   5.655  -1.730   7.460 -2.2557  0.8852  2.3563
  644MOL0     H84992   5.908  -1.319   7.188  3.0667  2.2190  2.1617
  644MOL0     H84993   6.151  -1.268   7.153 -1.7679  1.2395 -0.6820
  644MOL0     H84994   7.482  -0.092   7.675  1.7790  2.4849 -0.8077
  644MOL0     H84995   7.724  -0.032   7.703  0.3372 -1.0265  0.9091
  644MOL0     H84996   8.084   0.242   7.575 -0.9128 -0.2219  3.2250
  644MOL0     H84997   8.319   0.290   7.576  1.3954 -0.3952 -0.5510
  644MOL0     H84998   8.644  -0.046   7.566 -0.4611 -0.7939  0.4741
  644MOL0     H84999   8.576  -0.069   7.727 -3.1091  0.1354 -0.8242
  644MOL0     H85000   8.712   0.112   7.810  0.8866 -0.7893  0.0738
  644MOL0     H85001   8.812  -0.020   7.753  0.2003  1.6827  2.7913
  644MOL0     H85002   8.735   0.245   7.640 -2.8635 -2.8849 -1.8768
  644MOL0     H85003   8.840   0.151   7.540 -3.8072  1.7269 -1.3708
  644MOL0     H85004   8.974   0.316   7.705  0.7162 -1.6348 -1.0524
  644MOL0     H85005   8.923   0.205   7.831 -2.0216 -1.1426  0.1508
  644MOL0     H85006   9.242   0.025   7.599  1.2574  2.4362 -0.0628
  644MOL0     H85007   8.416  -0.135   7.614 -1.6215 -1.7826 -1.3713
  644MOL0     H85008   8.174  -0.175   7.621 -0.2188  1.2086  0.1222
  645MOL0     O85009   0.513   3.742  10.214  0.0020 -0.0324 -0.0594
  645MOL0     C85010   0.572   3.657  10.277  0.2498  0.6585 -0.1702
  645MOL0     O85011   0.543   3.629  10.407 -0.0844  0.6154  0.3366
  645MOL0     C85012   0.462   3.708  10.490 -0.3633 -0.0003 -0.3280
  645MOL0     C85013   0.517   3.783  10.600  1.1487  0.6588 -0.0975
  645MOL0     C85014   0.429   3.857  10.680  0.1759 -0.0403 -0.5290
  645MOL0     C85015   0.288   3.854  10.656  0.9909  0.4369  0.2494
  645MOL0     O85016   0.187   3.917  10.738 -0.6804 -0.7893  0.0925
  645MOL0     C85017   0.221   3.954  10.875  0.2566  1.2397  0.0523
  645MOL0     C85018   0.093   3.980  10.961  0.4078  0.0759  0.1571
  645MOL0     C85019   0.001   4.065  10.891 -0.0275 -0.5503  0.2908
  645MOL0     C85020  -0.125   4.081  10.985  0.2811 -0.0471  0.2948
  645MOL0     C85021  -0.227   4.177  10.926  0.1677  0.2413 -0.2744
  645MOL0     C85022  -0.273   4.294  11.017  0.1130  0.8105 -0.4243
  645MOL0     C85023  -0.363   4.240  11.120  0.6383  0.0648 -0.6730
  645MOL0     C85024  -0.375   4.327  11.250  0.1873 -0.1654 -0.0562
  645MOL0     N85025  -0.426   4.465  11.215  0.6478 -0.1244 -0.0553
  645MOL0     C85026  -0.545   4.498  11.160  0.0424 -0.1965 -0.4608
  645MOL0     C85027  -0.539   4.631  11.126 -0.8895  0.6213 -0.7812
  645MOL0     C85028  -0.645   4.701  11.060 -0.2207 -0.1872 -0.0954
  645MOL0     C85029  -0.767   4.725  11.144 -0.8648  1.0937  0.0240
  645MOL0     C85030  -0.761   4.845  11.250 -0.0738  0.8067 -0.0468
  645MOL0     C85031  -0.899   4.878  11.299 -0.1337 -1.1868  0.2441
  645MOL0     O85032  -0.976   4.758  11.308  0.0704  0.0601 -0.7111
  645MOL0     C85033  -1.106   4.768  11.343 -0.0635  0.2265  0.2386
  645MOL0     C85034  -1.167   4.644  11.348 -0.2713 -0.4445 -0.1677
  645MOL0     C85035  -1.304   4.632  11.378  0.4121  0.4329  0.3999
  645MOL0     C85036  -1.380   4.744  11.408 -0.2768 -0.2372  0.1689
  645MOL0     C85037  -1.523   4.738  11.439  0.2016 -0.0737  0.1285
  645MOL0     O85038  -1.571   4.842  11.511 -0.8449  0.2059 -0.3671
  645MOL0     C85039  -1.693   4.820  11.582  0.1674  0.1842  0.0798
  645MOL0     C85040  -1.702   4.830  11.724  0.1074  0.5220  0.8686
  645MOL0     C85041  -1.827   4.824  11.782 -0.4234  0.6772  0.0954
  645MOL0     C85042  -1.949   4.797  11.707 -1.3678 -0.7711 -0.3378
  645MOL0     O85043  -2.066   4.791  11.789 -0.5287  0.1346 -0.3057
  645MOL0     C85044  -2.186   4.750  11.724  0.4685 -0.0588 -0.3319
  645MOL0     C85045  -2.296   4.731  11.835 -0.9875  0.0330 -0.5008
  645MOL0     C85046  -2.261   4.633  11.941  0.9372 -0.2486 -0.1963
  645MOL0     C85047  -2.247   4.483  11.911 -0.5165  0.7322  0.1777
  645MOL0     C85048  -2.219   4.382  12.035  0.2849 -1.0473  0.2404
  645MOL0     C85049  -2.326   4.391  12.139 -0.0239 -0.6155 -0.6099
  645MOL0     C85050  -2.270   4.401  12.286  0.2605 -0.1429  0.3878
  645MOL0     C85051  -2.376   4.426  12.397  0.3833 -1.2120  0.3134
  645MOL0    Cl85052  -2.511   4.303  12.418 -0.4777  0.2148 -0.0534
  645MOL0     C85053  -1.938   4.793  11.568 -0.3397 -0.0056  0.6954
  645MOL0     C85054  -1.815   4.804  11.506 -0.8613  0.5011  0.2718
  645MOL0     O85055  -1.585   4.631  11.433 -0.0001  0.5061 -0.3766
  645MOL0     C85056  -1.308   4.866  11.412 -0.3349 -0.4620  0.5019
  645MOL0     C85057  -1.176   4.880  11.373 -0.8366 -0.7954  0.4757
  645MOL0     N85058  -0.408   4.672  11.173 -0.2464  0.0500 -1.1279
  645MOL0     N85059  -0.346   4.574  11.232  0.4164  0.6880  0.4632
  645MOL0     C85060   0.233   3.769  10.555  0.2124  0.7836 -0.1867
  645MOL0     C85061   0.322   3.697  10.472 -0.2448 -0.0214 -0.2350
  645MOL0     C85062   0.697   3.589  10.216  0.2042  0.5091 -0.1609
  645MOL0     C85063   0.709   3.589  10.078 -0.4207  0.4443  1.0279
  645MOL0     C85064   0.812   3.519  10.016  0.0401  0.7148  0.3082
  645MOL0     C85065   0.908   3.456  10.094 -0.6585 -0.9997 -0.5067
  645MOL0     O85066   1.006   3.378  10.048  0.0283 -0.4929  0.2633
  645MOL0     C85067   0.997   3.330   9.923  0.5438 -0.4028  0.1777
  645MOL0     C85068   1.107   3.223   9.914 -0.3788 -1.0659  0.1804
  645MOL0     C85069   1.246   3.286   9.876 -0.2766 -0.2840  0.3018
  645MOL0     C85070   1.293   3.417   9.947 -0.1702  0.1705 -0.4229
  645MOL0     C85071   1.442   3.444   9.938 -0.1744  0.3256 -0.5913
  645MOL0     C85072   1.556   3.480   9.949 -0.2383  0.5972 -0.2475
  645MOL0     C85073   0.909   3.472  10.234 -0.0699 -0.3492  0.4456
  645MOL0     C85074   0.800   3.536  10.294  0.4306 -0.1554  0.7487
  645MOL0     H85075   0.623   3.785  10.620  0.8828  0.9003  1.3996
  645MOL0     H85076   0.467   3.917  10.762 -2.0845 -0.0253  0.6033
  645MOL0     H85077   0.285   4.041  10.862  0.4631  0.9231 -1.1989
  645MOL0     H85078   0.276   3.877  10.930 -3.7819 -0.1884  2.5537
  645MOL0     H85079   0.127   4.017  11.058  3.5454  1.5609 -1.3259
  645MOL0     H85080   0.036   3.887  10.967  1.5296 -0.5160  2.6197
  645MOL0     H85081  -0.026   4.024  10.793  1.9119 -1.3472  0.0464
  645MOL0     H85082   0.043   4.166  10.877  1.6182 -1.2799 -0.3838
  645MOL0     H85083  -0.173   3.982  10.987  1.4233 -0.6813 -1.4771
  645MOL0     H85084  -0.100   4.122  11.083  0.3695  3.3073 -1.0042
  645MOL0     H85085  -0.310   4.121  10.882  2.1094 -1.3536 -2.0805
  645MOL0     H85086  -0.184   4.220  10.835 -1.8834  2.2568 -0.3987
  645MOL0     H85087  -0.325   4.373  10.963 -0.3869  1.6072  1.1660
  645MOL0     H85088  -0.187   4.339  11.067 -0.6817 -0.2252  2.0323
  645MOL0     H85089  -0.460   4.214  11.076  0.8779 -0.8336 -0.6986
  645MOL0     H85090  -0.330   4.144  11.160  1.9242  0.3766 -0.9450
  645MOL0     H85091  -0.276   4.335  11.297  0.4372 -0.6687 -0.4933
  645MOL0     H85092  -0.434   4.278  11.328 -0.0346  2.6577  1.7063
  645MOL0     H85093  -0.625   4.425  11.155 -0.6865  0.3726  1.7083
  645MOL0     H85094  -0.676   4.638  10.976  0.8655  1.3901 -1.7720
  645MOL0     H85095  -0.614   4.794  11.011  0.7920 -0.6956 -0.4434
  645MOL0     H85096  -0.787   4.629  11.192 -1.3520  0.6732 -0.9903
  645MOL0     H85097  -0.845   4.752  11.073  0.0414  1.1452 -0.9746
  645MOL0     H85098  -0.702   4.824  11.339  0.8700  2.6652 -0.1911
  645MOL0     H85099  -0.719   4.932  11.199 -0.3868  1.1106  0.2087
  645MOL0     H85100  -0.947   4.942  11.224  0.1322 -1.2714 -0.0002
  645MOL0     H85101  -0.889   4.941  11.388  0.0773 -0.0011 -0.6001
  645MOL0     H85102  -1.104   4.558  11.330 -0.0294 -0.9907  2.8472
  645MOL0     H85103  -1.337   4.529  11.373  1.0431  0.1510  1.5363
  645MOL0     H85104  -1.616   4.865  11.780 -1.8344  1.6220  3.3826
  645MOL0     H85105  -1.837   4.844  11.888 -1.3044  2.6155 -0.3115
  645MOL0     H85106  -2.159   4.655  11.676 -0.6701 -0.3503 -0.4091
  645MOL0     H85107  -2.209   4.824  11.647 -2.1474 -1.4904 -1.0253
  645MOL0     H85108  -2.391   4.697  11.791 -1.1625 -0.6205  0.3737
  645MOL0     H85109  -2.315   4.827  11.883  0.5271 -1.4685  3.4572
  645MOL0     H85110  -2.330   4.642  12.026 -0.2643 -0.6131 -1.0959
  645MOL0     H85111  -2.166   4.662  11.986  0.4271  0.3004  0.5710
  645MOL0     H85112  -2.336   4.449  11.858  0.8913 -0.4168 -1.5864
  645MOL0     H85113  -2.165   4.459  11.843 -1.6424  0.1113 -0.9989
  645MOL0     H85114  -2.123   4.414  12.077  0.1653  0.6132 -0.6809
  645MOL0     H85115  -2.199   4.281  11.997  1.5250 -0.0032 -2.0988
  645MOL0     H85116  -2.394   4.305  12.140 -0.7950 -0.0299 -0.8652
  645MOL0     H85117  -2.390   4.480  12.134  1.4791  0.6817  1.6933
  645MOL0     H85118  -2.207   4.316  12.315  1.1615  0.9899  1.8686
  645MOL0     H85119  -2.197   4.482  12.282  0.9878 -0.8475 -1.9912
  645MOL0     H85120  -2.429   4.519  12.375 -1.4025 -2.1580  0.4478
  645MOL0     H85121  -2.313   4.440  12.485  3.5137 -2.3594 -1.5619
  645MOL0     H85122  -2.034   4.788  11.518  0.4498  0.7333 -0.9867
  645MOL0     H85123  -1.796   4.794  11.399  1.1005 -0.1321  0.6412
  645MOL0     H85124  -1.364   4.954  11.441 -0.1373  0.0767 -0.6804
  645MOL0     H85125  -1.125   4.976  11.375  2.2264 -2.1961 -2.0143
  645MOL0     H85126   0.125   3.756  10.546  0.4024 -2.7968  1.0088
  645MOL0     H85127   0.301   3.626  10.393 -0.3112 -0.1230 -0.1264
  645MOL0     H85128   0.635   3.643  10.020  0.1653  0.5060  0.3240
  645MOL0     H85129   0.806   3.516   9.907 -3.8702  0.8003  0.3967
  645MOL0     H85130   0.986   3.408   9.848 -1.8028 -1.1468 -0.3487
  645MOL0     H85131   0.899   3.284   9.906  0.0605  0.7339 -0.1484
  645MOL0     H85132   1.115   3.173  10.011  1.6778  2.3721  1.9504
  645MOL0     H85133   1.077   3.149   9.839  1.0811 -2.7015  1.1375
  645MOL0     H85134   1.233   3.302   9.768 -3.5149  0.3838  0.6912
  645MOL0     H85135   1.328   3.217   9.895  2.9217  3.4783  1.6331
  645MOL0     H85136   1.244   3.504   9.903  0.9229  0.1589 -1.7117
  645MOL0     H85137   1.261   3.423  10.052  0.1667  2.4905 -0.4014
  645MOL0     H85138   1.659   3.509   9.959 -0.7197  2.7869 -1.1836
  645MOL0     H85139   0.991   3.427  10.290  0.7167  0.7448  0.2116
  645MOL0     H85140   0.798   3.540  10.402 -1.4074 -0.3833  0.7609
  646MOL0     O85141   2.131   2.496  10.705  0.4434 -0.1392  0.0841
  646MOL0     C85142   2.199   2.414  10.645 -0.0938 -0.1625 -0.6910
  646MOL0     O85143   2.161   2.291  10.596  0.2136 -1.2948  0.5684
  646MOL0     C85144   2.023   2.274  10.606  0.8265 -0.4752  0.1344
  646MOL0     C85145   1.942   2.304  10.496 -0.3621  0.0113  0.3450
  646MOL0     C85146   1.807   2.273  10.494 -0.0722  0.1436 -0.4468
  646MOL0     C85147   1.740   2.230  10.611  0.1062 -0.0307  0.2849
  646MOL0     O85148   1.607   2.206  10.639  0.0118  0.0066  0.1841
  646MOL0     C85149   1.510   2.234  10.533  0.3438 -0.4463 -0.4237
  646MOL0     C85150   1.372   2.256  10.601 -0.8500  0.7096  0.3538
  646MOL0     C85151   1.278   2.288  10.485  0.4717 -0.2846 -0.7453
  646MOL0     C85152   1.137   2.317  10.547  0.2068  0.0331  0.3409
  646MOL0     C85153   1.038   2.306  10.433  0.4673  0.4711 -0.0585
  646MOL0     C85154   0.903   2.303  10.486  0.4312  0.3624  0.1373
  646MOL0     C85155   0.804   2.330  10.373  0.4532 -0.5383 -0.2526
  646MOL0     C85156   0.778   2.480  10.328  0.0603  1.3426 -0.9275
  646MOL0     N85157   0.660   2.521  10.249 -0.4566  0.0930  0.7014
  646MOL0     C85158   0.532   2.464  10.255 -0.4715  1.0273  0.9716
  646MOL0     C85159   0.467   2.507  10.144 -0.3607  0.0189 -0.7908
  646MOL0     C85160   0.330   2.460  10.102  0.5274  0.6173 -0.7756
  646MOL0     C85161   0.227   2.507  10.192  0.2615 -0.8534 -0.4090
  646MOL0     C85162   0.220   2.659  10.205 -0.3993 -0.2590  1.0974
  646MOL0     C85163   0.095   2.721  10.261 -1.5023  0.1221 -0.5224
  646MOL0     O85164   0.073   2.673  10.398  0.1755  0.3896  0.6313
  646MOL0     C85165  -0.053   2.673  10.452 -0.0814  0.0968 -0.1524
  646MOL0     C85166  -0.168   2.690  10.384  0.2600 -0.5253  1.0095
  646MOL0     C85167  -0.286   2.713  10.457  0.7523  0.3571  0.4296
  646MOL0     C85168  -0.281   2.728  10.600 -0.2475 -0.2075 -0.0070
  646MOL0     C85169  -0.399   2.750  10.686  0.7831  0.2661  0.3158
  646MOL0     O85170  -0.512   2.746  10.611  0.0819 -0.4447 -0.0101
  646MOL0     C85171  -0.631   2.758  10.685 -0.6973 -0.1020  0.7547
  646MOL0     C85172  -0.675   2.677  10.794 -0.1706 -0.8357  0.6719
  646MOL0     C85173  -0.796   2.698  10.862 -0.6566 -0.2650  0.1527
  646MOL0     C85174  -0.883   2.798  10.826 -0.0632 -0.2235  1.1388
  646MOL0     O85175  -0.999   2.829  10.895  0.1281 -0.2599  0.4432
  646MOL0     C85176  -1.075   2.713  10.936  0.6346 -1.5562  0.1809
  646MOL0     C85177  -1.216   2.762  10.956 -0.3014 -0.0525  0.2506
  646MOL0     C85178  -1.312   2.646  10.968 -0.6800 -0.4528 -0.3506
  646MOL0     C85179  -1.455   2.711  10.998  0.4008  1.0555  0.4902
  646MOL0     C85180  -1.565   2.605  10.946 -0.2891 -0.4381  0.9394
  646MOL0     C85181  -1.711   2.662  10.941 -0.3847  0.3254  0.6624
  646MOL0     C85182  -1.724   2.777  10.847  0.0628 -0.0624  0.5300
  646MOL0     C85183  -1.868   2.829  10.811  0.3263 -0.2847 -0.0488
  646MOL0    Cl85184  -1.926   2.701  10.707 -0.1885  0.0886  0.7679
  646MOL0     C85185  -0.838   2.890  10.726 -0.0836 -0.1482 -0.3864
  646MOL0     C85186  -0.718   2.872  10.657  0.5979  1.7393 -0.5364
  646MOL0     O85187  -0.395   2.752  10.805 -0.2227 -0.1541 -0.3402
  646MOL0     C85188  -0.164   2.705  10.661 -0.4161 -0.1148 -0.0099
  646MOL0     C85189  -0.041   2.688  10.595  0.0625 -0.0960 -0.1268
  646MOL0     N85190   0.551   2.600  10.079 -0.4180  0.1235 -0.6034
  646MOL0     N85191   0.662   2.607  10.141  0.2753 -0.6260  0.1648
  646MOL0     C85192   1.830   2.200  10.714  0.0935  1.0132  0.2536
  646MOL0     C85193   1.966   2.205  10.715  0.5687  0.5192 -0.3519
  646MOL0     C85194   2.348   2.449  10.629  0.1925  0.7600 -0.0489
  646MOL0     C85195   2.429   2.381  10.537 -0.9774  0.6334 -0.0045
  646MOL0     C85196   2.561   2.419  10.503  0.8944  0.7867 -0.0346
  646MOL0     C85197   2.608   2.539  10.557 -0.4133 -0.2131  1.0741
  646MOL0     O85198   2.726   2.584  10.516 -0.4244 -0.1225  0.2365
  646MOL0     C85199   2.832   2.498  10.540 -0.3781  0.2491 -0.1082
  646MOL0     C85200   2.954   2.573  10.492  0.3519  0.3901  0.1770
  646MOL0     C85201   3.089   2.501  10.484  0.4497  0.3435 -0.3470
  646MOL0     C85202   3.147   2.477  10.625  0.3130 -0.0100 -0.2219
  646MOL0     C85203   3.266   2.396  10.611  1.5033 -0.1550 -0.1248
  646MOL0     C85204   3.364   2.328  10.610 -0.0684  0.5438 -0.0202
  646MOL0     C85205   2.526   2.613  10.627 -0.3422  0.1010 -0.9856
  646MOL0     C85206   2.407   2.565  10.680  0.4518 -0.1679 -0.2063
  646MOL0     H85207   1.991   2.359  10.416 -0.2514 -0.3333  0.1727
  646MOL0     H85208   1.746   2.289  10.405 -2.4859 -1.7752  0.7493
  646MOL0     H85209   1.500   2.150  10.464  0.0643 -1.8111  1.1975
  646MOL0     H85210   1.526   2.324  10.474 -2.6245 -1.0345 -2.3232
  646MOL0     H85211   1.370   2.344  10.667 -1.5065 -0.1864  1.5789
  646MOL0     H85212   1.350   2.161  10.652 -1.7065 -0.2087 -1.6303
  646MOL0     H85213   1.278   2.198  10.423  1.8124  0.0530 -1.2759
  646MOL0     H85214   1.302   2.376  10.425 -0.9151  1.1713  0.7403
  646MOL0     H85215   1.120   2.252  10.633  0.4831  1.1343  1.2445
  646MOL0     H85216   1.133   2.420  10.581 -0.9118  0.5254 -1.1796
  646MOL0     H85217   1.060   2.206  10.393 -0.8090  1.1309 -2.6845
  646MOL0     H85218   1.055   2.374  10.349  0.6553  0.5301  0.0282
  646MOL0     H85219   0.893   2.368  10.573 -1.2620 -1.2157  1.2020
  646MOL0     H85220   0.882   2.204  10.528  0.1183  0.5846  0.5109
  646MOL0     H85221   0.839   2.276  10.284  0.6561  0.2307 -0.6457
  646MOL0     H85222   0.715   2.272  10.398  1.7092 -3.1109 -1.3450
  646MOL0     H85223   0.861   2.508  10.263 -0.3305  1.7527 -1.2553
  646MOL0     H85224   0.778   2.542  10.418  1.7123  1.0850 -0.7314
  646MOL0     H85225   0.483   2.387  10.314 -1.8513  0.4474 -0.8178
  646MOL0     H85226   0.327   2.351  10.095 -1.1641  0.7644 -4.5240
  646MOL0     H85227   0.298   2.495  10.004 -0.9778  0.7273 -0.2659
  646MOL0     H85228   0.250   2.468  10.292 -0.6749 -0.1236  0.0979
  646MOL0     H85229   0.137   2.465  10.148 -0.9141  1.5320 -0.4090
  646MOL0     H85230   0.305   2.701  10.260 -0.4390 -0.0742  1.0206
  646MOL0     H85231   0.241   2.694  10.104  2.2182 -0.3956  1.5031
  646MOL0     H85232   0.010   2.698  10.196 -1.5070 -1.3444 -0.0512
  646MOL0     H85233   0.104   2.830  10.262  0.9004  0.1522 -3.9572
  646MOL0     H85234  -0.178   2.674  10.277 -0.5575 -1.7942  1.2581
  646MOL0     H85235  -0.388   2.721  10.421 -0.1282 -1.1688  2.4101
  646MOL0     H85236  -0.607   2.602  10.833  1.7819  0.8406  0.6816
  646MOL0     H85237  -0.803   2.632  10.949  0.1806 -1.3128 -0.5510
  646MOL0     H85238  -1.034   2.676  11.031  0.9852 -0.5945  0.4184
  646MOL0     H85239  -1.068   2.629  10.867  0.1616  0.4236 -2.4457
  646MOL0     H85240  -1.236   2.819  10.865  0.3261  2.2493  1.4726
  646MOL0     H85241  -1.226   2.834  11.038  0.1574  0.3773 -0.0628
  646MOL0     H85242  -1.291   2.580  11.053 -0.7022 -0.2287 -0.1676
  646MOL0     H85243  -1.314   2.581  10.880 -3.4204  1.5394 -1.9305
  646MOL0     H85244  -1.466   2.729  11.106  0.0705 -2.2698  1.1369
  646MOL0     H85245  -1.466   2.800  10.937  0.8496  1.5762  1.1518
  646MOL0     H85246  -1.559   2.518  11.013 -0.9250 -0.1982  1.3210
  646MOL0     H85247  -1.537   2.564  10.849  1.6671 -0.4178  1.4502
  646MOL0     H85248  -1.724   2.695  11.045  1.7344 -0.7184  1.3125
  646MOL0     H85249  -1.780   2.583  10.912  0.4289 -0.5622  1.0808
  646MOL0     H85250  -1.667   2.855  10.898  0.1269 -0.0449  0.4316
  646MOL0     H85251  -1.678   2.751  10.752 -1.6811  2.0245 -0.9917
  646MOL0     H85252  -1.872   2.923  10.755 -0.7082 -0.8897 -1.0343
  646MOL0     H85253  -1.928   2.850  10.899 -0.4428  0.2210 -0.6828
  646MOL0     H85254  -0.899   2.974  10.695  2.2433  0.5750 -3.5650
  646MOL0     H85255  -0.679   2.944  10.586  1.3484 -2.0196 -4.4109
  646MOL0     H85256  -0.158   2.700  10.770 -0.8726 -0.6942 -0.0053
  646MOL0     H85257   0.049   2.661  10.649  0.3326 -0.7017 -0.8717
  646MOL0     H85258   1.782   2.163  10.804 -0.2272  0.7361 -0.0303
  646MOL0     H85259   2.026   2.169  10.798 -0.1929  3.2114  1.5231
  646MOL0     H85260   2.383   2.302  10.479  1.5849  1.7853 -4.0207
  646MOL0     H85261   2.610   2.354  10.432 -0.1444 -0.6435  0.5007
  646MOL0     H85262   2.807   2.404  10.490  0.2347 -0.9126  1.6955
  646MOL0     H85263   2.840   2.477  10.647  0.5606  3.1115  0.4562
  646MOL0     H85264   2.934   2.590  10.386  0.3328 -1.1463 -0.0888
  646MOL0     H85265   2.958   2.671  10.540 -0.7234 -0.5369  2.2648
  646MOL0     H85266   3.160   2.558  10.423  0.0288  0.3644 -0.8350
  646MOL0     H85267   3.076   2.409  10.427 -1.0693 -0.5482  1.3516
  646MOL0     H85268   3.163   2.574  10.673  0.1564  0.1934 -0.5732
  646MOL0     H85269   3.072   2.414  10.675 -0.8323 -0.2510 -2.1266
  646MOL0     H85270   3.460   2.281  10.609  1.3906  3.2317 -2.5074
  646MOL0     H85271   2.568   2.708  10.658  0.2758 -0.3334 -0.4589
  646MOL0     H85272   2.355   2.622  10.756  2.0342  2.5520 -0.9928
  647MOL0     O85273  10.829  10.949   3.175  0.2644  0.8051 -0.5308
  647MOL0     C85274  10.874  11.062   3.171 -1.1147  0.1484 -0.2356
  647MOL0     O85275  10.839  11.172   3.244 -0.2915 -0.3197 -0.2532
  647MOL0     C85276  10.734  11.185   3.336 -1.2141  0.1131  0.2384
  647MOL0     C85277  10.640  11.087   3.369  0.0481 -0.7851  0.4878
  647MOL0     C85278  10.535  11.116   3.459  0.0674 -0.3157 -0.1817
  647MOL0     C85279  10.521  11.235   3.524 -0.3241  0.4488  0.2943
  647MOL0     O85280  10.426  11.256   3.614 -0.3039  0.0597 -1.0786
  647MOL0     C85281  10.421  11.390   3.690  0.7707 -0.7743 -0.1867
  647MOL0     C85282  10.324  11.370   3.799  0.5229  0.2851 -0.6408
  647MOL0     C85283  10.357  11.466   3.911  0.1351  0.2302  0.4654
  647MOL0     C85284  10.267  11.433   4.035 -0.5432 -1.5617  0.0496
  647MOL0     C85285  10.302  11.499   4.171 -0.2166  0.3411  0.1990
  647MOL0     C85286  10.248  11.416   4.282 -0.4197  0.2399  0.2081
  647MOL0     C85287  10.353  11.306   4.309 -0.1418  1.1101  0.0338
  647MOL0     C85288  10.336  11.199   4.421  0.3125  0.0753 -0.4223
  647MOL0     N85289  10.216  11.112   4.413 -0.4979  0.1642  0.1295
  647MOL0     C85290  10.204  11.024   4.305 -0.2882 -0.1956  0.2292
  647MOL0     C85291  10.069  10.990   4.302 -0.4149  0.7182  0.1195
  647MOL0     C85292   9.995  10.886   4.221 -0.6597 -1.8547 -0.2428
  647MOL0     C85293   9.887  10.818   4.300  0.1396 -0.5968 -0.1809
  647MOL0     C85294   9.830  10.692   4.223 -0.2170 -0.2982 -0.2152
  647MOL0     C85295   9.705  10.661   4.292 -0.1851  0.4551  0.4347
  647MOL0     O85296   9.748  10.621   4.417 -0.1856 -0.0134  0.7340
  647MOL0     C85297   9.651  10.552   4.479  0.4280  1.0740  0.2187
  647MOL0     C85298   9.579  10.608   4.595  0.1100 -0.3136 -0.3454
  647MOL0     C85299   9.481  10.529   4.649 -0.4217 -0.6941 -0.6577
  647MOL0     C85300   9.453  10.400   4.612 -0.0032  0.2547 -0.0500
  647MOL0     C85301   9.343  10.323   4.677  0.1220 -0.0103  0.0427
  647MOL0     O85302   9.269  10.395   4.771 -0.1965 -0.5136  0.2600
  647MOL0     C85303   9.171  10.338   4.846  0.3803  1.2224 -0.3062
  647MOL0     C85304   9.138  10.415   4.964 -0.1000  0.4622  0.0870
  647MOL0     C85305   9.032  10.378   5.045  0.0663  0.1144  0.0201
  647MOL0     C85306   8.954  10.266   5.017 -0.4142  0.7325 -0.1543
  647MOL0     O85307   8.839  10.237   5.095 -0.9011 -0.3834  0.3584
  647MOL0     C85308   8.740  10.145   5.047 -0.2010  1.0829  0.2310
  647MOL0     C85309   8.615  10.185   5.123  0.1069  0.7357  0.0096
  647MOL0     C85310   8.512  10.076   5.126  0.3414  0.0194  0.3731
  647MOL0     C85311   8.374  10.135   5.163 -0.9570 -0.6014 -0.3823
  647MOL0     C85312   8.255  10.043   5.156  0.7401  0.6607  0.0469
  647MOL0     C85313   8.205  10.043   5.009 -0.1682  0.1502  0.0234
  647MOL0     C85314   8.102   9.932   4.972  0.0500  0.5097  0.1355
  647MOL0     C85315   7.983   9.948   5.062  0.0217 -0.3614 -0.5473
  647MOL0    Cl85316   7.847   9.854   5.002  0.0948 -0.6316  0.5335
  647MOL0     C85317   9.007  10.178   4.924 -0.7377 -0.3746  0.6755
  647MOL0     C85318   9.101  10.216   4.828 -0.3470  0.1656  0.0368
  647MOL0     O85319   9.326  10.204   4.647  0.0025  0.7852 -0.0197
  647MOL0     C85320   9.542  10.339   4.531  0.0779  1.1893  0.4492
  647MOL0     C85321   9.637  10.412   4.455  0.4562  0.2197 -0.0496
  647MOL0     N85322  10.006  11.062   4.409  0.0884 -0.1391 -0.0754
  647MOL0     N85323  10.099  11.124   4.475  0.2468  0.4275 -0.3853
  647MOL0     C85324  10.609  11.337   3.490 -0.3060 -0.5626 -0.4091
  647MOL0     C85325  10.716  11.311   3.400  0.6891 -0.4108 -0.2113
  647MOL0     C85326  10.981  11.083   3.074 -0.1114  0.0901  0.1522
  647MOL0     C85327  11.053  10.968   3.026  0.8315 -0.6694  0.0317
  647MOL0     C85328  11.169  10.975   2.955  0.5405  0.3031  0.1041
  647MOL0     C85329  11.208  11.101   2.910  0.1289 -0.1510  0.0479
  647MOL0     O85330  11.310  11.127   2.819 -0.4608  0.2617 -0.1598
  647MOL0     C85331  11.377  11.015   2.756  0.7209  0.2907  0.1824
  647MOL0     C85332  11.479  11.066   2.657  0.1402 -0.6967 -0.0637
  647MOL0     C85333  11.417  11.131   2.544 -0.2689  0.4509 -0.4649
  647MOL0     C85334  11.524  11.188   2.443  0.7175 -0.1619 -0.4443
  647MOL0     C85335  11.561  11.318   2.491 -0.8012 -0.0248  0.2446
  647MOL0     C85336  11.585  11.436   2.516  0.0822  0.0849 -0.9678
  647MOL0     C85337  11.126  11.209   2.928 -0.4278 -0.3066  0.0654
  647MOL0     C85338  11.017  11.210   3.023  0.6944  0.1576 -0.8921
  647MOL0     H85339  10.658  10.984   3.338  2.7517 -1.2711  3.1623
  647MOL0     H85340  10.467  11.034   3.482 -0.5891  0.2317 -0.1630
  647MOL0     H85341  10.382  11.464   3.620  0.2089 -2.4508 -1.7167
  647MOL0     H85342  10.515  11.411   3.743 -1.0289  0.3280  2.8352
  647MOL0     H85343  10.324  11.266   3.834 -0.1404  0.8530  1.2058
  647MOL0     H85344  10.219  11.392   3.777  0.9008  1.6527 -1.1525
  647MOL0     H85345  10.342  11.567   3.874 -2.7593  0.2511  1.4462
  647MOL0     H85346  10.461  11.444   3.937  0.5363 -0.7190 -1.6569
  647MOL0     H85347  10.168  11.478   4.024 -0.1220 -0.3132  1.0306
  647MOL0     H85348  10.245  11.326   4.038 -1.3720 -1.3920  0.4854
  647MOL0     H85349  10.262  11.600   4.164  1.0573  0.9905  1.6362
  647MOL0     H85350  10.407  11.520   4.193 -0.4741  0.6345  1.1837
  647MOL0     H85351  10.146  11.385   4.259 -0.1303  0.5929 -1.6761
  647MOL0     H85352  10.237  11.480   4.370 -0.9544 -0.3435  0.5787
  647MOL0     H85353  10.365  11.249   4.216  0.4095  0.6739  0.3610
  647MOL0     H85354  10.444  11.365   4.325  0.0670  1.2598 -1.5337
  647MOL0     H85355  10.330  11.245   4.520  1.0859 -3.4208  1.4108
  647MOL0     H85356  10.421  11.130   4.426  0.0817 -0.1344  0.8871
  647MOL0     H85357  10.276  10.982   4.235 -1.4301  0.5025 -1.4376
  647MOL0     H85358  10.063  10.808   4.187  0.4666 -0.5603 -1.0766
  647MOL0     H85359   9.954  10.938   4.134 -0.2455  1.0847  1.1830
  647MOL0     H85360   9.808  10.892   4.317 -1.6971 -2.5813  0.2770
  647MOL0     H85361   9.933  10.788   4.394  1.0544  0.7703 -0.1666
  647MOL0     H85362   9.813  10.713   4.117  0.0884 -2.9746 -0.8714
  647MOL0     H85363   9.894  10.603   4.229 -1.3197 -1.2209 -1.5091
  647MOL0     H85364   9.642  10.589   4.239  0.5563 -0.6373  0.9910
  647MOL0     H85365   9.645  10.752   4.299 -0.6954  0.2420 -0.8015
  647MOL0     H85366   9.594  10.711   4.626  1.5541 -1.1487  1.9891
  647MOL0     H85367   9.419  10.582   4.721  0.4835  0.2715 -0.5636
  647MOL0     H85368   9.187  10.509   4.987 -0.9296  0.8828  0.1810
  647MOL0     H85369   8.996  10.444   5.124 -1.2056  0.5302 -0.8706
  647MOL0     H85370   8.780  10.048   5.076 -0.2931  0.2138 -2.3064
  647MOL0     H85371   8.728  10.145   4.938  1.6546 -0.4223 -0.0287
  647MOL0     H85372   8.580  10.271   5.065  1.4601  2.4709  1.6400
  647MOL0     H85373   8.640  10.213   5.226  2.9993 -2.0679  0.2493
  647MOL0     H85374   8.559  10.005   5.194  0.2462 -2.7856 -2.3121
  647MOL0     H85375   8.499  10.024   5.031 -1.1053  1.3569 -0.2113
  647MOL0     H85376   8.391  10.157   5.269  0.8234 -2.3250 -0.2552
  647MOL0     H85377   8.357  10.232   5.115  2.2699  1.7905  2.7751
  647MOL0     H85378   8.174  10.064   5.227  1.8142 -0.6504  1.7395
  647MOL0     H85379   8.286   9.942   5.184 -0.6318 -1.0505 -3.9354
  647MOL0     H85380   8.293  10.030   4.945  0.1757 -2.1739  0.8784
  647MOL0     H85381   8.159  10.138   4.980 -2.8206 -2.0716 -4.2141
  647MOL0     H85382   8.060   9.950   4.872 -2.3913  0.2691  1.0561
  647MOL0     H85383   8.143   9.831   4.968  2.1875  1.0283  4.1372
  647MOL0     H85384   7.961  10.055   5.064  0.2574 -0.3213 -0.0493
  647MOL0     H85385   7.991   9.930   5.170 -4.8014  3.1300  0.7348
  647MOL0     H85386   8.964  10.079   4.909 -3.0456  0.6331  0.2207
  647MOL0     H85387   9.124  10.148   4.747  0.9666  2.1838 -1.3864
  647MOL0     H85388   9.536  10.231   4.522 -0.5442  0.9943  2.6799
  647MOL0     H85389   9.702  10.356   4.388  2.6465  0.8959  1.4023
  647MOL0     H85390  10.602  11.434   3.538 -0.7839 -2.5003  3.9592
  647MOL0     H85391  10.784  11.387   3.365 -0.9603  2.2247  1.9337
  647MOL0     H85392  11.018  10.871   3.060  1.3829 -0.0787  2.4823
  647MOL0     H85393  11.232  10.889   2.935  2.1229  1.2450  0.8370
  647MOL0     H85394  11.305  10.952   2.703  0.2749  2.1471 -1.5292
  647MOL0     H85395  11.431  10.960   2.834 -0.5598 -2.9663 -1.0655
  647MOL0     H85396  11.535  11.138   2.717 -2.2045  0.0802  1.2936
  647MOL0     H85397  11.536  10.976   2.631  1.2151 -0.3563  1.0159
  647MOL0     H85398  11.346  11.204   2.584 -0.7519 -1.1033  1.6903
  647MOL0     H85399  11.356  11.050   2.504  3.3229 -2.3769 -0.7206
  647MOL0     H85400  11.604  11.114   2.435  0.2674 -0.7197  0.0582
  647MOL0     H85401  11.495  11.205   2.339  2.0543  0.9811 -0.6559
  647MOL0     H85402  11.589  11.539   2.545 -2.7965 -0.0134  0.1849
  647MOL0     H85403  11.126  11.304   2.876  2.4645  0.2406  0.8946
  647MOL0     H85404  10.958  11.299   3.045  0.0710 -0.3059 -0.6742
  648MOL0     O85405   8.923   1.906   6.459  0.6329  0.0765  0.3643
  648MOL0     C85406   8.931   1.809   6.533 -0.3063  0.1241  0.2235
  648MOL0     O85407   8.919   1.819   6.668  0.1915 -1.1976 -0.0612
  648MOL0     C85408   8.899   1.944   6.723 -0.1253  0.0438 -0.2394
  648MOL0     C85409   8.997   2.023   6.781  0.0995  0.2488 -0.4085
  648MOL0     C85410   8.971   2.142   6.842 -0.7794 -0.0934 -0.8214
  648MOL0     C85411   8.840   2.202   6.846  0.8029  0.0509 -0.5723
  648MOL0     O85412   8.800   2.316   6.907  0.1614 -0.0181  0.2971
  648MOL0     C85413   8.919   2.393   6.957 -0.2699  0.0413  0.7397
  648MOL0     C85414   8.885   2.536   7.006 -0.0897 -0.0519 -0.1923
  648MOL0     C85415   8.761   2.538   7.099 -0.4260 -0.3304 -0.5171
  648MOL0     C85416   8.731   2.693   7.131 -0.4563 -0.4445  0.3161
  648MOL0     C85417   8.620   2.707   7.231  0.9268  0.4889 -0.7472
  648MOL0     C85418   8.473   2.716   7.178 -0.5046  0.3096  0.4779
  648MOL0     C85419   8.439   2.846   7.102  0.3370  0.7630 -0.1927
  648MOL0     C85420   8.285   2.875   7.113  0.1858  0.0703  0.2554
  648MOL0     N85421   8.212   2.781   7.023  0.2512 -1.0838 -0.8829
  648MOL0     C85422   8.192   2.807   6.896  0.5590 -0.3430  0.2708
  648MOL0     C85423   8.138   2.690   6.847 -0.1653  0.0128 -0.4636
  648MOL0     C85424   8.089   2.656   6.712  0.0890  0.1599 -0.6515
  648MOL0     C85425   7.936   2.679   6.713 -0.7143  0.6074 -0.3426
  648MOL0     C85426   7.850   2.557   6.770 -0.3277  0.1720  0.4799
  648MOL0     C85427   7.700   2.585   6.739 -0.3909  0.7756 -0.0093
  648MOL0     O85428   7.624   2.484   6.795  0.0588 -0.0171  0.0417
  648MOL0     C85429   7.495   2.505   6.848  0.0832 -0.0262  0.0354
  648MOL0     C85430   7.408   2.395   6.847 -0.6076 -0.1667  0.9557
  648MOL0     C85431   7.274   2.414   6.847  1.3124 -0.6426 -1.0172
  648MOL0     C85432   7.213   2.539   6.848 -0.6471  0.4487  0.6141
  648MOL0     C85433   7.063   2.557   6.860  0.1445 -0.0837 -0.0879
  648MOL0     O85434   7.012   2.679   6.840 -0.1213 -0.5506  0.5730
  648MOL0     C85435   6.878   2.714   6.844 -0.2257  0.1828 -0.0481
  648MOL0     C85436   6.771   2.623   6.851 -0.5440  0.8132 -0.1079
  648MOL0     C85437   6.645   2.667   6.872  0.2099 -0.2825 -0.1992
  648MOL0     C85438   6.615   2.799   6.879 -0.1483 -0.1136 -0.4265
  648MOL0     O85439   6.482   2.850   6.896 -0.4151  0.2738 -0.7954
  648MOL0     C85440   6.371   2.789   6.842 -0.0085 -0.0399  0.0496
  648MOL0     C85441   6.249   2.887   6.880  0.1930  0.0143  0.0693
  648MOL0     C85442   6.173   2.810   6.986 -0.9512  0.0041 -0.3500
  648MOL0     C85443   6.046   2.868   7.056  0.5271  0.5702  0.1632
  648MOL0     C85444   5.992   2.772   7.158 -0.4003  0.4570 -0.2807
  648MOL0     C85445   5.883   2.815   7.263 -0.1689  1.3130  0.2245
  648MOL0     C85446   5.758   2.869   7.193  0.1358 -0.4423 -0.6090
  648MOL0     C85447   5.645   2.889   7.295 -0.1895 -0.2359 -0.0414
  648MOL0    Cl85448   5.504   2.963   7.218  0.6034  0.1165  0.1036
  648MOL0     C85449   6.719   2.894   6.877  0.8725  0.0589 -0.1310
  648MOL0     C85450   6.848   2.844   6.860  0.9524 -0.1172 -0.2785
  648MOL0     O85451   7.002   2.460   6.897  0.5323  0.0719  0.3680
  648MOL0     C85452   7.303   2.654   6.848 -0.1468  0.3277 -0.0019
  648MOL0     C85453   7.438   2.637   6.853  0.4868 -0.2534 -0.4266
  648MOL0     N85454   8.131   2.605   6.955  0.1951  0.7660  0.7953
  648MOL0     N85455   8.180   2.657   7.058 -0.0522 -0.8403 -0.6136
  648MOL0     C85456   8.746   2.131   6.779  0.6004  0.9632  0.4903
  648MOL0     C85457   8.771   1.999   6.722 -0.2033 -0.5075  0.0191
  648MOL0     C85458   8.965   1.687   6.464  0.2838 -0.1247 -0.1978
  648MOL0     C85459   8.975   1.568   6.537 -0.0099  0.3656 -0.9056
  648MOL0     C85460   8.992   1.440   6.478  0.2025 -1.0878  0.2255
  648MOL0     C85461   8.985   1.435   6.344 -0.1945 -0.2315  0.7836
  648MOL0     O85462   8.989   1.310   6.290  0.5971  0.5166 -0.0158
  648MOL0     C85463   9.121   1.261   6.270  0.3661  0.1840 -0.6701
  648MOL0     C85464   9.126   1.111   6.243  0.3013 -0.3232  0.3317
  648MOL0     C85465   9.132   1.017   6.363 -0.3603  0.5815 -0.6200
  648MOL0     C85466   9.192   0.881   6.325  0.0442 -0.7825  1.0939
  648MOL0     C85467   9.337   0.900   6.335 -0.5391 -0.2703  0.0288
  648MOL0     C85468   9.458   0.928   6.361  0.6664  0.8101 -0.1041
  648MOL0     C85469   8.978   1.547   6.258  0.2346 -0.0886 -0.3084
  648MOL0     C85470   8.968   1.669   6.323  0.3678 -0.1336  0.1865
  648MOL0     H85471   9.096   1.978   6.776  0.1426  0.1676  0.9104
  648MOL0     H85472   9.060   2.193   6.877  1.1420 -2.0204 -2.6268
  648MOL0     H85473   8.984   2.407   6.870 -0.7775 -0.4496  0.2750
  648MOL0     H85474   8.980   2.338   7.030  2.4111 -2.2991 -2.9233
  648MOL0     H85475   8.858   2.580   6.910 -2.2740 -0.0140  0.3816
  648MOL0     H85476   8.975   2.588   7.040 -1.0279  1.5076 -0.0078
  648MOL0     H85477   8.782   2.484   7.192  2.3660  1.8661  0.3027
  648MOL0     H85478   8.667   2.500   7.059 -1.4767  1.6672 -0.0815
  648MOL0     H85479   8.820   2.731   7.182 -0.1539 -0.4214 -0.2133
  648MOL0     H85480   8.719   2.755   7.042  0.4689  1.8146  1.6959
  648MOL0     H85481   8.643   2.796   7.291 -1.0131 -0.0363  0.9141
  648MOL0     H85482   8.629   2.629   7.307 -1.7716 -1.0916 -1.9131
  648MOL0     H85483   8.407   2.714   7.265 -0.3372 -0.8855  0.5943
  648MOL0     H85484   8.453   2.628   7.116 -2.3320  0.2157  1.1458
  648MOL0     H85485   8.490   2.933   7.146  1.9804 -0.8726  1.3057
  648MOL0     H85486   8.477   2.833   7.000  1.0992  2.1366 -0.1137
  648MOL0     H85487   8.253   2.977   7.088 -3.5213 -1.1018 -0.3488
  648MOL0     H85488   8.258   2.858   7.218 -0.8957  1.8261  0.3094
  648MOL0     H85489   8.212   2.898   6.841 -3.1450 -0.3741 -1.4147
  648MOL0     H85490   8.119   2.555   6.684 -1.5828 -0.1537 -1.4334
  648MOL0     H85491   8.129   2.729   6.642 -0.2109  1.6269  0.6516
  648MOL0     H85492   7.889   2.709   6.619 -1.7077  0.0718 -0.0271
  648MOL0     H85493   7.916   2.754   6.791 -0.5875  1.3042 -0.9633
  648MOL0     H85494   7.880   2.457   6.735  0.1225  0.8683 -1.2252
  648MOL0     H85495   7.856   2.560   6.879  1.6708 -0.2373  0.4309
  648MOL0     H85496   7.678   2.596   6.632 -1.8899  0.1674  0.2065
  648MOL0     H85497   7.666   2.681   6.779 -0.2568  1.3033 -1.1303
  648MOL0     H85498   7.454   2.297   6.837  0.2160  0.4545 -3.0018
  648MOL0     H85499   7.217   2.322   6.850  2.8328 -1.5938  0.4078
  648MOL0     H85500   6.782   2.515   6.839  1.4940  0.9853 -0.0689
  648MOL0     H85501   6.569   2.591   6.892  0.3336 -0.0168  1.3789
  648MOL0     H85502   6.347   2.684   6.857 -2.8014  0.3619 -0.9812
  648MOL0     H85503   6.376   2.791   6.733 -0.8513  0.1585  0.0065
  648MOL0     H85504   6.192   2.905   6.789 -0.7031  0.3343  0.6817
  648MOL0     H85505   6.273   2.986   6.920  2.6523  0.2892 -1.8692
  648MOL0     H85506   6.246   2.793   7.066 -0.0133  0.4212 -1.1066
  648MOL0     H85507   6.142   2.712   6.950  0.1264  0.2487 -2.0418
  648MOL0     H85508   6.064   2.962   7.109 -3.1055  1.2605  0.4525
  648MOL0     H85509   5.967   2.893   6.984 -1.1346  1.2662  2.1241
  648MOL0     H85510   6.073   2.725   7.215 -1.0107 -2.5686 -1.6839
  648MOL0     H85511   5.951   2.687   7.102  1.6260  0.2428 -1.5462
  648MOL0     H85512   5.925   2.898   7.320  2.2671 -0.4105  1.0927
  648MOL0     H85513   5.850   2.735   7.331 -1.9523  1.9754  0.1833
  648MOL0     H85514   5.798   2.962   7.151 -1.4286 -0.2110 -1.6638
  648MOL0     H85515   5.726   2.812   7.104 -0.8548  0.7162 -1.0136
  648MOL0     H85516   5.678   2.952   7.378  0.0905 -0.7103  0.2156
  648MOL0     H85517   5.615   2.791   7.333 -2.8587 -0.8491 -3.2417
  648MOL0     H85518   6.700   2.999   6.894 -2.0002 -0.5680  1.2501
  648MOL0     H85519   6.927   2.918   6.856  1.8714 -1.0579  0.0165
  648MOL0     H85520   7.259   2.753   6.842  3.6246  2.1066 -1.3698
  648MOL0     H85521   7.482   2.735   6.866  1.4986 -0.7346 -0.1284
  648MOL0     H85522   8.642   2.159   6.796 -0.1121 -1.9847  1.5764
  648MOL0     H85523   8.694   1.931   6.685 -0.9017  0.6275 -0.6729
  648MOL0     H85524   8.985   1.577   6.644  0.0140  0.8599 -0.9467
  648MOL0     H85525   8.991   1.348   6.535 -0.6686  0.0346  2.1102
  648MOL0     H85526   9.199   1.282   6.344  1.0649 -0.1614 -1.3004
  648MOL0     H85527   9.153   1.323   6.186  1.5901  1.2125  0.5098
  648MOL0     H85528   9.050   1.081   6.170 -0.0536 -1.4572  1.1463
  648MOL0     H85529   9.220   1.098   6.189  1.3026 -0.1820  1.9845
  648MOL0     H85530   9.028   0.997   6.392 -0.0657 -1.1929 -0.6971
  648MOL0     H85531   9.188   1.055   6.450  0.7537 -2.6080  0.2002
  648MOL0     H85532   9.159   0.801   6.391 -0.9936 -0.4470  1.0010
  648MOL0     H85533   9.170   0.856   6.221 -2.8763 -1.5032  1.7927
  648MOL0     H85534   9.556   0.949   6.401  1.4491 -0.1542 -1.4487
  648MOL0     H85535   8.968   1.542   6.150 -2.4662  1.8286 -0.2494
  648MOL0     H85536   8.969   1.756   6.258  0.3161  2.4029  3.3615
  649MOL0     O85537   2.786  10.648   2.355  0.4624  0.1832  0.7174
  649MOL0     C85538   2.818  10.656   2.470  0.6869 -0.1860  0.5045
  649MOL0     O85539   2.770  10.576   2.568 -0.6587 -0.7099 -0.5086
  649MOL0     C85540   2.682  10.474   2.539  0.3397 -0.0191 -0.5533
  649MOL0     C85541   2.547  10.477   2.569  0.4704  0.1753 -0.0987
  649MOL0     C85542   2.473  10.353   2.557  0.2705  0.4290 -0.1091
  649MOL0     C85543   2.534  10.234   2.525 -0.4168  0.1003  0.8932
  649MOL0     O85544   2.457  10.125   2.508  0.1348 -0.0034 -0.0295
  649MOL0     C85545   2.518   9.998   2.479 -0.3067 -0.4425  0.8481
  649MOL0     C85546   2.407   9.901   2.432  0.2918  1.5295  1.1256
  649MOL0     C85547   2.314   9.846   2.542  0.9135  0.8455  0.4344
  649MOL0     C85548   2.201   9.762   2.481  0.1265  0.1006  0.5691
  649MOL0     C85549   2.106   9.717   2.593 -0.0555  0.2808  0.0513
  649MOL0     C85550   1.969   9.679   2.541 -0.0296 -0.2703  0.3180
  649MOL0     C85551   1.877   9.623   2.643 -0.1588 -0.3192 -0.6352
  649MOL0     C85552   1.765   9.548   2.565 -0.2145 -0.2973  0.0482
  649MOL0     N85553   1.657   9.511   2.647  0.4185  0.0550  0.4631
  649MOL0     C85554   1.550   9.591   2.682 -0.3810  0.1433 -0.7120
  649MOL0     C85555   1.470   9.513   2.753  0.4938 -0.6831  0.2646
  649MOL0     C85556   1.339   9.553   2.807 -0.4935 -0.1268 -0.3505
  649MOL0     C85557   1.237   9.439   2.815 -0.1551 -0.4457 -0.0507
  649MOL0     C85558   1.107   9.500   2.859  0.7351  0.0308 -0.1029
  649MOL0     C85559   0.990   9.405   2.855  0.0016  0.2244  0.2429
  649MOL0     O85560   0.855   9.463   2.845 -0.2774  0.1089  0.2487
  649MOL0     C85561   0.748   9.390   2.899 -0.2676 -0.2498 -0.5828
  649MOL0     C85562   0.750   9.249   2.899  0.8512 -0.5964 -0.4966
  649MOL0     C85563   0.637   9.182   2.942  0.4912  0.5122 -0.4904
  649MOL0     C85564   0.518   9.256   2.973 -0.6815  0.7121 -0.9783
  649MOL0     C85565   0.387   9.186   2.984 -0.5936  0.0321 -0.4117
  649MOL0     O85566   0.277   9.262   2.998 -0.1073  0.5976 -0.0944
  649MOL0     C85567   0.153   9.199   2.979  0.3425 -1.2726 -0.2357
  649MOL0     C85568   0.060   9.212   3.084  0.0000  0.2168  0.3394
  649MOL0     C85569  -0.070   9.162   3.082  0.0208 -0.1795 -0.2104
  649MOL0     C85570  -0.113   9.091   2.970 -0.6498 -0.4334  0.2780
  649MOL0     O85571  -0.232   9.035   2.950  0.5457  0.1495  0.5281
  649MOL0     C85572  -0.339   9.034   3.047  0.3970 -0.0218 -0.7857
  649MOL0     C85573  -0.411   9.170   3.047 -0.7086 -0.3821  0.7022
  649MOL0     C85574  -0.535   9.180   3.136  0.4543  0.3490 -0.7458
  649MOL0     C85575  -0.650   9.091   3.096 -0.0576 -0.2968 -0.1890
  649MOL0     C85576  -0.782   9.117   3.167  0.2536 -0.1985 -0.4317
  649MOL0     C85577  -0.776   9.114   3.323  0.2197 -0.2891  0.8340
  649MOL0     C85578  -0.918   9.162   3.368 -0.9756 -0.7398  0.0093
  649MOL0     C85579  -0.925   9.170   3.519  0.3801  0.1206 -0.5890
  649MOL0    Cl85580  -0.907   9.006   3.600  0.6740 -0.3645  0.0875
  649MOL0     C85581  -0.022   9.073   2.862  0.5237 -0.3142  1.1674
  649MOL0     C85582   0.112   9.120   2.871  0.3495 -0.5503  0.4460
  649MOL0     O85583   0.389   9.057   2.984  0.8154  0.2841  0.3705
  649MOL0     C85584   0.518   9.394   2.967 -0.6540 -0.7914  0.6122
  649MOL0     C85585   0.632   9.459   2.940 -0.4450 -0.6087 -0.3583
  649MOL0     N85586   1.530   9.388   2.762 -0.4493  0.5581  0.2599
  649MOL0     N85587   1.643   9.388   2.705  0.3422  0.1475  0.9905
  649MOL0     C85588   2.666  10.235   2.508 -0.2276  0.7982 -0.4965
  649MOL0     C85589   2.743  10.353   2.515 -0.3495  0.3754  0.7054
  649MOL0     C85590   2.916  10.757   2.523 -0.2243  0.0428  0.0656
  649MOL0     C85591   3.023  10.795   2.445 -0.0430  0.2235 -0.4762
  649MOL0     C85592   3.117  10.881   2.495 -0.2828 -0.4133  0.4975
  649MOL0     C85593   3.104  10.936   2.623 -0.5865 -0.0035 -0.4398
  649MOL0     O85594   3.190  11.034   2.683 -0.3372  0.3455 -0.4813
  649MOL0     C85595   3.303  11.080   2.606  1.2249  0.1193 -0.1440
  649MOL0     C85596   3.369  11.207   2.665  0.4975 -0.3282  0.1635
  649MOL0     C85597   3.279  11.330   2.693  0.3310 -1.5377  0.3901
  649MOL0     C85598   3.206  11.373   2.564  0.3483  0.0488 -0.7245
  649MOL0     C85599   3.123  11.487   2.573 -0.4680 -0.3082  0.3028
  649MOL0     C85600   3.067  11.595   2.569  0.8691 -0.0763 -0.4027
  649MOL0     C85601   3.006  10.888   2.703 -0.4005  0.6061  0.7063
  649MOL0     C85602   2.915  10.794   2.653  0.2707 -0.5910  0.1505
  649MOL0     H85603   2.485  10.564   2.588 -1.4953 -0.3670 -3.2893
  649MOL0     H85604   2.366  10.366   2.567  0.4388  0.9298  1.3366
  649MOL0     H85605   2.561   9.955   2.569  0.9614 -3.5005 -1.0779
  649MOL0     H85606   2.590  10.001   2.396  1.2933  1.7027  2.2220
  649MOL0     H85607   2.451   9.819   2.375 -0.7243  2.0893 -0.5489
  649MOL0     H85608   2.347   9.945   2.352  1.9268  0.0868 -1.0150
  649MOL0     H85609   2.258   9.923   2.596 -0.3943 -0.9833  1.7816
  649MOL0     H85610   2.377   9.793   2.614  1.6628  0.5559 -0.4165
  649MOL0     H85611   2.147   9.822   2.407 -1.2742 -1.9462 -0.1721
  649MOL0     H85612   2.230   9.676   2.420 -0.2160  1.3326 -1.4567
  649MOL0     H85613   2.103   9.798   2.666  0.4772 -0.5212  0.9844
  649MOL0     H85614   2.160   9.633   2.637  0.3871  1.3758  1.7019
  649MOL0     H85615   1.994   9.607   2.463  2.3115  2.6256 -1.8726
  649MOL0     H85616   1.923   9.763   2.488 -1.9425 -0.1360  2.0845
  649MOL0     H85617   1.922   9.553   2.714 -1.3906 -0.2151  0.2834
  649MOL0     H85618   1.844   9.700   2.714  5.2124 -0.3081  2.3775
  649MOL0     H85619   1.811   9.457   2.524  2.9899  0.2620  1.9899
  649MOL0     H85620   1.728   9.602   2.478 -0.2805 -2.9831 -1.7015
  649MOL0     H85621   1.536   9.696   2.660  1.2099  0.5477  0.1251
  649MOL0     H85622   1.297   9.641   2.758 -1.6652  1.0859  2.5833
  649MOL0     H85623   1.368   9.586   2.908 -0.9260 -1.2550  0.1485
  649MOL0     H85624   1.269   9.361   2.885 -2.8379 -0.8948  0.7689
  649MOL0     H85625   1.220   9.393   2.717 -1.7022 -0.5229  0.2322
  649MOL0     H85626   1.120   9.541   2.959 -1.3753 -1.2812  0.7875
  649MOL0     H85627   1.080   9.580   2.789  0.8356  0.1959  0.0456
  649MOL0     H85628   0.993   9.316   2.918 -0.8241 -2.2994 -2.9632
  649MOL0     H85629   0.999   9.361   2.755 -1.3414  1.0162 -0.2478
  649MOL0     H85630   0.836   9.194   2.862  1.1839 -0.2791 -0.2076
  649MOL0     H85631   0.621   9.075   2.939  0.6912  0.5013 -1.6743
  649MOL0     H85632   0.103   9.259   3.172  1.3644 -3.8764  2.0932
  649MOL0     H85633  -0.125   9.178   3.174  0.5975  3.6636 -0.4030
  649MOL0     H85634  -0.297   9.026   3.147 -0.1434 -0.4117 -0.5835
  649MOL0     H85635  -0.417   8.958   3.039 -0.3781  0.8772 -2.5115
  649MOL0     H85636  -0.441   9.193   2.944  0.1048  1.9476  0.9162
  649MOL0     H85637  -0.339   9.246   3.080 -0.0224 -1.4893  1.8272
  649MOL0     H85638  -0.576   9.281   3.123 -1.0730 -0.0099  1.0024
  649MOL0     H85639  -0.507   9.175   3.241 -1.4068 -2.1065 -0.3063
  649MOL0     H85640  -0.667   9.101   2.989  0.6989 -0.8610 -0.3726
  649MOL0     H85641  -0.624   8.988   3.124  0.3218 -0.4447 -1.0678
  649MOL0     H85642  -0.853   9.038   3.139 -0.4127  0.2468 -0.0348
  649MOL0     H85643  -0.824   9.212   3.133  1.0239 -0.3518 -1.9069
  649MOL0     H85644  -0.686   9.164   3.360  2.9776 -2.9301 -1.7048
  649MOL0     H85645  -0.769   9.010   3.356 -0.6292 -0.6058  0.0534
  649MOL0     H85646  -0.934   9.266   3.340 -0.9769 -0.9953 -0.9782
  649MOL0     H85647  -0.989   9.089   3.328  2.1142 -3.3761 -1.2021
  649MOL0     H85648  -1.021   9.211   3.553 -0.2534 -1.5570 -0.2377
  649MOL0     H85649  -0.856   9.244   3.560 -0.0143 -0.4326  1.1591
  649MOL0     H85650  -0.043   9.019   2.771 -1.0485  1.2989  0.5186
  649MOL0     H85651   0.179   9.104   2.788 -2.3684  1.4395 -2.3899
  649MOL0     H85652   0.430   9.456   2.976  0.7629  1.4388 -0.0051
  649MOL0     H85653   0.624   9.566   2.951  2.0721 -0.3728 -0.2698
  649MOL0     H85654   2.720  10.145   2.479  0.9615  1.6561 -1.0502
  649MOL0     H85655   2.850  10.347   2.504 -0.3221  1.1873  0.4582
  649MOL0     H85656   3.022  10.759   2.343 -2.6166  0.0121 -0.4506
  649MOL0     H85657   3.205  10.898   2.433 -1.7275  0.7829 -1.3215
  649MOL0     H85658   3.272  11.100   2.503 -0.3613 -1.3092  0.0171
  649MOL0     H85659   3.373  10.998   2.591  2.5998  1.2262  0.0285
  649MOL0     H85660   3.413  11.175   2.760 -1.6096 -3.1648  0.3145
  649MOL0     H85661   3.445  11.243   2.594 -1.3418  2.0949 -0.7112
  649MOL0     H85662   3.337  11.418   2.724 -2.1724  1.4694 -2.6553
  649MOL0     H85663   3.196  11.307   2.760 -1.4783  1.3371 -0.7117
  649MOL0     H85664   3.272  11.393   2.479  0.0460 -0.7309 -1.1595
  649MOL0     H85665   3.142  11.292   2.528  2.1330 -0.2268 -3.6179
  649MOL0     H85666   3.004  11.680   2.554 -1.3564 -1.4453  0.6291
  649MOL0     H85667   2.986  10.921   2.804  0.6368  1.5017  0.6413
  649MOL0     H85668   2.834  10.764   2.718  1.2180  0.0775  1.6944
  650MOL0     O85669   1.792   4.278   1.838  0.8947 -0.1805 -0.3461
  650MOL0     C85670   1.836   4.291   1.730  0.2305 -0.2016  0.6267
  650MOL0     O85671   1.765   4.281   1.608 -0.6280  0.3312 -0.3011
  650MOL0     C85672   1.632   4.261   1.619 -0.5127  1.1193  0.4445
  650MOL0     C85673   1.544   4.355   1.688  0.0161 -0.3867  0.6738
  650MOL0     C85674   1.401   4.336   1.663 -0.1938 -0.3938  0.3588
  650MOL0     C85675   1.354   4.219   1.595 -0.5045  0.1028  0.3272
  650MOL0     O85676   1.224   4.192   1.579  0.3343  0.7369 -0.0678
  650MOL0     C85677   1.127   4.249   1.676  0.3118  0.1332 -0.9882
  650MOL0     C85678   0.980   4.225   1.643  0.3195 -1.1205 -0.6187
  650MOL0     C85679   0.881   4.304   1.727  0.5750 -0.4704 -0.1808
  650MOL0     C85680   0.740   4.255   1.686 -0.6592 -0.1272 -0.0386
  650MOL0     C85681   0.639   4.351   1.743 -0.2078  0.0468  0.4149
  650MOL0     C85682   0.501   4.297   1.741  0.0932  0.4853  0.1443
  650MOL0     C85683   0.409   4.376   1.645 -0.2166  0.5791 -0.6130
  650MOL0     C85684   0.277   4.304   1.622  0.6972  0.5889  0.6331
  650MOL0     N85685   0.254   4.285   1.475  0.3535  0.6619 -0.4151
  650MOL0     C85686   0.313   4.183   1.401 -0.8170 -0.1517  0.9227
  650MOL0     C85687   0.259   4.210   1.278 -0.7119  0.1633 -0.9535
  650MOL0     C85688   0.283   4.128   1.154 -0.4026  0.2015 -0.3406
  650MOL0     C85689   0.419   4.169   1.094 -0.2741  0.7054 -0.8329
  650MOL0     C85690   0.464   4.082   0.970 -0.2627 -0.1870  0.1516
  650MOL0     C85691   0.599   4.121   0.913 -0.8835  0.9041  0.0450
  650MOL0     O85692   0.592   4.260   0.871  0.0790 -0.1156 -0.1215
  650MOL0     C85693   0.707   4.313   0.827  0.2746  0.2612 -0.2928
  650MOL0     C85694   0.836   4.258   0.837 -0.2032 -0.2402 -0.2202
  650MOL0     C85695   0.943   4.328   0.782 -0.1930  0.0957 -0.4041
  650MOL0     C85696   0.930   4.457   0.731 -0.6317 -0.2430  0.1170
  650MOL0     C85697   1.043   4.531   0.676  0.8326 -0.1882 -1.0322
  650MOL0     O85698   1.167   4.469   0.700 -0.6755 -0.1804  0.1525
  650MOL0     C85699   1.295   4.530   0.720  0.1731  0.0625 -1.4544
  650MOL0     C85700   1.402   4.457   0.786 -0.3120  1.1696 -0.5416
  650MOL0     C85701   1.521   4.514   0.811 -0.1055 -0.2438  0.1594
  650MOL0     C85702   1.543   4.649   0.784 -0.3199 -1.1108 -0.2646
  650MOL0     O85703   1.660   4.707   0.812 -0.5565 -0.1262  0.3436
  650MOL0     C85704   1.780   4.630   0.837  0.5678  0.0271 -0.7477
  650MOL0     C85705   1.903   4.707   0.790  0.0967 -1.5544  0.0507
  650MOL0     C85706   2.030   4.638   0.825 -0.8243 -0.2599 -0.3949
  650MOL0     C85707   2.146   4.740   0.819  0.2395 -0.2073  0.6287
  650MOL0     C85708   2.265   4.660   0.865 -0.3224 -0.9020 -0.2120
  650MOL0     C85709   2.379   4.755   0.841  0.3707 -0.1271 -0.6828
  650MOL0     C85710   2.499   4.697   0.921  0.4983 -0.3614  0.5406
  650MOL0     C85711   2.576   4.815   0.981 -0.0169  0.4714 -1.1509
  650MOL0    Cl85712   2.724   4.774   1.099 -0.0310 -0.1339 -0.3269
  650MOL0     C85713   1.445   4.721   0.718 -0.6422 -0.4191 -0.1341
  650MOL0     C85714   1.322   4.663   0.696  0.2042  0.5951 -0.5177
  650MOL0     O85715   1.028   4.649   0.632 -0.4810  0.9452  0.0241
  650MOL0     C85716   0.800   4.506   0.721 -0.0166  0.7104 -0.0542
  650MOL0     C85717   0.682   4.437   0.771  0.1713 -0.0676 -0.2538
  650MOL0     N85718   0.175   4.319   1.281 -0.2523  0.6254 -0.2786
  650MOL0     N85719   0.182   4.371   1.397 -0.2397 -1.0781  0.1355
  650MOL0     C85720   1.443   4.130   1.540 -0.5536  0.0283 -0.7275
  650MOL0     C85721   1.584   4.148   1.551  0.8340  0.3005  0.2556
  650MOL0     C85722   1.975   4.325   1.719 -0.6268  0.5342 -0.7968
  650MOL0     C85723   2.054   4.385   1.822 -0.2136  0.0481 -0.7193
  650MOL0     C85724   2.190   4.420   1.801 -0.9891 -0.1557 -0.3617
  650MOL0     C85725   2.248   4.394   1.671 -1.1340  0.3322 -0.1746
  650MOL0     O85726   2.366   4.435   1.639 -0.0473  0.3196  0.1873
  650MOL0     C85727   2.386   4.480   1.501 -0.1446  0.4338  0.2672
  650MOL0     C85728   2.521   4.553   1.502 -0.3947  1.0766  0.0095
  650MOL0     C85729   2.643   4.459   1.501 -0.3012 -0.1753 -0.5144
  650MOL0     C85730   2.768   4.539   1.564  0.7083  0.0787  0.4881
  650MOL0     C85731   2.840   4.612   1.461  1.3733  0.0662  0.2730
  650MOL0     C85732   2.913   4.671   1.383 -0.1484 -0.0583  0.5444
  650MOL0     C85733   2.159   4.342   1.573 -0.4244  0.5283  0.1968
  650MOL0     C85734   2.029   4.306   1.594 -0.4705 -0.1261  0.4218
  650MOL0     H85735   1.587   4.435   1.748 -0.2758  0.3389 -0.0767
  650MOL0     H85736   1.329   4.400   1.713 -2.3875 -2.4562  0.0285
  650MOL0     H85737   1.141   4.357   1.683 -0.0505  0.0750  2.9573
  650MOL0     H85738   1.144   4.202   1.773  0.0381  0.0611 -0.9733
  650MOL0     H85739   0.958   4.118   1.650 -2.9782 -0.4716  0.6504
  650MOL0     H85740   0.980   4.252   1.537  1.5279 -2.0869 -0.8968
  650MOL0     H85741   0.895   4.410   1.707  2.0500 -0.4981  0.5605
  650MOL0     H85742   0.899   4.286   1.834 -1.3618 -1.8215 -0.0111
  650MOL0     H85743   0.739   4.240   1.578 -0.5391 -4.4379  0.3809
  650MOL0     H85744   0.733   4.159   1.738 -0.3354  0.4218  1.0477
  650MOL0     H85745   0.648   4.444   1.686 -1.4501  0.4376  0.8272
  650MOL0     H85746   0.669   4.379   1.844  2.6748  3.0015 -1.0737
  650MOL0     H85747   0.464   4.312   1.843 -0.1889  1.3943 -0.0827
  650MOL0     H85748   0.501   4.192   1.711 -1.0781  0.3738  0.5010
  650MOL0     H85749   0.387   4.477   1.683  2.8681  1.8645 -1.8493
  650MOL0     H85750   0.449   4.382   1.543 -1.9382 -3.0580 -1.6669
  650MOL0     H85751   0.196   4.356   1.673 -1.5112 -1.9061 -0.1191
  650MOL0     H85752   0.283   4.201   1.658 -0.3629 -0.0542 -0.9264
  650MOL0     H85753   0.380   4.109   1.443  0.0952 -0.1093 -0.3912
  650MOL0     H85754   0.203   4.146   1.080 -1.0602  1.1022  0.5648
  650MOL0     H85755   0.271   4.025   1.187  0.6585  0.2468  0.2200
  650MOL0     H85756   0.492   4.144   1.171  0.5491 -2.1117 -2.3988
  650MOL0     H85757   0.421   4.276   1.071 -0.1780  1.1977  1.2936
  650MOL0     H85758   0.469   3.975   0.991 -0.5354  0.1638  2.1734
  650MOL0     H85759   0.390   4.088   0.889  1.5827  0.7236 -1.5676
  650MOL0     H85760   0.618   4.042   0.839  0.1889 -1.1632  2.3785
  650MOL0     H85761   0.671   4.108   0.995  1.5731  0.6555 -2.0207
  650MOL0     H85762   0.862   4.161   0.878  3.2623  0.9225  0.6722
  650MOL0     H85763   1.041   4.280   0.780  0.0153  0.5146 -1.8921
  650MOL0     H85764   1.394   4.353   0.813  0.1679  1.2289 -0.1592
  650MOL0     H85765   1.588   4.465   0.880 -0.4541 -0.7169  0.1672
  650MOL0     H85766   1.782   4.531   0.789 -0.9069 -0.3533 -0.0489
  650MOL0     H85767   1.782   4.602   0.942 -3.4202 -0.3395 -0.6469
  650MOL0     H85768   1.897   4.804   0.840 -0.0397 -0.7051 -1.5532
  650MOL0     H85769   1.898   4.729   0.683 -0.0310 -1.1570  0.1362
  650MOL0     H85770   2.059   4.559   0.756 -0.6512  1.5347 -2.5122
  650MOL0     H85771   2.021   4.602   0.928 -1.1161  4.6605  1.5848
  650MOL0     H85772   2.158   4.769   0.714  0.8321  2.0474  1.2682
  650MOL0     H85773   2.131   4.827   0.883  0.4478  0.8884 -0.7759
  650MOL0     H85774   2.272   4.568   0.807 -1.3415 -0.0713 -1.7429
  650MOL0     H85775   2.251   4.636   0.971 -1.5586  2.0598  0.3942
  650MOL0     H85776   2.352   4.855   0.877  2.1774  0.3066 -0.4647
  650MOL0     H85777   2.406   4.772   0.736 -1.8290 -1.2241 -1.5090
  650MOL0     H85778   2.465   4.620   0.991  0.0826 -0.6651  0.0117
  650MOL0     H85779   2.554   4.656   0.836 -2.3668 -1.6043 -0.8348
  650MOL0     H85780   2.502   4.861   1.047  0.6552 -1.0393  0.7711
  650MOL0     H85781   2.595   4.883   0.898 -2.6967  0.0964 -2.1913
  650MOL0     H85782   1.462   4.825   0.692 -0.4686 -0.6261 -0.8460
  650MOL0     H85783   1.252   4.728   0.645  1.5523  2.0639 -0.6070
  650MOL0     H85784   0.785   4.597   0.664  1.8443  0.6844 -0.6725
  650MOL0     H85785   0.586   4.487   0.762  0.6944  0.6855 -2.4462
  650MOL0     H85786   1.410   4.041   1.488  0.5446 -0.9606  0.2244
  650MOL0     H85787   1.651   4.074   1.508 -0.9466 -0.9771 -0.4439
  650MOL0     H85788   1.994   4.408   1.910  0.1101  0.6350 -0.6481
  650MOL0     H85789   2.255   4.475   1.867  0.2054 -0.8434 -0.9302
  650MOL0     H85790   2.310   4.547   1.461 -1.3010 -1.4579 -0.8739
  650MOL0     H85791   2.394   4.387   1.444 -0.8409 -1.3667  2.9200
  650MOL0     H85792   2.523   4.612   1.410  1.0269  0.2044 -0.5501
  650MOL0     H85793   2.530   4.622   1.586 -1.0921  0.3673  0.6854
  650MOL0     H85794   2.660   4.418   1.402 -3.0084  1.1028 -1.6247
  650MOL0     H85795   2.621   4.373   1.565 -2.2898 -0.4808 -1.5280
  650MOL0     H85796   2.751   4.591   1.658 -1.2535  1.8394 -0.7511
  650MOL0     H85797   2.848   4.464   1.573 -0.0466 -0.7596  0.3639
  650MOL0     H85798   2.978   4.724   1.316  0.2279 -1.8007 -0.5062
  650MOL0     H85799   2.187   4.332   1.469  0.5073 -1.1227  0.5705
  650MOL0     H85800   1.970   4.282   1.507 -0.0315  0.5532 -0.0758
  651MOL0     O85801   4.482  11.095   0.762  0.4191  0.4651 -0.0872
  651MOL0     C85802   4.559  11.105   0.849 -0.6779 -0.4579  0.2056
  651MOL0     O85803   4.524  11.137   0.975 -0.1149 -0.1538 -0.5360
  651MOL0     C85804   4.426  11.226   0.995  0.6955 -0.5293 -0.3910
  651MOL0     C85805   4.296  11.173   1.020 -0.1873  0.3290 -0.0931
  651MOL0     C85806   4.191  11.269   1.032  0.0522 -0.1310 -1.2845
  651MOL0     C85807   4.209  11.409   1.043 -0.0479 -0.1744 -0.0570
  651MOL0     O85808   4.112  11.502   1.064  0.5239 -0.5517  0.1684
  651MOL0     C85809   3.976  11.460   1.045  0.9184  0.6457 -0.0084
  651MOL0     C85810   3.912  11.415   1.181 -1.0013 -0.3189 -0.4128
  651MOL0     C85811   3.780  11.491   1.195 -0.2366 -1.0188  0.4495
  651MOL0     C85812   3.784  11.640   1.246 -0.2670  0.1963 -0.3673
  651MOL0     C85813   3.654  11.709   1.225  0.1560 -0.6376 -0.3862
  651MOL0     C85814   3.542  11.648   1.316 -0.0922  0.3099  0.0897
  651MOL0     C85815   3.421  11.735   1.325 -0.1537 -1.0677 -0.6658
  651MOL0     C85816   3.307  11.672   1.404 -0.1343 -0.0306  0.8971
  651MOL0     N85817   3.246  11.559   1.333 -0.0261 -0.0580  0.1666
  651MOL0     C85818   3.276  11.429   1.355 -0.5856  0.0284 -0.2030
  651MOL0     C85819   3.224  11.371   1.255 -0.8420 -0.0769  0.5743
  651MOL0     C85820   3.229  11.231   1.224 -1.1003 -0.1802 -0.0581
  651MOL0     C85821   3.094  11.160   1.232  0.1234  0.2305 -0.1319
  651MOL0     C85822   3.022  11.155   1.097 -0.9109 -0.8349 -0.2121
  651MOL0     C85823   2.886  11.093   1.117 -0.4496 -1.5092 -0.2136
  651MOL0     O85824   2.898  10.961   1.166 -0.4933 -0.0479 -0.2409
  651MOL0     C85825   2.768  10.921   1.191  0.2930  0.2627  0.3977
  651MOL0     C85826   2.648  10.983   1.134 -0.4282 -0.8637 -0.8136
  651MOL0     C85827   2.520  10.935   1.171 -0.7515 -1.0145  0.0984
  651MOL0     C85828   2.514  10.823   1.250 -1.0914  0.4842  0.4851
  651MOL0     C85829   2.382  10.770   1.288  0.0981 -0.0192  0.4142
  651MOL0     O85830   2.370  10.683   1.395  0.2335  0.6003  0.1775
  651MOL0     C85831   2.254  10.619   1.407  0.6966 -0.3088  0.3456
  651MOL0     C85832   2.231  10.497   1.335  0.4601  0.0512 -0.1204
  651MOL0     C85833   2.116  10.426   1.359 -0.5350 -0.2344  0.2154
  651MOL0     C85834   2.018  10.478   1.442  0.5575  0.6338  0.1425
  651MOL0     O85835   1.892  10.412   1.435  0.1419 -0.3281  0.0779
  651MOL0     C85836   1.791  10.441   1.530 -0.3709  0.3300 -0.0307
  651MOL0     C85837   1.659  10.366   1.502  0.3850 -0.2907  0.5255
  651MOL0     C85838   1.560  10.391   1.611  0.5798  0.6569 -0.0679
  651MOL0     C85839   1.432  10.296   1.597  0.4431  0.0574 -0.0445
  651MOL0     C85840   1.329  10.292   1.715 -0.4953  0.4789  0.6187
  651MOL0     C85841   1.248  10.425   1.722 -0.0486  0.8855  0.1496
  651MOL0     C85842   1.162  10.425   1.850  0.1709  0.3218 -0.7258
  651MOL0     C85843   1.083  10.546   1.857 -0.2747 -0.7166 -0.5508
  651MOL0    Cl85844   0.962  10.551   1.994  0.3381 -0.2632  0.3101
  651MOL0     C85845   2.038  10.604   1.502  1.0798 -0.4079  0.0049
  651MOL0     C85846   2.155  10.677   1.484  0.4116  0.0917 -0.2440
  651MOL0     O85847   2.282  10.803   1.226 -0.4993  0.5081  0.3767
  651MOL0     C85848   2.630  10.771   1.302 -0.2387  0.2620 -0.6664
  651MOL0     C85849   2.746  10.823   1.281 -0.1678 -0.0191  0.8132
  651MOL0     N85850   3.151  11.455   1.169 -0.2048 -0.6419 -0.6168
  651MOL0     N85851   3.164  11.575   1.224 -0.2156  0.3558 -0.0018
  651MOL0     C85852   4.345  11.458   1.037 -0.0306  0.0340 -0.9959
  651MOL0     C85853   4.452  11.365   1.013  0.5686  0.4555  0.1057
  651MOL0     C85854   4.704  11.080   0.825  1.3469 -0.3227  0.9218
  651MOL0     C85855   4.800  11.113   0.919  0.6542 -0.3439 -0.4426
  651MOL0     C85856   4.937  11.086   0.888  0.3076 -0.4937 -1.0147
  651MOL0     C85857   4.975  11.020   0.769 -0.0555 -0.6410 -0.3504
  651MOL0     O85858   5.105  10.986   0.763  0.4272 -0.0849 -0.5809
  651MOL0     C85859   5.150  10.888   0.672  0.3534  0.0515  0.3575
  651MOL0     C85860   5.286  10.833   0.697  0.0410 -0.2987 -0.8295
  651MOL0     C85861   5.408  10.904   0.628  0.4350  0.1769 -0.3549
  651MOL0     C85862   5.530  10.830   0.661 -0.0592  0.6847 -0.4984
  651MOL0     C85863   5.646  10.911   0.608  0.1067  0.0951 -0.7045
  651MOL0     C85864   5.738  10.988   0.577  0.7512  0.0831  0.0722
  651MOL0     C85865   4.885  11.000   0.668 -0.4576  0.9031  0.0014
  651MOL0     C85866   4.753  11.025   0.703  1.2651  0.4814  0.4262
  651MOL0     H85867   4.278  11.066   1.028 -0.0623  0.2558 -0.7580
  651MOL0     H85868   4.090  11.233   1.048 -0.0865  1.3932  2.4632
  651MOL0     H85869   3.959  11.385   0.968  1.1563  1.4056 -0.8161
  651MOL0     H85870   3.937  11.554   1.004 -2.0826 -1.1221 -1.5363
  651MOL0     H85871   3.978  11.431   1.267  0.1659  0.3061 -1.3798
  651MOL0     H85872   3.892  11.308   1.178  0.2021 -0.7152  2.3907
  651MOL0     H85873   3.726  11.436   1.273  0.2982  0.4453  1.9117
  651MOL0     H85874   3.724  11.484   1.101  0.4689 -0.4416 -0.0179
  651MOL0     H85875   3.799  11.626   1.354  0.5581 -0.1632 -0.5186
  651MOL0     H85876   3.863  11.711   1.218 -1.2141  0.4187 -2.6700
  651MOL0     H85877   3.622  11.705   1.121 -0.4942  1.3004 -0.2929
  651MOL0     H85878   3.666  11.816   1.240  2.1382 -0.2276 -3.8798
  651MOL0     H85879   3.588  11.620   1.411 -1.3385 -0.1599  0.5797
  651MOL0     H85880   3.522  11.561   1.253  2.7504  1.6272 -2.9171
  651MOL0     H85881   3.449  11.833   1.364  1.9770 -1.4516 -1.1062
  651MOL0     H85882   3.376  11.761   1.228 -0.9832 -0.8685 -0.2336
  651MOL0     H85883   3.239  11.754   1.430  1.4354  3.5491 -4.6385
  651MOL0     H85884   3.340  11.637   1.503 -1.5786  2.0510  2.1809
  651MOL0     H85885   3.329  11.377   1.434  1.8700 -1.5625 -2.7225
  651MOL0     H85886   3.295  11.185   1.298 -0.7282  1.0625  0.4174
  651MOL0     H85887   3.276  11.228   1.125 -0.0226 -0.2347  0.4404
  651MOL0     H85888   3.030  11.206   1.308 -0.3484 -0.1004 -0.3191
  651MOL0     H85889   3.110  11.053   1.252  0.2608  0.4587  1.0361
  651MOL0     H85890   3.008  11.259   1.066  0.3177 -0.0365  1.7380
  651MOL0     H85891   3.082  11.108   1.018 -0.6085 -0.5144 -0.1759
  651MOL0     H85892   2.837  11.089   1.020 -1.7960 -0.8204  0.4113
  651MOL0     H85893   2.825  11.160   1.179  1.0266  0.1069 -0.4208
  651MOL0     H85894   2.649  11.071   1.071  2.5863  0.1146  0.4713
  651MOL0     H85895   2.433  10.979   1.123 -2.2526 -2.9935  0.9237
  651MOL0     H85896   2.306  10.443   1.278 -0.8635 -1.9823 -0.0066
  651MOL0     H85897   2.091  10.344   1.292  0.5309  0.0202 -0.5280
  651MOL0     H85898   1.761  10.546   1.535 -0.0185  0.7354 -3.8805
  651MOL0     H85899   1.846  10.419   1.622  0.4914  1.3754 -0.2795
  651MOL0     H85900   1.680  10.259   1.496  2.6125  0.1119  0.2236
  651MOL0     H85901   1.614  10.395   1.406  0.5053 -2.4099 -0.2201
  651MOL0     H85902   1.530  10.491   1.646 -0.4791  0.6755 -0.9816
  651MOL0     H85903   1.611  10.355   1.701 -0.3886  1.0924  0.6787
  651MOL0     H85904   1.376  10.322   1.507  1.8468 -1.0851 -1.3084
  651MOL0     H85905   1.465  10.191   1.593  1.0528  0.2611 -0.6469
  651MOL0     H85906   1.389  10.268   1.803  1.8889  0.9450 -0.7991
  651MOL0     H85907   1.251  10.217   1.697 -2.0689  1.7366  1.9348
  651MOL0     H85908   1.189  10.434   1.631 -1.4816 -2.4542  0.6074
  651MOL0     H85909   1.314  10.512   1.733  1.5526 -0.2542 -0.0311
  651MOL0     H85910   1.091  10.342   1.843  1.9944 -1.5309  1.0502
  651MOL0     H85911   1.221  10.408   1.941 -0.6091 -0.1927 -0.3073
  651MOL0     H85912   1.033  10.557   1.759  2.5958  1.3982 -1.9258
  651MOL0     H85913   1.139  10.640   1.860  1.4082 -1.7087  1.7486
  651MOL0     H85914   1.957  10.657   1.551 -0.5049  1.6257 -4.3292
  651MOL0     H85915   2.170  10.776   1.525  0.0457 -0.2228  0.6722
  651MOL0     H85916   2.621  10.681   1.362 -0.4695  0.9476  0.3349
  651MOL0     H85917   2.838  10.786   1.327  1.0407  3.2171  1.2736
  651MOL0     H85918   4.360  11.564   1.052 -0.8863 -0.2000  2.3606
  651MOL0     H85919   4.552  11.407   1.004  1.7502 -2.3238 -0.9829
  651MOL0     H85920   4.777  11.148   1.019  1.5268 -0.3355 -0.2376
  651MOL0     H85921   5.011  11.104   0.965 -1.4167  1.6602  0.2395
  651MOL0     H85922   5.153  10.935   0.573  0.3584 -0.8953 -0.0988
  651MOL0     H85923   5.080  10.804   0.667  0.0738  0.3406 -2.3040
  651MOL0     H85924   5.303  10.824   0.805 -2.0238 -1.6520 -0.5552
  651MOL0     H85925   5.282  10.731   0.658 -0.2401  0.2679 -2.3452
  651MOL0     H85926   5.415  11.004   0.672  0.3700  0.4496 -0.9469
  651MOL0     H85927   5.383  10.909   0.521  0.0828 -1.7962 -0.3986
  651MOL0     H85928   5.547  10.813   0.768  1.7855 -2.1046 -1.1195
  651MOL0     H85929   5.536  10.729   0.620  3.4752 -0.3030  1.9809
  651MOL0     H85930   5.823  11.052   0.560  0.8421 -0.2308 -0.6809
  651MOL0     H85931   4.906  10.952   0.573 -0.7188  0.3433  0.2246
  651MOL0     H85932   4.685  11.008   0.620  2.5285 -0.1938 -0.5071
  652MOL0     O85933   0.819  10.166   7.185 -0.9827 -0.2375 -0.3185
  652MOL0     C85934   0.824  10.223   7.295 -0.3972 -0.2587  0.0100
  652MOL0     O85935   0.726  10.244   7.377  0.2023  0.9240 -0.7947
  652MOL0     C85936   0.596  10.195   7.359 -0.8825  0.4275 -0.0936
  652MOL0     C85937   0.520  10.187   7.242 -0.1985  0.5425 -0.7598
  652MOL0     C85938   0.388  10.142   7.240  0.9210  0.2499 -0.4518
  652MOL0     C85939   0.323  10.101   7.361 -0.2191  0.0395 -0.7304
  652MOL0     O85940   0.192  10.054   7.353  0.0168  0.2073  0.3552
  652MOL0     C85941   0.133   9.996   7.464  0.5401  1.3837  0.8110
  652MOL0     C85942   0.011   9.922   7.411 -1.1666 -0.4004 -0.2623
  652MOL0     C85943  -0.070   9.844   7.515 -0.1139 -0.5147 -0.5882
  652MOL0     C85944  -0.205   9.822   7.460  0.2018  0.2977  1.0856
  652MOL0     C85945  -0.302   9.754   7.556  0.9754  0.6087  0.0496
  652MOL0     C85946  -0.283   9.599   7.532  0.3477 -0.1829 -0.2224
  652MOL0     C85947  -0.325   9.521   7.660 -0.6981 -0.7483 -0.6195
  652MOL0     C85948  -0.197   9.458   7.720  0.4452 -0.6722 -0.0499
  652MOL0     N85949  -0.078   9.550   7.741  0.9977 -0.2431  0.2023
  652MOL0     C85950  -0.072   9.678   7.799 -0.0610  0.2768 -0.0311
  652MOL0     C85951   0.056   9.712   7.810  0.1759  0.4052 -0.9423
  652MOL0     C85952   0.111   9.843   7.846 -0.1554  0.5952  0.1160
  652MOL0     C85953   0.264   9.843   7.881 -1.3052 -0.3732  0.4002
  652MOL0     C85954   0.357   9.861   7.767 -0.5509 -0.5741  0.0475
  652MOL0     C85955   0.513   9.853   7.795  1.0905 -0.1266  0.4754
  652MOL0     O85956   0.566   9.954   7.893  0.5161 -0.5893 -0.0910
  652MOL0     C85957   0.701   9.973   7.864  0.2733 -0.1184  0.4353
  652MOL0     C85958   0.795   9.868   7.860  0.4143 -0.2690 -0.7907
  652MOL0     C85959   0.925   9.893   7.828 -0.5380  0.2759 -1.0531
  652MOL0     C85960   0.976  10.022   7.807 -0.5397  0.4140  0.0235
  652MOL0     C85961   1.109  10.046   7.767 -0.4879  0.0043  0.6153
  652MOL0     O85962   1.139  10.160   7.715  0.6044  0.0843 -0.1426
  652MOL0     C85963   1.273  10.186   7.696 -0.2800  0.4322 -0.1520
  652MOL0     C85964   1.340  10.151   7.571 -0.4919  0.1615 -1.4721
  652MOL0     C85965   1.483  10.179   7.553  0.0124  0.5001 -0.1336
  652MOL0     C85966   1.545  10.268   7.639 -0.3122 -0.0230 -0.0846
  652MOL0     O85967   1.670  10.307   7.593  0.0512  0.1532  0.5628
  652MOL0     C85968   1.756  10.383   7.685  0.2451  0.4454  0.4099
  652MOL0     C85969   1.897  10.400   7.618  0.8137 -0.8675 -0.3988
  652MOL0     C85970   1.909  10.500   7.498 -0.7162  0.4103 -0.0737
  652MOL0     C85971   2.000  10.444   7.382 -0.8254 -0.5532 -1.0598
  652MOL0     C85972   2.094  10.553   7.320 -0.1318 -0.8671  0.9101
  652MOL0     C85973   2.193  10.475   7.243  0.1414  0.1181 -0.3351
  652MOL0     C85974   2.312  10.573   7.206 -0.0400  0.4832 -0.6551
  652MOL0     C85975   2.417  10.490   7.116  0.0385  0.3336 -0.1984
  652MOL0    Cl85976   2.482  10.341   7.183  0.2588 -0.4518  0.0235
  652MOL0     C85977   1.477  10.310   7.753  0.1530 -0.1659  1.1307
  652MOL0     C85978   1.349  10.267   7.784  0.4379 -0.2051 -0.5957
  652MOL0     O85979   1.187   9.957   7.792  0.0168 -0.0511  0.2577
  652MOL0     C85980   0.880  10.131   7.812 -0.3536  0.4291  0.0178
  652MOL0     C85981   0.747  10.101   7.841 -0.2613 -0.2123  0.6559
  652MOL0     N85982   0.125   9.614   7.740  0.0951 -0.5691 -0.7242
  652MOL0     N85983   0.048   9.520   7.714 -0.3551 -0.3478 -0.1241
  652MOL0     C85984   0.402  10.118   7.483 -0.2227 -0.2010  0.0958
  652MOL0     C85985   0.535  10.156   7.479 -0.1073  0.3004 -0.4836
  652MOL0     C85986   0.958  10.285   7.311  0.9494 -0.9339 -0.1403
  652MOL0     C85987   0.988  10.383   7.411  0.8224  0.3912  0.4652
  652MOL0     C85988   1.109  10.450   7.423  0.1336 -0.4569 -0.0964
  652MOL0     C85989   1.213  10.420   7.348 -0.5511 -0.3633  0.0539
  652MOL0     O85990   1.328  10.485   7.372  0.2876  1.4284 -1.3325
  652MOL0     C85991   1.450  10.450   7.307  0.2460 -0.5804  0.8528
  652MOL0     C85992   1.555  10.542   7.369  0.2178  0.0276  0.3875
  652MOL0     C85993   1.535  10.687   7.334  1.0236  0.4635 -1.4789
  652MOL0     C85994   1.555  10.734   7.194 -1.1558 -0.4497  0.1845
  652MOL0     C85995   1.693  10.713   7.153 -1.0303 -0.3891  0.0309
  652MOL0     C85996   1.808  10.688   7.111 -0.4212 -1.4493  0.2484
  652MOL0     C85997   1.188  10.326   7.246 -0.7016 -0.1197 -0.1957
  652MOL0     C85998   1.062  10.262   7.225  0.0771 -0.8076  0.7656
  652MOL0     H85999   0.573  10.218   7.153  0.2484  1.8814 -0.0626
  652MOL0     H86000   0.336  10.145   7.145  3.7225  2.2348 -2.0622
  652MOL0     H86001   0.099  10.070   7.537 -3.1350  0.8338 -0.1254
  652MOL0     H86002   0.191   9.914   7.509  1.1432  1.5354  0.3218
  652MOL0     H86003   0.035   9.848   7.335  1.9255 -1.1843  1.3319
  652MOL0     H86004  -0.045  10.002   7.361  1.3784  2.1651  0.7323
  652MOL0     H86005  -0.072   9.903   7.608 -1.1338 -2.5401  0.7430
  652MOL0     H86006  -0.022   9.747   7.528  1.0351  0.1198  0.1102
  652MOL0     H86007  -0.240   9.924   7.442  0.9569  0.5313  0.9326
  652MOL0     H86008  -0.199   9.766   7.366  2.5905 -0.7676  1.7889
  652MOL0     H86009  -0.407   9.782   7.540  1.6331  3.2952 -0.0669
  652MOL0     H86010  -0.277   9.776   7.660  0.3890  0.6305  0.1860
  652MOL0     H86011  -0.180   9.569   7.508 -0.4338 -2.5018 -0.9650
  652MOL0     H86012  -0.349   9.560   7.454 -0.6266  0.2772  0.3545
  652MOL0     H86013  -0.372   9.591   7.729  0.6586 -2.3189  2.0757
  652MOL0     H86014  -0.399   9.443   7.637 -4.0583  2.0575 -0.1248
  652MOL0     H86015  -0.163   9.381   7.650  0.3183 -0.0451 -0.8147
  652MOL0     H86016  -0.214   9.402   7.812  0.1875 -1.1360 -0.3772
  652MOL0     H86017  -0.152   9.736   7.843 -0.3682 -1.8755  2.5326
  652MOL0     H86018   0.063   9.865   7.942  0.1697 -4.7057  1.8422
  652MOL0     H86019   0.100   9.918   7.767 -2.1947 -1.3195 -1.5478
  652MOL0     H86020   0.293   9.753   7.936  0.8183 -0.0928 -0.2023
  652MOL0     H86021   0.287   9.927   7.946 -0.6319  0.9407 -1.4420
  652MOL0     H86022   0.337   9.777   7.701 -0.3758  0.9395 -2.0291
  652MOL0     H86023   0.340   9.963   7.730  0.0171  0.2509  1.8825
  652MOL0     H86024   0.570   9.865   7.702  2.1999 -0.0639  1.1363
  652MOL0     H86025   0.530   9.751   7.831 -1.3147  0.2658  3.0851
  652MOL0     H86026   0.755   9.768   7.866  1.4466 -0.8183 -2.3405
  652MOL0     H86027   0.992   9.807   7.832  0.1453  0.7952 -1.0845
  652MOL0     H86028   1.288  10.098   7.491 -1.9047  1.8230 -1.7172
  652MOL0     H86029   1.533  10.144   7.463  0.6150  1.7329 -0.2954
  652MOL0     H86030   1.779  10.328   7.777  1.8475  0.6300  0.1568
  652MOL0     H86031   1.708  10.478   7.708 -3.9572 -1.1702 -0.7503
  652MOL0     H86032   1.932  10.299   7.597  1.6830 -1.7380  4.2133
  652MOL0     H86033   1.972  10.435   7.689 -1.6164  1.8264  1.0442
  652MOL0     H86034   1.931  10.599   7.540 -2.8441  1.3492 -1.0230
  652MOL0     H86035   1.810  10.513   7.452 -0.7951 -1.6289 -0.5769
  652MOL0     H86036   2.060  10.376   7.443 -1.1705  0.6151  0.6606
  652MOL0     H86037   1.947  10.386   7.305 -2.6871 -0.3258 -0.0223
  652MOL0     H86038   2.146  10.618   7.391 -5.0444  3.3532  1.1686
  652MOL0     H86039   2.038  10.608   7.244  1.7530 -2.7880 -2.1258
  652MOL0     H86040   2.153  10.432   7.150 -2.0086  0.3599  0.4238
  652MOL0     H86041   2.232  10.394   7.306  0.5440 -0.9834 -1.9411
  652MOL0     H86042   2.282  10.664   7.153  1.2489  0.3673 -1.6552
  652MOL0     H86043   2.367  10.603   7.296  0.9995  2.2527 -1.8060
  652MOL0     H86044   2.497  10.561   7.095  0.6924 -0.8217 -1.8415
  652MOL0     H86045   2.379  10.457   7.018  0.4272  0.3701 -0.3619
  652MOL0     H86046   1.526  10.390   7.807 -0.9362  1.2887  0.0441
  652MOL0     H86047   1.301  10.320   7.866  1.8075 -0.1255  0.1808
  652MOL0     H86048   0.917  10.227   7.778  2.1505 -1.2212 -2.3497
  652MOL0     H86049   0.670  10.176   7.828 -0.7293 -0.9560 -1.1812
  652MOL0     H86050   0.356  10.104   7.581  1.3962  1.0859  1.1025
  652MOL0     H86051   0.582  10.174   7.574 -4.6232  2.2052  1.7072
  652MOL0     H86052   0.913  10.409   7.484  0.4316  0.9283 -0.1232
  652MOL0     H86053   1.125  10.522   7.502 -0.9620 -1.6571  1.2808
  652MOL0     H86054   1.441  10.465   7.199  0.1108  0.4616  0.9986
  652MOL0     H86055   1.468  10.344   7.331 -1.6717 -0.7566  1.6781
  652MOL0     H86056   1.553  10.528   7.478  0.6563  2.5748  0.8001
  652MOL0     H86057   1.651  10.499   7.342  0.0441 -0.6760  0.8756
  652MOL0     H86058   1.599  10.742   7.404  1.9638 -1.6575 -0.6011
  652MOL0     H86059   1.436  10.716   7.370  1.5335  0.5431 -0.0757
  652MOL0     H86060   1.491  10.677   7.126 -2.3828  1.2613 -0.1519
  652MOL0     H86061   1.534  10.841   7.183 -1.0021 -0.7364 -5.1469
  652MOL0     H86062   1.904  10.672   7.067 -0.0198  0.8347  0.1668
  652MOL0     H86063   1.274  10.277   7.200 -3.3731 -4.5457 -1.0602
  652MOL0     H86064   1.059  10.192   7.142  0.3211 -1.5521  1.3866
  653MOL0     O86065   9.380   6.439  11.096 -0.0819 -0.9732 -0.0083
  653MOL0     C86066   9.466   6.426  11.186 -0.2395 -0.0261 -0.0974
  653MOL0     O86067   9.435   6.403  11.323  0.7650 -0.2654 -0.1028
  653MOL0     C86068   9.306   6.431  11.363 -0.6574 -0.9516 -0.3563
  653MOL0     C86069   9.250   6.569  11.341 -0.3457 -0.9547 -0.4168
  653MOL0     C86070   9.120   6.601  11.373 -0.0008 -0.3524 -0.4324
  653MOL0     C86071   9.032   6.505  11.432 -0.5975 -0.1244 -0.0704
  653MOL0     O86072   8.915   6.551  11.480 -0.2976 -0.1407 -0.2655
  653MOL0     C86073   8.819   6.459  11.529 -0.3375  0.4892 -0.1855
  653MOL0     C86074   8.693   6.528  11.587  0.0840 -0.5178  0.0727
  653MOL0     C86075   8.557   6.450  11.619  0.6143 -0.2689  0.6019
  653MOL0     C86076   8.461   6.550  11.689  0.1649 -1.0636 -0.2638
  653MOL0     C86077   8.400   6.657  11.585 -0.2846  0.5086 -0.2006
  653MOL0     C86078   8.287   6.738  11.643 -0.2801 -1.0510  0.0246
  653MOL0     C86079   8.332   6.848  11.738 -0.4145  0.5297 -0.6000
  653MOL0     C86080   8.269   6.858  11.884  0.0239  0.0955 -0.3144
  653MOL0     N86081   8.123   6.868  11.878 -0.2497  1.4113  0.3447
  653MOL0     C86082   8.057   6.976  11.841 -0.3536 -0.4570  0.4712
  653MOL0     C86083   7.920   6.954  11.859 -0.6469  0.4123  0.3599
  653MOL0     C86084   7.815   7.054  11.817 -0.3529 -0.2275 -0.1878
  653MOL0     C86085   7.693   7.050  11.912 -0.4040 -0.3427  0.6851
  653MOL0     C86086   7.615   6.919  11.920  0.7895  0.4139  0.2257
  653MOL0     C86087   7.486   6.947  11.996  0.2353 -0.0131  0.8961
  653MOL0     O86088   7.372   6.928  11.908 -0.8310  0.6238  0.1788
  653MOL0     C86089   7.242   6.955  11.949 -0.7409 -1.2163 -0.1607
  653MOL0     C86090   7.200   6.925  12.082  1.2235 -1.3130 -0.3924
  653MOL0     C86091   7.064   6.925  12.114  0.2431 -0.4330 -0.6220
  653MOL0     C86092   6.972   6.965  12.023 -0.0881 -0.0768 -0.5356
  653MOL0     C86093   6.825   6.967  12.043 -0.1480 -0.0029 -0.1462
  653MOL0     O86094   6.752   7.033  11.952 -0.2869  0.0631 -0.3652
  653MOL0     C86095   6.614   7.046  11.971 -0.9807 -0.2796 -0.8832
  653MOL0     C86096   6.532   6.972  11.882 -0.2200  0.1076  0.1773
  653MOL0     C86097   6.398   6.978  11.901 -1.1349 -0.5411  0.5079
  653MOL0     C86098   6.343   7.076  11.990 -0.7547  0.2843  1.2740
  653MOL0     O86099   6.206   7.091  12.014 -0.1967 -0.6987  0.2028
  653MOL0     C86100   6.101   7.055  11.919  0.6986  0.1200  0.1536
  653MOL0     C86101   5.978   7.030  12.007  0.1232  0.2022 -0.2851
  653MOL0     C86102   5.854   6.984  11.932  0.3055  0.1852  0.4017
  653MOL0     C86103   5.800   7.089  11.830 -0.0651  0.3303 -0.6305
  653MOL0     C86104   5.651   7.095  11.839 -0.1714  0.3024 -0.2457
  653MOL0     C86105   5.582   6.961  11.838 -0.5506 -0.1866 -0.3024
  653MOL0     C86106   5.439   6.975  11.861 -0.4897 -0.8060 -0.1596
  653MOL0     C86107   5.361   7.029  11.737 -1.1764 -0.1690  0.1337
  653MOL0    Cl86108   5.324   7.203  11.763 -0.3695  0.5694  0.3354
  653MOL0     C86109   6.425   7.168  12.063 -0.1770  0.4997 -0.3862
  653MOL0     C86110   6.559   7.143  12.055 -0.8065  0.3220 -0.6043
  653MOL0     O86111   6.778   6.925  12.152 -0.4710 -0.0371 -0.2745
  653MOL0     C86112   7.016   6.980  11.887  0.2442 -1.1035 -0.2812
  653MOL0     C86113   7.149   6.981  11.850 -1.1587 -0.3518 -0.6428
  653MOL0     N86114   7.919   6.819  11.888 -0.4195 -0.3689  0.8834
  653MOL0     N86115   8.030   6.774  11.911 -0.6331 -0.4378  0.6510
  653MOL0     C86116   9.076   6.375  11.457  0.5338 -0.1303  0.0263
  653MOL0     C86117   9.218   6.340  11.421 -0.8459 -0.3313 -0.1782
  653MOL0     C86118   9.605   6.421  11.131 -0.5516  0.6228  0.0804
  653MOL0     C86119   9.631   6.430  10.997  0.4615 -0.0949  0.4971
  653MOL0     C86120   9.757   6.404  10.950 -0.3052 -0.8983  1.4954
  653MOL0     C86121   9.862   6.377  11.038 -0.0570  0.8099  1.1141
  653MOL0     O86122   9.986   6.362  10.977 -0.1765  0.5910 -0.6886
  653MOL0     C86123  10.075   6.271  11.049  0.0124  0.1917 -0.2278
  653MOL0     C86124  10.197   6.257  10.967 -0.6505 -0.1090  1.1524
  653MOL0     C86125  10.312   6.174  11.034 -0.1074 -1.1267 -0.6321
  653MOL0     C86126  10.424   6.149  10.930  0.9863 -0.9531 -0.2008
  653MOL0     C86127  10.551   6.115  10.989  0.2310 -0.4279  0.3072
  653MOL0     C86128  10.655   6.091  11.040  0.4307  0.4665 -0.8610
  653MOL0     C86129   9.829   6.367  11.175 -0.2789 -0.0371 -0.1794
  653MOL0     C86130   9.699   6.383  11.220  0.0512 -0.1777 -0.1351
  653MOL0     H86131   9.310   6.649  11.298 -2.4358  0.7136 -0.4076
  653MOL0     H86132   9.065   6.690  11.346  0.7589  0.7982  1.5590
  653MOL0     H86133   8.866   6.406  11.613 -3.2824 -1.1715  0.5691
  653MOL0     H86134   8.783   6.392  11.451 -1.0118  0.4480  0.1479
  653MOL0     H86135   8.668   6.603  11.511 -0.1328 -1.8818 -1.2570
  653MOL0     H86136   8.732   6.566  11.681 -0.1757 -0.7984  0.2935
  653MOL0     H86137   8.566   6.361  11.682  0.7394 -2.3128 -2.1077
  653MOL0     H86138   8.516   6.418  11.523 -0.8441  0.4139  0.9592
  653MOL0     H86139   8.378   6.487  11.723 -1.7854  0.2690 -2.2660
  653MOL0     H86140   8.510   6.592  11.777 -1.9013 -0.5353  0.6999
  653MOL0     H86141   8.360   6.599  11.501 -2.2356  0.6869  0.5437
  653MOL0     H86142   8.482   6.721  11.553  0.9056 -0.0870  1.5228
  653MOL0     H86143   8.223   6.669  11.699 -3.2864  2.4423  1.2623
  653MOL0     H86144   8.219   6.778  11.567 -0.4322  0.0763  0.7405
  653MOL0     H86145   8.439   6.853  11.763 -0.7370  0.8806  0.8281
  653MOL0     H86146   8.308   6.938  11.681 -2.4488 -1.0001 -2.2885
  653MOL0     H86147   8.307   6.951  11.927  0.2940 -0.5440  0.8894
  653MOL0     H86148   8.306   6.779  11.951  2.5130  1.0747 -0.4195
  653MOL0     H86149   8.107   7.062  11.798 -0.4992 -0.4982  0.2152
  653MOL0     H86150   7.785   7.025  11.716 -1.2997 -0.6084  0.1862
  653MOL0     H86151   7.845   7.159  11.821 -0.9362 -0.0423 -0.5931
  653MOL0     H86152   7.623   7.129  11.884  1.0073 -0.0485 -2.5034
  653MOL0     H86153   7.736   7.064  12.011  2.3833 -4.2343  0.2832
  653MOL0     H86154   7.599   6.871  11.822  2.0245  2.3445 -0.9822
  653MOL0     H86155   7.678   6.848  11.974  0.6062  0.0959  0.0237
  653MOL0     H86156   7.499   7.046  12.039 -0.0940 -0.8388  3.0415
  653MOL0     H86157   7.479   6.875  12.078  2.1265  0.4806  1.5153
  653MOL0     H86158   7.268   6.892  12.161 -2.1974 -0.9719  3.0107
  653MOL0     H86159   7.043   6.897  12.216 -0.4844  1.3299 -0.2653
  653MOL0     H86160   6.579   6.899  11.818 -1.5798 -0.0764 -0.6462
  653MOL0     H86161   6.334   6.914  11.841 -2.0978  0.1221  0.7977
  653MOL0     H86162   6.117   6.964  11.860  0.9070  0.3246 -0.1084
  653MOL0     H86163   6.097   7.137  11.848  0.9308  2.0413  2.2620
  653MOL0     H86164   5.959   7.124  12.060  0.3187 -0.3031  0.7004
  653MOL0     H86165   6.000   6.946  12.073 -2.5743 -0.0220  0.4363
  653MOL0     H86166   5.782   6.956  12.009  0.6957  1.1112  1.1275
  653MOL0     H86167   5.888   6.895  11.878  2.4666  0.6496  0.8867
  653MOL0     H86168   5.842   7.189  11.846  1.6919 -0.2401 -1.4341
  653MOL0     H86169   5.824   7.051  11.731  1.6178 -3.6495  1.0881
  653MOL0     H86170   5.604   7.144  11.752 -2.9468 -2.0388 -0.2014
  653MOL0     H86171   5.619   7.157  11.923  0.4033  4.2862 -2.6612
  653MOL0     H86172   5.614   6.881  11.906  0.0978  0.8574  0.6556
  653MOL0     H86173   5.601   6.923  11.737  0.3577  0.7152 -0.4924
  653MOL0     H86174   5.397   6.880  11.895 -0.1545 -1.7638 -2.2638
  653MOL0     H86175   5.416   7.053  11.935  3.5533 -0.5405  1.0380
  653MOL0     H86176   5.269   6.971  11.731  0.1120 -2.2856 -0.5207
  653MOL0     H86177   5.418   7.014  11.644  0.7999  2.1236  0.8681
  653MOL0     H86178   6.385   7.247  12.126 -3.6134  0.2038 -2.0009
  653MOL0     H86179   6.624   7.206  12.115 -2.0202 -0.0345  1.1489
  653MOL0     H86180   6.949   7.012  11.808 -0.3051  0.0663  0.6316
  653MOL0     H86181   7.179   7.001  11.748  1.2448  0.9085  0.2401
  653MOL0     H86182   9.022   6.298  11.510 -1.1141  1.3848  0.6563
  653MOL0     H86183   9.273   6.251  11.448  1.1157  0.7196 -0.5404
  653MOL0     H86184   9.561   6.458  10.919  0.9361 -1.7042 -0.5546
  653MOL0     H86185   9.790   6.418  10.848  1.7004 -0.7091  2.1289
  653MOL0     H86186  10.024   6.177  11.069  0.2733  0.1557  0.2930
  653MOL0     H86187  10.099   6.323  11.143  0.4485  1.5889 -1.0770
  653MOL0     H86188  10.166   6.221  10.868 -1.0233  1.3368  0.7122
  653MOL0     H86189  10.243   6.355  10.949  0.8246 -0.8321  0.8776
  653MOL0     H86190  10.267   6.097  11.097 -1.6578  0.5389  0.4060
  653MOL0     H86191  10.344   6.252  11.105  0.1761 -0.2029 -1.7476
  653MOL0     H86192  10.379   6.065  10.876 -4.1666  0.4507  1.3845
  653MOL0     H86193  10.436   6.231  10.859  1.8042  1.6607  2.7183
  653MOL0     H86194  10.738   6.072  11.106 -1.3464  0.5421  1.5100
  653MOL0     H86195   9.904   6.341  11.250 -1.5277 -1.8169  0.5276
  653MOL0     H86196   9.678   6.367  11.325 -1.0470  0.9380 -0.1595
  654MOL0     O86197   6.149   3.402   9.730  0.0768 -0.5241 -0.4893
  654MOL0     C86198   6.236   3.457   9.797 -0.5218  0.6321 -0.1648
  654MOL0     O86199   6.219   3.568   9.883 -0.0852 -0.1602 -0.1446
  654MOL0     C86200   6.104   3.561   9.964 -0.0361 -0.3034 -0.3397
  654MOL0     C86201   6.033   3.441   9.991 -0.2984  0.7742 -0.2684
  654MOL0     C86202   5.929   3.434  10.079 -0.8148  0.4139  0.0960
  654MOL0     C86203   5.902   3.549  10.151  0.2703 -0.4191 -0.3726
  654MOL0     O86204   5.809   3.553  10.258 -0.5229  0.2884  0.0707
  654MOL0     C86205   5.845   3.480  10.375  0.5382  0.3778  0.2312
  654MOL0     C86206   5.909   3.579  10.478 -0.0003  0.1348 -0.0920
  654MOL0     C86207   5.799   3.645  10.556 -1.2635  0.3681  0.4195
  654MOL0     C86208   5.847   3.699  10.691 -0.2278  0.0576 -0.1741
  654MOL0     C86209   5.727   3.741  10.780  0.1836 -0.5935 -0.5494
  654MOL0     C86210   5.758   3.811  10.914  1.1899  0.1988 -0.5052
  654MOL0     C86211   5.624   3.867  10.972 -0.1707 -0.5008  0.2916
  654MOL0     C86212   5.542   3.763  11.044 -0.4861  0.3032  0.1443
  654MOL0     N86213   5.566   3.762  11.189 -0.0898 -0.1954  0.4978
  654MOL0     C86214   5.481   3.816  11.283 -0.1835 -0.1830  0.3006
  654MOL0     C86215   5.531   3.770  11.404 -0.1757 -0.0947  0.4118
  654MOL0     C86216   5.486   3.796  11.548  0.2913  0.3889 -0.5392
  654MOL0     C86217   5.333   3.803  11.552 -0.3425  0.0958  0.1814
  654MOL0     C86218   5.269   3.774  11.684 -0.4201 -0.1640  0.1228
  654MOL0     C86219   5.264   3.625  11.729 -0.0420 -0.7181 -0.7090
  654MOL0     O86220   5.212   3.609  11.860  0.1601  0.2513 -0.3491
  654MOL0     C86221   5.082   3.581  11.885  0.0292  0.2228 -0.6821
  654MOL0     C86222   4.981   3.573  11.790 -0.2537  0.4365 -0.7335
  654MOL0     C86223   4.843   3.538  11.832 -0.2084  0.6088 -0.1126
  654MOL0     C86224   4.817   3.516  11.971  0.2599  0.5707  1.1760
  654MOL0     C86225   4.681   3.476  12.017 -0.3737 -0.0031 -0.4369
  654MOL0     O86226   4.677   3.479  12.153 -0.4612  0.1277  0.1711
  654MOL0     C86227   4.570   3.447  12.230 -0.0767  0.0079 -0.9038
  654MOL0     C86228   4.587   3.380  12.350 -0.5741 -0.7912 -0.3865
  654MOL0     C86229   4.491   3.358  12.439  0.0581 -0.0024 -0.9160
  654MOL0     C86230   4.358   3.399  12.406  0.1795  0.3638  1.5745
  654MOL0     O86231   4.242   3.377  12.478 -0.0819 -0.3769 -0.1593
  654MOL0     C86232   4.270   3.338  12.609 -0.7402  0.7772  0.4683
  654MOL0     C86233   4.147   3.344  12.700 -0.0412  0.3713  0.9582
  654MOL0     C86234   4.034   3.267  12.636 -0.0582  1.1210  0.5533
  654MOL0     C86235   3.925   3.254  12.747  0.9941 -0.0132 -0.5564
  654MOL0     C86236   3.794   3.209  12.678 -0.2087 -0.0579 -0.3482
  654MOL0     C86237   3.681   3.163  12.763 -1.0601 -0.6439 -0.9483
  654MOL0     C86238   3.588   3.093  12.660 -1.4093 -0.6792 -0.2723
  654MOL0     C86239   3.466   3.040  12.733  0.3296  1.1437  0.0176
  654MOL0    Cl86240   3.349   2.967  12.617 -0.1177  0.0981  0.0625
  654MOL0     C86241   4.332   3.467  12.280  0.2105 -0.1426 -1.2119
  654MOL0     C86242   4.439   3.493  12.195  0.0743 -0.3338  0.1812
  654MOL0     O86243   4.595   3.430  11.935 -0.3465 -0.1737 -0.8444
  654MOL0     C86244   4.924   3.517  12.058  0.3101 -0.4637  0.1301
  654MOL0     C86245   5.055   3.547  12.022 -0.4999 -0.7508 -0.2338
  654MOL0     N86246   5.624   3.674  11.375 -0.2387 -0.2096  0.6406
  654MOL0     N86247   5.655   3.684  11.247 -0.3471 -0.7094  0.2394
  654MOL0     C86248   5.967   3.672  10.131  0.0816  0.6881 -0.7307
  654MOL0     C86249   6.074   3.681  10.033  0.2730  0.2479  0.5999
  654MOL0     C86250   6.369   3.407   9.797  0.1972 -0.6420  0.5211
  654MOL0     C86251   6.409   3.296   9.717 -0.2519 -0.5049  0.1315
  654MOL0     C86252   6.546   3.268   9.706  0.1089  0.1521  0.1999
  654MOL0     C86253   6.647   3.335   9.788  0.0692  0.6305 -0.3834
  654MOL0     O86254   6.782   3.318   9.771 -0.5845 -0.1150  0.2294
  654MOL0     C86255   6.819   3.181   9.746  0.2879 -0.9780 -0.4303
  654MOL0     C86256   6.974   3.183   9.742  0.7631 -0.7368  0.5779
  654MOL0     C86257   7.028   3.060   9.818  0.8936  0.0418  1.7276
  654MOL0     C86258   7.171   3.033   9.792  0.2425  0.1248 -0.4043
  654MOL0     C86259   7.199   2.934   9.897  0.1191 -1.0358 -0.8496
  654MOL0     C86260   7.210   2.853   9.990 -0.0957  0.0947  0.3184
  654MOL0     C86261   6.599   3.436   9.865 -0.0475 -0.9593  0.0325
  654MOL0     C86262   6.462   3.467   9.877 -0.4577 -0.3104 -0.8954
  654MOL0     H86263   6.057   3.343   9.951 -0.9480  0.5967 -0.2386
  654MOL0     H86264   5.869   3.345  10.079 -1.1357  0.5638 -2.2539
  654MOL0     H86265   5.910   3.392  10.363  0.1260  0.0325  0.5014
  654MOL0     H86266   5.759   3.434  10.424  0.1480 -0.9894 -1.6188
  654MOL0     H86267   5.973   3.650  10.424  0.3177  0.1550  0.3086
  654MOL0     H86268   5.985   3.520  10.531 -1.0281 -2.4738 -1.3398
  654MOL0     H86269   5.730   3.561  10.569 -0.1956 -1.0748 -2.4285
  654MOL0     H86270   5.745   3.721  10.499  0.9656  1.3918 -0.4225
  654MOL0     H86271   5.911   3.626  10.741 -1.3158  0.1994  1.5526
  654MOL0     H86272   5.910   3.787  10.681 -0.9499  1.3248  4.1828
  654MOL0     H86273   5.657   3.657  10.787 -1.5784  0.7859 -0.8162
  654MOL0     H86274   5.668   3.813  10.722 -0.5001 -1.5482 -1.0597
  654MOL0     H86275   5.824   3.896  10.899 -0.1737  1.0143 -2.2954
  654MOL0     H86276   5.792   3.743  10.993 -2.1446 -1.0295  0.0697
  654MOL0     H86277   5.627   3.952  11.041 -2.0908 -1.3168  1.4851
  654MOL0     H86278   5.560   3.906  10.892  1.0593  0.3307 -0.3039
  654MOL0     H86279   5.572   3.666  11.003 -1.7624  0.1831 -0.5237
  654MOL0     H86280   5.438   3.788  11.025 -0.3712  0.3243 -0.4859
  654MOL0     H86281   5.396   3.881  11.268 -0.2987 -0.7135 -1.6327
  654MOL0     H86282   5.523   3.889  11.590  0.2442 -0.1445  0.7205
  654MOL0     H86283   5.511   3.706  11.605 -1.3617  1.5085  2.1156
  654MOL0     H86284   5.294   3.740  11.472  0.9622  1.0027 -1.2212
  654MOL0     H86285   5.305   3.906  11.529  1.5296  0.4912 -0.5128
  654MOL0     H86286   5.314   3.831  11.766 -2.3629  2.2852 -0.3925
  654MOL0     H86287   5.166   3.812  11.676 -0.8900 -1.6868 -1.9461
  654MOL0     H86288   5.368   3.590  11.733 -0.9335 -3.8427 -1.5822
  654MOL0     H86289   5.218   3.552  11.661  2.2716 -2.2752 -0.7543
  654MOL0     H86290   4.995   3.596  11.685 -3.3725 -0.0638 -1.3484
  654MOL0     H86291   4.774   3.537  11.748 -1.7498  1.1779  1.1025
  654MOL0     H86292   4.686   3.344  12.376 -0.4305  0.3903  0.7967
  654MOL0     H86293   4.508   3.308  12.534 -1.1330  0.2777 -0.5301
  654MOL0     H86294   4.349   3.401  12.651 -1.3381  2.3016 -0.6134
  654MOL0     H86295   4.311   3.236  12.614 -0.1263  0.9945 -0.0399
  654MOL0     H86296   4.116   3.446  12.726 -1.4104  0.2240  0.0308
  654MOL0     H86297   4.162   3.304  12.801 -2.8385 -0.3681  1.1547
  654MOL0     H86298   4.074   3.178  12.586 -2.8983 -0.3392  0.6897
  654MOL0     H86299   3.999   3.322  12.549 -1.0587 -1.2739 -0.6474
  654MOL0     H86300   3.961   3.181  12.819  3.9136  1.0644 -0.7903
  654MOL0     H86301   3.912   3.348  12.802  0.2867 -1.1009  1.2055
  654MOL0     H86302   3.828   3.124  12.617  0.6511  0.2594 -0.3191
  654MOL0     H86303   3.755   3.283  12.607 -3.0194 -0.3157  0.7858
  654MOL0     H86304   3.644   3.254  12.810 -3.6067 -0.7405 -2.5882
  654MOL0     H86305   3.720   3.101  12.844  2.0394  2.2659  0.0313
  654MOL0     H86306   3.553   3.167  12.588  0.3845  0.5862  0.0869
  654MOL0     H86307   3.646   3.016  12.608 -0.9320  0.6906 -1.8115
  654MOL0     H86308   3.411   3.117  12.786 -1.4396 -0.6233  0.8723
  654MOL0     H86309   3.493   2.966  12.809  0.1747 -1.3603 -2.2255
  654MOL0     H86310   4.235   3.509  12.258 -0.8813 -1.8157  0.0712
  654MOL0     H86311   4.424   3.556  12.108 -1.5661 -1.0972 -0.1202
  654MOL0     H86312   4.902   3.505  12.164 -2.1252  3.3356  0.2472
  654MOL0     H86313   5.132   3.547  12.099  0.1005 -3.0815 -0.7504
  654MOL0     H86314   5.940   3.761  10.188 -2.9824  0.0490 -1.0080
  654MOL0     H86315   6.125   3.772  10.001  0.8160  0.3227  1.6511
  654MOL0     H86316   6.344   3.252   9.641 -2.8732  0.5867  1.6281
  654MOL0     H86317   6.575   3.204   9.623  0.0765 -1.5491  1.4460
  654MOL0     H86318   6.776   3.152   9.650 -1.8544  1.3127 -0.2484
  654MOL0     H86319   6.782   3.116   9.825 -0.1454 -0.5267 -0.2569
  654MOL0     H86320   7.002   3.179   9.636 -1.9292 -1.5756 -0.1850
  654MOL0     H86321   7.007   3.268   9.801 -3.3900  0.3011  1.7537
  654MOL0     H86322   6.968   2.971   9.792  2.3365 -1.0162  1.9016
  654MOL0     H86323   7.009   3.089   9.921 -3.5457  1.0219  0.8703
  654MOL0     H86324   7.180   2.992   9.691 -0.6653 -0.3091 -0.3171
  654MOL0     H86325   7.232   3.124   9.795  3.3866 -1.7940 -0.7646
  654MOL0     H86326   7.214   2.791  10.078  1.9440 -1.0351 -0.4915
  654MOL0     H86327   6.665   3.502   9.919 -1.1331 -0.5611  0.9104
  654MOL0     H86328   6.446   3.542   9.955  2.2118 -0.3545 -0.2110
  655MOL0     O86329   8.328  10.744   9.286 -0.1498  0.7691  0.4892
  655MOL0     C86330   8.313  10.763   9.404 -0.1781  0.0457 -0.4222
  655MOL0     O86331   8.193  10.754   9.466 -0.1107  0.0238  0.5370
  655MOL0     C86332   8.069  10.737   9.420  0.2866  0.3720  0.4512
  655MOL0     C86333   8.046  10.664   9.306  0.2491  0.3581  0.2712
  655MOL0     C86334   7.921  10.654   9.257  0.1775  0.0584  0.0142
  655MOL0     C86335   7.809  10.721   9.311 -0.2879 -0.6970 -0.0656
  655MOL0     O86336   7.681  10.709   9.257  0.0705  0.3082 -0.3709
  655MOL0     C86337   7.641  10.625   9.145  0.6553 -0.4646  1.3402
  655MOL0     C86338   7.486  10.609   9.134 -0.2212 -0.4735 -0.6019
  655MOL0     C86339   7.426  10.555   9.264  0.7579  0.9859  0.5257
  655MOL0     C86340   7.275  10.515   9.260 -0.6927 -1.0975 -0.3280
  655MOL0     C86341   7.184  10.610   9.339 -1.3928  0.0053 -0.2512
  655MOL0     C86342   7.038  10.579   9.314 -0.4511 -1.0023 -0.7276
  655MOL0     C86343   6.996  10.436   9.361 -0.6927  0.4423 -0.1515
  655MOL0     C86344   6.847  10.413   9.346  0.1261 -0.2694  1.0364
  655MOL0     N86345   6.756  10.507   9.414  0.4108 -0.3287 -0.8945
  655MOL0     C86346   6.748  10.529   9.552  0.3923 -0.7523  0.2366
  655MOL0     C86347   6.634  10.599   9.562  1.2497  0.1955  0.1984
  655MOL0     C86348   6.564  10.656   9.681  0.3106 -0.1543  0.0397
  655MOL0     C86349   6.586  10.573   9.805 -0.4361 -0.1797 -0.3453
  655MOL0     C86350   6.528  10.661   9.914 -0.4726  0.4283  0.1166
  655MOL0     C86351   6.563  10.599  10.050  0.6808 -0.5624 -0.6118
  655MOL0     O86352   6.523  10.465  10.069 -0.0953  0.2314  0.0437
  655MOL0     C86353   6.394  10.436  10.103  0.9133  0.2618  0.0697
  655MOL0     C86354   6.338  10.315  10.055 -0.0986 -1.0647 -0.6318
  655MOL0     C86355   6.207  10.283  10.091  0.2546  0.5806 -0.3778
  655MOL0     C86356   6.126  10.360  10.178 -0.2364 -0.8877 -0.6977
  655MOL0     C86357   5.982  10.330  10.203 -0.2430 -0.4248  0.3939
  655MOL0     O86358   5.931  10.219  10.147 -0.5229 -0.0482 -0.5802
  655MOL0     C86359   5.796  10.211  10.172  0.9643  0.1043  0.2891
  655MOL0     C86360   5.702  10.298  10.115 -0.7210  0.6153 -0.3503
  655MOL0     C86361   5.564  10.274  10.117 -0.1923 -0.3919  0.7796
  655MOL0     C86362   5.517  10.164  10.188 -0.2708  0.3546 -0.1299
  655MOL0     O86363   5.393  10.117  10.209  0.5698 -0.7434 -0.3568
  655MOL0     C86364   5.276  10.205  10.181 -1.1430 -0.7819  0.2134
  655MOL0     C86365   5.148  10.153  10.253 -0.7825 -0.5986  0.5819
  655MOL0     C86366   5.160  10.203  10.402 -0.7058 -0.1650 -0.1973
  655MOL0     C86367   5.057  10.132  10.493 -0.4432 -0.2924 -0.7142
  655MOL0     C86368   4.919  10.182  10.506  0.3819 -0.0248  0.5051
  655MOL0     C86369   4.838  10.159  10.377  0.7828 -0.2747  0.3964
  655MOL0     C86370   4.686  10.178  10.402  0.4255 -0.0260  0.4329
  655MOL0     C86371   4.593  10.147  10.293 -0.0427 -0.9789  0.0264
  655MOL0    Cl86372   4.534   9.984  10.314  0.1482 -0.0824  0.6217
  655MOL0     C86373   5.611  10.081  10.254 -0.3290  0.1585 -0.6582
  655MOL0     C86374   5.747  10.104  10.249 -0.2140  0.6724  0.1877
  655MOL0     O86375   5.923  10.411  10.274 -0.2958  0.0934 -0.6561
  655MOL0     C86376   6.177  10.486  10.216  0.5551  0.1651 -0.2438
  655MOL0     C86377   6.309  10.516  10.184 -0.1406 -0.5030  0.1715
  655MOL0     N86378   6.576  10.610   9.441  0.3165  0.5452  0.1580
  655MOL0     N86379   6.652  10.563   9.351 -0.4736 -0.1499  0.6647
  655MOL0     C86380   7.834  10.800   9.422  0.0733 -0.3440 -0.5351
  655MOL0     C86381   7.961  10.807   9.474 -0.5172 -0.4101  0.4240
  655MOL0     C86382   8.430  10.790   9.499 -0.6781  0.6499 -0.3721
  655MOL0     C86383   8.571  10.793   9.453  1.0111 -1.0550  0.7604
  655MOL0     C86384   8.676  10.813   9.553  0.1212 -0.2290  0.0788
  655MOL0     C86385   8.648  10.840   9.690  0.9477  0.1413  0.1211
  655MOL0     O86386   8.738  10.883   9.782 -0.4571  0.1076  0.6761
  655MOL0     C86387   8.798  10.784   9.859 -0.1071  0.1634  0.2659
  655MOL0     C86388   8.936  10.732   9.813 -0.5734  0.8195 -0.1798
  655MOL0     C86389   9.052  10.830   9.818  0.4624 -0.1473 -0.2914
  655MOL0     C86390   9.058  10.936   9.708  1.0405 -0.3315  0.5353
  655MOL0     C86391   9.057  10.872   9.579 -0.1423  0.5446  0.3351
  655MOL0     C86392   9.064  10.819   9.475  0.4660  0.0150 -0.6081
  655MOL0     C86393   8.514  10.815   9.730  0.2575 -0.3161  0.7548
  655MOL0     C86394   8.411  10.808   9.638  0.7582 -0.0102 -0.0261
  655MOL0     H86395   8.127  10.615   9.252  0.2035 -0.3816  0.8630
  655MOL0     H86396   7.920  10.585   9.174 -0.1705 -0.0646  0.1223
  655MOL0     H86397   7.698  10.531   9.142  2.5530  0.6644  0.0235
  655MOL0     H86398   7.672  10.675   9.053  1.4497  2.7866  3.2168
  655MOL0     H86399   7.455  10.553   9.046  0.0035  2.5670 -2.7816
  655MOL0     H86400   7.438  10.707   9.131 -1.7213 -1.2124 -2.4262
  655MOL0     H86401   7.438  10.636   9.336  6.9710  1.2648 -0.3223
  655MOL0     H86402   7.480  10.467   9.299  0.2758  0.8815  1.0288
  655MOL0     H86403   7.244  10.492   9.157 -1.4960 -0.3666 -0.2654
  655MOL0     H86404   7.272  10.416   9.306  1.8881 -0.9374  0.3561
  655MOL0     H86405   7.206  10.712   9.305 -0.6511  0.9025  2.6024
  655MOL0     H86406   7.202  10.601   9.446  0.5287 -0.2651 -0.5607
  655MOL0     H86407   7.005  10.597   9.212  1.7529  0.6713 -1.1947
  655MOL0     H86408   6.970  10.644   9.370 -0.2835  0.9803 -2.7034
  655MOL0     H86409   7.046  10.356   9.306  0.4640  0.0990  1.3260
  655MOL0     H86410   7.009  10.416   9.468 -2.7756  0.0025  0.0586
  655MOL0     H86411   6.835  10.310   9.384  0.2811 -0.9203 -0.6186
  655MOL0     H86412   6.813  10.410   9.242  3.1091  0.3661 -0.0377
  655MOL0     H86413   6.812  10.488   9.629  0.1182  1.6588  1.8382
  655MOL0     H86414   6.457  10.652   9.657  0.0411 -1.2184  1.3320
  655MOL0     H86415   6.584  10.762   9.701 -0.5490  0.4259 -1.8779
  655MOL0     H86416   6.693  10.563   9.825 -0.0660  0.1531 -1.9999
  655MOL0     H86417   6.538  10.476   9.793  2.7619 -2.0111  0.3267
  655MOL0     H86418   6.560  10.766   9.904 -0.1704  0.2760 -0.6208
  655MOL0     H86419   6.419  10.666   9.910 -0.3891  1.7442 -1.6957
  655MOL0     H86420   6.527  10.661  10.132  1.4685 -0.1125 -0.5936
  655MOL0     H86421   6.671  10.612  10.061  0.6914  1.1430 -2.1854
  655MOL0     H86422   6.403  10.256   9.992  0.9143 -1.5513  0.7961
  655MOL0     H86423   6.170  10.188  10.055  0.2605 -0.1278  1.4033
  655MOL0     H86424   5.728  10.378  10.047  2.6399 -0.4479 -0.4878
  655MOL0     H86425   5.506  10.345  10.059  2.1567  0.9952 -0.0532
  655MOL0     H86426   5.273  10.203  10.071  1.7063 -2.8506  0.0687
  655MOL0     H86427   5.305  10.303  10.221 -0.2119 -1.1457  0.4502
  655MOL0     H86428   5.139  10.045  10.242 -0.7510 -0.5066 -0.4002
  655MOL0     H86429   5.060  10.204  10.213  0.3887  1.7339  0.7950
  655MOL0     H86430   5.158  10.311  10.420  0.4388 -0.5324  2.7679
  655MOL0     H86431   5.253  10.177  10.455 -2.8789  0.7615  4.6391
  655MOL0     H86432   5.061  10.027  10.463  2.1689 -1.1702  2.0555
  655MOL0     H86433   5.104  10.150  10.591  3.6865  5.0712 -3.1418
  655MOL0     H86434   4.917  10.289  10.531  0.1589 -0.0498  0.5988
  655MOL0     H86435   4.878  10.127  10.591  1.1651  0.2282  1.0654
  655MOL0     H86436   4.859  10.059  10.337  2.1900 -0.9400  2.6110
  655MOL0     H86437   4.872  10.226  10.298 -0.3477 -1.7006 -1.3789
  655MOL0     H86438   4.662  10.114  10.487 -0.0761 -0.3883  0.0273
  655MOL0     H86439   4.668  10.274  10.451  3.2425  1.0054 -0.3347
  655MOL0     H86440   4.637  10.162  10.194 -1.7603  3.7022 -0.2510
  655MOL0     H86441   4.509  10.216  10.287  2.3547  2.2336  0.9006
  655MOL0     H86442   5.588   9.994  10.313 -0.6227 -0.8810 -2.2466
  655MOL0     H86443   5.808  10.042  10.314 -4.2766 -1.4117  2.4931
  655MOL0     H86444   6.122  10.556  10.279 -1.1737 -0.4082 -1.0606
  655MOL0     H86445   6.342  10.614  10.218 -0.3483  0.5037 -2.2843
  655MOL0     H86446   7.751  10.860   9.459 -0.2099  0.3017 -2.1061
  655MOL0     H86447   7.981  10.864   9.565 -0.6105  1.6727 -0.8065
  655MOL0     H86448   8.583  10.781   9.346 -3.1417 -1.9720  0.2278
  655MOL0     H86449   8.780  10.811   9.524  0.6342 -1.4977  1.8324
  655MOL0     H86450   8.727  10.701   9.868  0.8749 -0.8861 -1.3185
  655MOL0     H86451   8.806  10.828   9.959 -1.6320  2.9325 -0.6874
  655MOL0     H86452   8.967  10.661   9.890  2.4301  2.1569  0.0237
  655MOL0     H86453   8.929  10.686   9.714 -0.5306 -0.7706  0.5221
  655MOL0     H86454   9.149  10.779   9.815  0.8890  0.6681 -0.6178
  655MOL0     H86455   9.030  10.877   9.914  0.3681 -0.3042 -0.2356
  655MOL0     H86456   8.969  10.997   9.722  1.3864  0.7578 -1.7080
  655MOL0     H86457   9.150  10.995   9.716  2.4606 -1.7806 -2.9084
  655MOL0     H86458   9.088  10.775   9.380  1.3930  0.4641 -0.5899
  655MOL0     H86459   8.487  10.806   9.835 -0.7843 -0.7841  0.4588
  655MOL0     H86460   8.318  10.813   9.695  2.6026 -0.4317  3.2556
  656MOL0     O86461   0.484   1.793   8.088  0.1845 -0.2853 -0.1807
  656MOL0     C86462   0.422   1.891   8.043  0.3568  0.2644 -0.0214
  656MOL0     O86463   0.457   1.962   7.940  0.9680  0.9398  0.7299
  656MOL0     C86464   0.583   1.977   7.901 -0.0688  0.0455 -0.0938
  656MOL0     C86465   0.694   1.993   7.993 -0.0022  1.6304  0.2622
  656MOL0     C86466   0.824   2.001   7.933  0.0937 -0.3441  0.4417
  656MOL0     C86467   0.840   2.018   7.794  0.1749  0.6832  0.1267
  656MOL0     O86468   0.965   2.045   7.736  0.4741 -0.5433 -0.0084
  656MOL0     C86469   1.083   2.001   7.796  0.3973 -0.6731  1.2323
  656MOL0     C86470   1.206   2.058   7.723 -0.5763 -0.0501 -0.7126
  656MOL0     C86471   1.326   2.035   7.813  0.1172  0.3851  0.2110
  656MOL0     C86472   1.453   2.062   7.731  0.0296  0.6349 -1.0977
  656MOL0     C86473   1.580   2.024   7.815  0.3774  0.0124 -0.9836
  656MOL0     C86474   1.692   2.003   7.714 -0.0827  0.1474  0.6747
  656MOL0     C86475   1.824   2.041   7.780  0.1300  0.2158  1.0188
  656MOL0     C86476   1.875   1.952   7.899 -0.0507 -0.1477  0.6656
  656MOL0     N86477   2.002   2.013   7.947  0.4446  0.1989 -0.5280
  656MOL0     C86478   2.119   2.021   7.869  0.2332 -0.1328  0.4179
  656MOL0     C86479   2.206   2.085   7.947 -0.5992 -0.0826 -0.8805
  656MOL0     C86480   2.347   2.139   7.920  0.0697  0.5141  0.0030
  656MOL0     C86481   2.409   2.094   7.784 -0.0055  0.1184  1.1826
  656MOL0     C86482   2.454   1.941   7.775  0.0464 -0.8598 -0.3872
  656MOL0     C86483   2.506   1.905   7.635  0.2343  0.4950  0.3485
  656MOL0     O86484   2.429   1.950   7.530 -0.4681 -0.4471  0.2754
  656MOL0     C86485   2.306   1.901   7.508 -0.9080 -0.1459 -0.2533
  656MOL0     C86486   2.253   1.781   7.559 -0.6522 -0.8745 -0.7183
  656MOL0     C86487   2.118   1.747   7.528  0.9106  0.4051  0.5540
  656MOL0     C86488   2.032   1.841   7.457  0.4112  0.0120  0.1420
  656MOL0     C86489   1.887   1.824   7.459  0.2866 -0.6668 -0.2528
  656MOL0     O86490   1.834   1.709   7.519 -0.6508 -0.2950 -0.3471
  656MOL0     C86491   1.700   1.691   7.513  0.2130  0.0448  0.2409
  656MOL0     C86492   1.630   1.689   7.391  0.3387 -0.8753 -0.5395
  656MOL0     C86493   1.498   1.657   7.394  0.2690 -0.4754 -0.3445
  656MOL0     C86494   1.423   1.642   7.510 -0.1664 -0.3474  0.0790
  656MOL0     O86495   1.291   1.619   7.520  0.6063  0.0690 -0.4970
  656MOL0     C86496   1.207   1.620   7.410  0.0768  0.0648 -0.1131
  656MOL0     C86497   1.071   1.562   7.433  0.4644  0.2222 -0.7705
  656MOL0     C86498   1.007   1.644   7.551  0.2613 -0.0309 -0.4030
  656MOL0     C86499   0.899   1.556   7.615  0.0675 -0.6549  0.1460
  656MOL0     C86500   0.849   1.625   7.749 -0.1801 -0.1259  0.7485
  656MOL0     C86501   0.726   1.559   7.811 -0.4685 -0.7401  0.2230
  656MOL0     C86502   0.592   1.585   7.743  0.1974  0.4831  0.2145
  656MOL0     C86503   0.495   1.540   7.846  0.5852 -0.4030 -0.0261
  656MOL0    Cl86504   0.329   1.516   7.796 -0.0575  0.3439  0.1653
  656MOL0     C86505   1.492   1.645   7.634 -0.2765  0.1300  0.1059
  656MOL0     C86506   1.632   1.662   7.633 -0.2759  0.3788  0.1293
  656MOL0     O86507   1.825   1.903   7.390  0.5060 -0.1131  0.0925
  656MOL0     C86508   2.096   1.963   7.407  0.5614 -0.0065  0.4151
  656MOL0     C86509   2.229   1.982   7.428 -0.0243  0.1579 -0.2740
  656MOL0     N86510   2.145   2.090   8.073  0.2233 -0.4792 -0.1309
  656MOL0     N86511   2.022   2.060   8.073  0.7750  0.4939  0.4119
  656MOL0     C86512   0.730   2.019   7.706  0.8383 -0.8935  0.7844
  656MOL0     C86513   0.598   1.999   7.765  0.5326  0.4390  0.1433
  656MOL0     C86514   0.297   1.931   8.117  0.6007  0.5294  0.5295
  656MOL0     C86515   0.196   2.015   8.062 -0.0280 -0.0009 -0.0749
  656MOL0     C86516   0.076   2.056   8.132  0.1730 -0.0075  0.2066
  656MOL0     C86517   0.062   2.009   8.257  1.0487 -0.0040  0.0576
  656MOL0     O86518  -0.040   2.061   8.332  0.7137  0.5024  0.8111
  656MOL0     C86519  -0.086   1.980   8.445  0.8939 -0.0099  0.8895
  656MOL0     C86520  -0.236   2.009   8.469 -0.5581  0.2214  0.5886
  656MOL0     C86521  -0.292   2.148   8.456  0.1335 -0.2577 -0.5899
  656MOL0     C86522  -0.208   2.247   8.539  0.6151 -0.6629 -0.4395
  656MOL0     C86523  -0.265   2.384   8.537 -0.6747 -0.5525  0.2760
  656MOL0     C86524  -0.309   2.501   8.545  0.4916 -1.2019  0.3370
  656MOL0     C86525   0.164   1.930   8.318 -0.0069 -0.0747 -0.5407
  656MOL0     C86526   0.280   1.887   8.248  0.0884  0.2354  0.1357
  656MOL0     H86527   0.689   1.992   8.102 -0.1304 -0.8887  0.2987
  656MOL0     H86528   0.911   2.011   7.997  1.7446 -3.6220 -1.0209
  656MOL0     H86529   1.096   1.893   7.794  0.3529 -0.6974 -0.9361
  656MOL0     H86530   1.093   2.031   7.900 -1.8966 -1.2763  1.6930
  656MOL0     H86531   1.201   2.167   7.712  1.2610 -0.0579 -1.9938
  656MOL0     H86532   1.212   2.010   7.625 -0.2985 -1.5268 -0.0064
  656MOL0     H86533   1.322   1.931   7.845 -2.6748  0.9474  2.0089
  656MOL0     H86534   1.321   2.101   7.900  1.3755 -1.1873  1.5429
  656MOL0     H86535   1.452   1.999   7.641  2.1406 -2.6646  0.9844
  656MOL0     H86536   1.465   2.165   7.696 -0.7903  0.6688 -1.3090
  656MOL0     H86537   1.546   1.944   7.881 -0.5135  0.3292 -1.0382
  656MOL0     H86538   1.614   2.106   7.879 -0.9812  0.2267 -0.5028
  656MOL0     H86539   1.674   2.060   7.622  1.2194 -1.7070 -0.8217
  656MOL0     H86540   1.690   1.899   7.680 -0.6289 -0.7910  3.3482
  656MOL0     H86541   1.900   2.032   7.701  1.6322  0.7702  2.3527
  656MOL0     H86542   1.823   2.143   7.819 -2.1647  1.4548 -1.9130
  656MOL0     H86543   1.891   1.850   7.863 -2.8671 -0.2844 -0.4381
  656MOL0     H86544   1.798   1.940   7.976  0.8764  2.3178  2.0773
  656MOL0     H86545   2.127   1.991   7.765 -0.0156  1.5435 -0.1103
  656MOL0     H86546   2.416   2.101   7.995 -1.4845  0.0089  1.2380
  656MOL0     H86547   2.340   2.248   7.928  0.5550  0.4702  1.1394
  656MOL0     H86548   2.495   2.158   7.764 -0.5543  0.2397 -1.0694
  656MOL0     H86549   2.328   2.114   7.714 -2.2378 -3.2700  2.5666
  656MOL0     H86550   2.520   1.930   7.862  0.7328 -0.3456 -0.8260
  656MOL0     H86551   2.365   1.882   7.801 -0.3509  0.2420  0.8266
  656MOL0     H86552   2.522   1.797   7.633 -0.1919  0.4425 -1.0522
  656MOL0     H86553   2.603   1.954   7.620  0.8651 -1.2931 -2.1231
  656MOL0     H86554   2.314   1.715   7.619 -0.6374 -1.1781 -1.0588
  656MOL0     H86555   2.078   1.652   7.564  1.4351 -0.2215 -0.4687
  656MOL0     H86556   1.695   1.702   7.306  1.9491 -0.2331  0.7535
  656MOL0     H86557   1.444   1.659   7.300 -0.6750  2.1206  0.1843
  656MOL0     H86558   1.272   1.566   7.340  2.5787  2.0441  0.4977
  656MOL0     H86559   1.184   1.721   7.374 -2.1238 -0.0166  0.9572
  656MOL0     H86560   1.059   1.455   7.454  0.1162  0.8025  2.5715
  656MOL0     H86561   1.010   1.591   7.347  0.7590  1.7530 -0.5006
  656MOL0     H86562   0.964   1.736   7.510 -0.4264 -0.4620 -0.6635
  656MOL0     H86563   1.087   1.663   7.624 -0.9394  1.1931  0.6576
  656MOL0     H86564   0.821   1.532   7.543  0.0225  0.4151 -0.1709
  656MOL0     H86565   0.948   1.463   7.645  1.4566 -0.8482 -2.4442
  656MOL0     H86566   0.827   1.730   7.727 -0.5797 -0.6172 -1.3609
  656MOL0     H86567   0.938   1.622   7.813  1.3061  1.9030 -1.0581
  656MOL0     H86568   0.722   1.592   7.916  1.2179  0.5274 -0.0741
  656MOL0     H86569   0.744   1.451   7.811  1.9288 -0.4185 -1.6090
  656MOL0     H86570   0.592   1.691   7.716 -0.0270  0.8402  1.4999
  656MOL0     H86571   0.590   1.530   7.649 -0.6777  2.2567 -0.8390
  656MOL0     H86572   0.497   1.613   7.928  2.2895 -0.9686  0.4853
  656MOL0     H86573   0.531   1.450   7.895 -2.8546 -1.4205  0.8986
  656MOL0     H86574   1.418   1.633   7.713 -1.9544  0.3146 -1.3521
  656MOL0     H86575   1.688   1.661   7.726  2.3140 -0.7068 -1.3377
  656MOL0     H86576   2.035   2.027   7.343  2.0644  1.8857  0.7663
  656MOL0     H86577   2.271   2.077   7.394 -3.0937  2.5319  1.9900
  656MOL0     H86578   0.742   2.048   7.602  0.2277  0.3007  1.0240
  656MOL0     H86579   0.509   1.997   7.703  1.1219  1.3848 -0.7564
  656MOL0     H86580   0.219   2.049   7.962  0.6562  3.2741  1.0658
  656MOL0     H86581   0.009   2.127   8.084 -0.1691  0.1554  0.9149
  656MOL0     H86582  -0.029   2.008   8.535  4.2065  2.9744 -1.8106
  656MOL0     H86583  -0.070   1.873   8.426  0.5378 -0.5454  3.2688
  656MOL0     H86584  -0.287   1.953   8.391 -0.0477  0.3786  0.1341
  656MOL0     H86585  -0.263   1.969   8.567  0.5984  0.2648  0.9486
  656MOL0     H86586  -0.394   2.141   8.494  0.5274 -0.6418  0.4195
  656MOL0     H86587  -0.298   2.175   8.350 -2.3410  3.0131  0.2119
  656MOL0     H86588  -0.213   2.208   8.641  3.4571 -0.2741 -0.0630
  656MOL0     H86589  -0.103   2.236   8.510  0.8243 -1.8499  0.6337
  656MOL0     H86590  -0.347   2.599   8.564  4.0441  0.8138 -1.9021
  656MOL0     H86591   0.143   1.891   8.417 -0.5622  1.8683  0.1448
  656MOL0     H86592   0.353   1.821   8.294  1.2616  2.6326  1.8917
  657MOL0     O86593   5.067   0.354   3.044  0.3471  0.1989 -0.7489
  657MOL0     C86594   5.110   0.397   3.149 -0.7072  0.4316  0.8685
  657MOL0     O86595   5.039   0.466   3.245  0.0370 -1.0660 -0.3714
  657MOL0     C86596   4.905   0.490   3.235  0.6539  0.8293  0.3873
  657MOL0     C86597   4.823   0.496   3.116 -0.2264  0.1816  0.3434
  657MOL0     C86598   4.693   0.525   3.121  0.0650  0.0229  0.8415
  657MOL0     C86599   4.637   0.574   3.243 -0.3527  0.0931 -0.5448
  657MOL0     O86600   4.503   0.611   3.253  0.5379  0.3170  0.2739
  657MOL0     C86601   4.402   0.526   3.195  0.2975 -0.3401 -0.1529
  657MOL0     C86602   4.343   0.470   3.326 -0.1882  0.1486 -0.2777
  657MOL0     C86603   4.204   0.402   3.299 -0.4562 -0.6326 -0.9881
  657MOL0     C86604   4.122   0.376   3.421  0.0262 -0.0849 -0.0219
  657MOL0     C86605   3.972   0.348   3.390  0.4819  0.8108  0.2411
  657MOL0     C86606   3.898   0.480   3.400 -1.1725 -0.7869  0.5088
  657MOL0     C86607   3.758   0.462   3.345 -0.2921  0.5075  1.2172
  657MOL0     C86608   3.680   0.350   3.413 -0.1096 -0.1509  0.4571
  657MOL0     N86609   3.538   0.366   3.392 -0.2127 -0.4343  1.0861
  657MOL0     C86610   3.447   0.458   3.436 -0.7089  0.5484 -0.4628
  657MOL0     C86611   3.325   0.404   3.410 -0.1554  0.2301  0.6402
  657MOL0     C86612   3.201   0.455   3.475  0.4928  0.5765  0.6742
  657MOL0     C86613   3.133   0.345   3.562  0.1869 -0.5337  0.2377
  657MOL0     C86614   3.225   0.296   3.675  0.4313  0.2381  0.0008
  657MOL0     C86615   3.249   0.399   3.781 -0.1601  1.2203  0.8670
  657MOL0     O86616   3.352   0.492   3.762 -0.0336 -0.2234 -0.3268
  657MOL0     C86617   3.481   0.453   3.766  0.8615  0.6930  0.1848
  657MOL0     C86618   3.529   0.323   3.782  1.3813  0.9054 -0.4671
  657MOL0     C86619   3.661   0.288   3.791 -1.1311 -0.0385 -0.6439
  657MOL0     C86620   3.758   0.397   3.785 -0.0494 -0.3796 -0.0523
  657MOL0     C86621   3.904   0.364   3.789  0.4797 -0.8593  0.2084
  657MOL0     O86622   3.981   0.477   3.762  0.4130 -0.0070  0.0893
  657MOL0     C86623   4.117   0.488   3.760 -0.5588  0.6994 -0.6309
  657MOL0     C86624   4.214   0.381   3.754 -0.0069 -0.0924  0.4126
  657MOL0     C86625   4.352   0.416   3.742  0.5221 -0.4980 -0.0460
  657MOL0     C86626   4.394   0.556   3.740  0.8919 -0.1566 -0.3556
  657MOL0     O86627   4.525   0.600   3.742  0.6657  0.0453 -0.7820
  657MOL0     C86628   4.627   0.500   3.747 -0.0446 -0.4740  1.2099
  657MOL0     C86629   4.759   0.567   3.739  0.0881 -0.2532 -0.0059
  657MOL0     C86630   4.792   0.649   3.860  0.0371 -0.1259  0.5632
  657MOL0     C86631   4.931   0.710   3.861  0.4791 -0.4183  0.6995
  657MOL0     C86632   4.968   0.831   3.760  0.3313  0.7339  0.2468
  657MOL0     C86633   4.881   0.949   3.763  0.7574  0.5601  0.4566
  657MOL0     C86634   4.939   1.076   3.690  0.1606 -0.7601 -0.0007
  657MOL0     C86635   4.843   1.185   3.685 -0.3090 -0.2565  0.5061
  657MOL0    Cl86636   4.760   1.233   3.844 -0.1406 -0.2961 -0.2348
  657MOL0     C86637   4.298   0.646   3.755  0.1319  0.0685 -0.3054
  657MOL0     C86638   4.161   0.620   3.759 -0.1891  0.4350  0.0755
  657MOL0     O86639   3.943   0.246   3.815 -0.7367 -1.1699 -0.6604
  657MOL0     C86640   3.713   0.528   3.767 -0.4166 -0.1685 -0.9671
  657MOL0     C86641   3.575   0.554   3.760 -0.1414  0.5689 -0.1609
  657MOL0     N86642   3.351   0.294   3.329 -0.4382 -0.2316  0.3423
  657MOL0     N86643   3.474   0.281   3.308 -0.1465  0.0280  1.0776
  657MOL0     C86644   4.711   0.554   3.362 -0.2023 -0.0433 -0.5738
  657MOL0     C86645   4.843   0.507   3.359 -0.2766  0.2850  0.8450
  657MOL0     C86646   5.256   0.383   3.162 -0.5151 -0.7635  0.6891
  657MOL0     C86647   5.326   0.284   3.090  0.0794  0.0323 -0.2660
  657MOL0     C86648   5.466   0.262   3.102 -0.6819 -0.3059  0.8713
  657MOL0     C86649   5.549   0.353   3.168  0.0793  0.2270 -0.1336
  657MOL0     O86650   5.683   0.362   3.173 -0.1432  0.3586 -0.1672
  657MOL0     C86651   5.756   0.259   3.101 -0.1960  0.2831 -0.1096
  657MOL0     C86652   5.901   0.308   3.095  0.1011 -0.9892  0.5786
  657MOL0     C86653   5.965   0.294   3.226 -0.6850 -0.9880  0.1463
  657MOL0     C86654   6.092   0.383   3.240  0.3741  0.5037  0.5690
  657MOL0     C86655   6.180   0.358   3.352  0.6275 -1.0980  0.0728
  657MOL0     C86656   6.250   0.358   3.452  0.6704  0.0138 -0.1109
  657MOL0     C86657   5.482   0.445   3.250  0.3938 -1.0133  0.0788
  657MOL0     C86658   5.341   0.461   3.247 -1.3777 -0.2885  0.5704
  657MOL0     H86659   4.866   0.481   3.017  0.0275 -0.0050  0.4824
  657MOL0     H86660   4.637   0.526   3.028 -0.9087 -0.3882  1.4001
  657MOL0     H86661   4.427   0.434   3.143  0.3800 -2.4254  3.2812
  657MOL0     H86662   4.338   0.588   3.131  0.4765 -2.8381 -2.9693
  657MOL0     H86663   4.330   0.557   3.391  1.8507  1.1300 -1.0771
  657MOL0     H86664   4.413   0.413   3.387 -1.3190  1.0291  1.9404
  657MOL0     H86665   4.209   0.303   3.253 -0.3614 -2.1789  2.0944
  657MOL0     H86666   4.162   0.473   3.228 -1.4895  0.1402  0.3311
  657MOL0     H86667   4.170   0.289   3.468 -1.8040 -0.7395  0.7382
  657MOL0     H86668   4.140   0.469   3.476 -2.6189 -0.4647  1.6303
  657MOL0     H86669   3.934   0.271   3.457  1.8660 -0.2145 -0.0948
  657MOL0     H86670   3.953   0.306   3.291 -5.0271  0.9658  0.9132
  657MOL0     H86671   3.946   0.555   3.337 -1.6224 -0.2528  0.7891
  657MOL0     H86672   3.881   0.520   3.501 -3.4986 -1.1600  0.3237
  657MOL0     H86673   3.710   0.560   3.347  1.6591  1.5570  0.1313
  657MOL0     H86674   3.769   0.438   3.239  5.5582  0.2756  1.5566
  657MOL0     H86675   3.696   0.354   3.521 -0.1648 -0.7043  0.4872
  657MOL0     H86676   3.716   0.250   3.388  0.1736 -0.2865  1.3781
  657MOL0     H86677   3.469   0.545   3.497 -1.7623  0.0070  0.7238
  657MOL0     H86678   3.130   0.499   3.405  1.6438  3.0146  0.9268
  657MOL0     H86679   3.228   0.528   3.552  0.0529 -0.2147  1.6023
  657MOL0     H86680   3.107   0.257   3.502  0.8007 -0.9719  0.6048
  657MOL0     H86681   3.047   0.402   3.598  2.1581  1.3650  2.2849
  657MOL0     H86682   3.170   0.216   3.725 -0.6905  1.7287  1.2259
  657MOL0     H86683   3.317   0.248   3.638 -0.7620 -3.5693  1.5003
  657MOL0     H86684   3.264   0.326   3.862 -1.0875 -1.1784 -0.9802
  657MOL0     H86685   3.159   0.457   3.804 -0.2880  0.7646  1.5733
  657MOL0     H86686   3.464   0.237   3.794  3.7387 -0.8599  0.6998
  657MOL0     H86687   3.680   0.182   3.809 -0.7358 -0.0158 -0.9209
  657MOL0     H86688   4.185   0.280   3.729  1.5367 -0.3612 -0.4451
  657MOL0     H86689   4.421   0.332   3.740 -1.0049 -1.8156  1.0170
  657MOL0     H86690   4.604   0.443   3.657 -1.6408  1.7365  0.1096
  657MOL0     H86691   4.628   0.434   3.834 -0.2011  0.4747  1.9472
  657MOL0     H86692   4.767   0.638   3.656  0.0815 -1.0265 -0.6807
  657MOL0     H86693   4.839   0.495   3.721  0.7625  0.9927 -2.4240
  657MOL0     H86694   4.790   0.580   3.945 -3.1665  0.5008  1.1510
  657MOL0     H86695   4.721   0.732   3.874 -0.3628  0.1090 -2.1657
  657MOL0     H86696   4.932   0.761   3.958 -0.2046  1.8972 -0.4195
  657MOL0     H86697   5.012   0.637   3.866 -0.8590 -1.9795  0.3705
  657MOL0     H86698   4.987   0.793   3.659 -0.9428  1.4253 -0.2785
  657MOL0     H86699   5.064   0.874   3.788  0.1513  1.5835 -0.3715
  657MOL0     H86700   4.853   0.972   3.866 -0.9235 -0.5553  0.2894
  657MOL0     H86701   4.793   0.917   3.706  0.4327  0.8430  0.8001
  657MOL0     H86702   5.033   1.115   3.730  0.6405  0.2455 -1.9827
  657MOL0     H86703   4.957   1.055   3.584  0.1601  2.0525 -0.6365
  657MOL0     H86704   4.760   1.157   3.619  0.5503 -3.2336  0.5338
  657MOL0     H86705   4.882   1.278   3.644 -0.7599  0.2104  1.1137
  657MOL0     H86706   4.332   0.749   3.764  2.6926 -0.7638  0.2893
  657MOL0     H86707   4.093   0.704   3.776 -0.5147  0.3133 -0.6185
  657MOL0     H86708   3.776   0.615   3.754 -0.5621  0.1119  0.1718
  657MOL0     H86709   3.543   0.658   3.759 -0.8742  0.4327  2.0479
  657MOL0     H86710   4.655   0.569   3.453  0.2813 -2.1386  0.1279
  657MOL0     H86711   4.902   0.490   3.449  2.0476  3.8078  0.1868
  657MOL0     H86712   5.265   0.217   3.030  0.5231 -0.1133 -0.5628
  657MOL0     H86713   5.514   0.185   3.044  0.7985  0.7720  0.5891
  657MOL0     H86714   5.721   0.248   2.998  1.3512 -1.0181 -0.5393
  657MOL0     H86715   5.767   0.169   3.162  2.6906  0.3868 -0.3211
  657MOL0     H86716   5.967   0.258   3.023  2.1571  1.9562  0.2395
  657MOL0     H86717   5.891   0.415   3.077  1.1285 -1.3248 -2.6219
  657MOL0     H86718   5.987   0.187   3.237  1.2559 -0.7390 -0.8035
  657MOL0     H86719   5.891   0.315   3.304 -3.5862  0.3217 -2.7007
  657MOL0     H86720   6.151   0.359   3.151 -1.7638 -1.1621 -0.4777
  657MOL0     H86721   6.073   0.491   3.240  1.4903  0.7204  1.2396
  657MOL0     H86722   6.305   0.353   3.544  3.0140 -1.3513 -1.4654
  657MOL0     H86723   5.528   0.503   3.329 -0.1741  0.1010 -0.3889
  657MOL0     H86724   5.289   0.533   3.310 -3.3290 -0.7423 -0.4529
  658MOL0     O86725  10.361   9.049   6.953 -0.2345  0.5533  0.2455
  658MOL0     C86726  10.318   9.045   6.837  0.5686 -0.2571  0.6581
  658MOL0     O86727  10.198   9.085   6.793 -0.5297  0.4988 -0.2421
  658MOL0     C86728  10.118   9.138   6.893  0.3717 -0.0983 -0.4974
  658MOL0     C86729  10.054   9.059   6.988 -0.5357 -0.3311  0.3093
  658MOL0     C86730   9.979   9.117   7.085 -0.6115  0.1610  0.4124
  658MOL0     C86731   9.971   9.254   7.096  0.6486  0.2719  0.7020
  658MOL0     O86732   9.908   9.318   7.193 -0.1413 -0.2594 -0.8409
  658MOL0     C86733   9.796   9.256   7.262 -0.6337 -0.1375 -0.0073
  658MOL0     C86734   9.767   9.355   7.377 -0.0239  0.1147 -0.2823
  658MOL0     C86735   9.686   9.286   7.492  0.4732 -0.0656  0.6375
  658MOL0     C86736   9.551   9.243   7.439 -0.8006 -1.3915 -0.7372
  658MOL0     C86737   9.474   9.165   7.550 -0.3055  0.2614 -0.1518
  658MOL0     C86738   9.450   9.260   7.671  0.7798  0.1892  0.2271
  658MOL0     C86739   9.318   9.211   7.735 -0.2814  0.0115  0.4212
  658MOL0     C86740   9.272   9.292   7.856 -0.2409 -0.3321  0.2916
  658MOL0     N86741   9.161   9.238   7.930  0.4429 -0.1515 -0.1892
  658MOL0     C86742   9.155   9.169   8.047  0.4331  0.1734 -0.2777
  658MOL0     C86743   9.020   9.155   8.079  0.0134  0.0344  0.0594
  658MOL0     C86744   8.963   9.113   8.215  0.4167  0.3922  0.2426
  658MOL0     C86745   8.809   9.124   8.228  0.1060 -0.7052 -1.2694
  658MOL0     C86746   8.761   9.070   8.367  0.2741 -0.3218 -0.2940
  658MOL0     C86747   8.602   9.065   8.375 -0.3177 -0.3762  0.2587
  658MOL0     O86748   8.572   9.005   8.495  0.2328  0.2154 -0.4285
  658MOL0     C86749   8.442   8.949   8.502  0.0281 -0.0490  0.4201
  658MOL0     C86750   8.330   8.972   8.422  0.1404  0.1348 -0.5610
  658MOL0     C86751   8.211   8.916   8.451 -0.0120  0.6454 -0.0889
  658MOL0     C86752   8.187   8.829   8.553 -1.2718 -0.3011 -0.4594
  658MOL0     C86753   8.059   8.783   8.587  0.3139  0.1855  0.1992
  658MOL0     O86754   8.035   8.774   8.719  0.7324  0.7449 -0.5592
  658MOL0     C86755   7.914   8.762   8.777 -0.3597 -0.2405 -1.1720
  658MOL0     C86756   7.859   8.635   8.784 -0.3188 -0.2156 -0.1183
  658MOL0     C86757   7.726   8.611   8.823 -0.1288 -0.0747  0.5191
  658MOL0     C86758   7.652   8.729   8.855 -0.2845 -0.9802  1.2395
  658MOL0     O86759   7.518   8.741   8.887  0.4125 -0.0791  1.0050
  658MOL0     C86760   7.447   8.616   8.901  0.1932 -0.1866  0.1224
  658MOL0     C86761   7.309   8.632   8.981  0.3319  0.3105 -0.5642
  658MOL0     C86762   7.246   8.778   8.985 -0.6163  1.2296 -0.0252
  658MOL0     C86763   7.125   8.786   9.074  0.4749 -0.1313 -0.3897
  658MOL0     C86764   7.055   8.922   9.070 -1.0093  0.0348 -0.0088
  658MOL0     C86765   7.136   9.050   9.089 -0.2998  0.8496  0.3823
  658MOL0     C86766   7.192   9.057   9.230  0.3484  0.2836 -0.0623
  658MOL0     C86767   7.319   9.138   9.228 -0.2160  0.9862 -0.3412
  658MOL0    Cl86768   7.371   9.191   9.391  0.6157 -0.1104  0.3725
  658MOL0     C86769   7.708   8.852   8.847  0.3253 -0.5904  0.1021
  658MOL0     C86770   7.839   8.870   8.804 -0.2851 -0.1685  0.2410
  658MOL0     O86771   7.970   8.771   8.503 -0.6259 -0.0024 -0.5358
  658MOL0     C86772   8.293   8.817   8.647  0.0155 -0.3348  0.2739
  658MOL0     C86773   8.416   8.882   8.618 -0.0234 -0.0207  0.0445
  658MOL0     N86774   8.950   9.223   7.990  0.7813 -0.2689  0.2026
  658MOL0     N86775   9.031   9.258   7.899  0.1811  0.1617 -0.0207
  658MOL0     C86776  10.041   9.334   7.006 -0.7301  0.3927  1.0041
  658MOL0     C86777  10.116   9.277   6.909 -0.5881 -0.1592 -0.2943
  658MOL0     C86778  10.409   8.969   6.751  0.4866  0.3341 -0.0443
  658MOL0     C86779  10.546   8.978   6.750 -0.0726  0.1748  0.0438
  658MOL0     C86780  10.625   8.894   6.670 -0.4737 -0.0332 -0.1175
  658MOL0     C86781  10.573   8.800   6.579 -0.2476  0.0385 -0.3380
  658MOL0     O86782  10.648   8.713   6.504 -0.3700  0.2239  0.4157
  658MOL0     C86783  10.793   8.727   6.507 -0.2904 -0.4407  0.3890
  658MOL0     C86784  10.861   8.852   6.435  0.2005  0.7054  1.1595
  658MOL0     C86785  10.788   8.876   6.306 -0.0101 -0.1338 -0.5247
  658MOL0     C86786  10.763   9.018   6.259  0.0046 -0.6077  0.2677
  658MOL0     C86787  10.891   9.097   6.251 -0.1540  0.1639 -0.4683
  658MOL0     C86788  10.996   9.149   6.214 -0.3028  0.0819 -0.0583
  658MOL0     C86789  10.430   8.801   6.576  0.1313  0.3155 -0.4115
  658MOL0     C86790  10.345   8.876   6.667  0.8537 -0.7963 -0.2111
  658MOL0     H86791  10.062   8.951   6.980  1.0212 -0.2973  1.1681
  658MOL0     H86792   9.940   9.051   7.163 -4.6028  0.4562 -1.0909
  658MOL0     H86793   9.824   9.158   7.302  3.2064  0.7618 -0.1105
  658MOL0     H86794   9.715   9.236   7.192  0.3625  4.1599 -2.7716
  658MOL0     H86795   9.718   9.448   7.347 -1.8832 -0.9696 -0.7303
  658MOL0     H86796   9.860   9.398   7.416 -1.8907  1.9643  2.5530
  658MOL0     H86797   9.678   9.363   7.570 -0.5782  1.0130 -0.5053
  658MOL0     H86798   9.736   9.199   7.536  0.3081  0.9465  2.9720
  658MOL0     H86799   9.477   9.312   7.397 -0.6077 -0.8436 -0.1774
  658MOL0     H86800   9.566   9.172   7.357 -1.1259 -1.9016 -0.3627
  658MOL0     H86801   9.530   9.076   7.580 -2.9894 -1.4328  0.1955
  658MOL0     H86802   9.381   9.127   7.506  0.1479 -2.4470  1.0723
  658MOL0     H86803   9.439   9.364   7.638  0.5015  1.4093  3.7646
  658MOL0     H86804   9.538   9.258   7.737  0.7044 -1.6853  0.3075
  658MOL0     H86805   9.240   9.222   7.659 -2.8369 -0.1867  2.8239
  658MOL0     H86806   9.331   9.105   7.759  4.8427 -0.1655 -1.8106
  658MOL0     H86807   9.238   9.394   7.833 -2.6325 -1.1086  0.1359
  658MOL0     H86808   9.350   9.307   7.930  0.2287  2.7619 -0.6673
  658MOL0     H86809   9.237   9.120   8.100 -0.2522 -0.6408  0.0526
  658MOL0     H86810   9.001   9.184   8.290  2.3680  0.9609 -1.2246
  658MOL0     H86811   8.986   9.009   8.239 -2.0023 -0.4245 -0.7119
  658MOL0     H86812   8.763   9.063   8.150 -0.0510  0.7157 -2.3193
  658MOL0     H86813   8.785   9.230   8.216 -0.7323 -0.8741 -1.1935
  658MOL0     H86814   8.809   8.973   8.381 -0.2511 -0.4546  0.6727
  658MOL0     H86815   8.789   9.134   8.451  0.7147 -1.9879  0.8892
  658MOL0     H86816   8.564   8.994   8.300 -2.2068 -2.6300  3.1146
  658MOL0     H86817   8.542   9.156   8.365 -2.6815 -1.3024  3.9144
  658MOL0     H86818   8.346   9.030   8.332  1.3025 -1.3307 -1.3368
  658MOL0     H86819   8.130   8.932   8.380 -1.3150  0.6383  1.3218
  658MOL0     H86820   7.925   8.553   8.756  1.6615  0.9765  0.8565
  658MOL0     H86821   7.679   8.514   8.834  1.3304 -0.6532  2.3119
  658MOL0     H86822   7.513   8.542   8.948  1.5737  0.3309 -0.9156
  658MOL0     H86823   7.421   8.580   8.801  0.9848  1.8690 -0.8654
  658MOL0     H86824   7.334   8.602   9.083  2.8780 -0.6862 -1.4144
  658MOL0     H86825   7.242   8.555   8.942  2.2687 -0.6573 -2.1181
  658MOL0     H86826   7.220   8.804   8.882 -3.8484 -0.0057  0.3528
  658MOL0     H86827   7.322   8.851   9.013  0.2175  0.7179 -0.8912
  658MOL0     H86828   7.056   8.710   9.036  2.0481 -1.9260  0.1974
  658MOL0     H86829   7.150   8.753   9.175 -1.0318 -1.0225 -0.2671
  658MOL0     H86830   6.969   8.916   9.136 -1.3437  0.7954 -0.3569
  658MOL0     H86831   7.019   8.925   8.966  1.0227 -0.0682 -0.7657
  658MOL0     H86832   7.068   9.135   9.079 -0.3429  1.1985  2.8882
  658MOL0     H86833   7.216   9.055   9.014  0.5366  1.7122  1.2866
  658MOL0     H86834   7.121   9.122   9.283  0.7647  1.3919 -0.8214
  658MOL0     H86835   7.208   8.962   9.282 -1.3672  0.3350  0.6499
  658MOL0     H86836   7.318   9.222   9.158 -2.8399  3.3250  2.2086
  658MOL0     H86837   7.408   9.081   9.201  0.7296  0.9975  2.4309
  658MOL0     H86838   7.640   8.935   8.860 -1.3284 -1.3640 -2.8372
  658MOL0     H86839   7.877   8.972   8.811  0.2616 -0.4526  1.6619
  658MOL0     H86840   8.278   8.777   8.747 -0.2287  0.6777  0.6588
  658MOL0     H86841   8.498   8.855   8.683  1.4029 -2.2560 -2.4511
  658MOL0     H86842  10.026   9.441   7.006 -1.0185  0.3596  0.1087
  658MOL0     H86843  10.169   9.342   6.839 -1.4031  1.0753  0.2043
  658MOL0     H86844  10.595   9.048   6.817 -0.3361 -1.1237  1.6425
  658MOL0     H86845  10.731   8.905   6.691 -1.0874  0.1917  3.5362
  658MOL0     H86846  10.833   8.632   6.470  1.9826 -0.5401  2.8397
  658MOL0     H86847  10.829   8.729   6.610 -2.5890  0.8996  1.2391
  658MOL0     H86848  10.852   8.947   6.488  1.1192  2.6099 -1.8200
  658MOL0     H86849  10.965   8.830   6.409  0.1774  1.6099  0.2245
  658MOL0     H86850  10.687   8.833   6.313  0.4901 -1.7249 -2.3843
  658MOL0     H86851  10.839   8.823   6.226 -0.7565 -0.9799 -0.4645
  658MOL0     H86852  10.728   9.013   6.155  2.5493  0.4423 -0.7085
  658MOL0     H86853  10.689   9.076   6.315  2.1150  3.0582 -0.4348
  658MOL0     H86854  11.091   9.193   6.190 -0.0771 -0.4680 -0.1849
  658MOL0     H86855  10.376   8.739   6.505 -0.0672  0.0536 -0.0366
  658MOL0     H86856  10.237   8.870   6.668  0.6564  0.7786 -3.0916
  659MOL0     O86857   5.125   0.145   7.092  0.2812 -0.5319  0.6008
  659MOL0     C86858   5.210   0.231   7.107 -0.6586  0.1915  0.1162
  659MOL0     O86859   5.180   0.360   7.092  0.2227 -0.0305 -0.0232
  659MOL0     C86860   5.055   0.410   7.097  0.1359  1.1098  0.2778
  659MOL0     C86861   4.962   0.362   7.195 -0.0065  0.0654  0.6991
  659MOL0     C86862   4.833   0.421   7.208  0.3511 -0.2002  0.4611
  659MOL0     C86863   4.787   0.522   7.114 -0.1835 -0.3185  0.1102
  659MOL0     O86864   4.666   0.590   7.120 -0.2088  0.1982 -0.0248
  659MOL0     C86865   4.563   0.536   7.205  0.3790 -0.2887 -0.4363
  659MOL0     C86866   4.437   0.596   7.154 -0.3253  0.0595 -0.3655
  659MOL0     C86867   4.304   0.517   7.181  0.3276  0.4829 -0.2694
  659MOL0     C86868   4.175   0.573   7.127 -0.1292 -0.3524  0.4185
  659MOL0     C86869   4.051   0.476   7.152  0.2704  0.3107 -0.0680
  659MOL0     C86870   3.912   0.527   7.111 -0.2596  0.1758  0.0672
  659MOL0     C86871   3.807   0.438   7.169 -0.7062 -0.5559 -1.2744
  659MOL0     C86872   3.668   0.498   7.124 -0.4611 -0.7419  0.2941
  659MOL0     N86873   3.631   0.471   6.989  0.1812 -0.0171  0.4979
  659MOL0     C86874   3.618   0.352   6.935  0.2774  0.2530 -0.0766
  659MOL0     C86875   3.610   0.352   6.802  0.4266  0.2038 -0.0733
  659MOL0     C86876   3.598   0.234   6.710 -1.1346 -0.4484 -0.2519
  659MOL0     C86877   3.725   0.232   6.624 -0.4611  1.0391  0.8678
  659MOL0     C86878   3.748   0.099   6.544  0.0563  0.1036  0.4902
  659MOL0     C86879   3.865   0.100   6.446 -0.5952 -0.7993  0.5221
  659MOL0     O86880   3.988   0.130   6.511  0.5372  0.5671  0.0516
  659MOL0     C86881   4.098   0.143   6.427  0.4969  0.8267 -0.6584
  659MOL0     C86882   4.110   0.081   6.305 -0.7018 -0.1028 -0.0597
  659MOL0     C86883   4.232   0.086   6.232 -0.5560 -0.4218  0.1921
  659MOL0     C86884   4.338   0.144   6.289  1.2189 -0.2805  0.4800
  659MOL0     C86885   4.464   0.150   6.213 -0.3654  0.4722 -0.6933
  659MOL0     O86886   4.572   0.205   6.287  0.0384 -0.1560 -0.2737
  659MOL0     C86887   4.692   0.222   6.229  0.2732 -0.1362 -0.2277
  659MOL0     C86888   4.798   0.162   6.286 -0.6566 -0.0812 -0.5255
  659MOL0     C86889   4.931   0.190   6.249 -0.5833 -0.2735  1.4333
  659MOL0     C86890   4.956   0.285   6.147 -0.3598 -0.0292  0.9223
  659MOL0     O86891   5.084   0.318   6.099  0.6345 -0.3583 -0.9842
  659MOL0     C86892   5.206   0.272   6.161 -0.7735 -0.4245 -0.1307
  659MOL0     C86893   5.321   0.335   6.087 -0.3072  0.1121 -0.1347
  659MOL0     C86894   5.326   0.258   5.951 -0.5552  0.3189 -0.2963
  659MOL0     C86895   5.442   0.309   5.868  0.3638  0.8149 -0.3120
  659MOL0     C86896   5.435   0.231   5.728 -0.3955  0.4740  0.2146
  659MOL0     C86897   5.542   0.291   5.627 -0.0621 -0.4363  0.4677
  659MOL0     C86898   5.526   0.240   5.484  0.2562  0.3540  0.5350
  659MOL0     C86899   5.388   0.267   5.426 -0.5792 -0.1056 -0.1245
  659MOL0    Cl86900   5.335   0.436   5.444  0.3050 -0.1731  0.7309
  659MOL0     C86901   4.847   0.332   6.077  0.0885  0.1830  0.5105
  659MOL0     C86902   4.716   0.305   6.121 -0.4370 -0.2751  0.4066
  659MOL0     O86903   4.473   0.123   6.096  0.2123 -0.5188  0.1022
  659MOL0     C86904   4.328   0.202   6.415 -0.4586  0.2879  0.0185
  659MOL0     C86905   4.206   0.198   6.487 -0.2826 -1.2465 -0.1079
  659MOL0     N86906   3.631   0.487   6.763 -0.2230 -0.1131 -0.3251
  659MOL0     N86907   3.636   0.558   6.880  0.8128  0.0202  1.1325
  659MOL0     C86908   4.882   0.562   7.014  0.0021  0.1849 -0.1288
  659MOL0     C86909   5.005   0.503   7.004 -0.4538 -0.3088 -0.3302
  659MOL0     C86910   5.349   0.184   7.131 -0.1977 -0.0624 -0.0919
  659MOL0     C86911   5.445   0.253   7.211  0.2955  0.3238  0.5168
  659MOL0     C86912   5.567   0.191   7.238 -0.2875  0.2981  0.0223
  659MOL0     C86913   5.595   0.062   7.191  0.3249  0.7320  0.1034
  659MOL0     O86914   5.714   0.015   7.224  0.2670  1.2009  0.2983
  659MOL0     C86915   5.784  -0.079   7.150  0.2529 -0.0496  0.4032
  659MOL0     C86916   5.935  -0.071   7.180  0.3263  0.0329 -0.6645
  659MOL0     C86917   5.982  -0.093   7.328 -0.2860  0.3120  0.2156
  659MOL0     C86918   6.129  -0.126   7.324  0.1072  0.1760 -0.0445
  659MOL0     C86919   6.154  -0.270   7.289  0.4805 -0.1651  0.5648
  659MOL0     C86920   6.154  -0.388   7.251 -0.2856  0.0900  0.0986
  659MOL0     C86921   5.493  -0.004   7.106  0.9033  0.3626 -0.3536
  659MOL0     C86922   5.374   0.054   7.084  0.3819 -0.2217  0.7726
  659MOL0     H86923   4.997   0.285   7.264 -1.1916 -1.1006  0.0492
  659MOL0     H86924   4.774   0.386   7.292 -1.1902  2.7712  0.7682
  659MOL0     H86925   4.574   0.555   7.313  0.9779  0.7927 -0.6749
  659MOL0     H86926   4.557   0.428   7.191  0.1574  0.0261 -3.1619
  659MOL0     H86927   4.441   0.600   7.045 -1.7504  0.7979 -0.4054
  659MOL0     H86928   4.427   0.695   7.198 -3.5751  1.6424 -4.0611
  659MOL0     H86929   4.290   0.520   7.290  0.1210  2.2528 -0.3175
  659MOL0     H86930   4.324   0.416   7.145  1.9116  0.4739  0.5592
  659MOL0     H86931   4.151   0.676   7.156 -2.5351 -0.4269 -0.9748
  659MOL0     H86932   4.194   0.573   7.019  1.4319 -2.6089  0.6346
  659MOL0     H86933   4.031   0.472   7.260 -1.3449 -0.4199 -0.3503
  659MOL0     H86934   4.076   0.376   7.114  1.4838  0.8054 -0.6089
  659MOL0     H86935   3.894   0.519   7.003 -0.5682 -3.1688  0.2557
  659MOL0     H86936   3.898   0.624   7.158 -0.7510 -1.2783  3.1362
  659MOL0     H86937   3.826   0.336   7.134  1.1787 -0.1298 -1.6070
  659MOL0     H86938   3.811   0.438   7.278  0.9934  1.4906 -1.2701
  659MOL0     H86939   3.655   0.605   7.146  0.5652 -0.7703  1.1138
  659MOL0     H86940   3.586   0.460   7.186 -0.4087 -1.4978 -0.0936
  659MOL0     H86941   3.605   0.263   6.996  1.8482  0.3763  0.4726
  659MOL0     H86942   3.514   0.250   6.641 -0.1084  3.6519 -0.8298
  659MOL0     H86943   3.589   0.136   6.757  0.2769 -0.2482  0.4878
  659MOL0     H86944   3.816   0.249   6.683 -0.4464 -0.2256  1.2339
  659MOL0     H86945   3.709   0.312   6.551 -1.3856 -0.0759 -0.1944
  659MOL0     H86946   3.767   0.020   6.616 -0.5833 -2.7364 -2.2316
  659MOL0     H86947   3.656   0.079   6.489 -0.3101  3.0087 -0.1053
  659MOL0     H86948   3.848   0.170   6.364 -2.3033 -0.7679  0.8611
  659MOL0     H86949   3.870   0.000   6.402 -0.6172 -1.0449  1.0734
  659MOL0     H86950   4.028   0.032   6.253 -0.0212 -1.2079 -0.1289
  659MOL0     H86951   4.240   0.052   6.129 -2.2668 -1.6990  0.4452
  659MOL0     H86952   4.790   0.085   6.362  2.9590  0.8105  0.9696
  659MOL0     H86953   5.013   0.141   6.300 -2.0936 -1.8406  2.4848
  659MOL0     H86954   5.218   0.164   6.155  3.3845 -0.0929 -0.4656
  659MOL0     H86955   5.228   0.299   6.265  2.7773  1.3708 -1.1687
  659MOL0     H86956   5.413   0.337   6.148  0.4329  1.3098 -1.2369
  659MOL0     H86957   5.297   0.437   6.056  0.3768  0.5209  0.6307
  659MOL0     H86958   5.237   0.266   5.888  0.1028  1.6197 -1.0892
  659MOL0     H86959   5.344   0.151   5.966  0.1120  0.6280  1.2780
  659MOL0     H86960   5.425   0.416   5.851  0.0983  0.4357 -2.7786
  659MOL0     H86961   5.540   0.294   5.914 -1.9415  0.2153  5.1177
  659MOL0     H86962   5.337   0.234   5.679  0.3384 -0.7117 -1.4119
  659MOL0     H86963   5.465   0.128   5.749  1.8260  0.3910 -2.8262
  659MOL0     H86964   5.641   0.264   5.665  0.1387 -1.3091 -0.6210
  659MOL0     H86965   5.533   0.400   5.621  0.3342 -0.4728 -1.5260
  659MOL0     H86966   5.597   0.291   5.417  0.1893 -1.3567 -0.9163
  659MOL0     H86967   5.538   0.132   5.477  1.1015  0.4068  1.0749
  659MOL0     H86968   5.315   0.204   5.478 -1.2231  0.0742 -0.7857
  659MOL0     H86969   5.404   0.247   5.319  0.2022  0.2770 -0.0808
  659MOL0     H86970   4.856   0.388   5.985 -1.4206  0.3951  0.4618
  659MOL0     H86971   4.630   0.345   6.067  1.1481  0.2084 -1.8820
  659MOL0     H86972   4.412   0.257   6.456 -1.4141  2.2138 -0.5077
  659MOL0     H86973   4.215   0.248   6.583 -1.5162 -0.6473 -0.2816
  659MOL0     H86974   4.862   0.647   6.949  1.7193  1.5647  1.0470
  659MOL0     H86975   5.075   0.542   6.931 -0.5538  1.4330  0.4566
  659MOL0     H86976   5.416   0.351   7.247  1.2472  0.8734 -0.1954
  659MOL0     H86977   5.639   0.243   7.300 -0.2824 -0.3845  0.6150
  659MOL0     H86978   5.770  -0.059   7.043 -0.8280 -0.3581  0.4710
  659MOL0     H86979   5.752  -0.180   7.178  1.6023 -0.4605  0.5413
  659MOL0     H86980   5.980  -0.152   7.122 -0.9864 -1.1010 -0.1516
  659MOL0     H86981   5.981   0.022   7.146  0.1095 -0.5204 -2.5437
  659MOL0     H86982   5.928  -0.174   7.378  0.0793 -1.2807 -1.8563
  659MOL0     H86983   5.959  -0.000   7.382 -5.1868 -1.3987  1.6056
  659MOL0     H86984   6.177  -0.057   7.254  0.0019 -0.1076 -0.3962
  659MOL0     H86985   6.173  -0.101   7.422 -1.5026  2.2265  0.2148
  659MOL0     H86986   6.155  -0.481   7.198 -1.9860  1.8737 -3.4013
  659MOL0     H86987   5.523  -0.098   7.061 -1.9335 -1.3713  1.0968
  659MOL0     H86988   5.299   0.005   7.022  0.8820 -0.1793  0.1282
  660MOL0     O86989   6.740   5.716   7.672 -0.2596  0.1892 -0.2506
  660MOL0     C86990   6.767   5.803   7.591  0.3844  0.2939 -0.0781
  660MOL0     O86991   6.887   5.862   7.579  0.0606  0.0280 -0.2684
  660MOL0     C86992   6.998   5.825   7.658 -0.4335 -0.6974  0.7825
  660MOL0     C86993   7.046   5.694   7.667 -0.3687  0.0901 -0.0988
  660MOL0     C86994   7.164   5.668   7.737 -0.4316 -0.6086 -0.6257
  660MOL0     C86995   7.246   5.771   7.787 -0.2394 -0.0643  0.2596
  660MOL0     O86996   7.369   5.743   7.841 -0.0815  0.3801 -0.3000
  660MOL0     C86997   7.480   5.806   7.774  0.2817 -0.1483 -0.2518
  660MOL0     C86998   7.584   5.698   7.749  0.0412 -0.0108 -0.2616
  660MOL0     C86999   7.696   5.686   7.857  0.1203  0.5343  0.6074
  660MOL0     C87000   7.644   5.676   8.000  0.0748 -1.5208 -0.1434
  660MOL0     C87001   7.554   5.558   8.040 -0.4166 -0.4577  0.7804
  660MOL0     C87002   7.460   5.603   8.151  0.0650  0.6122 -0.5134
  660MOL0     C87003   7.355   5.505   8.193  0.3825  0.6366  0.1419
  660MOL0     C87004   7.278   5.563   8.312 -0.4981 -0.2656 -0.5253
  660MOL0     N87005   7.237   5.452   8.397  0.1727  0.2972  0.4218
  660MOL0     C87006   7.155   5.349   8.359  0.8676 -1.5644  0.0966
  660MOL0     C87007   7.118   5.289   8.478  0.1065 -0.2253 -0.5666
  660MOL0     C87008   7.033   5.174   8.518 -0.3799 -0.0405  0.1002
  660MOL0     C87009   6.900   5.217   8.578  0.5132 -0.4247  0.8994
  660MOL0     C87010   6.801   5.245   8.468  0.3525  0.8717  0.0179
  660MOL0     C87011   6.664   5.272   8.518 -0.3156  0.5894 -0.1728
  660MOL0     O87012   6.614   5.164   8.597 -1.1097  0.0050  0.5891
  660MOL0     C87013   6.497   5.182   8.659 -0.2773 -0.3351  0.3033
  660MOL0     C87014   6.424   5.299   8.650 -0.0158 -0.4499  0.1926
  660MOL0     C87015   6.297   5.313   8.708 -0.6012  0.2446 -0.6772
  660MOL0     C87016   6.230   5.194   8.748  0.6519 -0.6376  0.2623
  660MOL0     C87017   6.089   5.189   8.787  0.1568  0.5800 -0.2704
  660MOL0     O87018   6.031   5.301   8.831  0.4621  0.2284  0.1449
  660MOL0     C87019   5.893   5.288   8.863 -0.2692 -0.1306  0.6948
  660MOL0     C87020   5.800   5.344   8.771  0.2971  0.3226  0.6517
  660MOL0     C87021   5.660   5.335   8.786 -0.0027 -0.6994 -0.2746
  660MOL0     C87022   5.622   5.273   8.906  0.7811 -0.2503  0.6735
  660MOL0     O87023   5.489   5.248   8.932  0.0902  0.1552  0.2667
  660MOL0     C87024   5.396   5.253   8.826  0.1541 -0.1987  0.8902
  660MOL0     C87025   5.254   5.225   8.876  0.4904  0.1840  0.1415
  660MOL0     C87026   5.146   5.205   8.764  0.6852 -0.0007 -0.6693
  660MOL0     C87027   5.019   5.144   8.831  0.3782 -0.4959 -0.2462
  660MOL0     C87028   4.942   5.058   8.727 -0.4969  0.0181 -0.6081
  660MOL0     C87029   4.811   5.012   8.799 -0.4747  0.1284 -0.3318
  660MOL0     C87030   4.708   4.951   8.694 -0.4440 -0.4835 -0.4924
  660MOL0     C87031   4.634   5.061   8.632  0.0859  0.2768 -0.2688
  660MOL0    Cl87032   4.497   4.998   8.538  0.0741 -0.4955  0.2030
  660MOL0     C87033   5.707   5.226   9.005 -0.2366  0.2942  0.6593
  660MOL0     C87034   5.845   5.225   8.980 -0.2979  0.4289 -0.0790
  660MOL0     O87035   6.033   5.077   8.790 -0.6468  0.4080 -0.4210
  660MOL0     C87036   6.298   5.071   8.749 -0.7256  0.7480 -0.1579
  660MOL0     C87037   6.438   5.067   8.708  0.8246  0.4176 -0.4661
  660MOL0     N87038   7.185   5.355   8.578  1.1617  0.1262 -0.9958
  660MOL0     N87039   7.253   5.449   8.528 -0.4138 -0.0012  0.2964
  660MOL0     C87040   7.198   5.901   7.759  0.4861 -0.0776  0.0480
  660MOL0     C87041   7.077   5.928   7.694  0.8037  0.2114 -0.5420
  660MOL0     C87042   6.659   5.854   7.506  0.2050  0.2816  0.0394
  660MOL0     C87043   6.689   5.953   7.407  0.7496  0.1516  0.0409
  660MOL0     C87044   6.585   6.001   7.321 -0.9289  0.6537  0.0853
  660MOL0     C87045   6.454   5.961   7.348 -0.1099  0.0870  0.2875
  660MOL0     O87046   6.349   5.998   7.265  0.7620 -0.6653 -0.1451
  660MOL0     C87047   6.342   6.143   7.258 -0.1279 -0.6159 -0.0104
  660MOL0     C87048   6.235   6.209   7.348 -0.0500 -1.2145  0.4858
  660MOL0     C87049   6.270   6.243   7.498 -0.2481 -0.8558 -0.0660
  660MOL0     C87050   6.258   6.397   7.528  0.8519 -0.1043  0.5766
  660MOL0     C87051   6.371   6.473   7.481 -0.1659 -0.0997  0.8013
  660MOL0     C87052   6.462   6.540   7.434  0.0379  0.9766 -0.1231
  660MOL0     C87053   6.421   5.884   7.451  0.2891  0.7538 -0.0627
  660MOL0     C87054   6.520   5.833   7.528  0.6052  1.0170  0.2730
  660MOL0     H87055   6.992   5.609   7.626 -0.3469 -1.0612  2.0737
  660MOL0     H87056   7.206   5.568   7.740  4.3368  1.1019  0.2246
  660MOL0     H87057   7.515   5.896   7.824 -2.5595  0.1922  1.3718
  660MOL0     H87058   7.455   5.840   7.674 -1.9644  2.2747  1.0082
  660MOL0     H87059   7.649   5.730   7.666 -0.0527  0.2319 -0.2427
  660MOL0     H87060   7.544   5.599   7.725  3.0466 -1.5487  0.5649
  660MOL0     H87061   7.772   5.764   7.863  2.9372 -2.1382  2.5189
  660MOL0     H87062   7.758   5.600   7.834  4.0902  3.3812 -0.3921
  660MOL0     H87063   7.727   5.680   8.071  0.0096 -2.0065 -0.0317
  660MOL0     H87064   7.577   5.760   8.017 -0.3382 -1.7759 -0.4905
  660MOL0     H87065   7.611   5.468   8.062 -1.2941 -0.5196  3.1203
  660MOL0     H87066   7.492   5.536   7.953  3.1665  1.6955 -2.6482
  660MOL0     H87067   7.415   5.697   8.118  0.5946  1.1692  0.3203
  660MOL0     H87068   7.520   5.633   8.237 -0.1794 -1.1685  0.3336
  660MOL0     H87069   7.277   5.481   8.121 -1.4603  0.9201  1.9487
  660MOL0     H87070   7.404   5.411   8.220 -1.1363  0.2448  1.6994
  660MOL0     H87071   7.187   5.608   8.270  1.7310  2.7513 -2.5670
  660MOL0     H87072   7.338   5.637   8.365  0.5863 -1.5763  0.1470
  660MOL0     H87073   7.124   5.328   8.257  1.0131 -0.2253 -0.2391
  660MOL0     H87074   7.088   5.130   8.602 -0.7710 -0.6244  0.0540
  660MOL0     H87075   7.021   5.097   8.441 -1.3062 -0.0181  0.2102
  660MOL0     H87076   6.917   5.296   8.652  0.0113  0.2068  0.3594
  660MOL0     H87077   6.860   5.133   8.635  1.1071 -1.7568 -0.5622
  660MOL0     H87078   6.829   5.337   8.417  1.4343 -0.7979 -2.6289
  660MOL0     H87079   6.799   5.157   8.403 -0.4265  0.5801  0.4103
  660MOL0     H87080   6.592   5.295   8.439 -0.1068  0.7208 -0.3243
  660MOL0     H87081   6.670   5.362   8.580 -0.5637 -0.1035  0.8840
  660MOL0     H87082   6.452   5.390   8.598  0.6585 -0.3181  0.7778
  660MOL0     H87083   6.235   5.401   8.706 -1.9441 -0.6018  1.3481
  660MOL0     H87084   5.838   5.393   8.682 -1.9691 -0.2182 -0.7016
  660MOL0     H87085   5.584   5.371   8.717 -1.2754 -1.4315  0.6929
  660MOL0     H87086   5.410   5.169   8.757  2.5417  0.8380  0.0010
  660MOL0     H87087   5.393   5.346   8.768 -2.3685  0.4292  1.9090
  660MOL0     H87088   5.238   5.306   8.948 -0.9636  0.2351 -0.2046
  660MOL0     H87089   5.261   5.134   8.935 -0.8537  1.9500  3.2701
  660MOL0     H87090   5.181   5.137   8.686  0.2379 -0.5390 -0.4089
  660MOL0     H87091   5.120   5.303   8.724  0.2822 -0.3504 -1.2653
  660MOL0     H87092   5.047   5.083   8.917  1.8395 -0.0012 -0.3435
  660MOL0     H87093   4.962   5.228   8.873  0.3342 -1.7292  2.3812
  660MOL0     H87094   4.996   4.966   8.703 -1.3273 -1.5631  2.9184
  660MOL0     H87095   4.919   5.115   8.637  1.7580  2.2801  0.0950
  660MOL0     H87096   4.763   5.092   8.856 -0.5501 -1.9405  2.7211
  660MOL0     H87097   4.832   4.943   8.882 -0.9714  0.6692  0.2474
  660MOL0     H87098   4.757   4.904   8.609 -2.6676  0.2873 -2.2952
  660MOL0     H87099   4.650   4.873   8.743 -2.6441  0.8597 -0.8195
  660MOL0     H87100   4.704   5.122   8.574  1.3318 -1.6004 -0.7986
  660MOL0     H87101   4.597   5.124   8.713 -0.0149 -2.6844  2.1363
  660MOL0     H87102   5.678   5.182   9.100 -1.8938 -0.7423 -0.2756
  660MOL0     H87103   5.919   5.185   9.049  2.0257 -0.9174 -3.1013
  660MOL0     H87104   6.257   4.974   8.776 -1.1609  0.9291 -0.1675
  660MOL0     H87105   6.492   4.974   8.725 -1.3680 -0.3901  2.8922
  660MOL0     H87106   7.256   5.991   7.776 -1.2458  1.2339 -0.6047
  660MOL0     H87107   7.051   6.025   7.654 -1.8200 -0.0915  0.1791
  660MOL0     H87108   6.790   5.990   7.391 -0.1411  2.3574 -0.9882
  660MOL0     H87109   6.600   6.066   7.235 -2.3219  0.2161 -0.5264
  660MOL0     H87110   6.321   6.175   7.156 -1.1211 -0.3652  0.2568
  660MOL0     H87111   6.435   6.184   7.299 -0.7375  2.1169 -1.1272
  660MOL0     H87112   6.215   6.300   7.293 -0.5627 -0.0385  2.5002
  660MOL0     H87113   6.144   6.149   7.339  0.6545 -2.2099 -0.2428
  660MOL0     H87114   6.370   6.203   7.516 -0.2342  0.3258  2.8985
  660MOL0     H87115   6.200   6.180   7.554 -0.1631 -2.2529 -1.4492
  660MOL0     H87116   6.168   6.435   7.479  0.0748 -3.7181 -1.1685
  660MOL0     H87117   6.254   6.400   7.637 -0.1617  0.3551  0.5316
  660MOL0     H87118   6.552   6.581   7.392 -1.8892  0.9744 -4.9428
  660MOL0     H87119   6.321   5.851   7.478  1.8427 -2.0677  3.0016
  660MOL0     H87120   6.468   5.778   7.606  0.0339  3.1753  1.5155
  661MOL0     O87121   3.602   7.880   4.663 -0.3567  0.1411 -0.2138
  661MOL0     C87122   3.637   7.765   4.627 -0.0609 -0.2652  0.0388
  661MOL0     O87123   3.566   7.651   4.643 -0.3232  0.0451  0.6019
  661MOL0     C87124   3.438   7.654   4.692 -0.0214 -0.2039  0.0584
  661MOL0     C87125   3.337   7.736   4.645  0.1586 -0.2006  0.7818
  661MOL0     C87126   3.204   7.714   4.676  0.2038  0.0931  0.3767
  661MOL0     C87127   3.162   7.607   4.758  0.5129 -0.1605 -0.0100
  661MOL0     O87128   3.030   7.584   4.782  0.4662 -0.1054 -0.1095
  661MOL0     C87129   2.971   7.470   4.714 -0.1946 -0.1937  0.2508
  661MOL0     C87130   2.834   7.459   4.768 -0.2217 -0.0235  0.6232
  661MOL0     C87131   2.750   7.360   4.683 -0.2244 -0.1322 -0.7192
  661MOL0     C87132   2.606   7.326   4.738 -0.2728  0.0492  0.0314
  661MOL0     C87133   2.536   7.208   4.669 -0.0967 -0.3592  0.2658
  661MOL0     C87134   2.384   7.185   4.671 -0.4131 -0.3084 -1.2740
  661MOL0     C87135   2.332   7.085   4.563 -0.0446 -0.1824 -0.3263
  661MOL0     C87136   2.180   7.068   4.562  0.2020  0.7212 -0.0313
  661MOL0     N87137   2.118   7.035   4.432 -0.2878  0.4272  0.1202
  661MOL0     C87138   2.124   6.915   4.379 -0.5347  0.6611  0.2583
  661MOL0     C87139   2.030   6.923   4.288 -0.6590  0.7206 -0.0054
  661MOL0     C87140   1.987   6.813   4.192  0.4015  0.8581  0.0899
  661MOL0     C87141   1.838   6.836   4.129 -0.2720  0.8252 -0.2175
  661MOL0     C87142   1.819   6.720   4.029  0.9348 -0.7224  0.1336
  661MOL0     C87143   1.680   6.714   3.978  0.5091  0.0027 -0.7565
  661MOL0     O87144   1.675   6.606   3.875 -0.0155 -0.3894 -0.9336
  661MOL0     C87145   1.550   6.567   3.824  0.2521  1.3402 -0.8404
  661MOL0     C87146   1.428   6.612   3.876  0.3627  0.1612 -0.1990
  661MOL0     C87147   1.313   6.582   3.799 -0.0984 -0.2366 -0.2975
  661MOL0     C87148   1.323   6.506   3.685  0.3330 -0.5506 -0.0989
  661MOL0     C87149   1.199   6.476   3.605 -0.3023  0.2672 -1.2525
  661MOL0     O87150   1.087   6.543   3.638  0.6391  0.8751  0.0872
  661MOL0     C87151   0.977   6.530   3.565 -0.1537 -0.3350  0.8052
  661MOL0     C87152   0.978   6.525   3.426 -0.3034  0.7533 -0.4089
  661MOL0     C87153   0.859   6.505   3.349 -0.1699 -0.1782  0.1041
  661MOL0     C87154   0.734   6.495   3.421  0.2648 -0.2868 -0.4363
  661MOL0     O87155   0.616   6.466   3.362  1.1006 -0.0594  0.2648
  661MOL0     C87156   0.600   6.452   3.221  0.1398  0.6999 -0.6936
  661MOL0     C87157   0.587   6.585   3.156  1.1386  0.5332  0.1291
  661MOL0     C87158   0.487   6.664   3.226 -0.5154  0.3141  0.0533
  661MOL0     C87159   0.438   6.789   3.148  0.3519  0.2771 -0.7672
  661MOL0     C87160   0.353   6.893   3.231  0.3501  0.8911 -0.2051
  661MOL0     C87161   0.343   7.031   3.152 -0.0548  0.1696 -0.5721
  661MOL0     C87162   0.229   7.111   3.216  0.9518  0.4240 -0.6907
  661MOL0     C87163   0.235   7.266   3.247  0.0632 -0.1458 -0.1712
  661MOL0    Cl87164   0.251   7.354   3.094 -0.2398 -0.0694 -0.1821
  661MOL0     C87165   0.734   6.506   3.557  0.3044 -0.0396 -0.0947
  661MOL0     C87166   0.850   6.521   3.627  0.1895 -0.6239 -0.0230
  661MOL0     O87167   1.210   6.384   3.529  0.0326  0.2755 -0.1895
  661MOL0     C87168   1.443   6.450   3.647  0.1638 -0.1741  0.1097
  661MOL0     C87169   1.558   6.485   3.713  0.4216  0.1000 -0.2442
  661MOL0     N87170   1.968   7.053   4.290  0.1880 -0.3797 -0.6774
  661MOL0     N87171   2.028   7.118   4.382 -1.0205 -0.5679  0.4452
  661MOL0     C87172   3.261   7.532   4.820 -0.7613 -0.2424 -0.1932
  661MOL0     C87173   3.397   7.549   4.780  0.1803 -0.4685 -0.0815
  661MOL0     C87174   3.770   7.757   4.560 -0.0553 -0.9286 -0.1250
  661MOL0     C87175   3.862   7.866   4.559  0.4110 -0.2747 -0.3020
  661MOL0     C87176   3.985   7.867   4.497  0.4045  0.6733  0.1473
  661MOL0     C87177   4.016   7.759   4.419  0.2514 -0.4819  0.1221
  661MOL0     O87178   4.130   7.754   4.329  0.2007  0.4722 -0.4609
  661MOL0     C87179   4.224   7.849   4.351 -0.7898 -0.2633 -0.0913
  661MOL0     C87180   4.361   7.820   4.279 -0.5267  1.6866 -0.5314
  661MOL0     C87181   4.358   7.837   4.119  0.2557 -0.5817  0.7240
  661MOL0     C87182   4.377   7.978   4.079  0.0290  0.1546  0.7889
  661MOL0     C87183   4.521   8.010   4.046  0.3400  0.3385  0.0060
  661MOL0     C87184   4.640   8.026   4.030  0.2642 -0.3913 -0.6089
  661MOL0     C87185   3.929   7.646   4.417 -0.2493 -0.2555 -0.4172
  661MOL0     C87186   3.806   7.643   4.486 -0.0106 -0.2576 -1.1941
  661MOL0     H87187   3.374   7.823   4.591  1.1866  1.3746  3.7437
  661MOL0     H87188   3.128   7.786   4.651 -0.4532 -1.0557 -1.0783
  661MOL0     H87189   3.024   7.377   4.735 -2.7448 -2.0036 -0.7540
  661MOL0     H87190   2.958   7.481   4.606  1.6019  0.2028  0.0384
  661MOL0     H87191   2.800   7.563   4.771  2.4640  0.9420  0.2833
  661MOL0     H87192   2.843   7.422   4.871 -0.5371 -1.6588  0.0756
  661MOL0     H87193   2.804   7.265   4.673  0.9256  0.3969  0.2727
  661MOL0     H87194   2.727   7.399   4.584 -3.3291 -1.2051 -0.5396
  661MOL0     H87195   2.620   7.282   4.838  3.4230  0.5678 -0.0885
  661MOL0     H87196   2.553   7.421   4.750  1.7797  1.2605  0.0666
  661MOL0     H87197   2.578   7.121   4.719 -0.4125  0.1673  1.4906
  661MOL0     H87198   2.574   7.215   4.567  3.7828 -1.0796  1.4859
  661MOL0     H87199   2.330   7.280   4.670 -1.2738 -0.7435  0.0002
  661MOL0     H87200   2.361   7.143   4.770  2.6282 -0.5518 -0.5819
  661MOL0     H87201   2.345   7.120   4.460 -1.0055 -1.3049 -0.8614
  661MOL0     H87202   2.399   6.998   4.557 -1.5292 -1.3030 -1.5734
  661MOL0     H87203   2.138   7.165   4.590 -0.9447  0.1566  0.2977
  661MOL0     H87204   2.150   6.993   4.636 -0.2977  2.0308  1.1245
  661MOL0     H87205   2.193   6.833   4.396 -0.8356  0.2237 -0.5645
  661MOL0     H87206   1.980   6.727   4.258  1.5520  1.6035  1.2129
  661MOL0     H87207   2.051   6.781   4.109  2.1413  0.1908  1.6355
  661MOL0     H87208   1.836   6.930   4.074  0.4377  2.0429  1.7221
  661MOL0     H87209   1.771   6.842   4.215 -0.4928  2.4756 -0.4722
  661MOL0     H87210   1.885   6.743   3.945  0.2599 -2.4589 -0.9185
  661MOL0     H87211   1.850   6.622   4.064 -0.8072 -1.4692 -0.2942
  661MOL0     H87212   1.654   6.809   3.931 -1.4352  0.4581  1.1300
  661MOL0     H87213   1.616   6.683   4.061  1.1211 -0.1935 -0.3538
  661MOL0     H87214   1.428   6.683   3.958  0.8999 -0.3261  0.2382
  661MOL0     H87215   1.213   6.611   3.829  0.5193  0.2048  1.4558
  661MOL0     H87216   1.068   6.541   3.367 -1.1259  1.0561 -1.6175
  661MOL0     H87217   0.860   6.505   3.240 -0.0419  1.4196  0.0756
  661MOL0     H87218   0.515   6.386   3.204  0.6573 -0.0934 -0.2897
  661MOL0     H87219   0.685   6.402   3.173  0.5090  1.2430 -0.6167
  661MOL0     H87220   0.566   6.567   3.050 -1.4198 -2.2956  0.9501
  661MOL0     H87221   0.682   6.636   3.167  1.6202 -0.2247 -0.4012
  661MOL0     H87222   0.533   6.704   3.316  1.2539  0.4472 -0.8705
  661MOL0     H87223   0.397   6.606   3.250 -0.2915  0.0015  0.1357
  661MOL0     H87224   0.528   6.845   3.119  0.6671  1.5403  2.2227
  661MOL0     H87225   0.374   6.751   3.068 -2.8012 -0.3365  1.8184
  661MOL0     H87226   0.404   6.901   3.327 -2.1472 -1.3040  1.4729
  661MOL0     H87227   0.255   6.845   3.247  1.0709 -1.4255 -2.0794
  661MOL0     H87228   0.309   7.012   3.050 -2.0789 -2.2045  0.4109
  661MOL0     H87229   0.437   7.086   3.159 -0.5816  1.0209 -0.0062
  661MOL0     H87230   0.141   7.103   3.151  1.9808 -1.4945 -1.9582
  661MOL0     H87231   0.202   7.050   3.303 -0.1040  0.6231 -0.8662
  661MOL0     H87232   0.320   7.286   3.312 -0.3980 -1.0038  0.7238
  661MOL0     H87233   0.143   7.286   3.303 -0.6317 -0.0783 -1.3115
  661MOL0     H87234   0.644   6.487   3.615  1.1357  0.2325  1.3476
  661MOL0     H87235   0.854   6.501   3.734  0.3107  0.2798  0.1515
  661MOL0     H87236   1.448   6.394   3.554 -0.2694 -2.0212  1.1546
  661MOL0     H87237   1.658   6.472   3.672  0.3264  2.6216 -1.4251
  661MOL0     H87238   3.233   7.453   4.889  1.0770 -0.2378  0.6001
  661MOL0     H87239   3.470   7.481   4.823  0.6699  1.3032  2.0625
  661MOL0     H87240   3.837   7.962   4.603  0.2627 -0.5336  0.1876
  661MOL0     H87241   4.043   7.958   4.503  0.8284  0.4880 -0.8116
  661MOL0     H87242   4.241   7.853   4.459 -0.4480 -2.1627 -0.0304
  661MOL0     H87243   4.178   7.943   4.319 -1.1296 -0.2046  0.5553
  661MOL0     H87244   4.435   7.887   4.324  2.0205 -3.2948  3.7073
  661MOL0     H87245   4.405   7.724   4.307 -4.4652  0.3265  1.9071
  661MOL0     H87246   4.262   7.809   4.073  1.0778  0.1566 -1.5909
  661MOL0     H87247   4.435   7.781   4.065  0.4245  1.7431 -1.6683
  661MOL0     H87248   4.321   7.998   3.987  0.7899  4.5151  1.0555
  661MOL0     H87249   4.345   8.048   4.157  1.6452  1.9334 -0.0397
  661MOL0     H87250   4.745   8.033   4.009  0.5485 -0.0797  0.8172
  661MOL0     H87251   3.956   7.564   4.351  0.6459  0.7994 -1.3922
  661MOL0     H87252   3.742   7.556   4.479 -0.3008 -0.0258 -1.4663
  662MOL0     O87253   6.356   4.792  10.756  0.8246  0.5173  0.8305
  662MOL0     C87254   6.418   4.896  10.789  0.2238  0.9726 -0.3378
  662MOL0     O87255   6.370   5.026  10.796  0.3087  0.5317  0.4142
  662MOL0     C87256   6.236   5.043  10.769  0.0680 -0.1008  0.6042
  662MOL0     C87257   6.197   5.033  10.634 -0.3674 -0.1641 -0.1554
  662MOL0     C87258   6.063   5.062  10.600 -0.5097 -0.5686 -0.0054
  662MOL0     C87259   5.967   5.089  10.698 -0.4154  0.3749 -0.1872
  662MOL0     O87260   5.838   5.115  10.649  0.1561  1.4104  0.1226
  662MOL0     C87261   5.733   5.076  10.744  0.6190 -0.5145  0.1060
  662MOL0     C87262   5.598   5.079  10.681 -0.2591  0.1047  0.6319
  662MOL0     C87263   5.492   5.025  10.768 -0.0358 -0.6404 -0.6353
  662MOL0     C87264   5.458   5.119  10.878 -0.0447 -0.3206  0.5783
  662MOL0     C87265   5.357   5.063  10.981 -1.3414 -0.1286 -0.7355
  662MOL0     C87266   5.217   5.070  10.927  0.2524 -0.2744  0.1665
  662MOL0     C87267   5.155   5.210  10.907 -0.3662 -0.7477 -1.3425
  662MOL0     C87268   5.006   5.211  10.929 -0.4546 -0.0477 -0.4684
  662MOL0     N87269   4.937   5.116  10.840  0.2296  0.0541  0.4747
  662MOL0     C87270   4.904   5.134  10.711 -0.5405 -0.1926 -0.3102
  662MOL0     C87271   4.852   5.024  10.667  1.1078  0.5205 -0.9289
  662MOL0     C87272   4.790   5.010  10.527 -0.1523  0.6435  0.1171
  662MOL0     C87273   4.654   4.936  10.536  0.4027  0.7872 -0.2727
  662MOL0     C87274   4.593   4.926  10.396 -0.6572  0.6688  0.5405
  662MOL0     C87275   4.504   4.802  10.398  0.2239 -0.4964  0.4055
  662MOL0     O87276   4.427   4.804  10.268  1.1490 -0.6460  0.1266
  662MOL0     C87277   4.320   4.888  10.250 -0.0972 -0.3544  0.7536
  662MOL0     C87278   4.280   4.891  10.114 -0.0545 -0.5470 -0.0816
  662MOL0     C87279   4.164   4.967  10.081 -0.4534  1.1667 -0.7534
  662MOL0     C87280   4.094   5.037  10.185 -0.5794  0.5997  0.6107
  662MOL0     C87281   3.963   5.097  10.151 -0.1471 -0.7435 -0.4647
  662MOL0     O87282   3.917   5.073  10.025 -0.1129  0.1613  0.2223
  662MOL0     C87283   3.791   5.108   9.980 -0.0068 -0.1718  0.9249
  662MOL0     C87284   3.725   5.227  10.005  0.0944 -0.8805 -0.2745
  662MOL0     C87285   3.597   5.262   9.940 -0.1767 -0.2363 -0.2159
  662MOL0     C87286   3.528   5.152   9.887 -0.1682  0.1735 -0.1040
  662MOL0     O87287   3.402   5.162   9.834 -0.0717  0.8648 -0.3771
  662MOL0     C87288   3.326   5.250   9.899 -0.2784  0.3507  0.0198
  662MOL0     C87289   3.191   5.221   9.835 -0.6524 -0.8622  0.1995
  662MOL0     C87290   3.089   5.321   9.869  0.0016 -0.2241  0.0657
  662MOL0     C87291   2.947   5.295   9.815  0.5296  0.0200  0.0786
  662MOL0     C87292   2.880   5.432   9.783  0.4169 -0.3445 -0.4948
  662MOL0     C87293   2.729   5.426   9.747 -0.2373  0.2379 -0.1656
  662MOL0     C87294   2.703   5.351   9.618  0.3734  0.1333 -0.9489
  662MOL0     C87295   2.548   5.345   9.581 -0.3952 -0.2474 -0.1334
  662MOL0    Cl87296   2.547   5.324   9.399 -0.8600  0.1982 -0.0577
  662MOL0     C87297   3.598   5.038   9.856 -0.3987 -0.6046 -0.4564
  662MOL0     C87298   3.727   5.011   9.902 -0.1870  0.4249  0.5736
  662MOL0     O87299   3.898   5.154  10.231 -0.1495  0.3323  0.1906
  662MOL0     C87300   4.139   5.030  10.317  0.2529  0.0161  0.3130
  662MOL0     C87301   4.240   4.940  10.346  0.1269 -0.3493  0.8118
  662MOL0     N87302   4.875   4.923  10.761 -0.1895  0.9676 -0.4728
  662MOL0     N87303   4.923   4.985  10.865  0.3968  0.6719  1.2343
  662MOL0     C87304   6.008   5.099  10.832  0.1329 -0.1107 -0.8300
  662MOL0     C87305   6.138   5.081  10.866 -1.1022  0.3204 -0.0341
  662MOL0     C87306   6.556   4.882  10.855  0.5201  0.6963 -1.0500
  662MOL0     C87307   6.637   4.989  10.886 -0.2096  0.4947 -0.1747
  662MOL0     C87308   6.766   4.971  10.933 -0.0348  0.6201  0.0207
  662MOL0     C87309   6.807   4.833  10.966  0.4520  0.2326  0.9141
  662MOL0     O87310   6.919   4.804  11.035 -0.0076  0.0186  0.5104
  662MOL0     C87311   6.979   4.911  11.109  0.4687 -0.0534 -0.0014
  662MOL0     C87312   7.058   4.852  11.228  0.0776 -0.8364  0.3689
  662MOL0     C87313   6.968   4.768  11.325  0.0375 -0.4077  0.5635
  662MOL0     C87314   7.053   4.731  11.446 -0.1479 -0.4084 -0.7866
  662MOL0     C87315   7.070   4.842  11.541  0.0137 -0.3506  0.4763
  662MOL0     C87316   7.070   4.947  11.599 -0.1866 -1.0022  0.1479
  662MOL0     C87317   6.732   4.731  10.927 -0.1477  0.2754  0.2778
  662MOL0     C87318   6.614   4.754  10.864  0.4681 -0.0443  0.4574
  662MOL0     H87319   6.269   5.009  10.556  0.8312  1.7431  0.2817
  662MOL0     H87320   6.035   5.061  10.495  1.6822 -1.0003 -0.6244
  662MOL0     H87321   5.730   5.144  10.830  0.0118  2.0442 -1.8149
  662MOL0     H87322   5.746   4.975  10.784 -2.0962 -1.0807 -0.2636
  662MOL0     H87323   5.608   5.004  10.601  0.8650  0.4024  0.4675
  662MOL0     H87324   5.587   5.173  10.625  1.0167  0.0405  0.2169
  662MOL0     H87325   5.516   4.926  10.809 -1.3560 -1.1415 -1.0078
  662MOL0     H87326   5.407   5.006  10.702 -0.9684 -0.2567  0.4234
  662MOL0     H87327   5.555   5.152  10.916  0.2744  0.5050 -0.9026
  662MOL0     H87328   5.408   5.205  10.834  1.1424 -0.9823 -2.2732
  662MOL0     H87329   5.364   5.125  11.071  1.2278 -0.6899 -0.4797
  662MOL0     H87330   5.384   4.958  10.996 -1.5372 -0.2734 -1.3693
  662MOL0     H87331   5.160   5.013  11.000  0.0415 -2.0454 -1.3285
  662MOL0     H87332   5.208   5.019  10.831 -1.7185 -0.6838  0.5244
  662MOL0     H87333   5.196   5.286  10.974 -1.3286  1.0139 -2.6911
  662MOL0     H87334   5.181   5.234  10.804  0.0709 -1.2478 -1.3569
  662MOL0     H87335   4.975   5.314  10.908 -1.1608 -0.2567 -0.4885
  662MOL0     H87336   4.983   5.178  11.031  2.5105 -0.5053  0.1298
  662MOL0     H87337   4.905   5.231  10.662 -0.2908 -0.4504 -0.8287
  662MOL0     H87338   4.858   4.955  10.461 -0.2981 -0.8345  1.1521
  662MOL0     H87339   4.777   5.112  10.491 -2.7501  0.7042  1.0105
  662MOL0     H87340   4.588   4.987  10.607  1.4454 -2.1752  3.1116
  662MOL0     H87341   4.682   4.838  10.576  1.2164  1.1928  0.1672
  662MOL0     H87342   4.541   5.018  10.367  2.1308  1.6629 -1.9847
  662MOL0     H87343   4.665   4.899  10.318 -0.7523 -1.9517  1.2843
  662MOL0     H87344   4.429   4.815  10.477  1.5306  1.5708  1.3751
  662MOL0     H87345   4.561   4.709  10.405 -0.0352 -0.7688 -0.9099
  662MOL0     H87346   4.346   4.836  10.048 -0.3349  0.8510 -1.5848
  662MOL0     H87347   4.145   4.967   9.974  1.3565 -1.2944 -1.1782
  662MOL0     H87348   3.776   5.309  10.054  2.1563 -0.9092 -2.1998
  662MOL0     H87349   3.560   5.364   9.950  3.4893  1.1217  1.0281
  662MOL0     H87350   3.353   5.354   9.879 -0.4022 -0.0922 -2.8617
  662MOL0     H87351   3.300   5.228  10.003 -3.8847 -3.3276 -1.3914
  662MOL0     H87352   3.154   5.129   9.881 -0.1517 -1.2875 -0.2489
  662MOL0     H87353   3.207   5.213   9.728  1.8045  0.5026  0.3752
  662MOL0     H87354   3.125   5.414   9.823  3.0232 -2.0936 -1.6987
  662MOL0     H87355   3.092   5.338   9.977 -2.2396 -0.2914  0.1715
  662MOL0     H87356   2.965   5.231   9.729 -0.9387  1.5584 -1.4394
  662MOL0     H87357   2.890   5.245   9.895  2.6423  0.8522  2.2228
  662MOL0     H87358   2.936   5.482   9.704  1.1646 -0.7420 -0.2287
  662MOL0     H87359   2.887   5.497   9.870  1.4169  2.2887 -2.4034
  662MOL0     H87360   2.701   5.531   9.733  1.2632  0.5268 -1.1885
  662MOL0     H87361   2.664   5.391   9.828  0.1009 -3.6539 -1.3259
  662MOL0     H87362   2.762   5.406   9.544 -1.0961  1.4476 -1.2044
  662MOL0     H87363   2.727   5.245   9.636 -0.0632  0.1485 -0.2386
  662MOL0     H87364   2.501   5.440   9.610  2.6910  0.6756  2.5323
  662MOL0     H87365   2.492   5.269   9.635 -0.1203 -0.1973  0.2326
  662MOL0     H87366   3.556   4.958   9.796  0.2764 -0.8546 -0.6101
  662MOL0     H87367   3.779   4.917   9.885 -0.2268  0.1896  1.6552
  662MOL0     H87368   4.075   5.068  10.396 -0.6397 -3.5252  1.5062
  662MOL0     H87369   4.264   4.918  10.449 -1.5152  1.8966  1.7526
  662MOL0     H87370   5.944   5.128  10.915  1.5024  2.4948 -0.5901
  662MOL0     H87371   6.179   5.096  10.966  0.2827  1.2224 -0.7100
  662MOL0     H87372   6.603   5.090  10.866 -0.4604  0.6725  1.0486
  662MOL0     H87373   6.830   5.055  10.960 -0.9089  1.0684  0.7548
  662MOL0     H87374   6.912   4.986  11.152 -2.5795 -0.7458 -3.1055
  662MOL0     H87375   7.044   4.960  11.037 -0.3612  0.0030 -0.7242
  662MOL0     H87376   7.148   4.807  11.185  0.8964  2.5842 -1.8437
  662MOL0     H87377   7.090   4.938  11.287  2.1563 -2.0078  1.0713
  662MOL0     H87378   6.941   4.675  11.275  1.3104 -1.8440  2.4281
  662MOL0     H87379   6.873   4.818  11.348 -0.0168  1.0329 -2.2933
  662MOL0     H87380   7.004   4.648  11.499  0.7183 -2.0684 -2.4410
  662MOL0     H87381   7.153   4.705  11.410  1.2494  2.2835  0.8426
  662MOL0     H87382   7.073   5.048  11.636  1.2825 -1.6698  2.0726
  662MOL0     H87383   6.763   4.631  10.957 -2.5106 -0.3540  0.8529
  662MOL0     H87384   6.557   4.667  10.835 -1.2838  1.0019  0.6461
  663MOL0     O87385   5.045   4.835   3.026 -0.4123  0.3434 -0.6013
  663MOL0     C87386   5.153   4.773   3.011  1.0257 -0.0968  0.6005
  663MOL0     O87387   5.167   4.645   2.945 -0.2979  0.0898 -0.2558
  663MOL0     C87388   5.057   4.603   2.873 -0.4418  0.9407 -0.3167
  663MOL0     C87389   5.066   4.596   2.736 -0.2156  0.4656 -0.3075
  663MOL0     C87390   4.947   4.556   2.666 -0.7345  0.3132  0.7607
  663MOL0     C87391   4.833   4.511   2.728 -0.6039 -0.4400 -0.1323
  663MOL0     O87392   4.740   4.460   2.648 -0.3126  0.4731  1.2141
  663MOL0     C87393   4.612   4.525   2.645 -0.3023 -0.9097  0.5086
  663MOL0     C87394   4.594   4.590   2.503  0.4724 -0.2037 -0.8267
  663MOL0     C87395   4.564   4.480   2.403 -0.4648 -0.0190  0.3510
  663MOL0     C87396   4.420   4.437   2.412  0.1829 -0.2464  0.4994
  663MOL0     C87397   4.389   4.320   2.313 -1.0032  0.0924  0.5644
  663MOL0     C87398   4.463   4.189   2.350 -0.2614  0.1119  0.3953
  663MOL0     C87399   4.612   4.164   2.295  0.5189 -0.5305 -0.0162
  663MOL0     C87400   4.637   4.017   2.292  0.4281  0.4503 -0.1028
  663MOL0     N87401   4.779   3.988   2.278  0.1302 -0.7214 -0.1239
  663MOL0     C87402   4.857   3.948   2.384  1.3831 -0.0214  0.3115
  663MOL0     C87403   4.981   3.955   2.341  0.2959 -0.7926  1.6825
  663MOL0     C87404   5.098   3.941   2.428 -0.8508  0.6257 -0.5709
  663MOL0     C87405   5.232   3.963   2.357  0.0403  0.0183 -0.1006
  663MOL0     C87406   5.360   3.934   2.438 -0.0182 -0.4243 -0.7345
  663MOL0     C87407   5.470   3.953   2.335  0.2045 -0.3829 -0.4108
  663MOL0     O87408   5.596   3.953   2.405  0.1088  0.1555 -0.1926
  663MOL0     C87409   5.716   3.986   2.340 -0.1950  0.8167  0.3127
  663MOL0     C87410   5.723   4.019   2.203  0.6685 -0.4629  0.6908
  663MOL0     C87411   5.846   4.044   2.148  0.3684 -0.4004  0.2194
  663MOL0     C87412   5.966   4.046   2.228 -0.3305  0.3396 -0.3044
  663MOL0     C87413   6.098   4.089   2.175 -0.7607  1.0564 -0.2590
  663MOL0     O87414   6.202   4.082   2.261  0.2898  0.3301 -0.0251
  663MOL0     C87415   6.323   4.138   2.238  0.6339 -0.6226 -0.3017
  663MOL0     C87416   6.344   4.277   2.218 -0.5369 -1.7700 -0.2403
  663MOL0     C87417   6.468   4.327   2.186 -0.7208  0.7040  0.0411
  663MOL0     C87418   6.566   4.243   2.144 -0.4743  0.9776 -0.1083
  663MOL0     O87419   6.681   4.289   2.081 -0.1210 -0.1838 -0.8926
  663MOL0     C87420   6.728   4.423   2.106 -0.2687 -0.6168  0.0417
  663MOL0     C87421   6.850   4.459   2.025  0.5922 -0.3497  0.9732
  663MOL0     C87422   6.979   4.388   2.059 -0.6393  0.3578 -0.1467
  663MOL0     C87423   7.088   4.424   1.971 -1.3705  0.5043  0.0690
  663MOL0     C87424   7.211   4.350   2.014 -0.0399  0.6701 -0.1578
  663MOL0     C87425   7.317   4.329   1.903 -0.1482 -0.7031  0.2122
  663MOL0     C87426   7.446   4.268   1.961 -0.0146 -0.0356 -0.0333
  663MOL0     C87427   7.550   4.245   1.854 -0.6844  0.2177 -0.2744
  663MOL0    Cl87428   7.707   4.233   1.948  0.6232  0.3524 -0.1986
  663MOL0     C87429   6.548   4.099   2.158 -0.2633 -0.3674  0.5526
  663MOL0     C87430   6.434   4.044   2.210  0.5570 -0.3203  0.5239
  663MOL0     O87431   6.095   4.143   2.064  1.0439  0.2435 -0.0830
  663MOL0     C87432   5.959   3.993   2.356  0.3288  0.3532  0.0235
  663MOL0     C87433   5.835   3.968   2.408 -0.2609 -0.7082 -0.1207
  663MOL0     N87434   4.982   3.999   2.214 -0.3964  0.2340 -0.6408
  663MOL0     N87435   4.859   4.005   2.175  0.4532 -0.3506 -0.5395
  663MOL0     C87436   4.836   4.498   2.869 -0.5025  0.9164 -0.2198
  663MOL0     C87437   4.944   4.544   2.942  0.3005 -0.2461  0.3243
  663MOL0     C87438   5.278   4.828   3.072 -0.1072  0.5654 -1.0223
  663MOL0     C87439   5.279   4.945   3.154 -0.1409  0.0271  0.4126
  663MOL0     C87440   5.393   4.992   3.210 -0.5701 -1.1854  0.6087
  663MOL0     C87441   5.512   4.918   3.201 -0.0979 -0.3272 -0.6310
  663MOL0     O87442   5.638   4.950   3.250  0.1893 -0.2083  0.7063
  663MOL0     C87443   5.646   5.054   3.346 -0.6044  0.5789 -0.0665
  663MOL0     C87444   5.766   5.030   3.433  0.0240 -0.0945 -0.2512
  663MOL0     C87445   5.758   4.894   3.494 -0.4978 -1.0366 -0.7122
  663MOL0     C87446   5.829   4.787   3.415 -0.0951  0.7406 -0.1155
  663MOL0     C87447   5.968   4.783   3.466  0.5326  0.9440 -0.0265
  663MOL0     C87448   6.071   4.794   3.531 -0.2076 -0.2872 -0.2365
  663MOL0     C87449   5.513   4.805   3.120  0.0545  0.0927 -0.2610
  663MOL0     C87450   5.404   4.762   3.059  0.3898  0.1788 -0.0201
  663MOL0     H87451   5.158   4.616   2.683 -0.9408  0.3957 -1.6237
  663MOL0     H87452   4.941   4.576   2.560 -0.6518 -1.0153  0.4951
  663MOL0     H87453   4.617   4.605   2.720  2.0476 -1.9308  1.5391
  663MOL0     H87454   4.534   4.452   2.667 -2.9868  1.0615 -1.8066
  663MOL0     H87455   4.681   4.650   2.474  1.7003 -0.7438  1.5382
  663MOL0     H87456   4.512   4.663   2.508  1.6057  1.0671 -0.2073
  663MOL0     H87457   4.631   4.395   2.420  0.7791  0.8492 -0.0574
  663MOL0     H87458   4.580   4.523   2.303 -1.7488 -0.7251 -0.1876
  663MOL0     H87459   4.382   4.405   2.510 -0.5246  1.0333  0.6679
  663MOL0     H87460   4.349   4.516   2.387  1.2242  0.9161  1.1614
  663MOL0     H87461   4.425   4.349   2.214  1.0120 -0.8214  0.9856
  663MOL0     H87462   4.281   4.302   2.316 -0.6542 -2.2032  1.5704
  663MOL0     H87463   4.412   4.107   2.298  1.9217 -0.9918 -0.1628
  663MOL0     H87464   4.455   4.172   2.458  0.4158 -3.4302  0.0297
  663MOL0     H87465   4.635   4.206   2.197  0.2241 -3.9146 -1.6580
  663MOL0     H87466   4.679   4.210   2.369 -0.9214  0.2629  0.8520
  663MOL0     H87467   4.576   3.970   2.215 -1.1155 -1.2608  2.0322
  663MOL0     H87468   4.598   3.984   2.389 -3.5559  1.8164 -1.0648
  663MOL0     H87469   4.823   3.928   2.485 -0.9252 -0.7501 -0.5606
  663MOL0     H87470   5.104   3.838   2.466  0.2957  1.7587  2.6161
  663MOL0     H87471   5.089   4.013   2.510  1.3413 -1.6059  1.7836
  663MOL0     H87472   5.227   4.063   2.313  1.7444 -0.1037 -0.6187
  663MOL0     H87473   5.226   3.898   2.269 -0.1719  1.0258 -0.8465
  663MOL0     H87474   5.368   4.004   2.522 -3.1264 -2.3799  1.4238
  663MOL0     H87475   5.363   3.839   2.492  3.4047  0.3937  0.7714
  663MOL0     H87476   5.448   4.051   2.291 -1.2158 -1.1018 -1.3862
  663MOL0     H87477   5.458   3.880   2.254 -0.2943 -1.3371  0.5113
  663MOL0     H87478   5.634   4.019   2.141  1.4346  0.9361 -0.4898
  663MOL0     H87479   5.843   4.073   2.044 -1.4599 -2.1520 -0.2679
  663MOL0     H87480   6.259   4.341   2.242 -0.0219 -0.2153 -2.2645
  663MOL0     H87481   6.473   4.436   2.181  1.3324  0.7882  2.1058
  663MOL0     H87482   6.735   4.435   2.214 -3.0691  1.5907  0.1081
  663MOL0     H87483   6.649   4.494   2.078  0.2456  1.7595  3.9254
  663MOL0     H87484   6.870   4.566   2.026  2.0212 -0.5740 -0.0913
  663MOL0     H87485   6.825   4.440   1.920  0.5849 -0.5900  1.0179
  663MOL0     H87486   6.970   4.279   2.063  0.1958  0.2712 -0.3067
  663MOL0     H87487   7.005   4.412   2.162 -1.5906 -2.0075  0.7240
  663MOL0     H87488   7.074   4.384   1.870  2.0791 -0.1666 -0.2418
  663MOL0     H87489   7.104   4.532   1.959 -1.6086  0.4453 -0.8223
  663MOL0     H87490   7.190   4.251   2.055 -0.8410  0.2547 -1.4844
  663MOL0     H87491   7.255   4.414   2.091 -1.0488 -0.9678  1.8625
  663MOL0     H87492   7.343   4.428   1.865  1.0367 -0.7595  0.8371
  663MOL0     H87493   7.280   4.266   1.822  1.8402 -0.7582 -0.7063
  663MOL0     H87494   7.482   4.338   2.037  1.6529  1.3339 -1.9812
  663MOL0     H87495   7.437   4.168   2.005  2.3656 -1.0715 -1.6659
  663MOL0     H87496   7.552   4.330   1.785 -3.1110  1.1389  0.6957
  663MOL0     H87497   7.537   4.155   1.794  1.3645  0.8547 -1.7873
  663MOL0     H87498   6.635   4.039   2.133  0.5405 -0.6650  3.6726
  663MOL0     H87499   6.412   3.939   2.224 -3.4299  0.3815  0.9380
  663MOL0     H87500   6.041   3.971   2.424  1.5439  4.2009  0.0166
  663MOL0     H87501   5.821   3.932   2.509  0.2010  0.2544  0.3020
  663MOL0     H87502   4.757   4.440   2.915 -0.7140  1.1869 -0.2376
  663MOL0     H87503   4.944   4.554   3.050 -0.2853 -0.6301  0.3590
  663MOL0     H87504   5.193   5.012   3.152  0.8189  1.2883 -1.9002
  663MOL0     H87505   5.398   5.080   3.273 -0.9472 -3.1903  3.6782
  663MOL0     H87506   5.567   5.056   3.422 -2.1727 -1.7752 -1.4986
  663MOL0     H87507   5.656   5.153   3.301  0.1059  1.2344  1.4534
  663MOL0     H87508   5.862   5.032   3.381  1.2514  1.6643  1.9286
  663MOL0     H87509   5.770   5.109   3.509  2.5691  0.8629 -1.2790
  663MOL0     H87510   5.654   4.862   3.507  0.2416 -3.3402 -0.0097
  663MOL0     H87511   5.791   4.908   3.598 -0.0998  0.3642 -1.0061
  663MOL0     H87512   5.784   4.688   3.426 -0.0862  0.6797 -0.6365
  663MOL0     H87513   5.812   4.804   3.309  0.5896 -2.1856 -0.7712
  663MOL0     H87514   6.166   4.797   3.581  0.0519 -0.2487 -0.7318
  663MOL0     H87515   5.605   4.748   3.106  0.6660  1.1496 -0.6973
  663MOL0     H87516   5.404   4.667   3.006 -0.1547  1.2319 -1.9973
  664MOL0     O87517   8.894   8.493  10.213 -0.3203 -0.7023  0.2599
  664MOL0     C87518   8.924   8.433  10.111  0.0585 -0.1534  0.0081
  664MOL0     O87519   8.837   8.385  10.016  0.3150 -0.1901  0.2613
  664MOL0     C87520   8.707   8.357  10.058 -1.3421  1.0420  0.5125
  664MOL0     C87521   8.602   8.382   9.969  0.1085  0.1333  0.1904
  664MOL0     C87522   8.469   8.356  10.010  0.6990 -0.2249  0.0037
  664MOL0     C87523   8.437   8.299  10.134  0.7670  0.0994  0.3923
  664MOL0     O87524   8.317   8.261  10.187  0.5427 -0.1871 -0.0745
  664MOL0     C87525   8.226   8.375  10.205  0.7893  0.5767  0.8435
  664MOL0     C87526   8.090   8.337  10.265  0.4159  0.6221  0.7855
  664MOL0     C87527   8.005   8.456  10.297 -0.6432  0.1915  0.0705
  664MOL0     C87528   7.878   8.420  10.374 -0.3408  0.1879  1.1240
  664MOL0     C87529   7.782   8.540  10.377  0.1172 -0.2038 -0.1202
  664MOL0     C87530   7.688   8.516  10.492  0.1116  0.9433 -0.4468
  664MOL0     C87531   7.585   8.408  10.457  0.8498  0.7313  0.9062
  664MOL0     C87532   7.484   8.387  10.570 -0.1416  0.3831  0.8495
  664MOL0     N87533   7.372   8.478  10.569  0.3447 -0.0392  0.2781
  664MOL0     C87534   7.259   8.463  10.488  0.9219  0.4860 -0.2708
  664MOL0     C87535   7.173   8.562  10.535 -0.4866  0.0854 -0.0928
  664MOL0     C87536   7.032   8.588  10.497  0.0818  0.0705 -0.5092
  664MOL0     C87537   6.939   8.485  10.567 -0.7024 -1.0150 -0.3589
  664MOL0     C87538   6.801   8.509  10.513  0.8942  0.4608  0.3263
  664MOL0     C87539   6.702   8.421  10.587 -0.4269 -0.0856 -0.3316
  664MOL0     O87540   6.573   8.459  10.555 -1.0508 -0.3494 -0.0161
  664MOL0     C87541   6.464   8.406  10.619  1.0620 -0.2044 -0.4048
  664MOL0     C87542   6.457   8.307  10.723  0.2256  0.1964 -0.2193
  664MOL0     C87543   6.328   8.278  10.779 -0.5184 -0.4185 -0.1567
  664MOL0     C87544   6.212   8.347  10.750 -0.1463 -0.1671 -0.0840
  664MOL0     C87545   6.085   8.316  10.818  0.1371  0.4262  1.3723
  664MOL0     O87546   6.083   8.206  10.900 -1.0918 -0.4863 -0.0173
  664MOL0     C87547   5.957   8.192  10.949 -0.1268 -0.4750 -0.3660
  664MOL0     C87548   5.915   8.252  11.066  0.9341  0.6312 -0.5544
  664MOL0     C87549   5.782   8.248  11.116  0.9021  0.7252  1.2826
  664MOL0     C87550   5.683   8.168  11.035 -0.2481  0.0405 -1.1325
  664MOL0     O87551   5.547   8.164  11.054  0.1402  0.7667 -0.0538
  664MOL0     C87552   5.502   8.102  11.172 -0.6893 -0.1356  0.0941
  664MOL0     C87553   5.490   7.955  11.143  0.5352 -0.0858 -0.8105
  664MOL0     C87554   5.382   7.887  11.238  0.3843 -0.7968  0.0668
  664MOL0     C87555   5.352   7.747  11.189  0.0210  0.2857 -0.7847
  664MOL0     C87556   5.293   7.658  11.313  0.2246  0.8915 -0.1606
  664MOL0     C87557   5.387   7.639  11.432  0.6523 -0.1232 -0.5942
  664MOL0     C87558   5.523   7.585  11.401  0.8330  0.3965 -0.8763
  664MOL0     C87559   5.574   7.525  11.543  0.0528 -0.9505  0.2735
  664MOL0    Cl87560   5.553   7.633  11.694 -0.7497  0.2702 -0.3412
  664MOL0     C87561   5.732   8.120  10.915  0.3199 -0.3289 -0.8270
  664MOL0     C87562   5.861   8.132  10.871  1.5473  0.5026  0.1002
  664MOL0     O87563   5.987   8.394  10.794 -0.3910  0.1629 -0.7466
  664MOL0     C87564   6.228   8.455  10.668  0.1442  0.4105  0.4122
  664MOL0     C87565   6.349   8.482  10.599 -0.0448  0.0155 -0.6036
  664MOL0     N87566   7.236   8.635  10.633 -0.3193 -0.0754  0.3414
  664MOL0     N87567   7.352   8.589  10.648 -0.3888 -0.4882 -0.1917
  664MOL0     C87568   8.546   8.257  10.206  0.3240  0.5103 -0.2586
  664MOL0     C87569   8.681   8.281  10.171  0.7004  0.7552  0.7498
  664MOL0     C87570   9.058   8.438  10.066  0.2992  0.6108 -1.3227
  664MOL0     C87571   9.101   8.402   9.939  0.2850 -0.6955  0.2211
  664MOL0     C87572   9.238   8.390   9.911 -0.4664 -0.5520 -0.7899
  664MOL0     C87573   9.337   8.430  10.007  0.7083  0.1413  0.2113
  664MOL0     O87574   9.470   8.444   9.975  0.1522 -0.1065 -0.2170
  664MOL0     C87575   9.521   8.373   9.861 -0.1580 -0.7424  0.7934
  664MOL0     C87576   9.675   8.373   9.845 -0.0937 -0.5155  0.2577
  664MOL0     C87577   9.738   8.516   9.836 -0.6253  0.6872 -0.0646
  664MOL0     C87578   9.715   8.591   9.711  0.2489  0.1952  0.4920
  664MOL0     C87579   9.767   8.521   9.589 -0.1922  0.3810 -0.2123
  664MOL0     C87580   9.824   8.472   9.494 -0.4374 -0.2463 -0.2959
  664MOL0     C87581   9.291   8.472  10.135 -0.7576 -0.7185  0.5661
  664MOL0     C87582   9.155   8.469  10.167  0.2002 -0.6466 -0.1220
  664MOL0     H87583   8.611   8.428   9.871  1.3066  1.7739  1.0197
  664MOL0     H87584   8.393   8.365   9.933  1.5415 -1.0708 -0.9754
  664MOL0     H87585   8.208   8.409  10.102  0.4880 -1.3438  0.2105
  664MOL0     H87586   8.279   8.450  10.264 -0.5626  2.2365  0.0562
  664MOL0     H87587   8.104   8.285  10.361 -0.0818 -1.8443 -0.3890
  664MOL0     H87588   8.048   8.260  10.199  3.8833  0.2314 -1.1676
  664MOL0     H87589   7.986   8.509  10.203  0.7939 -0.0746 -0.3935
  664MOL0     H87590   8.061   8.525  10.360  1.9230  1.3410 -3.1457
  664MOL0     H87591   7.817   8.352  10.314  0.1055 -1.5915  2.6121
  664MOL0     H87592   7.892   8.376  10.473  3.3226 -2.3944 -0.3540
  664MOL0     H87593   7.726   8.564  10.286 -0.6960  1.0219  0.6714
  664MOL0     H87594   7.843   8.630  10.388  1.3118 -1.0362  0.2767
  664MOL0     H87595   7.638   8.612  10.511 -1.2613  0.8995 -3.3202
  664MOL0     H87596   7.748   8.497  10.581  1.4167  0.6968 -1.3608
  664MOL0     H87597   7.526   8.436  10.369 -0.6106  0.5122  1.7927
  664MOL0     H87598   7.628   8.310  10.432  1.9367  1.1853  0.9192
  664MOL0     H87599   7.533   8.379  10.668 -1.0408 -2.3848  1.1670
  664MOL0     H87600   7.446   8.285  10.554  2.9297 -0.8490  0.7284
  664MOL0     H87601   7.225   8.383  10.423  0.3605  1.2497 -0.9440
  664MOL0     H87602   7.015   8.575  10.390  2.3393  2.0740 -1.2071
  664MOL0     H87603   7.010   8.691  10.525 -1.0851 -0.8425  2.1746
  664MOL0     H87604   6.954   8.490  10.675  1.4510 -0.7367 -0.6341
  664MOL0     H87605   6.974   8.389  10.528  3.6325  0.1318  0.1660
  664MOL0     H87606   6.774   8.615  10.515 -0.9525  0.1461 -2.1127
  664MOL0     H87607   6.796   8.473  10.409  0.9065 -2.6145  1.2855
  664MOL0     H87608   6.701   8.420  10.697  0.2871  0.1023 -0.3197
  664MOL0     H87609   6.722   8.323  10.544  0.8251  0.3463 -0.7918
  664MOL0     H87610   6.542   8.243  10.743  0.1265 -0.3345 -1.4023
  664MOL0     H87611   6.328   8.190  10.843  1.4019  0.0977  0.6368
  664MOL0     H87612   5.981   8.307  11.132  2.2357  0.1476 -1.4199
  664MOL0     H87613   5.746   8.293  11.208  0.2682  0.4289  1.1852
  664MOL0     H87614   5.402   8.145  11.185  0.7462  2.7804  2.7645
  664MOL0     H87615   5.567   8.138  11.252  3.0227  1.6791 -3.3962
  664MOL0     H87616   5.586   7.905  11.159  1.3446  0.2808 -3.9170
  664MOL0     H87617   5.459   7.956  11.038 -0.4918 -0.0273 -0.5130
  664MOL0     H87618   5.292   7.948  11.241  0.3803 -0.8601  2.4198
  664MOL0     H87619   5.425   7.886  11.338 -3.1027 -4.5482  1.7951
  664MOL0     H87620   5.273   7.735  11.115 -2.5702 -3.5625  2.2228
  664MOL0     H87621   5.444   7.693  11.161 -0.9250 -0.7991 -1.9064
  664MOL0     H87622   5.271   7.560  11.271 -0.4051 -0.0952  2.2793
  664MOL0     H87623   5.195   7.695  11.348 -1.0881 -2.5894  0.2252
  664MOL0     H87624   5.331   7.570  11.495  0.1613 -1.5553 -2.5235
  664MOL0     H87625   5.400   7.737  11.479  2.3161 -0.1992 -0.8231
  664MOL0     H87626   5.504   7.499  11.337  1.0161 -0.7369  0.5409
  664MOL0     H87627   5.591   7.653  11.348 -0.7163  0.2675 -3.2039
  664MOL0     H87628   5.678   7.505  11.514  0.3680 -0.8650  1.2971
  664MOL0     H87629   5.505   7.441  11.542 -0.3758 -0.6364  1.6532
  664MOL0     H87630   5.656   8.097  10.841  0.3596 -0.1348 -0.9271
  664MOL0     H87631   5.880   8.090  10.773 -1.9329 -1.5888  0.1320
  664MOL0     H87632   6.144   8.515  10.633  0.5491  0.5938 -0.2585
  664MOL0     H87633   6.346   8.565  10.528  0.5881  0.3356 -0.2592
  664MOL0     H87634   8.524   8.215  10.303  0.5977  2.2089  0.5678
  664MOL0     H87635   8.755   8.236  10.237  0.9521  0.7240  0.4478
  664MOL0     H87636   9.029   8.368   9.866  0.5801  0.3461 -0.5748
  664MOL0     H87637   9.258   8.361   9.808  2.1454 -0.1114 -0.4926
  664MOL0     H87638   9.476   8.423   9.774 -1.7828  1.0329  2.5722
  664MOL0     H87639   9.476   8.274   9.854  0.2573 -0.8982  0.1840
  664MOL0     H87640   9.717   8.318   9.930  0.3495  1.8653  1.6801
  664MOL0     H87641   9.704   8.316   9.757  3.4393 -1.1961  1.6940
  664MOL0     H87642   9.847   8.503   9.840 -0.5380  0.7205 -1.6910
  664MOL0     H87643   9.695   8.566   9.923 -1.6685 -0.9280  0.3925
  664MOL0     H87644   9.607   8.603   9.696  0.4292  0.8352 -0.3646
  664MOL0     H87645   9.762   8.688   9.729  2.4374 -1.0593  1.9599
  664MOL0     H87646   9.893   8.434   9.422 -0.0469 -1.2113  0.5727
  664MOL0     H87647   9.357   8.498  10.217 -0.7746 -2.2185  1.0837
  664MOL0     H87648   9.145   8.482  10.274 -3.5194  1.6319 -0.5864
  665MOL0     O87649   4.304   2.658   9.084  0.4350  0.7830 -0.3565
  665MOL0     C87650   4.298   2.606   8.973  0.4407  0.0046 -0.3611
  665MOL0     O87651   4.397   2.550   8.904 -0.0933  0.2604 -0.0991
  665MOL0     C87652   4.528   2.562   8.954  0.1211 -0.3038  0.3077
  665MOL0     C87653   4.596   2.680   8.916  0.3222  0.0936 -0.4023
  665MOL0     C87654   4.723   2.720   8.968  0.2288  0.4563  0.4467
  665MOL0     C87655   4.783   2.626   9.058  0.4631 -2.0905 -0.3112
  665MOL0     O87656   4.913   2.632   9.103 -0.0892 -0.2217 -0.6166
  665MOL0     C87657   4.992   2.747   9.087 -1.0203  0.6320 -0.1120
  665MOL0     C87658   4.962   2.840   9.204  0.0055 -0.3048  0.1699
  665MOL0     C87659   5.055   2.960   9.185 -0.0315 -0.2801  0.0757
  665MOL0     C87660   5.061   3.056   9.309  0.2408  0.3455  0.3513
  665MOL0     C87661   5.039   3.201   9.263 -0.7981 -1.3218 -0.2586
  665MOL0     C87662   5.152   3.263   9.174 -0.1512  1.0286 -0.0202
  665MOL0     C87663   5.109   3.400   9.106 -0.4977  0.0696 -0.5932
  665MOL0     C87664   5.100   3.524   9.200  0.1738  0.2938  0.2181
  665MOL0     N87665   5.062   3.504   9.338 -0.2654 -0.5315 -0.0734
  665MOL0     C87666   4.929   3.495   9.368  0.0907 -0.2346 -0.1575
  665MOL0     C87667   4.934   3.470   9.503 -0.6239  0.5600 -0.2107
  665MOL0     C87668   4.823   3.434   9.597 -0.2599  0.1654 -0.7289
  665MOL0     C87669   4.690   3.421   9.534  0.4533 -0.3751  0.0986
  665MOL0     C87670   4.661   3.294   9.458 -0.4256 -0.0961 -0.1477
  665MOL0     C87671   4.506   3.264   9.428 -0.2313 -0.0948  0.4792
  665MOL0     O87672   4.435   3.381   9.388  0.2633  0.1095 -0.2080
  665MOL0     C87673   4.299   3.373   9.378 -0.6210  1.3185 -0.2837
  665MOL0     C87674   4.255   3.495   9.342  0.4011  0.0327  0.3431
  665MOL0     C87675   4.117   3.524   9.344 -0.3905 -0.1221  0.1834
  665MOL0     C87676   4.023   3.420   9.368 -0.0984  0.9385 -0.5159
  665MOL0     C87677   3.882   3.453   9.362 -0.5563 -0.0252 -0.8966
  665MOL0     O87678   3.798   3.354   9.380  0.3089 -0.1443 -1.0401
  665MOL0     C87679   3.661   3.352   9.391 -0.1362 -0.4719 -0.1012
  665MOL0     C87680   3.602   3.231   9.369  0.6212  0.2165 -0.0475
  665MOL0     C87681   3.465   3.210   9.388  0.3064 -0.1576  0.3261
  665MOL0     C87682   3.382   3.320   9.419 -0.0700  0.1977 -0.2468
  665MOL0     O87683   3.247   3.316   9.439 -0.2449  0.0464 -0.5606
  665MOL0     C87684   3.180   3.208   9.370 -0.7245 -0.3977 -0.3860
  665MOL0     C87685   3.029   3.250   9.380 -0.5774 -0.3381 -0.0503
  665MOL0     C87686   2.948   3.149   9.301 -0.6145  0.1720 -0.4501
  665MOL0     C87687   2.804   3.183   9.303  0.0218  0.3088 -0.5789
  665MOL0     C87688   2.725   3.089   9.217 -0.3878 -0.0390  0.5220
  665MOL0     C87689   2.580   3.099   9.235  0.5754 -0.1617  0.4870
  665MOL0     C87690   2.519   3.230   9.199 -0.5418  0.2787 -1.4210
  665MOL0     C87691   2.367   3.214   9.175 -0.3096  0.1113  0.1857
  665MOL0    Cl87692   2.286   3.226   9.343  0.3845  0.2589  0.3105
  665MOL0     C87693   3.447   3.437   9.446 -0.0290 -0.5109 -0.3143
  665MOL0     C87694   3.583   3.463   9.444 -0.7535  0.7705  0.5352
  665MOL0     O87695   3.846   3.565   9.359  0.0693  0.1578 -0.2109
  665MOL0     C87696   4.072   3.292   9.406 -0.1825  0.3891  0.2047
  665MOL0     C87697   4.209   3.269   9.405 -0.0741 -0.9215  0.3703
  665MOL0     N87698   5.067   3.469   9.543 -0.2390 -0.5608 -0.3143
  665MOL0     N87699   5.143   3.490   9.447  0.3638  0.2542 -0.4379
  665MOL0     C87700   4.714   2.508   9.092  0.0694  0.8295 -0.1994
  665MOL0     C87701   4.591   2.475   9.036  0.2337 -0.0100  0.8121
  665MOL0     C87702   4.160   2.582   8.925  0.0103 -0.9187  0.3305
  665MOL0     C87703   4.052   2.672   8.946  0.7524 -0.6546 -0.2139
  665MOL0     C87704   3.921   2.644   8.896  0.6366 -0.0797 -0.6520
  665MOL0     C87705   3.887   2.527   8.834 -0.1795 -1.3851 -0.0634
  665MOL0     O87706   3.756   2.532   8.798  0.5696  0.0427 -0.1023
  665MOL0     C87707   3.706   2.427   8.719 -0.1843  0.4354 -1.0634
  665MOL0     C87708   3.558   2.416   8.753 -0.5456  0.9612 -0.9687
  665MOL0     C87709   3.484   2.311   8.675 -0.0333  0.1916 -0.1288
  665MOL0     C87710   3.359   2.267   8.754  0.2025  0.2368  0.5592
  665MOL0     C87711   3.260   2.195   8.666 -0.2276 -0.1497  1.0433
  665MOL0     C87712   3.182   2.123   8.607  0.9827  0.4974  0.3631
  665MOL0     C87713   3.994   2.430   8.819 -0.7283 -0.0542 -0.0064
  665MOL0     C87714   4.128   2.456   8.863 -0.5500 -0.2188  0.1453
  665MOL0     H87715   4.542   2.734   8.838 -1.1211 -2.1676 -1.0565
  665MOL0     H87716   4.774   2.814   8.950 -0.3678  0.6272 -0.4404
  665MOL0     H87717   4.975   2.781   8.985 -1.4765 -0.0704 -0.2780
  665MOL0     H87718   5.096   2.714   9.094 -1.3725 -0.5091 -0.1081
  665MOL0     H87719   4.982   2.794   9.301 -0.6835 -0.7482  0.1058
  665MOL0     H87720   4.861   2.881   9.208  0.3417  0.4583  1.3007
  665MOL0     H87721   5.029   3.013   9.093  1.6033  1.1905  0.4103
  665MOL0     H87722   5.157   2.921   9.176  0.4477  0.9865 -0.2423
  665MOL0     H87723   4.973   3.032   9.370 -1.1399  0.0304 -1.6603
  665MOL0     H87724   5.157   3.038   9.357  0.4184 -2.9207 -0.9827
  665MOL0     H87725   5.035   3.261   9.355 -0.9643 -0.5415 -0.7570
  665MOL0     H87726   4.940   3.229   9.225 -0.4073  2.2607  0.9523
  665MOL0     H87727   5.174   3.188   9.098  0.1284 -2.2600  3.0374
  665MOL0     H87728   5.244   3.274   9.232  0.0894  0.0223 -0.1838
  665MOL0     H87729   5.194   3.428   9.042  2.5141  2.2758  3.8065
  665MOL0     H87730   5.018   3.387   9.047  0.1685  0.1202 -1.6734
  665MOL0     H87731   5.025   3.582   9.146 -0.0955  0.1155  0.3981
  665MOL0     H87732   5.193   3.581   9.194  1.5654 -1.9520 -3.3599
  665MOL0     H87733   4.845   3.510   9.301 -0.2690 -1.7134 -0.0648
  665MOL0     H87734   4.826   3.522   9.661 -0.6354  0.2085 -0.7635
  665MOL0     H87735   4.848   3.339   9.645 -1.4856  0.5371  0.7457
  665MOL0     H87736   4.665   3.502   9.465  1.1515 -0.2496 -0.0228
  665MOL0     H87737   4.617   3.438   9.613 -0.1630  1.4181 -0.7952
  665MOL0     H87738   4.727   3.288   9.371 -1.1518 -2.6408 -0.6011
  665MOL0     H87739   4.696   3.211   9.520 -3.5788 -2.2662 -1.0331
  665MOL0     H87740   4.454   3.241   9.521 -1.2224  4.1605  1.1903
  665MOL0     H87741   4.503   3.185   9.352  0.9204  1.7099 -1.5642
  665MOL0     H87742   4.324   3.577   9.325  0.6735 -0.0843  0.8482
  665MOL0     H87743   4.074   3.623   9.327 -3.2820 -1.2335  0.5324
  665MOL0     H87744   3.659   3.140   9.349 -0.9650 -0.9479  0.5567
  665MOL0     H87745   3.429   3.108   9.376  4.0032 -1.4987 -0.6734
  665MOL0     H87746   3.212   3.114   9.416  2.6110  1.3608  1.2363
  665MOL0     H87747   3.205   3.188   9.265 -0.1591 -3.5935  0.2629
  665MOL0     H87748   3.010   3.352   9.345 -1.1732 -0.2897  0.4078
  665MOL0     H87749   3.005   3.236   9.486 -1.7706 -3.8176 -0.6592
  665MOL0     H87750   2.966   3.047   9.335  0.6671  0.3772 -0.4318
  665MOL0     H87751   2.970   3.156   9.194 -1.8634  1.1654 -0.6684
  665MOL0     H87752   2.767   3.166   9.405  1.9916 -1.2729 -0.0597
  665MOL0     H87753   2.783   3.288   9.277  1.6498  0.8943  0.2990
  665MOL0     H87754   2.753   2.985   9.237  0.7320  0.2218  0.3914
  665MOL0     H87755   2.755   3.108   9.114 -0.6326 -1.9567  0.0438
  665MOL0     H87756   2.562   3.068   9.338  0.7358  3.0615  1.5942
  665MOL0     H87757   2.527   3.029   9.170 -0.9366  3.2028 -2.2714
  665MOL0     H87758   2.548   3.301   9.277  0.2268  1.1621 -2.4847
  665MOL0     H87759   2.566   3.270   9.108 -0.4158  1.0027 -1.0465
  665MOL0     H87760   2.354   3.115   9.131  2.0194  0.5260 -1.6598
  665MOL0     H87761   2.326   3.294   9.113 -2.3869 -0.0348  1.2762
  665MOL0     H87762   3.380   3.520   9.464 -0.5713 -0.7887 -0.9918
  665MOL0     H87763   3.632   3.558   9.461  1.7982 -0.0947 -1.3458
  665MOL0     H87764   4.009   3.210   9.439 -0.7978  0.0008 -1.7594
  665MOL0     H87765   4.244   3.174   9.445 -3.9420 -2.7958 -0.2106
  665MOL0     H87766   4.771   2.440   9.154  0.7420  3.2899  2.0719
  665MOL0     H87767   4.552   2.380   9.072  5.3369 -2.2602  1.2695
  665MOL0     H87768   4.063   2.759   9.011 -2.1699 -0.1897 -0.2288
  665MOL0     H87769   3.831   2.700   8.919  0.1022 -1.9740  2.5063
  665MOL0     H87770   3.757   2.334   8.744 -2.5471 -0.5252  0.4915
  665MOL0     H87771   3.712   2.448   8.611 -2.9284 -0.9028 -1.5628
  665MOL0     H87772   3.559   2.393   8.860  1.9083 -1.2252 -1.3682
  665MOL0     H87773   3.510   2.512   8.731 -0.5474  0.3973 -3.8714
  665MOL0     H87774   3.545   2.222   8.661  1.9022  1.3684  0.3862
  665MOL0     H87775   3.457   2.350   8.577  1.3864 -3.1724 -2.0055
  665MOL0     H87776   3.396   2.214   8.842  1.1627  0.1682  0.1256
  665MOL0     H87777   3.295   2.346   8.793  0.0341 -0.0229  0.8074
  665MOL0     H87778   3.120   2.043   8.572 -0.2069  0.8576  1.5651
  665MOL0     H87779   3.970   2.329   8.788 -2.5908 -0.3407  2.0897
  665MOL0     H87780   4.198   2.374   8.850  3.2554  2.4211  2.1966
  666MOL0     O87781   6.560   5.649   2.307  0.2272 -0.9086  0.0345
  666MOL0     C87782   6.578   5.567   2.392 -0.5532 -0.2098 -0.2750
  666MOL0     O87783   6.691   5.548   2.467  0.0076 -0.6076 -0.1548
  666MOL0     C87784   6.798   5.627   2.448 -0.4153  0.2515 -0.0512
  666MOL0     C87785   6.865   5.684   2.558 -1.6388 -0.4567 -0.1225
  666MOL0     C87786   6.988   5.750   2.545 -0.7463 -0.8487 -0.6146
  666MOL0     C87787   7.040   5.774   2.415  0.5190  0.0128  0.4224
  666MOL0     O87788   7.159   5.837   2.390 -0.3536 -0.2034  0.0079
  666MOL0     C87789   7.256   5.883   2.484  0.8054 -0.3363 -0.1138
  666MOL0     C87790   7.363   5.965   2.414  0.0526 -0.0775 -0.3666
  666MOL0     C87791   7.483   6.005   2.496  0.4101 -0.4112 -0.2344
  666MOL0     C87792   7.557   5.877   2.551  0.0506  0.5731 -0.2309
  666MOL0     C87793   7.700   5.892   2.619  0.0036 -0.6282 -0.3058
  666MOL0     C87794   7.802   5.962   2.531  0.0838 -0.1401  0.3963
  666MOL0     C87795   7.928   5.975   2.610 -0.2998  0.0227 -0.1110
  666MOL0     C87796   7.961   6.122   2.644  0.0497 -0.9503 -0.1088
  666MOL0     N87797   7.847   6.180   2.723 -0.7006  0.1717  0.2800
  666MOL0     C87798   7.799   6.145   2.852  0.0736  0.7457  0.0761
  666MOL0     C87799   7.692   6.221   2.873 -0.1318 -0.2997  0.1200
  666MOL0     C87800   7.606   6.219   3.004 -0.0826  0.3172  0.2780
  666MOL0     C87801   7.454   6.225   2.989  0.5139  0.0510 -0.8406
  666MOL0     C87802   7.400   6.114   2.895  0.7430 -0.0559 -0.3646
  666MOL0     C87803   7.279   6.145   2.807 -0.3807 -0.1802  0.7488
  666MOL0     O87804   7.171   6.210   2.877  0.1969 -0.3637  0.0804
  666MOL0     C87805   7.058   6.129   2.884  0.0726 -0.1255  0.1477
  666MOL0     C87806   6.952   6.158   2.795  0.0290 -0.1107  0.2484
  666MOL0     C87807   6.840   6.070   2.792  0.3983 -0.4168  0.6679
  666MOL0     C87808   6.825   5.953   2.872 -0.3393 -0.1082  0.0131
  666MOL0     C87809   6.704   5.868   2.868 -0.6831  0.1599 -0.3091
  666MOL0     O87810   6.603   5.912   2.792  0.7998 -0.4099 -0.0273
  666MOL0     C87811   6.485   5.851   2.818 -0.6916 -0.3451 -0.2626
  666MOL0     C87812   6.402   5.899   2.919 -0.1582  0.2220  0.2664
  666MOL0     C87813   6.284   5.835   2.958 -0.7215  0.9978 -0.1949
  666MOL0     C87814   6.247   5.711   2.904 -0.7586  0.5007  0.1334
  666MOL0     O87815   6.138   5.645   2.952 -0.2167 -0.1756 -0.7913
  666MOL0     C87816   6.064   5.543   2.879 -0.6917  0.2324 -0.4340
  666MOL0     C87817   5.977   5.459   2.966  0.0300 -0.0167 -0.0734
  666MOL0     C87818   5.943   5.321   2.908 -0.6018  0.5856 -0.0915
  666MOL0     C87819   5.852   5.236   3.002  1.0426  0.0664 -0.8875
  666MOL0     C87820   5.707   5.295   3.023 -0.4278  0.6298 -0.4812
  666MOL0     C87821   5.637   5.334   2.892  0.2886 -0.3191 -0.6186
  666MOL0     C87822   5.487   5.371   2.912  0.2565 -0.1177 -0.5099
  666MOL0     C87823   5.416   5.354   2.769  0.0617 -0.4109 -0.3644
  666MOL0    Cl87824   5.426   5.510   2.674 -0.2447  0.0800 -0.6098
  666MOL0     C87825   6.334   5.665   2.801 -0.6956  0.8549  0.4221
  666MOL0     C87826   6.452   5.732   2.759  0.5313 -0.3764 -0.0942
  666MOL0     O87827   6.701   5.777   2.947 -0.6272  0.2797 -0.2189
  666MOL0     C87828   6.931   5.931   2.966 -0.3247  0.2426 -0.1310
  666MOL0     C87829   7.051   6.017   2.969  0.2301  0.5117  0.0878
  666MOL0     N87830   7.675   6.307   2.771  0.5074  1.0779 -0.3648
  666MOL0     N87831   7.775   6.285   2.683  0.2731  0.5130 -0.0913
  666MOL0     C87832   6.961   5.732   2.300 -0.2342  0.1161 -0.4377
  666MOL0     C87833   6.849   5.652   2.313 -0.3272 -0.1018 -0.3758
  666MOL0     C87834   6.461   5.484   2.434 -0.2277 -0.2554 -1.1508
  666MOL0     C87835   6.333   5.503   2.377 -0.5047 -0.4459 -0.1710
  666MOL0     C87836   6.227   5.417   2.414  0.5044 -0.1960  0.6116
  666MOL0     C87837   6.244   5.304   2.500 -0.3643 -0.9039 -0.2467
  666MOL0     O87838   6.130   5.230   2.521  0.0820 -0.6919  0.0654
  666MOL0     C87839   6.116   5.153   2.635  0.3686 -1.2206  0.3771
  666MOL0     C87840   6.183   5.016   2.653  0.4560 -0.1875 -0.5897
  666MOL0     C87841   6.144   4.920   2.549 -0.4897 -0.3017 -0.2341
  666MOL0     C87842   6.202   4.936   2.407 -0.2516  0.4095  0.2267
  666MOL0     C87843   6.194   4.808   2.331 -0.2224  0.9988 -0.4535
  666MOL0     C87844   6.164   4.704   2.274  1.0111 -0.4580  0.6716
  666MOL0     C87845   6.367   5.271   2.535  0.2342  0.5135 -0.5048
  666MOL0     C87846   6.470   5.357   2.502 -0.3622 -0.9045  0.5379
  666MOL0     H87847   6.826   5.657   2.656 -1.8791 -1.7084 -0.5501
  666MOL0     H87848   7.039   5.784   2.634  0.1523  0.1943 -1.4975
  666MOL0     H87849   7.285   5.786   2.527  0.2236 -1.3426 -1.8904
  666MOL0     H87850   7.213   5.952   2.557 -0.7465  0.8072 -2.0152
  666MOL0     H87851   7.319   6.061   2.385 -5.1319 -1.5189  1.7000
  666MOL0     H87852   7.386   5.905   2.326 -1.4529 -3.0310  1.1121
  666MOL0     H87853   7.456   6.069   2.581  0.0836 -0.0269 -0.6262
  666MOL0     H87854   7.547   6.061   2.428 -2.0054  1.6358 -0.9653
  666MOL0     H87855   7.496   5.813   2.616  0.1523 -1.3681 -1.9350
  666MOL0     H87856   7.570   5.815   2.461 -4.1665 -0.7160 -0.1724
  666MOL0     H87857   7.738   5.794   2.648  0.1339 -0.2242  0.9399
  666MOL0     H87858   7.692   5.956   2.708  2.7189 -1.2184  0.4477
  666MOL0     H87859   7.773   6.058   2.486  1.4146 -1.1207 -2.8668
  666MOL0     H87860   7.836   5.896   2.450 -1.0618 -0.2327 -0.0368
  666MOL0     H87861   7.925   5.913   2.700 -0.6188  0.5941  0.2802
  666MOL0     H87862   8.011   5.939   2.549 -0.8640  1.7593 -2.0124
  666MOL0     H87863   7.982   6.172   2.549  2.9295  0.1964  1.0026
  666MOL0     H87864   8.053   6.120   2.704  3.0522  1.2330 -4.1280
  666MOL0     H87865   7.839   6.061   2.907  2.5763  0.3783 -2.0766
  666MOL0     H87866   7.639   6.302   3.067  2.2779 -1.2827  1.2530
  666MOL0     H87867   7.642   6.137   3.066 -0.8070 -1.1384 -1.1393
  666MOL0     H87868   7.414   6.322   2.959  1.9999  1.3923  1.2265
  666MOL0     H87869   7.409   6.208   3.087 -1.9727  3.8092 -1.1174
  666MOL0     H87870   7.481   6.106   2.821 -1.3119  0.1839 -2.7982
  666MOL0     H87871   7.389   6.016   2.941 -0.3093  0.0399 -0.3840
  666MOL0     H87872   7.256   6.061   2.742 -2.5504 -1.1323  2.6053
  666MOL0     H87873   7.308   6.223   2.736  1.3779 -2.1360 -0.8100
  666MOL0     H87874   6.948   6.248   2.735 -0.8131 -0.9664 -1.0513
  666MOL0     H87875   6.757   6.093   2.726 -1.2299 -4.3049  1.1097
  666MOL0     H87876   6.441   5.983   2.976  1.7763  0.5693 -1.4276
  666MOL0     H87877   6.225   5.885   3.034  0.0499  1.6107  0.0055
  666MOL0     H87878   6.139   5.477   2.835  0.9376  2.1701 -0.7162
  666MOL0     H87879   6.007   5.579   2.793  0.9703 -0.0373 -1.7079
  666MOL0     H87880   5.898   5.517   3.016 -1.1845 -2.2006  0.6699
  666MOL0     H87881   6.038   5.430   3.052 -0.7307  1.6319  1.0777
  666MOL0     H87882   6.037   5.265   2.897 -0.6797  0.3027  0.6370
  666MOL0     H87883   5.906   5.338   2.806 -0.2653  2.7761  0.1077
  666MOL0     H87884   5.856   5.135   2.958 -0.9919  0.8949 -3.2217
  666MOL0     H87885   5.898   5.215   3.099  0.6521 -2.3990 -1.1510
  666MOL0     H87886   5.721   5.383   3.086  0.6085 -1.5451  2.5492
  666MOL0     H87887   5.642   5.225   3.077 -3.2986  1.5712 -2.4399
  666MOL0     H87888   5.638   5.242   2.831 -0.9341 -0.9955  0.3366
  666MOL0     H87889   5.686   5.415   2.838  1.8987 -0.8128  0.0456
  666MOL0     H87890   5.445   5.300   2.984 -1.1120 -3.2170 -4.0192
  666MOL0     H87891   5.471   5.476   2.937 -0.9887  0.1891 -2.3468
  666MOL0     H87892   5.308   5.333   2.772  0.0113 -0.3359 -1.2666
  666MOL0     H87893   5.453   5.273   2.706  0.7253  0.1772 -0.7463
  666MOL0     H87894   6.314   5.568   2.755  1.2920  0.9245 -0.6744
  666MOL0     H87895   6.533   5.709   2.691 -0.0632  1.3438 -1.4592
  666MOL0     H87896   6.937   5.844   3.031 -2.7892  0.6658  0.7877
  666MOL0     H87897   7.127   5.988   3.042 -0.1757 -2.7501 -0.6263
  666MOL0     H87898   7.009   5.755   2.205 -0.9647 -0.1592 -0.8830
  666MOL0     H87899   6.806   5.605   2.225 -1.5500  2.8103 -1.4467
  666MOL0     H87900   6.309   5.577   2.301  0.7687  2.4733  2.0882
  666MOL0     H87901   6.128   5.426   2.370  1.1449  1.0025 -0.6864
  666MOL0     H87902   6.011   5.137   2.658  0.1254 -0.5433 -0.2176
  666MOL0     H87903   6.164   5.214   2.712  1.4595 -1.6493  0.0631
  666MOL0     H87904   6.292   5.023   2.664  0.2754  3.4291  0.1401
  666MOL0     H87905   6.141   4.977   2.745 -1.6892 -1.2109 -1.9419
  666MOL0     H87906   6.035   4.915   2.540 -0.4507  0.9007 -1.8279
  666MOL0     H87907   6.188   4.824   2.579 -2.6010 -0.4625  2.8567
  666MOL0     H87908   6.140   5.016   2.364 -0.6231 -0.7335 -1.4500
  666MOL0     H87909   6.307   4.965   2.409  0.0604 -0.5063 -1.1875
  666MOL0     H87910   6.135   4.614   2.225  1.3943 -0.7983  1.0655
  666MOL0     H87911   6.396   5.184   2.592  0.4779 -1.7267 -3.7793
  666MOL0     H87912   6.565   5.331   2.547  1.2260  0.7358 -1.6522
  667MOL0     O87913   9.878   4.744   8.827  0.4214 -1.1198 -0.2721
  667MOL0     C87914   9.946   4.644   8.856  0.3861 -0.6747  0.3194
  667MOL0     O87915   9.893   4.532   8.896 -0.5376 -0.0051 -0.7296
  667MOL0     C87916   9.758   4.494   8.866 -0.0414 -0.2094  0.7599
  667MOL0     C87917   9.670   4.467   8.973  0.2315 -0.0915  0.7179
  667MOL0     C87918   9.531   4.453   8.942 -0.3955 -0.0264  1.3239
  667MOL0     C87919   9.481   4.456   8.810  0.8808  0.7059 -0.3246
  667MOL0     O87920   9.353   4.439   8.773 -0.1731 -0.5585  0.4853
  667MOL0     C87921   9.290   4.311   8.819 -0.5395  0.0041  0.7780
  667MOL0     C87922   9.327   4.207   8.722  0.8989  0.2454 -0.0475
  667MOL0     C87923   9.233   4.082   8.743  0.5487 -0.0272 -0.6617
  667MOL0     C87924   9.287   3.993   8.849 -0.6481  0.8856 -0.8672
  667MOL0     C87925   9.195   3.875   8.894  1.0914 -0.7801 -0.1078
  667MOL0     C87926   9.146   3.774   8.782 -0.3272  0.0063 -0.0891
  667MOL0     C87927   9.056   3.667   8.839  0.0506  0.0652  0.7665
  667MOL0     C87928   9.006   3.572   8.728 -1.3180  0.2418 -0.2775
  667MOL0     N87929   8.866   3.623   8.690  0.6177  0.2349 -0.2209
  667MOL0     C87930   8.755   3.597   8.764 -0.2437 -0.6430  0.5574
  667MOL0     C87931   8.651   3.593   8.676  0.5933  0.1210  0.0224
  667MOL0     C87932   8.503   3.574   8.719  0.2881  0.9818  0.8033
  667MOL0     C87933   8.398   3.667   8.656 -0.4974 -1.0500  0.3190
  667MOL0     C87934   8.274   3.691   8.740  0.0843  0.4490  0.1180
  667MOL0     C87935   8.196   3.811   8.702 -0.1936  0.2316 -0.2212
  667MOL0     O87936   8.140   3.802   8.574 -0.0601 -1.0848 -0.2020
  667MOL0     C87937   8.024   3.855   8.554 -0.4691  0.0588 -0.7370
  667MOL0     C87938   8.021   3.991   8.540 -0.3456  0.2827  0.1641
  667MOL0     C87939   7.898   4.052   8.520  0.9459 -0.3375  0.6825
  667MOL0     C87940   7.780   3.968   8.521 -0.2180 -0.3072  0.9894
  667MOL0     C87941   7.653   4.036   8.504  0.6003  0.5901 -0.0335
  667MOL0     O87942   7.630   4.169   8.539  0.0609 -0.7467 -0.1354
  667MOL0     C87943   7.498   4.216   8.537  0.1818 -0.5766 -0.6324
  667MOL0     C87944   7.437   4.287   8.434 -0.3453 -0.3439  0.0936
  667MOL0     C87945   7.311   4.342   8.443  0.6696  0.2513  0.1226
  667MOL0     C87946   7.231   4.315   8.557 -0.0735 -0.8930 -0.5585
  667MOL0     O87947   7.108   4.361   8.568  0.1209 -0.4995 -0.7921
  667MOL0     C87948   7.028   4.410   8.464 -1.2046  0.3374  0.4032
  667MOL0     C87949   6.891   4.425   8.522  0.2109 -0.5431  0.0126
  667MOL0     C87950   6.793   4.441   8.411 -0.1841 -0.4178  0.4974
  667MOL0     C87951   6.657   4.448   8.466 -0.3860 -1.2542 -0.5852
  667MOL0     C87952   6.564   4.432   8.347  0.5664  0.3384 -0.2026
  667MOL0     C87953   6.425   4.429   8.394  0.8108 -0.0053 -0.3360
  667MOL0     C87954   6.326   4.478   8.294 -0.5079 -1.2480  0.0653
  667MOL0     C87955   6.197   4.516   8.358  0.6104  0.7581 -0.1067
  667MOL0    Cl87956   6.129   4.392   8.469 -0.3215  0.4239 -0.3618
  667MOL0     C87957   7.288   4.246   8.659  0.3319  0.2264  0.3270
  667MOL0     C87958   7.419   4.193   8.647  0.0065 -0.0003 -0.0185
  667MOL0     O87959   7.558   3.959   8.471  0.1821 -0.2069 -0.1075
  667MOL0     C87960   7.784   3.829   8.539  1.0914 -0.2700 -0.7338
  667MOL0     C87961   7.908   3.774   8.563 -0.8128 -1.0251 -0.2751
  667MOL0     N87962   8.703   3.622   8.555 -0.2639  0.6640 -0.2416
  667MOL0     N87963   8.830   3.645   8.559  0.1537  0.1417 -0.5263
  667MOL0     C87964   9.574   4.480   8.711 -1.0006  0.6419 -0.2159
  667MOL0     C87965   9.706   4.497   8.731 -0.6498 -0.1572 -0.7690
  667MOL0     C87966  10.095   4.654   8.866  0.1228 -0.0661 -0.9548
  667MOL0     C87967  10.171   4.733   8.784 -0.0080 -1.0075  0.1857
  667MOL0     C87968  10.306   4.740   8.787 -0.4019  0.2415 -0.2820
  667MOL0     C87969  10.375   4.683   8.902 -1.1834  0.0777  0.3622
  667MOL0     O87970  10.515   4.707   8.901 -0.1425 -0.0797 -0.0266
  667MOL0     C87971  10.588   4.621   8.987  0.3159  1.0243  0.5525
  667MOL0     C87972  10.725   4.630   8.971  0.6094 -0.6837 -0.4571
  667MOL0     C87973  10.778   4.578   8.845  0.0198 -1.1328  0.6576
  667MOL0     C87974  10.926   4.619   8.837  0.2862  0.1011  1.2317
  667MOL0     C87975  10.981   4.570   8.713  0.6075 -0.4674 -0.0781
  667MOL0     C87976  11.033   4.536   8.610 -0.2350 -0.3723 -0.0629
  667MOL0     C87977  10.308   4.606   8.991  0.1265  0.4871 -0.4288
  667MOL0     C87978  10.171   4.580   8.968  0.5555  0.1215  0.5898
  667MOL0     H87979   9.702   4.479   9.076  3.7038  1.5794 -0.4211
  667MOL0     H87980   9.449   4.440   9.012 -1.8644  2.7451  0.2567
  667MOL0     H87981   9.183   4.321   8.837 -0.4830 -0.6451  1.5259
  667MOL0     H87982   9.327   4.276   8.916  0.4755 -2.0554 -0.2799
  667MOL0     H87983   9.429   4.168   8.717  0.6854 -0.3192 -0.1275
  667MOL0     H87984   9.295   4.239   8.622  0.4110  0.0176  0.0337
  667MOL0     H87985   9.235   4.030   8.647  0.1734  2.4357 -2.0775
  667MOL0     H87986   9.128   4.105   8.764 -0.0893 -3.5687  0.8149
  667MOL0     H87987   9.379   3.942   8.817 -2.1073 -2.5054 -0.1140
  667MOL0     H87988   9.303   4.054   8.938  1.4805  0.8792 -1.1830
  667MOL0     H87989   9.111   3.917   8.950  0.7233 -2.5697  0.7419
  667MOL0     H87990   9.242   3.815   8.973 -0.4215 -2.5885 -0.5183
  667MOL0     H87991   9.231   3.713   8.748  0.1203  0.2276  0.6073
  667MOL0     H87992   9.098   3.828   8.700  3.7488  1.0780 -2.0292
  667MOL0     H87993   9.115   3.607   8.909  0.2851 -0.4751  0.1192
  667MOL0     H87994   8.965   3.702   8.887 -0.7988  0.1534 -0.8357
  667MOL0     H87995   9.003   3.475   8.778  0.4699 -0.4046 -1.3244
  667MOL0     H87996   9.069   3.581   8.639 -2.0925 -0.6536 -0.9343
  667MOL0     H87997   8.743   3.575   8.869 -2.6521 -0.3878  0.3958
  667MOL0     H87998   8.495   3.571   8.828 -1.7620 -3.1521  0.7448
  667MOL0     H87999   8.464   3.476   8.690  0.0239  0.9107  1.3875
  667MOL0     H88000   8.383   3.643   8.550  2.0155 -0.2827 -0.2912
  667MOL0     H88001   8.446   3.766   8.649 -2.9316  0.1593 -0.3150
  667MOL0     H88002   8.217   3.603   8.710 -0.2039  0.1017  1.6168
  667MOL0     H88003   8.306   3.683   8.844 -0.4870  1.1487  0.3533
  667MOL0     H88004   8.264   3.897   8.710  1.8063 -1.1291 -1.6564
  667MOL0     H88005   8.117   3.824   8.776  1.1272  2.5556  0.9084
  667MOL0     H88006   8.112   4.049   8.533  0.7513 -1.3123  0.5735
  667MOL0     H88007   7.890   4.156   8.489 -1.2958 -1.5182 -3.5169
  667MOL0     H88008   7.486   4.298   8.337 -0.7252  0.8479  0.0206
  667MOL0     H88009   7.262   4.402   8.366 -0.4484 -0.4004  0.3066
  667MOL0     H88010   7.029   4.342   8.378  0.9203 -0.2829  0.8643
  667MOL0     H88011   7.057   4.512   8.438 -2.3369  0.5282 -0.1682
  667MOL0     H88012   6.888   4.510   8.591 -2.0731 -1.4736  1.1776
  667MOL0     H88013   6.869   4.339   8.587  1.4361 -2.0176 -1.4135
  667MOL0     H88014   6.800   4.354   8.344  2.2158 -0.8650  1.2468
  667MOL0     H88015   6.810   4.529   8.348  0.1108 -2.0125 -1.7650
  667MOL0     H88016   6.634   4.379   8.548  0.2403 -1.6708 -0.7552
  667MOL0     H88017   6.646   4.548   8.511 -0.8841  1.0428 -5.2331
  667MOL0     H88018   6.592   4.342   8.292  2.6690 -0.9075  2.6622
  667MOL0     H88019   6.578   4.513   8.274 -0.9148 -0.3596 -1.3144
  667MOL0     H88020   6.410   4.487   8.486 -0.2596 -1.3450  0.3686
  667MOL0     H88021   6.416   4.324   8.421  1.2991  0.3098  1.1694
  667MOL0     H88022   6.370   4.565   8.244 -1.6177 -1.0103 -0.5060
  667MOL0     H88023   6.303   4.405   8.216 -3.0700 -1.6514  1.1208
  667MOL0     H88024   6.128   4.526   8.273 -0.1041  1.0500  0.5027
  667MOL0     H88025   6.209   4.608   8.414  1.3407  0.3965  0.3323
  667MOL0     H88026   7.225   4.237   8.747  0.4877  0.8001  0.5042
  667MOL0     H88027   7.471   4.157   8.735 -1.1021  1.0642  1.1152
  667MOL0     H88028   7.699   3.763   8.553  0.2229  0.5880 -1.8453
  667MOL0     H88029   7.921   3.673   8.600 -0.6277 -0.9834 -0.2229
  667MOL0     H88030   9.532   4.496   8.612 -1.2457  0.6691 -0.1067
  667MOL0     H88031   9.772   4.499   8.645 -0.1683  0.6864 -0.3957
  667MOL0     H88032  10.117   4.793   8.711  0.5857  0.6601  1.0684
  667MOL0     H88033  10.361   4.811   8.726 -0.3145  1.0447  0.7014
  667MOL0     H88034  10.562   4.516   8.972  4.0364 -0.5032  3.3092
  667MOL0     H88035  10.564   4.647   9.091 -0.4998 -3.0258  1.5739
  667MOL0     H88036  10.751   4.735   8.982  1.2317 -0.4625 -3.1740
  667MOL0     H88037  10.778   4.575   9.050  1.1261  1.9160  1.1069
  667MOL0     H88038  10.719   4.627   8.766  0.7746 -0.7456  0.3229
  667MOL0     H88039  10.772   4.469   8.845  0.2009 -1.2373 -2.2624
  667MOL0     H88040  10.937   4.728   8.828 -2.2522  0.3869  0.7684
  667MOL0     H88041  10.981   4.586   8.925  2.6038  0.2944 -0.0765
  667MOL0     H88042  11.084   4.512   8.519 -0.3408  0.8688 -0.4713
  667MOL0     H88043  10.357   4.563   9.077  1.4686  0.8059 -1.0127
  667MOL0     H88044  10.118   4.518   9.041 -1.0795  0.4053 -0.3044
  668MOL0     O88045   4.082   4.410   7.291 -0.6407 -0.6985  0.3831
  668MOL0     C88046   4.050   4.383   7.175  0.2217 -0.1260 -0.8929
  668MOL0     O88047   3.924   4.343   7.136  0.0428 -0.0292  0.0371
  668MOL0     C88048   3.821   4.335   7.219  0.4605  0.1481 -0.9607
  668MOL0     C88049   3.801   4.231   7.305 -0.0137 -0.1352 -0.0715
  668MOL0     C88050   3.687   4.231   7.391  0.8228  0.9117  0.0858
  668MOL0     C88051   3.589   4.333   7.383 -0.5029  0.4117 -0.6049
  668MOL0     O88052   3.476   4.290   7.458 -0.2763 -0.7553  0.4708
  668MOL0     C88053   3.359   4.372   7.438  0.8579 -0.7184 -0.1501
  668MOL0     C88054   3.253   4.327   7.548 -0.0925 -0.0968 -0.3356
  668MOL0     C88055   3.188   4.193   7.522 -0.3663 -0.1587  0.1069
  668MOL0     C88056   3.074   4.180   7.620 -0.8838 -0.2090  0.6122
  668MOL0     C88057   3.009   4.047   7.596 -0.1055 -0.6056 -0.8111
  668MOL0     C88058   2.895   4.022   7.695 -0.7193 -0.6490 -0.5540
  668MOL0     C88059   2.808   3.896   7.685 -0.7444  0.3971  0.0107
  668MOL0     C88060   2.888   3.778   7.754  0.6229  0.7355  0.3501
  668MOL0     N88061   2.805   3.661   7.790 -0.5202  0.1234  0.1624
  668MOL0     C88062   2.816   3.537   7.731 -0.2409 -0.0403  0.5233
  668MOL0     C88063   2.731   3.459   7.798 -0.6595 -0.1805 -0.3986
  668MOL0     C88064   2.690   3.316   7.763  0.3746 -0.6300 -0.0827
  668MOL0     C88065   2.550   3.317   7.700  0.4470 -0.7244 -1.0849
  668MOL0     C88066   2.507   3.177   7.664  0.2595  0.1805  0.5229
  668MOL0     C88067   2.359   3.176   7.614  0.0360  0.0963 -0.0460
  668MOL0     O88068   2.362   3.208   7.476 -0.5603  0.0817  0.1796
  668MOL0     C88069   2.254   3.219   7.397 -0.1616  0.7845  0.0782
  668MOL0     C88070   2.273   3.286   7.274  0.0566 -0.4888 -0.0794
  668MOL0     C88071   2.169   3.290   7.183  0.0290 -0.4317  0.0066
  668MOL0     C88072   2.049   3.243   7.208  0.3375 -0.5732  0.1674
  668MOL0     C88073   1.934   3.269   7.120  0.0476  0.4874  0.9921
  668MOL0     O88074   1.827   3.210   7.153  0.1189 -0.2030 -0.3575
  668MOL0     C88075   1.716   3.228   7.080  0.5631 -0.4145 -0.1464
  668MOL0     C88076   1.640   3.342   7.115  0.7179 -0.1446  0.0607
  668MOL0     C88077   1.507   3.352   7.065  0.2581 -0.4207  0.2817
  668MOL0     C88078   1.451   3.251   6.992  0.9226 -0.2651 -0.2712
  668MOL0     O88079   1.324   3.254   6.937  0.3859 -0.2974 -1.0352
  668MOL0     C88080   1.232   3.363   6.958  0.1836 -0.1234 -0.9514
  668MOL0     C88081   1.114   3.336   6.871  0.4158  0.9844  0.0544
  668MOL0     C88082   1.072   3.471   6.813  0.1943 -0.6093  0.8346
  668MOL0     C88083   0.932   3.480   6.744  0.0806  0.3577  0.5182
  668MOL0     C88084   0.931   3.413   6.602  0.0592  0.0681 -0.1227
  668MOL0     C88085   1.026   3.468   6.500  0.1766 -0.6153  0.4060
  668MOL0     C88086   1.003   3.384   6.372 -0.3578 -0.0532  0.0458
  668MOL0     C88087   0.886   3.434   6.276  0.5136  0.2036 -0.6176
  668MOL0    Cl88088   0.821   3.294   6.201  0.0785 -0.0653  0.7316
  668MOL0     C88089   1.523   3.139   6.966 -0.3521 -0.8086  0.6087
  668MOL0     C88090   1.662   3.125   7.004  0.0857 -0.3977 -0.1340
  668MOL0     O88091   1.947   3.338   7.022 -0.4216  0.3247 -0.1719
  668MOL0     C88092   2.024   3.184   7.335 -0.1891  0.2043  0.2113
  668MOL0     C88093   2.129   3.172   7.431 -0.3099  1.0024 -0.5541
  668MOL0     N88094   2.660   3.537   7.892  0.6384 -0.1355  0.5901
  668MOL0     N88095   2.713   3.652   7.886 -0.1887 -0.7757 -0.0613
  668MOL0     C88096   3.606   4.435   7.288 -0.7323 -0.3775 -0.3400
  668MOL0     C88097   3.728   4.438   7.217  0.4543  0.0532  1.0839
  668MOL0     C88098   4.153   4.372   7.077 -0.4803  0.6146  0.7695
  668MOL0     C88099   4.128   4.354   6.938  0.1182  0.0564 -0.1296
  668MOL0     C88100   4.229   4.361   6.841  0.1828  0.1725  0.9304
  668MOL0     C88101   4.359   4.388   6.874  0.9527  0.2908  0.2641
  668MOL0     O88102   4.453   4.384   6.770  1.1721 -0.3844 -0.1310
  668MOL0     C88103   4.592   4.383   6.799 -0.6543  0.4192 -0.2495
  668MOL0     C88104   4.648   4.295   6.687 -0.1435 -0.0006 -0.2853
  668MOL0     C88105   4.787   4.274   6.689  0.1412 -0.5947 -0.3343
  668MOL0     C88106   4.872   4.405   6.672  0.0110  0.8729 -1.1691
  668MOL0     C88107   5.014   4.367   6.657 -0.1169 -0.4808  0.7003
  668MOL0     C88108   5.131   4.334   6.653  0.2592 -0.1159  0.6741
  668MOL0     C88109   4.387   4.401   7.009  0.0981  0.6599 -0.2885
  668MOL0     C88110   4.291   4.401   7.111 -0.0124 -0.4785 -0.7363
  668MOL0     H88111   3.868   4.146   7.297  0.4196  0.3352 -1.6323
  668MOL0     H88112   3.674   4.141   7.451 -0.3627  1.2791  0.3972
  668MOL0     H88113   3.323   4.357   7.336 -0.7391 -0.1306  0.3125
  668MOL0     H88114   3.391   4.474   7.462  0.4215 -0.6699  0.2226
  668MOL0     H88115   3.178   4.407   7.554  1.1433  1.2878 -2.3040
  668MOL0     H88116   3.307   4.332   7.643  0.3685 -0.1893 -0.5897
  668MOL0     H88117   3.260   4.111   7.522  2.1016  1.8812  0.7883
  668MOL0     H88118   3.148   4.198   7.420  0.0461  0.4672 -0.0229
  668MOL0     H88119   3.113   4.193   7.721  0.0643 -0.5468  0.3057
  668MOL0     H88120   3.005   4.262   7.601  0.7116  1.3685  1.3356
  668MOL0     H88121   3.087   3.972   7.612 -0.3159 -0.5556  0.5708
  668MOL0     H88122   2.972   4.021   7.496  1.4123 -2.4041 -0.9735
  668MOL0     H88123   2.828   4.108   7.694 -0.9553 -0.7946  0.5777
  668MOL0     H88124   2.937   4.026   7.796  1.1002 -3.6350 -1.0643
  668MOL0     H88125   2.706   3.918   7.719 -2.0347 -3.5200 -0.8437
  668MOL0     H88126   2.803   3.878   7.577  3.1230  0.7244 -0.3769
  668MOL0     H88127   2.946   3.821   7.836 -1.7339  0.9584  2.0086
  668MOL0     H88128   2.962   3.747   7.679  0.5223 -0.9254  0.8858
  668MOL0     H88129   2.884   3.491   7.660 -1.8248  0.5847 -1.4739
  668MOL0     H88130   2.678   3.260   7.857 -0.2419  1.8691  1.4472
  668MOL0     H88131   2.756   3.256   7.699 -0.2849  0.2692 -1.6328
  668MOL0     H88132   2.551   3.375   7.607 -1.5176 -0.8501 -1.2370
  668MOL0     H88133   2.476   3.371   7.759 -1.2506 -0.2578 -3.4873
  668MOL0     H88134   2.565   3.137   7.581  2.2122 -0.1815  1.9741
  668MOL0     H88135   2.497   3.112   7.752 -2.3966  3.2396  2.7614
  668MOL0     H88136   2.298   3.254   7.661  1.5367 -0.5069  3.1363
  668MOL0     H88137   2.316   3.077   7.636 -1.8618  0.9263  0.2431
  668MOL0     H88138   2.370   3.329   7.253 -0.4251  1.9378  2.1234
  668MOL0     H88139   2.170   3.348   7.091 -1.9785 -1.3100 -0.6322
  668MOL0     H88140   1.679   3.418   7.183 -2.0280 -0.1696  1.7826
  668MOL0     H88141   1.450   3.441   7.091  1.7683 -0.1742  3.2089
  668MOL0     H88142   1.291   3.449   6.924  2.2260 -1.0013  0.1812
  668MOL0     H88143   1.206   3.380   7.063  4.6546  0.8155  0.2169
  668MOL0     H88144   1.032   3.276   6.912  0.2929 -0.2809 -1.8922
  668MOL0     H88145   1.154   3.283   6.784  2.5349 -0.0757  1.5724
  668MOL0     H88146   1.151   3.516   6.752  0.2566 -0.8882  0.7088
  668MOL0     H88147   1.068   3.543   6.896  1.9205 -3.5844  3.7518
  668MOL0     H88148   0.867   3.425   6.813 -0.1803  3.1946  2.7348
  668MOL0     H88149   0.894   3.582   6.734  0.1466  0.4974  1.5925
  668MOL0     H88150   0.826   3.427   6.575 -0.4712  2.8363  2.7283
  668MOL0     H88151   0.947   3.306   6.621  1.6673  0.4162  0.6365
  668MOL0     H88152   1.130   3.469   6.532  0.6151 -0.1775 -0.9526
  668MOL0     H88153   0.994   3.570   6.474  0.9868 -1.0453 -2.6803
  668MOL0     H88154   1.094   3.383   6.312 -0.2379 -0.2940  0.2288
  668MOL0     H88155   0.996   3.278   6.399 -0.0119  0.2924  1.5702
  668MOL0     H88156   0.917   3.510   6.203 -2.0409  2.8351  0.8161
  668MOL0     H88157   0.807   3.486   6.331  1.6924 -0.5451  1.9009
  668MOL0     H88158   1.474   3.058   6.913 -2.8247  1.7057 -1.2716
  668MOL0     H88159   1.704   3.025   6.992 -0.6520 -0.5356 -2.0027
  668MOL0     H88160   1.925   3.142   7.350 -0.1982 -0.5878 -1.7767
  668MOL0     H88161   2.117   3.126   7.529  3.9115  2.1935  0.7284
  668MOL0     H88162   3.540   4.520   7.275 -0.0204  1.1239  4.0910
  668MOL0     H88163   3.747   4.521   7.150 -1.2700  0.1032  0.6004
  668MOL0     H88164   4.026   4.332   6.910  0.0654  1.1302 -0.8456
  668MOL0     H88165   4.210   4.347   6.735  1.1345 -0.9754  0.8921
  668MOL0     H88166   4.595   4.330   6.894  0.3591 -3.3321 -2.1713
  668MOL0     H88167   4.646   4.479   6.797 -0.5977  0.4434 -3.9404
  668MOL0     H88168   4.599   4.198   6.686  0.1639 -0.1894  1.0578
  668MOL0     H88169   4.628   4.342   6.590 -1.0320 -3.2807 -1.8246
  668MOL0     H88170   4.824   4.203   6.613 -0.5476  0.8038 -2.0458
  668MOL0     H88171   4.817   4.239   6.788 -0.5626  1.9894  0.8699
  668MOL0     H88172   4.837   4.453   6.580 -0.9854  4.1119  0.7684
  668MOL0     H88173   4.847   4.478   6.749  1.0452  1.3381 -1.2546
  668MOL0     H88174   5.230   4.295   6.639 -0.9467 -2.5163 -2.2202
  668MOL0     H88175   4.485   4.426   7.047  1.1643 -0.1051 -2.4140
  668MOL0     H88176   4.316   4.420   7.215  0.9405  4.5189 -1.6033
  669MOL0     O88177   6.655   8.783   4.355  0.2662  0.3819  0.2128
  669MOL0     C88178   6.653   8.854   4.252  0.7077  0.2233 -0.9647
  669MOL0     O88179   6.593   8.809   4.137 -0.3648  0.0546 -0.6554
  669MOL0     C88180   6.485   8.719   4.140  0.2069 -0.9721  0.5615
  669MOL0     C88181   6.472   8.644   4.025  0.8547 -0.0980 -0.1711
  669MOL0     C88182   6.365   8.554   4.022 -0.4949  0.2853  0.4221
  669MOL0     C88183   6.277   8.534   4.134 -0.5256  0.2863  0.1633
  669MOL0     O88184   6.182   8.436   4.149 -0.1377 -1.1079 -0.0741
  669MOL0     C88185   6.096   8.415   4.034 -0.2603  0.7716 -0.3790
  669MOL0     C88186   5.991   8.311   4.089 -0.9630 -0.0131 -0.2469
  669MOL0     C88187   5.906   8.250   3.978  0.4831 -0.3123  0.9037
  669MOL0     C88188   5.778   8.173   4.032 -0.4716  0.4090 -0.5216
  669MOL0     C88189   5.695   8.151   3.907 -0.3412  0.3092 -0.7103
  669MOL0     C88190   5.563   8.078   3.939  0.0226  0.9146  0.1787
  669MOL0     C88191   5.487   8.083   3.808 -0.4194  0.4565  0.2663
  669MOL0     C88192   5.353   8.016   3.832 -0.5278  0.9353  0.7227
  669MOL0     N88193   5.285   8.002   3.702  0.2873 -0.1860  0.1248
  669MOL0     C88194   5.222   8.101   3.626  0.1779 -0.0325 -0.7565
  669MOL0     C88195   5.166   8.038   3.526  0.1702 -0.0247  0.6319
  669MOL0     C88196   5.068   8.088   3.418  0.0590  0.0948 -1.0258
  669MOL0     C88197   4.919   8.042   3.444  1.2000 -0.3284  0.1775
  669MOL0     C88198   4.881   8.072   3.594  0.0407  0.2636  0.7027
  669MOL0     C88199   4.727   8.059   3.606  0.1759  0.1338  0.4080
  669MOL0     O88200   4.674   7.936   3.547  0.1032 -0.0923  0.0186
  669MOL0     C88201   4.549   7.916   3.599 -0.1515 -0.3688  0.7405
  669MOL0     C88202   4.441   8.015   3.593  0.7804 -0.4540 -0.3636
  669MOL0     C88203   4.314   8.000   3.659  0.5574 -0.2495 -0.6750
  669MOL0     C88204   4.282   7.877   3.709 -0.6320  0.0914  0.3988
  669MOL0     C88205   4.148   7.854   3.756 -0.4614  0.3555 -0.3405
  669MOL0     O88206   4.138   7.768   3.870 -0.1340  0.7297  0.0148
  669MOL0     C88207   4.018   7.723   3.902 -0.2169  1.0581  0.6392
  669MOL0     C88208   3.960   7.744   4.028  0.7750  0.3578 -0.0548
  669MOL0     C88209   3.848   7.683   4.065  0.1632  0.9768 -0.6842
  669MOL0     C88210   3.774   7.595   3.981 -0.9322  0.5661  0.4386
  669MOL0     O88211   3.666   7.519   4.003 -0.4308  0.0092 -0.8905
  669MOL0     C88212   3.606   7.536   4.133  0.3881 -0.4951 -0.1496
  669MOL0     C88213   3.508   7.418   4.141  0.1762 -0.4775  0.2284
  669MOL0     C88214   3.362   7.469   4.120  1.2047  0.2159 -0.1296
  669MOL0     C88215   3.309   7.553   4.233  0.3517 -0.6091  0.4431
  669MOL0     C88216   3.232   7.679   4.191  0.2210 -0.2903  0.1738
  669MOL0     C88217   3.154   7.736   4.311  0.3245 -0.1348 -0.2978
  669MOL0     C88218   3.041   7.651   4.370  0.1335 -0.4114  0.1295
  669MOL0     C88219   2.923   7.627   4.286  0.7538  0.1951  0.5476
  669MOL0    Cl88220   2.812   7.517   4.379 -0.0305  0.0246 -0.1665
  669MOL0     C88221   3.826   7.577   3.849 -0.7744  0.3422 -0.3425
  669MOL0     C88222   3.951   7.639   3.814  0.5103  0.2252  0.0593
  669MOL0     O88223   4.053   7.886   3.686  0.5068 -0.5641  0.0853
  669MOL0     C88224   4.391   7.767   3.707  0.0041 -0.6854 -1.3237
  669MOL0     C88225   4.514   7.804   3.664 -1.2076  0.7461 -0.2739
  669MOL0     N88226   5.205   7.904   3.528 -0.1852  0.5427 -0.3398
  669MOL0     N88227   5.283   7.890   3.627 -1.0710 -0.4155 -0.1543
  669MOL0     C88228   6.289   8.632   4.242  0.5323 -0.3325  0.0371
  669MOL0     C88229   6.393   8.720   4.243 -0.3529 -0.1139  0.4183
  669MOL0     C88230   6.752   8.968   4.240 -0.4892 -0.5124  0.1925
  669MOL0     C88231   6.831   9.015   4.352  0.1460  0.2927  0.1328
  669MOL0     C88232   6.929   9.109   4.335 -1.0584  0.5336 -0.3495
  669MOL0     C88233   6.963   9.159   4.210  0.2839  0.0184 -0.2496
  669MOL0     O88234   7.052   9.265   4.200  0.6047  0.9470 -0.1538
  669MOL0     C88235   7.073   9.332   4.073 -0.1637  0.3367 -0.3575
  669MOL0     C88236   7.148   9.461   4.093 -0.7202 -0.1412 -0.3088
  669MOL0     C88237   7.304   9.435   4.116 -0.4277 -0.4681  0.5944
  669MOL0     C88238   7.330   9.378   4.251 -0.7065  0.4197 -0.5150
  669MOL0     C88239   7.476   9.361   4.269  0.3907 -0.2846  0.2029
  669MOL0     C88240   7.598   9.345   4.270  0.0889 -0.7516 -0.1258
  669MOL0     C88241   6.893   9.109   4.099  0.9813  0.0145  0.1645
  669MOL0     C88242   6.781   9.016   4.113 -0.8356 -0.0383  0.0971
  669MOL0     H88243   6.534   8.651   3.936 -1.1505  2.0902 -1.4972
  669MOL0     H88244   6.354   8.475   3.948  3.1724 -2.6450  2.6741
  669MOL0     H88245   6.149   8.365   3.952  1.3351  1.2828  0.2951
  669MOL0     H88246   6.049   8.505   3.993 -0.5736  0.3627 -0.9393
  669MOL0     H88247   5.938   8.357   4.173 -1.1903 -1.2762  0.3388
  669MOL0     H88248   6.044   8.223   4.127 -3.3115 -0.9777  1.0030
  669MOL0     H88249   5.961   8.184   3.910 -1.6907 -1.3891  0.0980
  669MOL0     H88250   5.872   8.337   3.920 -3.7596 -1.1074  1.8945
  669MOL0     H88251   5.801   8.073   4.070  0.6766  0.8845  0.0749
  669MOL0     H88252   5.715   8.227   4.104  1.6580  3.3340 -0.6698
  669MOL0     H88253   5.765   8.090   3.849  2.7107  2.0017  0.9488
  669MOL0     H88254   5.674   8.240   3.847  1.3684 -0.9933 -3.4420
  669MOL0     H88255   5.506   8.139   4.010  0.3481  2.3955 -0.7845
  669MOL0     H88256   5.590   7.977   3.971 -1.1979 -0.0601 -1.6790
  669MOL0     H88257   5.465   8.182   3.767 -3.0818 -0.8314 -1.7445
  669MOL0     H88258   5.544   8.022   3.737 -0.4447 -1.3856  1.7358
  669MOL0     H88259   5.301   8.073   3.909 -0.8277 -1.3900  2.3593
  669MOL0     H88260   5.372   7.917   3.875 -2.9077  0.2392  0.2765
  669MOL0     H88261   5.221   8.208   3.645 -1.1459 -0.3525  1.2453
  669MOL0     H88262   5.097   8.063   3.315 -0.1039  0.6868 -1.2162
  669MOL0     H88263   5.072   8.197   3.414  1.1883  0.0479 -1.4912
  669MOL0     H88264   4.920   7.934   3.429 -1.6739 -0.6065  1.2938
  669MOL0     H88265   4.845   8.090   3.378  0.5747 -2.0348 -0.4157
  669MOL0     H88266   4.937   8.000   3.655  3.3624 -0.7084 -2.9945
  669MOL0     H88267   4.908   8.173   3.624 -0.0709  0.2140  0.9725
  669MOL0     H88268   4.687   8.148   3.557  0.5471  0.4547  0.6804
  669MOL0     H88269   4.697   8.064   3.711 -2.8906  2.8566 -0.4179
  669MOL0     H88270   4.465   8.105   3.537 -0.0389 -0.4907 -0.7790
  669MOL0     H88271   4.232   8.071   3.661 -0.6464 -1.4891 -2.6829
  669MOL0     H88272   4.001   7.800   4.112 -0.1667 -3.5871  3.3458
  669MOL0     H88273   3.817   7.691   4.169 -1.8281 -2.0220 -0.9160
  669MOL0     H88274   3.568   7.636   4.157  3.1922  0.3841  1.0826
  669MOL0     H88275   3.685   7.524   4.207  2.9087  2.6730 -2.0225
  669MOL0     H88276   3.514   7.370   4.239  0.0536  1.2118  1.1013
  669MOL0     H88277   3.539   7.334   4.079  2.1306 -0.1890  0.7420
  669MOL0     H88278   3.301   7.379   4.116  1.4633 -0.3650  4.0527
  669MOL0     H88279   3.347   7.521   4.025 -2.3699  0.5142  0.4889
  669MOL0     H88280   3.252   7.478   4.288 -2.5037  0.2931 -1.0918
  669MOL0     H88281   3.391   7.586   4.297  0.1065  1.5289 -0.2480
  669MOL0     H88282   3.164   7.652   4.110  0.8578 -1.3040 -0.0402
  669MOL0     H88283   3.315   7.732   4.144  1.7806 -2.6705  0.1186
  669MOL0     H88284   3.117   7.834   4.280  1.3052  0.0035 -1.0759
  669MOL0     H88285   3.228   7.759   4.389  0.3769  1.8473 -0.8731
  669MOL0     H88286   3.079   7.555   4.408  0.4915  0.3646  1.8028
  669MOL0     H88287   3.004   7.702   4.459 -0.0181  0.0226 -0.1833
  669MOL0     H88288   2.956   7.578   4.194 -0.0862 -1.5039  1.1014
  669MOL0     H88289   2.873   7.716   4.247 -0.2716 -0.8154 -0.5629
  669MOL0     H88290   3.769   7.515   3.781 -0.7245  1.9373 -1.9114
  669MOL0     H88291   3.996   7.602   3.722  0.0021 -1.4947  0.4659
  669MOL0     H88292   4.372   7.672   3.756 -1.3761  0.2464  0.0162
  669MOL0     H88293   4.590   7.728   3.681 -0.1705  1.8342  0.1008
  669MOL0     H88294   6.218   8.638   4.325  0.5491  0.4575 -0.0014
  669MOL0     H88295   6.403   8.794   4.322 -0.8173  2.1380 -1.5417
  669MOL0     H88296   6.829   8.983   4.456 -1.7379 -0.6102 -0.1266
  669MOL0     H88297   6.990   9.144   4.418  1.2717  0.2715 -1.8584
  669MOL0     H88298   6.978   9.363   4.029 -0.5241  2.8011  1.8993
  669MOL0     H88299   7.129   9.270   4.003  1.4825  0.9199  0.3953
  669MOL0     H88300   7.134   9.534   4.012  3.4913  3.8765  2.0942
  669MOL0     H88301   7.102   9.501   4.183  0.2798 -3.0229  1.5953
  669MOL0     H88302   7.359   9.530   4.111 -2.8227  0.9113 -1.5209
  669MOL0     H88303   7.337   9.361   4.043 -0.8089  0.9606 -1.0763
  669MOL0     H88304   7.295   9.440   4.335  2.0945  2.7807 -0.9253
  669MOL0     H88305   7.282   9.280   4.257  1.2326 -0.5949 -0.8399
  669MOL0     H88306   7.700   9.326   4.294 -0.3970 -1.0962  1.8019
  669MOL0     H88307   6.896   9.146   3.997  1.2113  0.0715  0.1918
  669MOL0     H88308   6.719   8.990   4.028 -0.2189 -3.6474  0.5780
  670MOL0     O88309   8.049   7.325   6.409  0.9502  1.7602 -0.7162
  670MOL0     C88310   8.096   7.358   6.302 -0.8208 -0.0513  0.0487
  670MOL0     O88311   8.037   7.392   6.191  0.5278  0.1575 -0.5154
  670MOL0     C88312   7.900   7.385   6.199  0.2419 -0.5949  1.2662
  670MOL0     C88313   7.826   7.507   6.184 -0.8532  0.4123 -0.0347
  670MOL0     C88314   7.688   7.515   6.181 -1.0377  0.2496  0.0342
  670MOL0     C88315   7.616   7.394   6.183  0.2327  0.4228 -0.5324
  670MOL0     O88316   7.482   7.384   6.181  0.6920  0.0314  0.3224
  670MOL0     C88317   7.419   7.485   6.251  0.0291 -0.8072 -1.2456
  670MOL0     C88318   7.270   7.464   6.230 -0.1721 -0.0865 -0.3319
  670MOL0     C88319   7.179   7.547   6.331 -0.0981  0.9344 -0.8872
  670MOL0     C88320   7.035   7.491   6.348  0.2508  0.0502 -0.8507
  670MOL0     C88321   6.948   7.576   6.450 -0.4456 -0.0517 -0.4937
  670MOL0     C88322   6.912   7.721   6.407  0.3151  0.4508 -0.7683
  670MOL0     C88323   6.830   7.732   6.264 -0.2508  1.0426 -0.2045
  670MOL0     C88324   6.736   7.858   6.258 -0.7021 -0.3154 -0.3722
  670MOL0     N88325   6.628   7.841   6.166  0.6303 -0.2630 -0.0544
  670MOL0     C88326   6.645   7.851   6.033  1.2714 -0.5883  0.2076
  670MOL0     C88327   6.515   7.843   5.987  0.7322  0.4812  0.3982
  670MOL0     C88328   6.472   7.857   5.842  0.6562 -0.2729 -0.4030
  670MOL0     C88329   6.347   7.944   5.838 -0.7553 -0.0228 -0.1262
  670MOL0     C88330   6.221   7.861   5.861 -0.4815 -0.4938  0.0118
  670MOL0     C88331   6.103   7.949   5.824  0.0115  0.4293  0.7228
  670MOL0     O88332   5.982   7.889   5.865  0.0563 -0.7247  0.1974
  670MOL0     C88333   5.859   7.947   5.844  0.8859 -0.0615 -0.7583
  670MOL0     C88334   5.841   8.051   5.747  0.7606 -0.1877  0.1035
  670MOL0     C88335   5.713   8.112   5.734  0.2559  0.0773 -0.2579
  670MOL0     C88336   5.601   8.061   5.801 -0.4024  0.0066  0.4497
  670MOL0     C88337   5.469   8.114   5.784 -0.0462  0.2860  0.1097
  670MOL0     O88338   5.372   8.077   5.878  0.3675  0.2184  0.0517
  670MOL0     C88339   5.238   8.097   5.868  0.6206  0.1784 -0.2138
  670MOL0     C88340   5.158   8.104   5.982 -0.0596 -0.7916  0.0868
  670MOL0     C88341   5.025   8.147   5.969  0.1581  0.2504 -0.1588
  670MOL0     C88342   4.954   8.167   5.848  0.0519  0.0456 -0.1417
  670MOL0     O88343   4.813   8.186   5.832  0.0976  0.0499  0.1154
  670MOL0     C88344   4.757   8.257   5.936 -0.3961  0.5868  0.2916
  670MOL0     C88345   4.644   8.338   5.881 -1.2470 -0.3161  0.4147
  670MOL0     C88346   4.525   8.264   5.810 -0.0525 -0.6249  0.3983
  670MOL0     C88347   4.417   8.370   5.806 -0.0561  0.1434  0.0103
  670MOL0     C88348   4.286   8.298   5.778  0.3641  0.3296  0.4989
  670MOL0     C88349   4.172   8.393   5.786  0.2594 -0.6396  0.2832
  670MOL0     C88350   4.191   8.485   5.669 -0.4024 -0.0290 -0.1863
  670MOL0     C88351   4.078   8.582   5.631  0.2708 -0.4531 -0.6104
  670MOL0    Cl88352   3.962   8.487   5.543 -0.1673  0.1517  0.4648
  670MOL0     C88353   5.037   8.141   5.732 -0.2612 -0.2716  0.0142
  670MOL0     C88354   5.172   8.105   5.747  0.3844 -0.5939 -0.3294
  670MOL0     O88355   5.448   8.173   5.681 -0.2452  0.0751  0.6012
  670MOL0     C88356   5.620   7.953   5.889 -0.9273  0.3730 -0.3808
  670MOL0     C88357   5.745   7.902   5.913 -0.6187  0.2576 -1.0555
  670MOL0     N88358   6.428   7.811   6.093 -0.7771  0.3612  0.4276
  670MOL0     N88359   6.500   7.812   6.202  0.2319 -0.0684  0.1258
  670MOL0     C88360   7.683   7.273   6.206 -0.1274  0.1787  0.2928
  670MOL0     C88361   7.820   7.270   6.209  0.4154 -0.0372  0.0951
  670MOL0     C88362   8.244   7.351   6.290  0.4770  1.0599  0.0316
  670MOL0     C88363   8.299   7.338   6.159 -0.1778 -1.4938 -0.9692
  670MOL0     C88364   8.438   7.317   6.145 -0.1748  0.5797  0.3989
  670MOL0     C88365   8.524   7.312   6.260 -0.2541  0.8411  0.2312
  670MOL0     O88366   8.655   7.293   6.234 -0.2547  0.2557  0.3079
  670MOL0     C88367   8.748   7.261   6.338 -0.2049 -0.1955  0.3653
  670MOL0     C88368   8.874   7.209   6.269 -0.7837 -0.8393 -0.9532
  670MOL0     C88369   8.973   7.166   6.377  0.0766  0.1551  0.2625
  670MOL0     C88370   9.090   7.090   6.328  1.0640  0.9633 -0.0852
  670MOL0     C88371   9.177   7.187   6.257 -0.0672 -0.2934  0.7059
  670MOL0     C88372   9.250   7.262   6.192 -0.9269  0.8589  0.0102
  670MOL0     C88373   8.464   7.321   6.386 -0.5530  0.7452 -0.5838
  670MOL0     C88374   8.327   7.335   6.404 -0.3820 -0.3306  0.0095
  670MOL0     H88375   7.880   7.601   6.185 -0.9780  0.4805  0.5865
  670MOL0     H88376   7.640   7.611   6.161 -0.7553 -0.2863 -4.1713
  670MOL0     H88377   7.439   7.586   6.214  1.0610  0.3566  2.0865
  670MOL0     H88378   7.457   7.488   6.354 -0.0535  0.1294 -1.2327
  670MOL0     H88379   7.259   7.357   6.249 -1.6086 -0.0629 -0.8955
  670MOL0     H88380   7.246   7.476   6.124  0.2341  1.6593 -0.2514
  670MOL0     H88381   7.184   7.650   6.294 -2.8448  0.8095 -1.7817
  670MOL0     H88382   7.221   7.535   6.432 -2.4937 -2.3731 -0.1447
  670MOL0     H88383   6.984   7.482   6.252  1.1643 -1.7249 -1.2215
  670MOL0     H88384   7.045   7.394   6.398 -1.3148  1.5580  2.7485
  670MOL0     H88385   6.998   7.578   6.547 -4.1354 -5.0494  1.9884
  670MOL0     H88386   6.862   7.514   6.477  0.4302 -1.2964 -0.4891
  670MOL0     H88387   7.005   7.777   6.397 -0.0245  1.6883  1.9722
  670MOL0     H88388   6.864   7.759   6.497 -0.9155 -0.9532 -0.7813
  670MOL0     H88389   6.907   7.736   6.186  0.5379  1.1910  0.5569
  670MOL0     H88390   6.766   7.645   6.249 -0.0673  0.8902 -0.1140
  670MOL0     H88391   6.800   7.941   6.227  0.2872 -0.4750  1.1940
  670MOL0     H88392   6.702   7.876   6.360  1.6261  1.9404  0.1115
  670MOL0     H88393   6.727   7.859   5.963 -0.3802  0.6147 -1.6846
  670MOL0     H88394   6.448   7.764   5.789 -2.1307 -1.0129  1.8490
  670MOL0     H88395   6.554   7.908   5.792  0.6959  0.3155  0.2510
  670MOL0     H88396   6.357   7.988   5.738 -0.6997 -1.4369 -0.7654
  670MOL0     H88397   6.354   8.021   5.915 -3.3155  0.9385 -0.7549
  670MOL0     H88398   6.208   7.784   5.784 -2.1990  0.9306 -1.1998
  670MOL0     H88399   6.217   7.825   5.965 -0.6300  0.8241  0.4770
  670MOL0     H88400   6.112   7.979   5.719  1.1586 -0.2378  0.6134
  670MOL0     H88401   6.109   8.043   5.881 -0.5065  2.1399 -1.9014
  670MOL0     H88402   5.929   8.079   5.689  0.0676  0.4780 -0.6413
  670MOL0     H88403   5.706   8.190   5.659  3.2128  0.0752 -0.6690
  670MOL0     H88404   5.198   8.087   6.081 -1.9062  2.0256  1.4485
  670MOL0     H88405   4.967   8.173   6.057  0.1230 -0.0261 -0.1004
  670MOL0     H88406   4.834   8.327   5.971 -0.4979  2.1241 -2.3364
  670MOL0     H88407   4.726   8.177   6.004 -1.4685 -1.4825 -2.4651
  670MOL0     H88408   4.688   8.411   5.813 -0.3666 -1.8066 -0.6986
  670MOL0     H88409   4.611   8.398   5.966  0.8656  1.5466  0.0199
  670MOL0     H88410   4.493   8.174   5.863 -0.9233 -0.4729  0.1510
  670MOL0     H88411   4.547   8.248   5.704  1.7681  1.9792  0.2884
  670MOL0     H88412   4.390   8.410   5.905 -1.7500 -0.3283 -0.2303
  670MOL0     H88413   4.438   8.449   5.733 -0.8427  0.0256 -0.3590
  670MOL0     H88414   4.266   8.217   5.849 -1.2194  0.4137  0.1651
  670MOL0     H88415   4.293   8.261   5.676 -0.2213  1.9491 -0.1559
  670MOL0     H88416   4.175   8.439   5.885  2.0104  0.0582 -0.0726
  670MOL0     H88417   4.073   8.346   5.777  0.4683 -1.5529  2.2175
  670MOL0     H88418   4.278   8.551   5.677  0.6112 -1.3480  0.0373
  670MOL0     H88419   4.212   8.425   5.580 -0.5397  0.0081 -0.2451
  670MOL0     H88420   4.121   8.664   5.574 -1.9881  1.0748 -0.2250
  670MOL0     H88421   4.032   8.623   5.721  0.8177  0.8839 -0.9172
  670MOL0     H88422   4.986   8.144   5.636 -1.8305  0.8905  0.8322
  670MOL0     H88423   5.230   8.099   5.655 -0.0473  0.6280 -0.7045
  670MOL0     H88424   5.536   7.920   5.951  0.5129 -1.6541  0.6004
  670MOL0     H88425   5.762   7.821   5.983  3.5730  2.1883  0.5288
  670MOL0     H88426   7.630   7.180   6.191 -0.7875  0.9781 -3.2103
  670MOL0     H88427   7.862   7.170   6.210  0.1221 -0.2107 -1.5847
  670MOL0     H88428   8.234   7.355   6.074  0.0559  4.3319 -0.3998
  670MOL0     H88429   8.482   7.321   6.046  2.4293 -0.8044  1.4081
  670MOL0     H88430   8.712   7.184   6.407 -1.3673 -0.7450 -0.8076
  670MOL0     H88431   8.772   7.344   6.405 -0.8253 -0.9857  1.6045
  670MOL0     H88432   8.859   7.117   6.212 -0.1800 -1.6056  0.0715
  670MOL0     H88433   8.923   7.284   6.206  2.7289 -1.8700  0.3112
  670MOL0     H88434   8.919   7.090   6.434 -0.6290  1.7726  1.8738
  670MOL0     H88435   8.991   7.246   6.450 -1.1772  0.3824  0.3483
  670MOL0     H88436   9.144   7.049   6.414  0.4717  1.3913  0.4964
  670MOL0     H88437   9.056   7.009   6.263 -1.0517  0.7684  1.1724
  670MOL0     H88438   9.330   7.311   6.141  0.9264 -0.8751  1.0860
  670MOL0     H88439   8.538   7.320   6.466 -0.6182 -0.1213 -0.5239
  670MOL0     H88440   8.285   7.336   6.504 -2.5706  6.0663 -0.5136
  671MOL0     O88441   6.519   0.954   8.301  0.3804  0.4261 -0.1629
  671MOL0     C88442   6.567   0.927   8.196 -0.7079 -0.0407 -0.0177
  671MOL0     O88443   6.506   0.860   8.098 -0.1035 -0.3481  0.0613
  671MOL0     C88444   6.383   0.807   8.122 -0.5846 -0.8303 -0.3213
  671MOL0     C88445   6.372   0.689   8.190 -0.0759 -0.6435 -0.1517
  671MOL0     C88446   6.242   0.637   8.213 -1.2106 -0.4427  0.0791
  671MOL0     C88447   6.137   0.689   8.139  0.5600  0.3205 -0.1687
  671MOL0     O88448   6.024   0.614   8.147 -0.8272  0.7146 -0.6113
  671MOL0     C88449   5.905   0.675   8.195  0.1734  0.4836  0.1759
  671MOL0     C88450   5.777   0.600   8.172 -0.3799  0.2193  0.4910
  671MOL0     C88451   5.659   0.693   8.159 -1.0647 -0.0754 -0.3451
  671MOL0     C88452   5.529   0.609   8.164 -0.0750 -0.0285  0.6920
  671MOL0     C88453   5.487   0.591   8.312 -0.1767 -0.2678  0.5470
  671MOL0     C88454   5.351   0.520   8.329 -0.8048 -0.2250 -0.5378
  671MOL0     C88455   5.302   0.504   8.467 -0.0057  0.5369  0.3967
  671MOL0     C88456   5.214   0.375   8.487  0.1814  0.1268  0.7784
  671MOL0     N88457   5.090   0.393   8.422 -0.4683 -0.1265  0.1151
  671MOL0     C88458   5.038   0.327   8.316 -0.7125  0.6748 -0.1250
  671MOL0     C88459   4.943   0.405   8.259  0.5286  0.0282  0.7305
  671MOL0     C88460   4.876   0.373   8.128  0.1681  0.2033  0.3676
  671MOL0     C88461   4.735   0.312   8.142 -0.3140  0.9869 -0.5829
  671MOL0     C88462   4.660   0.315   8.004  0.5091  0.5173  0.4618
  671MOL0     C88463   4.606   0.457   7.980  0.4193 -0.1398  0.4377
  671MOL0     O88464   4.516   0.443   7.865 -0.2404  1.4538 -0.0456
  671MOL0     C88465   4.407   0.367   7.865 -0.1614 -0.5103 -0.7634
  671MOL0     C88466   4.372   0.289   7.767  0.6104  0.2248  0.0492
  671MOL0     C88467   4.246   0.220   7.762  0.5242 -0.2772  1.4267
  671MOL0     C88468   4.153   0.242   7.863  0.4782  0.2005 -0.6854
  671MOL0     C88469   4.026   0.176   7.867 -0.9059 -0.0503 -0.1432
  671MOL0     O88470   3.990   0.100   7.757  0.5151 -1.0416  0.3906
  671MOL0     C88471   3.882   0.024   7.778  0.3766 -0.2278 -0.8179
  671MOL0     C88472   3.900  -0.102   7.836  0.0742  1.2399 -0.2368
  671MOL0     C88473   3.789  -0.190   7.842  0.2991 -0.1267  0.2449
  671MOL0     C88474   3.656  -0.142   7.815  0.3706  0.1154 -0.4371
  671MOL0     O88475   3.550  -0.219   7.853  0.3779 -0.6173 -0.1833
  671MOL0     C88476   3.519  -0.204   7.994  0.7326 -0.0784 -0.6774
  671MOL0     C88477   3.424  -0.307   8.054  0.6595  0.5841 -0.6095
  671MOL0     C88478   3.316  -0.347   7.959  0.3036  0.3909  0.4255
  671MOL0     C88479   3.213  -0.441   8.019  0.4352  0.0571 -0.6889
  671MOL0     C88480   3.086  -0.473   7.933  0.0175  0.3149 -0.1346
  671MOL0     C88481   3.113  -0.578   7.828 -0.9545 -0.0595 -0.3263
  671MOL0     C88482   3.088  -0.721   7.871 -1.0058  0.3224 -0.7520
  671MOL0     C88483   3.105  -0.814   7.756  0.4796 -0.4032  0.4115
  671MOL0    Cl88484   3.282  -0.825   7.724  0.1758  0.0920  0.5446
  671MOL0     C88485   3.639  -0.024   7.751 -0.3433 -0.0662 -0.1843
  671MOL0     C88486   3.752   0.064   7.752 -0.4989 -1.2837 -0.4784
  671MOL0     O88487   3.952   0.196   7.965  0.0092 -0.2087  0.4484
  671MOL0     C88488   4.188   0.338   7.965 -0.1431 -0.1816  1.1454
  671MOL0     C88489   4.315   0.400   7.967  0.0806  0.1554 -0.0084
  671MOL0     N88490   4.920   0.509   8.345 -0.5172 -0.4100  0.2080
  671MOL0     N88491   5.008   0.501   8.439  0.8577 -0.7464  0.2637
  671MOL0     C88492   6.153   0.796   8.054  0.9874 -0.6037 -0.5189
  671MOL0     C88493   6.272   0.859   8.051  0.0894  0.4261  1.1330
  671MOL0     C88494   6.701   0.980   8.171 -0.4304  0.5787 -0.8292
  671MOL0     C88495   6.766   0.941   8.049 -0.9738 -0.5187  0.1812
  671MOL0     C88496   6.901   0.973   8.028 -0.8983  0.4711 -0.9292
  671MOL0     C88497   6.958   1.061   8.113 -0.7015  0.9665 -0.1269
  671MOL0     O88498   7.092   1.106   8.096  0.1904 -0.4141 -0.1412
  671MOL0     C88499   7.192   1.059   8.007 -0.6205 -0.0049 -0.3150
  671MOL0     C88500   7.335   1.053   8.067  0.2515  0.5524  0.3596
  671MOL0     C88501   7.446   1.022   7.971  0.1982 -0.4592 -0.7731
  671MOL0     C88502   7.578   1.044   8.039  0.0313  0.5334  0.3254
  671MOL0     C88503   7.598   1.191   8.053 -0.7636 -0.3116 -0.3084
  671MOL0     C88504   7.605   1.309   8.102  0.8041 -0.2404  0.1772
  671MOL0     C88505   6.900   1.116   8.226  0.3549  0.1558  0.1286
  671MOL0     C88506   6.769   1.072   8.257 -0.3286  0.3144 -0.0066
  671MOL0     H88507   6.466   0.646   8.222  0.1161  1.7231  2.9283
  671MOL0     H88508   6.231   0.550   8.278  0.4058 -0.2601  0.6385
  671MOL0     H88509   5.894   0.772   8.147  3.5097  2.0862  2.2513
  671MOL0     H88510   5.918   0.675   8.304 -0.4548 -2.1335  0.3364
  671MOL0     H88511   5.774   0.527   8.254 -2.2631 -2.4303 -1.7224
  671MOL0     H88512   5.780   0.548   8.076 -2.7262 -0.0910  0.5313
  671MOL0     H88513   5.661   0.744   8.062  1.7858  0.4611 -0.0675
  671MOL0     H88514   5.666   0.775   8.230  1.4955  1.0435 -1.7674
  671MOL0     H88515   5.454   0.676   8.120  0.0923 -0.1954  0.1518
  671MOL0     H88516   5.526   0.524   8.096  0.6218  1.1753 -0.9204
  671MOL0     H88517   5.484   0.696   8.342  1.5893 -0.6082  2.0728
  671MOL0     H88518   5.569   0.544   8.367  0.7470 -1.4342 -1.6741
  671MOL0     H88519   5.370   0.420   8.287 -0.2653  0.3479 -1.7165
  671MOL0     H88520   5.282   0.576   8.264 -0.3523  0.8557 -0.0986
  671MOL0     H88521   5.385   0.504   8.538  0.7408  2.2599 -0.4327
  671MOL0     H88522   5.240   0.589   8.495 -1.8867 -1.6884  3.7844
  671MOL0     H88523   5.199   0.372   8.595  0.4459 -0.5445  0.8054
  671MOL0     H88524   5.264   0.286   8.448  2.0323  1.6634 -0.5394
  671MOL0     H88525   5.080   0.239   8.269 -1.1471  0.2859  0.2083
  671MOL0     H88526   4.950   0.323   8.065  1.6530 -0.2010  2.3184
  671MOL0     H88527   4.866   0.469   8.076 -0.8182 -1.1093 -1.9971
  671MOL0     H88528   4.677   0.369   8.215  0.4776  1.6999 -0.4939
  671MOL0     H88529   4.753   0.208   8.171  1.5112  0.7477 -2.3367
  671MOL0     H88530   4.727   0.297   7.920 -1.8022  1.9897 -1.8532
  671MOL0     H88531   4.581   0.238   8.010 -0.1873  1.1349 -0.5639
  671MOL0     H88532   4.677   0.537   7.959 -1.0088  0.7327 -1.2884
  671MOL0     H88533   4.555   0.495   8.069  0.3786 -0.5326  0.5873
  671MOL0     H88534   4.445   0.282   7.687  1.1028  1.9670  0.3047
  671MOL0     H88535   4.207   0.156   7.682  0.3492  1.1510  0.3309
  671MOL0     H88536   3.999  -0.138   7.862  0.1281  1.7279  0.2530
  671MOL0     H88537   3.804  -0.282   7.898 -0.4090  0.0649  0.7704
  671MOL0     H88538   3.455  -0.115   7.996 -0.1766 -0.7336  0.3830
  671MOL0     H88539   3.607  -0.185   8.057 -1.7326  3.0729  2.2162
  671MOL0     H88540   3.380  -0.260   8.143  0.4270  2.9259 -1.8930
  671MOL0     H88541   3.477  -0.402   8.070  0.9195  0.6420 -1.1177
  671MOL0     H88542   3.359  -0.386   7.866 -2.6796 -1.5923 -0.2631
  671MOL0     H88543   3.266  -0.255   7.927 -0.2511  0.1242  0.5151
  671MOL0     H88544   3.257  -0.536   8.051  1.4715  1.0110  0.8587
  671MOL0     H88545   3.178  -0.397   8.113  0.5008 -0.8416 -0.2376
  671MOL0     H88546   3.056  -0.383   7.877  0.9652 -0.0845 -1.3212
  671MOL0     H88547   3.007  -0.506   8.001 -0.5207  1.7429 -0.0257
  671MOL0     H88548   3.218  -0.568   7.798 -0.2316 -1.7201  1.4012
  671MOL0     H88549   3.050  -0.558   7.741 -0.9266 -0.5737 -0.4662
  671MOL0     H88550   3.156  -0.739   7.955  0.4803  0.4228 -1.8966
  671MOL0     H88551   2.993  -0.733   7.924 -0.9407 -1.0396 -0.8952
  671MOL0     H88552   3.046  -0.758   7.684 -2.0963  0.4436  3.0230
  671MOL0     H88553   3.057  -0.912   7.768  2.4792 -1.5570 -0.3900
  671MOL0     H88554   3.541   0.013   7.722 -0.5922 -2.4466 -2.7541
  671MOL0     H88555   3.752   0.163   7.708  0.5641 -2.7317 -4.1096
  671MOL0     H88556   4.104   0.358   8.031 -1.4322  2.4888 -1.0944
  671MOL0     H88557   4.340   0.464   8.051 -0.6509 -2.3010  2.2079
  671MOL0     H88558   6.072   0.820   7.987 -0.8789  0.7791  2.0398
  671MOL0     H88559   6.280   0.950   7.994 -1.3489 -0.2932 -0.3193
  671MOL0     H88560   6.712   0.880   7.978 -2.8196  2.5500 -1.2314
  671MOL0     H88561   6.944   0.937   7.935  1.1614  2.8040 -0.9535
  671MOL0     H88562   7.185   1.130   7.924  0.2145  3.0752  2.0466
  671MOL0     H88563   7.163   0.960   7.972 -0.0608  0.0702 -1.0346
  671MOL0     H88564   7.357   1.151   8.111  1.4479 -0.5319  2.3035
  671MOL0     H88565   7.332   0.990   8.156  1.2711  2.6394  1.9657
  671MOL0     H88566   7.437   1.096   7.891 -2.6646  2.2187  1.7683
  671MOL0     H88567   7.436   0.922   7.926 -1.9492 -0.8543  0.4655
  671MOL0     H88568   7.594   1.001   8.138  1.0294 -0.4102 -0.2213
  671MOL0     H88569   7.652   1.006   7.969 -0.9332  0.6835 -0.8025
  671MOL0     H88570   7.610   1.404   8.151 -1.9155 -0.0979  0.2957
  671MOL0     H88571   6.955   1.190   8.284  0.3217 -1.5069  2.4086
  671MOL0     H88572   6.728   1.101   8.353 -1.9561  0.7264 -0.8023
  672MOL0     O88573   6.723   5.699  10.962 -0.2808 -0.2543  0.0228
  672MOL0     C88574   6.747   5.697  11.081 -0.1843  0.1631 -1.0908
  672MOL0     O88575   6.668   5.739  11.187 -0.0612 -0.8479 -0.2526
  672MOL0     C88576   6.556   5.808  11.138  0.3781 -1.0230  0.4525
  672MOL0     C88577   6.537   5.952  11.158 -0.7705 -0.3481  0.0691
  672MOL0     C88578   6.421   6.018  11.120 -0.0718  0.1121 -0.6462
  672MOL0     C88579   6.320   5.944  11.067  0.2552 -0.8454  0.1433
  672MOL0     O88580   6.209   6.013  11.019  0.5924  0.6701  0.4484
  672MOL0     C88581   6.074   5.978  11.055 -0.5832 -0.2620  0.2792
  672MOL0     C88582   6.001   6.093  11.124 -0.2677 -0.5388 -0.9796
  672MOL0     C88583   5.859   6.054  11.169 -0.2004 -0.5665 -0.8203
  672MOL0     C88584   5.766   5.999  11.056 -0.3501  0.2883  0.3953
  672MOL0     C88585   5.624   6.011  11.092  0.0038 -0.0572  0.4714
  672MOL0     C88586   5.528   5.955  10.986  0.9090 -0.2868  1.0037
  672MOL0     C88587   5.370   5.965  11.034 -1.0323 -0.3407 -0.2916
  672MOL0     C88588   5.341   5.862  11.141  0.0850 -0.0705 -0.7059
  672MOL0     N88589   5.198   5.863  11.154 -0.4492  0.1700 -0.1001
  672MOL0     C88590   5.127   5.958  11.228  0.6033 -0.2300 -0.0906
  672MOL0     C88591   4.996   5.953  11.188 -0.0652 -0.2212  0.0024
  672MOL0     C88592   4.885   6.035  11.243  0.5636  0.0357  0.0987
  672MOL0     C88593   4.750   5.968  11.187 -1.0107 -0.3607 -0.5655
  672MOL0     C88594   4.638   6.046  11.247  1.3289  0.2973 -1.2191
  672MOL0     C88595   4.496   6.007  11.184 -0.0842 -0.3887  0.0155
  672MOL0     O88596   4.395   6.101  11.223 -0.0208  0.1186  0.4013
  672MOL0     C88597   4.265   6.054  11.215 -0.7370 -0.0927  0.8815
  672MOL0     C88598   4.172   6.127  11.292 -0.6398  0.6026  0.3222
  672MOL0     C88599   4.037   6.093  11.285 -0.0433 -0.7417  0.2044
  672MOL0     C88600   3.992   5.985  11.212  0.0845 -0.4022 -1.1834
  672MOL0     C88601   3.849   5.955  11.215  0.1556 -0.5226 -0.0003
  672MOL0     O88602   3.793   5.897  11.105  0.0314 -0.1699  0.1886
  672MOL0     C88603   3.659   5.898  11.082 -0.3695 -0.5007  0.2216
  672MOL0     C88604   3.618   5.950  10.960 -0.6624  0.1985  0.1506
  672MOL0     C88605   3.485   5.973  10.933 -0.1449  1.0447  0.2724
  672MOL0     C88606   3.389   5.933  11.024  0.8798 -0.3247 -0.7059
  672MOL0     O88607   3.262   5.964  10.979 -0.1340 -0.3901  0.4378
  672MOL0     C88608   3.158   5.861  10.999  0.2838  0.6313 -1.1720
  672MOL0     C88609   3.108   5.791  10.870 -0.1817 -0.3126  0.1271
  672MOL0     C88610   2.969   5.720  10.868  0.6941 -0.1887 -0.3047
  672MOL0     C88611   2.924   5.690  10.720  0.0046  0.0507 -0.4698
  672MOL0     C88612   2.805   5.592  10.716 -0.8903 -0.2019 -0.2959
  672MOL0     C88613   2.676   5.660  10.751 -0.0610 -0.0233 -0.5053
  672MOL0     C88614   2.560   5.564  10.795 -0.0037 -0.3804  0.0901
  672MOL0     C88615   2.537   5.426  10.717  0.0664 -0.5751 -0.0598
  672MOL0    Cl88616   2.528   5.452  10.540  0.0382 -0.0647 -0.4843
  672MOL0     C88617   3.425   5.867  11.138  0.6337  0.3492 -1.1770
  672MOL0     C88618   3.558   5.853  11.165 -0.2539 -0.5056  0.4995
  672MOL0     O88619   3.789   5.993  11.317 -0.0758  0.8624  0.4087
  672MOL0     C88620   4.084   5.913  11.131 -0.1349  0.3267 -0.3877
  672MOL0     C88621   4.215   5.954  11.131 -0.5497  0.0186  0.0621
  672MOL0     N88622   4.997   5.870  11.076 -0.4095 -0.3967 -0.8940
  672MOL0     N88623   5.121   5.828  11.056 -0.6620  0.2463  0.3917
  672MOL0     C88624   6.327   5.803  11.050  0.4936 -0.4829  0.5992
  672MOL0     C88625   6.446   5.737  11.084  0.3975 -0.3718 -0.4403
  672MOL0     C88626   6.872   5.615  11.105  0.1983 -0.9095  0.4426
  672MOL0     C88627   6.957   5.574  11.000  0.5162 -0.0326 -0.5037
  672MOL0     C88628   7.072   5.500  11.032  0.1129  0.3289  0.5792
  672MOL0     C88629   7.112   5.475  11.162  0.0008  0.6976 -0.4288
  672MOL0     O88630   7.233   5.412  11.176 -0.1059  0.6931  0.0340
  672MOL0     C88631   7.302   5.413  11.307 -0.7441 -0.4572 -0.0971
  672MOL0     C88632   7.418   5.311  11.289  0.3007  0.1847 -0.1205
  672MOL0     C88633   7.365   5.169  11.255  0.4720  0.0077  0.1880
  672MOL0     C88634   7.479   5.078  11.209 -0.1076 -0.9135 -0.4902
  672MOL0     C88635   7.450   4.939  11.212 -0.4557 -1.4303  0.3756
  672MOL0     C88636   7.429   4.817  11.220  0.9206 -0.2200 -0.3684
  672MOL0     C88637   7.021   5.515  11.260 -0.0774  0.4176 -0.0977
  672MOL0     C88638   6.905   5.580  11.234  0.4996  0.1333  0.5742
  672MOL0     H88639   6.613   6.004  11.217 -0.3891 -2.2113  1.3092
  672MOL0     H88640   6.413   6.125  11.136  0.9445  0.2897 -1.2351
  672MOL0     H88641   6.068   5.896  11.127 -2.2359  0.4143  0.9548
  672MOL0     H88642   6.032   5.942  10.960  1.2112  0.8767 -1.0188
  672MOL0     H88643   6.002   6.191  11.075  3.1718 -0.4396 -0.9547
  672MOL0     H88644   6.065   6.110  11.211  1.6560  0.0481 -2.4544
  672MOL0     H88645   5.805   6.140  11.213  2.2987  1.0557 -0.7440
  672MOL0     H88646   5.854   5.985  11.254 -2.0793  1.0225  0.4539
  672MOL0     H88647   5.790   6.069  10.975 -0.3460  0.9638  0.9678
  672MOL0     H88648   5.792   5.896  11.030  0.5084  0.0895  1.8883
  672MOL0     H88649   5.608   6.118  11.109  0.1623  0.2325 -1.0562
  672MOL0     H88650   5.616   5.954  11.186  2.3772  1.2871  1.5995
  672MOL0     H88651   5.546   5.850  10.960  1.9992  0.3417 -1.0436
  672MOL0     H88652   5.552   6.022  10.903  1.3950  1.3706  2.4209
  672MOL0     H88653   5.350   6.069  11.061 -0.8644  0.0203 -1.4874
  672MOL0     H88654   5.317   5.933  10.944  0.8888 -0.9279 -1.2831
  672MOL0     H88655   5.382   5.886  11.240  0.7075 -1.6077 -0.5619
  672MOL0     H88656   5.367   5.760  11.111 -2.6886 -0.4437 -2.1603
  672MOL0     H88657   5.166   6.022  11.306 -0.2756  0.7291 -0.4183
  672MOL0     H88658   4.893   6.143  11.229  2.2651  0.3202  2.6374
  672MOL0     H88659   4.890   6.034  11.352  0.7706  2.1343  0.1429
  672MOL0     H88660   4.744   5.862  11.212 -1.6382 -0.5197 -1.3374
  672MOL0     H88661   4.743   5.985  11.079  0.1615  0.8745 -0.4659
  672MOL0     H88662   4.644   6.027  11.355 -2.0524  0.3055 -0.9147
  672MOL0     H88663   4.642   6.155  11.240 -1.9683  0.5849 -0.3740
  672MOL0     H88664   4.483   5.904  11.220 -0.5891 -0.1755  0.4613
  672MOL0     H88665   4.512   6.002  11.076 -0.9932 -0.1572 -0.1347
  672MOL0     H88666   4.201   6.209  11.356 -2.1144 -1.2111  3.5234
  672MOL0     H88667   3.964   6.148  11.344  0.8094 -1.8347  2.3879
  672MOL0     H88668   3.674   5.989  10.877 -0.1510  1.6032  1.1210
  672MOL0     H88669   3.453   6.012  10.837  0.7170 -3.8134 -2.3180
  672MOL0     H88670   3.075   5.912  11.049  0.8986 -0.3382  0.9807
  672MOL0     H88671   3.180   5.779  11.069  0.2602  1.5030 -0.1045
  672MOL0     H88672   3.180   5.718  10.832 -2.6866 -2.9430  0.1247
  672MOL0     H88673   3.099   5.878  10.805  0.4478  1.6017  2.4624
  672MOL0     H88674   2.899   5.787  10.919  0.6109 -2.2891  2.5247
  672MOL0     H88675   2.971   5.627  10.925  1.8762 -2.1392 -3.2838
  672MOL0     H88676   2.901   5.781  10.663 -2.7555  2.4378  3.9033
  672MOL0     H88677   3.012   5.645  10.673 -2.0783 -1.5795 -3.0426
  672MOL0     H88678   2.835   5.514  10.787  1.7326  0.0874 -0.9913
  672MOL0     H88679   2.789   5.554  10.614 -2.3614 -1.3456  0.3207
  672MOL0     H88680   2.644   5.718  10.664 -0.4573 -0.5612 -0.7298
  672MOL0     H88681   2.697   5.732  10.830  0.8039 -3.1083  2.3159
  672MOL0     H88682   2.576   5.544  10.902 -0.0846  0.5891  0.2874
  672MOL0     H88683   2.467   5.619  10.787  0.2417  0.1932  0.9614
  672MOL0     H88684   2.438   5.382  10.732 -1.1329  1.5574 -1.2759
  672MOL0     H88685   2.620   5.357  10.737  0.8749  1.0428  2.5952
  672MOL0     H88686   3.352   5.832  11.211  0.2242 -2.1443 -2.6709
  672MOL0     H88687   3.593   5.811  11.259 -0.0869 -1.6765 -0.0619
  672MOL0     H88688   4.060   5.835  11.059  2.3319  0.0557 -0.9901
  672MOL0     H88689   4.280   5.894  11.068  0.8099  0.9192  0.5631
  672MOL0     H88690   6.248   5.736  11.017 -0.4050 -0.9511  3.4368
  672MOL0     H88691   6.449   5.629  11.070  2.2278 -0.4175  0.0344
  672MOL0     H88692   6.929   5.598  10.897 -0.6414  2.2090  0.2565
  672MOL0     H88693   7.133   5.457  10.952  1.4151  0.3368  1.5461
  672MOL0     H88694   7.242   5.375  11.390  1.2009 -0.4223  1.3979
  672MOL0     H88695   7.334   5.516  11.327 -2.3951  1.1021 -4.2109
  672MOL0     H88696   7.479   5.355  11.209  1.5489  3.0593  2.2143
  672MOL0     H88697   7.475   5.303  11.382  1.8932  2.1883 -0.8391
  672MOL0     H88698   7.294   5.180  11.174  0.7232 -1.2277 -0.2193
  672MOL0     H88699   7.331   5.123  11.348  2.4009 -0.2587  0.8185
  672MOL0     H88700   7.505   5.112  11.108 -0.9258  0.3693 -0.2836
  672MOL0     H88701   7.571   5.100  11.265 -0.5883  0.7097 -0.2879
  672MOL0     H88702   7.414   4.712  11.236 -2.2823  0.4291  2.0702
  672MOL0     H88703   7.039   5.503  11.367 -0.9184  0.7775  0.0895
  672MOL0     H88704   6.849   5.613  11.321 -0.6273 -0.8346  0.2317
  673MOL0     O88705  10.954   1.492   2.440 -0.1812 -0.6967  0.0087
  673MOL0     C88706  11.005   1.456   2.547  0.1333  0.5265  0.0162
  673MOL0     O88707  10.944   1.420   2.664  0.1242  0.0813  0.5959
  673MOL0     C88708  10.807   1.436   2.680  0.6985 -0.3183 -0.0893
  673MOL0     C88709  10.708   1.413   2.576 -0.2198  0.5179  0.0739
  673MOL0     C88710  10.575   1.426   2.601  0.3839 -1.2735 -0.2380
  673MOL0     C88711  10.531   1.470   2.735 -0.3293  0.3191  0.0389
  673MOL0     O88712  10.400   1.494   2.766  0.0432 -0.1247 -0.3655
  673MOL0     C88713  10.347   1.593   2.689  0.7885 -0.7441  0.0229
  673MOL0     C88714  10.252   1.673   2.782  0.0501 -0.0899 -0.5366
  673MOL0     C88715  10.122   1.593   2.787  0.0682  0.2127 -0.9557
  673MOL0     C88716  10.035   1.627   2.915  0.3875 -0.2402 -0.9287
  673MOL0     C88717   9.905   1.554   2.919 -0.5405  0.2719  0.7360
  673MOL0     C88718   9.802   1.626   2.819  0.2094  0.6667  0.5002
  673MOL0     C88719   9.681   1.539   2.786 -0.2194  0.7841 -0.6144
  673MOL0     C88720   9.581   1.511   2.902 -0.8619  0.1868 -0.5453
  673MOL0     N88721   9.466   1.589   2.891  0.5297  0.9065 -0.6070
  673MOL0     C88722   9.428   1.691   2.969 -0.0551  0.9726 -0.4211
  673MOL0     C88723   9.308   1.730   2.924 -0.2281 -0.8357  0.7137
  673MOL0     C88724   9.222   1.836   2.984 -0.2290 -0.4929  0.5284
  673MOL0     C88725   9.164   1.803   3.127  0.1687  0.1979  0.2666
  673MOL0     C88726   9.044   1.702   3.125  1.2308  0.5427  0.4554
  673MOL0     C88727   8.952   1.706   3.000 -0.1456 -0.2462  1.1411
  673MOL0     O88728   8.881   1.836   2.984  0.2718  0.4573  0.6467
  673MOL0     C88729   8.784   1.877   3.071 -0.7651 -0.2271 -0.2651
  673MOL0     C88730   8.708   1.799   3.161  0.3017  0.0363  0.9571
  673MOL0     C88731   8.602   1.852   3.229  0.5110 -0.8581 -0.2909
  673MOL0     C88732   8.566   1.986   3.203 -0.1755  0.3628 -0.5007
  673MOL0     C88733   8.447   2.048   3.270 -0.0048 -0.6203  0.3342
  673MOL0     O88734   8.385   1.965   3.361  0.1025 -0.3692 -0.2057
  673MOL0     C88735   8.271   2.009   3.418 -0.9685 -0.2186 -1.0639
  673MOL0     C88736   8.274   2.089   3.521  0.8810 -0.3111 -0.8806
  673MOL0     C88737   8.158   2.135   3.586  0.3242  1.5412  0.2295
  673MOL0     C88738   8.037   2.087   3.546  0.3974 -0.6098 -0.2958
  673MOL0     O88739   7.929   2.142   3.609  0.2553  0.8823 -0.3634
  673MOL0     C88740   7.920   2.133   3.749 -0.2299 -0.2442  0.2164
  673MOL0     C88741   7.779   2.198   3.788  0.0417 -0.1981  0.2890
  673MOL0     C88742   7.775   2.238   3.929 -0.3676  0.1525  0.5254
  673MOL0     C88743   7.640   2.293   3.970 -0.1656 -1.0126  0.8258
  673MOL0     C88744   7.641   2.345   4.118  0.5317  0.5560 -0.4611
  673MOL0     C88745   7.505   2.405   4.177  0.4683 -0.5279 -0.2413
  673MOL0     C88746   7.458   2.532   4.103 -0.5488 -0.1530 -0.2432
  673MOL0     C88747   7.331   2.592   4.171 -0.0895 -0.0345  0.1477
  673MOL0    Cl88748   7.390   2.742   4.261 -0.2932  0.5592  0.4301
  673MOL0     C88749   8.027   2.001   3.442 -0.5281 -0.0321  0.5727
  673MOL0     C88750   8.146   1.961   3.377 -0.0985  0.1540  0.0131
  673MOL0     O88751   8.410   2.161   3.238 -0.0932 -1.0375 -0.0668
  673MOL0     C88752   8.652   2.075   3.131  0.1095  0.2796 -0.4239
  673MOL0     C88753   8.768   2.022   3.063 -0.1842  0.5225  0.0124
  673MOL0     N88754   9.272   1.646   2.818 -0.4668 -0.5516 -0.4774
  673MOL0     N88755   9.369   1.560   2.801  0.5091  0.0474  0.5371
  673MOL0     C88756  10.625   1.487   2.833 -0.1498 -1.4169  0.1593
  673MOL0     C88757  10.758   1.475   2.801 -0.0388  0.2351  0.6787
  673MOL0     C88758  11.144   1.434   2.530  0.0261 -0.1442  0.1291
  673MOL0     C88759  11.218   1.503   2.434  0.8012  0.0330  0.0880
  673MOL0     C88760  11.359   1.493   2.432 -0.1037 -0.7000  0.4768
  673MOL0     C88761  11.431   1.412   2.521 -0.1059  0.5334 -0.6855
  673MOL0     O88762  11.565   1.403   2.503 -0.0671 -0.4808 -0.4210
  673MOL0     C88763  11.649   1.317   2.571  0.2949  0.2152  0.1703
  673MOL0     C88764  11.765   1.270   2.484  0.6416 -0.0876  0.9400
  673MOL0     C88765  11.727   1.205   2.348  0.8202  0.9523  0.4953
  673MOL0     C88766  11.707   1.057   2.350 -0.2962  0.7454 -0.7672
  673MOL0     C88767  11.682   0.989   2.227 -0.9516  0.2119 -0.9914
  673MOL0     C88768  11.670   0.918   2.132  0.6465  0.1734  0.7311
  673MOL0     C88769  11.357   1.349   2.621 -0.0918  0.6075  0.1920
  673MOL0     C88770  11.213   1.355   2.631  0.1254  0.4172 -0.1334
  673MOL0     H88771  10.742   1.388   2.476 -0.0465  2.6074 -0.4440
  673MOL0     H88772  10.499   1.402   2.527  0.0878  0.5474 -0.5829
  673MOL0     H88773  10.291   1.549   2.606  0.7717 -0.9833  0.1606
  673MOL0     H88774  10.420   1.666   2.652  0.6245  0.6122  2.2153
  673MOL0     H88775  10.233   1.775   2.747 -1.7080 -0.1010  0.2970
  673MOL0     H88776  10.307   1.682   2.876  2.5023 -3.9247 -1.3496
  673MOL0     H88777  10.144   1.486   2.781 -0.5934  0.0819 -1.1415
  673MOL0     H88778  10.069   1.614   2.693  2.9190  0.7750 -2.5589
  673MOL0     H88779  10.101   1.612   3.001 -2.5622  1.7054  1.8801
  673MOL0     H88780  10.016   1.735   2.918 -2.2038 -0.4973 -3.5778
  673MOL0     H88781   9.879   1.545   3.025 -0.1578 -2.8643  0.6390
  673MOL0     H88782   9.923   1.452   2.885  0.1701  0.5413  0.2887
  673MOL0     H88783   9.855   1.645   2.726  1.6961  0.4521  1.2630
  673MOL0     H88784   9.767   1.724   2.852 -1.0302  0.5008 -0.2687
  673MOL0     H88785   9.626   1.572   2.697 -0.1879 -2.0272 -1.7553
  673MOL0     H88786   9.714   1.440   2.756  1.4699  1.2130 -0.2852
  673MOL0     H88787   9.633   1.533   2.996 -1.9110 -1.7074  0.5391
  673MOL0     H88788   9.548   1.407   2.902  0.8544 -0.3976  0.3146
  673MOL0     H88789   9.482   1.736   3.052  0.1983 -1.1463  0.6368
  673MOL0     H88790   9.141   1.863   2.916  0.6878  2.5171  0.4668
  673MOL0     H88791   9.298   1.915   2.988  1.9411 -2.2859 -1.7239
  673MOL0     H88792   9.140   1.900   3.173  1.9211  0.3809  0.8859
  673MOL0     H88793   9.241   1.760   3.191 -1.9196 -0.0025  2.8444
  673MOL0     H88794   9.089   1.602   3.125  1.9803  0.8791  0.3287
  673MOL0     H88795   8.985   1.695   3.217  2.3239 -0.1475  1.1196
  673MOL0     H88796   8.883   1.622   3.010  0.6417 -1.5344 -2.4892
  673MOL0     H88797   9.008   1.687   2.907 -1.9658 -2.3544  0.3984
  673MOL0     H88798   8.717   1.691   3.165  0.6735  0.0123 -0.1558
  673MOL0     H88799   8.540   1.791   3.294  0.9137 -1.1679 -0.1935
  673MOL0     H88800   8.369   2.118   3.564  0.9014 -0.0020 -1.1333
  673MOL0     H88801   8.167   2.204   3.669  0.0631 -1.2639  2.7549
  673MOL0     H88802   8.000   2.184   3.804  0.1776 -2.2307  1.5728
  673MOL0     H88803   7.919   2.031   3.789 -1.9663  0.1135  1.2133
  673MOL0     H88804   7.700   2.136   3.744 -0.6198  2.3817 -2.5323
  673MOL0     H88805   7.775   2.294   3.735  0.4026  0.2186  1.0133
  673MOL0     H88806   7.852   2.315   3.940  0.7634 -1.2162  3.2210
  673MOL0     H88807   7.804   2.153   3.992 -1.7850  0.7438  2.0631
  673MOL0     H88808   7.612   2.375   3.904  3.4632  1.7011  2.3436
  673MOL0     H88809   7.583   2.202   3.947  0.7591 -0.9695 -2.0055
  673MOL0     H88810   7.721   2.419   4.129  0.9410 -0.0758  0.9980
  673MOL0     H88811   7.669   2.259   4.179 -0.7819  1.3632  1.3828
  673MOL0     H88812   7.519   2.424   4.284 -1.6605 -1.0444  0.1742
  673MOL0     H88813   7.425   2.333   4.156  0.1186  0.6953 -3.6612
  673MOL0     H88814   7.532   2.609   4.126 -1.2036 -0.2676  2.6566
  673MOL0     H88815   7.445   2.517   3.996  2.2697  1.2851 -0.8742
  673MOL0     H88816   7.296   2.526   4.251 -1.4519  0.2037 -0.2325
  673MOL0     H88817   7.253   2.609   4.096  2.0868  2.0929 -1.8109
  673MOL0     H88818   7.929   1.974   3.406 -0.5123 -0.7223  1.0403
  673MOL0     H88819   8.139   1.905   3.285  0.3616  0.7467 -0.3939
  673MOL0     H88820   8.630   2.178   3.107 -0.9700  0.3651  0.8709
  673MOL0     H88821   8.844   2.083   3.015  1.1716  0.2997  1.7680
  673MOL0     H88822  10.589   1.522   2.929  0.2979  2.7416 -0.9980
  673MOL0     H88823  10.838   1.490   2.873  0.3110  3.6242 -0.2220
  673MOL0     H88824  11.168   1.566   2.362  1.2261 -0.0095 -0.2493
  673MOL0     H88825  11.410   1.541   2.349 -2.5025 -1.9493 -1.8657
  673MOL0     H88826  11.595   1.225   2.595  0.5228  0.2475  0.8094
  673MOL0     H88827  11.680   1.372   2.660 -0.9173  2.3895 -0.6896
  673MOL0     H88828  11.824   1.359   2.459  3.3118 -1.3764  2.2341
  673MOL0     H88829  11.825   1.197   2.539  0.9881 -1.2683 -0.9029
  673MOL0     H88830  11.804   1.233   2.276 -0.8280  0.7309 -1.4439
  673MOL0     H88831  11.636   1.249   2.306  1.0549  1.8474  0.8930
  673MOL0     H88832  11.799   1.017   2.394  0.0381  2.8898  0.6196
  673MOL0     H88833  11.627   1.034   2.421 -1.5178 -1.0511 -2.6029
  673MOL0     H88834  11.670   0.862   2.041 -1.2285  2.5614 -0.8730
  673MOL0     H88835  11.412   1.287   2.691  2.0114 -0.3873 -2.1986
  673MOL0     H88836  11.158   1.296   2.705 -2.5980  3.2013  0.2806
  674MOL0     O88837  10.150   8.611   0.493 -0.0450 -0.4358  0.1780
  674MOL0     C88838  10.188   8.509   0.554  0.4268 -0.4931 -0.6522
  674MOL0     O88839  10.110   8.440   0.649 -0.2778  0.4523 -0.1462
  674MOL0     C88840   9.981   8.465   0.686  0.4716 -0.5426 -0.8339
  674MOL0     C88841   9.917   8.378   0.775  0.6128  0.4757  0.0852
  674MOL0     C88842   9.784   8.395   0.833 -0.5348 -0.5114  0.0642
  674MOL0     C88843   9.722   8.516   0.805  0.0724  0.1557  0.5549
  674MOL0     O88844   9.598   8.539   0.861 -0.2449  0.1969 -0.1172
  674MOL0     C88845   9.547   8.677   0.865 -0.1730  0.1083 -0.6473
  674MOL0     C88846   9.422   8.688   0.958 -0.6983  0.6182  0.1988
  674MOL0     C88847   9.300   8.603   0.920 -0.0945 -0.3794  0.7335
  674MOL0     C88848   9.180   8.618   1.018  0.0570  0.6073  0.2432
  674MOL0     C88849   9.058   8.529   0.993  0.4648 -0.2839 -0.0930
  674MOL0     C88850   8.928   8.596   1.052 -0.8556 -0.4839  0.3625
  674MOL0     C88851   8.792   8.508   1.034 -0.3762  0.1327 -0.2176
  674MOL0     C88852   8.676   8.558   1.111  0.0062 -0.3998 -0.4625
  674MOL0     N88853   8.561   8.478   1.072  0.3102 -0.3405  0.2981
  674MOL0     C88854   8.468   8.445   1.174  0.5481 -0.4859  1.0051
  674MOL0     C88855   8.386   8.349   1.123  0.6598  0.1631  0.5359
  674MOL0     C88856   8.288   8.261   1.186 -0.0024  0.4019  0.0928
  674MOL0     C88857   8.139   8.290   1.157 -0.1719 -0.4035 -0.4185
  674MOL0     C88858   8.054   8.195   1.252 -0.3206 -0.3226 -0.4132
  674MOL0     C88859   7.909   8.237   1.253  0.0057 -0.6546 -0.5968
  674MOL0     O88860   7.861   8.181   1.125 -0.4285 -0.2058  0.3808
  674MOL0     C88861   7.724   8.166   1.113 -0.3856 -0.3929  0.1813
  674MOL0     C88862   7.618   8.206   1.197  0.4095 -0.2977 -0.4372
  674MOL0     C88863   7.485   8.182   1.160  0.7830 -0.5232 -0.1308
  674MOL0     C88864   7.449   8.124   1.037  0.3481  0.0463  1.1527
  674MOL0     C88865   7.309   8.097   0.996  0.4823 -1.0161 -0.2699
  674MOL0     O88866   7.214   8.175   1.054 -0.0202  0.9223  0.0081
  674MOL0     C88867   7.083   8.159   1.016  0.6763 -0.6327  0.6854
  674MOL0     C88868   7.017   8.261   0.945  0.3607 -0.0051  0.8001
  674MOL0     C88869   6.879   8.243   0.906  0.4601  0.1697 -0.2545
  674MOL0     C88870   6.797   8.128   0.955 -0.9405 -0.5769  0.0086
  674MOL0     O88871   6.669   8.122   0.920  0.8510 -0.3260 -0.2642
  674MOL0     C88872   6.597   7.995   0.940 -0.0957  0.2957  0.6665
  674MOL0     C88873   6.455   8.012   0.875 -0.1857  0.2839 -0.0738
  674MOL0     C88874   6.390   7.875   0.836 -0.1298  0.4471 -0.0530
  674MOL0     C88875   6.239   7.887   0.804 -0.8170 -0.6861 -0.4192
  674MOL0     C88876   6.175   7.757   0.790  0.0554  1.2859 -0.5895
  674MOL0     C88877   6.118   7.705   0.928  0.2621  0.7799  0.7722
  674MOL0     C88878   6.081   7.564   0.925  0.5492  1.0331  0.1895
  674MOL0     C88879   5.966   7.518   0.825  0.5190 -1.0828 -0.3636
  674MOL0    Cl88880   5.901   7.352   0.866 -0.1466  0.0058  0.1719
  674MOL0     C88881   6.864   8.029   1.031 -0.4567  0.1190 -0.9118
  674MOL0     C88882   7.001   8.047   1.054 -0.1137 -0.3814 -0.3361
  674MOL0     O88883   7.284   7.999   0.922  0.3513  0.1224  0.2309
  674MOL0     C88884   7.551   8.093   0.952 -0.7109  0.6187 -0.0371
  674MOL0     C88885   7.684   8.112   0.987  0.1050  0.0723  0.0521
  674MOL0     N88886   8.424   8.331   0.990  0.4222 -0.4967  0.2048
  674MOL0     N88887   8.521   8.410   0.958  0.4244 -0.5820  0.0990
  674MOL0     C88888   9.780   8.608   0.719  0.6962  0.1341 -0.5058
  674MOL0     C88889   9.902   8.582   0.650 -0.9429  0.3952 -0.0873
  674MOL0     C88890  10.318   8.454   0.514 -0.9124  1.0560  0.8359
  674MOL0     C88891  10.348   8.326   0.559  0.8378 -0.0612  0.4974
  674MOL0     C88892  10.470   8.263   0.528 -0.9026  0.2489 -1.0049
  674MOL0     C88893  10.567   8.336   0.450 -0.0186  0.4733 -0.5844
  674MOL0     O88894  10.681   8.256   0.419 -0.0547  0.0428  0.4559
  674MOL0     C88895  10.731   8.265   0.282  0.2412  0.5688 -0.0915
  674MOL0     C88896  10.826   8.149   0.262  0.2986 -0.4616  0.0385
  674MOL0     C88897  10.957   8.181   0.338  0.0654  0.7206 -0.2454
  674MOL0     C88898  11.078   8.105   0.290 -0.3040 -0.3917  0.3605
  674MOL0     C88899  11.072   7.962   0.319  0.4056  0.5737  0.4749
  674MOL0     C88900  11.054   7.845   0.361 -0.1030 -0.6271  0.1613
  674MOL0     C88901  10.538   8.463   0.410  0.1731 -0.1227  0.1970
  674MOL0     C88902  10.420   8.520   0.448  0.4614  0.4715  0.2033
  674MOL0     H88903   9.964   8.285   0.806 -0.7983  0.0825  1.1500
  674MOL0     H88904   9.753   8.331   0.916 -1.6606  0.9464  0.8152
  674MOL0     H88905   9.512   8.703   0.765  0.9023  0.3760 -0.9634
  674MOL0     H88906   9.627   8.744   0.898  1.2588 -1.3270 -1.0630
  674MOL0     H88907   9.396   8.793   0.973 -1.2955  0.6193 -0.7855
  674MOL0     H88908   9.444   8.649   1.058 -0.5555 -0.7904 -0.3563
  674MOL0     H88909   9.328   8.498   0.925 -3.1488 -1.5055 -2.0687
  674MOL0     H88910   9.264   8.611   0.817 -0.3031 -2.0959  0.6486
  674MOL0     H88911   9.222   8.594   1.116  0.4460 -1.0761 -0.3058
  674MOL0     H88912   9.146   8.722   1.015  0.3103  0.8819  3.2439
  674MOL0     H88913   9.065   8.426   1.026 -4.7581 -1.3776 -1.5165
  674MOL0     H88914   9.037   8.508   0.888  1.6745 -3.1564  0.1675
  674MOL0     H88915   8.912   8.691   1.001  0.3547  0.8279  2.2973
  674MOL0     H88916   8.942   8.623   1.157  0.8935 -1.4891  0.4137
  674MOL0     H88917   8.778   8.499   0.926 -0.1458 -0.0907 -0.2310
  674MOL0     H88918   8.815   8.406   1.065  2.6748  1.5841  3.0365
  674MOL0     H88919   8.669   8.663   1.080  2.9061  0.3377  1.0541
  674MOL0     H88920   8.696   8.548   1.218  2.6898 -1.2710 -0.9630
  674MOL0     H88921   8.475   8.475   1.278 -0.2748 -1.0623  1.2354
  674MOL0     H88922   8.299   8.261   1.295  1.1422  1.4996 -0.0115
  674MOL0     H88923   8.323   8.161   1.158 -2.0480 -0.1125 -0.8528
  674MOL0     H88924   8.129   8.264   1.051  1.5229 -1.0165 -0.4632
  674MOL0     H88925   8.110   8.393   1.174 -0.7567 -0.0537 -3.0403
  674MOL0     H88926   8.058   8.091   1.220  0.5629 -0.6372  0.6542
  674MOL0     H88927   8.094   8.208   1.353 -0.6155  1.5430 -0.4924
  674MOL0     H88928   7.894   8.344   1.274 -1.8196 -0.3251 -3.0762
  674MOL0     H88929   7.861   8.188   1.338 -2.5605  2.1659 -0.2205
  674MOL0     H88930   7.640   8.245   1.295  1.2354 -1.1828 -0.2460
  674MOL0     H88931   7.413   8.220   1.232  0.9864 -1.8749  0.8424
  674MOL0     H88932   7.065   8.355   0.921 -0.8056  0.5158  0.4392
  674MOL0     H88933   6.826   8.320   0.853  2.0181  0.0958 -2.0542
  674MOL0     H88934   6.588   7.974   1.048  0.9688 -0.3856  0.6354
  674MOL0     H88935   6.651   7.916   0.887 -0.7068 -0.5223  1.2205
  674MOL0     H88936   6.479   8.065   0.781  0.7895  0.5803  0.3244
  674MOL0     H88937   6.393   8.075   0.939  0.4908  2.0482 -1.0679
  674MOL0     H88938   6.409   7.805   0.918  0.3526  0.1501 -0.4086
  674MOL0     H88939   6.449   7.836   0.752  0.5196  1.4182 -0.0658
  674MOL0     H88940   6.189   7.947   0.880 -2.3987 -1.4467 -0.8206
  674MOL0     H88941   6.244   7.929   0.703 -0.5866 -1.9145 -0.9340
  674MOL0     H88942   6.232   7.676   0.745  1.4911  1.1719  1.2942
  674MOL0     H88943   6.084   7.774   0.732 -0.8143 -0.3426  0.2333
  674MOL0     H88944   6.036   7.769   0.961 -2.0142 -1.1719 -0.7029
  674MOL0     H88945   6.198   7.713   1.001 -1.8469 -2.1457  3.6911
  674MOL0     H88946   6.169   7.501   0.909  1.6038  2.3946  0.4518
  674MOL0     H88947   6.053   7.528   1.024  0.3781 -2.3512 -0.9683
  674MOL0     H88948   5.994   7.528   0.720  1.0385 -0.5702 -0.1871
  674MOL0     H88949   5.886   7.591   0.844 -1.2107 -3.3619  1.6435
  674MOL0     H88950   6.812   7.941   1.068  1.4460 -2.4287 -3.8139
  674MOL0     H88951   7.057   7.980   1.117 -0.7704  0.5908  1.3680
  674MOL0     H88952   7.521   8.060   0.854 -1.2613 -0.4200  0.4699
  674MOL0     H88953   7.755   8.090   0.908 -1.4869 -1.0809 -1.1188
  674MOL0     H88954   9.720   8.687   0.675  2.9854  2.3067  0.0435
  674MOL0     H88955   9.941   8.662   0.588 -0.2499 -0.2902 -0.5636
  674MOL0     H88956  10.273   8.262   0.605  1.2576 -1.5940 -0.8406
  674MOL0     H88957  10.488   8.166   0.573 -4.5731 -0.1793 -0.1760
  674MOL0     H88958  10.787   8.359   0.280 -0.5369  1.0415 -0.2299
  674MOL0     H88959  10.645   8.264   0.215 -0.8095  0.1757  1.2023
  674MOL0     H88960  10.770   8.062   0.296  0.2147 -0.6198 -0.5025
  674MOL0     H88961  10.834   8.140   0.153 -1.3447  2.8855 -0.5158
  674MOL0     H88962  10.945   8.141   0.439 -2.0210 -0.0800 -0.7557
  674MOL0     H88963  10.977   8.289   0.341  1.7169  0.5297  4.6215
  674MOL0     H88964  11.078   8.107   0.181 -0.6815  1.2065  0.3653
  674MOL0     H88965  11.172   8.145   0.329  0.6850 -2.0983 -0.1253
  674MOL0     H88966  11.048   7.742   0.390  0.1058 -1.6644 -3.1234
  674MOL0     H88967  10.611   8.524   0.357 -1.0525 -0.3417 -1.8285
  674MOL0     H88968  10.396   8.619   0.412  0.2470  0.6406  0.8104
  675MOL0     O88969   6.951   2.697   5.161 -0.1954  0.3747  0.3130
  675MOL0     C88970   6.967   2.810   5.211  0.8745  1.4000 -0.2451
  675MOL0     O88971   6.865   2.876   5.275  0.2131 -0.1113 -0.1728
  675MOL0     C88972   6.745   2.810   5.288  0.7743 -0.5188 -0.3395
  675MOL0     C88973   6.628   2.866   5.251 -0.8769 -0.0233  0.2136
  675MOL0     C88974   6.505   2.802   5.284  0.6627 -0.3933  0.3812
  675MOL0     C88975   6.501   2.680   5.343 -0.3364  0.4821 -0.0134
  675MOL0     O88976   6.387   2.608   5.387  0.0247 -0.3901 -0.0531
  675MOL0     C88977   6.260   2.670   5.383 -0.0882  0.0496 -0.7282
  675MOL0     C88978   6.149   2.576   5.432  0.5404 -0.4787 -0.2583
  675MOL0     C88979   6.133   2.551   5.586  0.9979 -0.1668 -0.4059
  675MOL0     C88980   6.023   2.452   5.618 -0.3304 -0.2153  0.7691
  675MOL0     C88981   5.982   2.471   5.771  0.0356 -0.0282 -0.7600
  675MOL0     C88982   5.882   2.365   5.819  0.2155 -0.6860  0.2710
  675MOL0     C88983   5.823   2.390   5.957 -0.0812  0.3291 -0.1651
  675MOL0     C88984   5.777   2.249   6.008  0.1963 -0.2072 -0.7698
  675MOL0     N88985   5.682   2.174   5.925  0.5653  0.5473  0.3271
  675MOL0     C88986   5.557   2.211   5.879  0.5290 -0.9130  0.0745
  675MOL0     C88987   5.516   2.120   5.790 -0.5836 -0.4385  0.1120
  675MOL0     C88988   5.384   2.105   5.715 -0.1174  0.4992 -0.0736
  675MOL0     C88989   5.269   2.186   5.763  0.1137 -0.2043 -0.2378
  675MOL0     C88990   5.137   2.189   5.671 -0.3195 -0.1850  0.3010
  675MOL0     C88991   5.041   2.307   5.700 -0.0799 -0.4524 -0.0344
  675MOL0     O88992   4.977   2.272   5.822  0.4669  0.4082  0.3777
  675MOL0     C88993   4.855   2.207   5.809 -0.2880  0.2195 -0.2064
  675MOL0     C88994   4.817   2.121   5.923 -0.4215  0.2957 -0.1521
  675MOL0     C88995   4.686   2.077   5.936  0.2927  0.0129  1.0130
  675MOL0     C88996   4.582   2.108   5.833 -0.3088 -0.0297 -0.0039
  675MOL0     C88997   4.445   2.079   5.845 -0.3474 -0.3357 -0.0695
  675MOL0     O88998   4.360   2.111   5.742 -0.0020 -0.2312  0.2398
  675MOL0     C88999   4.225   2.124   5.763  1.0290  0.2460  0.4104
  675MOL0     C89000   4.183   2.242   5.819 -1.1462 -0.0106  0.3070
  675MOL0     C89001   4.049   2.258   5.852  0.2854  0.0937 -0.8443
  675MOL0     C89002   3.949   2.174   5.820 -0.0872 -0.7445  0.1110
  675MOL0     O89003   3.824   2.194   5.844 -0.6707 -0.6204 -0.7226
  675MOL0     C89004   3.725   2.088   5.835  0.3509 -0.4864  1.2018
  675MOL0     C89005   3.591   2.152   5.807  0.1036 -0.2141 -0.2927
  675MOL0     C89006   3.479   2.057   5.768 -0.0728 -0.4203 -0.4828
  675MOL0     C89007   3.370   2.141   5.711  0.6986  0.2476  0.2676
  675MOL0     C89008   3.247   2.065   5.660 -0.3534 -0.0921  0.7733
  675MOL0     C89009   3.177   1.970   5.761 -0.3786  0.1476 -0.3574
  675MOL0     C89010   3.042   1.900   5.713  0.1669 -0.5077  0.7533
  675MOL0     C89011   3.066   1.802   5.596 -0.1310 -0.2017 -0.1331
  675MOL0    Cl89012   2.904   1.736   5.541 -0.1874 -0.3332 -0.1970
  675MOL0     C89013   3.998   2.059   5.750  1.1463 -0.6369  0.1946
  675MOL0     C89014   4.127   2.026   5.726 -0.0179  0.4166 -0.2757
  675MOL0     O89015   4.415   2.048   5.957 -0.9229  0.2572  0.6854
  675MOL0     C89016   4.638   2.163   5.719  0.0208  0.0209 -0.1671
  675MOL0     C89017   4.759   2.225   5.711 -0.5448  0.3980 -0.1138
  675MOL0     N89018   5.624   2.046   5.768 -0.5267  1.0049 -0.5760
  675MOL0     N89019   5.718   2.064   5.848 -0.2768  0.1385  0.2228
  675MOL0     C89020   6.623   2.618   5.374 -0.3997 -0.2633 -0.0131
  675MOL0     C89021   6.744   2.680   5.344  0.7321  0.0303 -0.2646
  675MOL0     C89022   7.103   2.869   5.205  0.8809  0.0647  0.1853
  675MOL0     C89023   7.137   2.982   5.274  0.4273 -0.9357 -0.7632
  675MOL0     C89024   7.252   3.051   5.255 -0.0119 -0.3392  0.5179
  675MOL0     C89025   7.352   2.994   5.171 -0.7723 -0.5118 -0.0271
  675MOL0     O89026   7.466   3.063   5.168  0.1887  0.5045 -0.5099
  675MOL0     C89027   7.582   3.007   5.109  0.8653  0.1328 -0.5971
  675MOL0     C89028   7.683   3.123   5.103  0.3992  0.4669  0.0935
  675MOL0     C89029   7.802   3.088   5.007 -0.9025 -0.3215 -0.0481
  675MOL0     C89030   7.911   3.024   5.087  0.0313 -0.8911 -0.5608
  675MOL0     C89031   8.008   2.971   4.990 -0.3689  0.5112 -0.3915
  675MOL0     C89032   8.100   2.949   4.912 -0.0550  0.3455  0.2435
  675MOL0     C89033   7.332   2.868   5.118 -0.1547  0.0686  0.4991
  675MOL0     C89034   7.209   2.808   5.137  0.5701  0.2584  0.1845
  675MOL0     H89035   6.637   2.963   5.204  1.5976 -0.0057  0.5633
  675MOL0     H89036   6.414   2.859   5.269  0.5380 -1.2238 -2.7400
  675MOL0     H89037   6.228   2.692   5.281 -1.8382  0.4172 -0.1207
  675MOL0     H89038   6.258   2.763   5.442  1.0975 -0.2707 -0.1416
  675MOL0     H89039   6.168   2.483   5.377 -1.7450  0.2330 -2.4742
  675MOL0     H89040   6.053   2.614   5.396  0.8877  2.5821  1.6883
  675MOL0     H89041   6.104   2.646   5.630 -0.1594 -0.4325 -0.5703
  675MOL0     H89042   6.226   2.507   5.624  1.1406  0.3961 -0.0989
  675MOL0     H89043   5.928   2.478   5.571 -1.8162 -4.0419  1.3502
  675MOL0     H89044   6.056   2.350   5.599 -3.2811 -1.4400  1.7531
  675MOL0     H89045   5.938   2.570   5.784  0.8935  0.2819 -0.0865
  675MOL0     H89046   6.067   2.452   5.838 -1.9498 -1.1125  1.6537
  675MOL0     H89047   5.927   2.266   5.808  0.0222 -0.6520 -0.9908
  675MOL0     H89048   5.802   2.365   5.744 -0.8262  0.0487  1.3468
  675MOL0     H89049   5.905   2.432   6.017 -0.6435  1.3556 -0.0928
  675MOL0     H89050   5.739   2.459   5.965 -0.2516  0.1101 -0.0751
  675MOL0     H89051   5.736   2.263   6.108  3.1126 -0.2811  0.5541
  675MOL0     H89052   5.869   2.192   6.024  1.6071  1.1824 -3.1938
  675MOL0     H89053   5.498   2.293   5.919 -0.5288 -3.1405  3.4905
  675MOL0     H89054   5.358   1.999   5.716  2.7726 -0.2885  0.7995
  675MOL0     H89055   5.403   2.130   5.610 -1.3736 -1.0639 -0.7092
  675MOL0     H89056   5.300   2.291   5.766  0.9141 -0.4620  2.0013
  675MOL0     H89057   5.247   2.152   5.864  0.9318 -0.7953 -0.2425
  675MOL0     H89058   5.173   2.191   5.568  1.5624 -5.4446  0.5259
  675MOL0     H89059   5.083   2.095   5.683  1.0848 -1.5139 -2.7118
  675MOL0     H89060   4.975   2.333   5.617  1.9574 -2.9885 -2.6654
  675MOL0     H89061   5.101   2.399   5.699 -2.0069  0.8613 -1.0018
  675MOL0     H89062   4.885   2.096   6.004 -1.2723  0.9475  0.7744
  675MOL0     H89063   4.648   2.024   6.023 -1.8061  1.7104  1.2023
  675MOL0     H89064   4.254   2.324   5.822  0.8269 -1.6647  0.7323
  675MOL0     H89065   4.025   2.358   5.887 -0.0365 -1.4011  3.7224
  675MOL0     H89066   3.717   2.040   5.933  0.6616 -2.4228  0.3301
  675MOL0     H89067   3.747   2.014   5.757  1.5031  3.5074 -2.6724
  675MOL0     H89068   3.614   2.232   5.735  1.9190  1.4204  1.9225
  675MOL0     H89069   3.559   2.205   5.898  4.0254 -0.9926  1.7715
  675MOL0     H89070   3.446   1.999   5.855  1.0741 -3.2279 -1.7858
  675MOL0     H89071   3.511   1.996   5.684  1.6361 -1.2620  0.7234
  675MOL0     H89072   3.326   2.202   5.790 -6.2635  0.2573 -2.8633
  675MOL0     H89073   3.410   2.200   5.628  0.9041 -1.4963 -0.9321
  675MOL0     H89074   3.263   2.004   5.571 -3.3956  4.1564 -3.1938
  675MOL0     H89075   3.180   2.145   5.628  0.2393 -0.2886 -1.0330
  675MOL0     H89076   3.146   2.024   5.851  0.2912 -5.2242  3.6287
  675MOL0     H89077   3.236   1.884   5.795 -3.5059 -1.2602  2.0611
  675MOL0     H89078   3.000   1.848   5.799  0.8099 -3.2064 -0.4832
  675MOL0     H89079   2.971   1.977   5.679 -1.3586 -1.7161  1.1168
  675MOL0     H89080   3.128   1.726   5.644  2.2055  1.1704 -0.7901
  675MOL0     H89081   3.127   1.833   5.511 -0.0799 -0.0982 -0.0590
  675MOL0     H89082   3.933   1.993   5.694 -0.1111 -3.5334  4.6244
  675MOL0     H89083   4.154   1.937   5.670 -1.3539 -0.0820 -0.1516
  675MOL0     H89084   4.570   2.187   5.637  0.5511 -0.5321 -0.7738
  675MOL0     H89085   4.782   2.286   5.624  2.1896 -0.4939 -0.1336
  675MOL0     H89086   6.623   2.521   5.424  3.5553 -0.9503 -0.9890
  675MOL0     H89087   6.833   2.636   5.388  1.2062  0.5638 -0.6754
  675MOL0     H89088   7.069   3.028   5.345 -1.1681 -0.0551 -2.7428
  675MOL0     H89089   7.265   3.141   5.314  3.0064 -2.5887  3.6876
  675MOL0     H89090   7.559   2.989   5.004  0.4961 -0.3814 -0.4318
  675MOL0     H89091   7.626   2.912   5.143  0.9699  0.0984 -0.8272
  675MOL0     H89092   7.626   3.205   5.060 -1.0670 -0.5939 -0.0462
  675MOL0     H89093   7.722   3.154   5.201 -0.6207 -1.2244  1.0768
  675MOL0     H89094   7.841   3.183   4.968  1.3861 -0.8281  0.8500
  675MOL0     H89095   7.774   3.021   4.926  1.0581  0.0784 -1.0956
  675MOL0     H89096   7.958   3.089   5.161  0.7284 -1.3645 -0.5769
  675MOL0     H89097   7.866   2.950   5.154  1.7887  1.0290  2.9470
  675MOL0     H89098   8.188   2.937   4.852 -0.1341  0.0562  0.1850
  675MOL0     H89099   7.400   2.796   5.074 -1.7064 -0.3544 -1.3406
  675MOL0     H89100   7.195   2.710   5.092 -0.3260 -1.2452  3.3623
  676MOL0     O89101   0.151   4.567  10.845 -0.3064 -0.4627 -0.0581
  676MOL0     C89102   0.132   4.454  10.796 -0.3891 -0.5337  0.4697
  676MOL0     O89103   0.010   4.402  10.782  0.9721 -0.4080 -0.5591
  676MOL0     C89104  -0.101   4.480  10.762 -1.3395 -0.3469 -0.3539
  676MOL0     C89105  -0.164   4.559  10.858 -0.3106  0.8391 -0.5336
  676MOL0     C89106  -0.266   4.642  10.828 -0.1760 -1.0661 -0.3967
  676MOL0     C89107  -0.317   4.644  10.695 -0.3179  0.0767  0.7857
  676MOL0     O89108  -0.423   4.725  10.664  1.2612  0.3881 -0.7665
  676MOL0     C89109  -0.476   4.722  10.531 -0.1935  0.1922 -0.1800
  676MOL0     C89110  -0.583   4.831  10.500 -0.6683  0.5228 -0.2427
  676MOL0     C89111  -0.716   4.777  10.551  0.2749 -0.4048  0.1216
  676MOL0     C89112  -0.826   4.885  10.524 -0.1918 -0.8970 -0.0306
  676MOL0     C89113  -0.967   4.848  10.574 -0.4739 -0.1231 -0.1529
  676MOL0     C89114  -1.073   4.953  10.537 -0.0782 -0.5888 -0.2685
  676MOL0     C89115  -1.209   4.931  10.609 -0.5840  0.1140  0.0125
  676MOL0     C89116  -1.314   5.030  10.564  0.6360  0.3911  0.1831
  676MOL0     N89117  -1.303   5.161  10.626  0.2742 -0.6887  0.6679
  676MOL0     C89118  -1.317   5.191  10.757 -0.1622 -0.9325 -0.3815
  676MOL0     C89119  -1.270   5.319  10.774 -0.3183  0.3642 -0.3722
  676MOL0     C89120  -1.256   5.400  10.905  0.1027  0.3231 -0.5499
  676MOL0     C89121  -1.393   5.437  10.964  0.1251  0.0181  0.4104
  676MOL0     C89122  -1.485   5.510  10.869  1.4967 -0.3283 -0.1697
  676MOL0     C89123  -1.438   5.653  10.824 -0.3486 -0.1991 -1.3387
  676MOL0     O89124  -1.434   5.758  10.929  0.2965  0.0827 -0.4486
  676MOL0     C89125  -1.549   5.814  10.976 -0.3784  0.1361  0.7812
  676MOL0     C89126  -1.671   5.780  10.917 -0.2934  0.2908  0.2203
  676MOL0     C89127  -1.791   5.849  10.959  0.0931 -0.0469 -0.0931
  676MOL0     C89128  -1.788   5.962  11.042  0.4282 -0.6641 -0.5158
  676MOL0     C89129  -1.918   6.028  11.077 -0.1237  0.7475 -0.6767
  676MOL0     O89130  -2.031   5.988  11.016 -0.0388  0.0695 -0.1853
  676MOL0     C89131  -2.144   6.041  11.065 -0.0313 -0.4007  0.9000
  676MOL0     C89132  -2.164   6.182  11.064  0.2410  0.3088  0.2865
  676MOL0     C89133  -2.293   6.227  11.119  0.4434 -0.0866  0.4950
  676MOL0     C89134  -2.390   6.141  11.164  1.3976  0.1344 -1.1402
  676MOL0     O89135  -2.516   6.170  11.206  0.1367  0.1356  0.5189
  676MOL0     C89136  -2.581   6.289  11.166  0.3492 -1.0025 -0.6991
  676MOL0     C89137  -2.708   6.307  11.263  0.6688 -0.5591  0.1419
  676MOL0     C89138  -2.836   6.304  11.181 -0.2411 -0.1370 -0.3304
  676MOL0     C89139  -2.962   6.324  11.259 -0.1785  0.4615 -0.5069
  676MOL0     C89140  -3.084   6.297  11.166  0.4965  0.4320  0.7265
  676MOL0     C89141  -3.211   6.316  11.242  0.1828  0.2132 -0.4895
  676MOL0     C89142  -3.338   6.261  11.165 -0.6367  0.2612 -0.2004
  676MOL0     C89143  -3.467   6.264  11.246  0.6096 -0.4739  0.0866
  676MOL0    Cl89144  -3.444   6.143  11.372  0.2870  0.3372  0.3079
  676MOL0     C89145  -2.363   6.001  11.164  0.2432 -0.0910 -0.6184
  676MOL0     C89146  -2.238   5.954  11.113  0.2253  0.2204 -0.2151
  676MOL0     O89147  -1.901   6.118  11.159  0.8003  0.1326  0.1965
  676MOL0     C89148  -1.659   5.991  11.101 -0.1317  0.4760 -0.7321
  676MOL0     C89149  -1.546   5.920  11.063  0.8625  0.8499 -0.2518
  676MOL0     N89150  -1.224   5.348  10.650  0.1438  0.1848 -0.5444
  676MOL0     N89151  -1.240   5.257  10.564  0.0012 -0.3244 -0.0905
  676MOL0     C89152  -0.260   4.565  10.602  0.1981 -0.1348  0.5801
  676MOL0     C89153  -0.146   4.494  10.634 -0.1679  0.6578  0.1964
  676MOL0     C89154   0.257   4.367  10.768  0.0923 -0.0476 -0.1642
  676MOL0     C89155   0.382   4.418  10.799 -0.2630  0.2839 -0.4303
  676MOL0     C89156   0.499   4.354  10.753 -0.1314  0.2497 -0.1058
  676MOL0     C89157   0.495   4.241  10.668  0.3753 -0.4903 -0.3866
  676MOL0     O89158   0.602   4.181  10.625 -0.3235  0.4068  0.4230
  676MOL0     C89159   0.715   4.175  10.716 -0.4336 -0.4355  0.2340
  676MOL0     C89160   0.801   4.048  10.693  0.5118 -0.2655 -0.0231
  676MOL0     C89161   0.880   4.055  10.560 -0.2519  0.2248 -0.3448
  676MOL0     C89162   0.899   3.918  10.488  0.3743 -0.2991 -0.7089
  676MOL0     C89163   0.994   3.831  10.553 -0.2856  0.4997  0.3850
  676MOL0     C89164   1.092   3.771  10.582 -0.1701  0.5352  0.3463
  676MOL0     C89165   0.371   4.189  10.642  0.1029  0.0367 -0.4436
  676MOL0     C89166   0.255   4.252  10.693 -0.2912 -0.3768  0.3880
  676MOL0     H89167  -0.138   4.560  10.964 -0.8859  1.6270 -0.3872
  676MOL0     H89168  -0.309   4.703  10.907 -0.6485  1.3590 -2.3846
  676MOL0     H89169  -0.499   4.623  10.490  1.3256  0.1938 -1.1167
  676MOL0     H89170  -0.397   4.752  10.462  0.8522 -3.1629 -0.6661
  676MOL0     H89171  -0.592   4.838  10.391 -0.8790 -1.9783 -0.4565
  676MOL0     H89172  -0.561   4.925  10.550  1.2836 -0.4163  0.7802
  676MOL0     H89173  -0.718   4.747  10.656  0.0875 -0.5309  0.0839
  676MOL0     H89174  -0.741   4.685  10.497 -1.6131  0.2539 -0.1889
  676MOL0     H89175  -0.795   4.977  10.575  1.8688 -1.6874  0.2210
  676MOL0     H89176  -0.838   4.909  10.418 -1.0794 -0.0667  0.2313
  676MOL0     H89177  -0.971   4.834  10.682 -1.4014 -1.2799 -0.3186
  676MOL0     H89178  -0.995   4.755  10.523 -0.7777  0.0519 -0.3093
  676MOL0     H89179  -1.101   4.964  10.432  1.3056  2.5580 -0.3957
  676MOL0     H89180  -1.034   5.049  10.569  2.2640 -2.0326  1.5180
  676MOL0     H89181  -1.247   4.830  10.591  1.0486 -0.7862  1.2707
  676MOL0     H89182  -1.203   4.939  10.718 -0.9062  0.4550  0.0036
  676MOL0     H89183  -1.414   4.992  10.589  0.6437 -1.0288 -1.6743
  676MOL0     H89184  -1.323   5.036  10.455  1.6144  3.6390  0.1672
  676MOL0     H89185  -1.359   5.125  10.833 -0.7865 -0.4905 -0.3326
  676MOL0     H89186  -1.196   5.488  10.880  3.1251 -1.6597 -0.7480
  676MOL0     H89187  -1.205   5.336  10.978 -0.0986  2.7134  1.8816
  676MOL0     H89188  -1.381   5.507  11.047 -0.7840  0.7174 -0.0202
  676MOL0     H89189  -1.436   5.341  10.995 -0.0388  0.0057  0.1513
  676MOL0     H89190  -1.502   5.449  10.780 -2.4232 -0.5170  0.5567
  676MOL0     H89191  -1.584   5.518  10.914  1.2288  1.8835 -1.0311
  676MOL0     H89192  -1.500   5.694  10.744 -0.5665  0.0466 -1.0427
  676MOL0     H89193  -1.334   5.639  10.793 -0.3012 -4.3049  0.0492
  676MOL0     H89194  -1.692   5.717  10.832 -2.4442 -2.5805  2.6758
  676MOL0     H89195  -1.881   5.819  10.907  0.3683 -0.3114 -0.4197
  676MOL0     H89196  -2.085   6.246  11.026 -0.3131  1.1196  0.4724
  676MOL0     H89197  -2.294   6.335  11.137 -1.2670 -0.2882  1.8682
  676MOL0     H89198  -2.622   6.285  11.065 -3.8704 -2.4849  0.8543
  676MOL0     H89199  -2.514   6.373  11.187 -2.1559 -0.0109  5.5021
  676MOL0     H89200  -2.701   6.403  11.314 -2.2606 -1.3991  2.4307
  676MOL0     H89201  -2.704   6.231  11.342  2.6269  1.4268  2.0714
  676MOL0     H89202  -2.830   6.202  11.142  0.6057 -0.6780  1.1330
  676MOL0     H89203  -2.821   6.379  11.102  3.5050 -2.2919 -1.9479
  676MOL0     H89204  -2.950   6.252  11.340 -0.7407  2.0325  1.0164
  676MOL0     H89205  -2.969   6.421  11.307  0.5677 -0.5750  1.8522
  676MOL0     H89206  -3.091   6.204  11.111  0.9490  2.3123 -2.7747
  676MOL0     H89207  -3.072   6.358  11.076  0.5377  1.7880  1.6010
  676MOL0     H89208  -3.234   6.418  11.276 -1.6615 -1.0813  2.4783
  676MOL0     H89209  -3.199   6.252  11.330  0.7336  0.4947 -0.3512
  676MOL0     H89210  -3.350   6.321  11.075 -0.2703  1.4322  0.5010
  676MOL0     H89211  -3.322   6.154  11.146 -0.0680  0.4731 -0.9501
  676MOL0     H89212  -3.552   6.236  11.183  1.0394  0.1319 -0.7754
  676MOL0     H89213  -3.494   6.366  11.277 -2.2009 -0.8759 -0.7407
  676MOL0     H89214  -2.439   5.930  11.197 -1.0851  2.3619  2.0339
  676MOL0     H89215  -2.218   5.848  11.100 -4.2881 -0.7804 -0.4609
  676MOL0     H89216  -1.662   6.058  11.186  0.4207  1.1032 -1.1975
  676MOL0     H89217  -1.450   5.945  11.106  1.3080  0.3435 -0.9299
  676MOL0     H89218  -0.284   4.573  10.496  1.0909 -2.9882  0.0771
  676MOL0     H89219  -0.093   4.436  10.559 -2.8197 -2.8303  0.7595
  676MOL0     H89220   0.384   4.514  10.850  3.1322  1.0554 -1.7821
  676MOL0     H89221   0.591   4.398  10.789  2.1879 -2.5194 -2.2074
  676MOL0     H89222   0.680   4.160  10.819 -0.0123  0.3613  0.5040
  676MOL0     H89223   0.777   4.264  10.704  1.1804 -1.6875 -1.2039
  676MOL0     H89224   0.872   4.047  10.775  1.0294 -1.7129 -0.4529
  676MOL0     H89225   0.733   3.962  10.689  0.0837 -0.0333  1.6475
  676MOL0     H89226   0.983   4.084  10.585 -0.3673 -1.2984  2.3080
  676MOL0     H89227   0.823   4.120  10.494 -2.1354 -0.5690  0.4347
  676MOL0     H89228   0.806   3.867  10.461  0.9005 -0.4766 -2.3265
  676MOL0     H89229   0.946   3.941  10.392 -1.1052  2.3639 -0.8821
  676MOL0     H89230   1.165   3.694  10.602  0.0560 -0.7866 -4.3173
  676MOL0     H89231   0.349   4.101  10.581 -0.2230 -0.4356  0.3363
  676MOL0     H89232   0.154   4.221  10.667 -0.5711 -0.2960  1.3697
  677MOL0     O89233   6.188   6.488   4.499  0.1473 -1.0312 -0.2073
  677MOL0     C89234   6.291   6.433   4.534 -1.2968 -0.3179 -0.3102
  677MOL0     O89235   6.309   6.307   4.565  0.0622  0.3991 -0.4296
  677MOL0     C89236   6.198   6.226   4.580  0.0048  0.5107 -0.5084
  677MOL0     C89237   6.202   6.097   4.525 -0.4444 -0.5058  0.4172
  677MOL0     C89238   6.095   6.011   4.546 -0.3055  0.5212 -0.8088
  677MOL0     C89239   5.974   6.048   4.602  0.3754  0.3932 -0.0626
  677MOL0     O89240   5.867   5.967   4.609 -0.2603 -0.4606  0.1348
  677MOL0     C89241   5.858   5.858   4.521 -0.4611  0.0548  0.4507
  677MOL0     C89242   5.725   5.787   4.557  0.6743  0.4267 -1.3233
  677MOL0     C89243   5.709   5.671   4.460 -0.4671 -0.8795  0.0919
  677MOL0     C89244   5.591   5.586   4.489 -0.4384  0.1406 -0.1246
  677MOL0     C89245   5.458   5.649   4.458 -0.0099 -0.6586 -0.6360
  677MOL0     C89246   5.333   5.552   4.490  0.0192  0.2380 -0.5295
  677MOL0     C89247   5.197   5.615   4.465  0.2153  0.1456  0.1202
  677MOL0     C89248   5.162   5.701   4.590 -0.6060 -1.2470 -0.0813
  677MOL0     N89249   5.020   5.739   4.580  0.5317 -0.7070  0.3184
  677MOL0     C89250   4.964   5.817   4.481  0.7348 -0.9698  1.0549
  677MOL0     C89251   4.841   5.856   4.541 -0.5517 -0.2980  0.0330
  677MOL0     C89252   4.740   5.956   4.501 -0.4203  0.4334  0.7797
  677MOL0     C89253   4.610   5.896   4.444 -0.1227  0.2715 -0.4204
  677MOL0     C89254   4.551   5.788   4.531  0.4943 -0.1005  0.6036
  677MOL0     C89255   4.405   5.738   4.486 -0.2005 -0.9699  0.5856
  677MOL0     O89256   4.407   5.642   4.384 -0.6051 -0.2418  0.4735
  677MOL0     C89257   4.278   5.613   4.343 -0.0187 -0.3187  0.0054
  677MOL0     C89258   4.182   5.562   4.434 -0.8614 -0.1555 -0.5091
  677MOL0     C89259   4.054   5.537   4.383  0.3012  0.2943  0.0745
  677MOL0     C89260   4.021   5.559   4.246 -0.2964 -0.2028  0.0475
  677MOL0     C89261   3.890   5.535   4.192 -0.0207  0.2598 -0.0480
  677MOL0     O89262   3.791   5.496   4.283 -0.1302  0.8337 -0.1710
  677MOL0     C89263   3.663   5.472   4.239 -0.5858 -0.4078  0.9195
  677MOL0     C89264   3.595   5.584   4.193  0.0657 -0.1548  0.9340
  677MOL0     C89265   3.461   5.590   4.159 -0.6618  0.3922  0.3124
  677MOL0     C89266   3.388   5.469   4.160 -0.9817  0.4099 -0.4241
  677MOL0     O89267   3.257   5.483   4.124 -0.0084  0.6871  0.2754
  677MOL0     C89268   3.181   5.371   4.085  0.1867 -0.5350  0.7801
  677MOL0     C89269   3.030   5.405   4.081  0.9779  0.0107  0.8488
  677MOL0     C89270   2.998   5.516   3.975  0.2383 -0.1167 -0.2495
  677MOL0     C89271   2.844   5.518   3.964 -0.0890 -0.1718  0.1563
  677MOL0     C89272   2.794   5.590   4.094  0.3761  0.4083 -0.4103
  677MOL0     C89273   2.638   5.616   4.081 -0.6641 -0.0001  0.4132
  677MOL0     C89274   2.582   5.693   3.962 -0.7745  0.3953  0.0176
  677MOL0     C89275   2.645   5.835   3.933 -0.6432  0.9480  0.0689
  677MOL0    Cl89276   2.599   5.902   3.776 -0.4362 -0.2121  0.3035
  677MOL0     C89277   3.456   5.345   4.192 -0.5203 -0.0309 -0.0109
  677MOL0     C89278   3.594   5.343   4.235  0.3618  0.9987  0.4096
  677MOL0     O89279   3.875   5.543   4.071 -0.4600 -0.0018  0.0290
  677MOL0     C89280   4.122   5.594   4.158 -0.4259  0.0972 -0.1910
  677MOL0     C89281   4.249   5.620   4.210  0.0482 -1.0265  0.4947
  677MOL0     N89282   4.831   5.786   4.661  0.1646 -0.0605 -0.2506
  677MOL0     N89283   4.929   5.717   4.679 -0.4561 -0.5867  0.1033
  677MOL0     C89284   5.960   6.181   4.639 -0.6324  0.7033 -0.2342
  677MOL0     C89285   6.075   6.265   4.636  0.3541  0.6181  0.4255
  677MOL0     C89286   6.418   6.511   4.534  0.7310  0.6527  0.0743
  677MOL0     C89287   6.540   6.442   4.538  0.5638  0.1882  0.4921
  677MOL0     C89288   6.660   6.512   4.542 -0.3734 -0.9602  0.7113
  677MOL0     C89289   6.664   6.652   4.530  0.6507 -0.2504  1.0789
  677MOL0     O89290   6.781   6.731   4.540 -0.7326  0.1793  0.4052
  677MOL0     C89291   6.889   6.671   4.612  0.0169  0.0098  0.2338
  677MOL0     C89292   6.975   6.785   4.670 -0.1725  0.5317  0.7933
  677MOL0     C89293   7.038   6.865   4.553 -0.3172  0.2317  0.1497
  677MOL0     C89294   7.160   6.944   4.604 -0.1792  0.4001 -0.2246
  677MOL0     C89295   7.186   7.054   4.507  0.0492  0.8684  0.1260
  677MOL0     C89296   7.224   7.142   4.435  0.1544  0.3780 -0.6564
  677MOL0     C89297   6.535   6.721   4.523 -0.1218 -0.2814  0.2961
  677MOL0     C89298   6.421   6.650   4.533 -0.2252 -0.2480 -0.3185
  677MOL0     H89299   6.293   6.056   4.482 -0.7343 -3.0245  1.9930
  677MOL0     H89300   6.109   5.915   4.497  2.8587 -1.0506  2.7296
  677MOL0     H89301   5.938   5.783   4.519 -1.3895 -0.9614 -0.9905
  677MOL0     H89302   5.853   5.902   4.421 -0.1788 -1.6305 -0.3403
  677MOL0     H89303   5.640   5.855   4.549  0.4145  1.3620  4.6738
  677MOL0     H89304   5.735   5.762   4.663  2.4266 -0.2270 -1.6159
  677MOL0     H89305   5.796   5.606   4.466  2.0143  2.1789 -0.4107
  677MOL0     H89306   5.714   5.704   4.356  1.7716  1.5229  0.8729
  677MOL0     H89307   5.596   5.489   4.440 -0.4465  0.3032 -0.4515
  677MOL0     H89308   5.600   5.570   4.597 -0.4094  4.6095  0.7500
  677MOL0     H89309   5.458   5.667   4.350  0.5240  1.2031 -0.3700
  677MOL0     H89310   5.445   5.743   4.512  2.7344 -0.6982  0.2572
  677MOL0     H89311   5.350   5.503   4.586 -0.7007  0.4078 -0.3135
  677MOL0     H89312   5.342   5.472   4.416  2.5230  1.5782 -1.8403
  677MOL0     H89313   5.198   5.689   4.384 -0.8991  1.8749  1.6181
  677MOL0     H89314   5.117   5.542   4.450 -1.1269  1.4329  0.7395
  677MOL0     H89315   5.220   5.793   4.578  2.4995 -3.0003  0.3726
  677MOL0     H89316   5.184   5.637   4.676  1.2722 -3.3738 -2.0133
  677MOL0     H89317   5.010   5.853   4.390  1.8012  2.3155  2.7642
  677MOL0     H89318   4.779   6.031   4.431 -0.2438 -1.1555 -0.8720
  677MOL0     H89319   4.711   6.015   4.589 -1.0873  1.9174 -0.3831
  677MOL0     H89320   4.625   5.849   4.346  0.4730  1.3224 -0.8530
  677MOL0     H89321   4.535   5.976   4.439 -2.9387 -2.2663 -2.3128
  677MOL0     H89322   4.619   5.703   4.520 -1.4622 -1.4024 -2.5979
  677MOL0     H89323   4.546   5.816   4.637  0.8546  0.9168  0.3681
  677MOL0     H89324   4.343   5.822   4.455 -0.9787 -0.3800  3.4681
  677MOL0     H89325   4.359   5.688   4.572  1.2943 -5.3118 -0.8522
  677MOL0     H89326   4.200   5.561   4.541 -0.2201  6.4904 -0.1868
  677MOL0     H89327   3.972   5.512   4.450  0.2442  1.9759  0.6856
  677MOL0     H89328   3.643   5.680   4.209 -0.9261  0.0743  2.8636
  677MOL0     H89329   3.397   5.674   4.136 -0.3574  0.1050 -1.7747
  677MOL0     H89330   3.194   5.288   4.156 -0.9121 -0.7461  0.7527
  677MOL0     H89331   3.209   5.340   3.984  1.7704 -1.5120  1.4840
  677MOL0     H89332   3.000   5.433   4.182  0.0489 -0.8291  0.8193
  677MOL0     H89333   2.979   5.314   4.049  0.2052  0.0644  1.9218
  677MOL0     H89334   3.042   5.490   3.878  1.6802  0.3464  0.2652
  677MOL0     H89335   3.028   5.617   4.001 -1.2417  1.1876 -3.0843
  677MOL0     H89336   2.814   5.578   3.877 -1.9449 -2.1106 -0.6359
  677MOL0     H89337   2.803   5.418   3.948 -0.3961 -0.1651  0.8782
  677MOL0     H89338   2.855   5.679   4.110  1.8179 -0.8696  1.6171
  677MOL0     H89339   2.806   5.517   4.175  2.0843  3.1263  1.9802
  677MOL0     H89340   2.608   5.670   4.172  1.4027 -1.6113  2.1665
  677MOL0     H89341   2.582   5.522   4.070 -0.1454 -0.5359  2.0433
  677MOL0     H89342   2.604   5.628   3.877  2.3714  0.6474  0.4979
  677MOL0     H89343   2.474   5.704   3.968 -0.7490  0.0106  2.2262
  677MOL0     H89344   2.752   5.822   3.917 -0.9046  1.7223 -2.8662
  677MOL0     H89345   2.629   5.909   4.012  2.7445 -1.0874  2.9549
  677MOL0     H89346   3.412   5.245   4.188  2.8797 -1.6584 -0.1699
  677MOL0     H89347   3.635   5.249   4.271 -3.5655  0.1898  3.4613
  677MOL0     H89348   4.108   5.611   4.051 -2.1379 -0.1609 -0.0405
  677MOL0     H89349   4.332   5.652   4.148 -0.4763 -0.8760 -0.1451
  677MOL0     H89350   5.865   6.218   4.676 -0.7161  0.5494 -0.2979
  677MOL0     H89351   6.064   6.366   4.674  0.7275  1.1189 -0.7449
  677MOL0     H89352   6.536   6.333   4.542  0.1043  0.1761 -0.1233
  677MOL0     H89353   6.750   6.451   4.539  0.9915  0.9628  0.9493
  677MOL0     H89354   6.947   6.614   4.539 -1.8110 -0.6461 -0.7507
  677MOL0     H89355   6.856   6.601   4.690  1.6425 -1.5010 -0.3552
  677MOL0     H89356   6.920   6.858   4.731  1.6689  1.7152  1.1241
  677MOL0     H89357   7.052   6.744   4.736 -0.2924 -0.9732  0.0356
  677MOL0     H89358   6.960   6.934   4.520  2.3167  2.4045 -2.0278
  677MOL0     H89359   7.062   6.788   4.478 -1.0912  1.8067 -1.8045
  677MOL0     H89360   7.136   6.988   4.701 -0.9298  1.6224 -0.9372
  677MOL0     H89361   7.249   6.881   4.612  2.2844  3.7374  0.9064
  677MOL0     H89362   7.265   7.213   4.367  3.1378 -0.0042  0.5889
  677MOL0     H89363   6.542   6.829   4.522 -0.6483 -0.2130  1.6437
  677MOL0     H89364   6.332   6.711   4.525 -0.5877 -0.7309 -0.0172
  678MOL0     O89365   1.437   0.355   3.697  0.2588  0.3932  0.3746
  678MOL0     C89366   1.426   0.311   3.580 -0.1982 -0.4568 -0.9961
  678MOL0     O89367   1.528   0.264   3.505  0.2508  0.1982  0.7596
  678MOL0     C89368   1.653   0.255   3.560  0.2376 -0.0313 -0.1560
  678MOL0     C89369   1.744   0.365   3.560  0.1208 -1.0890 -0.6570
  678MOL0     C89370   1.877   0.352   3.615 -0.9226  0.6867 -0.8390
  678MOL0     C89371   1.919   0.229   3.678  1.0485  0.2429 -0.1271
  678MOL0     O89372   2.036   0.224   3.753  0.1065 -0.2541  0.2430
  678MOL0     C89373   2.104   0.100   3.754  0.0574  0.1026  0.2773
  678MOL0     C89374   2.263   0.120   3.739  0.5685  0.3654 -0.2292
  678MOL0     C89375   2.349   0.016   3.825 -0.3797  0.6736 -0.1284
  678MOL0     C89376   2.498   0.031   3.790 -0.0452  0.2583  0.4136
  678MOL0     C89377   2.599  -0.066   3.856  0.1207 -0.4418  0.8639
  678MOL0     C89378   2.592  -0.083   4.007  0.1858 -0.5865 -0.4536
  678MOL0     C89379   2.706  -0.182   4.037  0.8777 -0.7007  0.4227
  678MOL0     C89380   2.664  -0.334   4.028  0.3304 -0.3241 -0.0222
  678MOL0     N89381   2.747  -0.428   4.100 -0.8447  0.4572 -0.2838
  678MOL0     C89382   2.774  -0.414   4.234  0.0878 -0.3377  0.4754
  678MOL0     C89383   2.888  -0.480   4.241  0.3724 -0.2550  0.4289
  678MOL0     C89384   2.966  -0.491   4.373  0.2024 -0.0071 -0.0988
  678MOL0     C89385   3.010  -0.635   4.408  0.9119  0.6769  0.7276
  678MOL0     C89386   2.884  -0.724   4.419 -0.3856  0.9609 -0.3494
  678MOL0     C89387   2.887  -0.840   4.319 -0.6870  0.1184 -0.2418
  678MOL0     O89388   2.800  -0.938   4.368  0.0049  0.2080  0.2634
  678MOL0     C89389   2.661  -0.922   4.364  0.1410  0.2896  0.3304
  678MOL0     C89390   2.587  -0.998   4.449  0.0744 -0.1227  0.1549
  678MOL0     C89391   2.444  -0.990   4.448 -0.1812 -0.2434 -0.3832
  678MOL0     C89392   2.379  -0.903   4.359 -0.9122  0.3889 -0.2951
  678MOL0     C89393   2.237  -0.904   4.365  0.4127 -0.9140  0.4547
  678MOL0     O89394   2.166  -0.967   4.464 -0.3819  0.3597  0.2427
  678MOL0     C89395   2.034  -0.972   4.454  0.5498  0.2853  0.1584
  678MOL0     C89396   1.961  -1.028   4.348  0.0821 -0.3065  0.5928
  678MOL0     C89397   1.820  -1.030   4.346 -0.0545  0.0596 -0.3302
  678MOL0     C89398   1.755  -0.971   4.450 -0.2295  0.2044  1.0322
  678MOL0     O89399   1.623  -0.967   4.432  0.6925 -0.4250  0.0453
  678MOL0     C89400   1.548  -1.067   4.513 -0.4255  0.8100 -0.0941
  678MOL0     C89401   1.393  -1.024   4.524 -0.1441 -0.1943  0.4119
  678MOL0     C89402   1.395  -0.873   4.561 -0.0945 -0.1178 -0.4743
  678MOL0     C89403   1.258  -0.828   4.610  0.3035 -0.2663  0.6378
  678MOL0     C89404   1.257  -0.682   4.636 -0.0147 -0.4365  0.1778
  678MOL0     C89405   1.130  -0.626   4.690  0.1291  0.5019  0.0515
  678MOL0     C89406   1.106  -0.678   4.830  0.7114 -0.8485  0.2783
  678MOL0     C89407   0.964  -0.633   4.879  0.0944  0.3658 -0.6705
  678MOL0    Cl89408   0.930  -0.720   5.033 -0.2785  0.4247 -0.0726
  678MOL0     C89409   1.830  -0.911   4.557 -1.0207 -0.1808  0.0789
  678MOL0     C89410   1.974  -0.911   4.548 -0.1413  0.7314 -0.2298
  678MOL0     O89411   2.192  -0.835   4.273  0.9225 -0.1214 -0.2380
  678MOL0     C89412   2.456  -0.835   4.265  0.0550 -0.5166  0.7802
  678MOL0     C89413   2.600  -0.842   4.267  0.3988  0.0173 -0.0372
  678MOL0     N89414   2.925  -0.547   4.127 -0.0493  0.1681 -0.1510
  678MOL0     N89415   2.831  -0.519   4.042 -0.3843 -0.5012 -0.0321
  678MOL0     C89416   1.822   0.126   3.682 -0.5708  0.1536  0.0571
  678MOL0     C89417   1.696   0.138   3.620 -1.3106 -0.2366 -0.2285
  678MOL0     C89418   1.289   0.318   3.517  0.7643 -0.1274 -0.5898
  678MOL0     C89419   1.268   0.294   3.383 -0.1200 -0.1185  0.0078
  678MOL0     C89420   1.153   0.312   3.321  0.2917  0.3763  1.1593
  678MOL0     C89421   1.041   0.368   3.386  0.4859 -0.2076  0.1502
  678MOL0     O89422   0.938   0.388   3.301 -0.0535 -0.1378 -0.2340
  678MOL0     C89423   0.813   0.428   3.357  0.9648 -1.4154 -0.2530
  678MOL0     C89424   0.691   0.378   3.270  1.4113  0.2143  0.1388
  678MOL0     C89425   0.555   0.431   3.336  0.0426 -0.2396  0.4937
  678MOL0     C89426   0.432   0.354   3.279  0.3336 -0.3852 -0.7234
  678MOL0     C89427   0.311   0.377   3.356 -0.1170  1.0198 -0.8372
  678MOL0     C89428   0.201   0.386   3.397 -0.2145  0.2422 -0.5760
  678MOL0     C89429   1.059   0.398   3.524  0.1984 -0.4212  0.1549
  678MOL0     C89430   1.177   0.368   3.590 -0.1861 -0.5014 -0.1667
  678MOL0     H89431   1.712   0.459   3.518 -0.8651 -1.0450  0.1734
  678MOL0     H89432   1.951   0.431   3.605 -1.1973  0.7766 -2.5045
  678MOL0     H89433   2.062   0.038   3.674 -0.0180  3.1271 -2.1751
  678MOL0     H89434   2.090   0.049   3.849 -1.2154  0.5100  0.3170
  678MOL0     H89435   2.282   0.221   3.777  0.1152  1.2081 -2.1247
  678MOL0     H89436   2.301   0.119   3.636  0.0230 -2.6667 -0.4930
  678MOL0     H89437   2.323  -0.089   3.813  3.3006 -0.6329  1.9499
  678MOL0     H89438   2.330   0.037   3.930 -0.6731  0.3663 -0.1182
  678MOL0     H89439   2.509   0.021   3.681  0.7997 -3.5124  0.7059
  678MOL0     H89440   2.527   0.134   3.813  3.1650 -0.3412 -0.3882
  678MOL0     H89441   2.699  -0.041   3.819  0.1471  1.1349  1.9060
  678MOL0     H89442   2.582  -0.167   3.818  0.3017  0.4907 -1.8556
  678MOL0     H89443   2.496  -0.113   4.049  1.1076  0.1488  2.3851
  678MOL0     H89444   2.600   0.013   4.057 -2.6102  0.0936 -1.1417
  678MOL0     H89445   2.799  -0.160   3.983 -0.4577  1.5173 -1.1289
  678MOL0     H89446   2.737  -0.165   4.141 -0.8797  2.6229  0.5263
  678MOL0     H89447   2.653  -0.355   3.921 -0.5768 -0.3051  0.0578
  678MOL0     H89448   2.565  -0.350   4.073  0.6311 -4.7046 -0.4636
  678MOL0     H89449   2.729  -0.354   4.313  1.2116  0.4603  0.5325
  678MOL0     H89450   2.912  -0.456   4.461  2.4493  2.4239  0.4369
  678MOL0     H89451   3.052  -0.423   4.370 -0.0754  0.3598  0.1863
  678MOL0     H89452   3.063  -0.653   4.502  1.6821 -1.0665  0.0002
  678MOL0     H89453   3.082  -0.669   4.332  1.4945  1.5321  0.8813
  678MOL0     H89454   2.883  -0.767   4.519 -1.2082 -0.7107 -1.0401
  678MOL0     H89455   2.789  -0.676   4.394 -1.4137 -2.0490 -2.9603
  678MOL0     H89456   2.993  -0.867   4.322  0.4429  3.9479  3.7405
  678MOL0     H89457   2.867  -0.795   4.221  0.1897  1.2223  0.0722
  678MOL0     H89458   2.633  -1.066   4.520  2.3186 -0.4552 -1.5072
  678MOL0     H89459   2.390  -1.044   4.525 -0.5036  0.0340 -0.4105
  678MOL0     H89460   2.015  -1.079   4.270  1.4573 -0.4365  1.5980
  678MOL0     H89461   1.762  -1.068   4.262 -1.2214 -0.7064  0.7879
  678MOL0     H89462   1.606  -1.078   4.605 -0.1518 -0.1337 -0.3665
  678MOL0     H89463   1.564  -1.164   4.463  2.4802  1.0540  0.2099
  678MOL0     H89464   1.349  -1.091   4.599  4.1617 -3.6525  0.2609
  678MOL0     H89465   1.346  -1.034   4.426  2.9435  1.3374 -1.3833
  678MOL0     H89466   1.440  -0.806   4.488  1.7394 -1.5949 -0.7690
  678MOL0     H89467   1.454  -0.870   4.653 -1.7833  3.4824  0.6421
  678MOL0     H89468   1.187  -0.846   4.530  0.3133  2.9321 -0.2293
  678MOL0     H89469   1.235  -0.887   4.699  2.6322 -1.4567  0.5383
  678MOL0     H89470   1.287  -0.620   4.551 -2.6713 -0.1009 -0.5993
  678MOL0     H89471   1.327  -0.658   4.718 -1.6979 -0.2675  1.6271
  678MOL0     H89472   1.050  -0.655   4.621  0.8849 -0.8603 -0.2951
  678MOL0     H89473   1.141  -0.518   4.703  2.2640  0.1062  2.1488
  678MOL0     H89474   1.092  -0.786   4.824 -1.3816 -0.5427 -3.9566
  678MOL0     H89475   1.183  -0.650   4.903 -0.1690  0.8347  0.6148
  678MOL0     H89476   0.886  -0.637   4.803  0.5029  3.2123 -1.3386
  678MOL0     H89477   0.968  -0.529   4.911  0.1522  0.1864 -0.0694
  678MOL0     H89478   1.785  -0.874   4.649 -0.0594 -0.0162  0.4974
  678MOL0     H89479   2.038  -0.862   4.622  1.3014 -0.6417 -0.5107
  678MOL0     H89480   2.411  -0.773   4.188  1.3769 -0.8002 -0.2502
  678MOL0     H89481   2.661  -0.782   4.200 -0.5507 -0.5201 -1.4183
  678MOL0     H89482   1.849   0.028   3.720 -1.0097 -0.5189 -1.2846
  678MOL0     H89483   1.640   0.046   3.603  1.9555 -2.3096 -0.6251
  678MOL0     H89484   1.344   0.253   3.318 -2.7955 -3.6231 -1.2092
  678MOL0     H89485   1.149   0.292   3.215  3.7855 -0.9008  1.1291
  678MOL0     H89486   0.800   0.536   3.368  0.6896 -1.6464  2.2707
  678MOL0     H89487   0.802   0.387   3.457  0.4206 -0.4765  0.0829
  678MOL0     H89488   0.704   0.407   3.166 -1.5816  1.5203  0.0234
  678MOL0     H89489   0.680   0.269   3.270  1.1267  0.2299 -1.1165
  678MOL0     H89490   0.554   0.535   3.302  1.6067 -0.0214  1.0666
  678MOL0     H89491   0.567   0.420   3.444  0.8309 -3.5648  0.1829
  678MOL0     H89492   0.413   0.393   3.179  1.8893 -0.4277 -1.0596
  678MOL0     H89493   0.452   0.246   3.284 -1.9181 -0.8021  0.6438
  678MOL0     H89494   0.101   0.397   3.434  0.1241  4.8324 -0.5086
  678MOL0     H89495   0.988   0.448   3.590  2.1324 -0.3116  2.2570
  678MOL0     H89496   1.194   0.403   3.692 -0.3901  0.0075 -0.3045
  679MOL0     O89497  11.192   9.031   8.903 -0.8375 -0.0550 -0.0686
  679MOL0     C89498  11.237   8.980   9.007 -0.4570 -0.2720 -0.4113
  679MOL0     O89499  11.164   8.938   9.122 -0.4333 -0.8735  0.4728
  679MOL0     C89500  11.027   8.955   9.114  0.4930  0.6787 -0.3371
  679MOL0     C89501  10.944   8.881   9.029 -0.0331 -0.1302 -0.7666
  679MOL0     C89502  10.803   8.909   9.018 -0.6418  0.2024  0.6763
  679MOL0     C89503  10.753   9.015   9.093 -0.3903  0.1293  0.6262
  679MOL0     O89504  10.617   9.050   9.090 -0.6646  0.9551 -0.2310
  679MOL0     C89505  10.519   8.954   9.033  0.5298 -1.1688 -0.5967
  679MOL0     C89506  10.370   9.012   9.044  0.2992 -0.7841  0.4233
  679MOL0     C89507  10.307   9.039   9.188 -0.1047 -0.8102  0.0754
  679MOL0     C89508  10.286   8.904   9.257 -0.3706 -0.8461 -0.8033
  679MOL0     C89509  10.197   8.924   9.382  0.9917  0.4693 -0.6704
  679MOL0     C89510  10.148   8.785   9.450 -0.3172 -0.9216 -0.1520
  679MOL0     C89511  10.256   8.732   9.546  0.1112 -0.5324 -0.0368
  679MOL0     C89512  10.209   8.599   9.606 -0.5444  0.2026 -0.4926
  679MOL0     N89513  10.294   8.565   9.723  0.5720 -0.2950  0.6967
  679MOL0     C89514  10.425   8.531   9.719 -0.1315 -0.0290 -0.4437
  679MOL0     C89515  10.467   8.544   9.848  0.0783 -0.3497 -0.1474
  679MOL0     C89516  10.603   8.553   9.889 -0.7735  1.0709  0.1887
  679MOL0     C89517  10.684   8.426   9.853 -0.0437  0.2882  0.7519
  679MOL0     C89518  10.606   8.297   9.891  0.3451 -0.1528 -0.4781
  679MOL0     C89519  10.568   8.290  10.042  0.3038 -0.1953  0.3566
  679MOL0     O89520  10.510   8.162  10.074 -0.5694 -0.2200 -1.0263
  679MOL0     C89521  10.379   8.129  10.064 -0.5828 -1.0813 -1.1612
  679MOL0     C89522  10.354   8.002  10.046  0.2425 -0.7193 -0.5959
  679MOL0     C89523  10.217   7.967  10.030 -0.2298 -0.4559  0.7612
  679MOL0     C89524  10.113   8.058  10.030  0.8425  0.6681 -0.6965
  679MOL0     C89525   9.970   8.018  10.008  0.3767  0.8983 -0.0119
  679MOL0     O89526   9.879   8.124  10.024  0.4607  0.5017 -0.0994
  679MOL0     C89527   9.748   8.084  10.024  0.1991  0.3063 -0.5295
  679MOL0     C89528   9.694   8.027   9.905 -0.4821 -0.2447 -0.9988
  679MOL0     C89529   9.562   8.011   9.894 -0.0914  0.3705  1.1145
  679MOL0     C89530   9.477   8.045  10.004 -0.2414 -0.3585  0.1631
  679MOL0     O89531   9.342   8.005   9.984 -0.0892 -0.2132  0.1924
  679MOL0     C89532   9.245   8.035  10.080 -0.4001  0.1106 -0.6448
  679MOL0     C89533   9.108   8.004  10.024  0.7625  0.1447  0.0436
  679MOL0     C89534   9.007   7.980  10.140 -0.6736 -0.8481  0.5544
  679MOL0     C89535   8.868   7.945  10.096  0.8175 -0.2642  0.1952
  679MOL0     C89536   8.781   7.922  10.225 -0.0447 -0.3643  0.8801
  679MOL0     C89537   8.634   7.897  10.189  0.6988 -0.1633 -0.0258
  679MOL0     C89538   8.627   7.753  10.138 -0.5855 -0.2837 -0.6265
  679MOL0     C89539   8.481   7.714  10.133 -0.0762 -0.4343  0.7218
  679MOL0    Cl89540   8.473   7.559  10.037 -0.1733  0.0765  0.0457
  679MOL0     C89541   9.530   8.109  10.121  0.4362  0.1048 -0.4544
  679MOL0     C89542   9.662   8.130  10.121 -0.4197 -1.1280 -0.0306
  679MOL0     O89543   9.944   7.901   9.979 -0.0240 -0.4830 -0.4347
  679MOL0     C89544  10.148   8.189  10.066 -0.5572  0.4197 -0.3345
  679MOL0     C89545  10.284   8.224  10.080  0.3443 -0.3493 -0.0238
  679MOL0     N89546  10.360   8.578   9.925  0.1900  0.2965  0.2654
  679MOL0     N89547  10.266   8.608   9.842 -0.2334  0.1932 -0.1024
  679MOL0     C89548  10.837   9.093   9.179  0.8788  0.1165 -0.0200
  679MOL0     C89549  10.971   9.065   9.175 -0.2921  1.1996 -0.4702
  679MOL0     C89550  11.378   8.931   9.008  0.4764 -0.5240 -0.7230
  679MOL0     C89551  11.419   8.866   9.132 -1.0671 -0.3464 -0.0319
  679MOL0     C89552  11.553   8.813   9.130 -0.3055 -0.0467 -1.3689
  679MOL0     C89553  11.641   8.830   9.019 -0.6073 -0.0693 -0.9305
  679MOL0     O89554  11.762   8.766   9.019 -0.0401  1.3758  0.1926
  679MOL0     C89555  11.786   8.663   8.919  0.5590  0.4632  0.1628
  679MOL0     C89556  11.916   8.692   8.864  0.4362 -0.4581  0.0141
  679MOL0     C89557  12.031   8.666   8.954  0.4607  0.2144  0.2953
  679MOL0     C89558  12.158   8.734   8.913  0.6474 -0.6682 -0.5235
  679MOL0     C89559  12.282   8.679   8.977  0.0916 -0.0081  0.4752
  679MOL0     C89560  12.385   8.655   9.035 -0.5142 -0.6597 -0.7539
  679MOL0     C89561  11.594   8.893   8.907  0.6626  0.5520 -0.8715
  679MOL0     C89562  11.468   8.934   8.896  0.1423  0.5244  0.1447
  679MOL0     H89563  10.989   8.793   8.985  3.2005 -0.3038  2.5080
  679MOL0     H89564  10.747   8.849   8.947 -0.6289  0.2226  0.6488
  679MOL0     H89565  10.530   8.863   9.092  0.6697 -0.9455 -0.2763
  679MOL0     H89566  10.539   8.928   8.929  1.0867 -4.2845  0.1959
  679MOL0     H89567  10.302   8.948   8.986  0.6862 -1.8578  1.1240
  679MOL0     H89568  10.374   9.105   8.987  0.1405 -2.3456 -2.3352
  679MOL0     H89569  10.207   9.082   9.177  0.4195  0.3928 -0.1757
  679MOL0     H89570  10.369   9.114   9.239 -1.5346 -0.1308  0.8922
  679MOL0     H89571  10.242   8.838   9.182 -1.1535 -1.7791  0.4601
  679MOL0     H89572  10.384   8.865   9.285 -1.1759 -1.7811  0.8091
  679MOL0     H89573  10.100   8.963   9.349  0.9891 -0.2391 -1.5233
  679MOL0     H89574  10.244   8.992   9.453  2.7523 -0.0781 -1.2724
  679MOL0     H89575  10.111   8.713   9.377  0.0411 -2.4162  1.0878
  679MOL0     H89576  10.076   8.826   9.521  0.1701  0.6772 -0.5309
  679MOL0     H89577  10.355   8.733   9.499  0.8360  1.8110  1.3525
  679MOL0     H89578  10.252   8.796   9.635 -4.7987 -0.2964 -0.1459
  679MOL0     H89579  10.216   8.512   9.539 -1.4531  0.8040 -1.4053
  679MOL0     H89580  10.102   8.584   9.621 -0.1624 -1.2509  1.1125
  679MOL0     H89581  10.487   8.506   9.633 -0.0353  3.1313 -1.4354
  679MOL0     H89582  10.603   8.560   9.999 -1.1885 -1.7001  0.4322
  679MOL0     H89583  10.642   8.645   9.845 -0.7589  0.4830 -1.0598
  679MOL0     H89584  10.779   8.428   9.908 -0.0249 -1.2765  0.8096
  679MOL0     H89585  10.711   8.425   9.747  0.5487  2.2670  0.8366
  679MOL0     H89586  10.512   8.286   9.836 -1.3091  0.9437  1.9605
  679MOL0     H89587  10.672   8.211   9.879  1.2880  0.9229 -4.2441
  679MOL0     H89588  10.501   8.371  10.074 -0.0054 -1.4243  3.1567
  679MOL0     H89589  10.665   8.305  10.090  0.8514  0.9974 -1.0548
  679MOL0     H89590  10.436   7.931  10.047  1.2202  0.0046  5.1012
  679MOL0     H89591  10.187   7.862  10.028 -1.7954 -0.0494 -2.1314
  679MOL0     H89592   9.766   8.007   9.827 -0.9647 -0.2616 -1.4459
  679MOL0     H89593   9.524   7.974   9.800  1.2046  0.6235  0.4730
  679MOL0     H89594   9.250   8.141  10.106  0.8746  0.0833 -0.7160
  679MOL0     H89595   9.257   7.974  10.170 -1.9833  1.9165  0.8732
  679MOL0     H89596   9.108   7.920   9.954 -1.5419  0.6002 -0.5987
  679MOL0     H89597   9.070   8.088   9.966  1.4287 -1.8346 -3.5548
  679MOL0     H89598   8.992   8.074  10.194  0.7115  1.4265 -2.7146
  679MOL0     H89599   9.042   7.904  10.210 -1.7844 -2.8918 -0.9805
  679MOL0     H89600   8.815   8.026  10.044 -2.8054 -0.5314  3.0565
  679MOL0     H89601   8.865   7.856  10.032 -0.4442 -0.4144  0.4401
  679MOL0     H89602   8.771   8.015  10.283 -2.5268  0.2608 -0.3901
  679MOL0     H89603   8.822   7.844  10.289  2.4855  1.0826  1.1398
  679MOL0     H89604   8.605   7.959  10.104  1.9120 -0.2056 -0.4896
  679MOL0     H89605   8.561   7.920  10.268  1.1248  1.4844 -0.0752
  679MOL0     H89606   8.669   7.748  10.038  0.4103  0.8085 -0.2841
  679MOL0     H89607   8.675   7.693  10.216  0.2957  2.5705  1.2183
  679MOL0     H89608   8.420   7.795  10.091  0.1039  0.2795  1.8077
  679MOL0     H89609   8.441   7.701  10.233  3.0220  0.7608  2.2360
  679MOL0     H89610   9.471   8.128  10.211  0.4461 -1.0127 -0.1951
  679MOL0     H89611   9.692   8.171  10.217  1.1791 -1.0239 -0.5446
  679MOL0     H89612  10.080   8.262  10.109 -0.0907 -0.1405  1.4551
  679MOL0     H89613  10.314   8.324  10.110 -2.3517  1.0704 -1.6045
  679MOL0     H89614  10.807   9.178   9.239  1.8246 -0.9811  2.1260
  679MOL0     H89615  11.033   9.114   9.249 -1.4249  3.2224 -0.7997
  679MOL0     H89616  11.349   8.849   9.213 -0.9288  0.3473  0.2435
  679MOL0     H89617  11.592   8.756   9.214  0.4847  0.3929 -1.4300
  679MOL0     H89618  11.708   8.660   8.842 -0.7557 -0.2867  1.4729
  679MOL0     H89619  11.785   8.563   8.962 -1.1320  0.5301  0.3563
  679MOL0     H89620  11.933   8.626   8.779  3.5915  0.6195 -0.3480
  679MOL0     H89621  11.913   8.801   8.848  2.4528 -0.3786 -0.1297
  679MOL0     H89622  12.048   8.558   8.959 -1.4412 -0.0953  0.5593
  679MOL0     H89623  12.015   8.700   9.056  1.9942  0.7738  0.3766
  679MOL0     H89624  12.170   8.735   8.804 -0.7320  0.2364 -0.6866
  679MOL0     H89625  12.154   8.838   8.946  0.2318 -0.8805  0.1017
  679MOL0     H89626  12.478   8.642   9.087  0.3541  1.0386 -1.7710
  679MOL0     H89627  11.667   8.901   8.828  0.7093  2.2247 -0.6833
  679MOL0     H89628  11.444   8.998   8.812 -1.0119 -1.4406 -1.1218
  680MOL0     O89629   4.358   8.544   0.703 -0.5504 -0.3297  0.2801
  680MOL0     C89630   4.392   8.524   0.820 -0.0783 -0.4478  0.5652
  680MOL0     O89631   4.315   8.465   0.911  0.1436 -0.2582  0.3443
  680MOL0     C89632   4.190   8.423   0.883  0.0132  0.0191 -0.0682
  680MOL0     C89633   4.101   8.474   0.781  0.6422  0.8577  0.3521
  680MOL0     C89634   3.974   8.418   0.757  0.0007 -0.3444  1.1009
  680MOL0     C89635   3.933   8.308   0.834 -0.5013 -0.3273  0.8243
  680MOL0     O89636   3.802   8.252   0.821  0.1190  0.4436  0.7838
  680MOL0     C89637   3.705   8.296   0.721  0.1783 -0.1089 -0.0426
  680MOL0     C89638   3.579   8.205   0.717 -0.5008  0.4476 -0.5616
  680MOL0     C89639   3.467   8.250   0.621  0.0820  0.6778 -0.4950
  680MOL0     C89640   3.491   8.241   0.473 -0.8175 -0.1033  0.5306
  680MOL0     C89641   3.376   8.287   0.388  0.4689 -0.1496 -0.7929
  680MOL0     C89642   3.405   8.294   0.236  0.5169 -0.2951 -0.3289
  680MOL0     C89643   3.487   8.163   0.192 -0.3762  0.3559  0.1596
  680MOL0     C89644   3.491   8.152   0.037  0.4933 -0.0566  0.2230
  680MOL0     N89645   3.571   8.257  -0.028  0.4671 -0.1515  0.3292
  680MOL0     C89646   3.712   8.266  -0.035  0.5241 -0.1259  0.8049
  680MOL0     C89647   3.744   8.382  -0.091 -0.0573 -0.2157  0.4832
  680MOL0     C89648   3.886   8.428  -0.113  0.4832 -0.2108 -0.2111
  680MOL0     C89649   3.893   8.554  -0.194  0.2059  0.1669 -0.3337
  680MOL0     C89650   4.040   8.607  -0.203  1.1547 -0.2450 -0.5217
  680MOL0     C89651   4.043   8.703  -0.310  0.2089  0.8535 -0.6624
  680MOL0     O89652   3.958   8.822  -0.295 -0.1601 -0.0147 -0.3294
  680MOL0     C89653   4.036   8.932  -0.268  0.3277 -0.0233 -0.3220
  680MOL0     C89654   4.002   9.050  -0.338  0.4328 -0.3994 -0.2542
  680MOL0     C89655   4.071   9.166  -0.319 -0.0595 -0.0901 -0.3592
  680MOL0     C89656   4.173   9.172  -0.216 -0.1295 -0.0566 -0.0044
  680MOL0     C89657   4.239   9.302  -0.193 -0.1293  0.4907 -0.1416
  680MOL0     O89658   4.332   9.316  -0.089  0.3027 -0.1162  0.2072
  680MOL0     C89659   4.405   9.427  -0.060  0.3361  0.4066  0.1645
  680MOL0     C89660   4.482   9.497  -0.156  1.0110 -0.3097  0.7542
  680MOL0     C89661   4.565   9.610  -0.114  0.4179  0.5488 -0.4128
  680MOL0     C89662   4.592   9.634   0.020 -0.4331 -0.4003 -0.1713
  680MOL0     O89663   4.669   9.746   0.055  0.0230 -0.2190  0.6006
  680MOL0     C89664   4.733   9.760   0.184  0.8688  0.9323  0.0147
  680MOL0     C89665   4.843   9.876   0.171  0.8019  0.8120  0.0966
  680MOL0     C89666   4.916   9.902   0.308 -0.6236  0.0994 -0.4328
  680MOL0     C89667   4.997  10.033   0.302 -0.0303 -0.1041 -0.5432
  680MOL0     C89668   5.110  10.071   0.400 -0.3463  0.3935 -0.6512
  680MOL0     C89669   5.057  10.083   0.541 -0.0354  0.6063 -0.1630
  680MOL0     C89670   5.173  10.102   0.643  0.3505 -0.4394  0.1507
  680MOL0     C89671   5.119  10.125   0.781  0.0908  0.7605  0.6282
  680MOL0    Cl89672   5.000  10.260   0.779  0.1366  0.5608  0.3405
  680MOL0     C89673   4.520   9.563   0.114 -0.4205 -0.5259 -0.4535
  680MOL0     C89674   4.429   9.459   0.074  1.2763 -0.3933  0.7121
  680MOL0     O89675   4.206   9.389  -0.270  0.5387  0.1903  0.0104
  680MOL0     C89676   4.208   9.059  -0.145  0.1666  0.4640  0.4918
  680MOL0     C89677   4.136   8.939  -0.168 -0.0254 -0.4214 -0.4804
  680MOL0     N89678   3.628   8.460  -0.099  0.5704 -0.0674  0.6023
  680MOL0     N89679   3.530   8.378  -0.077 -0.5317  0.1329  0.2525
  680MOL0     C89680   4.021   8.255   0.926 -0.0929 -0.5979 -0.1569
  680MOL0     C89681   4.141   8.309   0.950  0.0917 -0.5673 -0.9479
  680MOL0     C89682   4.532   8.559   0.861 -0.9196 -0.9866  0.1981
  680MOL0     C89683   4.583   8.523   0.984 -0.0548  0.6469 -0.5790
  680MOL0     C89684   4.717   8.562   1.016  0.7489  0.6598 -0.3757
  680MOL0     C89685   4.797   8.636   0.934 -0.4506 -0.4530 -0.1264
  680MOL0     O89686   4.930   8.656   0.963 -0.8894 -0.1134 -0.2858
  680MOL0     C89687   4.961   8.740   1.073 -0.1880 -0.4122 -0.0183
  680MOL0     C89688   5.117   8.746   1.089  0.6596  0.0867 -0.2655
  680MOL0     C89689   5.174   8.849   1.185  0.0146  0.3874 -0.1555
  680MOL0     C89690   5.324   8.822   1.204  0.0921 -0.2383 -0.2013
  680MOL0     C89691   5.409   8.826   1.086 -0.2923  1.1255 -0.1828
  680MOL0     C89692   5.467   8.834   0.979  0.2493  1.1149 -0.1549
  680MOL0     C89693   4.750   8.669   0.807 -0.2885  0.0417  0.5981
  680MOL0     C89694   4.620   8.636   0.775  0.6907 -0.1178  0.4050
  680MOL0     H89695   4.121   8.557   0.713 -0.7152  2.7391  2.0993
  680MOL0     H89696   3.901   8.468   0.694 -0.7933 -0.1323  2.1526
  680MOL0     H89697   3.744   8.308   0.620  0.5027  2.7081  0.3503
  680MOL0     H89698   3.667   8.392   0.758 -1.3387 -0.7835  0.2427
  680MOL0     H89699   3.534   8.203   0.816 -1.1382  0.0663 -0.8515
  680MOL0     H89700   3.603   8.101   0.692 -0.7625 -0.3111  2.1050
  680MOL0     H89701   3.440   8.352   0.652  0.1348  0.8924 -1.1388
  680MOL0     H89702   3.383   8.188   0.653  0.2164  1.3767  1.3351
  680MOL0     H89703   3.579   8.300   0.448 -0.9678 -0.1606 -0.1564
  680MOL0     H89704   3.509   8.136   0.449 -0.5432  0.0854 -0.1187
  680MOL0     H89705   3.358   8.392   0.413 -1.6873 -0.7213  0.3023
  680MOL0     H89706   3.289   8.224   0.411  0.9589  0.1063  2.1522
  680MOL0     H89707   3.463   8.386   0.218  2.3046 -1.6453 -1.9665
  680MOL0     H89708   3.307   8.304   0.187  0.5146  1.4921 -0.0400
  680MOL0     H89709   3.590   8.174   0.226 -0.8395 -0.5828  1.9916
  680MOL0     H89710   3.446   8.068   0.228  0.2782 -0.5403 -1.3841
  680MOL0     H89711   3.388   8.164   0.002  0.7077 -1.5927 -1.0211
  680MOL0     H89712   3.523   8.053   0.005 -0.3616 -0.6798  1.2401
  680MOL0     H89713   3.780   8.190   0.000 -0.4779 -2.3925 -1.8008
  680MOL0     H89714   3.937   8.345  -0.163 -0.6985 -0.5451 -0.8796
  680MOL0     H89715   3.929   8.438  -0.012 -2.8932 -3.0026  1.7203
  680MOL0     H89716   3.823   8.625  -0.151  0.5708 -0.5950  1.6006
  680MOL0     H89717   3.862   8.519  -0.293 -0.8695  1.7296 -0.5687
  680MOL0     H89718   4.066   8.657  -0.109 -1.9844 -0.4023  0.5336
  680MOL0     H89719   4.112   8.530  -0.234  0.4353 -0.7505 -0.9551
  680MOL0     H89720   4.003   8.641  -0.391 -0.0587 -1.0354  0.8607
  680MOL0     H89721   4.140   8.727  -0.355 -0.0112 -0.7041 -2.0649
  680MOL0     H89722   3.927   9.039  -0.416  0.0028 -1.9859  0.3504
  680MOL0     H89723   4.059   9.259  -0.374  2.2453 -1.0886 -2.7976
  680MOL0     H89724   4.465   9.485  -0.262 -0.8223  4.2626  0.3019
  680MOL0     H89725   4.597   9.681  -0.189  0.3541 -0.1232 -1.0825
  680MOL0     H89726   4.766   9.662   0.219 -3.4800 -1.5432 -1.9937
  680MOL0     H89727   4.671   9.793   0.268  0.3760  1.1217 -0.4105
  680MOL0     H89728   4.793   9.969   0.141 -1.8735 -0.6311 -0.3201
  680MOL0     H89729   4.910   9.837   0.094 -1.7256 -1.0486 -1.3578
  680MOL0     H89730   4.983   9.818   0.329 -1.3881 -0.7307 -1.2345
  680MOL0     H89731   4.851   9.915   0.394 -0.5375 -3.4717  0.3426
  680MOL0     H89732   5.038  10.016   0.202 -4.0589 -2.5225 -2.0206
  680MOL0     H89733   4.925  10.115   0.306 -0.6195 -0.3799 -3.1233
  680MOL0     H89734   5.156  10.163   0.361  0.5797 -0.0503 -0.6275
  680MOL0     H89735   5.186   9.994   0.387 -0.6079 -0.0228  0.2428
  680MOL0     H89736   5.006   9.991   0.568 -0.3253  0.5128 -1.0049
  680MOL0     H89737   5.004  10.179   0.544  1.6171  1.5190  1.1585
  680MOL0     H89738   5.234  10.012   0.650  0.5242 -0.2093  2.4014
  680MOL0     H89739   5.231  10.189   0.610 -3.2871  1.9220 -0.6326
  680MOL0     H89740   5.202  10.138   0.851  1.3889  1.0935 -0.9084
  680MOL0     H89741   5.069  10.031   0.808  3.2174 -1.0888  0.4540
  680MOL0     H89742   4.516   9.604   0.214  0.0137  0.7940 -0.9608
  680MOL0     H89743   4.364   9.413   0.148 -2.7768  2.1568 -0.9045
  680MOL0     H89744   4.284   9.068  -0.068  0.1964  0.8693  0.4175
  680MOL0     H89745   4.178   8.849  -0.124  1.1676  1.1340  1.7151
  680MOL0     H89746   3.976   8.166   0.970 -1.3789 -0.3322 -0.8796
  680MOL0     H89747   4.209   8.269   1.025  0.5316 -0.5229 -1.3258
  680MOL0     H89748   4.509   8.477   1.049  0.6711  2.2686  1.5045
  680MOL0     H89749   4.750   8.530   1.115 -1.1118 -0.8578 -0.1769
  680MOL0     H89750   4.911   8.711   1.166  0.7170  2.7566  1.6259
  680MOL0     H89751   4.937   8.843   1.044  0.3430 -0.6071 -1.2296
  680MOL0     H89752   5.149   8.649   1.129  0.0505  0.8290  2.1675
  680MOL0     H89753   5.168   8.766   0.994  0.9914 -0.0474 -0.1183
  680MOL0     H89754   5.120   8.842   1.280 -0.4542 -1.4115 -0.5220
  680MOL0     H89755   5.162   8.947   1.137  0.2991  0.8426  0.6728
  680MOL0     H89756   5.359   8.894   1.279  0.7449 -0.6407 -0.1139
  680MOL0     H89757   5.354   8.731   1.256  3.7595  2.1786  2.3265
  680MOL0     H89758   5.527   8.839   0.890 -0.8528  2.0505 -0.8709
  680MOL0     H89759   4.818   8.728   0.747 -0.4229  2.5492  2.7315
  680MOL0     H89760   4.582   8.663   0.677  0.2357  1.8627  1.0682
  681MOL0     O89761   9.755   4.401   6.798  0.7276 -0.1370 -0.0413
  681MOL0     C89762   9.849   4.461   6.742 -0.0181  0.7782 -0.9442
  681MOL0     O89763   9.856   4.593   6.711  0.2925  0.2607 -0.6214
  681MOL0     C89764   9.759   4.685   6.746  0.5910 -0.7225 -1.1156
  681MOL0     C89765   9.625   4.642   6.744 -0.5767 -0.1576 -0.9347
  681MOL0     C89766   9.528   4.726   6.790  1.0508  0.4794 -1.1582
  681MOL0     C89767   9.560   4.850   6.849 -0.4319 -0.1844  0.4928
  681MOL0     O89768   9.474   4.945   6.904 -0.2262 -0.4517  0.2662
  681MOL0     C89769   9.359   4.901   6.971 -0.2901  0.1441  0.3135
  681MOL0     C89770   9.317   5.019   7.054 -0.1719  0.0153  0.0514
  681MOL0     C89771   9.197   4.978   7.142  0.2933  0.0702 -0.2159
  681MOL0     C89772   9.146   5.106   7.216 -0.9317 -0.3024  0.4119
  681MOL0     C89773   9.022   5.074   7.301 -0.4889 -0.5139  0.2442
  681MOL0     C89774   9.000   5.200   7.400 -0.4168 -0.7836  0.0238
  681MOL0     C89775   8.874   5.193   7.494  0.7605 -0.3246 -0.1074
  681MOL0     C89776   8.744   5.171   7.413  0.0554  0.9437  0.6114
  681MOL0     N89777   8.627   5.178   7.491  0.5198  0.0210  0.7283
  681MOL0     C89778   8.580   5.090   7.586 -0.1083  0.6100  0.2091
  681MOL0     C89779   8.490   5.165   7.657  0.2483  0.7495  0.7712
  681MOL0     C89780   8.421   5.117   7.782  0.0012 -0.4532  0.3524
  681MOL0     C89781   8.284   5.049   7.761  0.6204 -0.5238 -0.4378
  681MOL0     C89782   8.187   5.099   7.869  0.3965  0.2007  0.0306
  681MOL0     C89783   8.074   5.003   7.895 -0.7403  0.5487 -0.5173
  681MOL0     O89784   7.994   5.064   8.003  0.0343  1.0574  0.1958
  681MOL0     C89785   7.864   5.093   7.969 -0.4895 -0.2397 -0.4596
  681MOL0     C89786   7.811   5.116   7.843  1.2930  0.3666 -0.1636
  681MOL0     C89787   7.680   5.166   7.824  0.3810  0.2461 -0.5279
  681MOL0     C89788   7.593   5.168   7.940 -0.1178  0.5698 -0.5599
  681MOL0     C89789   7.455   5.210   7.931  0.2352  0.0169  0.1608
  681MOL0     O89790   7.412   5.237   7.799  0.4654 -0.5021 -0.3361
  681MOL0     C89791   7.277   5.262   7.765 -0.0387  0.2881  0.0239
  681MOL0     C89792   7.159   5.275   7.854 -0.3909  0.3366 -0.0951
  681MOL0     C89793   7.026   5.298   7.798 -0.2148 -0.1849 -0.0633
  681MOL0     C89794   7.008   5.314   7.664  0.1527  0.2491 -0.3463
  681MOL0     O89795   6.894   5.314   7.599 -0.4135  0.5564  0.5983
  681MOL0     C89796   6.775   5.350   7.669 -0.0674 -0.7221 -0.3927
  681MOL0     C89797   6.668   5.377   7.557 -1.4769  0.3126  0.3412
  681MOL0     C89798   6.532   5.415   7.622 -0.4405  0.2216 -0.0732
  681MOL0     C89799   6.440   5.468   7.516 -0.3886  0.1330  0.2033
  681MOL0     C89800   6.294   5.479   7.558  0.0766  1.1039 -0.3721
  681MOL0     C89801   6.209   5.546   7.444  0.6541 -0.3072  0.2409
  681MOL0     C89802   6.068   5.571   7.500 -0.5527 -0.4366  1.3843
  681MOL0     C89803   5.979   5.643   7.395  0.3690  0.0458  0.4881
  681MOL0    Cl89804   6.014   5.811   7.402  0.0379  0.4050 -0.2062
  681MOL0     C89805   7.122   5.309   7.581  0.5601  0.2618  0.8171
  681MOL0     C89806   7.249   5.285   7.629  0.0943  0.0396 -0.7144
  681MOL0     O89807   7.386   5.222   8.034  0.0568 -0.4418  0.2731
  681MOL0     C89808   7.649   5.132   8.066 -0.1084 -0.6902  0.4806
  681MOL0     C89809   7.785   5.106   8.079 -0.4766  0.4136  0.0639
  681MOL0     N89810   8.493   5.292   7.612 -0.4029  0.5714 -0.4546
  681MOL0     N89811   8.571   5.302   7.512  0.3207 -0.1079  0.3200
  681MOL0     C89812   9.695   4.893   6.836  0.1632  0.4039  0.0663
  681MOL0     C89813   9.797   4.817   6.776  0.2377 -0.0032 -0.0217
  681MOL0     C89814   9.975   4.373   6.708 -0.1059 -0.4741  0.4348
  681MOL0     C89815  10.087   4.439   6.663  0.4224 -0.1934 -0.3546
  681MOL0     C89816  10.195   4.373   6.624 -0.6470 -0.6544  0.2839
  681MOL0     C89817  10.201   4.235   6.628  0.0909  0.7410 -0.3704
  681MOL0     O89818  10.299   4.153   6.577 -0.5630 -0.4842 -0.3695
  681MOL0     C89819  10.428   4.208   6.544  0.1247  0.1909 -0.1804
  681MOL0     C89820  10.527   4.100   6.510  0.6924  0.3059  0.1032
  681MOL0     C89821  10.515   3.982   6.614 -0.1167 -0.0222  0.2775
  681MOL0     C89822  10.649   3.897   6.614 -0.0179  0.4121  0.0407
  681MOL0     C89823  10.676   3.826   6.491  0.1433  0.4789  0.3034
  681MOL0     C89824  10.705   3.759   6.388  0.0782 -0.1899  0.7734
  681MOL0     C89825  10.086   4.168   6.663  0.1018  0.4422 -0.7378
  681MOL0     C89826   9.978   4.233   6.705  0.8440 -1.1613 -0.2248
  681MOL0     H89827   9.600   4.548   6.694  1.7341 -0.6676 -1.2457
  681MOL0     H89828   9.427   4.688   6.796  1.6781 -1.0027  0.8248
  681MOL0     H89829   9.391   4.814   7.028 -1.9575  0.2050  1.4068
  681MOL0     H89830   9.270   4.878   6.912 -2.5177  2.9180  2.3215
  681MOL0     H89831   9.284   5.092   6.980 -3.0901 -1.0296  0.1898
  681MOL0     H89832   9.399   5.067   7.110 -1.1393 -1.1368  2.6251
  681MOL0     H89833   9.227   4.898   7.210  1.1125  2.0321  1.8445
  681MOL0     H89834   9.115   4.940   7.080 -0.3874  0.4753  0.4062
  681MOL0     H89835   9.227   5.149   7.277  2.0757 -2.2458 -1.8838
  681MOL0     H89836   9.119   5.178   7.138 -0.5601  0.4125  0.9289
  681MOL0     H89837   9.045   4.993   7.371 -0.5563 -1.6985 -1.0538
  681MOL0     H89838   8.938   5.049   7.236  1.0672 -0.2021 -2.0078
  681MOL0     H89839   8.981   5.286   7.337 -3.3157  1.2971  3.3903
  681MOL0     H89840   9.090   5.210   7.462  0.1214  1.2866 -1.0103
  681MOL0     H89841   8.891   5.116   7.570  0.5819  0.7109  0.9959
  681MOL0     H89842   8.860   5.291   7.539  1.0423 -0.8848  1.2445
  681MOL0     H89843   8.747   5.082   7.349  1.0179  1.3761  0.0341
  681MOL0     H89844   8.746   5.252   7.339 -1.2483  0.4461 -0.0081
  681MOL0     H89845   8.618   4.989   7.598 -0.5150  0.5698  1.3434
  681MOL0     H89846   8.400   5.213   7.832  1.9065  0.2464 -0.0696
  681MOL0     H89847   8.484   5.057   7.849  0.2025 -0.2052  0.3873
  681MOL0     H89848   8.302   4.942   7.775  1.3356 -0.4501 -0.7446
  681MOL0     H89849   8.235   5.072   7.665  0.0421  1.0520  0.2004
  681MOL0     H89850   8.232   5.113   7.968  0.1702 -1.1884  0.3539
  681MOL0     H89851   8.146   5.196   7.839  1.2227  1.4339  2.5773
  681MOL0     H89852   8.135   4.923   7.938  1.6326  2.9420  0.8955
  681MOL0     H89853   8.025   4.967   7.804  0.7204 -1.2361 -0.6452
  681MOL0     H89854   7.879   5.117   7.759 -0.0842 -0.1800 -1.3239
  681MOL0     H89855   7.639   5.189   7.726  2.8342 -0.5643 -1.8386
  681MOL0     H89856   7.170   5.270   7.962 -4.2845 -0.5293  0.4288
  681MOL0     H89857   6.942   5.293   7.867 -0.4801 -0.4363 -0.3984
  681MOL0     H89858   6.778   5.434   7.740 -1.1015 -0.8626 -0.1663
  681MOL0     H89859   6.746   5.264   7.731  2.5290 -0.8281  0.8109
  681MOL0     H89860   6.655   5.282   7.504  2.5659  0.5881 -1.5949
  681MOL0     H89861   6.695   5.447   7.477 -0.0273  0.1861  0.6800
  681MOL0     H89862   6.559   5.501   7.683 -0.2502  0.0843  0.0378
  681MOL0     H89863   6.487   5.336   7.682  0.9570  0.9270  1.9991
  681MOL0     H89864   6.474   5.562   7.471 -3.1078 -0.4716 -3.5275
  681MOL0     H89865   6.445   5.391   7.439  2.4396 -0.6271  1.0161
  681MOL0     H89866   6.284   5.522   7.658  0.7740  1.6479 -0.5280
  681MOL0     H89867   6.260   5.375   7.563  2.4328  0.2616 -0.7383
  681MOL0     H89868   6.205   5.477   7.360 -0.2750 -1.5445  1.2648
  681MOL0     H89869   6.259   5.642   7.425 -2.5572  1.7529  1.3421
  681MOL0     H89870   6.026   5.471   7.515  0.0810 -0.7613  0.9987
  681MOL0     H89871   6.064   5.629   7.593 -1.3504 -1.9016  2.3025
  681MOL0     H89872   5.874   5.625   7.419 -0.0877  2.0105  0.1857
  681MOL0     H89873   6.006   5.597   7.299 -1.2532 -2.8576  1.3046
  681MOL0     H89874   7.104   5.332   7.477 -3.1054 -5.0145 -0.1068
  681MOL0     H89875   7.332   5.271   7.560 -0.1396 -1.8938 -0.6537
  681MOL0     H89876   7.581   5.138   8.150 -1.7237 -2.6072 -0.6059
  681MOL0     H89877   7.834   5.093   8.175  0.4479 -3.0533 -0.7374
  681MOL0     H89878   9.718   4.992   6.874 -0.3607  1.1752 -1.5267
  681MOL0     H89879   9.898   4.854   6.760  1.9778 -3.5790  1.6313
  681MOL0     H89880  10.091   4.548   6.667 -1.8893 -0.0342 -0.7328
  681MOL0     H89881  10.285   4.429   6.598 -0.0642 -1.0142  1.4676
  681MOL0     H89882  10.468   4.268   6.626  0.7200  0.4666 -0.6637
  681MOL0     H89883  10.424   4.267   6.452  1.8817 -0.6146 -0.8264
  681MOL0     H89884  10.511   4.057   6.411 -1.0044 -0.8317  0.8267
  681MOL0     H89885  10.626   4.147   6.518  0.9572 -0.5456  2.8966
  681MOL0     H89886  10.434   3.914   6.587 -1.3383 -1.2293  5.7537
  681MOL0     H89887  10.511   4.016   6.718  2.5066 -2.2299  1.2451
  681MOL0     H89888  10.734   3.963   6.634  1.0367 -1.0148  0.3653
  681MOL0     H89889  10.639   3.828   6.698 -0.5908 -0.8016 -0.9873
  681MOL0     H89890  10.736   3.695   6.308  0.1186 -1.3884  1.7167
  681MOL0     H89891  10.088   4.060   6.667  2.0440  0.3611 -2.3392
  681MOL0     H89892   9.889   4.171   6.717  1.0863 -1.9188 -1.9719
  682MOL0     O89893   9.001   6.984   2.842 -0.0664 -0.1700  0.8691
  682MOL0     C89894   8.996   7.085   2.919 -0.3814  0.0445  0.9278
  682MOL0     O89895   8.885   7.158   2.942 -0.0149  0.2429 -0.2666
  682MOL0     C89896   8.768   7.161   2.871 -0.4231 -0.4054 -0.1051
  682MOL0     C89897   8.754   7.117   2.739  0.2984  0.6748 -0.5588
  682MOL0     C89898   8.632   7.106   2.674  0.7471  0.2571 -0.1859
  682MOL0     C89899   8.527   7.166   2.738  0.3563 -0.5414 -0.0150
  682MOL0     O89900   8.401   7.177   2.674  0.3291  0.3099  0.1000
  682MOL0     C89901   8.366   7.077   2.577  0.3444  0.0622 -0.7661
  682MOL0     C89902   8.212   7.077   2.567 -0.3880 -0.6705 -1.1202
  682MOL0     C89903   8.137   7.165   2.464  0.1218  0.5655 -0.3452
  682MOL0     C89904   7.986   7.188   2.489 -0.0237  1.1004 -0.0710
  682MOL0     C89905   7.897   7.053   2.459 -0.3182  0.0321  0.1316
  682MOL0     C89906   7.762   7.063   2.387  0.1605  0.2403 -0.1543
  682MOL0     C89907   7.699   7.201   2.414  0.1572  0.8292  0.4317
  682MOL0     C89908   7.548   7.215   2.381 -0.8317  0.6085  0.1487
  682MOL0     N89909   7.459   7.155   2.481  0.2095 -0.1933 -0.5810
  682MOL0     C89910   7.327   7.132   2.468 -0.6463  0.2770 -0.0822
  682MOL0     C89911   7.282   7.067   2.579  0.2894  0.3226 -0.2416
  682MOL0     C89912   7.138   7.045   2.613  0.2516  0.0481  0.3911
  682MOL0     C89913   7.049   7.034   2.485  0.1195  0.8076 -0.6959
  682MOL0     C89914   6.904   7.082   2.511  0.4894 -0.1352 -0.4533
  682MOL0     C89915   6.813   7.039   2.397 -0.5353  0.2217 -0.0595
  682MOL0     O89916   6.804   6.896   2.403 -0.0097 -0.3510  0.4665
  682MOL0     C89917   6.703   6.848   2.474  0.3159 -0.6598 -0.5467
  682MOL0     C89918   6.586   6.915   2.533  0.8345  0.4545 -1.0833
  682MOL0     C89919   6.482   6.838   2.593 -0.2497 -0.2376 -0.3051
  682MOL0     C89920   6.481   6.703   2.593  0.6014 -0.7239 -0.3205
  682MOL0     C89921   6.367   6.623   2.638  0.3720 -0.1815 -0.4745
  682MOL0     O89922   6.255   6.685   2.685 -0.5062 -0.2568 -0.0364
  682MOL0     C89923   6.153   6.616   2.731  0.1688  0.1091  0.0839
  682MOL0     C89924   6.134   6.632   2.864  0.7439  0.5964  0.6207
  682MOL0     C89925   6.041   6.570   2.947  0.8076 -0.7267  0.2090
  682MOL0     C89926   5.953   6.488   2.878 -0.0322 -0.0737  0.4604
  682MOL0     O89927   5.860   6.411   2.948 -0.3756 -0.8005  0.0339
  682MOL0     C89928   5.772   6.483   3.035  0.4540 -0.1746 -0.4163
  682MOL0     C89929   5.629   6.424   3.023 -0.6337 -0.2299 -0.1475
  682MOL0     C89930   5.599   6.333   3.145  0.0383  0.2098 -0.3479
  682MOL0     C89931   5.457   6.265   3.145 -0.5377 -0.4666 -1.0780
  682MOL0     C89932   5.415   6.212   3.282  0.6672  0.2188 -0.9000
  682MOL0     C89933   5.268   6.166   3.286 -0.3021  0.2263 -0.6576
  682MOL0     C89934   5.223   6.098   3.418 -0.6829  0.0324 -0.1963
  682MOL0     C89935   5.114   5.994   3.398  0.3455  0.3401 -0.0216
  682MOL0    Cl89936   5.120   5.843   3.474  0.3157 -0.7793  0.1981
  682MOL0     C89937   5.962   6.464   2.744 -0.6028  0.5303  0.0335
  682MOL0     C89938   6.065   6.528   2.667  0.3529 -0.3721  0.0083
  682MOL0     O89939   6.377   6.503   2.619  0.0192  1.3274 -0.1757
  682MOL0     C89940   6.598   6.638   2.553 -0.2901 -0.1732  0.6422
  682MOL0     C89941   6.710   6.709   2.488 -0.4102  0.3682 -0.2771
  682MOL0     N89942   7.389   7.047   2.668 -0.2817 -0.2866  0.3558
  682MOL0     N89943   7.498   7.086   2.594  0.2567  0.9507  0.2930
  682MOL0     C89944   8.539   7.229   2.862  0.6235 -0.4644 -0.4431
  682MOL0     C89945   8.660   7.226   2.930  0.0463 -0.4272  0.2292
  682MOL0     C89946   9.123   7.107   2.992  0.3869  0.1976 -0.2271
  682MOL0     C89947   9.120   7.172   3.115  0.3073  0.5073 -0.9715
  682MOL0     C89948   9.242   7.202   3.184  0.3947 -0.0074  0.3908
  682MOL0     C89949   9.364   7.154   3.135 -0.0351 -1.0993  0.7917
  682MOL0     O89950   9.476   7.194   3.199 -1.3979  0.1504  0.1841
  682MOL0     C89951   9.599   7.128   3.170  0.1671  0.2363 -0.1250
  682MOL0     C89952   9.718   7.163   3.262 -0.2282  0.5039 -0.7273
  682MOL0     C89953   9.851   7.124   3.204  0.0532  0.6141 -0.2095
  682MOL0     C89954   9.969   7.154   3.297 -0.0779  0.0126 -0.2687
  682MOL0     C89955  10.097   7.102   3.246 -0.4334  0.6782  0.4022
  682MOL0     C89956  10.200   7.046   3.213 -0.1512  0.0193  0.9051
  682MOL0     C89957   9.369   7.089   3.009  0.0414  0.0513 -0.2159
  682MOL0     C89958   9.247   7.065   2.936 -0.0522 -0.0406 -0.7311
  682MOL0     H89959   8.847   7.085   2.691 -0.6701 -1.8548 -0.9544
  682MOL0     H89960   8.615   7.082   2.570 -4.5092 -0.3719  0.5289
  682MOL0     H89961   8.394   6.974   2.601 -0.1530 -0.3266 -1.7784
  682MOL0     H89962   8.398   7.101   2.475 -1.8972 -0.3650 -1.6294
  682MOL0     H89963   8.177   7.104   2.667 -2.0100 -0.1151 -1.8043
  682MOL0     H89964   8.181   6.973   2.550 -0.9198 -0.5856 -0.7067
  682MOL0     H89965   8.162   7.123   2.366  0.3990  0.9900 -0.4553
  682MOL0     H89966   8.173   7.267   2.477  2.9108 -0.2540 -0.9413
  682MOL0     H89967   7.974   7.191   2.598  0.5372 -2.1003  0.1842
  682MOL0     H89968   7.940   7.275   2.440 -3.3872 -1.3574 -1.7328
  682MOL0     H89969   7.888   7.004   2.556  0.4393  1.3409  0.8822
  682MOL0     H89970   7.952   6.987   2.391 -2.7256 -1.2841 -0.6647
  682MOL0     H89971   7.695   6.983   2.421  1.3071 -1.1004 -0.9335
  682MOL0     H89972   7.775   7.053   2.279  3.9435  0.1548  0.1663
  682MOL0     H89973   7.714   7.212   2.522  2.7503  1.4681  0.0830
  682MOL0     H89974   7.741   7.280   2.352  0.8408  0.9410  1.0159
  682MOL0     H89975   7.524   7.173   2.283  0.7787 -1.9174  0.7361
  682MOL0     H89976   7.528   7.322   2.375 -1.3836  0.4807 -0.5298
  682MOL0     H89977   7.265   7.169   2.388 -1.6331  1.5860  1.2367
  682MOL0     H89978   7.111   7.138   2.665  1.1554  0.1994  0.6057
  682MOL0     H89979   7.125   6.955   2.674  0.3155 -0.7650 -0.7620
  682MOL0     H89980   7.041   6.930   2.452 -2.8411 -0.5748  3.5015
  682MOL0     H89981   7.082   7.095   2.400 -0.7513  0.6302 -1.1799
  682MOL0     H89982   6.866   7.047   2.607  2.1984 -0.8947 -0.0147
  682MOL0     H89983   6.900   7.192   2.516 -0.7820 -0.0960 -1.6648
  682MOL0     H89984   6.873   7.069   2.311  2.7598 -4.0746  0.3896
  682MOL0     H89985   6.713   7.082   2.388 -0.3253  0.4888 -1.3493
  682MOL0     H89986   6.584   7.023   2.549  0.0805  0.1849  1.0547
  682MOL0     H89987   6.401   6.900   2.631 -2.0279 -1.4194 -1.9715
  682MOL0     H89988   6.205   6.701   2.907  3.0930 -1.2611 -0.0989
  682MOL0     H89989   6.035   6.591   3.053  1.9999 -2.2591  0.6250
  682MOL0     H89990   5.777   6.585   2.996 -0.5443 -0.6205 -1.7721
  682MOL0     H89991   5.809   6.489   3.138 -2.5421 -1.2610  0.8521
  682MOL0     H89992   5.620   6.372   2.927  0.5347  2.7616 -2.0586
  682MOL0     H89993   5.555   6.504   3.013 -0.7774 -0.3899 -0.3542
  682MOL0     H89994   5.593   6.397   3.234  1.2194 -0.9402  0.5942
  682MOL0     H89995   5.674   6.255   3.159  1.6354  1.8895  1.0578
  682MOL0     H89996   5.387   6.340   3.109 -0.2247  0.3856  0.0532
  682MOL0     H89997   5.463   6.188   3.068 -1.0664 -0.4527 -1.1342
  682MOL0     H89998   5.427   6.284   3.364 -3.3826 -1.2443  1.2529
  682MOL0     H89999   5.480   6.129   3.311  0.3075  0.7216  1.5674
  682MOL0     H90000   5.251   6.102   3.200 -1.0180 -1.3904  0.6415
  682MOL0     H90001   5.201   6.251   3.271  0.4774  0.8785 -0.5240
  682MOL0     H90002   5.311   6.044   3.454 -0.4910 -0.5078 -1.4154
  682MOL0     H90003   5.198   6.164   3.501 -0.2957 -1.7192  1.3767
  682MOL0     H90004   5.123   5.967   3.293  3.3698 -0.0586  0.2439
  682MOL0     H90005   5.023   6.050   3.421  2.3623  2.9327  2.4635
  682MOL0     H90006   5.899   6.386   2.702  0.9257 -0.2008 -1.0178
  682MOL0     H90007   6.087   6.498   2.565 -1.0982 -0.5066 -0.2818
  682MOL0     H90008   6.600   6.530   2.562 -1.8597 -0.1106  2.1384
  682MOL0     H90009   6.793   6.651   2.450 -1.3587 -1.4297  0.2788
  682MOL0     H90010   8.443   7.272   2.888  0.6487 -1.3255  1.1954
  682MOL0     H90011   8.658   7.272   3.029 -0.5770 -0.3552  0.1852
  682MOL0     H90012   9.028   7.202   3.164  0.2134 -0.5851 -0.4410
  682MOL0     H90013   9.237   7.248   3.281  2.4394 -0.2270  0.6286
  682MOL0     H90014   9.630   7.150   3.068  0.1267 -0.0394 -0.1980
  682MOL0     H90015   9.578   7.021   3.170  0.2367  0.2121  0.8081
  682MOL0     H90016   9.736   7.269   3.282  0.7905 -0.2102  2.8734
  682MOL0     H90017   9.717   7.108   3.357  2.5640  0.9503 -0.3451
  682MOL0     H90018   9.874   7.177   3.111  1.3992  2.8785  1.3094
  682MOL0     H90019   9.864   7.016   3.191 -2.7361  0.2942 -0.9804
  682MOL0     H90020   9.969   7.264   3.295 -1.1269  0.0909  1.4474
  682MOL0     H90021   9.950   7.130   3.402  0.5388 -0.3804 -0.2427
  682MOL0     H90022  10.287   6.992   3.182 -0.1626 -0.6944  2.0603
  682MOL0     H90023   9.464   7.061   2.966 -1.1722 -0.5706 -2.6404
  682MOL0     H90024   9.248   7.019   2.838 -2.0681 -0.8411 -0.4255
  683MOL0     O90025  10.346   5.576  10.668 -0.6048 -0.2323 -0.4476
  683MOL0     C90026  10.404   5.669  10.726  0.4536  0.0312 -0.8260
  683MOL0     O90027  10.332   5.773  10.786 -0.5372  0.1425 -0.1318
  683MOL0     C90028  10.216   5.825  10.735  0.4025  0.3891  0.6765
  683MOL0     C90029  10.149   5.914  10.818 -0.5903 -0.5193 -0.4035
  683MOL0     C90030  10.026   5.976  10.795 -0.5642 -0.0813 -0.3544
  683MOL0     C90031   9.964   5.950  10.676  0.0012 -0.8492  0.2936
  683MOL0     O90032   9.834   5.988  10.639  0.4487  0.4097 -0.6847
  683MOL0     C90033   9.766   6.090  10.714  0.4998  0.2119 -0.5857
  683MOL0     C90034   9.629   6.114  10.637 -0.9156 -0.2058  0.0847
  683MOL0     C90035   9.522   6.002  10.671 -0.5220  1.0839 -0.6391
  683MOL0     C90036   9.412   6.009  10.563 -0.5301 -0.0693  0.3400
  683MOL0     C90037   9.284   5.926  10.588  0.1121 -0.8513 -0.4101
  683MOL0     C90038   9.168   5.980  10.514 -0.5629 -0.4589 -0.0262
  683MOL0     C90039   9.043   5.931  10.583  0.3694 -0.8968  0.4972
  683MOL0     C90040   8.926   5.961  10.482 -0.5435 -0.2374 -0.3116
  683MOL0     N90041   8.798   5.934  10.542  0.1994  1.2250 -0.1771
  683MOL0     C90042   8.719   5.827  10.513 -1.1630 -0.0842  1.1391
  683MOL0     C90043   8.617   5.843  10.592  0.2214 -0.1596  0.2868
  683MOL0     C90044   8.484   5.768  10.593 -0.5513  0.1884  0.3982
  683MOL0     C90045   8.357   5.852  10.568 -0.1420  0.8355 -0.0367
  683MOL0     C90046   8.237   5.765  10.582 -0.2142 -0.1448  0.1133
  683MOL0     C90047   8.120   5.846  10.541 -0.0341 -0.0066  0.6766
  683MOL0     O90048   8.000   5.781  10.588  0.2745  0.7748  0.2060
  683MOL0     C90049   7.938   5.682  10.516 -0.5883  0.4179  0.2796
  683MOL0     C90050   7.996   5.620  10.400  0.7655 -0.2805 -0.7625
  683MOL0     C90051   7.921   5.532  10.325  0.0530  0.4386  0.4103
  683MOL0     C90052   7.799   5.480  10.367 -0.1863 -0.4499  0.1582
  683MOL0     C90053   7.734   5.368  10.310 -0.0263  0.1591 -0.3661
  683MOL0     O90054   7.621   5.326  10.377 -0.3332 -0.0200  0.2435
  683MOL0     C90055   7.572   5.205  10.334  0.5944  0.2961 -0.0201
  683MOL0     C90056   7.496   5.199  10.218  0.5695  0.9215 -0.6217
  683MOL0     C90057   7.431   5.080  10.184  0.1415  0.1639  0.3048
  683MOL0     C90058   7.426   4.975  10.273  0.0843 -0.6092  0.9413
  683MOL0     O90059   7.386   4.851  10.226  0.2617  0.1569 -0.5303
  683MOL0     C90060   7.349   4.743  10.307 -0.2925 -1.0510  0.0490
  683MOL0     C90061   7.213   4.689  10.281  0.3360 -0.1254 -0.0903
  683MOL0     C90062   7.190   4.647  10.134  0.2642 -0.4654  0.7323
  683MOL0     C90063   7.053   4.587  10.111  0.9700  0.1705  0.3352
  683MOL0     C90064   7.007   4.579   9.963  0.5769  0.1697 -0.8840
  683MOL0     C90065   7.080   4.467   9.893  0.3837 -0.0346  0.0844
  683MOL0     C90066   7.022   4.452   9.753 -0.5094  0.0519 -0.2726
  683MOL0     C90067   7.137   4.404   9.663  0.4107  0.3626  0.5450
  683MOL0    Cl90068   7.092   4.244   9.605  0.0996 -0.2858  0.2301
  683MOL0     C90069   7.507   4.971  10.388 -0.2399  0.7630  0.3150
  683MOL0     C90070   7.584   5.088  10.418 -0.2229  0.1730  0.0421
  683MOL0     O90071   7.778   5.315  10.209  0.3809  0.6274 -0.1823
  683MOL0     C90072   7.759   5.524  10.496  1.5170 -0.0808  0.0529
  683MOL0     C90073   7.819   5.632  10.558 -0.4941 -0.3577 -0.2047
  683MOL0     N90074   8.642   5.944  10.678 -0.3315 -0.3167  1.0277
  683MOL0     N90075   8.734   6.014  10.635  0.6117 -0.3711 -0.1021
  683MOL0     C90076  10.029   5.862  10.581 -0.5982 -1.6700 -0.4609
  683MOL0     C90077  10.156   5.806  10.613  0.6254 -0.8162 -0.3548
  683MOL0     C90078  10.544   5.662  10.754 -0.3750 -0.0897 -0.0512
  683MOL0     C90079  10.622   5.559  10.691 -0.3366  0.0120  0.7824
  683MOL0     C90080  10.761   5.553  10.712  0.4881 -0.4685  0.4432
  683MOL0     C90081  10.828   5.642  10.790 -0.8991  0.3757  0.6862
  683MOL0     O90082  10.967   5.646  10.781 -0.9006  0.4342 -0.0066
  683MOL0     C90083  11.024   5.690  10.905 -0.5311 -0.1353  0.4436
  683MOL0     C90084  11.163   5.642  10.938 -0.4098  0.3894 -0.1133
  683MOL0     C90085  11.202   5.679  11.087  0.6099  0.5711  0.9946
  683MOL0     C90086  11.194   5.828  11.118  0.3264  0.0885 -0.2957
  683MOL0     C90087  11.211   5.843  11.260 -1.4681 -0.1671 -0.9470
  683MOL0     C90088  11.227   5.847  11.375 -0.6795  1.4144 -0.3351
  683MOL0     C90089  10.754   5.746  10.853 -0.4750  0.1531  0.6650
  683MOL0     C90090  10.612   5.745  10.843 -0.4012 -0.1699 -0.3418
  683MOL0     H90091  10.196   5.928  10.915 -3.1362  0.6513  0.7725
  683MOL0     H90092   9.987   6.033  10.879 -1.0552 -1.4995  0.4224
  683MOL0     H90093   9.826   6.181  10.724  0.0250  0.2763  3.0117
  683MOL0     H90094   9.739   6.054  10.814 -0.9822  0.1552 -0.9819
  683MOL0     H90095   9.659   6.113  10.532  1.6310 -1.3577  0.7264
  683MOL0     H90096   9.593   6.214  10.661  1.5056  0.7152  0.1932
  683MOL0     H90097   9.470   6.019  10.766  0.8613 -1.5374  0.7029
  683MOL0     H90098   9.568   5.903  10.670  0.2333  1.4123 -2.7661
  683MOL0     H90099   9.396   6.112  10.530  0.4897 -0.3621 -1.2029
  683MOL0     H90100   9.470   5.964  10.481  3.5180 -0.3877  3.1186
  683MOL0     H90101   9.259   5.932  10.694 -1.5469 -0.7599 -0.7764
  683MOL0     H90102   9.315   5.825  10.561  0.4755 -1.6566  2.6793
  683MOL0     H90103   9.170   5.945  10.410  0.5708 -0.4448 -0.0200
  683MOL0     H90104   9.182   6.088  10.516 -0.6301 -0.4487 -0.0590
  683MOL0     H90105   9.055   5.824  10.601  0.4881 -0.6735  1.8355
  683MOL0     H90106   9.038   5.971  10.685  1.3486 -0.9124  0.5654
  683MOL0     H90107   8.943   5.910  10.387  2.2850  1.5138 -0.8724
  683MOL0     H90108   8.928   6.069  10.466  2.5052 -0.0054  0.8888
  683MOL0     H90109   8.737   5.745  10.444 -2.7991  0.5233 -0.0703
  683MOL0     H90110   8.480   5.721  10.692 -1.6433  0.7548  0.6347
  683MOL0     H90111   8.504   5.682  10.529  1.9060 -0.0116  1.3065
  683MOL0     H90112   8.367   5.884  10.464 -1.1761 -0.6448 -0.6408
  683MOL0     H90113   8.350   5.938  10.636 -0.1503 -2.0929  4.0246
  683MOL0     H90114   8.241   5.690  10.502  1.3346  2.6083 -2.5927
  683MOL0     H90115   8.234   5.732  10.686 -0.0671 -3.6579 -0.8682
  683MOL0     H90116   8.113   5.856  10.432  1.4042 -0.6493  0.4982
  683MOL0     H90117   8.128   5.945  10.586  1.7216  1.0793 -1.7746
  683MOL0     H90118   8.094   5.652  10.364 -0.2197  1.2006 -2.2565
  683MOL0     H90119   7.978   5.499  10.238  1.0835  1.3191  0.7260
  683MOL0     H90120   7.487   5.293  10.164 -0.5516  0.0888 -1.9473
  683MOL0     H90121   7.363   5.088  10.100  0.8089  0.4414 -0.2236
  683MOL0     H90122   7.338   4.773  10.412 -2.6955 -3.1122  0.4936
  683MOL0     H90123   7.429   4.669  10.303  2.5171  1.5968  2.0785
  683MOL0     H90124   7.142   4.768  10.308 -0.5414 -0.1089 -2.2242
  683MOL0     H90125   7.198   4.598  10.341  2.0146 -0.7389 -0.5476
  683MOL0     H90126   7.266   4.570  10.115 -0.1989 -1.4909  2.7679
  683MOL0     H90127   7.211   4.722  10.057  2.1132  1.0902  2.6537
  683MOL0     H90128   7.045   4.483  10.142 -1.9727 -0.3253 -1.5830
  683MOL0     H90129   6.977   4.639  10.170 -0.7268  1.2619 -2.5895
  683MOL0     H90130   7.015   4.675   9.912 -1.3401  1.0871  0.4130
  683MOL0     H90131   6.904   4.542   9.958  0.4541 -0.1377  2.0730
  683MOL0     H90132   7.056   4.378   9.952  1.6553 -0.0919  0.5585
  683MOL0     H90133   7.189   4.462   9.896  0.3311 -1.2350  0.8860
  683MOL0     H90134   6.933   4.389   9.747  0.1577 -1.0877  1.1438
  683MOL0     H90135   6.992   4.550   9.716 -1.5146 -0.4705 -0.9034
  683MOL0     H90136   7.235   4.409   9.712 -0.3668  0.7825  2.1448
  683MOL0     H90137   7.140   4.467   9.574 -1.2223 -1.7477 -1.1079
  683MOL0     H90138   7.510   4.875  10.439  1.2564  1.2822  1.2501
  683MOL0     H90139   7.660   5.090  10.495 -0.7189  1.2388  0.5157
  683MOL0     H90140   7.668   5.482  10.538  1.6496 -2.3620 -1.6872
  683MOL0     H90141   7.773   5.661  10.652 -1.5406 -3.6754  0.4182
  683MOL0     H90142   9.990   5.838  10.483  0.2862 -1.6377 -0.8222
  683MOL0     H90143  10.202   5.755  10.528 -0.4920 -1.0656 -0.8343
  683MOL0     H90144  10.564   5.485  10.636  0.5898 -2.7078  3.1993
  683MOL0     H90145  10.825   5.481  10.662 -1.2787 -0.1144 -2.5620
  683MOL0     H90146  10.957   5.674  10.990 -1.1961  1.6273  0.2886
  683MOL0     H90147  11.039   5.798  10.908 -1.1716 -0.0537  1.0514
  683MOL0     H90148  11.175   5.533  10.934 -0.2547  0.4132 -0.3090
  683MOL0     H90149  11.236   5.686  10.868  0.2762  0.8274  0.8493
  683MOL0     H90150  11.303   5.639  11.096  1.2044  2.0226  0.9924
  683MOL0     H90151  11.130   5.620  11.145  0.9189  0.4115  1.2166
  683MOL0     H90152  11.267   5.886  11.062 -1.2108 -0.2997 -2.8417
  683MOL0     H90153  11.102   5.882  11.097  1.7472  3.4642  1.3809
  683MOL0     H90154  11.266   5.841  11.475 -0.4842  2.2340 -0.3550
  683MOL0     H90155  10.782   5.831  10.916 -1.7404 -0.8383  2.6659
  683MOL0     H90156  10.566   5.816  10.912  0.8916 -0.1139  0.5169
  684MOL0     O90157   1.603   1.146   7.722  0.4414  0.3471  1.4907
  684MOL0     C90158   1.630   1.238   7.646  0.1530 -0.3071 -0.3550
  684MOL0     O90159   1.546   1.298   7.558 -0.3496  0.4493 -0.3457
  684MOL0     C90160   1.419   1.261   7.552 -0.2603 -0.2132 -0.4388
  684MOL0     C90161   1.375   1.181   7.447 -0.4324  0.1138  0.3772
  684MOL0     C90162   1.245   1.136   7.449  0.8345 -0.8691  0.4367
  684MOL0     C90163   1.148   1.199   7.524  0.4876 -0.1737 -0.3298
  684MOL0     O90164   1.006   1.179   7.511 -0.5427  0.7555 -0.2335
  684MOL0     C90165   0.968   1.156   7.376 -0.0664  0.5547  1.0388
  684MOL0     C90166   0.817   1.177   7.369  0.7681 -0.1240  0.7776
  684MOL0     C90167   0.757   1.049   7.417 -0.1247  0.3154  0.6298
  684MOL0     C90168   0.617   1.060   7.437  0.8312 -0.1209  0.7274
  684MOL0     C90169   0.582   1.139   7.563  0.5174 -0.0758 -0.2213
  684MOL0     C90170   0.438   1.124   7.598  0.0888  0.1336  0.2224
  684MOL0     C90171   0.403   1.213   7.711 -0.8059  0.0298  0.0342
  684MOL0     C90172   0.267   1.169   7.783 -0.4570  0.2872 -0.2698
  684MOL0     N90173   0.152   1.170   7.687 -0.2557  0.1185  0.3485
  684MOL0     C90174   0.073   1.278   7.663 -0.1165 -0.9579  0.3362
  684MOL0     C90175  -0.031   1.231   7.600 -0.3208  0.2764  0.7773
  684MOL0     C90176  -0.124   1.307   7.508 -1.1551 -0.0974 -0.7654
  684MOL0     C90177  -0.276   1.280   7.530 -0.1894 -0.6666  0.9162
  684MOL0     C90178  -0.314   1.338   7.673  0.5171  0.2132  1.5310
  684MOL0     C90179  -0.470   1.343   7.694 -0.1482 -0.1127  0.0781
  684MOL0     O90180  -0.517   1.477   7.672  0.3300 -0.3911 -0.0830
  684MOL0     C90181  -0.657   1.488   7.710  0.1692  0.7906 -0.2712
  684MOL0     C90182  -0.695   1.619   7.746  0.2685  0.0522  0.9782
  684MOL0     C90183  -0.828   1.659   7.773 -0.2651  0.2078 -0.5914
  684MOL0     C90184  -0.927   1.562   7.767  0.0619 -0.3451  0.3522
  684MOL0     C90185  -1.078   1.593   7.784  0.0837 -0.7613 -0.1612
  684MOL0     O90186  -1.166   1.489   7.753  0.5929  0.6824 -0.4898
  684MOL0     C90187  -1.306   1.514   7.761 -0.0393  0.3306 -0.5253
  684MOL0     C90188  -1.364   1.633   7.721 -1.2506  0.1158 -1.2002
  684MOL0     C90189  -1.502   1.650   7.727  0.7361 -0.2433  0.7928
  684MOL0     C90190  -1.583   1.545   7.773  0.0232  0.4255 -0.4596
  684MOL0     O90191  -1.717   1.557   7.800 -0.3112 -0.6936  1.0624
  684MOL0     C90192  -1.793   1.647   7.724  1.0109  0.3810  0.3605
  684MOL0     C90193  -1.933   1.673   7.795  0.3745 -0.0393 -0.3392
  684MOL0     C90194  -2.046   1.570   7.767 -0.1876 -0.3135 -0.1124
  684MOL0     C90195  -2.181   1.623   7.809  0.0682  0.3197 -0.0060
  684MOL0     C90196  -2.288   1.535   7.725 -0.4310 -0.2625  0.2339
  684MOL0     C90197  -2.426   1.531   7.792  0.4553  1.1745  0.8600
  684MOL0     C90198  -2.511   1.656   7.775 -0.1522  0.0216 -0.0540
  684MOL0     C90199  -2.559   1.690   7.640  0.7210 -0.0350 -0.6635
  684MOL0    Cl90200  -2.733   1.632   7.623  0.0578 -0.1300 -0.4554
  684MOL0     C90201  -1.533   1.426   7.803 -0.5097  0.1859  0.6857
  684MOL0     C90202  -1.393   1.406   7.808  1.0015 -0.1935  0.2406
  684MOL0     O90203  -1.102   1.711   7.826  0.6488  0.1589  0.0123
  684MOL0     C90204  -0.889   1.429   7.739 -0.2300  0.0946 -0.8508
  684MOL0     C90205  -0.755   1.387   7.711  0.1009  0.5860 -0.4862
  684MOL0     N90206  -0.036   1.092   7.620  0.1517  0.6593 -0.0731
  684MOL0     N90207   0.078   1.059   7.661 -0.6534 -0.4797  0.3446
  684MOL0     C90208   1.188   1.280   7.627  0.2872  0.2317 -0.5198
  684MOL0     C90209   1.321   1.305   7.647 -0.6256 -0.1018 -0.0286
  684MOL0     C90210   1.776   1.269   7.638 -0.1267  0.3656  0.0957
  684MOL0     C90211   1.881   1.213   7.711 -0.1806 -0.0371 -0.2174
  684MOL0     C90212   2.018   1.249   7.699 -0.1767  0.2144 -0.7593
  684MOL0     C90213   2.062   1.339   7.599  0.9702  0.3797 -0.2051
  684MOL0     O90214   2.194   1.363   7.575 -0.1038 -0.2987  0.0379
  684MOL0     C90215   2.293   1.310   7.657  0.6068 -0.5875 -0.0587
  684MOL0     C90216   2.426   1.361   7.624  0.0008 -0.0936  0.0472
  684MOL0     C90217   2.531   1.293   7.719 -0.2154  0.2537  0.5201
  684MOL0     C90218   2.671   1.331   7.676 -0.2983  0.1793 -0.3511
  684MOL0     C90219   2.715   1.463   7.724 -0.3456 -0.4959  0.7884
  684MOL0     C90220   2.776   1.571   7.736  0.1776  0.1807 -0.0324
  684MOL0     C90221   1.959   1.393   7.526 -0.5568  0.4266 -0.1940
  684MOL0     C90222   1.822   1.365   7.548 -0.0729 -0.0575 -0.0870
  684MOL0     H90223   1.447   1.138   7.378 -0.6967 -1.3431  0.9719
  684MOL0     H90224   1.203   1.059   7.385  1.3638 -0.7839 -0.0271
  684MOL0     H90225   1.010   1.061   7.342  1.5048  2.5567 -3.3055
  684MOL0     H90226   1.016   1.233   7.315 -0.5913  1.2701  1.5005
  684MOL0     H90227   0.785   1.192   7.266 -0.3700 -4.2546  0.3601
  684MOL0     H90228   0.796   1.264   7.432 -1.3444  0.3560 -0.4986
  684MOL0     H90229   0.801   1.009   7.509 -0.5687 -1.4276  0.1361
  684MOL0     H90230   0.774   0.968   7.344 -1.9982 -0.2215  0.7445
  684MOL0     H90231   0.586   1.111   7.346  1.7257  0.0805  0.5286
  684MOL0     H90232   0.573   0.960   7.445 -0.2495 -0.0865 -2.9152
  684MOL0     H90233   0.596   1.247   7.551  1.0174 -0.1474 -0.3013
  684MOL0     H90234   0.644   1.108   7.647 -1.1166 -0.8792  0.7388
  684MOL0     H90235   0.431   1.017   7.621 -0.0759 -0.2654 -1.5833
  684MOL0     H90236   0.373   1.140   7.511  1.4189 -2.5755 -1.3972
  684MOL0     H90237   0.484   1.219   7.784  0.4874 -3.0882 -0.9806
  684MOL0     H90238   0.403   1.309   7.658  0.2806 -0.6250 -1.2252
  684MOL0     H90239   0.231   1.243   7.856 -3.7672  1.5852 -2.9688
  684MOL0     H90240   0.278   1.072   7.832 -1.4064  1.6388  2.8578
  684MOL0     H90241   0.100   1.383   7.672  0.4118 -0.8939 -1.4987
  684MOL0     H90242  -0.094   1.289   7.405  0.6801  0.4309 -0.3530
  684MOL0     H90243  -0.108   1.413   7.529  1.8193 -0.3317 -1.4891
  684MOL0     H90244  -0.292   1.174   7.509  6.1870 -1.5734 -1.8195
  684MOL0     H90245  -0.313   1.330   7.440  2.7874  3.3988  1.6491
  684MOL0     H90246  -0.259   1.284   7.752  2.4471  0.1138  0.1859
  684MOL0     H90247  -0.281   1.442   7.673  1.5375 -0.1024  1.3804
  684MOL0     H90248  -0.493   1.297   7.791 -0.1394  0.2332  0.2442
  684MOL0     H90249  -0.508   1.271   7.621  1.7609 -1.8859  0.7193
  684MOL0     H90250  -0.619   1.696   7.745 -0.3715  0.7709 -1.6731
  684MOL0     H90251  -0.842   1.765   7.793 -1.5904  0.3515 -2.0707
  684MOL0     H90252  -1.309   1.724   7.701  0.5526 -0.8182 -0.7752
  684MOL0     H90253  -1.531   1.747   7.688 -1.2671 -0.8411  0.6499
  684MOL0     H90254  -1.804   1.603   7.624  1.8701 -2.6734  1.4917
  684MOL0     H90255  -1.738   1.741   7.714  0.8696  0.6046  1.5722
  684MOL0     H90256  -1.962   1.776   7.774  1.5384  0.1381 -1.1586
  684MOL0     H90257  -1.914   1.675   7.902  0.8240 -3.0562 -0.2774
  684MOL0     H90258  -2.037   1.472   7.815 -0.8160 -2.1628 -3.4541
  684MOL0     H90259  -2.038   1.544   7.662 -1.9975 -5.4957  0.7113
  684MOL0     H90260  -2.187   1.602   7.916  1.9771  3.9545  0.9842
  684MOL0     H90261  -2.190   1.731   7.794  2.1241  0.5432  0.0385
  684MOL0     H90262  -2.254   1.434   7.701 -0.5541  0.0581 -1.4021
  684MOL0     H90263  -2.297   1.596   7.634  1.9892  1.4832  1.0300
  684MOL0     H90264  -2.417   1.508   7.899 -1.2761  1.2867  1.0646
  684MOL0     H90265  -2.470   1.442   7.746  2.4400  0.2242  0.6839
  684MOL0     H90266  -2.592   1.640   7.847 -0.9973  2.4863 -0.3729
  684MOL0     H90267  -2.458   1.744   7.811 -0.3682 -0.6592  2.1211
  684MOL0     H90268  -2.504   1.641   7.559 -0.5953 -2.0285 -0.4249
  684MOL0     H90269  -2.552   1.798   7.626 -0.0882 -0.0731 -1.4461
  684MOL0     H90270  -1.590   1.339   7.833  2.1908 -1.4283  1.4815
  684MOL0     H90271  -1.353   1.307   7.825  2.7453 -0.0745 -2.5031
  684MOL0     H90272  -0.965   1.353   7.754  0.9079 -0.7292  1.1917
  684MOL0     H90273  -0.734   1.281   7.696 -0.5626  0.6385 -1.9770
  684MOL0     H90274   1.110   1.318   7.692  0.1022  0.1294 -0.6814
  684MOL0     H90275   1.346   1.363   7.736  0.6332 -0.6250 -0.0126
  684MOL0     H90276   1.833   1.151   7.786 -0.6207  3.1499  2.3705
  684MOL0     H90277   2.089   1.204   7.767 -0.6550  1.1178  0.3731
  684MOL0     H90278   2.301   1.201   7.657 -0.1272 -0.6496  0.6824
  684MOL0     H90279   2.262   1.347   7.755 -1.6422  0.5175 -1.0881
  684MOL0     H90280   2.438   1.327   7.521 -1.5100  1.1243 -0.5788
  684MOL0     H90281   2.434   1.470   7.635 -0.5911 -0.1131  0.7989
  684MOL0     H90282   2.519   1.184   7.712  2.2679 -0.0213 -0.6644
  684MOL0     H90283   2.516   1.322   7.823  2.8762 -1.3551  1.5301
  684MOL0     H90284   2.740   1.259   7.720  0.5271  0.3233 -1.3977
  684MOL0     H90285   2.683   1.322   7.568 -0.5796 -2.3003 -0.2243
  684MOL0     H90286   2.814   1.672   7.735 -4.2056  2.0665 -0.9111
  684MOL0     H90287   1.981   1.463   7.446 -2.9539 -0.3229 -1.6083
  684MOL0     H90288   1.750   1.394   7.472 -1.5423 -0.8469  0.9597
  685MOL0     O90289  10.282   1.695   1.908  0.1808  0.7586  0.5614
  685MOL0     C90290  10.342   1.798   1.889 -0.8599  0.0887  0.1407
  685MOL0     O90291  10.297   1.926   1.905 -0.0150  0.3993 -0.3394
  685MOL0     C90292  10.190   1.943   1.989  0.0817 -0.2301 -0.3242
  685MOL0     C90293  10.062   1.962   1.944  0.1525  1.2384  0.6752
  685MOL0     C90294   9.949   1.959   2.032 -0.2269  0.2659  0.2174
  685MOL0     C90295   9.969   1.960   2.168  0.2204  0.3102  0.0029
  685MOL0     O90296   9.874   1.971   2.265  0.3731  0.3797  0.0154
  685MOL0     C90297   9.761   1.889   2.233  0.5740 -0.8363 -0.6651
  685MOL0     C90298   9.681   1.881   2.359  0.1793 -0.6483 -0.6613
  685MOL0     C90299   9.547   1.801   2.353 -0.1200 -0.3805  0.0268
  685MOL0     C90300   9.449   1.869   2.249 -0.0182 -0.8376 -0.4944
  685MOL0     C90301   9.313   1.799   2.253  0.5339 -0.0702 -0.6280
  685MOL0     C90302   9.218   1.860   2.148  0.6026  0.6933  0.8753
  685MOL0     C90303   9.078   1.811   2.149 -0.2155 -0.5059  0.6185
  685MOL0     C90304   9.060   1.666   2.124  0.8117 -0.4470  0.1641
  685MOL0     N90305   9.089   1.615   1.980 -0.4173  0.0378 -0.0951
  685MOL0     C90306   9.213   1.574   1.946 -0.0362  0.2404 -0.3733
  685MOL0     C90307   9.188   1.526   1.823  0.1471  0.4787  0.6639
  685MOL0     C90308   9.299   1.449   1.749 -0.0198 -0.7049 -0.0446
  685MOL0     C90309   9.335   1.312   1.814  0.2453 -0.0507  0.0648
  685MOL0     C90310   9.275   1.186   1.738  1.1976  0.8804  0.2339
  685MOL0     C90311   9.117   1.178   1.731  0.0000 -0.3742 -0.2182
  685MOL0     O90312   9.056   1.186   1.858 -0.6906 -0.7863 -0.8612
  685MOL0     C90313   8.936   1.121   1.858 -0.4255 -0.5817  0.0802
  685MOL0     C90314   8.923   1.009   1.943  0.6050 -0.3874  0.7016
  685MOL0     C90315   8.802   0.942   1.942  1.1092  0.3745  0.0580
  685MOL0     C90316   8.690   0.989   1.867  0.4186  0.1936  0.3141
  685MOL0     C90317   8.568   0.920   1.858 -0.4575 -0.7501 -0.3671
  685MOL0     O90318   8.473   0.984   1.791  0.2122  0.2927 -0.1836
  685MOL0     C90319   8.354   0.916   1.768 -0.9911 -0.0917 -0.1904
  685MOL0     C90320   8.249   0.894   1.854 -0.5810  0.1621  0.1564
  685MOL0     C90321   8.142   0.819   1.819  0.0872  0.0432  0.2678
  685MOL0     C90322   8.125   0.777   1.689 -0.1849 -0.4433 -0.5092
  685MOL0     O90323   8.014   0.706   1.662  0.0603  0.5241 -0.4224
  685MOL0     C90324   7.978   0.685   1.526 -0.4268 -0.0548 -0.1437
  685MOL0     C90325   7.830   0.648   1.506 -0.0504 -0.4827 -0.3179
  685MOL0     C90326   7.797   0.515   1.576 -0.3316  0.1053  0.7355
  685MOL0     C90327   7.842   0.393   1.501 -0.5178  0.0873 -0.9566
  685MOL0     C90328   7.821   0.268   1.592  0.7138 -0.3211  0.7803
  685MOL0     C90329   7.772   0.138   1.524  0.4633 -0.1780 -0.0782
  685MOL0     C90330   7.626   0.168   1.487 -0.7594 -0.5108 -0.4358
  685MOL0     C90331   7.540   0.041   1.505  0.2656  0.7093 -0.0257
  685MOL0    Cl90332   7.502   0.010   1.669  0.1184 -0.1632  0.5037
  685MOL0     C90333   8.222   0.797   1.596  0.8020  0.7545  0.0800
  685MOL0     C90334   8.337   0.866   1.637 -0.3484  0.0614 -0.7524
  685MOL0     O90335   8.558   0.807   1.899  0.0583 -0.4797 -0.1739
  685MOL0     C90336   8.711   1.109   1.790 -0.3641 -0.0065  0.4876
  685MOL0     C90337   8.829   1.173   1.781  0.7693 -0.1629 -0.4157
  685MOL0     N90338   9.056   1.549   1.780  0.0317  0.1664 -1.1892
  685MOL0     N90339   8.996   1.603   1.880  0.3742  0.0505  0.3831
  685MOL0     C90340  10.098   1.944   2.217  0.2988  0.0679 -0.7831
  685MOL0     C90341  10.204   1.936   2.125 -1.0180  0.2474 -0.4053
  685MOL0     C90342  10.477   1.787   1.825  0.0060  0.7925  0.5337
  685MOL0     C90343  10.522   1.877   1.726  1.5286  0.5224 -0.2486
  685MOL0     C90344  10.638   1.863   1.655 -0.0160  0.0037  0.5536
  685MOL0     C90345  10.711   1.751   1.669 -0.5482  0.3931 -0.4058
  685MOL0     O90346  10.833   1.726   1.612  0.2848  0.3552  1.0472
  685MOL0     C90347  10.893   1.821   1.528 -0.2590 -1.2437 -0.6842
  685MOL0     C90348  11.034   1.795   1.489 -0.2257 -0.3010  1.0960
  685MOL0     C90349  11.048   1.642   1.475  0.3204 -0.6757 -0.5262
  685MOL0     C90350  11.169   1.601   1.394  0.1963  0.3295 -0.2391
  685MOL0     C90351  11.291   1.600   1.471 -0.3874 -0.0528 -0.3624
  685MOL0     C90352  11.396   1.592   1.538 -0.3035 -1.0473 -0.5052
  685MOL0     C90353  10.668   1.654   1.760  0.3270 -0.0283  0.2988
  685MOL0     C90354  10.549   1.670   1.826 -1.3702 -0.2934  1.3204
  685MOL0     H90355  10.041   1.974   1.838 -2.1032  1.8839  1.1391
  685MOL0     H90356   9.851   1.976   1.990  1.0669  1.7143 -2.4512
  685MOL0     H90357   9.785   1.785   2.210 -1.5927 -1.7824  1.0109
  685MOL0     H90358   9.693   1.932   2.159  2.0370  2.1234 -0.4401
  685MOL0     H90359   9.653   1.983   2.387  1.2335  0.0285 -1.9662
  685MOL0     H90360   9.734   1.834   2.442 -2.2282 -1.0447  0.7591
  685MOL0     H90361   9.505   1.804   2.454  1.4715  0.0357  0.7074
  685MOL0     H90362   9.556   1.696   2.324  1.1907 -0.3688  0.3594
  685MOL0     H90363   9.432   1.975   2.273 -1.4192 -0.5790 -2.4183
  685MOL0     H90364   9.484   1.860   2.146 -2.6278 -3.0854 -1.2719
  685MOL0     H90365   9.259   1.818   2.346 -3.5266 -2.4268 -2.2300
  685MOL0     H90366   9.326   1.690   2.244  2.0163 -0.0397  0.6230
  685MOL0     H90367   9.269   1.833   2.055  1.9660 -0.5739  1.9260
  685MOL0     H90368   9.219   1.968   2.165  1.5869  0.7556  0.4591
  685MOL0     H90369   9.025   1.823   2.244  1.4808  0.8499  1.4471
  685MOL0     H90370   9.030   1.870   2.070 -0.4733 -1.0549  0.3642
  685MOL0     H90371   8.956   1.639   2.147  0.4428 -1.3434 -2.1741
  685MOL0     H90372   9.121   1.610   2.195  0.8157  0.3984  0.8476
  685MOL0     H90373   9.306   1.583   2.000 -0.7660 -1.1694  1.1901
  685MOL0     H90374   9.391   1.506   1.765  0.0392  0.2014 -3.0439
  685MOL0     H90375   9.282   1.452   1.641  0.7072 -1.1278 -0.1775
  685MOL0     H90376   9.312   1.307   1.921 -2.3963 -3.2800 -0.4815
  685MOL0     H90377   9.441   1.293   1.799 -0.0942 -0.3264 -2.3973
  685MOL0     H90378   9.309   1.192   1.634 -0.9030  0.0888 -0.5590
  685MOL0     H90379   9.320   1.091   1.769 -0.3193 -0.0983 -0.4555
  685MOL0     H90380   9.076   1.098   1.669 -1.3537 -1.0242  1.4625
  685MOL0     H90381   9.076   1.267   1.682  0.3771 -0.7002 -1.1596
  685MOL0     H90382   9.002   0.973   2.007 -0.2448 -1.0948  1.3895
  685MOL0     H90383   8.807   0.839   1.977  1.0189  0.2633 -0.2522
  685MOL0     H90384   8.258   0.920   1.959  0.9319 -0.4966  0.2264
  685MOL0     H90385   8.065   0.797   1.892  1.4624 -0.1232  1.7244
  685MOL0     H90386   8.033   0.593   1.502  0.7658  0.7041 -0.3640
  685MOL0     H90387   7.992   0.770   1.460 -1.3989 -0.8091 -1.3704
  685MOL0     H90388   7.809   0.658   1.399 -2.4896 -0.4990  0.1105
  685MOL0     H90389   7.763   0.721   1.552  1.8539  0.0527  1.7428
  685MOL0     H90390   7.688   0.512   1.570 -0.4471  3.3423 -1.0162
  685MOL0     H90391   7.837   0.510   1.678  0.1730 -2.5098  0.4754
  685MOL0     H90392   7.776   0.381   1.414 -2.5853  1.3239  0.3381
  685MOL0     H90393   7.945   0.401   1.466  0.1021  2.9714  1.2212
  685MOL0     H90394   7.756   0.286   1.678 -0.2938  0.1873 -0.0668
  685MOL0     H90395   7.918   0.237   1.631  0.0784 -1.8931  1.1846
  685MOL0     H90396   7.783   0.060   1.600  0.1790  0.6295  0.8086
  685MOL0     H90397   7.833   0.110   1.438 -0.4874  0.0487 -0.8482
  685MOL0     H90398   7.578   0.255   1.535 -1.0964 -0.5262 -0.7361
  685MOL0     H90399   7.619   0.191   1.380 -5.0772 -1.2825 -0.5185
  685MOL0     H90400   7.592  -0.040   1.454  0.3338  0.7171  0.0313
  685MOL0     H90401   7.439   0.058   1.466 -1.0528  0.3543  3.0035
  685MOL0     H90402   8.212   0.755   1.496 -1.3799 -0.3562  0.7127
  685MOL0     H90403   8.415   0.878   1.562  0.9608 -3.2789 -0.1166
  685MOL0     H90404   8.633   1.149   1.727  1.3057  1.8048 -0.5166
  685MOL0     H90405   8.835   1.268   1.729 -0.9657 -0.7612 -1.7960
  685MOL0     H90406  10.106   1.925   2.323 -1.6827  1.2361 -0.3749
  685MOL0     H90407  10.304   1.904   2.150 -1.3886 -0.5048  0.1595
  685MOL0     H90408  10.453   1.956   1.697 -1.6949 -2.8174 -2.4869
  685MOL0     H90409  10.665   1.929   1.573 -0.3438 -1.5922 -0.9093
  685MOL0     H90410  10.899   1.923   1.568 -1.6461 -0.2444 -2.8140
  685MOL0     H90411  10.837   1.830   1.434 -1.4928  0.3399  0.1467
  685MOL0     H90412  11.058   1.837   1.391 -0.0261  1.2956  1.8081
  685MOL0     H90413  11.105   1.828   1.565 -0.1994 -1.4124  1.5792
  685MOL0     H90414  10.963   1.602   1.418 -0.7122  1.3610 -0.5007
  685MOL0     H90415  11.049   1.597   1.574 -1.3689  1.2190  0.4113
  685MOL0     H90416  11.146   1.504   1.348 -0.3449  0.7792 -0.9354
  685MOL0     H90417  11.179   1.666   1.306 -2.3639  0.4932 -0.4865
  685MOL0     H90418  11.489   1.577   1.590 -1.2750  1.4407  2.2267
  685MOL0     H90419  10.733   1.568   1.762  0.4701  0.0834  0.4379
  685MOL0     H90420  10.520   1.587   1.890  1.0492 -2.3082 -0.0305
  686MOL0     O90421   1.187   7.683   1.292 -0.4651  0.2573 -0.4388
  686MOL0     C90422   1.199   7.782   1.367 -0.2480  0.0470 -0.2171
  686MOL0     O90423   1.101   7.875   1.400  0.3068 -0.7049 -0.0752
  686MOL0     C90424   0.967   7.858   1.375 -0.7455  0.4000  0.2574
  686MOL0     C90425   0.909   7.746   1.423 -0.7271  0.5750 -0.2546
  686MOL0     C90426   0.773   7.717   1.394 -0.3813  0.1938  0.4837
  686MOL0     C90427   0.693   7.812   1.314 -0.2616  0.9634  0.1119
  686MOL0     O90428   0.567   7.774   1.267  0.2008 -0.0118 -0.6016
  686MOL0     C90429   0.473   7.866   1.202 -0.9023  0.1221  0.0634
  686MOL0     C90430   0.363   7.778   1.148 -0.5017 -0.2138  0.7610
  686MOL0     C90431   0.240   7.861   1.138  0.1026  0.0206  0.2669
  686MOL0     C90432   0.118   7.779   1.104  0.7446  0.1119  0.6951
  686MOL0     C90433  -0.005   7.845   1.162  0.0774  1.1498 -0.1230
  686MOL0     C90434  -0.122   7.741   1.164 -0.4405 -0.0177 -0.7750
  686MOL0     C90435  -0.226   7.808   1.248 -0.1409 -0.1103 -0.1422
  686MOL0     C90436  -0.346   7.712   1.274  0.8369  0.2077 -0.1844
  686MOL0     N90437  -0.454   7.785   1.346 -0.4034  0.1899 -0.3513
  686MOL0     C90438  -0.574   7.832   1.289 -0.0789 -0.0070 -0.0189
  686MOL0     C90439  -0.626   7.899   1.385 -0.0312  0.4753  1.1078
  686MOL0     C90440  -0.758   7.967   1.360 -0.6551 -0.1483 -0.5789
  686MOL0     C90441  -0.876   7.872   1.369  0.8820 -0.0272 -0.0694
  686MOL0     C90442  -1.012   7.919   1.309 -0.6286  0.2547 -1.1064
  686MOL0     C90443  -1.099   7.800   1.287  0.9517  0.9789  0.0822
  686MOL0     O90444  -1.240   7.829   1.264 -0.4468 -0.3358 -0.3063
  686MOL0     C90445  -1.329   7.873   1.366  0.2533  0.3323 -0.9470
  686MOL0     C90446  -1.298   7.885   1.498  0.7698 -1.3720 -0.5637
  686MOL0     C90447  -1.395   7.937   1.596  0.0050  0.3294  0.0683
  686MOL0     C90448  -1.533   7.964   1.564 -0.5121 -0.1316  0.3151
  686MOL0     C90449  -1.633   7.997   1.663  0.2769  0.1835  0.0445
  686MOL0     O90450  -1.586   8.041   1.784  0.7030 -0.5897 -0.1554
  686MOL0     C90451  -1.678   8.073   1.884 -0.5564 -0.2518  1.3141
  686MOL0     C90452  -1.770   7.987   1.931  0.3677  0.0599  0.2359
  686MOL0     C90453  -1.870   8.037   2.020  0.1543 -0.1315  0.0970
  686MOL0     C90454  -1.866   8.173   2.060  0.3065 -0.1033  0.5101
  686MOL0     O90455  -1.955   8.234   2.146  0.1505 -0.1530  0.3973
  686MOL0     C90456  -2.066   8.154   2.190  1.0458 -0.4284 -0.1983
  686MOL0     C90457  -2.131   8.248   2.288 -0.1199  0.2385 -0.0981
  686MOL0     C90458  -2.195   8.392   2.257 -0.0208  0.5204 -0.0870
  686MOL0     C90459  -2.279   8.443   2.372 -0.0796  0.1141  0.2153
  686MOL0     C90460  -2.277   8.599   2.375  0.1752 -0.3162 -0.1253
  686MOL0     C90461  -2.338   8.664   2.248 -0.2730 -0.1148  0.3282
  686MOL0     C90462  -2.341   8.819   2.282  0.2715  0.4162  0.8715
  686MOL0     C90463  -2.491   8.873   2.290 -0.1546  0.3301 -0.3219
  686MOL0    Cl90464  -2.576   8.843   2.445  0.2514  0.0297  0.2674
  686MOL0     C90465  -1.764   8.261   2.007  1.3477 -0.0537 -0.7252
  686MOL0     C90466  -1.664   8.204   1.928  0.3373 -0.1632 -0.3450
  686MOL0     O90467  -1.743   7.984   1.626  0.3945  0.4056  0.0367
  686MOL0     C90468  -1.554   7.953   1.425 -0.0668  0.0883 -0.3234
  686MOL0     C90469  -1.459   7.913   1.329 -0.2090  0.0537  0.4758
  686MOL0     N90470  -0.559   7.881   1.505 -0.4086 -0.2415 -0.0617
  686MOL0     N90471  -0.460   7.808   1.483 -0.5442  0.8351  0.7345
  686MOL0     C90472   0.763   7.918   1.257  0.6254  0.0279 -0.1379
  686MOL0     C90473   0.894   7.941   1.287  1.0699 -0.1025  0.3195
  686MOL0     C90474   1.323   7.794   1.441  0.3375  0.5984 -1.4180
  686MOL0     C90475   1.443   7.734   1.386  0.4083 -0.0209 -0.3666
  686MOL0     C90476   1.556   7.746   1.466 -0.9306 -0.7242  0.2721
  686MOL0     C90477   1.558   7.806   1.589  1.1586 -0.4478 -0.2272
  686MOL0     O90478   1.660   7.813   1.679 -0.2452  0.8007 -0.0014
  686MOL0     C90479   1.783   7.741   1.646  0.2684 -0.2268 -0.7862
  686MOL0     C90480   1.890   7.765   1.753 -0.3885  0.7309 -0.6888
  686MOL0     C90481   1.916   7.910   1.778 -0.0394  0.2364  1.1897
  686MOL0     C90482   1.994   7.945   1.895 -0.5312 -0.2937 -0.4855
  686MOL0     C90483   2.102   7.856   1.929 -0.9422 -0.1193  0.0258
  686MOL0     C90484   2.195   7.779   1.968  0.6759  0.0381  0.3431
  686MOL0     C90485   1.437   7.861   1.634  0.4441  0.3259 -0.7728
  686MOL0     C90486   1.320   7.859   1.560 -0.2076 -0.6000 -0.4507
  686MOL0     H90487   0.963   7.674   1.483 -1.2038  0.1434 -0.3421
  686MOL0     H90488   0.731   7.632   1.446  0.2198 -0.1535  0.4084
  686MOL0     H90489   0.525   7.916   1.120 -1.8162  0.2667 -0.4359
  686MOL0     H90490   0.454   7.948   1.272 -0.0321  0.1728  0.2541
  686MOL0     H90491   0.351   7.698   1.223  0.5177  1.6578  3.0520
  686MOL0     H90492   0.383   7.735   1.050 -2.3624  1.6103 -0.4773
  686MOL0     H90493   0.261   7.947   1.074  3.2256 -0.1655  0.8560
  686MOL0     H90494   0.230   7.915   1.232  2.8966  2.5681 -0.7504
  686MOL0     H90495   0.107   7.762   0.997 -0.2426  1.4652  0.5614
  686MOL0     H90496   0.127   7.684   1.159  1.1858  0.7568  1.7727
  686MOL0     H90497  -0.031   7.932   1.102  2.1918  0.0388 -2.8889
  686MOL0     H90498   0.006   7.864   1.269 -2.9810 -4.2975  1.5626
  686MOL0     H90499  -0.082   7.649   1.208  2.1913  0.8247 -1.2476
  686MOL0     H90500  -0.172   7.736   1.067  0.8919  1.5390 -1.6010
  686MOL0     H90501  -0.187   7.838   1.345 -0.6611  0.4954 -0.1165
  686MOL0     H90502  -0.267   7.896   1.198 -1.0961 -0.5627 -0.1681
  686MOL0     H90503  -0.297   7.628   1.326  4.2948  1.2390 -1.4918
  686MOL0     H90504  -0.386   7.666   1.183 -0.7211 -2.0038  1.5145
  686MOL0     H90505  -0.593   7.834   1.182 -0.5001 -0.2354  0.0528
  686MOL0     H90506  -0.762   8.010   1.259 -1.9308  0.1740 -0.4121
  686MOL0     H90507  -0.774   8.045   1.435 -1.2438  1.0623 -1.9123
  686MOL0     H90508  -0.908   7.861   1.473 -3.7712  0.5138 -1.1987
  686MOL0     H90509  -0.851   7.776   1.324  2.8423 -0.6041  2.0801
  686MOL0     H90510  -1.058   7.990   1.377 -3.0321 -0.8175 -1.5298
  686MOL0     H90511  -0.998   7.969   1.213 -0.7345  0.0798 -1.2136
  686MOL0     H90512  -1.090   7.729   1.370 -2.1241  0.3318 -0.0173
  686MOL0     H90513  -1.060   7.731   1.211 -0.0551  0.3600  0.1075
  686MOL0     H90514  -1.197   7.869   1.535  1.6820  2.3392 -1.0218
  686MOL0     H90515  -1.363   7.952   1.699 -2.7987  1.4567  0.8574
  686MOL0     H90516  -1.772   7.890   1.881  0.5537 -0.3710  1.0450
  686MOL0     H90517  -1.945   7.964   2.047 -0.6751  0.9088  0.7008
  686MOL0     H90518  -2.018   8.063   2.229  2.2381 -0.3180 -1.3362
  686MOL0     H90519  -2.135   8.127   2.109  0.3676 -2.2058  0.8926
  686MOL0     H90520  -2.060   8.258   2.371  0.9429 -1.6627 -0.7102
  686MOL0     H90521  -2.207   8.194   2.346  0.9114 -0.8426  0.2877
  686MOL0     H90522  -2.254   8.393   2.164 -0.7406  0.7235  0.3636
  686MOL0     H90523  -2.119   8.470   2.243  0.6208  0.0659  0.8027
  686MOL0     H90524  -2.379   8.401   2.360 -0.2167  0.5821 -0.3278
  686MOL0     H90525  -2.241   8.400   2.465 -0.4512 -1.8107 -0.4766
  686MOL0     H90526  -2.176   8.638   2.393 -0.0427 -0.8219  2.6573
  686MOL0     H90527  -2.326   8.638   2.464  0.9556  1.9609 -0.6313
  686MOL0     H90528  -2.436   8.625   2.221  0.3296 -2.6340  1.4371
  686MOL0     H90529  -2.279   8.638   2.160 -0.9302  0.9053 -0.4292
  686MOL0     H90530  -2.291   8.841   2.377  1.4518  0.7130  0.1998
  686MOL0     H90531  -2.286   8.868   2.201  0.8974 -1.8188 -0.1441
  686MOL0     H90532  -2.550   8.813   2.220 -0.9686 -1.2162  1.5719
  686MOL0     H90533  -2.491   8.981   2.273  3.0316  0.4666  0.0816
  686MOL0     H90534  -1.774   8.366   2.035 -0.4786 -1.0999  3.3608
  686MOL0     H90535  -1.586   8.266   1.885  1.9859 -1.0208  1.2748
  686MOL0     H90536  -1.654   7.980   1.391  0.5795  3.1022 -0.0536
  686MOL0     H90537  -1.496   7.909   1.227 -1.5958 -1.8588  0.9934
  686MOL0     H90538   0.717   7.990   1.190  2.3767  0.3492 -1.0533
  686MOL0     H90539   0.940   8.023   1.232  1.8177 -0.5094  0.3237
  686MOL0     H90540   1.447   7.689   1.288  0.8040 -1.1144  0.1292
  686MOL0     H90541   1.648   7.698   1.436  0.9983  0.7185  3.3074
  686MOL0     H90542   1.817   7.784   1.551 -0.6071  1.4825 -0.3500
  686MOL0     H90543   1.768   7.634   1.628 -0.1236 -0.3540  0.2486
  686MOL0     H90544   1.874   7.714   1.848  1.5161 -0.7352 -1.0811
  686MOL0     H90545   1.977   7.709   1.715  0.2163  0.8626  0.4591
  686MOL0     H90546   1.824   7.968   1.780  0.3353  0.8731  0.4813
  686MOL0     H90547   1.975   7.952   1.696  0.4084 -0.9262  0.8872
  686MOL0     H90548   2.040   8.042   1.872  0.9401 -1.4909 -2.9897
  686MOL0     H90549   1.930   7.962   1.982 -0.6957  0.3183 -0.7158
  686MOL0     H90550   2.273   7.712   1.998  0.4648 -0.0992  0.5930
  686MOL0     H90551   1.429   7.881   1.741  2.8237 -0.0513 -0.4823
  686MOL0     H90552   1.228   7.893   1.605  1.0461  1.9550  0.4186
  687MOL0     O90553   0.086  10.292  10.027  0.0356  0.3249 -0.4413
  687MOL0     C90554   0.171  10.352  10.095 -0.6075 -0.1421  0.1881
  687MOL0     O90555   0.153  10.410  10.215  0.2871 -0.2465 -0.3319
  687MOL0     C90556   0.043  10.394  10.285  0.6580  0.8047  0.3495
  687MOL0     C90557   0.049  10.355  10.421 -0.6650  0.2705  0.5005
  687MOL0     C90558  -0.058  10.356  10.506 -0.0312 -0.3892  1.0614
  687MOL0     C90559  -0.188  10.361  10.451 -1.1958 -0.3215  0.8406
  687MOL0     O90560  -0.313  10.352  10.517 -0.8926  0.2153  0.7391
  687MOL0     C90561  -0.313  10.296  10.646  0.4596 -0.5443 -0.5434
  687MOL0     C90562  -0.422  10.364  10.720  0.4691 -0.3945 -0.0386
  687MOL0     C90563  -0.450  10.290  10.851 -0.1174 -0.0833  0.4683
  687MOL0     C90564  -0.493  10.388  10.961 -0.4207  0.9533  0.3144
  687MOL0     C90565  -0.629  10.452  10.930 -0.3611  0.2205  0.4045
  687MOL0     C90566  -0.677  10.548  11.040 -0.5862 -0.3667 -0.8182
  687MOL0     C90567  -0.809  10.614  11.002  0.3808 -0.3374 -0.3744
  687MOL0     C90568  -0.828  10.741  11.085  0.0066 -0.2880 -0.2635
  687MOL0     N90569  -0.920  10.714  11.193  0.3442  0.0204 -0.4152
  687MOL0     C90570  -1.060  10.708  11.188 -0.4599  0.0499 -0.7493
  687MOL0     C90571  -1.097  10.676  11.315  0.4982 -0.5421  0.0330
  687MOL0     C90572  -1.237  10.636  11.359 -0.0075 -0.0358  1.1383
  687MOL0     C90573  -1.270  10.686  11.504  0.1768 -1.1360  0.3150
  687MOL0     C90574  -1.374  10.601  11.585  0.1071 -0.6767  0.9597
  687MOL0     C90575  -1.407  10.644  11.724  0.3443 -0.8662 -0.2895
  687MOL0     O90576  -1.516  10.573  11.775  0.8153  0.4387  0.0347
  687MOL0     C90577  -1.499  10.459  11.853 -0.5433 -0.9843 -0.1414
  687MOL0     C90578  -1.373  10.408  11.883 -0.1332 -0.5700 -0.6555
  687MOL0     C90579  -1.361  10.300  11.968  0.1193  0.3595  0.3735
  687MOL0     C90580  -1.471  10.236  12.017 -0.2873  0.0660 -0.5381
  687MOL0     C90581  -1.465  10.129  12.120 -0.3682 -0.7390 -0.2847
  687MOL0     O90582  -1.588  10.069  12.160 -0.1221 -0.1419 -1.0318
  687MOL0     C90583  -1.571   9.964  12.256 -0.0762 -0.3976  0.8791
  687MOL0     C90584  -1.538   9.993  12.389  0.0682 -0.8320 -0.0300
  687MOL0     C90585  -1.528   9.898  12.487 -0.3901  0.8071  0.5125
  687MOL0     C90586  -1.554   9.767  12.446  0.5670 -0.1286  0.8219
  687MOL0     O90587  -1.564   9.677  12.549 -0.2377 -0.7251 -0.9642
  687MOL0     C90588  -1.517   9.548  12.518  0.6138  0.1995 -0.6391
  687MOL0     C90589  -1.523   9.474  12.649  0.5324  0.2123 -0.6092
  687MOL0     C90590  -1.663   9.475  12.728 -0.5799  0.1370 -0.4118
  687MOL0     C90591  -1.636   9.392  12.855 -0.4003 -0.3748  0.2496
  687MOL0     C90592  -1.739   9.427  12.964  0.3609  0.8163  0.6226
  687MOL0     C90593  -1.893   9.430  12.923  0.2664  0.3226 -0.1039
  687MOL0     C90594  -1.982   9.444  13.044 -0.4717 -0.3575  0.6949
  687MOL0     C90595  -1.998   9.588  13.097  0.2079 -0.5931 -0.4750
  687MOL0    Cl90596  -2.138   9.604  13.211 -0.0627  0.0949 -0.4181
  687MOL0     C90597  -1.585   9.729  12.312  0.9810  0.2023 -0.3270
  687MOL0     C90598  -1.592   9.833  12.217  0.4009 -0.2677 -0.2889
  687MOL0     O90599  -1.358  10.101  12.165 -0.2255 -0.4864 -0.2820
  687MOL0     C90600  -1.604  10.274  11.975 -0.3761 -0.0529  1.0522
  687MOL0     C90601  -1.611  10.394  11.899 -0.5909 -0.2009 -0.4242
  687MOL0     N90602  -0.987  10.669  11.397  0.0112  0.2623  0.6967
  687MOL0     N90603  -0.882  10.700  11.324  0.5569 -0.3049  0.3199
  687MOL0     C90604  -0.199  10.380  10.320 -0.1758  0.1954  1.9418
  687MOL0     C90605  -0.086  10.397  10.234  0.0390  0.0154 -0.7571
  687MOL0     C90606   0.298  10.365  10.035 -0.1110 -0.0040  0.1838
  687MOL0     C90607   0.330  10.331   9.903 -0.0701 -0.0426 -0.2373
  687MOL0     C90608   0.457  10.338   9.856  0.7694 -0.9197  0.1096
  687MOL0     C90609   0.548  10.395   9.936  0.5681  0.0785  0.1608
  687MOL0     O90610   0.678  10.412   9.899 -0.5975  0.2014 -0.6946
  687MOL0     C90611   0.732  10.349   9.787 -0.3095  0.2649 -0.2932
  687MOL0     C90612   0.889  10.348   9.811 -0.5015 -0.9132  0.8691
  687MOL0     C90613   0.966  10.306   9.678  0.6307 -0.5684  0.4021
  687MOL0     C90614   1.115  10.255   9.685 -0.4127 -0.8404 -0.5653
  687MOL0     C90615   1.203  10.366   9.731 -0.7582  0.2752 -0.0649
  687MOL0     C90616   1.276  10.456   9.767  0.3889 -0.4147 -0.5599
  687MOL0     C90617   0.512  10.460  10.057 -0.3917  0.2829 -0.4754
  687MOL0     C90618   0.388  10.440  10.112 -0.0207  0.3683 -0.1053
  687MOL0     H90619   0.150  10.354  10.461 -1.6366  1.5548  3.2073
  687MOL0     H90620  -0.041  10.361  10.613  1.8418  2.4451  0.7358
  687MOL0     H90621  -0.222  10.305  10.705  1.4307 -0.8869 -1.9370
  687MOL0     H90622  -0.336  10.190  10.628 -0.1396 -0.4117 -0.5619
  687MOL0     H90623  -0.513  10.385  10.663  0.0006 -0.1006  0.7965
  687MOL0     H90624  -0.394  10.467  10.743  0.6887 -0.4752  0.0542
  687MOL0     H90625  -0.358  10.242  10.887  0.1660 -0.1008 -0.2592
  687MOL0     H90626  -0.527  10.215  10.833  1.2742 -1.3184 -0.5897
  687MOL0     H90627  -0.497  10.328  11.052 -2.0618 -0.9277 -0.9106
  687MOL0     H90628  -0.413  10.462  10.977  0.8796  0.6343 -3.5649
  687MOL0     H90629  -0.702  10.372  10.913 -1.2015  1.3996 -1.9734
  687MOL0     H90630  -0.629  10.502  10.833 -2.6200 -1.7335 -0.6980
  687MOL0     H90631  -0.593  10.613  11.068  0.0148 -0.8249 -1.5174
  687MOL0     H90632  -0.687  10.491  11.133  1.1468 -2.5941 -1.8950
  687MOL0     H90633  -0.810  10.632  10.894 -2.7410  1.8016 -0.1139
  687MOL0     H90634  -0.898  10.551  11.007  0.7263 -1.0825 -2.4652
  687MOL0     H90635  -0.864  10.822  11.022  0.8357 -0.1525 -0.5741
  687MOL0     H90636  -0.731  10.779  11.118  2.5599 -3.4375 -3.3698
  687MOL0     H90637  -1.127  10.733  11.106  0.4621 -1.1123 -1.8845
  687MOL0     H90638  -1.244  10.527  11.370 -1.3570  0.0630  1.4811
  687MOL0     H90639  -1.304  10.682  11.286  1.0534  1.0530  0.8172
  687MOL0     H90640  -1.317  10.784  11.499  2.0042 -0.2315  0.1030
  687MOL0     H90641  -1.177  10.707  11.558  0.3221  0.6882 -0.5791
  687MOL0     H90642  -1.465  10.591  11.526  0.3958 -2.3173  0.7338
  687MOL0     H90643  -1.326  10.503  11.589  0.7398 -0.3413  3.1910
  687MOL0     H90644  -1.422  10.752  11.731  1.7642 -0.6817  0.2269
  687MOL0     H90645  -1.310  10.627  11.771  0.9186 -3.1173 -2.0967
  687MOL0     H90646  -1.276  10.443  11.852 -0.0655 -0.3688 -0.2270
  687MOL0     H90647  -1.263  10.257  11.984  0.1785  0.3873  0.1028
  687MOL0     H90648  -1.516  10.099  12.402 -0.0142 -1.0342  2.2224
  687MOL0     H90649  -1.516   9.926  12.591  1.5985  0.1299  0.5096
  687MOL0     H90650  -1.415   9.543  12.480 -0.4530 -5.2684 -3.9103
  687MOL0     H90651  -1.580   9.495  12.446  0.5909 -0.1678 -0.3492
  687MOL0     H90652  -1.451   9.526  12.713  1.7673 -0.8217 -1.1142
  687MOL0     H90653  -1.493   9.371  12.631 -1.4109 -0.4611 -0.2608
  687MOL0     H90654  -1.740   9.420  12.673 -1.3163 -2.4674  2.9424
  687MOL0     H90655  -1.696   9.579  12.739 -1.6710 -0.1904 -0.4823
  687MOL0     H90656  -1.650   9.286  12.833  0.4180 -0.2373 -1.0866
  687MOL0     H90657  -1.536   9.417  12.891 -1.6581  2.0185  2.4428
  687MOL0     H90658  -1.709   9.527  12.997  1.8706  1.7755 -3.1168
  687MOL0     H90659  -1.715   9.352  13.039 -1.3141 -2.2528 -1.6709
  687MOL0     H90660  -1.912   9.337  12.869  1.1467  0.9031 -1.4833
  687MOL0     H90661  -1.922   9.512  12.857 -3.0383 -0.8461 -0.2724
  687MOL0     H90662  -2.083   9.417  13.012 -0.3549 -0.6625  0.5862
  687MOL0     H90663  -1.952   9.374  13.122 -1.4051 -0.2338  1.1817
  687MOL0     H90664  -1.993   9.659  13.015  1.8784 -2.8247 -2.4577
  687MOL0     H90665  -1.911   9.613  13.158 -0.3566  0.5246 -0.1036
  687MOL0     H90666  -1.600   9.625  12.287  1.5768 -0.0667  0.3850
  687MOL0     H90667  -1.623   9.827  12.113 -1.8706 -0.3409  0.3481
  687MOL0     H90668  -1.684  10.221  12.024  0.0884  1.2090  3.2867
  687MOL0     H90669  -1.703  10.435  11.860  0.8628  2.6067 -1.1675
  687MOL0     H90670  -0.291  10.384  10.262  1.7620  2.1911 -1.3271
  687MOL0     H90671  -0.099  10.421  10.129  2.4124 -0.5729 -1.2397
  687MOL0     H90672   0.254  10.277   9.847 -0.0452 -1.3177  0.9112
  687MOL0     H90673   0.480  10.300   9.756 -3.6663 -0.5241 -1.2987
  687MOL0     H90674   0.705  10.403   9.696  2.1367  0.6496 -0.8818
  687MOL0     H90675   0.693  10.247   9.779 -0.0901  0.2160 -0.7831
  687MOL0     H90676   0.913  10.454   9.828  1.4314 -0.6144 -2.7465
  687MOL0     H90677   0.934  10.287   9.890  2.2482  3.3544  3.0182
  687MOL0     H90678   0.946  10.387   9.607 -1.7444  0.0233  1.6518
  687MOL0     H90679   0.908  10.221   9.641 -1.1478  1.6357 -2.3076
  687MOL0     H90680   1.132  10.161   9.737  0.8002 -0.1552  0.3330
  687MOL0     H90681   1.163  10.228   9.590  0.1514 -1.8447 -0.0114
  687MOL0     H90682   1.343  10.539   9.779  0.3410 -0.1991 -1.7581
  687MOL0     H90683   0.591  10.514  10.107 -1.4742  2.1871 -0.7281
  687MOL0     H90684   0.388  10.487  10.210  0.1892  1.6834 -0.7039
  688MOL0     O90685   5.550   0.011   1.396  0.4910  0.1943  0.6425
  688MOL0     C90686   5.591  -0.036   1.502 -0.3117  0.2210 -0.7439
  688MOL0     O90687   5.529  -0.045   1.620 -0.5892 -0.2419 -0.1459
  688MOL0     C90688   5.395  -0.036   1.619 -0.9578 -0.9586 -0.2976
  688MOL0     C90689   5.337   0.039   1.720  0.0891  0.1317 -0.5986
  688MOL0     C90690   5.204   0.065   1.708  0.5198 -0.9073  0.2935
  688MOL0     C90691   5.121   0.018   1.607  0.1804  0.5181  0.3506
  688MOL0     O90692   4.992   0.050   1.579  0.0007 -0.4718  0.6716
  688MOL0     C90693   4.932   0.158   1.643  0.7643 -0.5223  0.4910
  688MOL0     C90694   4.874   0.114   1.783  0.2799 -0.3691 -0.7381
  688MOL0     C90695   4.729   0.084   1.758  0.1377  0.7913  0.4903
  688MOL0     C90696   4.658   0.010   1.878 -0.3572  0.8035  0.1589
  688MOL0     C90697   4.495  -0.010   1.864 -0.4273 -0.0504  0.5288
  688MOL0     C90698   4.436  -0.054   1.998 -0.2749  0.5857 -0.6390
  688MOL0     C90699   4.295  -0.110   2.012 -0.9828  0.5444 -0.1881
  688MOL0     C90700   4.265  -0.235   1.924 -0.1310 -0.7439 -0.1083
  688MOL0     N90701   4.126  -0.270   1.915 -0.1641 -0.7342 -0.0569
  688MOL0     C90702   4.039  -0.218   1.826  0.8197  0.2822  0.2938
  688MOL0     C90703   3.920  -0.282   1.851  0.1038 -0.1562  0.3199
  688MOL0     C90704   3.783  -0.257   1.784 -0.3431 -0.0028  0.6093
  688MOL0     C90705   3.704  -0.384   1.761  0.2948  0.2462 -0.3602
  688MOL0     C90706   3.757  -0.450   1.627  0.0743 -0.0967 -0.5728
  688MOL0     C90707   3.661  -0.558   1.580 -0.3752  0.3123  1.3448
  688MOL0     O90708   3.533  -0.514   1.549  0.0670  0.0635 -0.1799
  688MOL0     C90709   3.445  -0.598   1.481  0.1664  0.4170  0.4787
  688MOL0     C90710   3.483  -0.728   1.436 -0.6213 -0.2400  0.4391
  688MOL0     C90711   3.389  -0.811   1.365 -0.2717  0.3042 -0.8542
  688MOL0     C90712   3.260  -0.753   1.327 -0.2677 -0.1209  0.0457
  688MOL0     C90713   3.160  -0.835   1.257 -0.3158 -0.2131 -0.1521
  688MOL0     O90714   3.061  -0.765   1.198  0.2463  0.3702  0.5206
  688MOL0     C90715   2.940  -0.819   1.162 -0.0409 -0.5410  0.0765
  688MOL0     C90716   2.852  -0.725   1.099  0.6226  0.0690 -0.5026
  688MOL0     C90717   2.717  -0.776   1.073  0.2455  0.4989  0.6142
  688MOL0     C90718   2.669  -0.897   1.110  0.3291 -0.5225 -0.4104
  688MOL0     O90719   2.535  -0.930   1.086 -0.3850  0.2440  0.1717
  688MOL0     C90720   2.511  -1.070   1.088 -0.3336  0.8596  0.7268
  688MOL0     C90721   2.377  -1.086   1.022  0.1692  0.5451 -0.2823
  688MOL0     C90722   2.351  -1.237   1.023  0.1425  0.4013 -0.4604
  688MOL0     C90723   2.197  -1.264   1.003  0.5224 -0.0401 -0.0025
  688MOL0     C90724   2.105  -1.236   1.123  0.9801 -0.5489 -0.0134
  688MOL0     C90725   1.953  -1.237   1.093 -0.6081 -0.3781  0.2723
  688MOL0     C90726   1.905  -1.384   1.071  0.4995 -0.6033 -0.5384
  688MOL0     C90727   1.748  -1.394   1.059  0.0171  0.4354 -0.2164
  688MOL0    Cl90728   1.654  -1.302   1.178  0.0292  0.0338 -0.0620
  688MOL0     C90729   2.753  -0.977   1.185  0.7218 -0.1230  0.4378
  688MOL0     C90730   2.881  -0.943   1.206  0.5475  0.1932 -0.2453
  688MOL0     O90731   3.181  -0.954   1.249  0.0730 -0.6468  0.0305
  688MOL0     C90732   3.233  -0.620   1.364 -0.9818  0.2265  0.4225
  688MOL0     C90733   3.327  -0.547   1.443 -0.5771 -0.1243 -1.2759
  688MOL0     N90734   3.940  -0.361   1.952  0.3046  0.4817  0.4886
  688MOL0     N90735   4.056  -0.357   1.991 -0.8154 -0.5111 -0.0750
  688MOL0     C90736   5.179  -0.077   1.527  0.3591  0.0232  0.5521
  688MOL0     C90737   5.311  -0.113   1.534  0.1142 -0.7134 -0.6320
  688MOL0     C90738   5.735  -0.071   1.504 -0.6727 -0.0695 -0.1274
  688MOL0     C90739   5.809  -0.052   1.623  0.3833 -0.1244 -0.7319
  688MOL0     C90740   5.948  -0.074   1.638  0.4102  0.3373  0.3765
  688MOL0     C90741   6.018  -0.106   1.518 -0.1651 -0.0381  0.3155
  688MOL0     O90742   6.152  -0.118   1.545  0.3469  0.1564 -0.0649
  688MOL0     C90743   6.229  -0.172   1.451  0.7261 -0.4049 -0.7099
  688MOL0     C90744   6.372  -0.183   1.487 -1.0947 -0.3449 -0.7504
  688MOL0     C90745   6.439  -0.045   1.530 -0.0226  0.5492 -0.8742
  688MOL0     C90746   6.488   0.030   1.403 -0.3791 -0.0261 -0.1137
  688MOL0     C90747   6.606   0.110   1.438 -0.2950 -0.7307 -0.0548
  688MOL0     C90748   6.697   0.184   1.469  0.0972  0.1146  0.2182
  688MOL0     C90749   5.950  -0.134   1.401  0.0384 -0.1373 -0.0990
  688MOL0     C90750   5.813  -0.108   1.392  0.9268 -0.2063 -0.7279
  688MOL0     H90751   5.397   0.085   1.797 -1.9875  0.5785  0.8427
  688MOL0     H90752   5.157   0.130   1.781  0.3903 -0.4838 -0.1581
  688MOL0     H90753   4.872   0.216   1.572  1.3235 -0.0638  0.3894
  688MOL0     H90754   5.011   0.232   1.661  0.9507 -0.5639 -0.1141
  688MOL0     H90755   4.886   0.199   1.851  1.5803 -0.7805 -0.4220
  688MOL0     H90756   4.921   0.025   1.824  1.3479 -0.0817 -1.3004
  688MOL0     H90757   4.719   0.017   1.673  2.8803 -0.9879  1.4430
  688MOL0     H90758   4.688   0.185   1.744  1.8940  1.4746 -0.1228
  688MOL0     H90759   4.700  -0.091   1.875  0.5253  1.1832 -1.6395
  688MOL0     H90760   4.695   0.060   1.968 -0.2931  0.5848  0.2556
  688MOL0     H90761   4.483  -0.091   1.792  0.7293 -0.2022  0.4848
  688MOL0     H90762   4.452   0.082   1.823  0.9062  0.7630  0.8603
  688MOL0     H90763   4.421   0.035   2.059 -0.1065 -0.2283  0.6177
  688MOL0     H90764   4.507  -0.120   2.048 -1.3940  0.3850  0.7356
  688MOL0     H90765   4.286  -0.122   2.120  0.7562  1.2317  0.0602
  688MOL0     H90766   4.224  -0.035   1.975 -0.1368  1.1956 -0.5319
  688MOL0     H90767   4.326  -0.317   1.964 -0.2305 -0.6466  0.2433
  688MOL0     H90768   4.297  -0.215   1.822 -1.6488  3.4996  0.0653
  688MOL0     H90769   4.059  -0.141   1.752  0.3954 -0.4542 -0.6172
  688MOL0     H90770   3.803  -0.205   1.689  0.7811 -3.2067 -1.0820
  688MOL0     H90771   3.734  -0.180   1.844 -4.0618 -0.0549 -1.9961
  688MOL0     H90772   3.599  -0.362   1.741 -0.0639 -1.1979 -0.1809
  688MOL0     H90773   3.710  -0.448   1.850  5.4443  3.0900  1.8059
  688MOL0     H90774   3.764  -0.374   1.548  2.2263  0.4637  0.0947
  688MOL0     H90775   3.861  -0.480   1.642  0.7662  1.1652 -2.4776
  688MOL0     H90776   3.665  -0.637   1.655  2.5432  0.3471  1.3656
  688MOL0     H90777   3.707  -0.587   1.485  0.4563  0.6904  1.6192
  688MOL0     H90778   3.581  -0.770   1.456  0.6661  0.2685 -3.7831
  688MOL0     H90779   3.427  -0.909   1.338 -0.5071  0.3854 -1.5033
  688MOL0     H90780   2.886  -0.625   1.075  0.0436  0.0651 -1.3952
  688MOL0     H90781   2.636  -0.720   1.026 -0.2707 -2.0776 -1.8554
  688MOL0     H90782   2.496  -1.109   1.190 -0.8345 -1.3971 -0.1604
  688MOL0     H90783   2.595  -1.124   1.043 -0.7048  0.3959  0.5949
  688MOL0     H90784   2.394  -1.059   0.918 -0.0421  1.7934 -0.0055
  688MOL0     H90785   2.296  -1.031   1.070 -1.5327 -1.8878 -0.1657
  688MOL0     H90786   2.391  -1.276   1.116 -0.1974  1.6555  0.2317
  688MOL0     H90787   2.412  -1.287   0.947 -0.4600 -2.2853  0.7128
  688MOL0     H90788   2.163  -1.216   0.910 -1.6255  3.0053  2.1512
  688MOL0     H90789   2.203  -1.373   0.995  1.7001 -0.0017  0.2047
  688MOL0     H90790   2.123  -1.136   1.164 -1.0709 -1.1331  2.5690
  688MOL0     H90791   2.138  -1.292   1.211  0.5053 -2.2463 -0.8683
  688MOL0     H90792   1.941  -1.177   1.002  1.4347 -1.4667 -0.8168
  688MOL0     H90793   1.898  -1.200   1.179  0.1141 -0.0432  0.5931
  688MOL0     H90794   1.944  -1.428   0.979  0.1244  0.3576 -1.1702
  688MOL0     H90795   1.939  -1.449   1.152  0.6747  0.4548  0.2623
  688MOL0     H90796   1.725  -1.500   1.068 -0.5114  0.4478 -1.3217
  688MOL0     H90797   1.708  -1.361   0.963 -2.5609  0.6064  0.8422
  688MOL0     H90798   2.715  -1.075   1.215 -1.6071  0.3111 -0.7850
  688MOL0     H90799   2.938  -1.017   1.262 -1.4046 -0.0240  1.5867
  688MOL0     H90800   3.137  -0.578   1.333  0.1523  1.0327 -2.2313
  688MOL0     H90801   3.310  -0.447   1.480 -1.2815 -1.2850  1.8664
  688MOL0     H90802   5.118  -0.133   1.457  2.2985 -1.1256 -0.2920
  688MOL0     H90803   5.361  -0.177   1.462  0.4965  1.5181 -2.4473
  688MOL0     H90804   5.761  -0.006   1.709  3.3674  2.9903 -0.5155
  688MOL0     H90805   6.007  -0.047   1.725 -1.7373  1.1919  1.6319
  688MOL0     H90806   6.227  -0.110   1.361  5.0857  1.3127  0.0987
  688MOL0     H90807   6.192  -0.269   1.418 -1.2697  0.2621 -0.5587
  688MOL0     H90808   6.382  -0.260   1.564  4.7758  0.3859 -0.3441
  688MOL0     H90809   6.431  -0.224   1.404  0.0456 -0.3001  0.0181
  688MOL0     H90810   6.526  -0.077   1.588 -0.4083  0.3416 -0.4027
  688MOL0     H90811   6.372   0.026   1.580  1.5911  1.9934 -0.6534
  688MOL0     H90812   6.513  -0.037   1.320 -3.0029  1.1398 -1.9905
  688MOL0     H90813   6.409   0.096   1.367  0.6602 -0.0277 -2.6441
  688MOL0     H90814   6.780   0.251   1.483 -2.1427  2.6396  2.9155
  688MOL0     H90815   6.010  -0.167   1.317 -1.6013  0.0294 -1.3966
  688MOL0     H90816   5.756  -0.135   1.303  0.8882  2.0239 -1.4447
  689MOL0     O90817   7.594   4.179   3.076 -0.1150 -0.2954  0.2118
  689MOL0     C90818   7.698   4.131   3.116 -0.1129  0.1013 -0.0526
  689MOL0     O90819   7.713   4.010   3.172  0.1641  0.1693  0.0172
  689MOL0     C90820   7.602   3.932   3.200  0.4638  0.1938  0.0388
  689MOL0     C90821   7.493   3.982   3.275  0.1645 -0.2660 -0.4097
  689MOL0     C90822   7.399   3.886   3.325 -1.3144 -0.8774 -0.6296
  689MOL0     C90823   7.394   3.755   3.290 -0.1838 -0.2943 -0.1696
  689MOL0     O90824   7.274   3.685   3.326 -0.9135 -0.3865 -0.4301
  689MOL0     C90825   7.248   3.568   3.241 -0.5052 -0.2290  0.3959
  689MOL0     C90826   7.097   3.537   3.266 -1.2012  0.2282  0.8154
  689MOL0     C90827   7.005   3.651   3.232  0.3942 -0.2622  0.5287
  689MOL0     C90828   6.861   3.608   3.222 -0.8042  0.6423  0.6063
  689MOL0     C90829   6.772   3.732   3.199  0.1358  0.0522  0.2306
  689MOL0     C90830   6.623   3.680   3.221 -0.7874 -0.6202  0.1505
  689MOL0     C90831   6.523   3.786   3.178  0.1497 -0.2314 -0.5303
  689MOL0     C90832   6.525   3.917   3.268 -0.7330  0.2918  0.1187
  689MOL0     N90833   6.422   4.014   3.214  0.3754 -0.4525  0.0529
  689MOL0     C90834   6.290   4.013   3.252  0.2421  0.7520  0.0498
  689MOL0     C90835   6.242   4.130   3.201 -0.6326  0.1333 -0.8844
  689MOL0     C90836   6.106   4.189   3.218 -0.8870  0.0908 -0.3596
  689MOL0     C90837   6.014   4.132   3.113 -0.4789 -0.3644  0.7633
  689MOL0     C90838   5.881   4.203   3.121  0.6541  0.3176  0.3908
  689MOL0     C90839   5.793   4.194   2.994  0.4115  0.1519  0.2385
  689MOL0     O90840   5.687   4.298   3.005  0.0928  0.5349  0.0563
  689MOL0     C90841   5.613   4.298   2.892  0.5451 -0.9025 -0.6225
  689MOL0     C90842   5.527   4.404   2.881  0.4860  0.0346  0.0123
  689MOL0     C90843   5.440   4.410   2.766  0.8291  1.0374  0.0339
  689MOL0     C90844   5.444   4.319   2.663 -0.4839 -0.3072  0.0499
  689MOL0     C90845   5.368   4.345   2.538 -0.7936 -0.4774 -0.1956
  689MOL0     O90846   5.266   4.436   2.544  0.1651 -0.0597 -0.1970
  689MOL0     C90847   5.171   4.448   2.447  0.1490  0.4533  0.4386
  689MOL0     C90848   5.151   4.576   2.390  0.8044  0.3605  0.5604
  689MOL0     C90849   5.061   4.591   2.285  0.4214  0.9287  0.7960
  689MOL0     C90850   4.986   4.486   2.242  1.0242  0.8194  0.2611
  689MOL0     O90851   4.904   4.522   2.136  0.0473 -0.0293  0.3950
  689MOL0     C90852   4.785   4.443   2.092  0.3921 -0.1021  0.2841
  689MOL0     C90853   4.724   4.521   1.980 -0.6936  0.0770 -0.4014
  689MOL0     C90854   4.618   4.439   1.901  0.3318 -0.5608 -0.1282
  689MOL0     C90855   4.559   4.545   1.812  0.2188 -0.0393 -0.5528
  689MOL0     C90856   4.407   4.522   1.812 -1.4297  0.2758 -0.5944
  689MOL0     C90857   4.324   4.592   1.708  0.4050  0.4062 -0.3031
  689MOL0     C90858   4.171   4.553   1.733 -0.4146 -0.3925 -0.5696
  689MOL0     C90859   4.078   4.606   1.627 -1.2242 -0.0083  0.5448
  689MOL0    Cl90860   3.909   4.602   1.689  0.2940 -0.0002 -0.3051
  689MOL0     C90861   4.994   4.364   2.306 -0.5256  1.0947  0.3552
  689MOL0     C90862   5.087   4.343   2.411  0.4660  0.3551  1.0550
  689MOL0     O90863   5.402   4.290   2.430 -0.4720 -0.3625 -0.1813
  689MOL0     C90864   5.548   4.221   2.670  0.7638  1.2369 -0.4006
  689MOL0     C90865   5.618   4.204   2.782  0.5588  0.1384  0.1441
  689MOL0     N90866   6.337   4.193   3.129  0.6256 -0.5184 -0.0554
  689MOL0     N90867   6.447   4.129   3.141  0.1079  0.0011 -0.1273
  689MOL0     C90868   7.506   3.711   3.218 -0.1400 -0.5849  1.0516
  689MOL0     C90869   7.614   3.795   3.177 -0.0412 -0.6296  0.8661
  689MOL0     C90870   7.820   4.205   3.082 -0.1795 -0.1198 -1.1203
  689MOL0     C90871   7.818   4.323   3.006 -0.2622  0.7884  0.3677
  689MOL0     C90872   7.934   4.389   2.961 -0.3875  0.7109 -0.3370
  689MOL0     C90873   8.052   4.349   3.017 -1.0914  0.1163 -0.6940
  689MOL0     O90874   8.166   4.424   2.989  0.4535  0.6349  1.0161
  689MOL0     C90875   8.293   4.364   3.008 -1.1835  0.1826  0.4509
  689MOL0     C90876   8.313   4.255   2.898 -0.0709  0.0802 -1.3914
  689MOL0     C90877   8.395   4.306   2.782 -0.2931 -0.4933 -0.0783
  689MOL0     C90878   8.542   4.329   2.819 -0.3588  0.6157 -0.2967
  689MOL0     C90879   8.616   4.206   2.815 -0.5552  0.8597  0.1201
  689MOL0     C90880   8.702   4.121   2.814 -0.2628  0.5529  1.0202
  689MOL0     C90881   8.062   4.235   3.097  1.0801  0.0486 -0.3442
  689MOL0     C90882   7.945   4.153   3.112  0.1198  0.0709  0.8151
  689MOL0     H90883   7.482   4.084   3.310 -1.2123 -0.5217 -0.0125
  689MOL0     H90884   7.315   3.930   3.376 -2.2113  2.7815 -4.6686
  689MOL0     H90885   7.304   3.479   3.271  0.0932  0.4259  1.2804
  689MOL0     H90886   7.270   3.585   3.135 -0.3887 -1.0642  0.2757
  689MOL0     H90887   7.090   3.515   3.373  1.3262  2.1623  1.4909
  689MOL0     H90888   7.075   3.449   3.205  1.6117  0.0386 -0.0860
  689MOL0     H90889   7.039   3.694   3.137  1.2593  0.6017  1.2169
  689MOL0     H90890   7.024   3.735   3.299 -0.3414 -0.0817  0.5204
  689MOL0     H90891   6.863   3.541   3.135  1.9886  1.3329  0.0297
  689MOL0     H90892   6.824   3.550   3.307 -1.5945 -0.6064 -0.5247
  689MOL0     H90893   6.790   3.780   3.102  4.6182  0.7649  1.1603
  689MOL0     H90894   6.805   3.809   3.269 -0.6359  1.8572 -1.2880
  689MOL0     H90895   6.597   3.648   3.323  0.9784 -1.4693  0.3604
  689MOL0     H90896   6.614   3.600   3.147  1.7508 -0.0493 -0.8680
  689MOL0     H90897   6.574   3.815   3.085  2.1009  0.6751  0.7574
  689MOL0     H90898   6.428   3.749   3.140  0.7244  0.8420 -3.2219
  689MOL0     H90899   6.629   3.949   3.266 -0.7935  0.4938  0.1716
  689MOL0     H90900   6.485   3.890   3.367 -0.5174 -0.1874  0.0745
  689MOL0     H90901   6.240   3.934   3.307 -0.1268  0.9949  0.0717
  689MOL0     H90902   6.102   4.298   3.209 -2.2299 -0.0856 -3.1973
  689MOL0     H90903   6.061   4.167   3.315 -2.6946  2.2866 -0.6019
  689MOL0     H90904   6.005   4.024   3.128  2.0464 -0.4145  2.8184
  689MOL0     H90905   6.058   4.146   3.014 -2.2316 -2.1565 -0.3320
  689MOL0     H90906   5.821   4.158   3.200 -0.3998 -1.6581 -1.4240
  689MOL0     H90907   5.901   4.310   3.132  0.8818  0.4804 -1.3236
  689MOL0     H90908   5.737   4.101   2.991 -0.7337  0.8331 -2.3853
  689MOL0     H90909   5.854   4.207   2.904  1.0076 -2.3268  0.2317
  689MOL0     H90910   5.539   4.477   2.960 -0.8008 -0.9235  1.1352
  689MOL0     H90911   5.369   4.491   2.749  1.2315  0.9977 -2.1331
  689MOL0     H90912   5.208   4.656   2.435  0.4920  0.7108  0.3328
  689MOL0     H90913   5.031   4.688   2.245  1.8943  1.0695 -0.0092
  689MOL0     H90914   4.710   4.440   2.171  0.0332 -2.0411 -0.0731
  689MOL0     H90915   4.804   4.343   2.053 -0.0506 -1.0815  2.4236
  689MOL0     H90916   4.806   4.530   1.908 -0.4759  0.9658 -0.0505
  689MOL0     H90917   4.690   4.619   2.014 -0.5546  0.3270 -0.9678
  689MOL0     H90918   4.538   4.400   1.966  0.5208 -1.1337 -0.2352
  689MOL0     H90919   4.670   4.366   1.839  0.6282 -0.1588 -0.3593
  689MOL0     H90920   4.569   4.648   1.848 -1.0900 -0.9189  2.6644
  689MOL0     H90921   4.598   4.533   1.710  0.9591  0.7119 -0.3689
  689MOL0     H90922   4.382   4.559   1.912 -1.4714 -4.0678  1.2428
  689MOL0     H90923   4.394   4.413   1.805 -1.3326  0.1703  0.6090
  689MOL0     H90924   4.353   4.567   1.605 -0.6040  0.0714 -0.5168
  689MOL0     H90925   4.348   4.699   1.715  0.5967  0.3759 -0.4908
  689MOL0     H90926   4.146   4.448   1.751 -1.2108 -0.0143  0.7221
  689MOL0     H90927   4.149   4.605   1.827  0.4320  0.9224 -1.0809
  689MOL0     H90928   4.093   4.554   1.532 -1.6070  1.5583 -0.4179
  689MOL0     H90929   4.102   4.710   1.602  1.1704 -0.8531 -1.1218
  689MOL0     H90930   4.946   4.273   2.272  1.0503  0.3125  0.1317
  689MOL0     H90931   5.092   4.249   2.465 -0.0644  0.0963  0.6627
  689MOL0     H90932   5.578   4.159   2.586  2.2872 -3.3656  3.1174
  689MOL0     H90933   5.701   4.134   2.773 -0.3105 -1.1139  1.3849
  689MOL0     H90934   7.513   3.611   3.176 -0.5826 -0.4116  0.5559
  689MOL0     H90935   7.689   3.752   3.111 -0.6005  0.4535 -0.5190
  689MOL0     H90936   7.721   4.366   2.983 -0.2739  0.3202 -0.4895
  689MOL0     H90937   7.940   4.477   2.898  0.4733  1.6852  1.0492
  689MOL0     H90938   8.289   4.322   3.110 -0.7511  0.8218  0.7370
  689MOL0     H90939   8.372   4.439   3.004 -0.7882 -0.2359  0.3259
  689MOL0     H90940   8.374   4.184   2.954 -0.4719  1.9598  1.6625
  689MOL0     H90941   8.221   4.209   2.860 -0.9746  1.7397 -1.3063
  689MOL0     H90942   8.357   4.405   2.755  3.4124  1.7603  2.0425
  689MOL0     H90943   8.380   4.240   2.697 -2.1195  0.8695 -0.8799
  689MOL0     H90944   8.585   4.389   2.738  1.0140  3.5699  2.3860
  689MOL0     H90945   8.555   4.379   2.916 -2.8482 -0.8339  0.9079
  689MOL0     H90946   8.774   4.042   2.821  0.5176  0.8170 -2.3952
  689MOL0     H90947   8.154   4.200   3.143  1.7163  2.0823  0.0303
  689MOL0     H90948   7.948   4.055   3.159 -2.2130 -0.8176 -0.6812
  690MOL0     O90949   0.502   1.428   0.667 -0.3554 -0.2252  0.3072
  690MOL0     C90950   0.535   1.545   0.653 -0.5868 -0.0563  0.4369
  690MOL0     O90951   0.460   1.645   0.608  0.4407  0.1545 -0.0181
  690MOL0     C90952   0.322   1.646   0.604  0.7547  0.6642  0.0833
  690MOL0     C90953   0.257   1.734   0.520 -0.2073  0.1572  0.3601
  690MOL0     C90954   0.112   1.737   0.517 -0.7761  0.8872 -0.1365
  690MOL0     C90955   0.034   1.649   0.601 -0.4782  0.8212  0.9190
  690MOL0     O90956  -0.103   1.635   0.606  0.7457 -0.5838 -0.4062
  690MOL0     C90957  -0.184   1.695   0.504  0.2516 -0.1334 -0.4740
  690MOL0     C90958  -0.328   1.667   0.523  0.4642 -0.3793  0.4983
  690MOL0     C90959  -0.426   1.729   0.406  0.0910  0.0902 -0.7409
  690MOL0     C90960  -0.432   1.880   0.409 -0.2338  0.0004  0.6170
  690MOL0     C90961  -0.564   1.939   0.355  0.5929 -0.1743 -1.2722
  690MOL0     C90962  -0.602   1.894   0.212  0.2057 -0.5670 -0.0114
  690MOL0     C90963  -0.722   1.982   0.177  0.2270  0.7973  0.2602
  690MOL0     C90964  -0.785   1.915   0.057  0.2837 -0.6889  0.7371
  690MOL0     N90965  -0.922   1.977   0.034 -0.4253  0.0936 -0.6019
  690MOL0     C90966  -1.041   1.948   0.092 -0.6712  0.1531 -0.9886
  690MOL0     C90967  -1.129   2.038   0.046 -0.8517  0.0042  0.1358
  690MOL0     C90968  -1.277   2.053   0.050 -0.2361 -0.0238 -0.3362
  690MOL0     C90969  -1.322   2.108   0.186  0.5334 -1.0908 -0.3378
  690MOL0     C90970  -1.383   1.998   0.270 -1.1281  0.6647  0.8785
  690MOL0     C90971  -1.278   1.902   0.336  0.3709 -0.3059  1.3783
  690MOL0     O90972  -1.180   1.980   0.393 -0.0486 -0.1983 -0.1316
  690MOL0     C90973  -1.087   1.917   0.475 -0.0382  0.5859 -0.3483
  690MOL0     C90974  -0.977   1.993   0.523 -0.0212 -0.8946 -0.3094
  690MOL0     C90975  -0.884   1.942   0.616  0.0816 -0.9143 -0.9065
  690MOL0     C90976  -0.897   1.814   0.672  0.1429  0.1741  0.6351
  690MOL0     C90977  -0.794   1.756   0.756  1.2368  0.5295  0.3271
  690MOL0     O90978  -0.804   1.618   0.778 -0.1197 -0.2559 -0.0208
  690MOL0     C90979  -0.689   1.551   0.819  0.8764  0.2952 -0.5099
  690MOL0     C90980  -0.667   1.535   0.956  0.2602  0.0987 -0.4560
  690MOL0     C90981  -0.560   1.462   1.004  0.3388  0.7428  0.3610
  690MOL0     C90982  -0.464   1.413   0.914  0.6938  0.2613 -0.6591
  690MOL0     O90983  -0.349   1.347   0.964  0.3541  0.6053  0.5751
  690MOL0     C90984  -0.336   1.327   1.097  0.6634 -0.8684 -1.0448
  690MOL0     C90985  -0.218   1.242   1.147 -0.9009  0.8694 -0.2627
  690MOL0     C90986  -0.086   1.287   1.090  1.0515 -0.1907  0.3203
  690MOL0     C90987   0.028   1.230   1.179 -0.2926  0.1562  0.3774
  690MOL0     C90988   0.161   1.288   1.121 -0.7940 -0.1968 -0.8483
  690MOL0     C90989   0.276   1.235   1.206  0.0130 -0.8284  0.5402
  690MOL0     C90990   0.405   1.282   1.132 -0.4765 -0.7259 -0.2090
  690MOL0     C90991   0.531   1.244   1.212  0.4133 -0.9539  0.2879
  690MOL0    Cl90992   0.680   1.295   1.127  0.1286 -0.4588 -0.2332
  690MOL0     C90993  -0.475   1.445   0.774  0.4270  0.4736  0.6362
  690MOL0     C90994  -0.593   1.506   0.734 -0.7864  0.8023 -0.0819
  690MOL0     O90995  -0.703   1.826   0.798 -0.7356  0.2761  0.4607
  690MOL0     C90996  -1.008   1.734   0.629  0.0140 -0.4923  0.2061
  690MOL0     C90997  -1.100   1.787   0.523 -0.0595 -0.5420 -0.2615
  690MOL0     N90998  -1.058   2.103  -0.053 -0.2567  0.4311  0.1766
  690MOL0     N90999  -0.934   2.073  -0.056  0.6920 -0.6009 -0.1879
  690MOL0     C91000   0.104   1.573   0.682  0.3909 -0.6713 -0.5453
  690MOL0     C91001   0.244   1.569   0.690 -0.0576  1.3474 -0.2963
  690MOL0     C91002   0.673   1.580   0.684  0.3068  0.1807  0.0340
  690MOL0     C91003   0.731   1.700   0.650  0.1025 -0.9383 -0.9915
  690MOL0     C91004   0.870   1.716   0.685  1.3037  0.0397  0.3593
  690MOL0     C91005   0.947   1.625   0.755  0.7281  0.0360 -0.8820
  690MOL0     O91006   1.078   1.661   0.777 -0.4614 -0.6150 -0.4974
  690MOL0     C91007   1.161   1.587   0.866 -0.5369  0.1070 -0.0320
  690MOL0     C91008   1.246   1.493   0.780 -0.2546  0.0659  0.3051
  690MOL0     C91009   1.319   1.382   0.867  0.1427 -0.0691  0.0721
  690MOL0     C91010   1.433   1.448   0.939  0.0772 -0.1566  0.2241
  690MOL0     C91011   1.529   1.520   0.853  0.2260  0.6045 -0.4811
  690MOL0     C91012   1.609   1.582   0.792  0.3168 -0.4853 -0.1441
  690MOL0     C91013   0.890   1.502   0.789  0.7132  0.9625  0.0263
  690MOL0     C91014   0.754   1.483   0.747 -0.3799 -0.3020  0.1557
  690MOL0     H91015   0.313   1.807   0.463 -0.2335  1.1105  1.5156
  690MOL0     H91016   0.058   1.807   0.455 -0.0981 -0.5127 -2.4030
  690MOL0     H91017  -0.162   1.650   0.407 -2.6922  1.9376 -2.2775
  690MOL0     H91018  -0.162   1.802   0.508  3.6270 -0.7480 -0.3225
  690MOL0     H91019  -0.366   1.700   0.620 -2.4508 -0.6419 -0.4556
  690MOL0     H91020  -0.350   1.561   0.531  1.2915 -0.7380 -1.3593
  690MOL0     H91021  -0.529   1.701   0.429  0.2546  0.2126  0.1816
  690MOL0     H91022  -0.395   1.690   0.308 -1.6397  0.7009 -1.5776
  690MOL0     H91023  -0.437   1.904   0.516  0.3614  1.0091  0.4289
  690MOL0     H91024  -0.342   1.921   0.363  0.9888  0.2813  3.0809
  690MOL0     H91025  -0.559   2.048   0.367 -0.2659  0.1921 -3.6561
  690MOL0     H91026  -0.644   1.914   0.425 -0.2329  1.0758 -1.7280
  690MOL0     H91027  -0.634   1.790   0.209 -0.6307 -0.4461  2.4180
  690MOL0     H91028  -0.509   1.885   0.155  0.5450  0.9258  0.2750
  690MOL0     H91029  -0.787   1.988   0.264 -0.7001 -3.0380  0.0182
  690MOL0     H91030  -0.685   2.083   0.156 -0.5371  0.9778 -0.2635
  690MOL0     H91031  -0.793   1.807   0.073  2.3001 -0.8680  0.7188
  690MOL0     H91032  -0.729   1.931  -0.035  4.0441  0.7586  3.0256
  690MOL0     H91033  -1.062   1.864   0.157 -0.8386  0.7378 -0.2848
  690MOL0     H91034  -1.321   1.955   0.025  1.7011 -0.6000 -1.7163
  690MOL0     H91035  -1.308   2.121  -0.030  1.4544  0.2028 -0.8224
  690MOL0     H91036  -1.396   2.185   0.162  1.9303  0.1444 -0.8595
  690MOL0     H91037  -1.236   2.158   0.231  0.3539 -0.4203 -0.7279
  690MOL0     H91038  -1.444   2.035   0.352 -1.6744  0.4250  0.5874
  690MOL0     H91039  -1.454   1.938   0.213  1.7590 -1.5367 -0.7195
  690MOL0     H91040  -1.241   1.831   0.262 -1.1558 -0.7870  1.0462
  690MOL0     H91041  -1.333   1.854   0.417 -0.9034 -1.7235 -0.2701
  690MOL0     H91042  -0.967   2.096   0.492 -1.2252 -0.1455  1.5953
  690MOL0     H91043  -0.796   2.001   0.638 -0.3881 -0.1871 -0.9408
  690MOL0     H91044  -0.736   1.576   1.029 -0.7499 -1.8115 -0.2815
  690MOL0     H91045  -0.551   1.452   1.111 -1.6339 -3.3526  0.3352
  690MOL0     H91046  -0.426   1.277   1.136 -0.8874  1.1829 -1.7880
  690MOL0     H91047  -0.339   1.422   1.151 -2.3524 -1.1922 -0.4543
  690MOL0     H91048  -0.218   1.133   1.136 -2.4530  0.8375 -0.0612
  690MOL0     H91049  -0.213   1.256   1.255 -1.0365  0.1488 -0.1572
  690MOL0     H91050  -0.092   1.396   1.091  0.2777 -0.2093 -0.6978
  690MOL0     H91051  -0.064   1.251   0.989  1.9597  2.3296 -0.4514
  690MOL0     H91052   0.007   1.270   1.278 -1.7422 -2.6910  1.3147
  690MOL0     H91053   0.025   1.122   1.188 -1.6985  0.0765 -0.6997
  690MOL0     H91054   0.160   1.396   1.135  3.0565 -0.0832 -0.4140
  690MOL0     H91055   0.174   1.262   1.015 -1.3788  0.2122 -1.0249
  690MOL0     H91056   0.266   1.127   1.201 -1.5703 -0.7261  0.9640
  690MOL0     H91057   0.279   1.272   1.309 -0.6188 -0.8380  0.5694
  690MOL0     H91058   0.405   1.226   1.038  1.0900  0.0153 -0.6834
  690MOL0     H91059   0.406   1.387   1.102  1.3442 -1.8719 -4.9588
  690MOL0     H91060   0.535   1.140   1.246 -0.6160 -0.2428  2.8260
  690MOL0     H91061   0.535   1.305   1.303 -2.2426  0.7963 -0.6661
  690MOL0     H91062  -0.392   1.418   0.709 -1.2221  1.2443 -1.9192
  690MOL0     H91063  -0.606   1.535   0.630 -0.9611 -0.1133 -0.3259
  690MOL0     H91064  -1.023   1.643   0.686  0.5412  2.1257  4.9922
  690MOL0     H91065  -1.187   1.732   0.488  0.2880 -1.3164  0.0676
  690MOL0     H91066   0.048   1.510   0.750 -4.0228  0.4239 -2.7900
  690MOL0     H91067   0.296   1.511   0.765  0.0857  1.6204 -0.1828
  690MOL0     H91068   0.675   1.785   0.611  2.0569  0.2604 -1.2850
  690MOL0     H91069   0.917   1.809   0.656  2.8844 -0.5686  0.8724
  690MOL0     H91070   1.115   1.527   0.946  3.2510 -4.6302 -0.8811
  690MOL0     H91071   1.226   1.657   0.918  0.8330  0.6048 -2.2893
  690MOL0     H91072   1.170   1.433   0.729 -1.1198  0.4199  1.1396
  690MOL0     H91073   1.307   1.540   0.702 -1.0573  1.4213  0.4644
  690MOL0     H91074   1.353   1.306   0.796 -0.2582  0.5813 -0.8352
  690MOL0     H91075   1.254   1.334   0.941 -0.4503 -1.8509 -1.5320
  690MOL0     H91076   1.390   1.515   1.013 -0.7916 -0.9212  0.4306
  690MOL0     H91077   1.481   1.360   0.983  0.5784 -0.8087 -1.5587
  690MOL0     H91078   1.687   1.639   0.745  1.8535 -1.8178  0.6819
  690MOL0     H91079   0.946   1.428   0.846  0.2311  0.5153 -0.0784
  690MOL0     H91080   0.703   1.388   0.756 -0.3521 -0.2836  0.5073
  691MOL0     O91081   5.655   0.137   2.061  0.4514  1.0746 -0.2173
  691MOL0     C91082   5.681   0.249   2.018  0.3260  0.1805  0.4224
  691MOL0     O91083   5.608   0.367   2.035  0.8950  0.5834  0.6104
  691MOL0     C91084   5.478   0.357   2.052  0.0613 -0.5757  0.4151
  691MOL0     C91085   5.398   0.388   1.945 -0.5320  0.8435 -0.7086
  691MOL0     C91086   5.262   0.356   1.951 -0.7028 -0.0085  0.3549
  691MOL0     C91087   5.202   0.292   2.059  0.1662 -0.2513  1.0835
  691MOL0     O91088   5.070   0.255   2.046 -0.6223 -0.4239 -0.6105
  691MOL0     C91089   4.993   0.223   2.158  0.0796  0.0871  0.9156
  691MOL0     C91090   4.971   0.355   2.234  0.5143  0.2482  0.0115
  691MOL0     C91091   4.897   0.452   2.146 -1.0583  0.0764 -0.7140
  691MOL0     C91092   4.840   0.571   2.234  0.5365  0.2106  0.2845
  691MOL0     C91093   4.788   0.680   2.135  0.1634 -0.8993 -0.1573
  691MOL0     C91094   4.736   0.809   2.204  0.0230 -0.0305 -0.4375
  691MOL0     C91095   4.632   0.801   2.311 -1.1609 -0.5948  0.3009
  691MOL0     C91096   4.512   0.732   2.267 -0.6415 -0.0008  0.2656
  691MOL0     N91097   4.405   0.735   2.361  0.6034  0.9174 -0.3976
  691MOL0     C91098   4.276   0.698   2.335 -0.5993  0.0093  0.0726
  691MOL0     C91099   4.213   0.712   2.452 -1.2337 -0.0861  0.3454
  691MOL0     C91100   4.071   0.681   2.479 -0.0578  0.3170 -0.2528
  691MOL0     C91101   4.000   0.781   2.572 -0.0245 -0.3729 -0.7968
  691MOL0     C91102   3.852   0.737   2.600 -0.4540  0.0927 -0.4766
  691MOL0     C91103   3.812   0.816   2.725  0.4829  0.4788  0.2843
  691MOL0     O91104   3.670   0.839   2.708  0.0480  0.0740 -0.4546
  691MOL0     C91105   3.605   0.918   2.796 -0.2257 -0.0700 -0.6421
  691MOL0     C91106   3.663   0.999   2.901 -0.0515 -0.6158 -0.7729
  691MOL0     C91107   3.574   1.076   2.986  0.4635 -0.0258  0.7490
  691MOL0     C91108   3.443   1.087   2.950  0.5478 -0.6578 -0.6300
  691MOL0     C91109   3.358   1.191   3.025  0.2374  0.1314  0.5769
  691MOL0     O91110   3.226   1.164   3.023  0.7114  0.3218 -0.0626
  691MOL0     C91111   3.143   1.247   3.089 -0.8724 -0.1753 -0.6304
  691MOL0     C91112   3.038   1.190   3.161  0.0048  0.6325  0.1818
  691MOL0     C91113   2.951   1.269   3.234  0.3228  0.0007 -0.8856
  691MOL0     C91114   2.966   1.404   3.247  0.6142 -0.7989  0.3435
  691MOL0     O91115   2.869   1.474   3.310  0.4111 -0.3397  0.3417
  691MOL0     C91116   2.788   1.570   3.226  0.1199 -0.8184 -0.0402
  691MOL0     C91117   2.706   1.496   3.122 -0.4723 -0.3588 -0.6555
  691MOL0     C91118   2.620   1.395   3.192 -0.0182 -0.2949  0.3620
  691MOL0     C91119   2.521   1.337   3.093  0.6201  0.5704  0.1474
  691MOL0     C91120   2.457   1.212   3.147 -0.8609  1.0631 -0.1191
  691MOL0     C91121   2.327   1.164   3.073 -0.1775 -0.4249  0.1791
  691MOL0     C91122   2.352   1.128   2.930  0.1282  0.3030 -0.4077
  691MOL0     C91123   2.226   1.159   2.849  0.0345  0.2010  0.5450
  691MOL0    Cl91124   2.077   1.104   2.913 -0.3436 -0.3990 -0.1385
  691MOL0     C91125   3.080   1.462   3.176  0.5721  0.2398  0.6019
  691MOL0     C91126   3.159   1.379   3.096 -0.2425 -0.6307 -0.8213
  691MOL0     O91127   3.423   1.282   3.087  0.7841 -0.3232  0.9013
  691MOL0     C91128   3.387   0.998   2.856 -0.6124 -0.2449  0.2754
  691MOL0     C91129   3.467   0.910   2.782  0.2731 -0.1388 -0.0691
  691MOL0     N91130   4.300   0.774   2.538  0.4259 -0.8024 -0.0320
  691MOL0     N91131   4.418   0.786   2.483  0.1263  0.1871  0.2393
  691MOL0     C91132   5.294   0.270   2.169  0.2977  0.1049  0.5367
  691MOL0     C91133   5.430   0.296   2.162 -0.7727 -0.2862  0.1628
  691MOL0     C91134   5.820   0.267   1.956  0.2412 -0.1193  0.6466
  691MOL0     C91135   5.914   0.159   1.952  0.5590 -0.5050  0.5021
  691MOL0     C91136   6.031   0.174   1.881  0.5188  0.8896  0.6100
  691MOL0     C91137   6.056   0.288   1.804  0.5727  0.6265 -0.4875
  691MOL0     O91138   6.167   0.331   1.737  0.6939 -0.2489  0.0010
  691MOL0     C91139   6.283   0.260   1.764 -0.2757 -0.5575  0.3262
  691MOL0     C91140   6.403   0.310   1.684  0.4214  0.4591 -0.0568
  691MOL0     C91141   6.412   0.464   1.686  0.1529 -0.6761 -0.4034
  691MOL0     C91142   6.525   0.494   1.596 -0.0136 -0.0109  0.5911
  691MOL0     C91143   6.667   0.474   1.648  0.6460 -0.5790  0.2977
  691MOL0     C91144   6.767   0.436   1.706 -0.1015 -0.2984  0.4886
  691MOL0     C91145   5.956   0.389   1.806 -0.2820 -0.0541 -0.7731
  691MOL0     C91146   5.843   0.380   1.880  0.1832  0.0332 -0.1481
  691MOL0     H91147   5.437   0.426   1.851  1.9282 -0.5271 -0.3347
  691MOL0     H91148   5.199   0.377   1.864 -0.7674  1.4145  0.7346
  691MOL0     H91149   5.056   0.152   2.212 -1.2621 -3.2944 -1.6014
  691MOL0     H91150   4.904   0.171   2.121  0.3388  0.3245 -0.0808
  691MOL0     H91151   5.066   0.398   2.265  0.5541 -0.8107  1.4424
  691MOL0     H91152   4.905   0.346   2.321 -1.1614 -1.2451 -1.3083
  691MOL0     H91153   4.821   0.384   2.106  0.3242 -1.6572 -0.4898
  691MOL0     H91154   4.974   0.484   2.075 -0.8205  0.0737 -0.4599
  691MOL0     H91155   4.756   0.544   2.299  0.2535 -1.2164 -0.6303
  691MOL0     H91156   4.930   0.605   2.287 -0.1681  0.9666  1.0141
  691MOL0     H91157   4.706   0.639   2.076  1.1892 -1.1491 -1.4311
  691MOL0     H91158   4.873   0.704   2.070  2.4506 -1.1785  2.5128
  691MOL0     H91159   4.701   0.882   2.131 -4.7262  0.9852  2.4605
  691MOL0     H91160   4.817   0.863   2.255 -0.5564  0.9160 -0.5168
  691MOL0     H91161   4.687   0.761   2.396  1.7657 -0.8098 -1.5831
  691MOL0     H91162   4.609   0.902   2.347 -1.4676 -0.5050 -0.1343
  691MOL0     H91163   4.530   0.625   2.255 -2.6535 -0.5236  1.3463
  691MOL0     H91164   4.473   0.778   2.176 -3.3810 -1.0160  0.8198
  691MOL0     H91165   4.226   0.668   2.243  0.6086  2.8557 -1.6350
  691MOL0     H91166   4.068   0.587   2.535 -2.6181  0.3557 -0.2178
  691MOL0     H91167   4.006   0.657   2.394 -0.2504 -1.0095  0.2405
  691MOL0     H91168   3.999   0.878   2.521  0.4796 -0.3171 -0.6999
  691MOL0     H91169   4.067   0.773   2.658  1.0146  0.2514 -1.5232
  691MOL0     H91170   3.791   0.738   2.509  1.2376  0.0818 -1.6621
  691MOL0     H91171   3.849   0.632   2.628  1.9424  1.1444  4.8350
  691MOL0     H91172   3.864   0.911   2.740  0.9405 -0.0175  2.1080
  691MOL0     H91173   3.825   0.747   2.809 -2.4358  1.0794  1.3537
  691MOL0     H91174   3.770   1.010   2.918  0.2693  1.8084 -3.6493
  691MOL0     H91175   3.609   1.150   3.058  0.5455  0.7244 -0.0514
  691MOL0     H91176   3.006   1.087   3.152 -1.0978  1.0022 -0.1865
  691MOL0     H91177   2.875   1.216   3.291  0.4850 -1.0135 -1.5931
  691MOL0     H91178   2.848   1.650   3.181 -0.6120  0.8546  1.8122
  691MOL0     H91179   2.714   1.615   3.292  1.1947 -0.5466  1.0239
  691MOL0     H91180   2.766   1.445   3.047  3.3058  1.4616  0.8827
  691MOL0     H91181   2.641   1.565   3.067  0.6297 -0.0028 -1.5287
  691MOL0     H91182   2.562   1.435   3.276 -2.1226  0.0860 -1.1892
  691MOL0     H91183   2.663   1.302   3.230 -1.2095 -1.7807 -1.7662
  691MOL0     H91184   2.438   1.404   3.066 -0.5654 -0.3372  1.4001
  691MOL0     H91185   2.577   1.310   3.003  4.8455 -0.1786  2.7433
  691MOL0     H91186   2.429   1.237   3.250 -2.8998  3.4004 -1.1556
  691MOL0     H91187   2.527   1.128   3.145 -0.7890  1.1200  0.0333
  691MOL0     H91188   2.242   1.233   3.081  1.6334  2.0442 -0.8174
  691MOL0     H91189   2.297   1.073   3.125 -1.0724  0.2342  0.8505
  691MOL0     H91190   2.438   1.169   2.877  0.0327  0.8931 -0.1170
  691MOL0     H91191   2.380   1.023   2.928 -0.1152  0.2386 -0.4112
  691MOL0     H91192   2.244   1.105   2.756 -1.6614 -0.5686  0.6358
  691MOL0     H91193   2.226   1.268   2.835 -1.3007 -0.0446 -1.7610
  691MOL0     H91194   3.089   1.569   3.160 -0.5269 -0.0910 -3.0060
  691MOL0     H91195   3.222   1.434   3.026  1.1765 -0.2102  0.6958
  691MOL0     H91196   3.285   0.987   2.821  0.5959 -1.3750 -3.2644
  691MOL0     H91197   3.416   0.846   2.711 -0.8573  0.3404  0.2918
  691MOL0     H91198   5.255   0.238   2.265 -0.6410  1.5397  0.6632
  691MOL0     H91199   5.499   0.281   2.244 -0.3904  0.8163  0.0543
  691MOL0     H91200   5.895   0.064   2.002  1.0084 -0.3089  1.0618
  691MOL0     H91201   6.100   0.091   1.879 -0.2732  0.2323  0.2608
  691MOL0     H91202   6.271   0.151   1.756  0.3717 -0.5493 -1.0304
  691MOL0     H91203   6.295   0.265   1.873 -3.4573 -3.9048  1.0394
  691MOL0     H91204   6.495   0.264   1.720 -0.4869  0.5030  2.5648
  691MOL0     H91205   6.393   0.275   1.581 -0.3457 -1.2751  0.5759
  691MOL0     H91206   6.430   0.502   1.787  1.3060 -0.7676 -0.5621
  691MOL0     H91207   6.326   0.518   1.646  2.3940  2.3964 -1.5391
  691MOL0     H91208   6.509   0.439   1.503  2.3710  0.4724 -0.1717
  691MOL0     H91209   6.512   0.599   1.567 -4.5833 -0.2408  1.0301
  691MOL0     H91210   6.853   0.403   1.761  0.2064 -1.0081 -0.3972
  691MOL0     H91211   5.973   0.480   1.750 -0.0417  1.5244  1.7251
  691MOL0     H91212   5.771   0.458   1.859  2.0323  1.2901 -2.3143
  692MOL0     O91213  10.237   0.729   1.818  0.5088 -0.5868 -0.0028
  692MOL0     C91214  10.311   0.751   1.721  0.6440 -0.5653 -0.1711
  692MOL0     O91215  10.438   0.705   1.698  0.1618 -0.0777 -0.1003
  692MOL0     C91216  10.511   0.635   1.793  0.3107 -0.4815  0.5945
  692MOL0     C91217  10.459   0.559   1.898 -0.0815 -0.6249  0.7390
  692MOL0     C91218  10.539   0.496   1.997 -0.3252 -1.1995 -0.7656
  692MOL0     C91219  10.679   0.510   1.996 -0.6319  0.0152  0.7907
  692MOL0     O91220  10.762   0.441   2.080 -0.0868 -0.5839 -0.3614
  692MOL0     C91221  10.701   0.355   2.181  0.6977  0.4516  0.4051
  692MOL0     C91222  10.634   0.434   2.292 -0.1172  0.1890  0.7240
  692MOL0     C91223  10.534   0.353   2.372  0.1029 -0.0495 -0.3981
  692MOL0     C91224  10.485   0.414   2.500  0.5142  0.3607  0.4084
  692MOL0     C91225  10.406   0.301   2.573  0.1157 -0.0676  0.1288
  692MOL0     C91226  10.318   0.342   2.691 -0.3647 -0.8888  0.0252
  692MOL0     C91227  10.189   0.417   2.647  0.1034 -0.0789 -0.1887
  692MOL0     C91228  10.118   0.462   2.777 -0.3913  0.5401 -0.3781
  692MOL0     N91229   9.986   0.514   2.749  0.1098  1.2510  0.1010
  692MOL0     C91230   9.880   0.431   2.724 -0.1647 -0.4747 -0.3958
  692MOL0     C91231   9.774   0.513   2.715 -0.3305 -0.2850 -0.3581
  692MOL0     C91232   9.631   0.477   2.667  0.0329 -0.1237  0.1392
  692MOL0     C91233   9.541   0.599   2.642  0.7275 -0.6197 -0.0757
  692MOL0     C91234   9.399   0.562   2.596  0.2263 -0.5647 -0.3233
  692MOL0     C91235   9.305   0.683   2.560 -0.4566  0.6714  0.0607
  692MOL0     O91236   9.164   0.663   2.574 -0.0367  0.5740  0.2980
  692MOL0     C91237   9.076   0.761   2.579  0.0931 -0.2907 -0.0201
  692MOL0     C91238   9.102   0.886   2.533 -0.1332 -0.7323  0.4395
  692MOL0     C91239   9.004   0.986   2.538  0.3097 -0.7257  0.6296
  692MOL0     C91240   8.873   0.964   2.589  0.0245 -0.6116 -0.0402
  692MOL0     C91241   8.775   1.067   2.594 -0.4805 -0.8890  0.8167
  692MOL0     O91242   8.689   1.065   2.691 -0.1038  0.8664  0.1839
  692MOL0     C91243   8.588   1.156   2.699 -1.4942 -1.4534  0.4182
  692MOL0     C91244   8.525   1.228   2.594  0.8808  0.4567  0.2712
  692MOL0     C91245   8.410   1.304   2.620 -0.4827  0.3248  0.2480
  692MOL0     C91246   8.372   1.322   2.757 -0.2210 -0.0507  0.9586
  692MOL0     O91247   8.260   1.396   2.796 -0.0450  0.2017 -0.6481
  692MOL0     C91248   8.198   1.498   2.713 -0.3009  0.7188  0.6222
  692MOL0     C91249   8.095   1.426   2.624 -0.1778  0.0462  0.7289
  692MOL0     C91250   8.060   1.504   2.493  0.2760  0.0488 -0.5123
  692MOL0     C91251   8.119   1.453   2.368 -1.0774 -0.5909 -0.5659
  692MOL0     C91252   8.018   1.410   2.273  0.3373 -0.1737 -0.3073
  692MOL0     C91253   8.076   1.361   2.141  0.1054  0.6494  0.5285
  692MOL0     C91254   7.959   1.313   2.055  0.5172  0.4481  0.5049
  692MOL0     C91255   7.973   1.285   1.906 -0.6988  0.8818  0.8158
  692MOL0    Cl91256   8.099   1.152   1.898 -0.4937  0.0477 -0.2458
  692MOL0     C91257   8.446   1.262   2.859  0.7148 -0.2465 -0.2051
  692MOL0     C91258   8.552   1.173   2.826 -0.0949 -0.0492 -0.9917
  692MOL0     O91259   8.788   1.167   2.525  0.2827  0.1200  0.5336
  692MOL0     C91260   8.849   0.840   2.642  0.0838  0.1598 -0.3307
  692MOL0     C91261   8.953   0.746   2.641 -0.1522  0.1136 -0.4280
  692MOL0     N91262   9.821   0.642   2.741 -0.2138  0.3616 -0.6405
  692MOL0     N91263   9.947   0.640   2.763  0.3925 -0.1543 -0.8208
  692MOL0     C91264  10.733   0.585   1.892  0.4158  0.7662 -0.3199
  692MOL0     C91265  10.649   0.645   1.796  0.1175  0.4991  0.0267
  692MOL0     C91266  10.241   0.821   1.607  0.0970 -0.5383 -0.3027
  692MOL0     C91267  10.100   0.840   1.596  0.0978 -0.5978 -0.0106
  692MOL0     C91268  10.042   0.892   1.482  0.2608  0.0838  0.0034
  692MOL0     C91269  10.116   0.935   1.374  0.2274  0.8444 -0.9232
  692MOL0     O91270  10.061   0.973   1.257 -0.0974 -0.8566  0.6805
  692MOL0     C91271   9.917   0.996   1.243  0.6553  0.3084  0.5791
  692MOL0     C91272   9.859   0.974   1.096  0.5110  0.0184 -0.1245
  692MOL0     C91273   9.886   1.088   0.998  0.4265  0.7650 -0.4152
  692MOL0     C91274   9.815   1.220   1.026 -0.4635  0.9062 -0.0682
  692MOL0     C91275   9.882   1.303   1.132 -0.0506 -0.7901  0.0478
  692MOL0     C91276   9.936   1.372   1.216 -0.9066 -0.3663 -0.2498
  692MOL0     C91277  10.251   0.913   1.384 -0.6941 -0.5395  0.4877
  692MOL0     C91278  10.315   0.861   1.497  1.2349  0.0201  0.6054
  692MOL0     H91279  10.354   0.533   1.901 -0.1444 -0.5152 -0.2899
  692MOL0     H91280  10.491   0.448   2.082 -0.2687  0.2192  0.1017
  692MOL0     H91281  10.782   0.296   2.224  0.6128 -0.0023 -0.0451
  692MOL0     H91282  10.623   0.295   2.132  1.9161 -0.1800 -0.8315
  692MOL0     H91283  10.597   0.533   2.264 -0.3273 -0.5541 -1.9652
  692MOL0     H91284  10.714   0.460   2.362  2.1097  1.0824 -1.9757
  692MOL0     H91285  10.579   0.258   2.401  1.3714  0.8755  0.7873
  692MOL0     H91286  10.444   0.329   2.315  0.1670  1.1765 -1.0434
  692MOL0     H91287  10.574   0.446   2.555  0.4885  0.7439  0.2340
  692MOL0     H91288  10.417   0.496   2.473 -0.2161 -1.2754 -3.2888
  692MOL0     H91289  10.480   0.225   2.601  1.4019  1.1425  0.1074
  692MOL0     H91290  10.341   0.239   2.510 -2.3930  2.2498  0.2434
  692MOL0     H91291  10.363   0.410   2.764 -2.0376 -0.7439  0.9717
  692MOL0     H91292  10.295   0.256   2.754 -0.4141  0.0258  1.3004
  692MOL0     H91293  10.220   0.507   2.593 -0.9272  0.6629  0.4140
  692MOL0     H91294  10.140   0.342   2.585  3.9506 -2.2843 -0.9260
  692MOL0     H91295  10.173   0.542   2.828 -2.6349  0.6494  2.0924
  692MOL0     H91296  10.104   0.375   2.842 -0.0465 -0.9074 -2.1815
  692MOL0     H91297   9.886   0.324   2.712  1.9671 -0.7082  1.9630
  692MOL0     H91298   9.586   0.406   2.736 -0.7066  0.6458  0.4634
  692MOL0     H91299   9.640   0.422   2.573  0.4982 -2.0844  1.2972
  692MOL0     H91300   9.585   0.667   2.569  1.7008 -0.2413  0.8316
  692MOL0     H91301   9.538   0.653   2.737 -0.6853 -1.5882  0.4758
  692MOL0     H91302   9.411   0.491   2.514  3.0241 -2.4785  1.5574
  692MOL0     H91303   9.346   0.502   2.671  0.4707  1.0394  1.1911
  692MOL0     H91304   9.325   0.717   2.458 -0.8729  1.6866  0.3011
  692MOL0     H91305   9.342   0.766   2.622  1.2020 -0.3942  0.5570
  692MOL0     H91306   9.193   0.912   2.480  0.5082 -1.4064  1.1856
  692MOL0     H91307   9.024   1.082   2.493 -1.5667 -1.6081 -2.4123
  692MOL0     H91308   8.545   1.206   2.490 -0.2220 -1.4952  0.4264
  692MOL0     H91309   8.351   1.346   2.539 -1.3839 -0.2462  0.5899
  692MOL0     H91310   8.271   1.535   2.641  1.2075 -2.4051  0.3813
  692MOL0     H91311   8.145   1.575   2.769 -2.1847  3.0751 -3.8705
  692MOL0     H91312   8.001   1.425   2.681 -0.4466  2.7942  0.4914
  692MOL0     H91313   8.141   1.330   2.601  1.8437  0.9666  0.6983
  692MOL0     H91314   8.093   1.606   2.517  1.5972 -0.5487  0.3670
  692MOL0     H91315   7.954   1.507   2.470  0.7911 -0.7738 -3.4068
  692MOL0     H91316   8.188   1.528   2.328  0.5179 -1.6074  0.1703
  692MOL0     H91317   8.188   1.374   2.398  2.4744  1.6953 -2.0564
  692MOL0     H91318   7.954   1.498   2.269  1.0838  0.5275  1.7348
  692MOL0     H91319   7.952   1.335   2.319 -0.2087  0.0317 -0.7493
  692MOL0     H91320   8.153   1.284   2.152  1.1668  1.8305  1.6997
  692MOL0     H91321   8.129   1.436   2.083 -0.0491 -0.6399 -1.3470
  692MOL0     H91322   7.897   1.232   2.096  0.6049 -0.2236 -0.6385
  692MOL0     H91323   7.885   1.393   2.047  1.7455  1.4341 -1.8343
  692MOL0     H91324   8.008   1.363   1.838 -3.0810 -0.0572 -1.7114
  692MOL0     H91325   7.878   1.254   1.860  0.0000  0.8937 -0.7042
  692MOL0     H91326   8.411   1.265   2.961 -0.7053 -1.6547 -0.6141
  692MOL0     H91327   8.596   1.116   2.907 -1.5079  1.0408  0.6390
  692MOL0     H91328   8.759   0.811   2.695  1.3370  0.0412  1.8307
  692MOL0     H91329   8.937   0.645   2.680 -0.2867 -0.1535 -1.1606
  692MOL0     H91330  10.840   0.603   1.887  0.6240  0.0460  0.8958
  692MOL0     H91331  10.701   0.700   1.719 -3.0283 -0.6044 -3.1484
  692MOL0     H91332  10.041   0.796   1.675 -2.8815 -1.4370 -2.4953
  692MOL0     H91333   9.937   0.917   1.490  0.3248  0.3447  0.0429
  692MOL0     H91334   9.889   1.093   1.284  2.5949  0.9239  0.5520
  692MOL0     H91335   9.859   0.918   1.294 -0.5646  2.3975  2.5807
  692MOL0     H91336   9.905   0.888   1.046 -0.2388  0.3246 -1.3835
  692MOL0     H91337   9.750   0.968   1.088  0.4836  1.2929 -0.8185
  692MOL0     H91338   9.867   1.059   0.894  2.1914 -1.2199 -0.2592
  692MOL0     H91339   9.995   1.096   0.989  0.8500 -1.3259  1.7469
  692MOL0     H91340   9.818   1.291   0.943 -0.9980  1.2135  0.1741
  692MOL0     H91341   9.708   1.220   1.049 -0.8771  2.3328 -1.7921
  692MOL0     H91342   9.973   1.443   1.288  0.2611 -1.5775  0.3809
  692MOL0     H91343  10.306   0.940   1.294  1.7148 -1.7481  1.4855
  692MOL0     H91344  10.424   0.858   1.500  1.3183 -1.1935 -1.3434
  693MOL0     O91345  10.792   7.560  10.560 -0.0523 -0.6253 -0.1141
  693MOL0     C91346  10.835   7.670  10.593 -0.2450 -0.1050 -0.6225
  693MOL0     O91347  10.774   7.765  10.671 -0.7517 -0.5891  0.5929
  693MOL0     C91348  10.639   7.750  10.693  0.0316  0.5454  0.2736
  693MOL0     C91349  10.547   7.824  10.628  0.3475 -0.2952  0.1886
  693MOL0     C91350  10.409   7.804  10.641  0.9215 -0.4074  0.3303
  693MOL0     C91351  10.356   7.711  10.735  0.6304  0.2425 -0.1250
  693MOL0     O91352  10.226   7.676  10.756 -0.2359 -0.4743  0.3027
  693MOL0     C91353  10.125   7.748  10.678 -0.0274 -0.7188  0.7259
  693MOL0     C91354  10.081   7.868  10.755  0.8705 -0.5439 -1.3796
  693MOL0     C91355  10.011   7.829  10.884 -1.1261  0.8719 -0.6560
  693MOL0     C91356   9.951   7.953  10.944  0.1586  0.1168 -0.0525
  693MOL0     C91357   9.854   7.918  11.047  0.0895 -0.2908 -0.0945
  693MOL0     C91358   9.824   8.034  11.147  0.8785  0.5046 -0.7140
  693MOL0     C91359   9.697   7.993  11.233  0.6497 -0.0057  0.3226
  693MOL0     C91360   9.646   8.109  11.327  0.4567  0.6072  0.2408
  693MOL0     N91361   9.512   8.070  11.388 -0.2324  0.5267  0.3417
  693MOL0     C91362   9.393   8.099  11.328 -0.1855 -0.9661 -1.1063
  693MOL0     C91363   9.296   8.036  11.406 -0.5758  0.1976  0.1699
  693MOL0     C91364   9.156   8.024  11.374  0.7216  0.4534  0.0041
  693MOL0     C91365   9.092   8.146  11.320  1.1524 -0.2153 -0.0368
  693MOL0     C91366   8.938   8.125  11.310  0.4148  0.5980  0.5434
  693MOL0     C91367   8.875   8.119  11.446 -0.4163  0.8096 -0.1655
  693MOL0     O91368   8.738   8.088  11.434 -0.6648 -0.2636 -0.5099
  693MOL0     C91369   8.659   8.204  11.417 -0.8748 -0.2422  0.0967
  693MOL0     C91370   8.707   8.339  11.406 -0.6051  0.3140 -0.0676
  693MOL0     C91371   8.610   8.441  11.398  0.1453 -0.6206  0.4676
  693MOL0     C91372   8.471   8.427  11.410  0.0800 -0.1978 -0.8263
  693MOL0     C91373   8.381   8.551  11.429  0.0868  0.2112 -0.0237
  693MOL0     O91374   8.250   8.520  11.449 -0.2777  0.2659  0.2745
  693MOL0     C91375   8.162   8.626  11.474 -0.6860  0.7795 -0.4291
  693MOL0     C91376   8.078   8.681  11.368 -0.1486  0.2304 -0.1640
  693MOL0     C91377   7.960   8.745  11.407 -0.8642  0.2039  0.1427
  693MOL0     C91378   7.931   8.793  11.536 -0.3033 -0.2702 -0.2233
  693MOL0     O91379   7.809   8.849  11.568  0.1537  0.0867 -1.0593
  693MOL0     C91380   7.744   8.804  11.693 -0.0791 -0.3742  0.1644
  693MOL0     C91381   7.616   8.879  11.709  0.1057  0.4999 -0.3832
  693MOL0     C91382   7.539   8.810  11.827  0.4534  0.2062  0.3200
  693MOL0     C91383   7.415   8.893  11.871  0.6591 -0.3125  0.3621
  693MOL0     C91384   7.323   8.816  11.967  0.8082 -0.5898  0.5298
  693MOL0     C91385   7.193   8.889  12.003  0.0873  0.2638 -0.6171
  693MOL0     C91386   7.117   8.803  12.111 -0.4084  0.1900  0.0318
  693MOL0     C91387   7.003   8.894  12.163  0.4466 -0.7739  0.3533
  693MOL0    Cl91388   6.906   8.965  12.020 -0.2301 -0.2840  0.2746
  693MOL0     C91389   8.020   8.740  11.637 -1.2546  1.2161  0.4387
  693MOL0     C91390   8.125   8.652  11.610 -0.0545  0.2609 -0.0148
  693MOL0     O91391   8.420   8.664  11.422 -0.4271  0.1954  0.9728
  693MOL0     C91392   8.425   8.292  11.422 -0.4191 -0.0848  0.2279
  693MOL0     C91393   8.519   8.190  11.426 -0.2097 -0.0118 -0.1484
  693MOL0     N91394   9.366   7.971  11.508  0.0446 -0.2854 -0.0761
  693MOL0     N91395   9.487   7.991  11.503  0.5974  0.0909 -0.0782
  693MOL0     C91396  10.455   7.640  10.809  0.6309 -0.3788 -0.3785
  693MOL0     C91397  10.589   7.663  10.794  0.4542  0.0558 -0.1610
  693MOL0     C91398  10.978   7.702  10.569 -0.3895  0.0784 -0.2147
  693MOL0     C91399  11.066   7.602  10.527  0.0544 -0.2532 -0.2094
  693MOL0     C91400  11.202   7.626  10.505 -0.5481 -0.2962  0.1278
  693MOL0     C91401  11.264   7.753  10.543  0.3367  0.0151 -0.0821
  693MOL0     O91402  11.395   7.796  10.533 -0.0648  1.0536  0.9556
  693MOL0     C91403  11.488   7.686  10.507 -0.8181 -0.0370 -0.5204
  693MOL0     C91404  11.636   7.737  10.495 -0.2185 -0.1898  0.4777
  693MOL0     C91405  11.686   7.777  10.628  0.6159  0.4859  0.5619
  693MOL0     C91406  11.730   7.929  10.643 -0.1631  0.7486  0.1255
  693MOL0     C91407  11.864   7.948  10.582 -0.2649  0.0132 -0.2438
  693MOL0     C91408  11.968   7.966  10.524 -0.9574  0.4778 -0.3405
  693MOL0     C91409  11.173   7.852  10.602 -0.1985 -0.1090 -0.1483
  693MOL0     C91410  11.035   7.825  10.615 -0.7727 -0.0647  0.3997
  693MOL0     H91411  10.587   7.894  10.556 -0.3666 -0.3529 -0.2806
  693MOL0     H91412  10.346   7.857  10.571 -2.0046 -1.8813  1.6630
  693MOL0     H91413  10.033   7.692  10.659 -0.4174  0.1754 -0.1265
  693MOL0     H91414  10.172   7.770  10.582  2.2303 -2.1417  1.4184
  693MOL0     H91415  10.015   7.924  10.689  2.4840  2.7262 -0.4034
  693MOL0     H91416  10.166   7.935  10.769  0.3098 -0.1260  0.2268
  693MOL0     H91417  10.081   7.786  10.955 -1.5441  1.6715  0.2566
  693MOL0     H91418   9.937   7.754  10.855 -0.2483 -0.5702  0.6805
  693MOL0     H91419  10.038   7.999  10.991  1.8908 -1.7887 -1.2141
  693MOL0     H91420   9.909   8.020  10.868 -1.5812 -0.9360 -0.0637
  693MOL0     H91421   9.888   7.833  11.108  2.5786 -1.8181 -3.3460
  693MOL0     H91422   9.765   7.882  10.995 -1.6168  1.5944  1.3824
  693MOL0     H91423   9.811   8.126  11.089  2.6417 -0.7994 -3.4126
  693MOL0     H91424   9.902   8.057  11.220 -0.4481  1.5828  0.3888
  693MOL0     H91425   9.610   7.972  11.169 -0.2389  1.3437  1.0321
  693MOL0     H91426   9.717   7.901  11.289 -0.0256 -0.8297 -0.7335
  693MOL0     H91427   9.629   8.208  11.284 -0.9520  0.2903  0.0254
  693MOL0     H91428   9.721   8.127  11.405  1.2604  1.9212 -0.7801
  693MOL0     H91429   9.381   8.156  11.236 -0.2556 -0.3088 -0.6951
  693MOL0     H91430   9.118   7.991  11.471 -0.7997 -5.1186 -2.0858
  693MOL0     H91431   9.131   7.948  11.299 -0.3080  0.3721  0.4097
  693MOL0     H91432   9.135   8.162  11.221 -0.2477 -0.3878 -0.6974
  693MOL0     H91433   9.117   8.234  11.380 -1.0779 -0.8696  2.0186
  693MOL0     H91434   8.906   8.216  11.258  0.0712  1.6670  2.5209
  693MOL0     H91435   8.921   8.040  11.244 -3.1367  2.7462 -1.6231
  693MOL0     H91436   8.900   8.202  11.512  0.2203 -1.3784  2.5380
  693MOL0     H91437   8.915   8.033  11.501  0.8616  1.0132 -0.7532
  693MOL0     H91438   8.811   8.370  11.408 -1.5057  3.6979  0.3906
  693MOL0     H91439   8.646   8.543  11.395 -1.1939 -0.1139  0.6822
  693MOL0     H91440   8.121   8.662  11.270  0.8293  1.3077  0.0355
  693MOL0     H91441   7.898   8.764  11.320 -1.6077 -0.5903  0.4893
  693MOL0     H91442   7.808   8.818  11.781 -1.9669  2.3184  1.2376
  693MOL0     H91443   7.731   8.697  11.676  0.4154 -0.4110 -0.0029
  693MOL0     H91444   7.548   8.895  11.625 -0.9266 -2.5956 -0.2609
  693MOL0     H91445   7.646   8.976  11.752  2.9385  0.4349 -1.9997
  693MOL0     H91446   7.599   8.802  11.918  0.3193  5.4457  1.1701
  693MOL0     H91447   7.505   8.711  11.794 -2.0292  0.9043  0.5818
  693MOL0     H91448   7.450   8.990  11.907 -0.0565  0.2610 -0.4710
  693MOL0     H91449   7.362   8.917  11.779  2.2955 -0.7695 -0.7372
  693MOL0     H91450   7.386   8.809  12.056  0.0870  0.6219  1.1734
  693MOL0     H91451   7.287   8.725  11.918  0.4038 -0.1295 -0.0526
  693MOL0     H91452   7.130   8.901  11.915 -0.6154 -0.6899 -0.2679
  693MOL0     H91453   7.206   8.991  12.041 -2.2937  0.6909 -0.7885
  693MOL0     H91454   7.088   8.705  12.072 -0.5996  0.7743 -1.3470
  693MOL0     H91455   7.182   8.792  12.198  1.3494  0.5185 -1.1779
  693MOL0     H91456   7.049   8.975  12.220 -0.5372 -0.6503  0.9921
  693MOL0     H91457   6.934   8.843  12.231  0.4878  1.4988  2.2382
  693MOL0     H91458   8.006   8.747  11.745 -1.7322 -2.7094  0.7559
  693MOL0     H91459   8.170   8.593  11.690  2.9642 -0.2581 -1.9439
  693MOL0     H91460   8.320   8.268  11.433  0.1152 -2.3237  0.8479
  693MOL0     H91461   8.479   8.091  11.448 -1.3185  0.5776  0.5593
  693MOL0     H91462  10.419   7.558  10.869  1.2012 -0.1698  0.2620
  693MOL0     H91463  10.656   7.601  10.852 -0.1193  0.3069  0.7999
  693MOL0     H91464  11.027   7.503  10.501 -0.0639  0.3556 -2.6402
  693MOL0     H91465  11.257   7.536  10.480 -0.3586 -0.8068  2.1879
  693MOL0     H91466  11.457   7.634  10.416 -0.5271 -1.4777  0.1835
  693MOL0     H91467  11.480   7.611  10.585 -1.0858  0.2450 -0.2729
  693MOL0     H91468  11.707   7.660  10.464  1.7509  1.6755  0.2048
  693MOL0     H91469  11.639   7.830  10.437 -0.1460  0.2823  1.2270
  693MOL0     H91470  11.758   7.705  10.669  1.1933  2.6366  3.6892
  693MOL0     H91471  11.604   7.775  10.701 -1.0790  0.4112 -1.2597
  693MOL0     H91472  11.661   7.991  10.585  1.9393  2.6063 -0.5348
  693MOL0     H91473  11.742   7.965  10.745  0.5959 -0.3979  0.4610
  693MOL0     H91474  12.059   7.998  10.479 -1.1725  1.0966 -0.3527
  693MOL0     H91475  11.205   7.951  10.632  4.8951 -1.9032  1.4293
  693MOL0     H91476  10.970   7.897  10.663 -2.0636 -0.5749 -0.5216
  694MOL0     O91477   4.120   9.227   5.488  0.5771  0.1674  0.8467
  694MOL0     C91478   4.154   9.308   5.574  0.0572 -0.4753  0.3249
  694MOL0     O91479   4.076   9.385   5.645 -0.8118 -0.1444  0.0498
  694MOL0     C91480   3.943   9.366   5.629  0.1197 -0.2079 -0.2633
  694MOL0     C91481   3.870   9.450   5.539  0.3483 -0.0713 -0.4200
  694MOL0     C91482   3.733   9.434   5.529  0.4733 -0.5821 -0.4653
  694MOL0     C91483   3.663   9.334   5.596 -0.7598  0.2768 -0.6915
  694MOL0     O91484   3.525   9.323   5.602  0.0423  0.1737 -0.1792
  694MOL0     C91485   3.446   9.348   5.490  1.0280 -0.4980 -0.5109
  694MOL0     C91486   3.300   9.322   5.536 -0.0825 -0.7637 -0.6674
  694MOL0     C91487   3.230   9.464   5.570  0.0668  0.6161  0.8191
  694MOL0     C91488   3.090   9.433   5.616 -0.1020 -0.7386  0.0267
  694MOL0     C91489   3.014   9.553   5.682  0.1851  0.1582  1.0022
  694MOL0     C91490   2.893   9.502   5.761  0.4362 -0.3494  0.4903
  694MOL0     C91491   2.772   9.478   5.670  0.6543  0.2029 -0.4867
  694MOL0     C91492   2.658   9.440   5.767  0.6349  0.7986  0.3866
  694MOL0     N91493   2.532   9.405   5.695 -0.3648 -0.1597 -0.7707
  694MOL0     C91494   2.410   9.417   5.759 -0.1133  1.5259  0.5367
  694MOL0     C91495   2.313   9.388   5.668  0.0554 -0.9245 -0.4020
  694MOL0     C91496   2.161   9.378   5.675 -0.7040 -0.2920  0.1046
  694MOL0     C91497   2.116   9.234   5.669  1.2153  0.8458 -1.0604
  694MOL0     C91498   1.966   9.223   5.639 -0.1565 -0.6922 -0.0618
  694MOL0     C91499   1.937   9.076   5.661  0.7931 -0.1878  0.1968
  694MOL0     O91500   1.796   9.072   5.630  0.4601  0.3716  0.2184
  694MOL0     C91501   1.732   8.947   5.620 -0.0452  0.6195  0.3031
  694MOL0     C91502   1.596   8.958   5.586  0.6690  0.1126  0.0732
  694MOL0     C91503   1.510   8.852   5.595 -0.2141  0.1222  0.0602
  694MOL0     C91504   1.561   8.721   5.618 -0.2333 -0.8704 -0.2960
  694MOL0     C91505   1.474   8.607   5.626  0.9311  0.4075  0.2842
  694MOL0     O91506   1.340   8.632   5.641  0.0782 -0.7423 -0.3134
  694MOL0     C91507   1.247   8.531   5.644  0.2345 -0.5894  0.1568
  694MOL0     C91508   1.121   8.566   5.588  0.2372  0.3002  0.0146
  694MOL0     C91509   1.003   8.479   5.602 -0.0056  0.1048  0.1103
  694MOL0     C91510   1.008   8.347   5.655 -0.0906 -0.8626  0.0240
  694MOL0     O91511   0.890   8.271   5.667 -0.4667 -0.5548  0.0505
  694MOL0     C91512   0.903   8.129   5.693 -0.7433  0.7448 -0.3262
  694MOL0     C91513   0.905   8.113   5.849 -0.1917 -0.3660 -0.8307
  694MOL0     C91514   0.764   8.152   5.897 -0.0197  0.0380 -0.5242
  694MOL0     C91515   0.735   8.096   6.043  0.0239  0.0998  0.3203
  694MOL0     C91516   0.606   8.176   6.089 -0.4234 -0.5367 -0.0248
  694MOL0     C91517   0.556   8.141   6.223  0.1400  0.3351 -0.4360
  694MOL0     C91518   0.433   8.231   6.269  0.6448 -1.2914  0.0809
  694MOL0     C91519   0.401   8.225   6.427  0.2683 -0.3250  0.2280
  694MOL0    Cl91520   0.548   8.283   6.518 -0.1168  0.0211 -0.1079
  694MOL0     C91521   1.142   8.313   5.689  0.1646  1.3038  0.2372
  694MOL0     C91522   1.255   8.401   5.688  0.8795  0.4333  0.2925
  694MOL0     O91523   1.526   8.496   5.596 -0.1350 -0.9386 -0.0104
  694MOL0     C91524   1.704   8.711   5.634 -0.1508  0.8903  0.5572
  694MOL0     C91525   1.789   8.823   5.646 -0.3969 -0.0177  0.0474
  694MOL0     N91526   2.384   9.364   5.549  1.3110  0.1003  0.7700
  694MOL0     N91527   2.511   9.375   5.567  0.7343 -0.5629 -0.3024
  694MOL0     C91528   3.737   9.242   5.676  0.1659 -0.4880  0.2829
  694MOL0     C91529   3.875   9.266   5.696 -0.1896  0.5431 -0.5524
  694MOL0     C91530   4.302   9.307   5.606 -0.4187  0.6853 -0.8606
  694MOL0     C91531   4.354   9.385   5.721  0.2913  0.7709 -0.2614
  694MOL0     C91532   4.494   9.374   5.759 -0.0422  1.2122  0.4143
  694MOL0     C91533   4.585   9.315   5.666 -0.1598 -0.1024  0.2026
  694MOL0     O91534   4.723   9.338   5.668  0.5067 -0.0577  0.0365
  694MOL0     C91535   4.783   9.464   5.709  0.5301 -0.0671 -0.5271
  694MOL0     C91536   4.934   9.420   5.753  0.8018 -0.3270  0.5766
  694MOL0     C91537   5.031   9.534   5.764  0.0919 -1.0729 -0.5828
  694MOL0     C91538   5.160   9.488   5.827 -0.4780  0.2952 -0.3056
  694MOL0     C91539   5.273   9.578   5.793 -0.2408 -0.0881 -0.0287
  694MOL0     C91540   5.360   9.644   5.744  0.5314 -1.5239 -0.4962
  694MOL0     C91541   4.536   9.263   5.551 -0.2549  0.1329  0.9832
  694MOL0     C91542   4.404   9.240   5.528  0.5847  0.1593 -0.9495
  694MOL0     H91543   3.922   9.525   5.481 -1.4584  0.5467 -1.2839
  694MOL0     H91544   3.674   9.488   5.457  1.3210 -0.0111 -0.7496
  694MOL0     H91545   3.457   9.274   5.410 -1.5281  0.6105 -2.0283
  694MOL0     H91546   3.458   9.450   5.452 -2.3136  0.1569 -0.1749
  694MOL0     H91547   3.292   9.262   5.628 -1.6904  1.2932  0.6289
  694MOL0     H91548   3.237   9.281   5.457 -0.8289 -0.0176 -0.4777
  694MOL0     H91549   3.223   9.533   5.486 -0.6366  1.2798  1.4051
  694MOL0     H91550   3.290   9.513   5.647  1.8632 -0.3490  0.0909
  694MOL0     H91551   3.028   9.398   5.533  3.0942  1.5315 -3.6391
  694MOL0     H91552   3.100   9.349   5.686  0.2323  0.7752  1.9123
  694MOL0     H91553   2.993   9.623   5.601  2.1379 -0.7295 -0.3670
  694MOL0     H91554   3.073   9.607   5.756  0.5041  1.5031 -0.1967
  694MOL0     H91555   2.865   9.571   5.840  2.4205 -0.3380  1.2404
  694MOL0     H91556   2.915   9.415   5.823 -2.2959  0.2730  2.5259
  694MOL0     H91557   2.740   9.566   5.613 -2.8958 -0.6212 -0.0377
  694MOL0     H91558   2.793   9.400   5.597  2.2196  0.3959 -0.2675
  694MOL0     H91559   2.646   9.522   5.838  3.9035  0.9075  0.9425
  694MOL0     H91560   2.684   9.348   5.820  0.9903  1.8116  2.0258
  694MOL0     H91561   2.393   9.442   5.864  0.0585 -0.3535  1.0470
  694MOL0     H91562   2.121   9.429   5.587  0.9129  3.3637  1.2641
  694MOL0     H91563   2.120   9.437   5.758 -0.3181 -1.6354  1.2931
  694MOL0     H91564   2.145   9.184   5.762 -2.1786 -3.3528 -1.9638
  694MOL0     H91565   2.180   9.180   5.599  0.0103 -1.2998 -0.5732
  694MOL0     H91566   1.915   9.276   5.720 -0.0007 -0.7767  0.0954
  694MOL0     H91567   1.946   9.261   5.539  1.6414 -1.2946 -0.6902
  694MOL0     H91568   1.952   9.042   5.764 -0.7733 -3.2441 -0.4675
  694MOL0     H91569   1.986   9.007   5.593 -2.4100 -1.3774 -1.1370
  694MOL0     H91570   1.565   9.060   5.564 -1.7407 -1.0593 -2.4690
  694MOL0     H91571   1.404   8.872   5.590  0.3728  3.5094 -2.6185
  694MOL0     H91572   1.102   8.662   5.542  1.2340 -0.5119 -2.2366
  694MOL0     H91573   0.905   8.516   5.576  0.4969  0.2247 -1.7841
  694MOL0     H91574   0.996   8.092   5.652 -0.9123  0.4073 -0.4064
  694MOL0     H91575   0.821   8.081   5.639 -0.1476 -0.9338  0.2120
  694MOL0     H91576   0.984   8.169   5.901 -1.7256 -0.0142  1.2455
  694MOL0     H91577   0.919   8.009   5.879 -1.8769 -0.1160  1.0126
  694MOL0     H91578   0.695   8.099   5.831  0.9202 -0.0871 -1.4396
  694MOL0     H91579   0.757   8.261   5.891  0.9767  0.2510  1.2844
  694MOL0     H91580   0.720   7.988   6.042  0.0810 -0.0265 -3.7692
  694MOL0     H91581   0.809   8.121   6.119 -0.6125 -0.1682  1.0416
  694MOL0     H91582   0.521   8.177   6.020  0.6754  3.5617 -1.5885
  694MOL0     H91583   0.630   8.282   6.099 -0.6205 -0.4882 -0.0548
  694MOL0     H91584   0.644   8.143   6.289 -0.4557 -1.6325  0.4949
  694MOL0     H91585   0.514   8.040   6.224 -1.7098  1.0603  0.6367
  694MOL0     H91586   0.443   8.339   6.258  0.5989 -1.2977 -0.0108
  694MOL0     H91587   0.352   8.193   6.207  1.1298  0.5770 -1.8125
  694MOL0     H91588   0.386   8.121   6.458 -0.8579  0.6628  3.4612
  694MOL0     H91589   0.312   8.287   6.445  1.4521  0.8956  2.4080
  694MOL0     H91590   1.157   8.215   5.733  1.9523  1.7975  0.8135
  694MOL0     H91591   1.343   8.358   5.734  1.3302  1.6272  0.5897
  694MOL0     H91592   1.746   8.615   5.664 -0.6064  0.2789 -0.6702
  694MOL0     H91593   1.889   8.820   5.689 -1.2294  1.6162  2.3411
  694MOL0     H91594   3.689   9.156   5.722  1.6622 -1.3453  0.3102
  694MOL0     H91595   3.938   9.206   5.760 -2.5107  1.1950  2.5896
  694MOL0     H91596   4.280   9.431   5.786 -0.6717 -0.3382 -0.5192
  694MOL0     H91597   4.520   9.430   5.848  1.5881  1.5316 -0.2196
  694MOL0     H91598   4.728   9.517   5.787  2.0313  1.3054 -0.3404
  694MOL0     H91599   4.779   9.526   5.619 -0.5861  0.4368 -0.1482
  694MOL0     H91600   4.928   9.377   5.853 -0.1074  0.5588  0.9186
  694MOL0     H91601   4.973   9.346   5.683 -2.1414  1.2211 -3.0794
  694MOL0     H91602   4.982   9.613   5.821  0.9208 -0.3778 -0.8079
  694MOL0     H91603   5.033   9.581   5.664  1.6945  0.4415  0.1016
  694MOL0     H91604   5.146   9.492   5.936  2.7544 -0.1207  0.2290
  694MOL0     H91605   5.184   9.389   5.787  0.7475  1.9358 -4.0791
  694MOL0     H91606   5.421   9.716   5.692 -1.3016  0.3094 -0.2423
  694MOL0     H91607   4.598   9.228   5.469 -1.9448  0.8469 -0.6847
  694MOL0     H91608   4.381   9.187   5.436 -1.5656 -0.1193 -0.3038
  695MOL0     O91609   8.760   3.933   9.196 -0.4117  0.4828 -0.4218
  695MOL0     C91610   8.768   3.873   9.086 -0.2651  0.1997 -0.9914
  695MOL0     O91611   8.756   3.742   9.068 -0.3012  0.6652  0.2400
  695MOL0     C91612   8.757   3.658   9.174 -0.0051 -0.5485  0.5050
  695MOL0     C91613   8.656   3.561   9.181 -0.2381  0.1763 -0.1444
  695MOL0     C91614   8.635   3.489   9.296  0.6475 -0.7752 -0.1720
  695MOL0     C91615   8.716   3.508   9.408  0.3346  0.8228 -0.3193
  695MOL0     O91616   8.678   3.426   9.506  0.3860 -0.3055 -0.0327
  695MOL0     C91617   8.738   3.428   9.633 -0.4290 -0.7920  0.7113
  695MOL0     C91618   8.636   3.396   9.737 -0.1486 -0.7871  0.1712
  695MOL0     C91619   8.592   3.246   9.731  0.6185 -0.3198  0.1663
  695MOL0     C91620   8.480   3.195   9.822  0.6134  0.1788  0.1017
  695MOL0     C91621   8.347   3.283   9.797  0.1040  0.6659  0.0554
  695MOL0     C91622   8.295   3.274   9.654 -0.4265  0.8123  0.9402
  695MOL0     C91623   8.147   3.289   9.640 -1.1948 -0.3647 -0.5435
  695MOL0     C91624   8.102   3.300   9.490 -0.8161 -0.3599 -0.3847
  695MOL0     N91625   8.152   3.418   9.412 -0.7134  0.2492  0.4162
  695MOL0     C91626   8.082   3.526   9.392 -0.1889 -0.0977  0.1129
  695MOL0     C91627   8.167   3.601   9.319  0.3187 -0.4632  0.1828
  695MOL0     C91628   8.141   3.741   9.256 -0.3138  0.9746 -0.4181
  695MOL0     C91629   8.087   3.733   9.112 -0.2074  0.5868 -0.2276
  695MOL0     C91630   7.948   3.686   9.096 -1.0249  0.4277  0.0997
  695MOL0     C91631   7.915   3.645   8.962  0.7800  0.1238 -0.6125
  695MOL0     O91632   7.885   3.772   8.894  0.1082 -0.3222  0.4533
  695MOL0     C91633   7.773   3.838   8.913  1.2157  0.7805  0.7730
  695MOL0     C91634   7.665   3.786   8.982  0.3079  0.4367 -0.2000
  695MOL0     C91635   7.560   3.870   9.020 -0.3810 -0.5538 -0.5462
  695MOL0     C91636   7.556   4.005   8.978  0.0303  0.4251 -0.8226
  695MOL0     C91637   7.445   4.099   9.013  0.2913  0.2977 -0.7025
  695MOL0     O91638   7.343   4.044   9.077 -0.5705 -0.8931 -0.3128
  695MOL0     C91639   7.234   4.118   9.111  0.2931  0.0080 -0.4819
  695MOL0     C91640   7.119   4.085   9.044  0.0155  0.6342 -0.8163
  695MOL0     C91641   7.000   4.139   9.085  1.1981  0.3924  0.5978
  695MOL0     C91642   6.990   4.226   9.194 -0.7107  0.3248  0.4734
  695MOL0     O91643   6.869   4.275   9.239  0.1276 -0.6447  0.1050
  695MOL0     C91644   6.850   4.312   9.375  0.2952 -0.8749  1.1145
  695MOL0     C91645   6.696   4.325   9.382 -0.1099  0.0742 -0.6352
  695MOL0     C91646   6.657   4.425   9.496  0.2087  0.1247  0.9252
  695MOL0     C91647   6.501   4.428   9.522 -0.5109 -0.3773 -0.1640
  695MOL0     C91648   6.471   4.548   9.612 -0.3905  1.0955  0.3362
  695MOL0     C91649   6.324   4.538   9.648 -0.4367 -0.6012 -0.3162
  695MOL0     C91650   6.282   4.655   9.736  0.2836  0.3777 -0.9871
  695MOL0     C91651   6.129   4.662   9.741  0.6293 -0.0722 -0.1233
  695MOL0    Cl91652   6.069   4.507   9.789 -0.1065 -0.2464 -0.5030
  695MOL0     C91653   7.117   4.265   9.250  0.5303  0.1063  0.5343
  695MOL0     C91654   7.236   4.214   9.207  0.3706 -0.0522 -0.2911
  695MOL0     O91655   7.456   4.211   8.980  0.1222 -0.3661  0.3214
  695MOL0     C91656   7.675   4.055   8.903  0.1364 -0.3015 -0.5677
  695MOL0     C91657   7.775   3.965   8.868 -0.1391 -0.4708 -0.2621
  695MOL0     N91658   8.283   3.531   9.282  0.1510 -0.0189 -0.0901
  695MOL0     N91659   8.269   3.419   9.337  0.1172 -0.6443 -0.3334
  695MOL0     C91660   8.830   3.594   9.395  1.0588  1.1510  0.5771
  695MOL0     C91661   8.851   3.667   9.282 -0.0570 -0.9536 -0.2647
  695MOL0     C91662   8.783   3.952   8.968 -0.3724  0.1737 -0.4271
  695MOL0     C91663   8.858   4.076   8.979 -0.6579  0.3192 -0.1174
  695MOL0     C91664   8.854   4.171   8.874 -0.3685  0.5978  0.6349
  695MOL0     C91665   8.794   4.143   8.754  1.4515 -0.8328 -0.6771
  695MOL0     O91666   8.780   4.241   8.662 -0.6996 -0.5823  0.8384
  695MOL0     C91667   8.895   4.259   8.567 -1.2014 -0.4953 -0.8374
  695MOL0     C91668   8.949   4.405   8.587 -1.1830  0.0526 -0.3246
  695MOL0     C91669   9.080   4.412   8.506  0.6501 -0.6247  0.3513
  695MOL0     C91670   9.158   4.532   8.537  0.3156  0.1005 -0.4410
  695MOL0     C91671   9.288   4.528   8.475 -0.8282  0.4521 -0.0486
  695MOL0     C91672   9.382   4.528   8.404 -0.7362  0.2328  0.4498
  695MOL0     C91673   8.729   4.018   8.745 -0.0591  0.1941 -0.2588
  695MOL0     C91674   8.729   3.921   8.849 -0.4015 -0.0401 -0.1188
  695MOL0     H91675   8.600   3.548   9.089 -0.9985 -2.1427  0.5730
  695MOL0     H91676   8.559   3.413   9.315  0.6428 -1.0346 -1.1786
  695MOL0     H91677   8.781   3.527   9.650 -0.5788 -0.3385 -1.3391
  695MOL0     H91678   8.823   3.359   9.633 -1.1072 -1.6578  1.9188
  695MOL0     H91679   8.550   3.464   9.732 -1.4770 -2.3752  0.3310
  695MOL0     H91680   8.675   3.406   9.839  1.7534  1.2297 -0.6733
  695MOL0     H91681   8.678   3.187   9.762 -1.1672 -3.7561 -0.8567
  695MOL0     H91682   8.566   3.221   9.628 -0.6830  1.3723  0.0182
  695MOL0     H91683   8.462   3.088   9.813  2.2852 -0.1271  0.0485
  695MOL0     H91684   8.498   3.220   9.927 -2.1508  1.7392  0.2853
  695MOL0     H91685   8.359   3.386   9.832  0.2984  0.9418 -0.8079
  695MOL0     H91686   8.275   3.255   9.874  1.3645  1.3000  1.5193
  695MOL0     H91687   8.332   3.176   9.621  1.1864  1.2949  1.1982
  695MOL0     H91688   8.353   3.345   9.594  1.0914 -0.2195  1.1093
  695MOL0     H91689   8.090   3.206   9.683  1.8543 -1.8028  0.9793
  695MOL0     H91690   8.112   3.370   9.704 -2.7567 -2.8800  2.0108
  695MOL0     H91691   7.995   3.291   9.473 -1.1486  0.1197  1.2780
  695MOL0     H91692   8.146   3.207   9.453  3.7664  0.3060  2.5640
  695MOL0     H91693   7.980   3.546   9.423  0.4218  0.3960  1.9651
  695MOL0     H91694   8.234   3.796   9.269  2.3794 -3.4679  1.2679
  695MOL0     H91695   8.063   3.794   9.313 -0.4269  0.2034  0.1526
  695MOL0     H91696   8.159   3.666   9.064 -1.1214 -0.9616  0.5197
  695MOL0     H91697   8.105   3.832   9.068  0.0464  0.8440  0.4405
  695MOL0     H91698   7.935   3.596   9.155 -4.3478  0.4872 -0.3817
  695MOL0     H91699   7.878   3.766   9.123  0.1543  1.9069 -1.0143
  695MOL0     H91700   7.837   3.570   8.973  1.4161 -0.2828  1.4917
  695MOL0     H91701   7.993   3.596   8.901  1.2551 -0.8445  0.7353
  695MOL0     H91702   7.658   3.682   9.012  0.0289  0.0745 -1.4893
  695MOL0     H91703   7.480   3.811   9.063 -0.3864  1.8466  3.2042
  695MOL0     H91704   7.119   4.021   8.956  1.1185 -0.7635  0.1496
  695MOL0     H91705   6.913   4.106   9.029  2.6554 -0.0162 -1.5457
  695MOL0     H91706   6.901   4.406   9.400 -2.4411  0.6619  1.3792
  695MOL0     H91707   6.867   4.235   9.450 -3.4160 -3.2496 -0.2226
  695MOL0     H91708   6.650   4.229   9.410 -1.0098  0.6316 -0.1773
  695MOL0     H91709   6.653   4.354   9.286  1.8951 -0.1548 -1.6445
  695MOL0     H91710   6.698   4.521   9.466  0.7003 -0.6849 -1.1519
  695MOL0     H91711   6.702   4.391   9.590 -2.6014  3.0121  3.5604
  695MOL0     H91712   6.459   4.439   9.422  1.3846 -0.6678 -1.0308
  695MOL0     H91713   6.466   4.337   9.572 -1.8930  0.0187 -0.3631
  695MOL0     H91714   6.497   4.635   9.551 -2.3704 -0.2160 -2.6474
  695MOL0     H91715   6.532   4.542   9.703 -1.6671 -2.5589  1.1266
  695MOL0     H91716   6.310   4.446   9.706  1.6527  0.1618  1.5702
  695MOL0     H91717   6.272   4.548   9.553  0.7940  3.9058 -0.7543
  695MOL0     H91718   6.319   4.639   9.838 -0.6336 -2.6454 -1.0366
  695MOL0     H91719   6.315   4.753   9.700  0.7436  0.3491 -0.6493
  695MOL0     H91720   6.092   4.695   9.643  0.6920  0.5392  0.0559
  695MOL0     H91721   6.094   4.737   9.813 -0.2456 -1.3728  0.8529
  695MOL0     H91722   7.122   4.342   9.326 -0.8636  1.0691 -0.2936
  695MOL0     H91723   7.326   4.251   9.256  1.1684  2.6017 -3.4203
  695MOL0     H91724   7.686   4.160   8.880  0.5793 -0.6936 -2.3497
  695MOL0     H91725   7.863   3.994   8.811 -0.1552 -0.9851 -0.5535
  695MOL0     H91726   8.893   3.598   9.483  1.2526 -0.4987  0.5595
  695MOL0     H91727   8.927   3.744   9.277 -0.2301 -0.6931  0.9057
  695MOL0     H91728   8.900   4.110   9.074  0.2054  3.4689 -1.4824
  695MOL0     H91729   8.911   4.260   8.897 -1.3153  1.5184 -0.4659
  695MOL0     H91730   8.871   4.250   8.460  0.4047  1.3783 -1.4266
  695MOL0     H91731   8.978   4.192   8.589  1.2081  2.2640 -0.8209
  695MOL0     H91732   8.881   4.488   8.565 -1.0312 -0.6040 -3.8133
  695MOL0     H91733   8.982   4.408   8.691  1.2595 -2.1900 -0.9055
  695MOL0     H91734   9.048   4.417   8.402 -1.9046 -2.5050  0.9630
  695MOL0     H91735   9.140   4.322   8.522  0.8083 -0.2577  2.1099
  695MOL0     H91736   9.104   4.622   8.505 -1.1535 -0.7194 -0.3985
  695MOL0     H91737   9.170   4.546   8.645  1.7682 -0.7387 -0.4745
  695MOL0     H91738   9.475   4.512   8.351 -0.4247 -2.8067  1.6963
  695MOL0     H91739   8.691   3.991   8.646  0.3380 -0.5726 -0.2139
  695MOL0     H91740   8.667   3.833   8.833 -1.5422  0.2872  2.1444
  696MOL0     O91741   5.756   2.675   9.323  0.0529  0.3958 -0.1319
  696MOL0     C91742   5.876   2.701   9.355  0.1914 -0.1474 -0.6357
  696MOL0     O91743   5.903   2.783   9.459 -0.2458 -0.7576  0.8604
  696MOL0     C91744   5.811   2.803   9.555 -0.0077  0.8701 -0.0529
  696MOL0     C91745   5.749   2.705   9.635 -1.2279  0.8442  0.2143
  696MOL0     C91746   5.654   2.741   9.725 -0.0070  0.2080 -0.9307
  696MOL0     C91747   5.598   2.867   9.728  0.2496 -0.7312  0.5821
  696MOL0     O91748   5.493   2.882   9.804  0.0491 -0.1231  0.4436
  696MOL0     C91749   5.387   2.980   9.763  0.1210 -0.8223 -0.8191
  696MOL0     C91750   5.254   2.940   9.832  0.6811 -0.7161 -0.4532
  696MOL0     C91751   5.128   2.960   9.743  0.7875 -0.0478 -0.3605
  696MOL0     C91752   5.002   2.970   9.827 -0.4464  1.3103  0.5234
  696MOL0     C91753   4.882   3.001   9.746 -0.4036  0.5000 -0.7052
  696MOL0     C91754   4.816   2.871   9.684  0.3389 -0.4138  0.1445
  696MOL0     C91755   4.710   2.929   9.583 -0.4226 -0.8055 -0.0796
  696MOL0     C91756   4.622   2.828   9.521 -0.8105  0.6438  0.1657
  696MOL0     N91757   4.487   2.888   9.516 -0.2831  0.1443 -0.6545
  696MOL0     C91758   4.407   2.904   9.404  0.0153  0.8752  0.0336
  696MOL0     C91759   4.280   2.896   9.445  0.1578 -0.0679 -0.1955
  696MOL0     C91760   4.160   2.905   9.353 -0.0189 -0.1387  0.3445
  696MOL0     C91761   4.079   2.786   9.373  0.3289  0.1504 -0.4920
  696MOL0     C91762   3.946   2.791   9.297  0.3455  0.1504 -0.0990
  696MOL0     C91763   3.863   2.662   9.316  0.7577 -0.3430 -0.2890
  696MOL0     O91764   3.753   2.659   9.227  0.2855 -0.4531  0.0271
  696MOL0     C91765   3.668   2.556   9.220  0.3672  0.8372  0.3259
  696MOL0     C91766   3.655   2.445   9.300  0.2975  0.0962 -0.2871
  696MOL0     C91767   3.546   2.353   9.290  0.2194 -0.1102 -0.3026
  696MOL0     C91768   3.448   2.365   9.189  0.1035  0.3320 -0.5153
  696MOL0     C91769   3.333   2.262   9.176 -1.0342 -0.3884 -0.1798
  696MOL0     O91770   3.234   2.290   9.082 -0.1522  0.4830 -0.0288
  696MOL0     C91771   3.129   2.199   9.091 -0.3758 -1.2090  0.2380
  696MOL0     C91772   3.117   2.111   8.981 -1.3797 -0.0848 -0.4656
  696MOL0     C91773   3.015   2.011   8.988 -0.3536 -0.4005  0.7241
  696MOL0     C91774   2.924   2.005   9.094  0.2933  0.3276 -0.9520
  696MOL0     O91775   2.827   1.903   9.094  0.4037  0.1410  1.0898
  696MOL0     C91776   2.785   1.846   9.217 -0.4921 -0.1729 -0.1538
  696MOL0     C91777   2.697   1.728   9.189 -0.3813  0.6861  0.2651
  696MOL0     C91778   2.552   1.752   9.143 -0.0051  0.5743 -0.3903
  696MOL0     C91779   2.477   1.627   9.082  0.8318 -0.0238  0.4227
  696MOL0     C91780   2.325   1.646   9.080  0.3887 -0.6021  0.3051
  696MOL0     C91781   2.259   1.666   9.224 -0.3739  0.9290  0.4325
  696MOL0     C91782   2.123   1.599   9.234  0.9345 -0.3681 -0.6020
  696MOL0     C91783   2.025   1.683   9.154  0.2497 -0.2305  0.0631
  696MOL0    Cl91784   2.001   1.842   9.230  0.4224  0.0823 -0.0650
  696MOL0     C91785   2.936   2.092   9.201 -0.5284  0.1096  0.2187
  696MOL0     C91786   3.034   2.197   9.189 -0.3211  0.1118 -0.8063
  696MOL0     O91787   3.342   2.170   9.253  0.7158 -0.0671 -0.8219
  696MOL0     C91788   3.463   2.474   9.091 -0.0365  0.1436  0.1460
  696MOL0     C91789   3.572   2.562   9.113  0.4392  0.2239 -0.2463
  696MOL0     N91790   4.279   2.876   9.579  0.1898 -0.2149 -0.1884
  696MOL0     N91791   4.398   2.877   9.622  0.5955  0.7475  0.7096
  696MOL0     C91792   5.661   2.964   9.649  0.8091 -0.5977 -0.2335
  696MOL0     C91793   5.768   2.936   9.565 -0.6827 -0.6629  0.1719
  696MOL0     C91794   5.983   2.680   9.254 -0.4949  0.7402 -0.3127
  696MOL0     C91795   5.952   2.608   9.135 -0.4003  1.1239 -1.3229
  696MOL0     C91796   6.059   2.591   9.043  0.5462 -0.7965 -0.3096
  696MOL0     C91797   6.188   2.621   9.069  0.6693  0.0595 -1.4588
  696MOL0     O91798   6.277   2.589   8.971  0.0205 -0.0725 -0.4013
  696MOL0     C91799   6.417   2.634   8.979 -0.2881 -0.0752  0.0290
  696MOL0     C91800   6.454   2.629   8.829 -0.1824  0.4662  0.2000
  696MOL0     C91801   6.463   2.483   8.783 -0.1101  0.8339  0.4095
  696MOL0     C91802   6.509   2.474   8.643  0.1239  0.4488  0.0616
  696MOL0     C91803   6.548   2.335   8.619  0.7605  0.0020 -0.3704
  696MOL0     C91804   6.602   2.228   8.604  0.2503  0.0226  0.4457
  696MOL0     C91805   6.213   2.704   9.184 -0.3980 -0.0226  0.4191
  696MOL0     C91806   6.115   2.734   9.271  0.6008  1.4189  0.5081
  696MOL0     H91807   5.789   2.605   9.626  0.9166  1.2782  3.3399
  696MOL0     H91808   5.624   2.667   9.798  1.2100  1.4425  0.9207
  696MOL0     H91809   5.372   2.972   9.655 -0.2034 -0.2926 -0.8198
  696MOL0     H91810   5.420   3.080   9.792  1.2986 -1.2359 -0.6886
  696MOL0     H91811   5.242   2.994   9.926  1.5750 -0.0710 -0.6892
  696MOL0     H91812   5.274   2.835   9.855  1.8033 -0.1665  1.2182
  696MOL0     H91813   5.135   2.879   9.670  3.1834  0.2632 -0.5848
  696MOL0     H91814   5.142   3.055   9.689 -0.5393 -0.2276 -1.0528
  696MOL0     H91815   4.997   2.885   9.896  1.4821 -0.8885 -1.8462
  696MOL0     H91816   5.013   3.063   9.884  1.2853  1.5285 -0.1142
  696MOL0     H91817   4.908   3.074   9.670 -1.1868  0.6526 -0.8332
  696MOL0     H91818   4.802   3.051   9.801 -0.6718  1.2765 -1.7708
  696MOL0     H91819   4.774   2.815   9.768  2.0420 -1.2113  0.5214
  696MOL0     H91820   4.878   2.803   9.625  1.0861 -0.7033  1.2406
  696MOL0     H91821   4.649   3.004   9.634  1.0142  0.3049  0.0843
  696MOL0     H91822   4.781   2.967   9.509  2.0784 -2.5584  1.2545
  696MOL0     H91823   4.614   2.746   9.593  0.4651  1.8930  1.7941
  696MOL0     H91824   4.645   2.807   9.416  1.2297  3.7960 -0.1684
  696MOL0     H91825   4.444   2.916   9.302 -1.7137 -1.6536 -1.0017
  696MOL0     H91826   4.198   2.915   9.251 -0.3481 -0.0013  0.2331
  696MOL0     H91827   4.091   2.989   9.368 -2.4879 -1.8863 -0.5252
  696MOL0     H91828   4.064   2.771   9.480  1.8228 -0.2697 -0.3180
  696MOL0     H91829   4.135   2.697   9.344 -1.0171 -1.4005  1.4524
  696MOL0     H91830   3.887   2.876   9.334 -0.4481 -1.1200  1.6685
  696MOL0     H91831   3.972   2.813   9.193 -0.2302 -1.3489 -0.5802
  696MOL0     H91832   3.828   2.652   9.418 -0.2723 -2.0696 -0.7738
  696MOL0     H91833   3.931   2.577   9.301  3.1853  1.3016  0.6120
  696MOL0     H91834   3.731   2.425   9.375  0.7414 -1.4078 -1.0912
  696MOL0     H91835   3.544   2.266   9.354  1.3898  0.1676  0.1278
  696MOL0     H91836   3.192   2.096   8.904  1.0762  1.5295  1.4642
  696MOL0     H91837   2.990   1.942   8.907 -1.1222 -0.3540  0.9098
  696MOL0     H91838   2.729   1.905   9.291  1.6540 -0.1458  1.5665
  696MOL0     H91839   2.873   1.804   9.267 -1.6084 -3.0731 -0.4687
  696MOL0     H91840   2.690   1.667   9.280 -0.7290  0.5984  0.1808
  696MOL0     H91841   2.751   1.669   9.114 -1.6922 -0.9689  0.5479
  696MOL0     H91842   2.554   1.841   9.080 -3.2080  2.1576  1.4974
  696MOL0     H91843   2.496   1.777   9.234  1.2620 -0.5976  0.7671
  696MOL0     H91844   2.519   1.610   8.983 -2.1669  0.6434 -1.0647
  696MOL0     H91845   2.492   1.544   9.152 -3.3320  0.6189  2.4209
  696MOL0     H91846   2.286   1.559   9.026  1.3714  0.1001 -1.6426
  696MOL0     H91847   2.311   1.736   9.019  0.1290 -0.4397  0.5966
  696MOL0     H91848   2.267   1.774   9.240  1.4356  0.4817  3.1052
  696MOL0     H91849   2.323   1.623   9.301  0.9104  1.1019 -0.4964
  696MOL0     H91850   2.130   1.494   9.206  1.5702 -0.5577  0.2099
  696MOL0     H91851   2.095   1.597   9.340  1.2942  0.0535 -0.4964
  696MOL0     H91852   1.933   1.624   9.154  0.5022 -0.6440  0.6354
  696MOL0     H91853   2.061   1.693   9.052 -2.0896 -1.3339 -0.9538
  696MOL0     H91854   2.857   2.092   9.274 -1.6277  0.4671 -0.9345
  696MOL0     H91855   3.034   2.279   9.260  1.4243 -0.1722 -0.4415
  696MOL0     H91856   3.399   2.481   9.004  1.1888 -1.5790 -0.9598
  696MOL0     H91857   3.586   2.644   9.043 -0.2554  1.5794  1.1294
  696MOL0     H91858   5.626   3.067   9.643  1.1431 -0.5544 -3.0025
  696MOL0     H91859   5.811   3.015   9.504  2.2474 -1.0753  1.5189
  696MOL0     H91860   5.854   2.571   9.108  0.4832 -2.2333 -0.3651
  696MOL0     H91861   6.034   2.545   8.948  2.2669 -0.5163 -0.9405
  696MOL0     H91862   6.485   2.570   9.036  0.4882  0.9933  0.3247
  696MOL0     H91863   6.422   2.737   9.013  0.3671 -0.4970  1.2678
  696MOL0     H91864   6.373   2.691   8.789 -1.9129 -2.7030 -1.6274
  696MOL0     H91865   6.546   2.685   8.811  2.0899 -2.6587  1.3372
  696MOL0     H91866   6.373   2.427   8.809  2.2385 -3.1670  0.7078
  696MOL0     H91867   6.537   2.430   8.844  0.9756 -0.0981 -1.6253
  696MOL0     H91868   6.430   2.499   8.573 -0.1843 -2.3589 -0.7263
  696MOL0     H91869   6.594   2.541   8.628  1.0274 -0.6171  0.2580
  696MOL0     H91870   6.642   2.129   8.600  1.1828  0.3221  1.6776
  696MOL0     H91871   6.312   2.739   9.209 -2.1811  3.5804  3.5272
  696MOL0     H91872   6.138   2.794   9.359  0.4272 -2.0561  3.1748
  697MOL0     O91873   6.147   4.830   0.691  0.4761  0.2175  0.2532
  697MOL0     C91874   6.134   4.775   0.805  0.8260  0.9703  0.4280
  697MOL0     O91875   6.236   4.728   0.881  0.2209 -0.8654 -0.1197
  697MOL0     C91876   6.362   4.734   0.829 -0.3790  0.2373  0.6657
  697MOL0     C91877   6.425   4.626   0.777  0.4481  0.1619  0.8921
  697MOL0     C91878   6.554   4.631   0.724 -0.7817  0.5150 -0.4825
  697MOL0     C91879   6.629   4.752   0.725 -0.4043  0.2984  0.2666
  697MOL0     O91880   6.759   4.767   0.674 -1.2230  0.5005  0.0166
  697MOL0     C91881   6.841   4.647   0.682  0.6241  0.4412  0.1466
  697MOL0     C91882   6.983   4.678   0.653  0.5296 -0.1985 -0.1512
  697MOL0     C91883   7.048   4.802   0.717  0.3030 -0.6839 -0.2228
  697MOL0     C91884   7.193   4.847   0.669  0.5454  0.0266 -0.3328
  697MOL0     C91885   7.250   4.955   0.750 -0.3022 -0.1969  0.0058
  697MOL0     C91886   7.384   4.989   0.686 -0.0709  0.4349 -0.3546
  697MOL0     C91887   7.459   5.090   0.770  0.2940  0.3602 -0.5975
  697MOL0     C91888   7.503   5.037   0.912  0.8223 -0.0263  0.6471
  697MOL0     N91889   7.627   4.952   0.896  0.7543  0.3281  0.5143
  697MOL0     C91890   7.746   5.009   0.885  0.0316 -0.5041  0.9143
  697MOL0     C91891   7.831   4.911   0.905 -0.1884  0.1803 -0.8241
  697MOL0     C91892   7.980   4.934   0.909 -0.0231  0.3204 -0.1461
  697MOL0     C91893   8.022   5.051   1.009  0.3303 -0.2644 -0.0290
  697MOL0     C91894   8.000   5.010   1.153  0.0732 -0.2198 -0.6420
  697MOL0     C91895   7.972   5.123   1.253 -0.4743  0.1203  0.6253
  697MOL0     O91896   7.840   5.191   1.228  0.0993 -0.1849 -0.2407
  697MOL0     C91897   7.727   5.132   1.267  0.1712  0.2810  0.7511
  697MOL0     C91898   7.710   4.999   1.317  0.0592  0.6390  0.0979
  697MOL0     C91899   7.586   4.953   1.353 -0.3092  0.3815 -0.9269
  697MOL0     C91900   7.469   5.024   1.319  1.0295  0.7259 -0.0075
  697MOL0     C91901   7.337   4.949   1.340  0.0784  0.0801  1.2250
  697MOL0     O91902   7.333   4.843   1.415 -0.2566  0.2165 -0.5235
  697MOL0     C91903   7.219   4.775   1.446 -0.6533  0.1466  0.4122
  697MOL0     C91904   7.124   4.728   1.361 -0.1417  0.3625 -0.8349
  697MOL0     C91905   6.999   4.665   1.405 -0.7586 -0.2834  0.1063
  697MOL0     C91906   6.982   4.649   1.542  1.0273  0.0275 -0.4777
  697MOL0     O91907   6.879   4.577   1.599 -0.4302 -0.2176 -0.7638
  697MOL0     C91908   6.776   4.536   1.508  0.6344  0.4115  0.0966
  697MOL0     C91909   6.660   4.449   1.571  0.4113 -0.8597 -0.7877
  697MOL0     C91910   6.608   4.521   1.693  0.0664 -0.4094 -0.3290
  697MOL0     C91911   6.479   4.445   1.730 -0.5107 -0.7515 -0.0573
  697MOL0     C91912   6.395   4.520   1.842 -0.3826  0.6536 -0.1989
  697MOL0     C91913   6.253   4.457   1.864 -0.2220  0.5055 -0.1040
  697MOL0     C91914   6.172   4.547   1.965  0.5667  0.2017  0.3286
  697MOL0     C91915   6.030   4.564   1.911 -0.4655  0.2169 -0.1468
  697MOL0    Cl91916   5.926   4.637   2.034 -0.2183 -0.2378  0.1438
  697MOL0     C91917   7.086   4.693   1.629  1.1377  0.6762 -0.3101
  697MOL0     C91918   7.201   4.754   1.580  0.1391 -0.4656  0.7351
  697MOL0     O91919   7.239   4.993   1.281  0.2766  0.1121 -0.6331
  697MOL0     C91920   7.483   5.147   1.258 -0.1622  0.2662  0.6287
  697MOL0     C91921   7.609   5.201   1.242 -0.1397  0.3337  0.3271
  697MOL0     N91922   7.764   4.793   0.898  0.0279  0.8522  0.5569
  697MOL0     N91923   7.639   4.816   0.885  0.4854  0.2063  0.7692
  697MOL0     C91924   6.570   4.860   0.781  0.2691 -0.6394 -0.0370
  697MOL0     C91925   6.438   4.854   0.832 -0.1523  0.0299 -0.2458
  697MOL0     C91926   5.995   4.764   0.863 -0.2013  0.1181  1.2122
  697MOL0     C91927   5.879   4.786   0.785 -0.7451  0.1192  0.0173
  697MOL0     C91928   5.751   4.779   0.848  1.0043  0.1675  0.3142
  697MOL0     C91929   5.740   4.751   0.989  0.2737  0.2794  0.3913
  697MOL0     O91930   5.608   4.756   1.028 -0.2081  0.6333  0.5905
  697MOL0     C91931   5.579   4.814   1.156 -0.1954  0.6253 -0.2889
  697MOL0     C91932   5.480   4.727   1.233 -0.1626  0.0309  0.3149
  697MOL0     C91933   5.347   4.717   1.163  0.1305 -0.9219  0.8906
  697MOL0     C91934   5.253   4.619   1.229  0.0355 -0.1095  0.2800
  697MOL0     C91935   5.119   4.634   1.165 -0.1531 -0.1857 -0.6013
  697MOL0     C91936   5.000   4.648   1.136  0.4377  0.7716  0.2310
  697MOL0     C91937   5.858   4.733   1.061 -0.5104 -0.0857  0.5098
  697MOL0     C91938   5.980   4.730   0.997 -0.0360  0.0709 -0.2407
  697MOL0     H91939   6.379   4.528   0.772  2.6037 -0.8358 -0.5814
  697MOL0     H91940   6.589   4.542   0.672  1.5909  0.8714  0.3462
  697MOL0     H91941   6.811   4.578   0.603  3.0430 -1.0300  0.3866
  697MOL0     H91942   6.831   4.594   0.777 -1.1632  2.6344  1.2782
  697MOL0     H91943   6.998   4.685   0.545  0.2014  0.9956 -0.1317
  697MOL0     H91944   7.036   4.593   0.698  0.2779 -0.2266  0.0962
  697MOL0     H91945   7.051   4.780   0.825 -3.7575 -0.8331  0.0365
  697MOL0     H91946   6.982   4.889   0.711 -0.5382 -1.1087  1.8560
  697MOL0     H91947   7.253   4.755   0.664 -0.0154 -0.5436  2.2892
  697MOL0     H91948   7.191   4.870   0.562  1.7665 -3.2774 -1.2061
  697MOL0     H91949   7.264   4.916   0.852  1.0765  1.6279  0.5631
  697MOL0     H91950   7.187   5.045   0.751 -2.0332 -1.3242  2.1005
  697MOL0     H91951   7.381   5.034   0.586 -0.9330  2.0811  0.3637
  697MOL0     H91952   7.435   4.892   0.683  0.9402  0.9376 -0.0070
  697MOL0     H91953   7.555   5.119   0.727  0.2357 -0.0733 -1.0286
  697MOL0     H91954   7.390   5.175   0.776 -1.8753 -1.2001 -1.9712
  697MOL0     H91955   7.432   4.972   0.964  1.4841 -1.0094  0.3348
  697MOL0     H91956   7.521   5.130   0.968 -2.3367 -1.0119  3.7552
  697MOL0     H91957   7.773   5.114   0.879  0.5206 -0.7101 -1.3650
  697MOL0     H91958   8.022   4.963   0.812 -0.7088  1.2401 -0.1786
  697MOL0     H91959   8.030   4.840   0.933 -2.3505 -1.3401 -1.3725
  697MOL0     H91960   7.960   5.140   0.995 -1.3851 -0.9837  2.4434
  697MOL0     H91961   8.128   5.081   1.003 -0.2810  3.3981  3.1457
  697MOL0     H91962   7.916   4.940   1.153 -0.0840 -0.0495 -1.8801
  697MOL0     H91963   8.090   4.956   1.187  0.1327 -0.7688 -1.6273
  697MOL0     H91964   8.052   5.195   1.237  0.3585 -1.2472 -2.0708
  697MOL0     H91965   7.970   5.081   1.354 -2.2853 -0.2400  0.4771
  697MOL0     H91966   7.801   4.943   1.336  0.9064  2.7432  2.8906
  697MOL0     H91967   7.584   4.850   1.385 -0.2835  0.3731 -0.9528
  697MOL0     H91968   7.144   4.729   1.255 -3.7473 -1.2862 -1.6754
  697MOL0     H91969   6.928   4.627   1.333  0.2199 -2.7374  0.3446
  697MOL0     H91970   6.824   4.464   1.441  1.8728 -1.3844  2.7358
  697MOL0     H91971   6.728   4.625   1.467 -0.1386  1.9456  3.8741
  697MOL0     H91972   6.688   4.346   1.592  2.3827  0.4356  4.7251
  697MOL0     H91973   6.583   4.454   1.493 -3.8284  2.2395  3.0184
  697MOL0     H91974   6.591   4.626   1.666  2.2380 -0.5067 -2.4305
  697MOL0     H91975   6.674   4.520   1.781 -1.6649  0.2009  1.0365
  697MOL0     H91976   6.430   4.435   1.633  2.2894  0.4404 -1.7056
  697MOL0     H91977   6.500   4.344   1.767  2.2671 -0.5852 -0.9602
  697MOL0     H91978   6.373   4.620   1.803  0.0551  0.8437  0.0317
  697MOL0     H91979   6.455   4.532   1.932 -0.9711  0.3580  0.2444
  697MOL0     H91980   6.270   4.356   1.902 -0.8765  1.3931  2.7721
  697MOL0     H91981   6.209   4.457   1.764  0.0856 -0.8875 -0.2609
  697MOL0     H91982   6.162   4.490   2.058 -4.9825 -3.9041 -2.1720
  697MOL0     H91983   6.211   4.648   1.978 -1.3535  1.0253  0.1279
  697MOL0     H91984   5.983   4.468   1.884  0.0629 -0.2061  0.4035
  697MOL0     H91985   6.030   4.623   1.819 -2.3469 -0.2842 -0.5075
  697MOL0     H91986   7.089   4.679   1.737  0.1907 -1.9558 -0.5613
  697MOL0     H91987   7.278   4.783   1.651  2.7247 -1.2710 -1.6040
  697MOL0     H91988   7.389   5.189   1.221 -0.2087  0.5778  1.0941
  697MOL0     H91989   7.623   5.304   1.210  2.2451  0.1984  0.7292
  697MOL0     H91990   6.621   4.955   0.794 -1.0774 -0.2228  3.5175
  697MOL0     H91991   6.396   4.946   0.873  3.1945  0.6846  2.0955
  697MOL0     H91992   5.887   4.813   0.681  0.5428  2.0267  0.5591
  697MOL0     H91993   5.657   4.799   0.798 -0.3861  0.7995  2.9824
  697MOL0     H91994   5.537   4.914   1.164 -3.5093 -0.6299 -0.5527
  697MOL0     H91995   5.671   4.815   1.216  1.4420 -1.9827 -2.4827
  697MOL0     H91996   5.520   4.626   1.241  0.9998  0.6047  2.3732
  697MOL0     H91997   5.471   4.769   1.334  3.2503  0.0739  0.6991
  697MOL0     H91998   5.363   4.672   1.064 -3.6605 -0.2485 -0.1955
  697MOL0     H91999   5.301   4.815   1.146 -1.6777 -1.9179 -0.3336
  697MOL0     H92000   5.294   4.518   1.215 -1.2081 -0.7158  0.7955
  697MOL0     H92001   5.247   4.644   1.335 -1.3962 -2.3393  0.7940
  697MOL0     H92002   4.898   4.680   1.120 -0.4364 -2.7025 -2.2585
  697MOL0     H92003   5.858   4.715   1.168 -1.2915  2.5167  1.0295
  697MOL0     H92004   6.069   4.724   1.059  0.8797  0.7529 -1.4305
  698MOL0     O92005   0.775  10.073  10.970 -0.9264  0.4000 -0.0233
  698MOL0     C92006   0.780  10.183  11.030  0.0824  1.3067  0.1329
  698MOL0     O92007   0.879  10.224  11.112  0.6536  0.5491 -0.0846
  698MOL0     C92008   0.983  10.136  11.120  0.2596  0.2893 -0.1999
  698MOL0     C92009   0.982  10.019  11.194 -1.1253  0.1254 -1.0002
  698MOL0     C92010   1.091   9.929  11.187 -0.4039  0.2086 -0.0237
  698MOL0     C92011   1.208   9.960  11.117 -0.4903  0.5522  0.6301
  698MOL0     O92012   1.319   9.877  11.131  0.4765  0.7700  0.0235
  698MOL0     C92013   1.442   9.945  11.136  0.0233 -0.4930 -0.3613
  698MOL0     C92014   1.543   9.842  11.178 -0.1043  0.1371 -0.0929
  698MOL0     C92015   1.519   9.797  11.323 -0.3211 -0.6711  0.1676
  698MOL0     C92016   1.511   9.911  11.435 -0.0695  0.1526  0.7288
  698MOL0     C92017   1.507   9.852  11.580 -0.4796 -0.0813  0.0314
  698MOL0     C92018   1.376   9.772  11.606 -0.0795 -0.0335 -0.8427
  698MOL0     C92019   1.238   9.827  11.560 -0.3188 -0.5742 -0.1117
  698MOL0     C92020   1.126   9.722  11.589 -0.1627 -0.6181 -0.3548
  698MOL0     N92021   0.994   9.770  11.549 -0.1019 -0.0575 -0.7477
  698MOL0     C92022   0.903   9.846  11.612  0.0098 -0.4048  0.2312
  698MOL0     C92023   0.801   9.877  11.524  0.0269  0.9587 -0.2596
  698MOL0     C92024   0.675   9.954  11.563 -0.3651 -0.8184 -0.8914
  698MOL0     C92025   0.616   9.916  11.694  0.4803  0.3168  0.1657
  698MOL0     C92026   0.550   9.780  11.690  0.0887 -0.9840 -0.4119
  698MOL0     C92027   0.462   9.747  11.808 -0.2174  0.2935 -0.7027
  698MOL0     O92028   0.353   9.837  11.800 -0.3663 -0.1718 -0.2553
  698MOL0     C92029   0.260   9.836  11.899  0.6911 -0.5587  0.4764
  698MOL0     C92030   0.252   9.749  12.010  0.3289  1.1543 -0.1489
  698MOL0     C92031   0.141   9.752  12.098 -0.3039  0.5837  0.3362
  698MOL0     C92032   0.028   9.829  12.074  0.7992 -0.3235  0.1510
  698MOL0     C92033  -0.092   9.835  12.155  0.3110  0.5127 -0.2908
  698MOL0     O92034  -0.115   9.724  12.239  0.3860 -0.3620  0.6643
  698MOL0     C92035  -0.237   9.676  12.279  0.1685 -0.0214 -0.0133
  698MOL0     C92036  -0.348   9.756  12.321 -0.3524  0.2918 -0.6702
  698MOL0     C92037  -0.463   9.704  12.359 -0.6111  0.7093 -0.3647
  698MOL0     C92038  -0.475   9.566  12.364 -0.4400  0.2587  0.6865
  698MOL0     O92039  -0.598   9.523  12.406  0.2073 -0.7244 -0.3405
  698MOL0     C92040  -0.671   9.433  12.321 -0.1918 -0.5216 -0.6030
  698MOL0     C92041  -0.823   9.432  12.363 -0.0858 -0.8701 -0.0595
  698MOL0     C92042  -0.832   9.410  12.515  0.1384 -0.0687 -0.1935
  698MOL0     C92043  -0.924   9.302  12.551  0.4854 -0.4326  0.0659
  698MOL0     C92044  -0.918   9.283  12.703 -0.5052 -0.2114  0.3334
  698MOL0     C92045  -1.016   9.164  12.729  0.4829 -0.4132 -0.3138
  698MOL0     C92046  -1.034   9.139  12.875  0.5546  0.9637 -0.0932
  698MOL0     C92047  -1.138   9.244  12.936  0.1038  0.2665 -1.0690
  698MOL0    Cl92048  -1.306   9.214  12.876 -0.2081  0.5526  0.0606
  698MOL0     C92049  -0.372   9.482  12.304  0.5500 -0.7593  0.6589
  698MOL0     C92050  -0.252   9.537  12.263 -0.6179  0.8109  0.6686
  698MOL0     O92051  -0.173   9.921  12.133 -0.1968 -0.6730 -0.6323
  698MOL0     C92052   0.042   9.924  11.965 -0.2093 -0.4007 -0.1361
  698MOL0     C92053   0.147   9.926  11.877  0.0559 -1.0436 -1.4599
  698MOL0     N92054   0.837   9.819  11.409 -0.5189  0.3703 -0.6884
  698MOL0     N92055   0.941   9.748  11.424  0.3814 -0.3924 -0.5943
  698MOL0     C92056   1.209  10.076  11.038  0.3374  0.0492  0.0111
  698MOL0     C92057   1.093  10.160  11.041  0.8789 -0.7971 -0.6445
  698MOL0     C92058   0.677  10.285  11.007  0.6840  0.4428  0.0476
  698MOL0     C92059   0.596  10.328  11.114  0.2220  0.2480  0.4236
  698MOL0     C92060   0.475  10.397  11.085  0.3903 -0.2555  0.0165
  698MOL0     C92061   0.449  10.441  10.955  0.6160 -0.3447 -0.1683
  698MOL0     O92062   0.348  10.532  10.943  0.3350 -0.7644  0.0907
  698MOL0     C92063   0.219  10.474  10.936  0.3940 -0.4371  0.2001
  698MOL0     C92064   0.133  10.546  10.845  0.2794 -0.5869  0.5786
  698MOL0     C92065  -0.023  10.525  10.861  0.0189 -1.0065  0.8823
  698MOL0     C92066  -0.108  10.639  10.806  0.0791  0.7707  0.0932
  698MOL0     C92067  -0.092  10.663  10.663 -0.2071 -0.4218  0.0786
  698MOL0     C92068  -0.087  10.688  10.548  0.1031 -0.6938 -0.2076
  698MOL0     C92069   0.533  10.406  10.848  0.0020 -0.5086  0.0833
  698MOL0     C92070   0.634  10.315  10.879 -0.1105 -0.0776 -0.2292
  698MOL0     H92071   0.894   9.992  11.250  1.4288 -0.5574  3.0777
  698MOL0     H92072   1.087   9.829  11.230  0.6679 -0.6206 -1.7274
  698MOL0     H92073   1.423  10.029  11.203 -1.1707 -0.8978 -0.1598
  698MOL0     H92074   1.466   9.991  11.040 -1.5420  0.7276 -0.2211
  698MOL0     H92075   1.647   9.877  11.176 -0.8845  3.0675  2.3108
  698MOL0     H92076   1.530   9.754  11.115 -4.0007 -1.8838  3.0754
  698MOL0     H92077   1.598   9.730  11.358  0.0623  0.6800  2.0254
  698MOL0     H92078   1.425   9.745  11.341  0.6713 -2.8622 -0.6326
  698MOL0     H92079   1.604   9.966  11.417 -0.7043  0.8232 -0.7631
  698MOL0     H92080   1.425   9.978  11.427 -0.3535 -0.3712 -1.1761
  698MOL0     H92081   1.520   9.942  11.641  0.7786  2.0876 -3.1759
  698MOL0     H92082   1.597   9.794  11.603  0.5983  0.9464 -1.4382
  698MOL0     H92083   1.367   9.759  11.715  2.2341 -0.3115 -0.6346
  698MOL0     H92084   1.385   9.671  11.565 -0.7245  0.4782 -2.3106
  698MOL0     H92085   1.222   9.922  11.613  0.3604  0.8197 -2.2686
  698MOL0     H92086   1.242   9.848  11.453  0.4448  0.0917  0.0401
  698MOL0     H92087   1.118   9.699  11.695  0.7458  2.2806  0.4262
  698MOL0     H92088   1.151   9.628  11.539 -0.6974 -0.5219 -0.8246
  698MOL0     H92089   0.901   9.871  11.718  0.3752  1.0146 -0.0813
  698MOL0     H92090   0.600   9.940  11.485 -0.9786 -0.4848 -0.3806
  698MOL0     H92091   0.709  10.058  11.562 -2.3124 -0.1220 -3.1567
  698MOL0     H92092   0.534   9.988  11.704  1.3858  2.4196 -4.5112
  698MOL0     H92093   0.699   9.912  11.765  0.9147 -0.4441 -0.3737
  698MOL0     H92094   0.488   9.774  11.600 -1.0010  1.9349  0.0569
  698MOL0     H92095   0.638   9.714  11.685  1.1251  0.2631  0.5252
  698MOL0     H92096   0.521   9.745  11.900 -0.8668  1.3338 -0.2394
  698MOL0     H92097   0.424   9.645  11.796 -0.9743  0.1970  1.9017
  698MOL0     H92098   0.319   9.673  12.049  1.6335  2.9007  1.2008
  698MOL0     H92099   0.134   9.672  12.170 -3.0212  0.3059 -0.1153
  698MOL0     H92100  -0.336   9.864  12.327 -0.0830  0.4087 -2.6500
  698MOL0     H92101  -0.543   9.768  12.396 -1.9387 -1.5267  0.9176
  698MOL0     H92102  -0.625   9.334  12.329  1.1364  0.0344 -1.1387
  698MOL0     H92103  -0.653   9.475  12.221  3.9145  2.2782  1.0368
  698MOL0     H92104  -0.881   9.363  12.300 -0.6653 -0.0105 -0.5037
  698MOL0     H92105  -0.881   9.524  12.346 -1.4720 -1.3414  1.7940
  698MOL0     H92106  -0.866   9.504  12.560 -0.3742  1.4147 -3.4131
  698MOL0     H92107  -0.733   9.385  12.556  1.2864  2.9635 -0.8984
  698MOL0     H92108  -1.027   9.325  12.525 -0.6724 -2.0275  2.7643
  698MOL0     H92109  -0.898   9.205  12.507 -1.2552 -1.0331  0.3153
  698MOL0     H92110  -0.943   9.375  12.756  0.5536  0.5764 -0.4943
  698MOL0     H92111  -0.812   9.259  12.718 -0.0051  1.8278  0.2983
  698MOL0     H92112  -0.986   9.070  12.682  1.3187 -0.8735  1.0611
  698MOL0     H92113  -1.115   9.194  12.695  0.8970  0.9048 -0.3865
  698MOL0     H92114  -1.062   9.034  12.880 -0.0986  1.1482  0.3636
  698MOL0     H92115  -0.939   9.136  12.928 -0.2505 -0.0366  1.3630
  698MOL0     H92116  -1.107   9.347  12.918  1.6780  0.4898  2.2374
  698MOL0     H92117  -1.144   9.243  13.045 -1.8702  0.2043 -1.1426
  698MOL0     H92118  -0.393   9.377  12.282 -0.5546 -0.7471  1.5702
  698MOL0     H92119  -0.183   9.477  12.203 -1.8825 -0.8918  0.8389
  698MOL0     H92120  -0.044   9.989  11.958 -0.0440 -0.0438  1.0110
  698MOL0     H92121   0.162  10.005  11.805 -1.1949  2.2038  1.5670
  698MOL0     H92122   1.298  10.113  10.989  1.4802 -0.3319  1.7250
  698MOL0     H92123   1.090  10.249  10.980 -1.2594 -1.4616 -1.5942
  698MOL0     H92124   0.613  10.277  11.208  1.7909  1.4867  0.8640
  698MOL0     H92125   0.402  10.419  11.162 -0.0240 -0.0830 -0.4153
  698MOL0     H92126   0.181  10.478  11.039 -2.1775 -2.5132 -0.5621
  698MOL0     H92127   0.216  10.367  10.914 -1.5325 -0.6705  1.3905
  698MOL0     H92128   0.149  10.652  10.866  1.3882 -0.6178 -0.0455
  698MOL0     H92129   0.167  10.527  10.743  2.1627  1.1262  0.8271
  698MOL0     H92130  -0.045  10.502  10.965 -3.8682 -1.6698  0.0912
  698MOL0     H92131  -0.040  10.438  10.797  0.5477  1.3908 -2.8205
  698MOL0     H92132  -0.209  10.602  10.827 -0.3527  1.7144 -0.2780
  698MOL0     H92133  -0.077  10.724  10.867  0.6759 -0.5246  1.6879
  698MOL0     H92134  -0.100  10.696  10.442  0.1858  3.4026 -0.0817
  698MOL0     H92135   0.509  10.448  10.751  1.1841  3.3765  1.2970
  698MOL0     H92136   0.683  10.261  10.799 -2.6669  0.0562 -2.0003
  699MOL0     O92137   3.323   9.518   9.549 -0.4358  0.0537  0.2309
  699MOL0     C92138   3.386   9.610   9.503  0.6878  0.8156  0.2815
  699MOL0     O92139   3.331   9.728   9.476 -0.1433 -0.4722  0.6372
  699MOL0     C92140   3.222   9.782   9.538  0.4844  0.5066  0.4214
  699MOL0     C92141   3.187   9.757   9.671  0.6092 -0.1081  0.2334
  699MOL0     C92142   3.063   9.793   9.719  0.5701 -0.3708  0.2657
  699MOL0     C92143   2.976   9.871   9.647  0.0285 -0.2270  0.5772
  699MOL0     O92144   2.863   9.897   9.720 -0.5098 -0.1407 -0.0349
  699MOL0     C92145   2.764   9.986   9.675  0.1509 -0.4456 -0.0061
  699MOL0     C92146   2.632   9.960   9.758 -0.7242  0.8581 -0.2531
  699MOL0     C92147   2.524  10.061   9.715 -0.0202  0.0059 -0.9666
  699MOL0     C92148   2.396  10.050   9.803  0.3011 -0.2439  0.1511
  699MOL0     C92149   2.289   9.942   9.770 -0.6233 -0.1997 -0.8202
  699MOL0     C92150   2.180   9.914   9.876  0.1226 -0.4044 -0.1221
  699MOL0     C92151   2.108  10.041   9.924  0.8535  0.7497 -0.3065
  699MOL0     C92152   2.025  10.091   9.806  0.0851  0.1793 -0.1664
  699MOL0     N92153   1.929  10.192   9.854 -0.4197  0.2119 -0.2932
  699MOL0     C92154   1.958  10.327   9.856 -0.7262  0.2601  0.1014
  699MOL0     C92155   1.844  10.384   9.898 -0.0856  0.3581  0.1063
  699MOL0     C92156   1.820  10.519   9.938  0.8682 -0.2647  0.0711
  699MOL0     C92157   1.672  10.555   9.935  0.3048 -0.9845  0.1112
  699MOL0     C92158   1.660  10.702   9.976  1.5240  0.4165  0.7711
  699MOL0     C92159   1.536  10.767   9.902  0.5797  0.4258 -0.2600
  699MOL0     O92160   1.480  10.852   9.995 -0.2996  0.6918 -0.3471
  699MOL0     C92161   1.363  10.907   9.949 -0.1197 -0.0285  0.5784
  699MOL0     C92162   1.335  11.037  10.007  0.6970 -0.5711 -0.1388
  699MOL0     C92163   1.221  11.109   9.967 -0.2626 -0.3486  0.3239
  699MOL0     C92164   1.125  11.048   9.888 -0.1967  0.2773 -0.1862
  699MOL0     C92165   0.999  11.118   9.852 -0.1869 -0.3126 -0.2939
  699MOL0     O92166   0.933  11.068   9.737  0.1758  0.3844 -0.3113
  699MOL0     C92167   0.818  11.123   9.688 -0.1528 -0.0362 -0.3789
  699MOL0     C92168   0.727  11.031   9.630  0.7816  0.0320  0.1864
  699MOL0     C92169   0.601  11.079   9.584 -0.1509  0.5231 -0.0807
  699MOL0     C92170   0.563  11.212   9.590  0.4238  0.5404  0.3858
  699MOL0     O92171   0.435  11.238   9.552 -0.3430  0.1555 -0.1122
  699MOL0     C92172   0.391  11.360   9.599  0.3433 -0.1422 -0.2332
  699MOL0     C92173   0.244  11.374   9.584 -0.1432 -0.7368  0.3537
  699MOL0     C92174   0.173  11.267   9.652 -0.5922  0.0864  0.2941
  699MOL0     C92175   0.019  11.285   9.650 -0.5391 -0.2456  0.1682
  699MOL0     C92176  -0.046  11.179   9.734 -0.3016  0.0725 -0.7927
  699MOL0     C92177  -0.192  11.213   9.760  0.1524  0.0074 -0.5903
  699MOL0     C92178  -0.254  11.113   9.857 -0.6239 -0.0140  0.2292
  699MOL0     C92179  -0.397  11.147   9.899 -0.4232  0.0424  0.0621
  699MOL0    Cl92180  -0.403  11.315   9.947 -0.0215  0.3296  0.1583
  699MOL0     C92181   0.667  11.302   9.641 -0.0007 -0.4295 -0.2165
  699MOL0     C92182   0.793  11.262   9.686 -0.0794  0.2756  0.4347
  699MOL0     O92183   0.971  11.220   9.913  1.2299 -0.0468  0.2016
  699MOL0     C92184   1.155  10.924   9.825  0.3530 -0.0771  0.7015
  699MOL0     C92185   1.271  10.850   9.854 -0.0566 -0.0680  1.2331
  699MOL0     N92186   1.752  10.284   9.917  0.1763 -0.9106 -0.6239
  699MOL0     N92187   1.795  10.170   9.883  0.1813  0.1026  0.2396
  699MOL0     C92188   3.001   9.912   9.516  0.0569  0.1313  0.8254
  699MOL0     C92189   3.128   9.865   9.463  0.0115 -0.6029 -0.6817
  699MOL0     C92190   3.526   9.582   9.467  0.2482 -0.1153 -0.3903
  699MOL0     C92191   3.577   9.450   9.437 -0.4705 -0.4156  0.2717
  699MOL0     C92192   3.709   9.424   9.399  0.7851  0.7118  0.2371
  699MOL0     C92193   3.795   9.529   9.408 -0.2173  0.8185  0.5910
  699MOL0     O92194   3.918   9.488   9.367 -0.4879 -0.8143  0.3727
  699MOL0     C92195   4.035   9.586   9.364  0.3919 -1.1592 -0.1673
  699MOL0     C92196   4.167   9.515   9.339 -0.0220  0.9246 -0.1522
  699MOL0     C92197   4.197   9.471   9.193  0.3024  0.1273  0.4246
  699MOL0     C92198   4.328   9.397   9.196  0.3151 -0.5474  0.4459
  699MOL0     C92199   4.444   9.486   9.221 -0.5020  0.8714 -0.4052
  699MOL0     C92200   4.536   9.561   9.263  0.6447 -0.5618  0.8570
  699MOL0     C92201   3.741   9.657   9.435 -0.3768  0.5944  0.5013
  699MOL0     C92202   3.617   9.687   9.470 -0.2809 -0.1262 -1.2675
  699MOL0     H92203   3.257   9.698   9.728 -0.3856 -1.1965  0.3835
  699MOL0     H92204   3.046   9.758   9.821 -2.1892 -3.4562 -1.0823
  699MOL0     H92205   2.735   9.966   9.571 -1.1752 -1.6370  0.5613
  699MOL0     H92206   2.785  10.093   9.689 -0.2620 -0.5859  1.8867
  699MOL0     H92207   2.661   9.983   9.861 -1.0088  0.2921 -0.0415
  699MOL0     H92208   2.592   9.858   9.761  1.8785 -0.2199 -0.4215
  699MOL0     H92209   2.502  10.029   9.613 -0.8993  2.9549 -1.8056
  699MOL0     H92210   2.552  10.167   9.719 -2.2642  0.6242  0.4578
  699MOL0     H92211   2.425  10.043   9.909  1.7128 -0.7207 -0.2488
  699MOL0     H92212   2.345  10.147   9.803 -0.2554 -0.4703  2.2188
  699MOL0     H92213   2.349   9.853   9.747  2.2920  1.3241  0.3503
  699MOL0     H92214   2.236   9.968   9.678  1.2325 -0.1301 -1.9097
  699MOL0     H92215   2.229   9.869   9.963  3.7842 -2.2190 -2.8577
  699MOL0     H92216   2.102   9.844   9.845  2.1441 -2.4954 -0.7778
  699MOL0     H92217   2.042  10.014  10.007  0.1681  0.6082 -0.8977
  699MOL0     H92218   2.173  10.120   9.965  0.1052  0.2121  2.0481
  699MOL0     H92219   1.972  10.012   9.752 -0.1391  1.2832 -1.6406
  699MOL0     H92220   2.084  10.138   9.726  1.8812  1.6734  1.8992
  699MOL0     H92221   2.054  10.367   9.826 -0.8711 -0.6469 -1.6959
  699MOL0     H92222   1.869  10.578   9.860  2.4840  0.4993  1.6138
  699MOL0     H92223   1.861  10.547  10.035  2.5671  0.6902 -0.8634
  699MOL0     H92224   1.613  10.497  10.006  1.8285 -3.4258 -0.4880
  699MOL0     H92225   1.623  10.541   9.838 -0.9498  3.1755 -0.0374
  699MOL0     H92226   1.646  10.709  10.084  0.6986 -0.4565  0.7432
  699MOL0     H92227   1.744  10.761   9.938 -0.0064  1.7981 -0.6602
  699MOL0     H92228   1.465  10.689   9.873 -0.8035  1.9620 -1.2159
  699MOL0     H92229   1.543  10.826   9.810 -0.4831  2.3516  0.8233
  699MOL0     H92230   1.398  11.082  10.083 -0.5641  0.8378  0.1368
  699MOL0     H92231   1.210  11.209  10.008  0.1897 -0.4278  0.6494
  699MOL0     H92232   0.750  10.926   9.639 -0.4617 -0.3563 -0.8154
  699MOL0     H92233   0.518  11.019   9.550 -0.8013  0.8728  0.8589
  699MOL0     H92234   0.438  11.438   9.539  2.8845  0.3687  2.1880
  699MOL0     H92235   0.408  11.377   9.706 -0.8680 -1.0882  0.1392
  699MOL0     H92236   0.218  11.383   9.478  0.9499  2.2465  0.2504
  699MOL0     H92237   0.208  11.467   9.630 -0.1030 -1.6016  2.1995
  699MOL0     H92238   0.197  11.274   9.759 -1.8335  2.1526  0.4994
  699MOL0     H92239   0.201  11.168   9.615  0.8749  0.3087  0.7477
  699MOL0     H92240  -0.005  11.382   9.696 -4.2129  0.5897 -3.0220
  699MOL0     H92241  -0.020  11.286   9.548 -1.8172 -1.7708  0.5881
  699MOL0     H92242   0.008  11.170   9.829 -1.9683 -2.3932 -0.0057
  699MOL0     H92243  -0.038  11.074   9.703  1.6263 -0.8525  2.3622
  699MOL0     H92244  -0.254  11.232   9.672 -0.2664  0.2718 -0.2430
  699MOL0     H92245  -0.195  11.308   9.814 -3.7202  0.1433 -0.7914
  699MOL0     H92246  -0.251  11.017   9.806 -0.9751 -0.2446  0.6390
  699MOL0     H92247  -0.194  11.105   9.948  0.1342  3.6035  0.2161
  699MOL0     H92248  -0.428  11.082   9.982 -3.8840  3.4039  1.7248
  699MOL0     H92249  -0.467  11.132   9.816 -1.2226  1.4149  0.4384
  699MOL0     H92250   0.642  11.408   9.647 -3.7658 -0.9138 -3.0703
  699MOL0     H92251   0.868  11.331   9.725  1.8635 -0.7183 -1.3441
  699MOL0     H92252   1.085  10.870   9.762  1.0888  0.7611 -0.8780
  699MOL0     H92253   1.290  10.756   9.805 -0.8001  0.3901  0.0151
  699MOL0     H92254   2.928   9.974   9.465 -0.7233 -1.1902  0.2858
  699MOL0     H92255   3.147   9.892   9.360 -0.7732  1.5319 -0.3316
  699MOL0     H92256   3.508   9.368   9.451  1.6069 -2.8135 -2.3910
  699MOL0     H92257   3.738   9.320   9.390  1.0538  0.6757  1.3932
  699MOL0     H92258   4.037   9.655   9.449  1.3540 -0.1726 -0.9512
  699MOL0     H92259   4.007   9.662   9.291  1.0614  1.4880  2.1604
  699MOL0     H92260   4.248   9.578   9.376  0.4068  2.4273 -3.2923
  699MOL0     H92261   4.178   9.421   9.393  2.3581 -1.6954 -4.5774
  699MOL0     H92262   4.210   9.552   9.120  1.4997 -1.4170 -1.1806
  699MOL0     H92263   4.114   9.405   9.166  0.7548  0.2663 -1.4863
  699MOL0     H92264   4.314   9.316   9.269  1.1031  2.4599  4.2285
  699MOL0     H92265   4.337   9.358   9.094 -0.3857 -2.2385  0.9903
  699MOL0     H92266   4.609   9.629   9.302 -1.2259  2.8904 -1.2231
  699MOL0     H92267   3.811   9.739   9.441  0.1786  0.0060  2.8585
  699MOL0     H92268   3.585   9.789   9.489 -0.4152 -0.1622 -1.2956
  700MOL0     O92269   1.117   3.190   2.507  0.0086 -0.8280 -0.1164
  700MOL0     C92270   1.105   3.075   2.458 -0.3103 -0.2491 -0.4408
  700MOL0     O92271   1.015   2.977   2.500 -0.0081 -0.5679  0.5952
  700MOL0     C92272   0.893   3.021   2.552 -0.4408  0.7873  0.0147
  700MOL0     C92273   0.785   2.989   2.476  0.3405  0.0386  0.3016
  700MOL0     C92274   0.658   3.000   2.531  0.0153 -0.3183 -0.5414
  700MOL0     C92275   0.635   3.073   2.648  0.0984  0.2775 -0.0827
  700MOL0     O92276   0.507   3.075   2.707 -0.2253  0.3652 -0.5633
  700MOL0     C92277   0.505   3.098   2.853  0.6493 -0.7055  0.4401
  700MOL0     C92278   0.372   3.049   2.907 -0.1452 -0.0088 -0.0820
  700MOL0     C92279   0.253   3.146   2.881 -0.6369  0.0014  0.1292
  700MOL0     C92280   0.126   3.084   2.927  0.2465  0.8424  1.1512
  700MOL0     C92281  -0.001   3.172   2.927 -0.1124  0.2037 -0.0010
  700MOL0     C92282  -0.118   3.092   2.977  0.1882 -0.5815  0.0637
  700MOL0     C92283  -0.255   3.140   2.932  0.0707 -0.8773  0.8543
  700MOL0     C92284  -0.296   3.277   2.990  0.8536 -0.9839 -0.7590
  700MOL0     N92285  -0.440   3.306   2.957 -0.5376  0.6494 -1.2492
  700MOL0     C92286  -0.544   3.305   3.038  0.2942  0.3768 -0.5601
  700MOL0     C92287  -0.651   3.302   2.962  0.3030 -0.0160 -0.7238
  700MOL0     C92288  -0.789   3.293   3.021  0.8280  0.2286  0.1340
  700MOL0     C92289  -0.858   3.425   3.018  0.3444 -0.0762  0.4572
  700MOL0     C92290  -0.996   3.407   3.074 -0.0550  0.1305  0.0389
  700MOL0     C92291  -1.079   3.531   3.067  0.3610 -0.3371  0.2062
  700MOL0     O92292  -1.192   3.503   3.142  0.0385  0.7701 -0.2354
  700MOL0     C92293  -1.290   3.583   3.183  0.6444 -0.5376 -0.4511
  700MOL0     C92294  -1.422   3.536   3.192  0.0170  0.5792  0.1026
  700MOL0     C92295  -1.530   3.622   3.238  0.4988 -0.3034  0.3456
  700MOL0     C92296  -1.498   3.757   3.270  0.1561 -0.2317  0.4278
  700MOL0     C92297  -1.611   3.845   3.317 -0.3907 -0.3104  0.7566
  700MOL0     O92298  -1.730   3.786   3.333  0.2322 -0.2289  0.4721
  700MOL0     C92299  -1.826   3.860   3.373 -0.4487 -1.0093  1.6500
  700MOL0     C92300  -1.934   3.873   3.290  0.7277  0.8009 -0.0596
  700MOL0     C92301  -2.048   3.941   3.335  0.2946  0.8543 -0.4642
  700MOL0     C92302  -2.053   3.988   3.469  0.1340 -0.2088  0.2661
  700MOL0     O92303  -2.150   4.063   3.521  0.1194 -0.2031  0.0081
  700MOL0     C92304  -2.209   4.167   3.438  0.4697 -0.3605 -0.4724
  700MOL0     C92305  -2.284   4.270   3.523  0.0110 -0.0330  0.1584
  700MOL0     C92306  -2.399   4.200   3.607 -0.1388  0.3149  0.7639
  700MOL0     C92307  -2.447   4.286   3.730  0.6640 -0.0629 -0.3514
  700MOL0     C92308  -2.583   4.252   3.781 -0.6095 -1.0559  0.0540
  700MOL0     C92309  -2.627   4.370   3.871  0.4808  0.8858 -0.6780
  700MOL0     C92310  -2.783   4.365   3.871  0.3112 -0.0866 -0.3728
  700MOL0     C92311  -2.840   4.446   3.983 -0.5461  1.1286 -0.0755
  700MOL0    Cl92312  -3.008   4.432   3.996 -0.2725 -0.0428  0.6153
  700MOL0     C92313  -1.942   3.965   3.546  0.8478  0.1847 -0.7699
  700MOL0     C92314  -1.827   3.914   3.502  0.0819 -1.0093  0.7974
  700MOL0     O92315  -1.582   3.965   3.330 -0.7901  0.1490 -0.2312
  700MOL0     C92316  -1.369   3.798   3.259 -0.9450  0.5221  0.1772
  700MOL0     C92317  -1.267   3.715   3.214 -0.5932 -0.4261  0.0241
  700MOL0     N92318  -0.608   3.296   2.832  0.4896  0.0432  0.4262
  700MOL0     N92319  -0.479   3.301   2.836 -0.6651  0.0928 -0.3877
  700MOL0     C92320   0.747   3.114   2.720  0.6738  0.0172  0.2993
  700MOL0     C92321   0.873   3.094   2.670  0.0195 -0.0067 -0.0808
  700MOL0     C92322   1.200   3.046   2.352  0.6244  0.8021  0.9931
  700MOL0     C92323   1.193   2.922   2.283 -0.5256  0.1163 -0.9021
  700MOL0     C92324   1.283   2.883   2.184  0.1347 -0.4301 -0.4553
  700MOL0     C92325   1.381   2.972   2.146 -0.0325 -0.0554 -0.0643
  700MOL0     O92326   1.478   2.919   2.066 -0.5722  0.0257  0.3420
  700MOL0     C92327   1.582   3.004   2.033  0.0352  0.0856  0.6881
  700MOL0     C92328   1.686   2.925   1.955  0.6080  0.1901  0.2636
  700MOL0     C92329   1.803   3.003   1.914  0.1110 -0.0090 -0.2530
  700MOL0     C92330   1.899   2.911   1.832  0.0287  0.5369 -0.4330
  700MOL0     C92331   2.025   2.981   1.802 -0.4444  0.4107 -0.4414
  700MOL0     C92332   2.126   3.046   1.781  0.5791 -0.1320  0.2146
  700MOL0     C92333   1.383   3.100   2.212 -0.7267  0.0041  0.1892
  700MOL0     C92334   1.297   3.135   2.317  0.7133  0.3670 -0.0198
  700MOL0     H92335   0.801   2.925   2.390 -2.9576  0.2507 -0.6002
  700MOL0     H92336   0.579   2.940   2.485  1.5753 -0.9295 -2.5570
  700MOL0     H92337   0.530   3.201   2.877 -0.1044 -0.8639  2.0050
  700MOL0     H92338   0.583   3.043   2.907  1.5174 -2.1207 -2.0541
  700MOL0     H92339   0.391   3.045   3.015 -0.0275 -0.2808 -0.1131
  700MOL0     H92340   0.349   2.949   2.870  0.2188  0.7514 -2.5622
  700MOL0     H92341   0.241   3.179   2.777 -1.2182  1.2471  0.5701
  700MOL0     H92342   0.281   3.237   2.936  1.8076 -0.8193  0.3639
  700MOL0     H92343   0.105   2.998   2.863 -0.7404  2.2606 -0.4918
  700MOL0     H92344   0.141   3.045   3.029  0.2436  2.0750  1.6343
  700MOL0     H92345  -0.011   3.217   2.828  0.1735  1.1451  0.3852
  700MOL0     H92346   0.010   3.262   2.988 -1.3437 -0.1073  0.7168
  700MOL0     H92347  -0.122   3.086   3.086 -1.0915  3.2511  0.3471
  700MOL0     H92348  -0.111   2.991   2.936 -1.5025 -0.4251 -0.6815
  700MOL0     H92349  -0.254   3.155   2.824 -0.1564  0.2169  0.9874
  700MOL0     H92350  -0.330   3.064   2.953 -0.4578 -0.5184  0.3207
  700MOL0     H92351  -0.231   3.351   2.942 -1.1019  0.0227 -1.9427
  700MOL0     H92352  -0.285   3.288   3.099 -0.1110  2.3415 -0.9079
  700MOL0     H92353  -0.540   3.288   3.145  0.0296  0.0564 -0.6004
  700MOL0     H92354  -0.786   3.259   3.125 -0.2477  0.6959  0.3303
  700MOL0     H92355  -0.847   3.216   2.969  1.4269  0.1896 -0.4939
  700MOL0     H92356  -0.864   3.459   2.914  0.5825  0.6977  0.6870
  700MOL0     H92357  -0.792   3.494   3.072  2.0721 -0.8812 -0.5425
  700MOL0     H92358  -1.043   3.334   3.007 -1.5647 -0.5543  1.7773
  700MOL0     H92359  -0.998   3.367   3.175  0.9002 -2.0730 -0.7452
  700MOL0     H92360  -1.116   3.544   2.965 -0.7371 -3.1627  0.1751
  700MOL0     H92361  -1.026   3.614   3.116  2.2639 -1.2385 -0.2516
  700MOL0     H92362  -1.439   3.433   3.161  3.3457  0.0345 -0.2895
  700MOL0     H92363  -1.634   3.591   3.241 -0.4385  2.6058  1.2907
  700MOL0     H92364  -1.926   3.814   3.199  1.0492  1.0297 -0.1798
  700MOL0     H92365  -2.140   3.948   3.279 -0.6171  2.9963  1.1930
  700MOL0     H92366  -2.282   4.119   3.373  1.1069 -0.5981 -1.0235
  700MOL0     H92367  -2.130   4.220   3.384  1.6506 -0.8518  0.6847
  700MOL0     H92368  -2.325   4.344   3.454 -2.8792  1.4230  3.1778
  700MOL0     H92369  -2.212   4.328   3.580  0.6162  0.0354 -0.6552
  700MOL0     H92370  -2.360   4.101   3.630  0.0511 -0.0069 -0.7854
  700MOL0     H92371  -2.481   4.178   3.537  0.5712  1.9491 -0.6673
  700MOL0     H92372  -2.381   4.291   3.817 -3.2830  0.8478  2.8289
  700MOL0     H92373  -2.450   4.388   3.692  0.7564  0.2483  0.4601
  700MOL0     H92374  -2.579   4.158   3.837  1.1609 -0.0911  1.6471
  700MOL0     H92375  -2.653   4.250   3.697  2.1574 -0.0438 -2.4620
  700MOL0     H92376  -2.585   4.466   3.842  0.9649  0.7731 -0.3616
  700MOL0     H92377  -2.591   4.349   3.972 -2.3172 -1.7158 -0.0521
  700MOL0     H92378  -2.817   4.422   3.784 -0.2316 -0.2067 -0.2403
  700MOL0     H92379  -2.818   4.263   3.852  2.7253 -0.8809 -1.0822
  700MOL0     H92380  -2.813   4.549   3.960 -0.9410  1.3233  0.3091
  700MOL0     H92381  -2.797   4.415   4.079  1.7114  2.4712 -0.5895
  700MOL0     H92382  -1.948   4.000   3.649  2.8591 -0.1373 -0.5092
  700MOL0     H92383  -1.738   3.888   3.558  0.0236 -1.7907  0.5498
  700MOL0     H92384  -1.349   3.902   3.285  1.2747  0.3231 -0.4642
  700MOL0     H92385  -1.171   3.762   3.193 -0.7315  0.5196  1.3721
  700MOL0     H92386   0.745   3.166   2.816 -0.2353  1.1239 -0.2930
  700MOL0     H92387   0.967   3.122   2.716  2.3326 -4.4043 -1.5646
  700MOL0     H92388   1.114   2.849   2.286 -0.3786 -0.0303 -0.5582
  700MOL0     H92389   1.276   2.788   2.133  1.5858 -0.0521 -1.4241
  700MOL0     H92390   1.639   3.032   2.122 -0.3900 -0.7040  1.2238
  700MOL0     H92391   1.544   3.092   1.980  0.9720 -0.8124 -1.5984
  700MOL0     H92392   1.704   2.830   2.005  0.9362  0.7642  1.2604
  700MOL0     H92393   1.651   2.889   1.858 -0.4973  2.3721 -0.2013
  700MOL0     H92394   1.861   3.047   1.996  1.3687  3.3769 -2.6880
  700MOL0     H92395   1.780   3.088   1.849  3.6803  1.1213 -0.2732
  700MOL0     H92396   1.915   2.811   1.875 -1.6601  1.2523  2.0581
  700MOL0     H92397   1.851   2.887   1.737 -2.0613  3.1196 -0.1261
  700MOL0     H92398   2.197   3.121   1.753 -1.6569  1.6945 -0.9218
  700MOL0     H92399   1.469   3.163   2.191 -1.6256  1.8955  1.8331
  700MOL0     H92400   1.331   3.223   2.370 -0.1169 -1.0459  3.0666
  701MOL0     O92401   2.843  10.929   8.859  0.2859  0.6554  0.9214
  701MOL0     C92402   2.890  10.824   8.813 -0.7047 -0.1567  1.1686
  701MOL0     O92403   3.015  10.799   8.772 -0.0085  0.0894  0.2001
  701MOL0     C92404   3.104  10.903   8.769 -0.4687 -0.7811  0.3866
  701MOL0     C92405   3.123  10.999   8.877  0.3978 -0.6671 -0.3583
  701MOL0     C92406   3.237  11.081   8.867  0.5509 -0.5875  0.3652
  701MOL0     C92407   3.317  11.093   8.746  0.7052  0.6736  0.2857
  701MOL0     O92408   3.414  11.176   8.736 -0.6932 -0.0647 -0.6767
  701MOL0     C92409   3.406  11.302   8.795  0.4229 -0.3717  0.3817
  701MOL0     C92410   3.491  11.300   8.922  0.0034  0.8535  0.5563
  701MOL0     C92411   3.464  11.412   9.018 -0.8829 -0.6536 -0.1926
  701MOL0     C92412   3.482  11.555   8.952  0.2315 -0.2337 -0.4943
  701MOL0     C92413   3.627  11.578   8.916 -0.0283  0.0223 -0.3940
  701MOL0     C92414   3.643  11.731   8.881 -0.3024  0.1595 -0.1114
  701MOL0     C92415   3.782  11.775   8.828 -0.1318 -0.3018  0.0718
  701MOL0     C92416   3.783  11.938   8.805  0.0687  0.0389  0.3396
  701MOL0     N92417   3.702  11.986   8.699 -0.1628 -0.4730  0.1905
  701MOL0     C92418   3.563  12.020   8.708  0.3629  0.5997  0.4104
  701MOL0     C92419   3.531  12.083   8.590 -0.9089 -0.3393 -0.0232
  701MOL0     C92420   3.402  12.132   8.545 -0.0679  0.5425  0.6085
  701MOL0     C92421   3.299  12.020   8.527  0.1039 -0.4117 -0.8021
  701MOL0     C92422   3.335  11.924   8.413 -0.1801 -0.3831  0.3948
  701MOL0     C92423   3.245  11.800   8.390 -0.6069 -0.3177  0.1491
  701MOL0     O92424   3.109  11.846   8.347 -0.5608  0.4222  0.0839
  701MOL0     C92425   3.008  11.758   8.316  0.1677  0.3974  0.5490
  701MOL0     C92426   3.013  11.624   8.346 -0.6572  0.9066 -0.7116
  701MOL0     C92427   2.906  11.541   8.321  0.5131 -0.7847  0.4104
  701MOL0     C92428   2.787  11.601   8.267  0.2315 -0.7460  0.0340
  701MOL0     C92429   2.661  11.527   8.245  0.0140  0.8352 -0.4769
  701MOL0     O92430   2.647  11.400   8.286 -0.4389 -0.2871 -0.2835
  701MOL0     C92431   2.567  11.309   8.228 -0.3471 -0.0456  0.3717
  701MOL0     C92432   2.444  11.336   8.151 -1.0450 -0.1799  0.0952
  701MOL0     C92433   2.358  11.239   8.106  0.1599  0.1856 -0.7660
  701MOL0     C92434   2.384  11.112   8.144  0.6722 -0.5901  0.0106
  701MOL0     O92435   2.301  11.014   8.092 -0.3552  0.4460 -0.2704
  701MOL0     C92436   2.379  10.912   8.025 -0.2084  0.3035 -0.3784
  701MOL0     C92437   2.288  10.845   7.920 -1.2633  0.0362  0.1910
  701MOL0     C92438   2.357  10.742   7.838 -0.3982  0.0390  0.4020
  701MOL0     C92439   2.260  10.648   7.766  0.3669 -0.4235 -0.5122
  701MOL0     C92440   2.325  10.591   7.640 -0.1006  0.2594 -0.1182
  701MOL0     C92441   2.458  10.517   7.682  0.1458  0.3242  2.0712
  701MOL0     C92442   2.510  10.424   7.568 -0.7119 -0.1603 -0.4279
  701MOL0     C92443   2.619  10.332   7.635  0.3749 -0.5778  0.3699
  701MOL0    Cl92444   2.736  10.408   7.738  0.2081  0.0551 -0.2068
  701MOL0     C92445   2.495  11.081   8.223 -0.2218 -0.1647  0.4447
  701MOL0     C92446   2.586  11.177   8.249 -0.1985 -0.0872 -0.0570
  701MOL0     O92447   2.578  11.584   8.177 -0.3365 -0.1540 -0.0814
  701MOL0     C92448   2.788  11.740   8.241  0.0396  0.1019  0.1356
  701MOL0     C92449   2.895  11.821   8.264  0.6892 -0.3071 -0.3986
  701MOL0     N92450   3.650  12.088   8.513  0.3514  0.4593  0.0568
  701MOL0     N92451   3.745  12.028   8.574 -0.6435  0.0949 -0.4551
  701MOL0     C92452   3.291  11.006   8.637  0.9053 -0.4713 -0.3085
  701MOL0     C92453   3.190  10.908   8.661 -0.4280  0.1178  0.4291
  701MOL0     C92454   2.796  10.707   8.801 -0.4763 -0.2744 -0.3074
  701MOL0     C92455   2.845  10.580   8.766  0.5834  0.3134 -0.0344
  701MOL0     C92456   2.758  10.463   8.761  0.1478  1.1248 -1.1482
  701MOL0     C92457   2.624  10.475   8.789 -0.4692  0.1647  0.0069
  701MOL0     O92458   2.538  10.368   8.781  0.7477 -0.7144  0.0328
  701MOL0     C92459   2.395  10.368   8.798 -0.1667 -0.1919  0.0494
  701MOL0     C92460   2.347  10.226   8.818  0.4594  0.0447 -0.0040
  701MOL0     C92461   2.203  10.210   8.876  0.0545 -0.2034 -0.5620
  701MOL0     C92462   2.088  10.268   8.788  0.5134  1.2475 -0.7953
  701MOL0     C92463   1.959  10.199   8.831 -0.5152 -0.1925 -0.7505
  701MOL0     C92464   1.870  10.125   8.863 -0.6828 -0.0260 -0.1870
  701MOL0     C92465   2.580  10.606   8.817  0.8517  0.0526  0.6214
  701MOL0     C92466   2.667  10.716   8.830  1.0189  0.2334 -0.4343
  701MOL0     H92467   3.052  11.000   8.959  2.1359 -0.1379  1.2055
  701MOL0     H92468   3.252  11.148   8.951  1.2924 -0.0207 -0.2084
  701MOL0     H92469   3.310  11.345   8.825  0.1680 -0.0093 -0.9133
  701MOL0     H92470   3.440  11.376   8.722  1.7949  1.1530  2.4274
  701MOL0     H92471   3.596  11.294   8.891  0.5070  2.7006  1.7233
  701MOL0     H92472   3.481  11.203   8.971  4.3470  0.7494  1.6207
  701MOL0     H92473   3.531  11.407   9.104 -0.1750  0.1291 -0.6819
  701MOL0     H92474   3.361  11.414   9.053 -0.5845  3.9045  1.0301
  701MOL0     H92475   3.419  11.558   8.863 -1.3907 -0.2745  0.6233
  701MOL0     H92476   3.450  11.636   9.018 -0.4708 -0.3255 -0.7127
  701MOL0     H92477   3.649  11.519   8.826  2.8130  4.4002 -2.9802
  701MOL0     H92478   3.700  11.558   8.995  1.0202 -0.2199 -1.4036
  701MOL0     H92479   3.629  11.787   8.974 -0.5750 -0.8591  0.4749
  701MOL0     H92480   3.558  11.756   8.817 -2.3510  0.3763  2.5045
  701MOL0     H92481   3.852  11.757   8.910  0.1708 -2.1632 -0.5294
  701MOL0     H92482   3.810  11.716   8.740  0.1689  2.3096 -1.6942
  701MOL0     H92483   3.886  11.964   8.781  0.8220 -3.6226 -1.0972
  701MOL0     H92484   3.748  11.988   8.896  1.2704 -2.5535  2.3883
  701MOL0     H92485   3.501  12.027   8.797  2.4963 -0.3563  2.0496
  701MOL0     H92486   3.405  12.187   8.451 -1.7442  3.1842  1.9891
  701MOL0     H92487   3.360  12.198   8.621 -2.7477  0.2146 -0.4593
  701MOL0     H92488   3.212  12.082   8.504  0.9963  1.5417  0.8012
  701MOL0     H92489   3.283  11.966   8.621 -1.8790 -3.0217 -2.5072
  701MOL0     H92490   3.333  11.997   8.332 -0.9293  1.8306  2.2881
  701MOL0     H92491   3.441  11.898   8.415  1.1280  3.4866 -2.8846
  701MOL0     H92492   3.238  11.736   8.479  0.6788  0.8267  1.1245
  701MOL0     H92493   3.292  11.743   8.310 -1.4082  0.3313 -0.7981
  701MOL0     H92494   3.110  11.582   8.372 -0.0342  2.2805 -0.7417
  701MOL0     H92495   2.898  11.434   8.338 -0.4302 -0.6761  0.7189
  701MOL0     H92496   2.409  11.436   8.129  1.8959  0.9828  0.1193
  701MOL0     H92497   2.272  11.252   8.042 -3.7042 -2.7650  3.2720
  701MOL0     H92498   2.404  10.843   8.106 -4.8326  2.3108  3.2632
  701MOL0     H92499   2.460  10.954   7.965  0.6299 -0.4025  0.2395
  701MOL0     H92500   2.228  10.914   7.861 -0.6304  0.7426  0.3412
  701MOL0     H92501   2.215  10.786   7.976 -0.2633 -0.5517  0.9139
  701MOL0     H92502   2.412  10.678   7.907  0.9580  2.2069  1.4191
  701MOL0     H92503   2.413  10.795   7.760 -1.4126 -2.1568 -1.9521
  701MOL0     H92504   2.231  10.568   7.835 -1.4614  1.5010  1.0985
  701MOL0     H92505   2.169  10.703   7.740  1.9314  3.4556  1.4861
  701MOL0     H92506   2.346  10.680   7.580 -1.4607  1.7474  1.5181
  701MOL0     H92507   2.252  10.527   7.589 -1.3197 -0.0425  1.9102
  701MOL0     H92508   2.420  10.458   7.767  0.3601  0.7581  2.4715
  701MOL0     H92509   2.543  10.578   7.711  1.4176  0.0416 -0.7607
  701MOL0     H92510   2.431  10.364   7.523 -0.8587 -2.1618  2.2702
  701MOL0     H92511   2.563  10.487   7.496 -2.5036  2.3032  0.2565
  701MOL0     H92512   2.665  10.274   7.555 -1.6671 -3.0360  0.8537
  701MOL0     H92513   2.568  10.261   7.699  0.9004 -0.0791  1.3655
  701MOL0     H92514   2.521  10.977   8.242  1.2080 -0.1746 -1.3296
  701MOL0     H92515   2.670  11.154   8.314  0.4165  2.0719 -0.0274
  701MOL0     H92516   2.687  11.778   8.224  0.5060  1.3400  0.0601
  701MOL0     H92517   2.886  11.927   8.241  2.1211 -0.4467 -1.7198
  701MOL0     H92518   3.354  11.016   8.550  1.3338 -1.9535 -0.1836
  701MOL0     H92519   3.169  10.833   8.585 -0.7603 -0.2011  0.8227
  701MOL0     H92520   2.947  10.562   8.734 -0.1036 -3.4143 -0.6842
  701MOL0     H92521   2.794  10.364   8.733 -1.2974 -0.2403  1.4018
  701MOL0     H92522   2.342  10.409   8.711 -0.6031  2.3862  1.4263
  701MOL0     H92523   2.360  10.437   8.875 -1.0230 -1.3073  0.6977
  701MOL0     H92524   2.368  10.167   8.728  1.3462 -0.2016  0.3538
  701MOL0     H92525   2.416  10.187   8.893 -2.6364 -0.7412  2.6906
  701MOL0     H92526   2.191  10.247   8.979 -1.0281  0.1350 -0.7965
  701MOL0     H92527   2.186  10.102   8.883  1.4688 -0.6084 -2.5606
  701MOL0     H92528   2.085  10.376   8.803  0.1717  0.9599  1.6196
  701MOL0     H92529   2.111  10.245   8.684  1.3766 -2.7217  0.0919
  701MOL0     H92530   1.798  10.051   8.889 -1.1700  1.7789  4.5252
  701MOL0     H92531   2.473  10.615   8.833  0.9427  0.1615  1.1643
  701MOL0     H92532   2.621  10.809   8.863 -0.5730 -0.2602 -1.1977
  702MOL0     O92533  10.449  11.045   4.045 -0.8635 -0.3274 -0.3967
  702MOL0     C92534  10.495  11.060   3.935 -0.4443  0.2928  0.0796
  702MOL0     O92535  10.450  11.004   3.814 -0.3138 -0.4816 -1.0944
  702MOL0     C92536  10.347  10.919   3.806  0.3104  1.0359  0.2827
  702MOL0     C92537  10.230  10.927   3.885 -0.0967 -0.4791  0.4519
  702MOL0     C92538  10.135  10.827   3.873  0.5433 -0.2579 -0.3052
  702MOL0     C92539  10.139  10.731   3.765 -0.8436  0.4316  0.6831
  702MOL0     O92540  10.041  10.642   3.733  0.8128 -0.0558  0.5452
  702MOL0     C92541   9.914  10.654   3.805  0.7577  0.2528  0.0834
  702MOL0     C92542   9.814  10.560   3.734 -0.0709 -0.4038  0.1211
  702MOL0     C92543   9.675  10.569   3.807  0.4010  0.3655  0.0506
  702MOL0     C92544   9.568  10.464   3.767 -0.2493  0.9151  0.1149
  702MOL0     C92545   9.441  10.474   3.858  0.5675 -0.3582 -0.1886
  702MOL0     C92546   9.363  10.346   3.837 -0.7096  1.0030 -0.1388
  702MOL0     C92547   9.237  10.345   3.926  0.2306  0.1393  0.1065
  702MOL0     C92548   9.135  10.442   3.876  1.5153  0.3307 -0.7710
  702MOL0     N92549   9.004  10.414   3.934  0.7715 -0.1840 -0.1558
  702MOL0     C92550   8.974  10.460   4.053 -0.0563 -0.3150  0.4732
  702MOL0     C92551   8.842  10.444   4.068 -0.2405 -0.4112  0.1047
  702MOL0     C92552   8.765  10.483   4.198  0.0931  0.1879  0.8777
  702MOL0     C92553   8.629  10.399   4.209  0.0891  0.7472  0.4806
  702MOL0     C92554   8.548  10.420   4.339 -0.2129 -0.8440 -0.5870
  702MOL0     C92555   8.501  10.567   4.352  0.2849  0.2070  0.0750
  702MOL0     O92556   8.391  10.591   4.442 -1.4375  0.7644  0.3887
  702MOL0     C92557   8.267  10.581   4.388  0.6306  0.3486  0.4289
  702MOL0     C92558   8.239  10.501   4.280 -0.1656  0.3316 -0.3483
  702MOL0     C92559   8.110  10.483   4.230 -0.8958  0.0738  0.5739
  702MOL0     C92560   8.007  10.557   4.291 -1.0755 -0.0361  0.9911
  702MOL0     C92561   7.878  10.549   4.227 -0.7527  0.0351 -0.6063
  702MOL0     O92562   7.860  10.463   4.122 -0.3913  0.2444 -0.1669
  702MOL0     C92563   7.737  10.439   4.076 -0.3405  0.2149 -0.3629
  702MOL0     C92564   7.637  10.374   4.151 -0.9473 -0.3011 -0.0619
  702MOL0     C92565   7.510  10.363   4.097  0.6617  0.3097 -0.4429
  702MOL0     C92566   7.467  10.421   3.975  0.2605  0.1112  0.8008
  702MOL0     O92567   7.339  10.429   3.923 -0.2209  0.4115 -0.3760
  702MOL0     C92568   7.226  10.380   4.004 -0.4221  0.2215 -0.7790
  702MOL0     C92569   7.104  10.349   3.913  0.0324 -0.8448  0.2035
  702MOL0     C92570   6.977  10.286   3.975  0.3460 -0.3997 -0.3064
  702MOL0     C92571   6.866  10.251   3.872 -0.5061  0.4876 -0.1098
  702MOL0     C92572   6.748  10.197   3.951  0.2446  0.7313  0.3035
  702MOL0     C92573   6.656  10.122   3.855 -0.5760 -0.5191 -0.2617
  702MOL0     C92574   6.532  10.090   3.919 -0.6113  0.4437  0.1798
  702MOL0     C92575   6.440  10.010   3.830  0.2029  0.7066 -0.2108
  702MOL0    Cl92576   6.264  10.011   3.882  0.2673 -0.1558 -0.4809
  702MOL0     C92577   7.569  10.478   3.901  0.1686  0.3730  0.1131
  702MOL0     C92578   7.695  10.479   3.950 -0.4440  0.1150 -0.1155
  702MOL0     O92579   7.786  10.612   4.287 -0.0011 -0.4286  0.0473
  702MOL0     C92580   8.032  10.637   4.397 -0.4149  0.1093  0.1067
  702MOL0     C92581   8.164  10.638   4.452  0.4425  0.2395  0.3583
  702MOL0     N92582   8.790  10.398   3.950 -0.1152 -0.2507  0.6405
  702MOL0     N92583   8.887  10.375   3.870  0.2468 -0.3227 -0.0416
  702MOL0     C92584  10.251  10.736   3.684 -0.3062  0.4993  0.6263
  702MOL0     C92585  10.351  10.831   3.700 -0.1588  0.6620  0.3980
  702MOL0     C92586  10.603  11.153   3.906  0.1563 -0.2640  0.3703
  702MOL0     C92587  10.691  11.132   3.793  1.1441 -1.0374 -0.9980
  702MOL0     C92588  10.791  11.221   3.774  0.3864  0.2010 -0.3752
  702MOL0     C92589  10.814  11.338   3.859 -0.0922 -0.3031  0.3289
  702MOL0     O92590  10.902  11.441   3.848 -0.1956 -0.0429  0.2374
  702MOL0     C92591  10.975  11.451   3.728 -0.4624 -0.2944 -0.9842
  702MOL0     C92592  11.054  11.586   3.719  0.4913  0.3113 -0.1363
  702MOL0     C92593  10.956  11.698   3.687 -0.2962 -0.1058  0.5790
  702MOL0     C92594  11.028  11.832   3.685 -0.3839  0.6721 -0.6299
  702MOL0     C92595  11.092  11.863   3.811 -0.6642  0.0153  0.0447
  702MOL0     C92596  11.130  11.883   3.924  0.4578 -0.2102  0.0508
  702MOL0     C92597  10.747  11.339   3.975 -0.4487  1.2662 -0.5296
  702MOL0     C92598  10.641  11.250   3.997  0.0672  0.6288 -0.0337
  702MOL0     H92599  10.220  11.009   3.956 -0.5795 -1.3838  1.4525
  702MOL0     H92600  10.039  10.816   3.922  0.5036 -3.1896 -0.8830
  702MOL0     H92601   9.866  10.751   3.787 -1.3876 -0.9507 -1.0774
  702MOL0     H92602   9.926  10.633   3.912 -0.0387 -1.9685 -0.2242
  702MOL0     H92603   9.850  10.457   3.738  1.4221  0.1106  0.2702
  702MOL0     H92604   9.805  10.583   3.627  0.4714  0.7934  0.3145
  702MOL0     H92605   9.624  10.665   3.803 -0.9553 -0.2585  1.4595
  702MOL0     H92606   9.692  10.554   3.914  0.3361 -0.7491 -0.0842
  702MOL0     H92607   9.526  10.480   3.667  2.6570  0.4595 -1.2771
  702MOL0     H92608   9.608  10.364   3.782  0.4224  1.0880 -0.4398
  702MOL0     H92609   9.372  10.556   3.839  0.7821 -0.1700 -0.1566
  702MOL0     H92610   9.473  10.473   3.963 -3.0538  0.3774  1.0415
  702MOL0     H92611   9.420  10.258   3.868 -1.4487  0.3129 -0.6985
  702MOL0     H92612   9.343  10.326   3.731  1.4862 -0.6657 -0.3084
  702MOL0     H92613   9.189  10.249   3.909  0.8802 -0.0134 -1.0063
  702MOL0     H92614   9.263  10.362   4.031 -1.4997  0.4067  0.5299
  702MOL0     H92615   9.137  10.432   3.767  1.2563 -4.1074 -0.5532
  702MOL0     H92616   9.160  10.546   3.899 -3.7610  1.8403 -0.6536
  702MOL0     H92617   9.036  10.501   4.133 -2.3561  2.9774  0.7702
  702MOL0     H92618   8.744  10.590   4.197  2.6842  0.7836 -0.8187
  702MOL0     H92619   8.823  10.454   4.286 -1.8761 -4.1072  1.0049
  702MOL0     H92620   8.657  10.294   4.211 -2.0335  0.1030 -0.5349
  702MOL0     H92621   8.567  10.415   4.120 -0.4129  0.8913  0.8560
  702MOL0     H92622   8.465  10.350   4.351 -0.4660 -0.7283 -1.5675
  702MOL0     H92623   8.613  10.394   4.423  1.1819  1.6542 -0.7992
  702MOL0     H92624   8.480  10.613   4.255  2.2885  0.1471 -0.4114
  702MOL0     H92625   8.589  10.620   4.387 -1.1337  2.8317 -0.1090
  702MOL0     H92626   8.310  10.437   4.228  0.1128 -1.1105  1.6850
  702MOL0     H92627   8.082  10.430   4.140 -0.0649 -0.3900  0.5798
  702MOL0     H92628   7.673  10.334   4.245  2.3942  0.3054 -0.9798
  702MOL0     H92629   7.451  10.300   4.163 -1.8758  0.2928 -2.5959
  702MOL0     H92630   7.201  10.460   4.074 -0.9470  0.6408 -1.4314
  702MOL0     H92631   7.267  10.288   4.046  3.2206  0.9569 -2.3324
  702MOL0     H92632   7.141  10.284   3.833  3.0066 -1.3107  1.7971
  702MOL0     H92633   7.092  10.444   3.859 -0.3428 -0.8861  0.2163
  702MOL0     H92634   6.928  10.338   4.058 -1.6442 -4.5064  1.3968
  702MOL0     H92635   7.008  10.190   4.017 -0.6740 -1.0665 -1.0303
  702MOL0     H92636   6.850  10.340   3.811  2.6587  1.3266  0.1396
  702MOL0     H92637   6.909  10.184   3.796 -0.5242  2.3702 -1.8572
  702MOL0     H92638   6.697  10.288   3.986  1.0321  1.1109  0.4809
  702MOL0     H92639   6.785  10.126   4.025  1.5259  2.1369  1.0678
  702MOL0     H92640   6.702  10.027   3.828 -0.2617 -0.2792 -0.5839
  702MOL0     H92641   6.633  10.177   3.763 -0.5566 -1.5895 -0.9117
  702MOL0     H92642   6.545  10.037   4.014  2.7445  1.6014  0.4812
  702MOL0     H92643   6.480  10.182   3.946  0.7477  1.2049  0.2320
  702MOL0     H92644   6.480   9.911   3.809  0.1721  0.6722 -0.1098
  702MOL0     H92645   6.436  10.064   3.735 -0.5668  1.0706  0.0170
  702MOL0     H92646   7.538  10.536   3.814 -0.2530  0.2532  0.1796
  702MOL0     H92647   7.765  10.525   3.881  1.4479 -1.8560  0.3700
  702MOL0     H92648   7.955  10.698   4.444  1.2639  2.2095  0.2778
  702MOL0     H92649   8.168  10.678   4.553 -3.8683 -1.1547  1.3252
  702MOL0     H92650  10.246  10.662   3.605 -2.6053  0.4807  0.7098
  702MOL0     H92651  10.435  10.814   3.633  0.5221 -1.4188  1.6985
  702MOL0     H92652  10.678  11.041   3.735  3.9742 -2.0155 -0.2828
  702MOL0     H92653  10.835  11.207   3.676 -0.1739 -1.1911 -0.4487
  702MOL0     H92654  10.907  11.441   3.643 -3.4555 -1.3274  1.3367
  702MOL0     H92655  11.054  11.375   3.719  1.5978  1.5431  0.4816
  702MOL0     H92656  11.098  11.595   3.819 -1.0028  2.9730  0.3783
  702MOL0     H92657  11.130  11.575   3.642  0.4162 -1.0426 -0.0430
  702MOL0     H92658  10.884  11.702   3.770 -2.3283 -0.2914 -1.0923
  702MOL0     H92659  10.909  11.683   3.590  1.9301  0.9447 -0.7429
  702MOL0     H92660  11.100  11.832   3.603  0.5087 -0.0838  0.1346
  702MOL0     H92661  10.953  11.911   3.671  1.5267  2.3661 -1.8455
  702MOL0     H92662  11.143  11.904   4.028 -1.3513 -0.7079  0.4035
  702MOL0     H92663  10.773  11.411   4.052 -4.1803  2.0814  0.1668
  702MOL0     H92664  10.586  11.245   4.090  0.9934 -2.2243  0.4805
  703MOL0     O92665  10.750   8.062   5.146  0.2981 -0.1430  0.2358
  703MOL0     C92666  10.753   8.102   5.258  0.2641 -1.2312  0.1901
  703MOL0     O92667  10.643   8.130   5.325 -0.5151 -0.4433  0.0423
  703MOL0     C92668  10.526   8.160   5.259  0.4283  0.0152 -0.2200
  703MOL0     C92669  10.503   8.192   5.122  0.6731  0.3672 -0.7460
  703MOL0     C92670  10.380   8.196   5.067  0.0450  0.1951 -0.0592
  703MOL0     C92671  10.268   8.185   5.154 -0.2193 -0.2309 -0.7362
  703MOL0     O92672  10.149   8.216   5.096  0.0104 -0.4854  0.3034
  703MOL0     C92673  10.061   8.289   5.183 -0.0330 -1.2139 -0.1381
  703MOL0     C92674   9.966   8.354   5.092 -0.0109  0.7391  0.0178
  703MOL0     C92675   9.848   8.406   5.186 -0.1785 -0.9327  0.1262
  703MOL0     C92676   9.896   8.537   5.263  0.6817 -0.2979 -0.3034
  703MOL0     C92677   9.793   8.579   5.366 -0.3681  0.9059 -0.3722
  703MOL0     C92678   9.648   8.597   5.318  0.5239 -0.4325 -0.2550
  703MOL0     C92679   9.561   8.640   5.444 -0.4177  0.0256  0.1563
  703MOL0     C92680   9.406   8.661   5.401  0.1839  0.4954  0.1935
  703MOL0     N92681   9.319   8.719   5.504 -0.5954  0.4371 -0.1738
  703MOL0     C92682   9.360   8.837   5.555 -0.2635 -0.2891  0.0057
  703MOL0     C92683   9.297   8.840   5.682 -0.0706  0.5276  0.2715
  703MOL0     C92684   9.331   8.935   5.796 -0.6387  0.0387 -0.1288
  703MOL0     C92685   9.484   8.948   5.826 -0.2523 -0.9938 -0.0598
  703MOL0     C92686   9.547   8.815   5.885 -0.9087  0.1956 -0.2235
  703MOL0     C92687   9.703   8.834   5.900 -0.0873  0.1147 -0.1179
  703MOL0     O92688   9.759   8.713   5.839 -0.6766  0.2227  0.3429
  703MOL0     C92689   9.895   8.687   5.848  0.4032 -0.0435 -0.5949
  703MOL0     C92690   9.947   8.603   5.752 -0.3142  0.0603  0.1469
  703MOL0     C92691  10.087   8.596   5.731  0.4853  0.0711 -1.2009
  703MOL0     C92692  10.173   8.652   5.818  0.0939  0.9257 -0.2316
  703MOL0     C92693  10.320   8.638   5.801  0.7189  0.3972 -1.3171
  703MOL0     O92694  10.367   8.566   5.694 -0.3329  0.3734  0.2381
  703MOL0     C92695  10.504   8.547   5.696  0.4227 -0.3725  0.7220
  703MOL0     C92696  10.536   8.435   5.624 -0.2736 -0.7886 -0.9735
  703MOL0     C92697  10.665   8.397   5.608 -0.4160 -0.8447  0.6819
  703MOL0     C92698  10.772   8.480   5.647 -0.8878  0.1940  0.4453
  703MOL0     O92699  10.900   8.430   5.639 -0.3886 -0.2940 -0.3737
  703MOL0     C92700  11.005   8.510   5.690  0.1504  0.2801 -0.2717
  703MOL0     C92701  11.146   8.461   5.661  0.9473  0.5251 -0.0566
  703MOL0     C92702  11.251   8.574   5.682 -0.3871  0.2325 -0.0730
  703MOL0     C92703  11.396   8.518   5.693 -0.5032  0.5270 -0.3241
  703MOL0     C92704  11.519   8.597   5.726 -0.1452  0.4182 -0.1241
  703MOL0     C92705  11.647   8.524   5.753 -0.1856 -0.2076 -0.6587
  703MOL0     C92706  11.757   8.618   5.814  0.2327  0.6277 -0.3693
  703MOL0     C92707  11.891   8.546   5.807  0.1954  0.7638  0.2637
  703MOL0    Cl92708  12.035   8.644   5.833 -0.1781  0.1666 -0.0448
  703MOL0     C92709  10.745   8.598   5.713 -0.5693 -0.3158  0.1188
  703MOL0     C92710  10.611   8.637   5.730  0.0144  0.3606 -0.5462
  703MOL0     O92711  10.386   8.673   5.902 -0.0513 -0.2898  0.9354
  703MOL0     C92712  10.128   8.735   5.923  0.2947 -0.3649  0.0146
  703MOL0     C92713   9.992   8.754   5.928  0.0229  0.6097 -0.3602
  703MOL0     N92714   9.231   8.716   5.710  0.5279  0.6096 -0.1918
  703MOL0     N92715   9.247   8.644   5.595  1.2879 -0.1232 -0.6136
  703MOL0     C92716  10.286   8.161   5.293 -0.6232  0.2606  0.0450
  703MOL0     C92717  10.412   8.151   5.342 -0.1198  0.0128 -0.5023
  703MOL0     C92718  10.878   8.099   5.329  0.0153  0.3071 -0.3260
  703MOL0     C92719  10.992   8.073   5.266 -0.7603 -0.3725 -0.6831
  703MOL0     C92720  11.117   8.063   5.325  0.4571 -0.0424 -0.7100
  703MOL0     C92721  11.118   8.084   5.464  0.9144  0.9535  0.4150
  703MOL0     O92722  11.244   8.085   5.511  0.9408 -0.2273  0.6195
  703MOL0     C92723  11.268   8.098   5.651  0.0396  0.3450  0.0514
  703MOL0     C92724  11.413   8.062   5.688  0.2333  0.5554  0.0834
  703MOL0     C92725  11.519   8.166   5.635  0.0822 -0.0217  0.3330
  703MOL0     C92726  11.658   8.129   5.694  0.1801 -0.4551  0.3247
  703MOL0     C92727  11.751   8.208   5.617 -0.3577  0.0823 -1.5764
  703MOL0     C92728  11.836   8.267   5.549  0.5610  0.0575 -0.7483
  703MOL0     C92729  11.005   8.105   5.533 -0.5045 -0.3895  0.1074
  703MOL0     C92730  10.881   8.102   5.469  0.0943 -0.2491 -0.5927
  703MOL0     H92731  10.584   8.211   5.053  0.9658  1.1634 -0.2007
  703MOL0     H92732  10.345   8.193   4.964  0.2135  0.7929 -0.1365
  703MOL0     H92733  10.117   8.371   5.228  2.2016 -1.5135 -2.1390
  703MOL0     H92734  10.006   8.234   5.260  0.0815  2.9010  3.2250
  703MOL0     H92735   9.921   8.286   5.018 -1.2129  2.1381 -0.5953
  703MOL0     H92736  10.012   8.438   5.039 -1.7919  1.5274 -0.3486
  703MOL0     H92737   9.826   8.325   5.256  2.1753 -1.9506 -0.2251
  703MOL0     H92738   9.751   8.433   5.143 -0.0843 -1.8333 -0.6708
  703MOL0     H92739   9.996   8.518   5.304  0.1235  2.2652  2.6229
  703MOL0     H92740   9.902   8.618   5.191 -0.0481  0.4255  0.4304
  703MOL0     H92741   9.822   8.669   5.422 -0.0391  0.6431 -0.1105
  703MOL0     H92742   9.786   8.499   5.441  1.3566  2.2769  1.3742
  703MOL0     H92743   9.604   8.502   5.288  0.2201 -1.3107  2.7034
  703MOL0     H92744   9.640   8.681   5.248  4.0933  2.5811  2.5216
  703MOL0     H92745   9.564   8.557   5.514 -3.2873  1.2211  1.8801
  703MOL0     H92746   9.598   8.734   5.487  1.3928 -0.9725  0.8850
  703MOL0     H92747   9.367   8.562   5.378  2.7705 -0.1238 -1.9375
  703MOL0     H92748   9.407   8.724   5.311  0.9618  1.2594  0.7245
  703MOL0     H92749   9.430   8.905   5.509  0.0677 -2.3182 -2.7944
  703MOL0     H92750   9.280   8.903   5.887  0.3265  1.0943  0.8292
  703MOL0     H92751   9.301   9.037   5.770 -1.8731 -0.4319 -0.5794
  703MOL0     H92752   9.507   9.026   5.899 -2.5897 -0.8581  0.5856
  703MOL0     H92753   9.535   8.963   5.730 -0.3498  0.1463  0.0546
  703MOL0     H92754   9.492   8.785   5.975 -1.2126  2.1392  0.2922
  703MOL0     H92755   9.533   8.738   5.808  2.3571  0.2698 -1.0492
  703MOL0     H92756   9.734   8.844   6.004 -0.1261  0.2765 -0.1214
  703MOL0     H92757   9.732   8.913   5.831 -2.1921  1.3133  0.2883
  703MOL0     H92758   9.881   8.546   5.688  0.3175 -0.0014 -0.4503
  703MOL0     H92759  10.125   8.536   5.648  0.0088 -2.7551  0.4934
  703MOL0     H92760  10.453   8.375   5.587 -1.5334 -0.6157  1.3393
  703MOL0     H92761  10.696   8.305   5.561  1.8750  0.2505 -0.1006
  703MOL0     H92762  10.987   8.504   5.798 -2.6239 -0.7999 -0.6913
  703MOL0     H92763  10.997   8.609   5.644 -2.8082 -0.3938 -1.4759
  703MOL0     H92764  11.155   8.425   5.558 -1.0476  1.1733 -0.5032
  703MOL0     H92765  11.157   8.378   5.731  0.6053 -3.1539 -3.9981
  703MOL0     H92766  11.229   8.619   5.779  0.5385  1.3017 -0.3438
  703MOL0     H92767  11.243   8.648   5.602  0.7060 -1.8509 -2.2484
  703MOL0     H92768  11.395   8.438   5.769  3.3122  1.1442  0.6016
  703MOL0     H92769  11.424   8.479   5.595 -0.2761 -0.0252 -0.0443
  703MOL0     H92770  11.500   8.649   5.820  1.5868  0.4290  0.2410
  703MOL0     H92771  11.536   8.674   5.650  0.7921  1.5482  1.1760
  703MOL0     H92772  11.688   8.491   5.657 -0.0464  0.3509 -0.7988
  703MOL0     H92773  11.629   8.447   5.828 -0.1892  0.4505  0.0318
  703MOL0     H92774  11.738   8.711   5.759 -3.9745  0.9872  1.2599
  703MOL0     H92775  11.744   8.637   5.921  1.2515 -0.7174  0.0169
  703MOL0     H92776  11.912   8.496   5.712  1.4256 -0.0878  0.9466
  703MOL0     H92777  11.884   8.460   5.874 -2.0274 -2.6753 -3.8951
  703MOL0     H92778  10.818   8.671   5.747 -0.2976 -0.1770 -0.7372
  703MOL0     H92779  10.596   8.736   5.774  0.1304  0.5157 -0.8503
  703MOL0     H92780  10.193   8.774   6.001  1.7278  0.5163 -1.5537
  703MOL0     H92781   9.941   8.809   6.007  0.2395  3.2939 -1.9663
  703MOL0     H92782  10.202   8.151   5.361 -0.0705  1.2195  0.9080
  703MOL0     H92783  10.408   8.122   5.447 -2.3326 -2.3332 -1.1353
  703MOL0     H92784  10.989   8.065   5.158  1.0529 -1.5467 -0.6796
  703MOL0     H92785  11.208   8.054   5.267  0.7938  2.0292 -0.5761
  703MOL0     H92786  11.208   8.027   5.709  0.2657  0.0465 -0.0767
  703MOL0     H92787  11.245   8.198   5.687 -0.6836 -0.4007  1.8141
  703MOL0     H92788  11.418   8.059   5.798  0.5036  1.4086  0.0998
  703MOL0     H92789  11.439   7.963   5.648 -0.6504 -0.6467  2.2830
  703MOL0     H92790  11.496   8.269   5.666 -0.8107  0.2203 -1.0282
  703MOL0     H92791  11.519   8.149   5.527 -1.0443 -2.8942  0.7064
  703MOL0     H92792  11.672   8.160   5.798  2.1429 -0.0607 -0.0212
  703MOL0     H92793  11.696   8.029   5.673 -0.6687 -0.2897 -2.4632
  703MOL0     H92794  11.913   8.314   5.491  0.1938  1.8794  0.1766
  703MOL0     H92795  10.999   8.146   5.633 -1.3995 -0.5937  0.1482
  703MOL0     H92796  10.790   8.093   5.527 -0.2588 -1.4260 -1.2997
  704MOL0     O92797   4.437   0.793   5.506 -0.0435  1.1561 -0.4285
  704MOL0     C92798   4.496   0.851   5.596  0.5444 -0.8974  0.0274
  704MOL0     O92799   4.439   0.893   5.715 -0.3608 -0.2670 -0.0423
  704MOL0     C92800   4.307   0.871   5.727  0.9741  0.0260 -1.3684
  704MOL0     C92801   4.252   0.760   5.798  0.2255 -0.5163  0.1198
  704MOL0     C92802   4.111   0.749   5.829 -1.1103 -0.4845  0.3725
  704MOL0     C92803   4.025   0.859   5.800 -1.1083  0.5200  0.8166
  704MOL0     O92804   3.885   0.862   5.828 -0.9802 -0.5292  0.7127
  704MOL0     C92805   3.827   0.760   5.902  0.2874  0.2628  1.3162
  704MOL0     C92806   3.680   0.796   5.935 -0.0482 -1.0311  0.6207
  704MOL0     C92807   3.597   0.805   5.812  1.3470  0.3636  0.1491
  704MOL0     C92808   3.443   0.824   5.843 -0.8049 -0.0468  0.0637
  704MOL0     C92809   3.359   0.853   5.712 -0.0142 -0.1821  0.0619
  704MOL0     C92810   3.230   0.781   5.732  0.1250 -0.2402  0.2237
  704MOL0     C92811   3.125   0.813   5.619  0.6028 -0.2705 -0.3867
  704MOL0     C92812   3.031   0.928   5.661  0.1293  0.3593  0.2720
  704MOL0     N92813   2.895   0.906   5.617  0.1317  0.1113  0.9374
  704MOL0     C92814   2.850   0.912   5.488  0.0568 -1.1598  0.5372
  704MOL0     C92815   2.714   0.884   5.491  0.6181 -0.1554 -1.1098
  704MOL0     C92816   2.607   0.888   5.380 -0.0899  0.0449 -0.7344
  704MOL0     C92817   2.480   0.816   5.428 -0.4684 -0.3715  0.9524
  704MOL0     C92818   2.363   0.821   5.317 -0.3679 -0.8585  0.1994
  704MOL0     C92819   2.306   0.965   5.305 -0.1567  0.0248 -1.2836
  704MOL0     O92820   2.202   0.972   5.200 -0.5177 -0.4085  0.0882
  704MOL0     C92821   2.066   0.955   5.227  0.6642 -0.7474  0.2056
  704MOL0     C92822   1.974   1.006   5.131  0.1802 -0.1525 -0.0701
  704MOL0     C92823   1.833   1.000   5.156 -0.5369  0.3254  1.1597
  704MOL0     C92824   1.786   0.957   5.283 -0.3927 -0.0566 -0.4142
  704MOL0     C92825   1.651   0.969   5.323 -0.1308 -0.2113  0.6282
  704MOL0     O92826   1.565   1.014   5.230  0.4435  0.0587  0.4706
  704MOL0     C92827   1.436   1.014   5.275 -0.3492  0.2784 -0.1868
  704MOL0     C92828   1.354   0.904   5.239 -0.2649  0.7045 -0.1560
  704MOL0     C92829   1.224   0.891   5.292 -0.4693 -0.0314  0.1942
  704MOL0     C92830   1.166   0.991   5.368 -0.3925  0.9562  0.1524
  704MOL0     O92831   1.037   0.976   5.419 -0.2944 -0.3494  0.1815
  704MOL0     C92832   0.937   0.988   5.311 -0.4648  0.2204  0.0078
  704MOL0     C92833   0.793   1.030   5.342 -0.0536  0.6679  0.4966
  704MOL0     C92834   0.728   1.066   5.209  0.0111  0.8340  0.0003
  704MOL0     C92835   0.576   1.101   5.231  0.5347  0.0730  0.9257
  704MOL0     C92836   0.502   1.129   5.102  0.0354  0.4785 -0.6280
  704MOL0     C92837   0.533   1.272   5.051  0.2788  0.2608  0.1296
  704MOL0     C92838   0.427   1.323   4.963  0.2463  0.0744 -0.4175
  704MOL0     C92839   0.476   1.375   4.828  0.5836  0.3200 -0.4856
  704MOL0    Cl92840   0.593   1.501   4.851  0.1400  0.4317  0.1845
  704MOL0     C92841   1.244   1.108   5.386  0.1195  0.2938 -0.7352
  704MOL0     C92842   1.384   1.113   5.351  0.6247 -0.9091  0.0248
  704MOL0     O92843   1.618   0.921   5.433  0.4129 -0.3946 -0.5360
  704MOL0     C92844   1.875   0.903   5.371 -0.1817  0.4982 -0.5060
  704MOL0     C92845   2.012   0.908   5.351 -0.7094  1.6146  0.4095
  704MOL0     N92846   2.683   0.855   5.629  0.5955  0.2129 -0.5499
  704MOL0     N92847   2.790   0.864   5.698  0.1697  0.0052 -0.4386
  704MOL0     C92848   4.075   0.959   5.722  0.5844 -0.2543  0.5633
  704MOL0     C92849   4.211   0.966   5.687 -0.0135 -0.1649  0.0306
  704MOL0     C92850   4.638   0.888   5.566  0.1410  1.0095 -0.0280
  704MOL0     C92851   4.690   0.880   5.439  1.3117  0.0125 -0.0344
  704MOL0     C92852   4.824   0.896   5.413 -0.0544 -0.4337  0.5948
  704MOL0     C92853   4.916   0.929   5.514  0.6882 -0.0425 -0.0183
  704MOL0     O92854   5.049   0.936   5.494 -0.6242 -0.2264  0.7001
  704MOL0     C92855   5.141   0.907   5.601  0.3315 -0.0236 -0.2460
  704MOL0     C92856   5.212   0.775   5.580 -0.2316  0.7675 -1.0592
  704MOL0     C92857   5.300   0.732   5.691  0.0834 -0.5589  0.2418
  704MOL0     C92858   5.445   0.785   5.669 -0.2476 -0.7391 -0.2834
  704MOL0     C92859   5.535   0.724   5.769 -0.3032  0.6112 -0.2186
  704MOL0     C92860   5.615   0.675   5.845  0.3576 -0.6138 -0.7371
  704MOL0     C92861   4.859   0.941   5.644 -0.0634  0.9339  0.0682
  704MOL0     C92862   4.725   0.923   5.668 -1.2004 -0.0115  0.1515
  704MOL0     H92863   4.323   0.679   5.808  0.9447 -0.6209 -4.1058
  704MOL0     H92864   4.079   0.677   5.903  0.6099  0.4758  2.1600
  704MOL0     H92865   3.875   0.751   6.000 -2.2035 -0.3888  2.5435
  704MOL0     H92866   3.819   0.667   5.845 -0.1014  1.8154 -1.3125
  704MOL0     H92867   3.676   0.891   5.989  4.1490 -0.4881  0.2922
  704MOL0     H92868   3.640   0.723   6.007  0.2836 -0.5607  1.2843
  704MOL0     H92869   3.605   0.729   5.734  0.2937  1.2127 -0.8214
  704MOL0     H92870   3.628   0.892   5.753 -1.9570  1.9091  0.4671
  704MOL0     H92871   3.400   0.741   5.899 -1.3742 -1.3829 -2.2394
  704MOL0     H92872   3.429   0.911   5.908 -1.9577 -0.8167  0.8953
  704MOL0     H92873   3.413   0.822   5.623 -0.7609  0.4481 -0.6325
  704MOL0     H92874   3.323   0.956   5.697 -2.1289 -0.7540  0.7753
  704MOL0     H92875   3.179   0.794   5.828 -1.2677  1.4095 -0.6770
  704MOL0     H92876   3.255   0.676   5.714 -0.5534 -0.5834  1.2323
  704MOL0     H92877   3.161   0.841   5.519 -0.7585  4.7754  0.2861
  704MOL0     H92878   3.066   0.722   5.600 -1.5108  0.0730  3.5080
  704MOL0     H92879   3.068   1.022   5.618  0.9100  0.9889  2.2209
  704MOL0     H92880   3.026   0.940   5.769 -0.2784 -1.3793  0.4726
  704MOL0     H92881   2.901   0.946   5.398 -2.3625 -0.1766 -0.5711
  704MOL0     H92882   2.649   0.833   5.295 -0.6148 -1.1656 -0.2379
  704MOL0     H92883   2.582   0.990   5.350 -0.6032  0.0190 -0.4072
  704MOL0     H92884   2.440   0.866   5.516  1.5194  2.0733  0.5981
  704MOL0     H92885   2.505   0.713   5.454  1.9141 -0.6590 -1.8786
  704MOL0     H92886   2.395   0.778   5.222 -2.2766  0.9042 -1.3220
  704MOL0     H92887   2.288   0.753   5.358  0.4027 -1.7392  0.2028
  704MOL0     H92888   2.382   1.037   5.272 -0.8110  0.4449 -1.9180
  704MOL0     H92889   2.265   0.988   5.403 -3.2598 -1.9727 -1.9663
  704MOL0     H92890   2.004   1.053   5.039  0.6273 -0.2401  0.0290
  704MOL0     H92891   1.772   1.048   5.080 -2.7716  2.1002  3.8486
  704MOL0     H92892   1.410   0.833   5.178  1.8610  1.5827  0.6935
  704MOL0     H92893   1.172   0.797   5.275 -0.7861  0.2620 -0.4789
  704MOL0     H92894   0.926   0.890   5.264  2.0014 -1.1208  1.9928
  704MOL0     H92895   0.985   1.052   5.237 -4.2996  0.5313 -2.4914
  704MOL0     H92896   0.780   1.116   5.408 -0.5413  1.2753 -0.3840
  704MOL0     H92897   0.734   0.945   5.377  0.3714 -0.2265 -0.8972
  704MOL0     H92898   0.741   0.976   5.148  0.7178 -0.6889  2.2426
  704MOL0     H92899   0.788   1.150   5.173 -0.1993  1.5573  1.2773
  704MOL0     H92900   0.531   1.010   5.272 -1.4895  1.0658  1.0279
  704MOL0     H92901   0.566   1.177   5.308 -1.7576  0.2613  0.4926
  704MOL0     H92902   0.396   1.120   5.124 -0.6600  1.2146 -3.2722
  704MOL0     H92903   0.533   1.058   5.025 -1.3046  1.1747 -1.8488
  704MOL0     H92904   0.626   1.269   4.993  0.7530 -2.5603  0.9082
  704MOL0     H92905   0.532   1.338   5.138 -1.0949  0.1532  0.2166
  704MOL0     H92906   0.356   1.243   4.944  0.4368 -0.2935  0.3998
  704MOL0     H92907   0.372   1.408   5.005  0.5613 -0.5674  1.3622
  704MOL0     H92908   0.393   1.422   4.773  0.4524  0.5293 -0.1148
  704MOL0     H92909   0.515   1.290   4.772  3.0146  1.0426 -0.0058
  704MOL0     H92910   1.210   1.191   5.447  0.9047  1.1719 -1.4606
  704MOL0     H92911   1.445   1.195   5.388  1.3693 -0.1610 -2.6732
  704MOL0     H92912   1.853   0.870   5.472 -2.8748  3.0705 -0.1097
  704MOL0     H92913   2.081   0.864   5.423  1.9137 -0.7446 -3.2028
  704MOL0     H92914   4.003   1.028   5.679 -1.1831 -1.5272  1.3615
  704MOL0     H92915   4.255   1.053   5.640  0.7735 -0.7023 -0.2564
  704MOL0     H92916   4.622   0.850   5.359  0.9453  1.5198 -0.3191
  704MOL0     H92917   4.869   0.874   5.316 -1.0501  0.9114 -0.2124
  704MOL0     H92918   5.086   0.900   5.696  1.9679 -0.2890  0.7221
  704MOL0     H92919   5.207   0.994   5.611 -3.3591  2.7783  2.5435
  704MOL0     H92920   5.134   0.698   5.579 -0.2100  0.6981  0.6269
  704MOL0     H92921   5.269   0.760   5.487  0.3510  0.8876 -0.7220
  704MOL0     H92922   5.309   0.623   5.691 -1.4771 -0.7163 -0.5580
  704MOL0     H92923   5.266   0.764   5.790  0.6379  1.5972 -0.2153
  704MOL0     H92924   5.471   0.753   5.567 -0.2725  0.0451 -0.5416
  704MOL0     H92925   5.453   0.894   5.673  1.2460 -0.8495  0.2494
  704MOL0     H92926   5.683   0.633   5.916 -1.7896  2.7800  3.8484
  704MOL0     H92927   4.912   0.991   5.724  1.0058  0.1538 -0.1429
  704MOL0     H92928   4.687   0.944   5.768 -2.6549 -1.3970 -0.0664
  705MOL0     O92929   5.150   9.707   5.390 -0.4195 -0.2490 -0.1720
  705MOL0     C92930   5.162   9.820   5.341 -0.2801  0.3232  0.0440
  705MOL0     O92931   5.059   9.898   5.295  0.0143 -0.3105 -0.4812
  705MOL0     C92932   4.931   9.846   5.297  0.0196  0.2214 -0.5817
  705MOL0     C92933   4.878   9.781   5.412  0.2342  0.6792 -0.2964
  705MOL0     C92934   4.746   9.729   5.417  0.1004 -0.2078 -0.4407
  705MOL0     C92935   4.665   9.723   5.306  0.3346  0.6306  0.3056
  705MOL0     O92936   4.532   9.675   5.312 -0.2658 -0.4930 -0.5754
  705MOL0     C92937   4.467   9.669   5.439  0.4519  0.5071  0.5362
  705MOL0     C92938   4.319   9.677   5.418 -0.5351  0.1368 -0.8738
  705MOL0     C92939   4.276   9.822   5.360  0.0974 -0.5043  0.7995
  705MOL0     C92940   4.152   9.880   5.418 -0.4115 -0.5783  0.0375
  705MOL0     C92941   4.037   9.793   5.382  0.5232 -0.0764 -0.7054
  705MOL0     C92942   3.897   9.834   5.430 -0.2000  0.4035  0.2469
  705MOL0     C92943   3.881   9.830   5.583 -0.7355 -0.4100 -0.5973
  705MOL0     C92944   3.786   9.941   5.626  0.5593  0.4598  0.5205
  705MOL0     N92945   3.639   9.911   5.613  0.0043  0.4333 -0.7505
  705MOL0     C92946   3.540  10.004   5.600 -0.5283  1.0169 -0.8288
  705MOL0     C92947   3.432   9.934   5.623  0.4980  0.4833 -0.8762
  705MOL0     C92948   3.296   9.994   5.628  0.5536 -0.5795 -0.4109
  705MOL0     C92949   3.195   9.926   5.714 -0.2308 -0.2659 -0.6049
  705MOL0     C92950   3.056   9.978   5.687 -0.7090 -0.2594 -1.2033
  705MOL0     C92951   2.947   9.918   5.778  0.6333  0.0384  0.2481
  705MOL0     O92952   2.829   9.878   5.706  0.5513 -0.3075  0.2727
  705MOL0     C92953   2.717   9.846   5.773  0.3768  0.8921  0.1374
  705MOL0     C92954   2.702   9.835   5.909  0.8975  0.2591 -0.3731
  705MOL0     C92955   2.575   9.809   5.970 -0.2885 -0.4836 -0.1467
  705MOL0     C92956   2.470   9.771   5.893  0.5241  0.4219  0.1226
  705MOL0     C92957   2.333   9.741   5.956 -0.6558 -0.2429 -0.2428
  705MOL0     O92958   2.311   9.807   6.078  0.6590  0.0173  0.3360
  705MOL0     C92959   2.188   9.781   6.143  0.1575  0.2077  0.3329
  705MOL0     C92960   2.080   9.866   6.107  0.1683 -0.3941 -0.2048
  705MOL0     C92961   1.947   9.838   6.162  0.3260 -0.4817 -0.3023
  705MOL0     C92962   1.925   9.738   6.250 -0.0457  0.2798 -0.2056
  705MOL0     O92963   1.790   9.735   6.303 -0.3376  0.4165 -0.8494
  705MOL0     C92964   1.755   9.617   6.380  0.4656  0.2530  0.2823
  705MOL0     C92965   1.606   9.600   6.416 -1.0614  0.1172 -0.0429
  705MOL0     C92966   1.521   9.574   6.290  0.4767  0.3045 -0.0024
  705MOL0     C92967   1.383   9.528   6.341 -0.1639 -0.6972  0.3743
  705MOL0     C92968   1.289   9.489   6.227 -0.2757  0.0297 -0.9150
  705MOL0     C92969   1.151   9.462   6.274  0.0643  0.3722  0.8640
  705MOL0     C92970   1.055   9.389   6.162 -0.1508 -0.3003  0.1356
  705MOL0     C92971   0.917   9.344   6.216 -0.4008  0.4015  0.6546
  705MOL0    Cl92972   0.810   9.482   6.203  0.2419 -0.0587  0.4076
  705MOL0     C92973   2.027   9.644   6.272 -0.1937 -0.3588  0.5717
  705MOL0     C92974   2.156   9.671   6.225  0.5468 -0.5896 -0.5328
  705MOL0     O92975   2.267   9.648   5.918 -0.0001 -0.5295 -0.4240
  705MOL0     C92976   2.487   9.757   5.751 -0.5118 -0.5376  0.7802
  705MOL0     C92977   2.609   9.797   5.696  0.4081  0.3328 -0.1285
  705MOL0     N92978   3.465   9.797   5.627  0.2171 -0.4548  0.2733
  705MOL0     N92979   3.589   9.786   5.623 -0.7266  0.2737  0.2031
  705MOL0     C92980   4.722   9.781   5.191 -0.0197  0.5484  0.1174
  705MOL0     C92981   4.847   9.851   5.191 -0.2436 -0.3627 -0.9487
  705MOL0     C92982   5.299   9.872   5.330 -0.6832  0.2003  0.1906
  705MOL0     C92983   5.318   9.994   5.265  0.5564 -0.3581 -0.4357
  705MOL0     C92984   5.445  10.048   5.254 -0.5367  0.1720 -0.6039
  705MOL0     C92985   5.556   9.979   5.313  0.5004 -0.5079  0.2634
  705MOL0     O92986   5.684  10.035   5.321 -0.3356  0.5754  0.6883
  705MOL0     C92987   5.722  10.134   5.220 -0.6847  0.5207 -0.1291
  705MOL0     C92988   5.820  10.078   5.126  0.2251  0.2930 -0.2456
  705MOL0     C92989   5.952  10.113   5.182  0.5193 -0.1083  0.6459
  705MOL0     C92990   6.063  10.053   5.091 -0.1007 -0.5142 -0.3176
  705MOL0     C92991   6.200  10.084   5.141 -0.0619 -0.7852 -0.0752
  705MOL0     C92992   6.313  10.115   5.162 -0.9917  0.0037  0.4743
  705MOL0     C92993   5.529   9.856   5.378  0.6768 -0.3062  0.3570
  705MOL0     C92994   5.406   9.794   5.384 -0.1743  0.8800 -0.0045
  705MOL0     H92995   4.932   9.778   5.506 -0.3093  0.4528  0.0138
  705MOL0     H92996   4.716   9.697   5.516  0.7503 -0.7273 -0.4017
  705MOL0     H92997   4.499   9.741   5.515 -2.0971 -0.1181  2.3206
  705MOL0     H92998   4.488   9.566   5.471 -1.6517  0.0341  0.5222
  705MOL0     H92999   4.276   9.665   5.518  1.7374 -2.4094 -0.0759
  705MOL0     H93000   4.290   9.611   5.336 -1.1575 -2.3061  1.1748
  705MOL0     H93001   4.268   9.810   5.252  0.9608 -1.5162  0.8362
  705MOL0     H93002   4.363   9.889   5.361  1.1652 -1.6805 -2.0551
  705MOL0     H93003   4.170   9.873   5.525 -0.6702  0.1807  0.1357
  705MOL0     H93004   4.147   9.987   5.393 -1.7651 -0.3972  0.9936
  705MOL0     H93005   4.066   9.695   5.421 -1.4253 -0.1775  0.6925
  705MOL0     H93006   4.032   9.787   5.273 -1.6968 -1.2437 -0.6103
  705MOL0     H93007   3.821   9.772   5.382  1.5489 -1.0797 -0.7109
  705MOL0     H93008   3.876   9.935   5.393  2.0683  0.0505 -2.3087
  705MOL0     H93009   3.836   9.732   5.601 -0.8670 -0.4326 -1.0420
  705MOL0     H93010   3.978   9.848   5.630 -0.0496 -0.1356 -2.0834
  705MOL0     H93011   3.801  10.030   5.563 -2.1359  0.4660 -0.2329
  705MOL0     H93012   3.803   9.959   5.733 -1.2975 -0.9660  1.1059
  705MOL0     H93013   3.556  10.111   5.585  2.8078  0.8013  0.3087
  705MOL0     H93014   3.261  10.003   5.525 -0.8243 -0.3385  0.0584
  705MOL0     H93015   3.308  10.094   5.671 -0.1639 -0.7223  0.1538
  705MOL0     H93016   3.218   9.942   5.820  2.2154 -0.9032 -0.9950
  705MOL0     H93017   3.204   9.818   5.697 -2.9187 -0.2978 -2.4685
  705MOL0     H93018   3.058  10.086   5.703  0.4602 -0.3765 -0.4687
  705MOL0     H93019   3.027   9.949   5.585 -0.2306 -1.5115 -0.9919
  705MOL0     H93020   2.930   9.989   5.859  0.4998 -0.2554  0.4782
  705MOL0     H93021   2.980   9.822   5.818  0.5209  0.0804  0.4456
  705MOL0     H93022   2.777   9.869   5.980  1.2324  2.4233 -1.7023
  705MOL0     H93023   2.567   9.805   6.078 -0.0483  0.0015 -0.1079
  705MOL0     H93024   2.080   9.947   6.035  0.6631 -0.6653 -0.5111
  705MOL0     H93025   1.863   9.902   6.134  0.3508 -0.2125  0.2083
  705MOL0     H93026   1.809   9.612   6.475 -0.4693 -3.0821  0.7609
  705MOL0     H93027   1.782   9.530   6.319  0.0181  0.7645 -0.6791
  705MOL0     H93028   1.573   9.692   6.463 -0.8809  0.1027  0.1140
  705MOL0     H93029   1.589   9.522   6.491 -1.1292 -1.8977 -2.0345
  705MOL0     H93030   1.565   9.500   6.222 -0.9063 -0.6085  0.0523
  705MOL0     H93031   1.514   9.668   6.236 -0.4949  1.1215  1.4824
  705MOL0     H93032   1.392   9.443   6.409  0.4005  0.8799  2.3833
  705MOL0     H93033   1.339   9.608   6.402 -1.8828  0.7690 -2.5902
  705MOL0     H93034   1.329   9.398   6.181 -1.7449 -0.7788 -0.6487
  705MOL0     H93035   1.293   9.566   6.150  2.0248 -0.1156 -1.0044
  705MOL0     H93036   1.111   9.561   6.297  0.4240  1.4291 -2.5665
  705MOL0     H93037   1.156   9.397   6.362  3.1291 -1.7260 -0.6837
  705MOL0     H93038   1.045   9.467   6.085 -0.0850 -0.9859 -0.5770
  705MOL0     H93039   1.100   9.299   6.121 -2.8782 -1.3255 -0.8556
  705MOL0     H93040   0.944   9.307   6.315  0.3061  1.2371  0.7882
  705MOL0     H93041   0.876   9.255   6.168 -0.0934  0.2691  0.6373
  705MOL0     H93042   2.014   9.559   6.338  0.0918 -1.3799 -0.6310
  705MOL0     H93043   2.241   9.606   6.240  2.5714  1.5150 -2.1369
  705MOL0     H93044   2.421   9.702   5.685  1.5356 -0.3081 -1.6491
  705MOL0     H93045   2.633   9.786   5.590  2.4899  0.5031  0.2789
  705MOL0     H93046   4.652   9.775   5.108 -0.9692 -2.3780  0.9943
  705MOL0     H93047   4.880   9.918   5.113 -0.6672  0.3393 -0.5346
  705MOL0     H93048   5.225  10.033   5.225  0.4386 -0.0221  0.1626
  705MOL0     H93049   5.443  10.152   5.225  2.4282  0.2765 -0.7465
  705MOL0     H93050   5.764  10.225   5.264 -0.0980  1.1975 -1.9822
  705MOL0     H93051   5.647  10.181   5.155  1.1217  0.0697 -2.6772
  705MOL0     H93052   5.804   9.971   5.106  0.9392 -0.6079  3.3572
  705MOL0     H93053   5.800  10.125   5.029 -3.9679 -1.3742 -0.3890
  705MOL0     H93054   5.956  10.079   5.285  1.3210 -0.7862  0.3966
  705MOL0     H93055   5.973  10.220   5.196  1.4399 -0.4659  2.1561
  705MOL0     H93056   6.054   9.945   5.079  0.8895 -0.8641  1.6217
  705MOL0     H93057   6.054  10.092   4.989  1.8149  2.9578  0.6708
  705MOL0     H93058   6.415  10.147   5.169 -1.6220  2.6956 -1.0720
  705MOL0     H93059   5.615   9.813   5.429 -0.5565  0.3212  3.1336
  705MOL0     H93060   5.382   9.705   5.441 -3.1997  0.2335 -2.0550
  706MOL0     O93061   1.625   5.743   1.853 -0.7827  0.0404 -0.3711
  706MOL0     C93062   1.682   5.692   1.758  0.8113 -0.2915  0.6275
  706MOL0     O93063   1.617   5.656   1.632  0.8411 -0.9166 -0.2700
  706MOL0     C93064   1.491   5.712   1.609 -0.0530  0.4166  0.0375
  706MOL0     C93065   1.390   5.633   1.550  0.1389  0.3995 -0.1229
  706MOL0     C93066   1.258   5.677   1.543 -0.4708 -0.8582  0.4482
  706MOL0     C93067   1.224   5.808   1.586 -0.0992  0.1520  0.1934
  706MOL0     O93068   1.094   5.854   1.579 -0.1523 -0.1475 -0.1671
  706MOL0     C93069   1.004   5.812   1.684 -0.6241  1.0498 -0.0032
  706MOL0     C93070   0.881   5.897   1.687 -0.2780  0.8154 -0.3635
  706MOL0     C93071   0.922   6.044   1.710 -0.5444 -0.4191  0.2443
  706MOL0     C93072   0.798   6.125   1.738 -0.3042 -0.1391 -0.4133
  706MOL0     C93073   0.840   6.270   1.767 -0.1026  0.5828  0.0234
  706MOL0     C93074   0.715   6.356   1.765 -0.2126 -0.7465 -0.9371
  706MOL0     C93075   0.742   6.513   1.759 -0.1396  0.2406 -0.0282
  706MOL0     C93076   0.781   6.591   1.893 -0.1961  0.3006  0.1895
  706MOL0     N93077   0.697   6.589   2.011  0.1058  0.4904 -0.1626
  706MOL0     C93078   0.729   6.551   2.140 -0.3913 -0.1653  0.9947
  706MOL0     C93079   0.607   6.529   2.206  0.2835 -0.2786  0.2441
  706MOL0     C93080   0.582   6.486   2.346 -0.4988  0.0032  0.0051
  706MOL0     C93081   0.435   6.475   2.378 -0.1626 -0.4322 -0.3385
  706MOL0     C93082   0.404   6.391   2.503 -0.2222  0.0347 -0.2412
  706MOL0     C93083   0.258   6.350   2.506 -0.7387  0.2205 -0.2081
  706MOL0     O93084   0.175   6.464   2.536 -0.2720  0.0074 -0.2705
  706MOL0     C93085   0.043   6.434   2.527 -0.8213 -0.3615 -0.4495
  706MOL0     C93086  -0.037   6.525   2.473 -0.1436 -0.5626  0.7146
  706MOL0     C93087  -0.179   6.503   2.453 -0.8298 -0.5253  0.2733
  706MOL0     C93088  -0.239   6.387   2.488  0.3507 -0.2422  0.7748
  706MOL0     C93089  -0.380   6.348   2.455 -0.0670  0.1394  0.0074
  706MOL0     O93090  -0.461   6.435   2.397 -0.5365 -0.3434  0.7291
  706MOL0     C93091  -0.595   6.418   2.404  0.6024  0.3928  0.0922
  706MOL0     C93092  -0.670   6.417   2.285  0.1745  0.0118 -0.1370
  706MOL0     C93093  -0.806   6.419   2.286  0.6255 -0.2257 -0.0074
  706MOL0     C93094  -0.881   6.436   2.402 -1.4061 -0.3226  0.2872
  706MOL0     O93095  -1.012   6.449   2.393 -0.3693  0.2337  0.4302
  706MOL0     C93096  -1.089   6.446   2.511 -0.5319 -0.5255  0.0981
  706MOL0     C93097  -1.242   6.444   2.481  0.1609 -0.7926 -0.6030
  706MOL0     C93098  -1.322   6.445   2.620 -0.8730 -0.3369  0.2632
  706MOL0     C93099  -1.470   6.472   2.593 -0.2488 -0.9462  1.1083
  706MOL0     C93100  -1.567   6.421   2.708 -0.5088 -0.4021 -1.0062
  706MOL0     C93101  -1.605   6.275   2.718  0.3463  1.4009  0.4723
  706MOL0     C93102  -1.701   6.255   2.601 -0.0373 -0.9248 -0.2150
  706MOL0     C93103  -1.745   6.112   2.587  0.6097  0.2364  0.0151
  706MOL0    Cl93104  -1.847   6.086   2.436 -0.3761 -0.1778 -0.4176
  706MOL0     C93105  -0.806   6.460   2.520  0.9139  0.3804  0.6438
  706MOL0     C93106  -0.665   6.447   2.526  1.3687 -0.1332  0.0523
  706MOL0     O93107  -0.419   6.239   2.502  0.1579 -0.0485 -0.1377
  706MOL0     C93108  -0.152   6.297   2.552 -0.8946  0.3254  0.5367
  706MOL0     C93109  -0.019   6.325   2.581  0.6730 -0.6022 -0.4629
  706MOL0     N93110   0.504   6.580   2.126  0.3776 -0.0895  0.1365
  706MOL0     N93111   0.565   6.628   2.021  0.1959  0.4013 -0.5613
  706MOL0     C93112   1.331   5.886   1.644  0.4224 -0.3597  0.3923
  706MOL0     C93113   1.456   5.836   1.659 -0.5568 -0.5218  0.3556
  706MOL0     C93114   1.816   5.651   1.770 -0.2063 -0.3146 -0.2068
  706MOL0     C93115   1.889   5.596   1.655  0.9019 -0.5441  0.0951
  706MOL0     C93116   2.029   5.602   1.658  1.2675  0.4255  0.9582
  706MOL0     C93117   2.107   5.630   1.780  0.2663  0.5983 -0.3756
  706MOL0     O93118   2.239   5.649   1.798  0.4493 -0.0033  0.2364
  706MOL0     C93119   2.318   5.609   1.675  1.1308 -0.5242 -0.1441
  706MOL0     C93120   2.463   5.593   1.724  0.5337 -0.2157 -0.0255
  706MOL0     C93121   2.520   5.735   1.767  0.0988  0.2463  0.0378
  706MOL0     C93122   2.662   5.729   1.824 -0.3322  0.1895  0.0262
  706MOL0     C93123   2.713   5.860   1.870 -0.2055 -1.2973 -0.2194
  706MOL0     C93124   2.787   5.950   1.911  0.7089 -0.1826  0.0337
  706MOL0     C93125   2.029   5.662   1.893 -0.0651 -0.5144 -0.4712
  706MOL0     C93126   1.885   5.667   1.893 -0.1416 -0.2887  0.6853
  706MOL0     H93127   1.413   5.542   1.495 -1.8381 -0.5063  0.4686
  706MOL0     H93128   1.186   5.617   1.489  0.5753  0.3946 -2.5446
  706MOL0     H93129   1.068   5.793   1.771 -0.5917 -1.9609 -0.5914
  706MOL0     H93130   0.960   5.715   1.660  1.1606 -0.0405  0.9314
  706MOL0     H93131   0.834   5.857   1.777  1.2158 -2.0633 -0.7448
  706MOL0     H93132   0.830   5.877   1.592 -0.3197 -1.0145  0.0159
  706MOL0     H93133   0.974   6.075   1.619  0.4137 -1.3360  0.4756
  706MOL0     H93134   0.989   6.056   1.795  1.2162  0.9581 -1.2609
  706MOL0     H93135   0.733   6.120   1.650  0.8204 -2.1078 -1.2140
  706MOL0     H93136   0.740   6.082   1.820 -0.9627  0.7340 -0.4076
  706MOL0     H93137   0.917   6.303   1.696  0.3312 -0.2558  0.0885
  706MOL0     H93138   0.894   6.279   1.861  2.3410 -1.6451 -1.0179
  706MOL0     H93139   0.658   6.334   1.856 -1.7104 -1.7325 -2.0574
  706MOL0     H93140   0.665   6.330   1.671 -0.0956 -0.2663 -1.1316
  706MOL0     H93141   0.819   6.535   1.684 -0.6824  1.2565 -0.3093
  706MOL0     H93142   0.645   6.552   1.727  0.1323  2.2842  1.4177
  706MOL0     H93143   0.787   6.699   1.874 -1.6335  0.0413 -2.1418
  706MOL0     H93144   0.881   6.566   1.928 -0.6673 -0.7783  0.8159
  706MOL0     H93145   0.829   6.528   2.176  1.3980 -0.0723 -3.3194
  706MOL0     H93146   0.630   6.559   2.412  0.8471  1.9508 -2.9045
  706MOL0     H93147   0.640   6.395   2.362  0.9584  0.8277 -0.3404
  706MOL0     H93148   0.392   6.418   2.295 -4.3679  0.8572  0.6710
  706MOL0     H93149   0.396   6.578   2.384 -0.3342 -0.5709  2.9150
  706MOL0     H93150   0.467   6.303   2.515 -0.3162  0.1377  1.1423
  706MOL0     H93151   0.418   6.453   2.592  1.2200  0.0053 -0.4218
  706MOL0     H93152   0.245   6.266   2.575  1.0091  0.3406  0.3033
  706MOL0     H93153   0.231   6.305   2.409 -1.7624 -0.2760  0.2886
  706MOL0     H93154  -0.002   6.621   2.436 -0.8738 -0.8493 -0.8270
  706MOL0     H93155  -0.236   6.588   2.417 -2.7097 -2.5781 -1.9149
  706MOL0     H93156  -0.617   6.401   2.191 -0.2744 -2.0199 -0.0738
  706MOL0     H93157  -0.859   6.407   2.192  0.4443  1.5506 -0.1616
  706MOL0     H93158  -1.083   6.540   2.568 -1.1379  0.8116 -1.9434
  706MOL0     H93159  -1.063   6.356   2.567 -0.0183  0.1075  0.9118
  706MOL0     H93160  -1.269   6.363   2.412  1.9522 -0.2673 -1.9848
  706MOL0     H93161  -1.258   6.541   2.432 -3.0589 -0.9154 -0.0043
  706MOL0     H93162  -1.284   6.523   2.686 -2.8072  0.3050  0.6794
  706MOL0     H93163  -1.322   6.355   2.681  0.7670  0.7591  1.9806
  706MOL0     H93164  -1.473   6.580   2.577  2.2821 -0.6767  2.0580
  706MOL0     H93165  -1.493   6.419   2.500 -0.2359  0.6928  0.1481
  706MOL0     H93166  -1.664   6.469   2.714 -1.9817 -3.3144  0.5358
  706MOL0     H93167  -1.512   6.443   2.800  1.0524  0.5894 -2.1166
  706MOL0     H93168  -1.658   6.247   2.809  2.1531 -0.4631  1.0276
  706MOL0     H93169  -1.515   6.213   2.711 -0.4468  0.3550 -1.3518
  706MOL0     H93170  -1.790   6.318   2.613 -1.7180 -3.2202 -0.1428
  706MOL0     H93171  -1.648   6.279   2.508  1.1817  0.1957  0.7212
  706MOL0     H93172  -1.797   6.072   2.674 -0.7135  0.4365 -0.6636
  706MOL0     H93173  -1.653   6.055   2.569  1.7466  2.5868 -2.2160
  706MOL0     H93174  -0.864   6.479   2.610  0.1956 -1.9793  0.7421
  706MOL0     H93175  -0.618   6.478   2.619 -0.0224 -0.4738  0.8948
  706MOL0     H93176  -0.209   6.214   2.591  1.7283 -2.4676 -1.0843
  706MOL0     H93177   0.036   6.253   2.643 -0.3508  0.8510  2.3112
  706MOL0     H93178   1.305   5.987   1.671 -1.6410 -0.8241  0.3334
  706MOL0     H93179   1.532   5.906   1.691 -1.1444  0.8518 -1.0931
  706MOL0     H93180   1.824   5.568   1.572 -0.2655  4.2909 -0.9150
  706MOL0     H93181   2.067   5.605   1.557 -0.3528 -1.9660  0.1841
  706MOL0     H93182   2.306   5.683   1.596 -1.0146 -0.4312  0.1994
  706MOL0     H93183   2.279   5.510   1.647  1.8022 -0.6188 -0.7617
  706MOL0     H93184   2.461   5.523   1.808 -0.1792 -1.3238 -0.9304
  706MOL0     H93185   2.533   5.555   1.649  0.1355 -3.0321  0.9095
  706MOL0     H93186   2.453   5.767   1.847 -1.4622  1.3451 -1.6308
  706MOL0     H93187   2.516   5.806   1.684 -0.9944  0.9580  0.6730
  706MOL0     H93188   2.669   5.654   1.905 -0.5411 -1.5042 -1.4559
  706MOL0     H93189   2.729   5.684   1.750 -0.6453 -1.4860  0.7010
  706MOL0     H93190   2.858   6.025   1.939  1.2049 -0.6947  0.1596
  706MOL0     H93191   2.085   5.680   1.984  0.5397 -1.7704 -0.5648
  706MOL0     H93192   1.834   5.699   1.983 -0.2034  0.7534  0.2955
  707MOL0     O93193   1.178   5.967   9.391 -0.2599  0.5225  0.3059
  707MOL0     C93194   1.274   6.043   9.378  0.5550  0.0344 -0.0146
  707MOL0     O93195   1.265   6.165   9.328 -0.4225 -0.5180  0.2449
  707MOL0     C93196   1.144   6.203   9.293  0.1541  0.2810 -0.2593
  707MOL0     C93197   1.096   6.323   9.342  0.7366 -0.1118  0.0717
  707MOL0     C93198   0.979   6.388   9.297  0.3272 -0.6898 -0.0082
  707MOL0     C93199   0.896   6.325   9.206  0.3599 -0.2474 -0.2865
  707MOL0     O93200   0.787   6.388   9.153  0.3189 -0.2301 -0.2368
  707MOL0     C93201   0.751   6.525   9.193 -0.6892 -0.4955  0.2587
  707MOL0     C93202   0.627   6.558   9.107 -0.8483 -0.0943 -0.5637
  707MOL0     C93203   0.502   6.542   9.205  0.6787  0.0147  0.5139
  707MOL0     C93204   0.379   6.540   9.110  0.3810  0.0827  0.2437
  707MOL0     C93205   0.252   6.550   9.191 -0.4171 -0.2676  0.8245
  707MOL0     C93206   0.123   6.559   9.098  0.2873 -0.2342 -0.3659
  707MOL0     C93207  -0.006   6.498   9.161 -0.4195 -0.9930 -0.0489
  707MOL0     C93208  -0.135   6.524   9.075  0.2267  0.1301  0.3497
  707MOL0     N93209  -0.248   6.490   9.167 -0.1245  0.4535  0.0075
  707MOL0     C93210  -0.300   6.561   9.274 -0.4587 -0.4888 -0.5608
  707MOL0     C93211  -0.396   6.479   9.334  0.3822  0.9611 -0.5531
  707MOL0     C93212  -0.488   6.507   9.450 -0.4747  0.1959 -0.3699
  707MOL0     C93213  -0.400   6.580   9.567  0.5889 -0.1646  0.3104
  707MOL0     C93214  -0.485   6.598   9.698  0.6443 -0.1449  0.7351
  707MOL0     C93215  -0.405   6.648   9.818  0.5181 -0.4424  0.0436
  707MOL0     O93216  -0.308   6.557   9.860 -0.2109 -0.6435  1.2065
  707MOL0     C93217  -0.179   6.592   9.890 -0.7358 -0.6755 -0.2984
  707MOL0     C93218  -0.115   6.714   9.865  0.1884 -0.1874  0.0029
  707MOL0     C93219   0.022   6.734   9.908 -0.1350  0.1718  0.3366
  707MOL0     C93220   0.092   6.636   9.976 -0.1321  0.0477 -0.4043
  707MOL0     C93221   0.235   6.646  10.012 -0.2874 -0.9133  0.2927
  707MOL0     O93222   0.282   6.763   9.973  0.3277 -0.3568 -0.3126
  707MOL0     C93223   0.407   6.811   9.996  0.5578  0.6794  0.5085
  707MOL0     C93224   0.507   6.726   9.950  0.0451 -0.0329  0.1475
  707MOL0     C93225   0.639   6.761   9.948 -0.3741  0.1774 -0.0525
  707MOL0     C93226   0.667   6.893   9.995 -0.1440 -0.1776  0.0360
  707MOL0     O93227   0.794   6.942   9.999  0.9808 -0.0501 -0.9323
  707MOL0     C93228   0.909   6.857  10.024  0.0840  0.5448  0.3454
  707MOL0     C93229   1.044   6.929   9.990  0.6181  0.5191  0.1420
  707MOL0     C93230   1.076   6.894   9.844 -0.3308 -0.3278 -0.0514
  707MOL0     C93231   1.186   6.979   9.780 -0.5202  0.1387 -0.6964
  707MOL0     C93232   1.186   7.001   9.629 -0.2453 -0.4715 -0.0874
  707MOL0     C93233   1.270   7.121   9.589  0.3218  0.5673 -0.0181
  707MOL0     C93234   1.421   7.095   9.623  0.2978 -1.2875 -0.0414
  707MOL0     C93235   1.514   7.187   9.540 -0.2314 -0.2432  0.9261
  707MOL0    Cl93236   1.681   7.127   9.545 -0.0279  0.2768 -0.7809
  707MOL0     C93237   0.572   6.975  10.054  0.3990  0.4898  0.3394
  707MOL0     C93238   0.437   6.932  10.051 -0.3322 -0.7796 -0.5958
  707MOL0     O93239   0.303   6.561  10.073  0.3996  0.1353  0.1255
  707MOL0     C93240   0.027   6.516  10.013  0.1844  1.6054  0.3436
  707MOL0     C93241  -0.101   6.495   9.960  0.0929  0.1292  0.5707
  707MOL0     N93242  -0.404   6.366   9.254  0.7921  0.6626 -0.8505
  707MOL0     N93243  -0.313   6.371   9.164 -0.3759 -0.3330  0.4306
  707MOL0     C93244   0.941   6.199   9.160 -0.7536  1.1866  0.2740
  707MOL0     C93245   1.067   6.142   9.193  0.1603 -0.4728 -0.4811
  707MOL0     C93246   1.403   5.982   9.421 -0.0682 -0.2465  0.5130
  707MOL0     C93247   1.528   6.044   9.404  0.2638  0.8584  0.6675
  707MOL0     C93248   1.644   5.986   9.452  0.4608  0.8787  0.1145
  707MOL0     C93249   1.638   5.867   9.520  0.1041  0.6030 -0.4770
  707MOL0     O93250   1.758   5.814   9.570 -0.0039 -0.2660  0.4330
  707MOL0     C93251   1.776   5.687   9.631 -0.7559 -1.0419  0.3196
  707MOL0     C93252   1.931   5.674   9.638  0.5268 -0.0277  0.7325
  707MOL0     C93253   1.978   5.522   9.645 -0.6062  0.4628  0.0977
  707MOL0     C93254   1.930   5.461   9.776  0.3752 -0.1672 -1.1894
  707MOL0     C93255   1.973   5.322   9.796  0.2927  1.0820  0.4212
  707MOL0     C93256   2.027   5.216   9.811  0.6004  0.0896  0.0107
  707MOL0     C93257   1.515   5.812   9.545  0.2703  0.3606  0.3364
  707MOL0     C93258   1.395   5.860   9.499 -0.0778 -0.3739  0.4745
  707MOL0     H93259   1.159   6.367   9.419  1.4897 -0.2179 -0.4732
  707MOL0     H93260   0.957   6.487   9.335 -0.4819 -0.0777 -1.9412
  707MOL0     H93261   0.822   6.599   9.156 -2.6041 -0.1494 -3.1348
  707MOL0     H93262   0.744   6.526   9.302  2.8580 -3.4388  0.7126
  707MOL0     H93263   0.627   6.492   9.020  0.5026  1.7836 -2.0789
  707MOL0     H93264   0.636   6.660   9.068  0.8595  1.2605  2.9370
  707MOL0     H93265   0.493   6.617   9.283 -1.8783 -0.1189  0.4084
  707MOL0     H93266   0.506   6.448   9.261  0.5337 -2.7574 -3.6253
  707MOL0     H93267   0.395   6.633   9.054  1.4334  0.3655  0.9755
  707MOL0     H93268   0.383   6.461   9.035  1.5040  0.7363 -0.4211
  707MOL0     H93269   0.260   6.644   9.246 -1.0224  1.4102 -1.7509
  707MOL0     H93270   0.247   6.468   9.262 -0.5718 -0.5444  0.4982
  707MOL0     H93271   0.149   6.494   9.013 -1.3326  0.3008 -1.3259
  707MOL0     H93272   0.109   6.662   9.064 -3.7937 -0.2085  0.9380
  707MOL0     H93273  -0.003   6.390   9.180  0.1352 -0.5567  2.6350
  707MOL0     H93274  -0.027   6.547   9.256  0.5249 -1.7766  0.5787
  707MOL0     H93275  -0.152   6.449   8.997  1.2835  0.8069 -0.5668
  707MOL0     H93276  -0.141   6.627   9.039 -4.8417  0.2150  0.8022
  707MOL0     H93277  -0.261   6.655   9.312 -1.7906  1.4497 -3.6085
  707MOL0     H93278  -0.523   6.409   9.483 -0.2431 -0.0754 -0.9178
  707MOL0     H93279  -0.570   6.573   9.421  0.1899 -0.1072 -3.1817
  707MOL0     H93280  -0.357   6.675   9.533  2.1121  0.6974  4.0981
  707MOL0     H93281  -0.313   6.520   9.593  1.0919  1.7399  3.6854
  707MOL0     H93282  -0.573   6.660   9.679  1.2488  0.6244  0.3974
  707MOL0     H93283  -0.531   6.502   9.724 -0.6386  0.6794  1.6427
  707MOL0     H93284  -0.463   6.663   9.910  0.4804  0.5071 -0.1213
  707MOL0     H93285  -0.361   6.744   9.788 -1.1220  0.1474 -0.6031
  707MOL0     H93286  -0.162   6.788   9.802  0.5547 -0.6396 -0.8104
  707MOL0     H93287   0.063   6.832   9.885 -1.2694  0.6292  0.2138
  707MOL0     H93288   0.481   6.628   9.912  1.6210  0.0263 -1.2325
  707MOL0     H93289   0.719   6.695   9.914  0.3616  0.2240  1.5223
  707MOL0     H93290   0.911   6.755   9.985  1.6092  0.4292  0.6763
  707MOL0     H93291   0.913   6.855  10.133 -0.7020  0.3140  0.3799
  707MOL0     H93292   1.129   6.891  10.047 -0.7770 -1.9099  0.7639
  707MOL0     H93293   1.037   7.038   9.997  2.7747  0.7220 -0.0231
  707MOL0     H93294   0.991   6.937   9.790  0.8309  3.3105  0.7384
  707MOL0     H93295   1.080   6.785   9.840  0.6462 -0.4628  2.7858
  707MOL0     H93296   1.189   7.076   9.831 -0.7474  0.4230 -1.2159
  707MOL0     H93297   1.281   6.943   9.822  0.3107  0.7123 -2.0144
  707MOL0     H93298   1.090   7.026   9.584  1.3146  2.7173 -2.0350
  707MOL0     H93299   1.222   6.906   9.587 -1.4772 -0.6056 -0.8908
  707MOL0     H93300   1.237   7.210   9.641  0.1189  2.2451 -2.8166
  707MOL0     H93301   1.248   7.133   9.482 -0.0789 -2.9965 -0.4825
  707MOL0     H93302   1.437   7.111   9.730  0.0091  0.5275 -0.2394
  707MOL0     H93303   1.442   6.989   9.606  2.4326 -1.5187  3.1934
  707MOL0     H93304   1.523   7.294   9.564 -0.6899  0.0015  0.0615
  707MOL0     H93305   1.469   7.184   9.440  0.1116  1.0175  0.7141
  707MOL0     H93306   0.607   7.064  10.105  4.6623 -0.8038  0.0635
  707MOL0     H93307   0.367   6.992  10.107  0.3233  1.8521 -2.3919
  707MOL0     H93308   0.067   6.425  10.056 -2.8376 -0.7002 -1.3230
  707MOL0     H93309  -0.153   6.402   9.982  0.1346  0.5163  2.4970
  707MOL0     H93310   0.870   6.156   9.090  1.2174 -0.4493 -0.8436
  707MOL0     H93311   1.100   6.050   9.145 -1.7669 -0.6108 -1.6480
  707MOL0     H93312   1.538   6.139   9.352 -3.8775  0.4083 -1.3743
  707MOL0     H93313   1.747   6.021   9.444  0.8237 -0.5845 -2.4050
  707MOL0     H93314   1.738   5.603   9.571  1.6531 -0.5491 -2.0953
  707MOL0     H93315   1.727   5.691   9.728  2.6051 -2.8945  2.2746
  707MOL0     H93316   1.972   5.712   9.544  2.8562 -1.8969  0.8796
  707MOL0     H93317   1.974   5.742   9.712  1.8502 -0.3754  0.3161
  707MOL0     H93318   2.086   5.524   9.630 -0.9389  0.2563 -2.9142
  707MOL0     H93319   1.950   5.462   9.558  0.3173 -0.9230  0.7143
  707MOL0     H93320   1.982   5.514   9.857 -0.3369 -0.7101 -0.3520
  707MOL0     H93321   1.823   5.463   9.799  0.7527 -1.8121  1.1219
  707MOL0     H93322   2.087   5.128   9.807  1.4772  0.7151 -1.0969
  707MOL0     H93323   1.520   5.721   9.603 -0.0272 -0.6411 -1.1597
  707MOL0     H93324   1.308   5.799   9.520  1.1505 -2.0806  0.7696
  708MOL0     O93325   4.748   0.463   8.762 -0.1109  0.3117  0.1036
  708MOL0     C93326   4.803   0.363   8.808 -1.0022  0.2310 -0.0990
  708MOL0     O93327   4.747   0.247   8.863 -0.5941 -0.0464  1.0600
  708MOL0     C93328   4.616   0.249   8.889  0.7796  0.0217  0.1509
  708MOL0     C93329   4.538   0.361   8.922 -0.2659 -0.0550 -0.1768
  708MOL0     C93330   4.401   0.352   8.933 -0.6183 -0.4403  0.8691
  708MOL0     C93331   4.328   0.238   8.919  0.2941  0.6472 -0.5548
  708MOL0     O93332   4.189   0.245   8.929  0.1885  0.6779  0.2780
  708MOL0     C93333   4.091   0.143   8.898  0.3829  0.5202  0.0306
  708MOL0     C93334   4.049   0.180   8.754 -0.0740 -0.7361  0.5055
  708MOL0     C93335   3.916   0.123   8.709 -0.0450  0.1921  0.1961
  708MOL0     C93336   3.921  -0.026   8.693 -0.2299 -0.7406  0.6588
  708MOL0     C93337   3.799  -0.079   8.614 -0.3240  0.0572  0.7290
  708MOL0     C93338   3.817  -0.236   8.613  0.1556  0.9943 -0.5489
  708MOL0     C93339   3.677  -0.302   8.581 -0.0178 -0.1740 -0.5802
  708MOL0     C93340   3.694  -0.453   8.583 -0.4726 -0.6303 -0.1916
  708MOL0     N93341   3.571  -0.525   8.542 -0.3715  0.1243  0.1574
  708MOL0     C93342   3.494  -0.510   8.426 -0.2229 -0.6071 -0.3942
  708MOL0     C93343   3.399  -0.599   8.422  0.2321  0.4002  0.4753
  708MOL0     C93344   3.306  -0.605   8.310  0.3628  0.1564  0.7964
  708MOL0     C93345   3.211  -0.719   8.310  0.7951  0.1836 -0.3157
  708MOL0     C93346   3.114  -0.713   8.429  0.3179  0.9847  0.5988
  708MOL0     C93347   3.002  -0.816   8.410  0.2152  0.4497  0.2863
  708MOL0     O93348   2.934  -0.792   8.276 -0.3195 -0.6531 -0.6218
  708MOL0     C93349   2.826  -0.865   8.255  0.4120  0.1767 -0.4133
  708MOL0     C93350   2.781  -0.853   8.129 -0.2227 -0.0243  0.3423
  708MOL0     C93351   2.669  -0.923   8.082 -0.6686  0.8487  0.7620
  708MOL0     C93352   2.598  -1.005   8.170  0.6217  0.8027 -0.2395
  708MOL0     C93353   2.476  -1.084   8.122 -0.5096 -0.2579  0.4036
  708MOL0     O93354   2.423  -1.035   8.005  0.0678 -0.5339  0.3247
  708MOL0     C93355   2.319  -1.102   7.955 -0.1847  0.1308  0.2736
  708MOL0     C93356   2.193  -1.048   7.920  0.1986 -0.5981 -0.4077
  708MOL0     C93357   2.092  -1.122   7.854  0.8468 -0.1203  0.0533
  708MOL0     C93358   2.112  -1.259   7.828  0.5789 -0.3710 -0.9524
  708MOL0     O93359   2.011  -1.337   7.796  0.4596  0.3018 -0.4876
  708MOL0     C93360   1.880  -1.275   7.793 -0.3739  0.3607  0.1475
  708MOL0     C93361   1.778  -1.386   7.768 -0.4819  0.1857 -0.0042
  708MOL0     C93362   1.637  -1.336   7.781  0.4845 -0.2555  0.9170
  708MOL0     C93363   1.529  -1.433   7.752  0.3135  0.3852  0.3015
  708MOL0     C93364   1.545  -1.579   7.784  0.2549  0.5455  0.1228
  708MOL0     C93365   1.428  -1.672   7.758  0.1987  0.5001 -1.0845
  708MOL0     C93366   1.340  -1.685   7.894 -0.0476 -0.5105  0.3543
  708MOL0     C93367   1.230  -1.788   7.860 -0.2431  0.2390  0.1277
  708MOL0    Cl93368   1.116  -1.803   7.998  0.2369  0.2713  0.1606
  708MOL0     C93369   2.238  -1.312   7.851  0.1057 -0.3465 -0.3334
  708MOL0     C93370   2.341  -1.237   7.910  0.6255 -0.9957 -0.5511
  708MOL0     O93371   2.424  -1.178   8.187  0.0110  0.0526 -0.2683
  708MOL0     C93372   2.641  -1.009   8.303  0.1892  0.6610 -0.3937
  708MOL0     C93373   2.746  -0.939   8.349  0.1186 -0.7046  0.0732
  708MOL0     N93374   3.407  -0.664   8.545 -0.4327 -0.1021 -0.5107
  708MOL0     N93375   3.505  -0.618   8.615 -1.1893  1.0180  0.1560
  708MOL0     C93376   4.410   0.119   8.893 -0.6335  0.8906  0.2962
  708MOL0     C93377   4.553   0.124   8.892  0.5642 -0.1269 -0.6303
  708MOL0     C93378   4.950   0.377   8.841  0.1617 -0.0614 -0.2049
  708MOL0     C93379   5.015   0.487   8.789 -0.0244 -0.2212  0.0839
  708MOL0     C93380   5.147   0.510   8.819 -0.3264 -0.0710  0.0038
  708MOL0     C93381   5.213   0.422   8.901 -0.1789  0.1864 -0.7973
  708MOL0     O93382   5.344   0.434   8.942 -0.4841 -0.8144  0.1492
  708MOL0     C93383   5.417   0.546   8.885 -0.4607  0.2048 -0.1842
  708MOL0     C93384   5.564   0.546   8.941 -0.0660 -0.5846 -0.9359
  708MOL0     C93385   5.543   0.603   9.087  0.6990  0.1939  0.3312
  708MOL0     C93386   5.576   0.756   9.103 -0.2211  0.5929 -0.3751
  708MOL0     C93387   5.721   0.767   9.106 -0.5654 -0.0701  0.3019
  708MOL0     C93388   5.842   0.781   9.123  0.6196 -0.4178  0.1693
  708MOL0     C93389   5.147   0.310   8.947  0.7257 -0.5631 -0.6615
  708MOL0     C93390   5.015   0.285   8.917 -0.2323 -0.0577 -0.0436
  708MOL0     H93391   4.577   0.461   8.936 -0.7127 -0.1646  2.2863
  708MOL0     H93392   4.352   0.448   8.935  2.5505  1.3450 -0.3038
  708MOL0     H93393   4.012   0.156   8.972  1.2044  3.6578  0.5095
  708MOL0     H93394   4.124   0.039   8.894  0.7744  0.6666 -0.8447
  708MOL0     H93395   4.125   0.142   8.686 -0.8331 -1.0210 -0.1919
  708MOL0     H93396   4.036   0.287   8.734 -0.6369 -0.6132  1.4717
  708MOL0     H93397   3.901   0.156   8.605  1.6578 -1.4896 -0.6498
  708MOL0     H93398   3.840   0.146   8.783 -0.4316 -0.9181  0.1599
  708MOL0     H93399   4.002  -0.051   8.624 -0.3149  2.4828 -0.8270
  708MOL0     H93400   3.927  -0.072   8.792  1.3034  0.3482  1.1012
  708MOL0     H93401   3.796  -0.046   8.510  1.3930  0.2156  0.7026
  708MOL0     H93402   3.705  -0.045   8.659  0.7340 -1.2248  4.2882
  708MOL0     H93403   3.857  -0.268   8.710 -0.7496  3.5469  0.7859
  708MOL0     H93404   3.890  -0.269   8.539 -1.3359 -3.3096 -0.3891
  708MOL0     H93405   3.598  -0.278   8.652  1.2516  0.0649  0.8198
  708MOL0     H93406   3.652  -0.276   8.478  1.3745 -3.6025 -1.9279
  708MOL0     H93407   3.719  -0.496   8.680  0.7871  0.4904  0.0177
  708MOL0     H93408   3.765  -0.477   8.503 -2.0133 -0.1727 -1.7371
  708MOL0     H93409   3.514  -0.432   8.353  1.5886 -2.6230 -2.1941
  708MOL0     H93410   3.363  -0.609   8.217 -0.1419 -0.3449  0.5020
  708MOL0     H93411   3.243  -0.516   8.296 -0.8770 -0.9886 -1.3756
  708MOL0     H93412   3.279  -0.803   8.327  0.9816  0.3773 -0.0791
  708MOL0     H93413   3.166  -0.723   8.211 -0.3287  0.5196  0.1658
  708MOL0     H93414   3.159  -0.726   8.528 -2.5647 -0.1547  1.8459
  708MOL0     H93415   3.067  -0.614   8.425 -0.7733  0.5434  1.7747
  708MOL0     H93416   2.929  -0.803   8.491 -1.9540 -0.3592 -1.4511
  708MOL0     H93417   3.045  -0.916   8.423  0.6501  0.5791 -0.1590
  708MOL0     H93418   2.822  -0.775   8.064 -4.1340  0.5374 -1.7364
  708MOL0     H93419   2.621  -0.910   7.985 -0.7717  1.9879  0.9592
  708MOL0     H93420   2.163  -0.949   7.954  0.9332 -0.3141 -0.5756
  708MOL0     H93421   1.995  -1.073   7.848  0.0635 -1.7328 -1.7212
  708MOL0     H93422   1.864  -1.205   7.710 -2.4246 -1.0863 -0.7704
  708MOL0     H93423   1.855  -1.223   7.886 -1.4071  0.5342 -0.2185
  708MOL0     H93424   1.794  -1.463   7.844  0.5353 -0.1064 -0.4948
  708MOL0     H93425   1.794  -1.436   7.672 -0.1570 -2.4014  1.3234
  708MOL0     H93426   1.616  -1.252   7.715 -1.7637  0.2250  2.1407
  708MOL0     H93427   1.628  -1.293   7.881  1.6312  2.6946 -0.1413
  708MOL0     H93428   1.448  -1.399   7.817  0.8801  1.7749  0.3199
  708MOL0     H93429   1.504  -1.422   7.646  2.5756  0.6242 -0.2573
  708MOL0     H93430   1.582  -1.583   7.887  0.5019 -1.3185 -0.0125
  708MOL0     H93431   1.623  -1.623   7.721 -0.3691  2.2001 -1.9176
  708MOL0     H93432   1.468  -1.770   7.731  0.9645  0.5883 -0.3026
  708MOL0     H93433   1.365  -1.636   7.676  0.8733  1.7166 -1.0899
  708MOL0     H93434   1.397  -1.712   7.983 -0.0611  0.8692  0.8045
  708MOL0     H93435   1.277  -1.597   7.910 -2.5597 -1.3753 -3.3118
  708MOL0     H93436   1.267  -1.890   7.850  1.4919  0.9723 -1.3553
  708MOL0     H93437   1.175  -1.764   7.768 -1.1249 -0.6096  0.4081
  708MOL0     H93438   2.255  -1.419   7.841  2.0202 -0.4101  2.4834
  708MOL0     H93439   2.433  -1.293   7.927  1.4406 -0.2851 -2.4050
  708MOL0     H93440   2.571  -1.056   8.371  0.3041  0.3660 -0.4801
  708MOL0     H93441   2.776  -0.945   8.453  3.1511  0.3636 -0.6166
  708MOL0     H93442   4.367   0.022   8.872  0.9699  0.2569 -0.2399
  708MOL0     H93443   4.606   0.033   8.863 -1.6262 -1.1010 -1.8195
  708MOL0     H93444   4.957   0.550   8.722 -3.9520  1.2557  4.2917
  708MOL0     H93445   5.200   0.599   8.789 -0.6505  0.0324 -0.2646
  708MOL0     H93446   5.357   0.637   8.899 -1.7322 -0.7259  0.7424
  708MOL0     H93447   5.417   0.531   8.777  0.7083  0.6563 -0.2557
  708MOL0     H93448   5.608   0.446   8.938  0.8135 -0.2177 -0.4650
  708MOL0     H93449   5.630   0.607   8.879 -0.4264 -1.1692 -1.9197
  708MOL0     H93450   5.611   0.546   9.151  0.2403  0.8456  1.4380
  708MOL0     H93451   5.440   0.592   9.122  0.4546 -2.1598 -0.9069
  708MOL0     H93452   5.534   0.820   9.025  0.0616 -0.7272 -1.6603
  708MOL0     H93453   5.534   0.792   9.198  1.6737 -1.6867  1.4768
  708MOL0     H93454   5.948   0.795   9.113  0.6856 -1.1625 -0.2337
  708MOL0     H93455   5.191   0.238   9.016  2.4761  0.9752 -0.0825
  708MOL0     H93456   4.968   0.192   8.947 -0.3680 -0.4799 -1.4891
  709MOL0     O93457   6.801   6.270   5.513  0.0981  0.1167 -0.7916
  709MOL0     C93458   6.824   6.394   5.504  0.7587  0.1864  0.2467
  709MOL0     O93459   6.733   6.484   5.459 -0.2734  0.1842 -0.3851
  709MOL0     C93460   6.595   6.470   5.439 -0.4243 -0.6163  0.7583
  709MOL0     C93461   6.525   6.563   5.363  0.2893 -0.0504 -0.2154
  709MOL0     C93462   6.393   6.555   5.351  0.4383  0.8527  0.6015
  709MOL0     C93463   6.328   6.443   5.399 -0.0757 -0.1664  0.6080
  709MOL0     O93464   6.194   6.434   5.383  0.6055 -0.4699 -0.2660
  709MOL0     C93465   6.167   6.345   5.272 -0.2466  0.0644 -0.2900
  709MOL0     C93466   6.011   6.316   5.257 -0.5151  0.0306  0.2978
  709MOL0     C93467   5.985   6.200   5.167 -0.1139 -0.3330 -0.2501
  709MOL0     C93468   5.836   6.199   5.129  0.2413 -0.4580  0.1213
  709MOL0     C93469   5.814   6.117   5.002 -0.1173  0.1044  0.1051
  709MOL0     C93470   5.669   6.106   4.966  0.1756  0.0326  0.2215
  709MOL0     C93471   5.647   6.068   4.823  0.4660  0.4257  0.1659
  709MOL0     C93472   5.496   6.066   4.794  0.4780  0.7330  1.1331
  709MOL0     N93473   5.422   5.970   4.867 -0.0201 -0.1486  0.2383
  709MOL0     C93474   5.337   5.987   4.971  0.3446 -0.0863  0.3903
  709MOL0     C93475   5.260   5.870   4.980 -1.1058 -0.2359  0.4872
  709MOL0     C93476   5.149   5.840   5.078 -0.3528  0.3203 -0.1234
  709MOL0     C93477   5.013   5.894   5.028 -0.8998 -0.0966 -0.0070
  709MOL0     C93478   4.888   5.837   5.100  0.7369 -0.0314  0.1702
  709MOL0     C93479   4.758   5.899   5.046 -0.7893  0.2755  0.1918
  709MOL0     O93480   4.648   5.831   5.106 -0.2094  0.6146 -0.2374
  709MOL0     C93481   4.534   5.817   5.039 -0.0078  0.4166  0.2226
  709MOL0     C93482   4.484   5.902   4.938  0.3369 -0.7114 -0.0768
  709MOL0     C93483   4.359   5.878   4.882  1.1792  0.4593  0.2533
  709MOL0     C93484   4.284   5.763   4.920 -0.3753  0.3261  0.0902
  709MOL0     C93485   4.163   5.726   4.856 -0.4011 -0.4441  0.6696
  709MOL0     O93486   4.075   5.642   4.923 -0.2906 -0.2884 -0.0542
  709MOL0     C93487   3.994   5.571   4.841  1.9293  0.6745  0.7424
  709MOL0     C93488   3.867   5.619   4.808  0.3444 -0.1239 -0.2286
  709MOL0     C93489   3.771   5.545   4.736  0.2201 -0.3890 -0.3400
  709MOL0     C93490   3.807   5.409   4.701 -0.6932 -0.2386 -0.3508
  709MOL0     O93491   3.721   5.326   4.637 -0.2352  0.1735  0.1061
  709MOL0     C93492   3.589   5.380   4.615 -0.5968 -0.1428  0.6682
  709MOL0     C93493   3.499   5.267   4.560 -0.0879 -0.2857 -1.0614
  709MOL0     C93494   3.359   5.325   4.541 -0.0310 -0.6914  0.3891
  709MOL0     C93495   3.261   5.212   4.492 -0.0203 -0.4969  0.0778
  709MOL0     C93496   3.115   5.253   4.508 -0.7416  0.0434  0.0348
  709MOL0     C93497   3.014   5.140   4.478 -0.5749 -0.3778 -0.4865
  709MOL0     C93498   2.874   5.188   4.451 -0.4495 -0.7052  0.2474
  709MOL0     C93499   2.820   5.273   4.564 -0.0356  0.6291 -0.1980
  709MOL0    Cl93500   2.643   5.259   4.575 -0.0186 -0.2758  0.0878
  709MOL0     C93501   3.936   5.353   4.730  0.5041 -0.4545 -0.8275
  709MOL0     C93502   4.027   5.435   4.810  0.0490 -0.5914 -0.6013
  709MOL0     O93503   4.143   5.773   4.739  0.4500 -0.3328 -0.1969
  709MOL0     C93504   4.342   5.677   5.016  1.2318 -0.0860  0.1034
  709MOL0     C93505   4.466   5.701   5.070 -0.1567 -0.7768 -0.7411
  709MOL0     N93506   5.314   5.783   4.881  0.1424  0.6556 -0.1814
  709MOL0     N93507   5.405   5.847   4.815 -1.0785  0.3119  0.6165
  709MOL0     C93508   6.395   6.344   5.466  0.2769  0.3222  0.7070
  709MOL0     C93509   6.524   6.360   5.482 -0.3211  0.1956 -0.0716
  709MOL0     C93510   6.962   6.438   5.521  0.1095  0.1280 -0.5704
  709MOL0     C93511   7.064   6.350   5.568  0.5363  0.3695 -0.0161
  709MOL0     C93512   7.197   6.401   5.596  0.0651 -0.4646 -1.1918
  709MOL0     C93513   7.232   6.535   5.571 -0.0872  1.1419 -1.0102
  709MOL0     O93514   7.355   6.568   5.616 -0.1490 -0.1863 -0.1840
  709MOL0     C93515   7.397   6.706   5.618 -0.7622  0.2206 -0.3925
  709MOL0     C93516   7.524   6.696   5.710 -0.4245 -0.0578 -0.6076
  709MOL0     C93517   7.603   6.832   5.692 -0.9015 -0.5145  0.0951
  709MOL0     C93518   7.755   6.820   5.737 -0.3175  0.7704 -0.5440
  709MOL0     C93519   7.839   6.718   5.668  0.2529  0.8298 -0.7345
  709MOL0     C93520   7.905   6.652   5.595 -0.4866 -0.1651 -0.0893
  709MOL0     C93521   7.133   6.618   5.517 -0.2481  1.0278 -1.1245
  709MOL0     C93522   7.001   6.576   5.496  0.4239 -0.6377 -0.0608
  709MOL0     H93523   6.571   6.642   5.305 -2.2490  0.2562 -1.9976
  709MOL0     H93524   6.339   6.641   5.313  2.9635  3.1323  1.8101
  709MOL0     H93525   6.213   6.248   5.296 -1.2849 -0.5727 -0.7767
  709MOL0     H93526   6.213   6.387   5.182  0.5656  1.0343  0.5591
  709MOL0     H93527   5.947   6.398   5.226 -1.4364 -0.6354  0.4147
  709MOL0     H93528   5.977   6.279   5.354 -0.9243 -1.3852 -0.3608
  709MOL0     H93529   6.009   6.105   5.217 -1.0611 -1.1586 -1.3030
  709MOL0     H93530   6.052   6.216   5.082  2.8443  1.5314  2.2153
  709MOL0     H93531   5.763   6.168   5.203 -0.6481 -0.7269 -0.8459
  709MOL0     H93532   5.806   6.297   5.092  0.8845  0.4648  1.9654
  709MOL0     H93533   5.858   6.018   5.010 -1.0199 -0.3440 -0.3036
  709MOL0     H93534   5.865   6.163   4.917 -1.0664  3.4253  1.1737
  709MOL0     H93535   5.609   6.197   4.975 -0.2989 -0.3934  1.6553
  709MOL0     H93536   5.650   6.021   5.032  2.6130 -1.8009 -1.3117
  709MOL0     H93537   5.684   6.145   4.754  0.4902  1.5061  1.3527
  709MOL0     H93538   5.691   5.969   4.805  1.6458  1.1759 -1.2944
  709MOL0     H93539   5.487   6.036   4.689 -0.1081  0.4235  1.2685
  709MOL0     H93540   5.452   6.165   4.780  0.0754  0.2489 -1.4789
  709MOL0     H93541   5.320   6.074   5.033 -0.5452  0.7633 -0.9933
  709MOL0     H93542   5.172   5.892   5.172  2.9854  1.5507 -1.4619
  709MOL0     H93543   5.145   5.734   5.104  1.9739 -0.0641 -1.0837
  709MOL0     H93544   5.005   5.861   4.924 -2.5858  0.7317 -0.1693
  709MOL0     H93545   5.012   6.003   5.029  1.9523  0.0035 -0.2199
  709MOL0     H93546   4.882   5.729   5.083 -0.0839 -0.4439  2.6370
  709MOL0     H93547   4.895   5.851   5.208 -0.2920  0.7841  0.1467
  709MOL0     H93548   4.758   5.881   4.938 -1.8641 -2.5759  0.5810
  709MOL0     H93549   4.758   6.006   5.068  2.6251  0.5578 -0.4993
  709MOL0     H93550   4.557   5.978   4.912  0.3020 -0.7921 -0.4117
  709MOL0     H93551   4.326   5.937   4.797 -0.8111 -1.2030 -0.2055
  709MOL0     H93552   3.844   5.722   4.836  0.9305 -0.6946  2.7211
  709MOL0     H93553   3.683   5.598   4.701  1.9496  0.3086 -4.1224
  709MOL0     H93554   3.614   5.458   4.543  3.2123 -3.0047 -1.4884
  709MOL0     H93555   3.543   5.415   4.708  1.6018  3.3096  0.6587
  709MOL0     H93556   3.506   5.184   4.631  1.3059  1.1906  0.6351
  709MOL0     H93557   3.533   5.224   4.465 -2.8827 -0.9269 -1.8767
  709MOL0     H93558   3.361   5.403   4.465  0.9797 -0.8796  0.2077
  709MOL0     H93559   3.322   5.355   4.640  0.2304  0.0914  0.2535
  709MOL0     H93560   3.285   5.176   4.392  1.5363 -2.0954  0.9594
  709MOL0     H93561   3.280   5.124   4.555 -1.5086 -0.1682  1.0245
  709MOL0     H93562   3.101   5.336   4.438  1.6002  1.7466  1.4463
  709MOL0     H93563   3.095   5.289   4.610  0.0131  0.4562  0.0385
  709MOL0     H93564   3.011   5.070   4.563 -1.3240 -2.6516 -2.2821
  709MOL0     H93565   3.057   5.088   4.392  2.6742  2.2465 -0.6251
  709MOL0     H93566   2.870   5.232   4.351  3.7622 -4.5877 -2.0254
  709MOL0     H93567   2.812   5.098   4.445 -1.7116  0.0831  1.1194
  709MOL0     H93568   2.853   5.377   4.552  1.2468  0.6163  2.4352
  709MOL0     H93569   2.860   5.238   4.660  2.5147 -0.6758 -1.6726
  709MOL0     H93570   3.957   5.247   4.714  0.9034 -0.2650 -1.5925
  709MOL0     H93571   4.116   5.388   4.852 -1.2988 -1.7131  1.0927
  709MOL0     H93572   4.291   5.584   5.042 -0.4696  0.2319 -1.8031
  709MOL0     H93573   4.512   5.637   5.144  1.1068  0.2794 -0.5623
  709MOL0     H93574   6.346   6.252   5.496 -1.7732  0.8359 -0.8687
  709MOL0     H93575   6.580   6.285   5.537 -3.1270  1.1870  4.7020
  709MOL0     H93576   7.041   6.248   5.598 -1.3992  0.6076 -0.5860
  709MOL0     H93577   7.274   6.343   5.645  0.2346  0.0946 -0.7818
  709MOL0     H93578   7.321   6.772   5.659 -1.8919 -0.9439 -0.5708
  709MOL0     H93579   7.407   6.733   5.512 -2.4848 -2.5892 -1.3690
  709MOL0     H93580   7.494   6.693   5.815 -0.7044 -0.0152 -0.6857
  709MOL0     H93581   7.588   6.613   5.678  1.8442 -0.4416  4.1355
  709MOL0     H93582   7.551   6.920   5.730 -0.5417  1.3673 -3.4057
  709MOL0     H93583   7.613   6.863   5.588  0.4470 -0.5282  0.1901
  709MOL0     H93584   7.800   6.920   5.733 -2.4388  2.0314  2.8591
  709MOL0     H93585   7.742   6.793   5.842 -0.2397  2.1440 -0.1625
  709MOL0     H93586   7.954   6.581   5.531  2.1030  2.2827 -1.0602
  709MOL0     H93587   7.145   6.726   5.508 -0.0652  0.8848 -2.9249
  709MOL0     H93588   6.933   6.650   5.455  1.4094 -0.0106 -0.5894
  710MOL0     O93589   3.731   1.424   9.006  0.0405  1.0015 -0.2901
  710MOL0     C93590   3.760   1.454   8.894 -0.5579  0.6379  1.3645
  710MOL0     O93591   3.702   1.406   8.776  0.4541 -0.0390  0.7236
  710MOL0     C93592   3.586   1.329   8.790  0.2816  0.5701  0.6011
  710MOL0     C93593   3.483   1.345   8.885  0.0469  0.1568  0.5943
  710MOL0     C93594   3.364   1.280   8.869  0.4103  0.2545  0.5200
  710MOL0     C93595   3.334   1.204   8.756  0.1563  0.0418 -0.3984
  710MOL0     O93596   3.207   1.145   8.746 -0.3683 -0.5040 -0.3709
  710MOL0     C93597   3.113   1.253   8.713 -0.7211  0.3340  0.4274
  710MOL0     C93598   2.966   1.220   8.730  0.0319  0.4465  0.9571
  710MOL0     C93599   2.866   1.327   8.691  0.4665 -0.4992  0.2562
  710MOL0     C93600   2.720   1.300   8.729  1.1126 -0.5993 -0.6341
  710MOL0     C93601   2.640   1.430   8.709 -0.0341  0.7615 -0.2134
  710MOL0     C93602   2.494   1.403   8.751  1.1716 -0.1447 -0.3743
  710MOL0     C93603   2.397   1.513   8.690  0.1992 -0.6659  1.0338
  710MOL0     C93604   2.246   1.486   8.716 -0.2151  0.1065 -0.7097
  710MOL0     N93605   2.171   1.595   8.653  0.2062  0.7688 -0.4041
  710MOL0     C93606   2.103   1.595   8.533  0.3542  0.4026  0.0011
  710MOL0     C93607   2.049   1.723   8.525  0.7018  0.1831  0.5503
  710MOL0     C93608   1.978   1.785   8.403 -0.1600  0.8693 -0.2889
  710MOL0     C93609   1.837   1.825   8.442 -1.0784  0.0751 -0.5945
  710MOL0     C93610   1.740   1.702   8.441  0.1892  0.4079 -0.7203
  710MOL0     C93611   1.595   1.739   8.472  0.4431  0.3579 -0.3344
  710MOL0     O93612   1.502   1.632   8.452  0.4351  0.3346 -0.7508
  710MOL0     C93613   1.383   1.630   8.518  0.9518 -0.1475 -0.0013
  710MOL0     C93614   1.331   1.743   8.586 -0.0709 -0.1260  0.3533
  710MOL0     C93615   1.202   1.746   8.620 -0.4772  0.2763 -0.0485
  710MOL0     C93616   1.113   1.637   8.612  0.0323  0.4444 -0.3402
  710MOL0     C93617   0.982   1.627   8.671  0.6130 -0.3775 -1.5163
  710MOL0     O93618   0.938   1.746   8.721  0.2310  0.3892 -0.0586
  710MOL0     C93619   0.817   1.746   8.796 -0.8646  0.7855 -0.0378
  710MOL0     C93620   0.782   1.641   8.881  1.1891 -0.0484  0.4884
  710MOL0     C93621   0.657   1.643   8.949  0.0917  0.1420  0.2638
  710MOL0     C93622   0.565   1.753   8.928 -1.0792 -1.1051 -0.1768
  710MOL0     O93623   0.439   1.761   8.987  0.5484  0.1187  0.3517
  710MOL0     C93624   0.359   1.644   8.967 -0.6930 -0.7812  0.4260
  710MOL0     C93625   0.303   1.628   8.824 -0.0052  0.3145 -0.0746
  710MOL0     C93626   0.209   1.509   8.792 -1.0375 -0.4230  0.4819
  710MOL0     C93627   0.296   1.373   8.783 -0.1060 -0.7541 -0.5185
  710MOL0     C93628   0.220   1.272   8.717  0.4941  0.5976 -0.3276
  710MOL0     C93629   0.292   1.133   8.716  0.5000  0.7576 -0.2407
  710MOL0     C93630   0.230   1.029   8.617  0.0065 -0.4282 -1.1330
  710MOL0     C93631   0.267   0.890   8.655  0.3784 -0.4852  1.2278
  710MOL0    Cl93632   0.174   0.780   8.554  0.1595  0.1843  0.0837
  710MOL0     C93633   0.612   1.871   8.863  0.8241  0.9038  0.0499
  710MOL0     C93634   0.726   1.856   8.787 -0.0119 -0.1260  0.2298
  710MOL0     O93635   0.924   1.522   8.663  1.1742  0.0451  0.3639
  710MOL0     C93636   1.171   1.522   8.546 -0.0496  0.4738 -1.3139
  710MOL0     C93637   1.300   1.521   8.501 -0.3016  0.2491  0.2694
  710MOL0     N93638   2.083   1.784   8.645 -0.8277 -0.2636 -1.1828
  710MOL0     N93639   2.156   1.710   8.716 -0.3327 -0.0038  0.5391
  710MOL0     C93640   3.428   1.190   8.650 -0.2338  0.6601 -1.1523
  710MOL0     C93641   3.550   1.249   8.674 -0.1176 -0.3001 -0.0687
  710MOL0     C93642   3.879   1.544   8.879  0.3278 -1.0579 -0.4831
  710MOL0     C93643   3.884   1.628   8.768  0.6509  0.6327 -0.0440
  710MOL0     C93644   3.987   1.725   8.763  0.5104  1.3142 -1.1165
  710MOL0     C93645   4.100   1.714   8.847 -0.5844  1.1926  0.3148
  710MOL0     O93646   4.193   1.808   8.831  0.0042 -0.5842 -0.2251
  710MOL0     C93647   4.287   1.826   8.929  0.4169  0.1023  0.2537
  710MOL0     C93648   4.379   1.938   8.882 -0.6908  0.6994  0.4440
  710MOL0     C93649   4.451   1.986   9.005 -0.3423 -0.9670  0.6142
  710MOL0     C93650   4.577   2.074   8.975  0.3401  1.0802 -0.6819
  710MOL0     C93651   4.645   2.118   9.098  0.5389  0.9739  0.9616
  710MOL0     C93652   4.704   2.146   9.201 -0.5239  0.3942  0.1804
  710MOL0     C93653   4.091   1.626   8.953  0.0706  0.4887 -0.9977
  710MOL0     C93654   3.975   1.553   8.975  1.6552  0.5920 -0.1818
  710MOL0     H93655   3.491   1.406   8.974 -1.2336 -0.1361  0.9221
  710MOL0     H93656   3.292   1.289   8.950  0.4308 -2.2884  0.9037
  710MOL0     H93657   3.121   1.260   8.604 -0.1866  3.0738  0.5688
  710MOL0     H93658   3.135   1.348   8.763  1.1267 -0.9340  2.2101
  710MOL0     H93659   2.951   1.205   8.838  0.7053 -1.2027  0.8554
  710MOL0     H93660   2.960   1.128   8.673  3.9900  1.5081 -1.5612
  710MOL0     H93661   2.868   1.347   8.583  1.9283  0.6281  0.4739
  710MOL0     H93662   2.901   1.415   8.745 -0.6333  0.1391 -0.0429
  710MOL0     H93663   2.675   1.219   8.670 -0.3564  1.4190 -2.4478
  710MOL0     H93664   2.720   1.276   8.835 -0.8722 -1.0466 -0.6840
  710MOL0     H93665   2.646   1.450   8.601 -0.2010  1.1427 -0.1548
  710MOL0     H93666   2.688   1.512   8.762  0.2894  0.0347  0.6417
  710MOL0     H93667   2.485   1.397   8.860 -0.2704 -4.9313 -0.5482
  710MOL0     H93668   2.458   1.304   8.722 -2.7748  1.1133 -0.3228
  710MOL0     H93669   2.416   1.611   8.734 -1.1492 -0.7860  1.9621
  710MOL0     H93670   2.423   1.519   8.584  1.4906 -0.6942  1.3322
  710MOL0     H93671   2.233   1.478   8.824  2.8111 -4.8030 -0.4027
  710MOL0     H93672   2.228   1.384   8.679 -0.3653  0.4279 -1.5413
  710MOL0     H93673   2.117   1.516   8.461 -0.9359 -0.4335  0.6196
  710MOL0     H93674   1.982   1.710   8.324 -1.4918  2.1991 -1.6703
  710MOL0     H93675   2.027   1.877   8.369 -0.8773  0.5142 -2.4282
  710MOL0     H93676   1.807   1.897   8.366 -2.3907  0.7828  0.5476
  710MOL0     H93677   1.841   1.880   8.536  2.6049  1.0031 -1.1629
  710MOL0     H93678   1.756   1.656   8.343 -0.4530  1.1469 -1.1773
  710MOL0     H93679   1.760   1.633   8.524 -2.3177  1.4349  0.8485
  710MOL0     H93680   1.560   1.820   8.407  0.8602 -0.0069 -1.0254
  710MOL0     H93681   1.596   1.773   8.576 -0.0105  3.8942 -1.3638
  710MOL0     H93682   1.394   1.830   8.602 -4.3336  3.0994  1.3180
  710MOL0     H93683   1.163   1.832   8.672 -1.9652  0.3791 -1.2599
  710MOL0     H93684   0.847   1.556   8.900  1.0883  0.1401  1.8204
  710MOL0     H93685   0.619   1.560   9.007  1.7214 -0.3826  0.6224
  710MOL0     H93686   0.276   1.664   9.036 -2.5542  0.2998 -1.9757
  710MOL0     H93687   0.409   1.555   9.005  0.9675  0.3515  0.9840
  710MOL0     H93688   0.380   1.622   8.747  0.2174 -3.6676  0.2646
  710MOL0     H93689   0.242   1.718   8.809  0.6629  0.8656  0.4524
  710MOL0     H93690   0.161   1.528   8.695 -1.1998 -0.4849  0.5511
  710MOL0     H93691   0.133   1.515   8.870 -0.6328  0.7083  0.8091
  710MOL0     H93692   0.384   1.396   8.723  0.4026 -0.1378  0.4291
  710MOL0     H93693   0.327   1.329   8.878 -1.3107  1.5238  1.0198
  710MOL0     H93694   0.197   1.308   8.617  0.6409  1.0872 -0.1842
  710MOL0     H93695   0.128   1.242   8.768 -0.3968 -2.4870 -3.3939
  710MOL0     H93696   0.295   1.093   8.818  1.4641  1.5134  0.0410
  710MOL0     H93697   0.391   1.148   8.672  0.5619  2.2564  0.3488
  710MOL0     H93698   0.121   1.039   8.621  0.1578  1.2030  1.9351
  710MOL0     H93699   0.254   1.057   8.514 -0.0843  1.8669 -0.5955
  710MOL0     H93700   0.238   0.867   8.758 -1.8835 -0.4955  0.6451
  710MOL0     H93701   0.374   0.869   8.649 -0.0424 -2.6197  0.2522
  710MOL0     H93702   0.545   1.955   8.847 -0.5587  0.3195  2.2770
  710MOL0     H93703   0.761   1.925   8.711  0.5575 -1.4730 -0.7706
  710MOL0     H93704   1.117   1.428   8.536  1.4848 -1.1665  3.1483
  710MOL0     H93705   1.332   1.450   8.427  0.9698  1.5421 -0.4639
  710MOL0     H93706   3.420   1.131   8.559  2.9666  0.0034 -1.1362
  710MOL0     H93707   3.618   1.256   8.589 -1.5849 -4.1054 -1.8017
  710MOL0     H93708   3.814   1.617   8.686  1.6730  1.6339 -1.0782
  710MOL0     H93709   3.975   1.795   8.681 -0.0639  0.5618 -1.6937
  710MOL0     H93710   4.344   1.738   8.960  1.6339  0.9820  0.5876
  710MOL0     H93711   4.233   1.872   9.012 -1.4454 -0.6554 -0.4872
  710MOL0     H93712   4.455   1.900   8.813  1.1533  2.2756  1.4956
  710MOL0     H93713   4.319   2.020   8.842  2.8419  4.1093  1.5263
  710MOL0     H93714   4.485   1.907   9.073 -2.0985 -1.4564  0.9696
  710MOL0     H93715   4.382   2.053   9.057  1.4101  2.4702 -1.1516
  710MOL0     H93716   4.643   2.012   8.914  1.0288  0.3651  0.7530
  710MOL0     H93717   4.555   2.158   8.909 -2.4840 -0.4362 -1.8425
  710MOL0     H93718   4.753   2.168   9.293 -0.1830 -0.8273  0.3196
  710MOL0     H93719   4.169   1.618   9.028 -0.6883 -1.2080 -0.3338
  710MOL0     H93720   3.958   1.495   9.065 -0.6823  0.9553 -0.3117
  711MOL0     O93721   2.468   8.708   8.396  1.0563 -0.4338  0.0327
  711MOL0     C93722   2.551   8.720   8.484 -1.5355  0.5882  0.6794
  711MOL0     O93723   2.531   8.744   8.614 -0.3921  0.0668  0.1599
  711MOL0     C93724   2.409   8.775   8.668 -0.0011 -0.0291 -1.0244
  711MOL0     C93725   2.338   8.882   8.613 -0.1418 -0.2533 -0.9334
  711MOL0     C93726   2.215   8.921   8.677  0.4899 -0.2857 -0.4595
  711MOL0     C93727   2.164   8.852   8.784  0.1142  0.7621  0.1552
  711MOL0     O93728   2.057   8.886   8.869  0.3158 -0.4798  0.3806
  711MOL0     C93729   1.941   8.929   8.806  0.1560 -0.3246  0.5259
  711MOL0     C93730   1.950   9.080   8.813 -0.5232 -0.2024  0.5065
  711MOL0     C93731   1.855   9.171   8.738 -0.3315 -0.1363 -0.0010
  711MOL0     C93732   1.714   9.133   8.768  0.0665  0.4240 -0.7079
  711MOL0     C93733   1.613   9.203   8.680  0.2222 -0.8692 -0.4654
  711MOL0     C93734   1.609   9.360   8.691  0.4187  0.6372  0.5607
  711MOL0     C93735   1.486   9.414   8.610 -0.6554  0.4211  0.3043
  711MOL0     C93736   1.362   9.417   8.696 -1.1784 -1.3804  0.0254
  711MOL0     N93737   1.242   9.475   8.624 -0.5921  0.0268 -0.6108
  711MOL0     C93738   1.248   9.576   8.536 -0.4427  0.3895  1.0302
  711MOL0     C93739   1.146   9.553   8.444  0.2791 -0.0861  0.6870
  711MOL0     C93740   1.115   9.641   8.332  0.0880 -0.0067  0.2128
  711MOL0     C93741   0.964   9.681   8.333  0.4443 -0.1591 -0.6235
  711MOL0     C93742   0.938   9.778   8.219  0.0038 -0.0464 -0.6933
  711MOL0     C93743   0.791   9.814   8.216  0.4992  0.6324  0.7426
  711MOL0     O93744   0.712   9.705   8.158  0.6691  0.6013 -0.0291
  711MOL0     C93745   0.570   9.724   8.168 -0.0788  0.4602  0.2981
  711MOL0     C93746   0.499   9.612   8.140 -0.8131 -0.0440  0.8512
  711MOL0     C93747   0.361   9.604   8.146  0.0458  0.2141  0.6408
  711MOL0     C93748   0.294   9.712   8.203 -0.0108  0.7896 -0.2614
  711MOL0     C93749   0.147   9.693   8.208  0.7202  0.3612  0.4969
  711MOL0     O93750   0.069   9.809   8.206 -0.6588  0.3812 -0.1173
  711MOL0     C93751  -0.065   9.816   8.217 -1.4126 -0.0179 -0.2863
  711MOL0     C93752  -0.149   9.713   8.172 -0.2684  0.2882  0.0350
  711MOL0     C93753  -0.286   9.731   8.165  0.7482  0.5515  0.2037
  711MOL0     C93754  -0.348   9.848   8.201 -0.0865  0.5757  0.5038
  711MOL0     O93755  -0.477   9.889   8.177 -0.6903  0.4512  0.2106
  711MOL0     C93756  -0.580   9.787   8.197 -1.1062 -0.2650 -0.8897
  711MOL0     C93757  -0.714   9.797   8.141  0.2170 -0.8107  0.1448
  711MOL0     C93758  -0.794   9.919   8.182  0.4732  0.1728  0.4850
  711MOL0     C93759  -0.940   9.912   8.123  0.5723 -0.4034  1.0468
  711MOL0     C93760  -1.030  10.021   8.171  0.3775  0.5309  0.4100
  711MOL0     C93761  -1.095   9.992   8.308  0.1084 -0.2203 -0.8547
  711MOL0     C93762  -1.165  10.117   8.356  0.1565 -0.4371  0.2221
  711MOL0     C93763  -1.258  10.078   8.473  0.5452  0.2509 -1.1250
  711MOL0    Cl93764  -1.321  10.227   8.537 -0.1486 -0.2443  0.4691
  711MOL0     C93765  -0.260   9.950   8.240 -0.0050 -0.5823 -0.6362
  711MOL0     C93766  -0.118   9.941   8.245  0.4314  0.7313 -0.2106
  711MOL0     O93767   0.105   9.578   8.232 -0.2766  0.0513 -0.0188
  711MOL0     C93768   0.359   9.839   8.227  0.7447 -0.2276  0.2767
  711MOL0     C93769   0.502   9.843   8.198  0.4261  1.1301  0.3782
  711MOL0     N93770   1.076   9.444   8.488  0.4277  0.2869  0.0765
  711MOL0     N93771   1.136   9.390   8.593  0.7849 -0.5100  0.8127
  711MOL0     C93772   2.233   8.737   8.836 -0.2093  0.0746 -0.7197
  711MOL0     C93773   2.364   8.708   8.787  0.0759 -0.9363  0.2067
  711MOL0     C93774   2.682   8.673   8.446 -0.0057  0.7252  0.1556
  711MOL0     C93775   2.709   8.593   8.332 -0.3224  0.1904 -0.0420
  711MOL0     C93776   2.838   8.544   8.315 -0.6578  0.1955  0.4291
  711MOL0     C93777   2.932   8.565   8.404 -0.2992 -0.2372  0.0929
  711MOL0     O93778   3.055   8.504   8.380 -0.5575 -0.3466 -0.0927
  711MOL0     C93779   3.155   8.604   8.344 -0.3501  0.3300 -0.5238
  711MOL0     C93780   3.221   8.556   8.219 -0.5652 -0.4940 -0.2239
  711MOL0     C93781   3.296   8.421   8.213  0.4122  1.0350  0.2361
  711MOL0     C93782   3.394   8.405   8.335 -0.0839 -0.2458  0.4907
  711MOL0     C93783   3.498   8.306   8.294 -0.4713 -0.9268 -0.2155
  711MOL0     C93784   3.577   8.217   8.269  0.7130 -0.0152 -0.5822
  711MOL0     C93785   2.911   8.638   8.521 -0.1095  0.3818 -0.7392
  711MOL0     C93786   2.788   8.698   8.536  0.2974 -0.8020  0.5862
  711MOL0     H93787   2.379   8.927   8.524 -2.1802  0.9099 -1.3554
  711MOL0     H93788   2.174   9.016   8.645  1.2397 -0.5610 -2.3229
  711MOL0     H93789   1.854   8.897   8.864  0.4319 -2.3461 -0.1004
  711MOL0     H93790   1.930   8.883   8.707  2.5543  0.5131 -0.1977
  711MOL0     H93791   2.048   9.112   8.777 -0.7595  1.8301  1.5462
  711MOL0     H93792   1.932   9.103   8.918  0.1841  1.2195  0.3369
  711MOL0     H93793   1.868   9.155   8.630 -1.5608 -2.2644  0.1112
  711MOL0     H93794   1.859   9.276   8.768  0.9593  0.7330 -2.8537
  711MOL0     H93795   1.697   9.028   8.744  0.2340  0.1624  0.2966
  711MOL0     H93796   1.693   9.140   8.875  0.4637 -0.5170 -0.5601
  711MOL0     H93797   1.516   9.169   8.715  0.1010  1.9535  2.3613
  711MOL0     H93798   1.619   9.177   8.573 -1.5791  0.4374 -0.9234
  711MOL0     H93799   1.707   9.383   8.648  0.0352 -1.0920 -1.3798
  711MOL0     H93800   1.611   9.395   8.795 -0.4203  0.4298  0.6520
  711MOL0     H93801   1.515   9.516   8.582  0.9048  0.2843  1.2838
  711MOL0     H93802   1.471   9.354   8.520 -1.7225  1.6084 -0.3492
  711MOL0     H93803   1.363   9.477   8.787 -0.6598 -0.1687 -0.7609
  711MOL0     H93804   1.348   9.315   8.734  2.6243 -1.5399  1.3551
  711MOL0     H93805   1.326   9.650   8.520  1.1987 -0.8963  2.6542
  711MOL0     H93806   1.149   9.599   8.237  1.7158 -0.3227  0.9120
  711MOL0     H93807   1.177   9.731   8.334 -1.9768  1.5670 -1.4338
  711MOL0     H93808   0.950   9.728   8.431  0.9623  1.2014 -1.1764
  711MOL0     H93809   0.891   9.600   8.324  0.2339  0.0893 -1.1885
  711MOL0     H93810   0.998   9.867   8.242  0.1793 -0.9102  2.7292
  711MOL0     H93811   0.971   9.742   8.121  1.4405 -3.0333  0.7764
  711MOL0     H93812   0.785   9.907   8.158  2.3253  1.3230  1.5834
  711MOL0     H93813   0.758   9.833   8.319 -1.9683 -2.6559  0.6993
  711MOL0     H93814   0.559   9.530   8.102 -0.3498 -0.0977  1.6899
  711MOL0     H93815   0.302   9.515   8.128 -3.3696  1.9896  2.2097
  711MOL0     H93816  -0.107   9.617   8.143  0.3158 -0.2135  2.3313
  711MOL0     H93817  -0.346   9.650   8.124  2.7865  0.2071 -2.4138
  711MOL0     H93818  -0.593   9.777   8.305  0.5815  1.2952 -0.4792
  711MOL0     H93819  -0.550   9.689   8.158  0.9608  1.2488 -3.4057
  711MOL0     H93820  -0.770   9.711   8.178 -1.7875 -0.0763 -1.0424
  711MOL0     H93821  -0.709   9.807   8.032 -0.2063  0.3330  0.2204
  711MOL0     H93822  -0.744  10.007   8.141 -0.2753  0.0785 -0.6759
  711MOL0     H93823  -0.807   9.933   8.290  2.3664  2.8362  0.4425
  711MOL0     H93824  -0.927   9.934   8.017 -1.6248  2.6546  1.3032
  711MOL0     H93825  -0.989   9.815   8.133  1.3328 -0.7021  2.1322
  711MOL0     H93826  -1.096  10.044   8.087  0.0975 -1.4515  0.0348
  711MOL0     H93827  -0.974  10.113   8.185 -2.1604  2.7656 -2.6620
  711MOL0     H93828  -1.020   9.959   8.381 -0.1966 -0.4393 -0.6366
  711MOL0     H93829  -1.168   9.912   8.291 -0.1218 -0.0179 -0.8173
  711MOL0     H93830  -1.089  10.193   8.379  0.2256 -0.7108  0.9016
  711MOL0     H93831  -1.231  10.163   8.281  1.2037  3.9836  1.6649
  711MOL0     H93832  -1.201  10.024   8.549  0.7622  1.9611 -0.0342
  711MOL0     H93833  -1.339  10.016   8.434 -0.7137  1.3101 -0.2506
  711MOL0     H93834  -0.304  10.045   8.270  1.7207 -0.3394  1.3262
  711MOL0     H93835  -0.051  10.022   8.271  1.2746  0.6360 -1.8901
  711MOL0     H93836   0.297   9.926   8.245 -1.3727 -0.6107 -3.9397
  711MOL0     H93837   0.547   9.940   8.218 -0.8494  1.1774  3.7124
  711MOL0     H93838   2.209   8.681   8.926 -2.9232 -1.4143 -2.2550
  711MOL0     H93839   2.420   8.624   8.826 -0.9551 -0.9766  1.7159
  711MOL0     H93840   2.633   8.578   8.256  1.4517 -0.5594 -1.7552
  711MOL0     H93841   2.862   8.495   8.221  0.3026  2.7835 -0.7981
  711MOL0     H93842   3.239   8.615   8.413 -0.9500 -0.0214  0.2883
  711MOL0     H93843   3.118   8.707   8.343  0.3983  0.6164 -2.5805
  711MOL0     H93844   3.136   8.553   8.150  0.5783  0.0276 -1.7142
  711MOL0     H93845   3.285   8.637   8.184 -2.0716  0.4427 -0.9382
  711MOL0     H93846   3.353   8.411   8.119 -2.1692  4.5035 -1.9275
  711MOL0     H93847   3.224   8.339   8.223  0.8620  0.7225  1.0116
  711MOL0     H93848   3.441   8.499   8.364 -1.8568 -0.1305  3.2947
  711MOL0     H93849   3.337   8.377   8.424 -2.8110  1.5105 -0.5837
  711MOL0     H93850   3.642   8.134   8.251 -1.2684 -1.4214 -1.6367
  711MOL0     H93851   2.986   8.643   8.600 -1.2183 -3.6211  0.7906
  711MOL0     H93852   2.775   8.756   8.627 -2.7712 -0.5514  0.0935
  712MOL0     O93853   2.948   9.559   2.402 -1.2802  0.5767 -0.0451
  712MOL0     C93854   2.838   9.613   2.444 -0.3338 -0.5677  0.2381
  712MOL0     O93855   2.832   9.744   2.494  0.1916  0.0367  0.7883
  712MOL0     C93856   2.945   9.813   2.524  0.1372 -0.5158  0.1680
  712MOL0     C93857   3.022   9.876   2.423  1.2779 -0.0299 -0.9769
  712MOL0     C93858   3.119   9.970   2.467 -0.8445  0.1087  0.3369
  712MOL0     C93859   3.147   9.994   2.606  0.6642 -0.3527 -0.7498
  712MOL0     O93860   3.253  10.078   2.634  0.6631  0.2989  0.4975
  712MOL0     C93861   3.325  10.067   2.760  0.0773  0.1313 -0.2397
  712MOL0     C93862   3.450  10.149   2.738 -0.1757 -0.2608 -0.8409
  712MOL0     C93863   3.547  10.082   2.639 -0.7532 -0.0968  0.1230
  712MOL0     C93864   3.608   9.952   2.690 -0.0004 -0.5743  0.0167
  712MOL0     C93865   3.735   9.917   2.604 -0.8464  0.3798  0.4996
  712MOL0     C93866   3.801   9.791   2.655  0.1428 -0.0254 -0.1386
  712MOL0     C93867   3.845   9.797   2.805  0.1998 -0.4493  0.1501
  712MOL0     C93868   3.953   9.898   2.834  0.2438 -0.5088  0.7187
  712MOL0     N93869   4.030   9.892   2.957 -1.0777  0.7365 -0.5840
  712MOL0     C93870   3.981   9.847   3.079  0.1239  0.5730 -0.2376
  712MOL0     C93871   4.072   9.889   3.174 -1.1598 -0.2939 -0.0155
  712MOL0     C93872   4.052   9.877   3.318 -0.0940  0.2520 -1.0226
  712MOL0     C93873   4.002  10.008   3.375 -0.3001  0.4521 -0.6151
  712MOL0     C93874   3.970   9.997   3.528 -0.5320 -0.4903  0.4178
  712MOL0     C93875   3.930  10.128   3.593  0.1489 -0.1863  0.1028
  712MOL0     O93876   3.830  10.200   3.512 -0.1268  0.2995 -0.1410
  712MOL0     C93877   3.698  10.172   3.543 -1.2730 -0.1340  1.0559
  712MOL0     C93878   3.652  10.070   3.629  0.0323 -0.3656 -0.3331
  712MOL0     C93879   3.516  10.039   3.644 -0.5716  0.8957  0.5373
  712MOL0     C93880   3.427  10.123   3.591  0.2011 -0.4996 -0.2294
  712MOL0     C93881   3.288  10.084   3.612  0.7737  0.3308 -0.0556
  712MOL0     O93882   3.254  10.019   3.730  0.0031 -0.1964 -0.3859
  712MOL0     C93883   3.123   9.970   3.748 -0.2755 -0.4060 -1.0025
  712MOL0     C93884   3.106   9.846   3.804 -0.2411  0.3233 -1.4508
  712MOL0     C93885   2.978   9.795   3.827 -0.0736  0.0949  0.0017
  712MOL0     C93886   2.859   9.869   3.819 -0.9052 -0.3004 -0.3018
  712MOL0     O93887   2.735   9.820   3.839 -0.2028 -0.4392 -1.2944
  712MOL0     C93888   2.712   9.675   3.841 -0.5553 -0.0897  0.6218
  712MOL0     C93889   2.565   9.644   3.876 -0.4101 -0.5336  0.1189
  712MOL0     C93890   2.459   9.731   3.805  0.2735  0.4668 -0.1243
  712MOL0     C93891   2.310   9.705   3.828  0.1070  0.6493 -0.1976
  712MOL0     C93892   2.267   9.781   3.953 -0.1044  0.3646  0.4571
  712MOL0     C93893   2.131   9.737   4.016  0.6078  0.2106 -0.0993
  712MOL0     C93894   2.021   9.799   3.930 -0.0295  0.0523  0.3397
  712MOL0     C93895   1.883   9.734   3.955 -0.4580 -0.1626  0.2629
  712MOL0    Cl93896   1.819   9.801   4.106 -0.3212 -0.1664 -0.1728
  712MOL0     C93897   2.876   9.997   3.761 -0.2315 -0.5557  0.5307
  712MOL0     C93898   3.008  10.048   3.728  1.7644 -0.1683 -0.1232
  712MOL0     O93899   3.206  10.124   3.524 -0.2415  0.1425 -0.1907
  712MOL0     C93900   3.462  10.236   3.514  0.9246  0.1902  0.9128
  712MOL0     C93901   3.599  10.254   3.480 -0.3569  0.1416 -0.1548
  712MOL0     N93902   4.177   9.957   3.107 -0.1929 -0.6543 -0.3074
  712MOL0     N93903   4.146   9.961   2.979  0.0477  0.6276 -0.1630
  712MOL0     C93904   3.078   9.918   2.699 -0.3228 -0.7408  0.1764
  712MOL0     C93905   2.977   9.837   2.658  1.1741  0.7653 -0.1549
  712MOL0     C93906   2.712   9.530   2.434 -0.5899 -0.1304 -0.1014
  712MOL0     C93907   2.714   9.409   2.373 -0.0856 -0.0500 -0.3452
  712MOL0     C93908   2.585   9.343   2.369 -0.9272 -0.0256 -0.8387
  712MOL0     C93909   2.477   9.393   2.432 -0.0343  0.0506 -0.4029
  712MOL0     O93910   2.359   9.323   2.427 -0.2458 -0.1674 -0.3705
  712MOL0     C93911   2.265   9.338   2.530  0.7318 -0.1415  0.0333
  712MOL0     C93912   2.186   9.206   2.546 -0.6006  0.5688  0.2061
  712MOL0     C93913   2.069   9.231   2.638  0.0852  0.3056  0.6908
  712MOL0     C93914   1.958   9.133   2.610 -0.9060  0.1969  0.0991
  712MOL0     C93915   2.006   8.993   2.617  0.9512 -0.1053  0.6339
  712MOL0     C93916   2.060   8.892   2.645  0.2825 -0.0088  0.8075
  712MOL0     C93917   2.481   9.513   2.504 -0.2412  0.0488 -0.0262
  712MOL0     C93918   2.602   9.580   2.502 -0.1479 -0.3148 -0.1545
  712MOL0     H93919   2.993   9.862   2.319  0.3183  0.8112 -0.8435
  712MOL0     H93920   3.172  10.040   2.404  0.9947 -1.0892  0.4711
  712MOL0     H93921   3.346   9.962   2.784  0.5712  1.0141  4.0966
  712MOL0     H93922   3.271  10.106   2.847 -1.1682  1.4482 -1.5438
  712MOL0     H93923   3.502  10.152   2.834  0.3556 -3.8966 -0.8824
  712MOL0     H93924   3.414  10.248   2.708 -3.8040 -1.1698 -0.0005
  712MOL0     H93925   3.622  10.158   2.615 -2.1677  1.6097  0.8914
  712MOL0     H93926   3.486  10.067   2.550  0.6247 -0.1092 -0.8588
  712MOL0     H93927   3.627   9.957   2.798  1.3111  0.9776 -0.2321
  712MOL0     H93928   3.539   9.869   2.676  0.5261 -0.8505 -1.0189
  712MOL0     H93929   3.801  10.004   2.601 -0.9875  0.5237  1.4126
  712MOL0     H93930   3.706   9.902   2.500  0.8001 -1.3440  0.2412
  712MOL0     H93931   3.898   9.774   2.606  0.6111 -0.6098  0.9691
  712MOL0     H93932   3.735   9.706   2.637 -0.9300  1.3007 -3.1684
  712MOL0     H93933   3.762   9.804   2.876  1.9673 -3.5517  2.7754
  712MOL0     H93934   3.878   9.697   2.833  0.0408 -0.0812  1.7654
  712MOL0     H93935   3.890   9.987   2.836 -4.6304 -3.2378 -3.4525
  712MOL0     H93936   4.023   9.911   2.751  0.3366 -0.0098  0.8738
  712MOL0     H93937   3.886   9.796   3.089  0.7577 -0.2277  4.0018
  712MOL0     H93938   4.150   9.842   3.352 -0.8869 -0.4932  0.6340
  712MOL0     H93939   3.976   9.799   3.324 -3.7441  3.4229 -2.1062
  712MOL0     H93940   3.908  10.031   3.324 -0.8282 -1.9635 -0.8721
  712MOL0     H93941   4.069  10.093   3.362 -3.0291  2.7480 -0.5973
  712MOL0     H93942   3.887   9.926   3.536 -0.2371 -0.6776  2.1565
  712MOL0     H93943   4.057   9.949   3.574 -1.7577 -1.5446  1.7355
  712MOL0     H93944   4.021  10.188   3.590  1.0745 -1.5676 -2.0137
  712MOL0     H93945   3.907  10.114   3.699  0.1022  1.8009  0.3858
  712MOL0     H93946   3.727  10.015   3.684  1.0686 -0.8374 -2.1500
  712MOL0     H93947   3.490   9.953   3.704 -0.1280  1.2755  1.2974
  712MOL0     H93948   3.185   9.784   3.845 -2.0810 -1.9827 -1.1987
  712MOL0     H93949   2.970   9.693   3.864 -1.2947  0.2825  0.3161
  712MOL0     H93950   2.775   9.623   3.914  0.8314 -0.8177 -1.0294
  712MOL0     H93951   2.738   9.650   3.738 -1.2456  0.1227  0.3893
  712MOL0     H93952   2.559   9.672   3.982  4.7409 -0.2162  0.6189
  712MOL0     H93953   2.544   9.538   3.858  0.8142 -1.2514  2.4148
  712MOL0     H93954   2.477   9.721   3.698  2.2682  1.6508  0.0400
  712MOL0     H93955   2.472   9.835   3.836 -1.1556  0.5550  0.2385
  712MOL0     H93956   2.267   9.737   3.732  0.5110  3.2700  0.4039
  712MOL0     H93957   2.288   9.598   3.836 -1.3656  0.9485  0.0499
  712MOL0     H93958   2.275   9.889   3.938  2.1917  0.0845 -0.7313
  712MOL0     H93959   2.330   9.747   4.036 -1.5763 -0.2352  1.3769
  712MOL0     H93960   2.126   9.775   4.118  1.0327  1.1944 -0.4353
  712MOL0     H93961   2.121   9.628   4.018 -0.5860  0.2247 -2.2402
  712MOL0     H93962   2.023   9.905   3.957  2.0857  0.0016  0.5542
  712MOL0     H93963   2.043   9.796   3.823 -0.8316 -1.2538  0.1946
  712MOL0     H93964   1.886   9.625   3.956 -0.6286 -0.1743 -0.3516
  712MOL0     H93965   1.824   9.763   3.868  1.0218 -0.1768 -0.7894
  712MOL0     H93966   2.785  10.057   3.756  0.0434  0.0183  1.9699
  712MOL0     H93967   3.015  10.151   3.695  1.7335 -0.5774 -1.4736
  712MOL0     H93968   3.382  10.296   3.470  1.1764 -0.7296 -0.8938
  712MOL0     H93969   3.630  10.326   3.405  0.2235 -0.5728 -0.6176
  712MOL0     H93970   3.094   9.926   2.806  1.5908  1.9128 -0.2202
  712MOL0     H93971   2.906   9.802   2.732  0.6800  1.6194 -0.2058
  712MOL0     H93972   2.797   9.358   2.327 -1.5285 -2.6406 -0.2384
  712MOL0     H93973   2.594   9.259   2.301  2.8265 -0.6208  0.1040
  712MOL0     H93974   2.191   9.417   2.515  1.2164  1.6131  5.0753
  712MOL0     H93975   2.309   9.359   2.627  0.6010 -0.7156  0.2208
  712MOL0     H93976   2.161   9.161   2.449  2.3062  0.6873 -0.6949
  712MOL0     H93977   2.253   9.128   2.583 -0.7991 -0.4830 -1.4967
  712MOL0     H93978   2.032   9.334   2.633 -2.0900  0.1408  6.0051
  712MOL0     H93979   2.107   9.211   2.739 -0.4569 -0.6641  0.7122
  712MOL0     H93980   1.871   9.143   2.675 -1.2173  2.5727 -0.5956
  712MOL0     H93981   1.919   9.142   2.508 -1.4863 -2.6133 -0.0312
  712MOL0     H93982   2.113   8.803   2.672  0.4506  0.8482  3.6080
  712MOL0     H93983   2.389   9.554   2.545  0.6758  0.4161  1.7177
  712MOL0     H93984   2.610   9.671   2.559  0.3193 -1.2780  1.3713
  713MOL0     O93985   2.785   7.133   5.888 -0.3473  0.3713  0.2152
  713MOL0     C93986   2.803   7.224   5.968 -0.1471  0.0391  0.1740
  713MOL0     O93987   2.698   7.298   6.016  0.3035  0.9518  0.5641
  713MOL0     C93988   2.561   7.268   5.979 -0.0593 -0.3968 -0.4331
  713MOL0     C93989   2.471   7.353   6.051 -0.4879 -0.5619 -0.3029
  713MOL0     C93990   2.334   7.342   6.026  0.4552  0.0807 -0.7066
  713MOL0     C93991   2.280   7.249   5.943  0.3850 -0.1097 -0.4114
  713MOL0     O93992   2.148   7.240   5.928  0.0705  0.1744 -1.0074
  713MOL0     C93993   2.087   7.117   5.880  0.3091  0.7543  0.4944
  713MOL0     C93994   1.938   7.110   5.907  0.2848 -0.1226 -0.8863
  713MOL0     C93995   1.864   7.017   5.809 -0.5565  0.7573  0.4625
  713MOL0     C93996   1.716   7.041   5.808 -0.0338  0.2036  0.1896
  713MOL0     C93997   1.645   6.981   5.928  0.3822  0.6497 -0.0759
  713MOL0     C93998   1.497   7.017   5.909  0.9992  0.6763  0.1115
  713MOL0     C93999   1.400   6.930   5.992 -0.0126 -0.0624  0.3000
  713MOL0     C94000   1.257   6.965   5.950 -0.5131  0.0917 -0.4585
  713MOL0     N94001   1.183   6.853   5.895 -0.0225 -0.1876  0.3908
  713MOL0     C94002   1.118   6.759   5.975 -0.2024 -0.3299 -0.2442
  713MOL0     C94003   1.080   6.662   5.883  0.4473  0.5739  0.3215
  713MOL0     C94004   1.004   6.530   5.915 -0.7514 -0.4023 -1.2064
  713MOL0     C94005   0.936   6.464   5.792 -0.7987  0.0821 -0.7789
  713MOL0     C94006   1.046   6.400   5.700  0.8425 -0.4347 -1.4552
  713MOL0     C94007   1.004   6.323   5.578 -0.1442  0.1767 -0.4697
  713MOL0     O94008   0.881   6.253   5.595  0.2733 -0.1221  1.0784
  713MOL0     C94009   0.770   6.272   5.514  0.0957  0.4668 -0.4580
  713MOL0     C94010   0.652   6.212   5.560  0.1487 -0.5367 -0.7922
  713MOL0     C94011   0.532   6.219   5.496 -0.5769  0.0021 -0.8156
  713MOL0     C94012   0.523   6.282   5.370  0.1615  0.2915  1.1688
  713MOL0     C94013   0.384   6.293   5.306 -0.6140 -1.1114  0.6638
  713MOL0     O94014   0.281   6.211   5.356 -0.4472 -0.3173  0.1993
  713MOL0     C94015   0.153   6.231   5.315 -0.2899  0.0159 -0.6137
  713MOL0     C94016   0.092   6.335   5.246  0.0878  0.1390  0.2288
  713MOL0     C94017  -0.047   6.327   5.212 -0.5612  0.3694  0.0940
  713MOL0     C94018  -0.128   6.218   5.236 -0.2607  0.3597 -0.6967
  713MOL0     O94019  -0.255   6.209   5.204  0.7778  0.2741  0.5612
  713MOL0     C94020  -0.313   6.298   5.106 -0.2056 -0.1725 -0.0290
  713MOL0     C94021  -0.464   6.281   5.110  0.6707 -0.0500 -0.4001
  713MOL0     C94022  -0.523   6.318   5.246 -1.0534  1.3490  0.7849
  713MOL0     C94023  -0.667   6.306   5.228 -1.1296  0.1150 -0.4615
  713MOL0     C94024  -0.738   6.364   5.360 -0.0475  0.1075  0.5016
  713MOL0     C94025  -0.886   6.379   5.328 -0.3574  0.6001 -0.3436
  713MOL0     C94026  -0.959   6.453   5.449  0.0777 -0.4426 -0.5430
  713MOL0     C94027  -1.105   6.434   5.449  0.5406 -0.7268 -0.6955
  713MOL0    Cl94028  -1.187   6.542   5.576 -0.0295  0.4562  0.2162
  713MOL0     C94029  -0.064   6.105   5.288 -0.1350  0.6946 -0.1939
  713MOL0     C94030   0.070   6.122   5.333  0.1501 -0.4314  0.1306
  713MOL0     O94031   0.384   6.374   5.209  0.0210 -0.3531  0.7012
  713MOL0     C94032   0.638   6.339   5.320 -0.5589  0.1752 -0.4501
  713MOL0     C94033   0.759   6.335   5.392 -0.2736  0.0330 -0.1408
  713MOL0     N94034   1.103   6.712   5.751 -0.2937 -0.0781  0.5209
  713MOL0     N94035   1.171   6.822   5.763 -0.1985 -0.8558 -0.1354
  713MOL0     C94036   2.362   7.168   5.872  0.3518  0.6357  0.8037
  713MOL0     C94037   2.501   7.185   5.883 -0.5697 -0.4306 -0.7999
  713MOL0     C94038   2.944   7.251   6.018  0.5416 -0.2759 -0.1217
  713MOL0     C94039   3.058   7.171   5.989  0.6422  0.0691  0.3388
  713MOL0     C94040   3.179   7.190   6.046  0.6090  0.3277 -0.2485
  713MOL0     C94041   3.200   7.305   6.131 -0.0702 -0.4857  0.5581
  713MOL0     O94042   3.320   7.347   6.175 -0.3215 -0.3514 -0.8969
  713MOL0     C94043   3.437   7.269   6.140 -0.3506 -0.9502  0.5809
  713MOL0     C94044   3.555   7.306   6.230 -0.8742  0.4828 -0.1024
  713MOL0     C94045   3.523   7.312   6.382  0.1076  0.5703 -1.1253
  713MOL0     C94046   3.646   7.316   6.477  0.3079 -0.4035 -1.7588
  713MOL0     C94047   3.601   7.321   6.617 -0.0807  0.0190 -0.2086
  713MOL0     C94048   3.566   7.351   6.730  0.4974 -0.4226 -0.3947
  713MOL0     C94049   3.088   7.389   6.157 -0.0240  0.2943  0.5670
  713MOL0     C94050   2.958   7.374   6.097 -0.2817 -0.1612 -0.3777
  713MOL0     H94051   2.517   7.419   6.123  3.1763  0.5748 -3.3597
  713MOL0     H94052   2.272   7.411   6.082  1.3489 -1.2475  2.1191
  713MOL0     H94053   2.131   7.031   5.930  1.2865  0.1302 -1.3367
  713MOL0     H94054   2.109   7.122   5.772  0.9430 -1.2396  0.4961
  713MOL0     H94055   1.908   7.213   5.884  2.7855  0.6940 -0.8342
  713MOL0     H94056   1.917   7.091   6.013 -0.0246  0.8460 -0.7618
  713MOL0     H94057   1.878   6.912   5.837  0.4401  0.4124 -1.1917
  713MOL0     H94058   1.913   7.031   5.712  1.4023 -2.1468  0.9020
  713MOL0     H94059   1.708   7.150   5.804 -0.5026  0.1639 -0.0745
  713MOL0     H94060   1.671   7.005   5.715  1.4059  0.1907 -0.5253
  713MOL0     H94061   1.691   7.023   6.017  2.0766 -1.0581 -0.0997
  713MOL0     H94062   1.666   6.874   5.929 -0.0686  0.4492  4.1586
  713MOL0     H94063   1.463   6.995   5.807 -1.3369 -1.5459  1.2762
  713MOL0     H94064   1.471   7.117   5.944 -5.7257 -1.0494  1.3864
  713MOL0     H94065   1.417   6.824   5.971 -2.1389 -0.0061 -2.3126
  713MOL0     H94066   1.421   6.945   6.098 -1.8294 -1.7038  0.9546
  713MOL0     H94067   1.259   7.050   5.881 -0.9737  0.5484  0.0755
  713MOL0     H94068   1.203   7.000   6.039 -1.0444 -0.4622 -0.5539
  713MOL0     H94069   1.098   6.756   6.082  0.9824  0.7516  0.0254
  713MOL0     H94070   0.920   6.559   5.979 -0.4081  1.2636 -1.4696
  713MOL0     H94071   1.065   6.455   5.965 -1.6253 -0.2442  0.1598
  713MOL0     H94072   0.870   6.538   5.744  0.5907  0.2562 -2.5281
  713MOL0     H94073   0.867   6.388   5.828 -0.8143  0.8356  0.8470
  713MOL0     H94074   1.121   6.474   5.672  2.5229 -2.0270 -1.3836
  713MOL0     H94075   1.101   6.338   5.772 -0.3931  0.3502  0.2383
  713MOL0     H94076   1.079   6.246   5.560 -1.3223 -1.1412  0.1143
  713MOL0     H94077   1.004   6.393   5.493  1.3200  1.3470  0.4327
  713MOL0     H94078   0.651   6.161   5.656  0.2049 -0.2531 -0.6369
  713MOL0     H94079   0.441   6.179   5.539 -0.1292 -0.0754  0.0850
  713MOL0     H94080   0.148   6.425   5.220  0.5919 -0.0929  0.4936
  713MOL0     H94081  -0.087   6.413   5.160  0.6228  0.3415 -0.9109
  713MOL0     H94082  -0.279   6.267   5.006  1.1457  3.0647 -0.7157
  713MOL0     H94083  -0.293   6.406   5.112 -0.5306 -0.0420 -1.0522
  713MOL0     H94084  -0.491   6.182   5.074 -0.2151 -0.5783  1.6010
  713MOL0     H94085  -0.495   6.349   5.030  0.0164 -1.5194 -1.4351
  713MOL0     H94086  -0.491   6.419   5.274  0.6903  0.6933  1.2883
  713MOL0     H94087  -0.491   6.253   5.328 -1.4863  0.9643  0.6514
  713MOL0     H94088  -0.714   6.350   5.139 -3.6438  1.1745  1.2835
  713MOL0     H94089  -0.688   6.202   5.200  1.5368 -0.5835 -0.0912
  713MOL0     H94090  -0.693   6.455   5.400  1.7587 -0.0077 -1.1051
  713MOL0     H94091  -0.728   6.296   5.445 -0.6064  3.0845  3.1324
  713MOL0     H94092  -0.929   6.283   5.299 -0.8423  1.0222 -1.0466
  713MOL0     H94093  -0.899   6.446   5.243 -3.8717 -1.5846 -1.7378
  713MOL0     H94094  -0.922   6.404   5.540 -2.4100 -0.6995  0.4005
  713MOL0     H94095  -0.938   6.560   5.448 -1.7118 -0.0391 -2.8419
  713MOL0     H94096  -1.136   6.335   5.483 -0.3504 -0.2702 -0.1558
  713MOL0     H94097  -1.152   6.448   5.351 -1.3858 -0.3215  0.2483
  713MOL0     H94098  -0.108   6.010   5.316  0.6666  0.8559  1.7586
  713MOL0     H94099   0.115   6.030   5.371  0.4446 -1.3666 -2.2890
  713MOL0     H94100   0.646   6.387   5.224  0.3874 -1.4169 -1.2092
  713MOL0     H94101   0.847   6.377   5.344  0.1565  0.6320  1.1219
  713MOL0     H94102   2.322   7.101   5.797  0.0214  1.4846  0.1996
  713MOL0     H94103   2.569   7.139   5.813  1.1424  1.3595 -0.3934
  713MOL0     H94104   3.049   7.086   5.922 -0.9845  0.0706  0.5130
  713MOL0     H94105   3.259   7.119   6.024  0.6769  0.5197 -0.6343
  713MOL0     H94106   3.469   7.295   6.039  0.6136  1.8423  1.5316
  713MOL0     H94107   3.405   7.165   6.151  0.1682 -1.0576  1.1121
  713MOL0     H94108   3.634   7.231   6.221  0.4836  1.6966  1.2883
  713MOL0     H94109   3.608   7.397   6.201  0.7049 -0.3849 -0.0697
  713MOL0     H94110   3.458   7.226   6.400 -0.3470  1.2799  0.9396
  713MOL0     H94111   3.464   7.402   6.404  0.4569  0.1350  2.0864
  713MOL0     H94112   3.704   7.224   6.464  1.4615  0.1863 -0.9028
  713MOL0     H94113   3.699   7.406   6.445 -4.1635  2.6666 -1.4643
  713MOL0     H94114   3.555   7.393   6.828 -0.2739 -2.0772  0.2732
  713MOL0     H94115   3.115   7.471   6.223  1.1532 -0.3048  0.8580
  713MOL0     H94116   2.888   7.454   6.117  1.2801  0.7531  1.9523
  714MOL0     O94117   0.320   3.617   1.689 -0.2005  0.4970 -0.4718
  714MOL0     C94118   0.371   3.615   1.802 -0.8203  0.7271  0.6865
  714MOL0     O94119   0.312   3.642   1.922  0.7548 -0.2403  0.0926
  714MOL0     C94120   0.181   3.665   1.921 -0.0959  0.1481  0.2228
  714MOL0     C94121   0.145   3.774   1.989  1.1596 -0.7610 -0.6260
  714MOL0     C94122   0.009   3.812   2.001 -0.8098 -0.0897 -0.1884
  714MOL0     C94123  -0.086   3.733   1.929 -0.5348 -0.3208  0.0550
  714MOL0     O94124  -0.215   3.779   1.935 -0.5030  0.1541  0.1366
  714MOL0     C94125  -0.278   3.779   1.807  0.4365 -0.4146  0.5589
  714MOL0     C94126  -0.415   3.847   1.819 -0.4055  0.8364  0.6301
  714MOL0     C94127  -0.484   3.852   1.687 -0.4642  0.5106 -0.0851
  714MOL0     C94128  -0.632   3.905   1.704  0.3012 -0.1308  0.2552
  714MOL0     C94129  -0.676   3.986   1.581  0.2956 -0.8921 -0.4151
  714MOL0     C94130  -0.827   4.028   1.575  1.2195 -0.7272  0.8951
  714MOL0     C94131  -0.839   4.162   1.487 -0.1350  0.0656  0.2943
  714MOL0     C94132  -0.972   4.166   1.413  0.0587 -0.5494 -0.4080
  714MOL0     N94133  -1.061   4.223   1.511 -0.5330 -0.6917 -0.5086
  714MOL0     C94134  -1.059   4.353   1.540 -0.0146 -1.1382 -0.1635
  714MOL0     C94135  -1.142   4.364   1.651  0.4728 -0.5749  0.4460
  714MOL0     C94136  -1.173   4.495   1.708 -0.2570  0.4808  0.0073
  714MOL0     C94137  -1.291   4.487   1.816 -0.3962 -0.6232  0.2779
  714MOL0     C94138  -1.420   4.445   1.750 -0.1913  0.1540 -1.1862
  714MOL0     C94139  -1.541   4.508   1.825 -0.3446 -0.3427 -0.6679
  714MOL0     O94140  -1.576   4.433   1.947 -0.0989  0.4687 -0.1374
  714MOL0     C94141  -1.711   4.430   1.968 -0.8701  0.6226 -0.9320
  714MOL0     C94142  -1.781   4.536   2.004 -0.0920  0.9058 -0.7399
  714MOL0     C94143  -1.915   4.530   2.018 -0.0292  0.0021  0.0031
  714MOL0     C94144  -1.987   4.411   1.985 -0.0899 -0.1282 -0.8186
  714MOL0     C94145  -2.139   4.403   1.992  0.3331 -0.2278 -0.4460
  714MOL0     O94146  -2.203   4.514   2.052  0.6447 -0.1675 -0.0110
  714MOL0     C94147  -2.340   4.522   2.040 -0.1660 -0.3857  0.1187
  714MOL0     C94148  -2.405   4.605   2.141  0.3967  0.1493  0.0658
  714MOL0     C94149  -2.540   4.635   2.127 -0.6119 -0.4453  0.4045
  714MOL0     C94150  -2.618   4.581   2.018 -0.3849  1.1106 -0.0269
  714MOL0     O94151  -2.747   4.616   1.990 -0.7907 -0.8824 -0.3058
  714MOL0     C94152  -2.836   4.636   2.098 -1.1760 -0.1723 -0.0126
  714MOL0     C94153  -2.973   4.622   2.053  0.7844  0.1165 -0.3855
  714MOL0     C94154  -3.020   4.475   2.044 -0.6318 -0.5851  0.2737
  714MOL0     C94155  -3.157   4.466   1.989  0.3569  0.0859  0.2714
  714MOL0     C94156  -3.168   4.524   1.845 -0.2665  0.2785  1.0327
  714MOL0     C94157  -3.310   4.501   1.787  0.6513  0.4147  0.0389
  714MOL0     C94158  -3.316   4.496   1.636 -0.9132 -0.7966 -0.7195
  714MOL0     C94159  -3.307   4.638   1.573  0.4641  0.4473  0.5934
  714MOL0    Cl94160  -3.426   4.754   1.639  0.1821 -0.2702 -0.5199
  714MOL0     C94161  -2.556   4.499   1.922 -0.9090 -0.0856 -0.4523
  714MOL0     C94162  -2.416   4.477   1.931 -0.1417  0.3709  0.1383
  714MOL0     O94163  -2.187   4.296   1.962 -0.1349  0.9018  1.0077
  714MOL0     C94164  -1.904   4.311   1.950  0.0507  0.9926  0.5228
  714MOL0     C94165  -1.773   4.314   1.933 -0.3869  0.3247  0.0751
  714MOL0     N94166  -1.187   4.244   1.689  0.0862 -0.7925 -0.1700
  714MOL0     N94167  -1.131   4.164   1.609 -0.3503 -0.0582  0.1664
  714MOL0     C94168  -0.051   3.609   1.867 -0.5525 -0.4484 -0.6839
  714MOL0     C94169   0.086   3.583   1.851  0.1120  0.3458 -0.8828
  714MOL0     C94170   0.522   3.586   1.805 -0.4317 -0.2940 -0.7982
  714MOL0     C94171   0.587   3.579   1.932  0.3428  0.7871  0.8191
  714MOL0     C94172   0.728   3.566   1.933 -0.2448 -0.3753 -0.2314
  714MOL0     C94173   0.807   3.550   1.821  0.7804 -0.3812 -0.0110
  714MOL0     O94174   0.938   3.559   1.838  0.7133 -0.1804  0.3696
  714MOL0     C94175   1.033   3.514   1.733  0.5390 -0.4959 -0.1808
  714MOL0     C94176   1.169   3.489   1.785  0.5482  0.3008 -0.0821
  714MOL0     C94177   1.174   3.350   1.836 -0.9475 -0.4507  0.0209
  714MOL0     C94178   1.312   3.310   1.887  0.4527  0.6183 -0.0424
  714MOL0     C94179   1.354   3.405   1.989 -0.4242 -0.6625 -0.1536
  714MOL0     C94180   1.389   3.485   2.071  0.3345  0.0461  0.0613
  714MOL0     C94181   0.736   3.545   1.697 -0.0922  0.4393 -0.4359
  714MOL0     C94182   0.596   3.573   1.689 -0.0949 -0.0338 -0.2264
  714MOL0     H94183   0.220   3.838   2.034  0.7722  0.2226 -1.3450
  714MOL0     H94184  -0.033   3.895   2.056 -1.3005  0.5723 -1.5108
  714MOL0     H94185  -0.300   3.679   1.768 -1.9494 -0.2097  1.2245
  714MOL0     H94186  -0.222   3.835   1.732 -1.2555 -2.8817 -2.8394
  714MOL0     H94187  -0.407   3.950   1.855  0.2173  1.0174  0.0013
  714MOL0     H94188  -0.462   3.800   1.906 -1.4445  0.8172  0.0641
  714MOL0     H94189  -0.497   3.749   1.652 -0.0031 -0.0686  1.3464
  714MOL0     H94190  -0.429   3.921   1.623  0.2630  0.5414  0.5583
  714MOL0     H94191  -0.702   3.820   1.707 -0.0460  0.1235 -0.4850
  714MOL0     H94192  -0.647   3.970   1.791  1.5013 -1.0025  1.1405
  714MOL0     H94193  -0.657   3.927   1.490  4.2887  0.7510 -0.8522
  714MOL0     H94194  -0.616   4.078   1.579  0.6878 -1.1500 -2.0827
  714MOL0     H94195  -0.871   4.041   1.674  0.5703  1.1734  0.4000
  714MOL0     H94196  -0.886   3.955   1.520 -2.7117  2.0970  0.9633
  714MOL0     H94197  -0.826   4.246   1.556 -2.8646 -0.0753  1.0841
  714MOL0     H94198  -0.764   4.160   1.407 -0.4705 -2.0745 -0.0310
  714MOL0     H94199  -1.007   4.067   1.381  2.4466 -2.1076  1.4371
  714MOL0     H94200  -0.961   4.227   1.323  2.1493 -0.6012 -0.2374
  714MOL0     H94201  -1.000   4.423   1.482  0.5876 -1.2907  0.2548
  714MOL0     H94202  -1.210   4.555   1.625  0.5370 -0.9030 -1.4046
  714MOL0     H94203  -1.079   4.537   1.745  1.1717 -3.9047  2.0446
  714MOL0     H94204  -1.306   4.583   1.866 -0.2655  0.2726 -1.3408
  714MOL0     H94205  -1.260   4.415   1.892  0.8829  0.2899  0.6476
  714MOL0     H94206  -1.414   4.468   1.643 -0.3366 -1.3021 -1.5263
  714MOL0     H94207  -1.420   4.336   1.745  2.1535  0.0091  0.4379
  714MOL0     H94208  -1.623   4.517   1.753  1.7616  2.7457 -2.9598
  714MOL0     H94209  -1.522   4.612   1.853 -2.0292  0.2016 -1.4169
  714MOL0     H94210  -1.727   4.628   2.024 -1.6202  1.5392  0.6018
  714MOL0     H94211  -1.964   4.617   2.062 -0.3815 -0.4610  0.5343
  714MOL0     H94212  -2.339   4.633   2.223 -0.8027  2.1798  0.3904
  714MOL0     H94213  -2.587   4.703   2.197  0.0537  1.2374 -0.7155
  714MOL0     H94214  -2.823   4.734   2.146  0.2964  0.2197 -1.1509
  714MOL0     H94215  -2.820   4.569   2.183 -0.9624  0.6340  0.5939
  714MOL0     H94216  -2.985   4.678   1.960  1.6674 -0.8103 -1.0762
  714MOL0     H94217  -3.045   4.661   2.126 -0.4805 -0.7602 -1.1234
  714MOL0     H94218  -3.030   4.432   2.144  0.0264  1.9864  1.5220
  714MOL0     H94219  -2.948   4.416   1.987 -1.5996 -0.4766 -1.1080
  714MOL0     H94220  -3.180   4.360   1.981  0.5930 -0.1495  2.2485
  714MOL0     H94221  -3.228   4.515   2.057  0.6429 -2.6666  2.7339
  714MOL0     H94222  -3.096   4.469   1.783 -1.4965 -1.2521  0.8887
  714MOL0     H94223  -3.142   4.630   1.848  0.3529  0.1230  4.2066
  714MOL0     H94224  -3.389   4.568   1.822 -0.3114  0.1634 -1.5663
  714MOL0     H94225  -3.340   4.401   1.817  0.2332  0.4384 -0.2935
  714MOL0     H94226  -3.236   4.432   1.598 -1.3166 -0.8149 -1.5613
  714MOL0     H94227  -3.410   4.445   1.611 -0.9146 -1.1959  0.0519
  714MOL0     H94228  -3.324   4.634   1.465  2.2385 -1.4631  0.3098
  714MOL0     H94229  -3.203   4.670   1.581  0.6111 -0.0947  0.9429
  714MOL0     H94230  -2.627   4.457   1.852 -3.3317  1.9448  0.6113
  714MOL0     H94231  -2.367   4.424   1.849 -0.3366  0.2821  0.0772
  714MOL0     H94232  -1.956   4.225   1.910 -3.4073  2.2463  1.9740
  714MOL0     H94233  -1.716   4.226   1.905  0.5517  2.0027 -4.1356
  714MOL0     H94234  -0.123   3.533   1.840 -2.9841  0.7108  1.9846
  714MOL0     H94235   0.109   3.489   1.803 -0.3014 -0.8010  1.0492
  714MOL0     H94236   0.532   3.588   2.025 -0.9772  1.4071 -0.0045
  714MOL0     H94237   0.781   3.568   2.027  1.0271 -1.6443 -0.8676
  714MOL0     H94238   1.049   3.595   1.661  0.1414 -0.9102 -0.7507
  714MOL0     H94239   1.009   3.425   1.674  1.7575 -1.9660  1.4530
  714MOL0     H94240   1.234   3.490   1.697 -0.4941  1.4169 -0.8782
  714MOL0     H94241   1.207   3.564   1.855 -0.6707  0.2440  0.6606
  714MOL0     H94242   1.157   3.279   1.754  0.8218  0.4156 -1.1661
  714MOL0     H94243   1.102   3.343   1.918  2.8301  2.8390  4.0712
  714MOL0     H94244   1.327   3.207   1.921  1.3225  0.2372 -1.5067
  714MOL0     H94245   1.388   3.316   1.809  1.6685  1.1935  1.1342
  714MOL0     H94246   1.421   3.548   2.151  0.5483 -1.0665  0.8698
  714MOL0     H94247   0.786   3.566   1.603 -1.8472  0.5447 -1.3861
  714MOL0     H94248   0.555   3.590   1.589 -0.4146 -2.5258 -0.5809
  715MOL0     O94249   0.353   4.015   1.902 -0.1177  0.5705  0.1685
  715MOL0     C94250   0.420   4.062   1.992 -1.1439 -0.0872  0.1098
  715MOL0     O94251   0.378   4.136   2.088 -0.4194  0.3957 -0.1111
  715MOL0     C94252   0.242   4.159   2.085 -0.6219 -0.1513 -1.1185
  715MOL0     C94253   0.164   4.089   2.173  0.2544 -0.7396  0.6147
  715MOL0     C94254   0.023   4.106   2.183 -0.5328 -0.7145 -0.0731
  715MOL0     C94255  -0.030   4.203   2.098 -0.0798 -0.2285 -0.5248
  715MOL0     O94256  -0.163   4.221   2.114  1.3245  0.2227  0.4061
  715MOL0     C94257  -0.235   4.100   2.070  0.7545  0.1513 -0.1388
  715MOL0     C94258  -0.386   4.135   2.078  0.6428 -1.0634 -0.5182
  715MOL0     C94259  -0.410   4.151   2.230  0.0770 -0.2077  0.2142
  715MOL0     C94260  -0.553   4.176   2.261 -0.8098 -0.1410  0.3848
  715MOL0     C94261  -0.571   4.165   2.414 -0.2451 -0.0176 -0.5535
  715MOL0     C94262  -0.565   4.303   2.488  0.4528  0.0923 -0.2790
  715MOL0     C94263  -0.654   4.298   2.614  0.3179 -0.1986 -0.5468
  715MOL0     C94264  -0.807   4.296   2.598  0.2921 -0.1433  0.1135
  715MOL0     N94265  -0.865   4.410   2.532 -0.7515  0.0008  0.4890
  715MOL0     C94266  -0.891   4.423   2.397 -0.4065  0.8212 -0.9491
  715MOL0     C94267  -0.908   4.550   2.381 -0.8152 -0.0189  0.2891
  715MOL0     C94268  -0.948   4.622   2.252 -0.2649  0.0634  0.2655
  715MOL0     C94269  -1.099   4.633   2.223 -0.4254 -0.4396  0.3774
  715MOL0     C94270  -1.167   4.502   2.217  1.2005 -0.2669 -0.5800
  715MOL0     C94271  -1.320   4.528   2.202 -0.2766 -0.9439  0.6656
  715MOL0     O94272  -1.357   4.594   2.324  0.4149 -0.1054 -0.9633
  715MOL0     C94273  -1.479   4.649   2.322 -0.3094 -0.3841  0.1863
  715MOL0     C94274  -1.500   4.781   2.363 -0.5445  1.0132 -0.8050
  715MOL0     C94275  -1.624   4.848   2.362 -0.5941 -0.1966  0.1335
  715MOL0     C94276  -1.740   4.774   2.346 -0.3315 -0.9238 -1.0282
  715MOL0     C94277  -1.872   4.844   2.341 -0.7306 -0.4395  0.2005
  715MOL0     O94278  -1.976   4.782   2.285  0.2652 -0.4946  0.1022
  715MOL0     C94279  -2.096   4.837   2.292  0.5138 -0.4060  0.5976
  715MOL0     C94280  -2.188   4.807   2.398 -0.1315  0.4818  0.7623
  715MOL0     C94281  -2.316   4.858   2.398  0.5830 -0.0662  0.2627
  715MOL0     C94282  -2.365   4.947   2.297  0.1824  0.8135 -0.1394
  715MOL0     O94283  -2.489   4.998   2.284  0.5149  0.2521 -0.1386
  715MOL0     C94284  -2.601   4.973   2.368  0.5979  0.4319  0.6226
  715MOL0     C94285  -2.737   4.997   2.305  0.1032  0.1016 -0.8302
  715MOL0     C94286  -2.859   4.994   2.403 -1.2079  0.0583 -0.0842
  715MOL0     C94287  -3.000   5.042   2.350 -1.0510  0.0705 -0.3332
  715MOL0     C94288  -3.051   4.917   2.285  0.3817  0.5420 -0.0625
  715MOL0     C94289  -3.176   4.953   2.195  0.3866  0.2452 -0.2951
  715MOL0     C94290  -3.247   4.829   2.142  0.3068 -0.3256  0.2337
  715MOL0     C94291  -3.392   4.860   2.110 -0.6169 -0.6722 -0.4243
  715MOL0    Cl94292  -3.456   4.714   2.027  0.0984 -0.2221  0.0321
  715MOL0     C94293  -2.270   4.979   2.199  0.4910  0.4243 -0.0065
  715MOL0     C94294  -2.142   4.927   2.196  0.0993  0.1575  0.0051
  715MOL0     O94295  -1.879   4.954   2.397 -0.1400  0.4667 -0.2813
  715MOL0     C94296  -1.735   4.644   2.313 -0.7911  0.1810 -0.4591
  715MOL0     C94297  -1.602   4.586   2.293 -0.2696  0.9447 -0.3769
  715MOL0     N94298  -0.877   4.615   2.498  0.2821 -0.3658  0.0228
  715MOL0     N94299  -0.867   4.533   2.594 -0.7044  0.3807 -0.5561
  715MOL0     C94300   0.047   4.285   2.010  0.7642 -0.7522 -0.7095
  715MOL0     C94301   0.185   4.256   2.005 -0.4608 -0.3953 -0.5350
  715MOL0     C94302   0.569   4.047   1.981  0.1497  0.2328 -0.7671
  715MOL0     C94303   0.654   4.141   2.048  0.0343 -0.1349 -0.3114
  715MOL0     C94304   0.789   4.127   2.058  0.1155 -0.6346  0.9814
  715MOL0     C94305   0.845   4.017   1.988 -0.2114 -0.3424  0.1915
  715MOL0     O94306   0.984   4.007   2.001 -0.0588  0.0962 -0.0030
  715MOL0     C94307   1.064   3.908   1.943 -0.1854 -0.2841  0.5286
  715MOL0     C94308   1.215   3.921   1.988 -0.0966  0.6109  0.2595
  715MOL0     C94309   1.301   3.806   1.937  0.8078 -0.2291 -0.0076
  715MOL0     C94310   1.452   3.804   1.965 -1.0187 -0.3385 -0.1340
  715MOL0     C94311   1.508   3.932   1.929 -0.7091  0.0407 -0.2952
  715MOL0     C94312   1.562   4.038   1.908  0.1538 -0.1648 -0.4349
  715MOL0     C94313   0.762   3.924   1.922 -0.0819 -1.1886  0.3937
  715MOL0     C94314   0.625   3.940   1.920  0.2266 -0.2436 -0.9313
  715MOL0     H94315   0.200   4.004   2.230  0.7893 -0.7398  0.2836
  715MOL0     H94316  -0.035   4.060   2.262  2.1641 -0.3077  2.3004
  715MOL0     H94317  -0.209   4.020   2.141  1.8500  0.4193 -0.2116
  715MOL0     H94318  -0.226   4.061   1.968  1.1117 -1.5787  0.5123
  715MOL0     H94319  -0.452   4.070   2.019  0.6703 -0.2473 -1.4836
  715MOL0     H94320  -0.391   4.238   2.041  2.4931 -0.6010  0.4107
  715MOL0     H94321  -0.364   4.246   2.260  0.5815 -0.4692  0.2857
  715MOL0     H94322  -0.364   4.072   2.291 -0.2761 -0.6761 -0.1185
  715MOL0     H94323  -0.587   4.271   2.218 -0.1220 -0.1128 -0.1040
  715MOL0     H94324  -0.615   4.101   2.211 -1.8666 -0.7964  2.5531
  715MOL0     H94325  -0.521   4.088   2.474  0.2276  0.5758 -0.1737
  715MOL0     H94326  -0.676   4.135   2.422  0.8467 -3.9543  3.2112
  715MOL0     H94327  -0.591   4.390   2.427 -1.0718 -0.4387 -0.4265
  715MOL0     H94328  -0.466   4.340   2.517  0.2422  4.1986 -3.8129
  715MOL0     H94329  -0.615   4.217   2.677  1.8861  1.4728  0.7347
  715MOL0     H94330  -0.639   4.386   2.678 -4.7487  0.1666  0.5163
  715MOL0     H94331  -0.856   4.296   2.696 -2.6259 -0.3295 -1.2500
  715MOL0     H94332  -0.840   4.208   2.542 -1.4658  0.2432  0.4851
  715MOL0     H94333  -0.898   4.356   2.312  1.9644 -0.2568 -0.3824
  715MOL0     H94334  -0.903   4.572   2.165 -0.1682 -0.4146  0.5824
  715MOL0     H94335  -0.903   4.722   2.255  1.6443 -0.7550  1.0613
  715MOL0     H94336  -1.112   4.690   2.131  2.2324  0.9152  0.7454
  715MOL0     H94337  -1.147   4.692   2.302  0.5302  1.1604 -0.1858
  715MOL0     H94338  -1.125   4.436   2.141  1.7866 -2.2285  1.3272
  715MOL0     H94339  -1.140   4.445   2.307 -0.5906 -0.5135 -0.1555
  715MOL0     H94340  -1.381   4.439   2.183 -0.9828  0.0259 -2.0682
  715MOL0     H94341  -1.329   4.590   2.113 -1.0065 -1.9061  0.0486
  715MOL0     H94342  -1.411   4.835   2.395 -1.4058  0.2335  3.4521
  715MOL0     H94343  -1.636   4.953   2.387 -0.5407 -0.6374  2.1372
  715MOL0     H94344  -2.142   4.743   2.472  3.1634 -0.1667 -1.6015
  715MOL0     H94345  -2.389   4.849   2.478 -0.5376  0.5548 -0.6474
  715MOL0     H94346  -2.596   5.023   2.465 -2.0665  0.0569  1.0490
  715MOL0     H94347  -2.604   4.867   2.393  3.6839 -0.5012 -2.1850
  715MOL0     H94348  -2.764   4.923   2.228 -0.4510  0.5541 -1.0751
  715MOL0     H94349  -2.743   5.095   2.258 -2.7682  0.5963  0.3260
  715MOL0     H94350  -2.833   5.054   2.490 -2.5169  1.1717 -0.4286
  715MOL0     H94351  -2.867   4.894   2.448 -3.5463  0.2644  0.1074
  715MOL0     H94352  -3.071   5.076   2.426 -0.6551  1.6019 -0.6215
  715MOL0     H94353  -2.994   5.122   2.276  0.4406 -0.0922 -0.4078
  715MOL0     H94354  -3.079   4.843   2.361 -0.2367  2.2026  1.3842
  715MOL0     H94355  -2.975   4.869   2.222  2.0587  2.4158  0.4171
  715MOL0     H94356  -3.136   5.014   2.114 -1.3404  1.9367  0.0516
  715MOL0     H94357  -3.245   5.008   2.261  3.2784  4.6449 -0.5043
  715MOL0     H94358  -3.205   4.795   2.047  2.0910 -4.3087  2.2106
  715MOL0     H94359  -3.242   4.747   2.213 -3.6010 -1.9113 -1.0543
  715MOL0     H94360  -3.410   4.949   2.050 -0.0935  0.3182  0.8531
  715MOL0     H94361  -3.442   4.880   2.205  2.1875 -2.9612  1.7595
  715MOL0     H94362  -2.300   5.053   2.125  1.3997 -0.7077 -1.5746
  715MOL0     H94363  -2.078   4.956   2.113 -0.3537  0.9679 -0.0748
  715MOL0     H94364  -1.819   4.582   2.283 -0.7189 -0.9967  1.6032
  715MOL0     H94365  -1.596   4.483   2.260  0.9266  0.4017  1.3683
  715MOL0     H94366  -0.009   4.359   1.954  0.6234  1.0027  1.5934
  715MOL0     H94367   0.249   4.296   1.928 -0.3554 -2.3581 -1.5469
  715MOL0     H94368   0.616   4.227   2.102  0.5944 -0.2431  0.2687
  715MOL0     H94369   0.851   4.198   2.111  2.4244 -3.6777  2.7249
  715MOL0     H94370   1.059   3.934   1.837 -1.3210  1.2333  0.9166
  715MOL0     H94371   1.031   3.803   1.944  1.0141 -0.6678  1.1332
  715MOL0     H94372   1.253   4.023   1.972 -1.3149  0.8992 -0.9964
  715MOL0     H94373   1.208   3.913   2.097 -3.2112  2.2695  0.2957
  715MOL0     H94374   1.288   3.780   1.831  1.8616 -4.6872  0.7242
  715MOL0     H94375   1.249   3.718   1.976 -0.0252  1.3882  2.7802
  715MOL0     H94376   1.479   3.796   2.071  1.8810  0.7528 -0.6925
  715MOL0     H94377   1.501   3.722   1.911 -0.9108 -1.8103  2.0889
  715MOL0     H94378   1.611   4.133   1.902 -1.2302  0.5082 -1.8813
  715MOL0     H94379   0.804   3.850   1.855 -0.2027  0.2412 -1.3185
  715MOL0     H94380   0.575   3.861   1.864  1.9725 -0.5583 -2.1428
  716MOL0     O94381   6.818   0.467   8.554  0.4557 -1.0647  0.0895
  716MOL0     C94382   6.818   0.528   8.448  0.0251  0.3702  0.7824
  716MOL0     O94383   6.720   0.565   8.372 -0.7393  0.0669 -0.4361
  716MOL0     C94384   6.597   0.527   8.412  0.4658 -0.0374 -0.2251
  716MOL0     C94385   6.523   0.623   8.480  0.3051 -0.2813  0.2393
  716MOL0     C94386   6.400   0.600   8.532  0.3648  0.2082  0.8980
  716MOL0     C94387   6.344   0.470   8.507  0.9945 -1.0162 -0.1824
  716MOL0     O94388   6.218   0.426   8.526 -0.0196  0.1922 -0.4563
  716MOL0     C94389   6.116   0.526   8.557  0.6542 -0.5101  0.3295
  716MOL0     C94390   5.989   0.474   8.620  0.0524 -0.9816  0.4833
  716MOL0     C94391   5.912   0.389   8.514 -0.1770  0.9618  0.2611
  716MOL0     C94392   5.764   0.362   8.546  0.5087  0.6477 -0.2704
  716MOL0     C94393   5.752   0.242   8.641  0.0438  0.3562 -0.1061
  716MOL0     C94394   5.612   0.186   8.671 -0.8441 -0.9372  0.2853
  716MOL0     C94395   5.628   0.087   8.789  0.2605 -0.9459  1.8135
  716MOL0     C94396   5.487   0.053   8.834  1.1296  0.1767 -0.5598
  716MOL0     N94397   5.386   0.016   8.732  0.6036  0.0449  0.0664
  716MOL0     C94398   5.277   0.099   8.707  0.0908 -0.8264  0.7752
  716MOL0     C94399   5.201   0.018   8.631 -1.0234 -0.6120 -0.6785
  716MOL0     C94400   5.060   0.046   8.592  0.2065 -0.0569 -0.1759
  716MOL0     C94401   4.969  -0.071   8.630 -1.6248  0.1605  0.5416
  716MOL0     C94402   4.816  -0.047   8.630 -1.0108 -0.8487 -0.6661
  716MOL0     C94403   4.739  -0.175   8.639  0.1058  0.6728 -0.3926
  716MOL0     O94404   4.604  -0.126   8.659  0.0775  0.0920  0.2907
  716MOL0     C94405   4.506  -0.228   8.674 -0.1411 -0.5982  0.3398
  716MOL0     C94406   4.492  -0.294   8.795 -0.1242 -0.5419 -0.4856
  716MOL0     C94407   4.400  -0.396   8.800  0.3177  0.2040 -0.1654
  716MOL0     C94408   4.321  -0.429   8.688  0.4815 -0.6913  0.0923
  716MOL0     C94409   4.231  -0.542   8.708  0.1510  0.3772  0.1075
  716MOL0     O94410   4.170  -0.560   8.832  0.0092 -0.0113 -0.5777
  716MOL0     C94411   4.069  -0.653   8.851  0.3251  0.4014  0.0868
  716MOL0     C94412   4.090  -0.774   8.914 -0.6901 -0.2830  0.2104
  716MOL0     C94413   3.998  -0.880   8.905  0.5091  0.1864  0.4091
  716MOL0     C94414   3.887  -0.865   8.825  0.3398  0.1561  0.3873
  716MOL0     O94415   3.800  -0.968   8.795  0.6438 -0.6376 -0.0983
  716MOL0     C94416   3.672  -0.961   8.865 -0.0677 -0.2566  0.3899
  716MOL0     C94417   3.592  -1.085   8.815 -0.6115 -0.7942 -0.8128
  716MOL0     C94418   3.657  -1.217   8.847  0.1108  1.1379  0.8553
  716MOL0     C94419   3.561  -1.342   8.851  0.2535 -0.4778 -0.0316
  716MOL0     C94420   3.510  -1.376   8.990 -0.0918 -0.0281 -0.1363
  716MOL0     C94421   3.436  -1.515   8.996 -0.1253  0.0135 -0.1343
  716MOL0     C94422   3.404  -1.552   9.143 -0.3268 -0.4457 -0.2268
  716MOL0     C94423   3.310  -1.669   9.142 -0.4427 -0.1681  0.9349
  716MOL0    Cl94424   3.154  -1.638   9.058  0.3932 -0.2506 -0.1993
  716MOL0     C94425   3.859  -0.735   8.775  0.9950  0.0981 -0.9384
  716MOL0     C94426   3.947  -0.631   8.793 -0.9423  0.1429  0.8333
  716MOL0     O94427   4.195  -0.603   8.604 -0.6561 -0.0223  0.2202
  716MOL0     C94428   4.334  -0.362   8.563 -0.2106  0.4529 -0.7788
  716MOL0     C94429   4.432  -0.267   8.561  0.0885 -0.6336 -0.4835
  716MOL0     N94430   5.270  -0.102   8.604  0.3167 -0.3625  0.5371
  716MOL0     N94431   5.377  -0.107   8.668  0.2389 -0.3586 -0.9761
  716MOL0     C94432   6.423   0.370   8.447  0.2602 -0.0286  0.2879
  716MOL0     C94433   6.547   0.403   8.404  0.5704  1.0154 -0.2923
  716MOL0     C94434   6.950   0.576   8.404 -0.6748  0.0076 -0.7877
  716MOL0     C94435   6.978   0.649   8.286  0.0690 -0.5243 -0.6718
  716MOL0     C94436   7.093   0.717   8.270  0.2721 -0.3312 -0.0560
  716MOL0     C94437   7.200   0.701   8.355 -0.2532  0.3922  0.0067
  716MOL0     O94438   7.321   0.747   8.322  0.2635 -0.1948  0.2750
  716MOL0     C94439   7.408   0.800   8.422 -0.2668  0.4297  0.2146
  716MOL0     C94440   7.368   0.955   8.441 -0.4412 -0.3531  0.2470
  716MOL0     C94441   7.433   1.023   8.565 -0.1783  0.3404 -0.2122
  716MOL0     C94442   7.364   0.980   8.700  0.4716 -0.2104 -0.0581
  716MOL0     C94443   7.429   1.058   8.803  0.7069  0.3139  0.3879
  716MOL0     C94444   7.492   1.132   8.879 -0.3297  0.0166 -0.3645
  716MOL0     C94445   7.189   0.612   8.463 -0.7094  0.3854 -0.6110
  716MOL0     C94446   7.060   0.560   8.489 -0.0894  0.2988 -0.4873
  716MOL0     H94447   6.568   0.721   8.491  1.1106 -0.4765 -1.1184
  716MOL0     H94448   6.343   0.675   8.584  0.8318 -0.0598  1.8136
  716MOL0     H94449   6.097   0.588   8.469  2.3328 -0.1611  0.1745
  716MOL0     H94450   6.153   0.592   8.635 -2.5236 -0.0190  1.5426
  716MOL0     H94451   5.936   0.565   8.651 -0.6204 -0.3258 -2.3201
  716MOL0     H94452   6.019   0.418   8.709  3.5451  0.6984  0.5689
  716MOL0     H94453   5.973   0.302   8.490 -0.3282  0.6880  0.8642
  716MOL0     H94454   5.903   0.450   8.423  1.1065 -0.2394 -0.7134
  716MOL0     H94455   5.727   0.455   8.589  1.8695  0.9428  0.3238
  716MOL0     H94456   5.710   0.345   8.452  0.4177  2.2502 -0.5290
  716MOL0     H94457   5.805   0.280   8.729  0.3721  2.7319 -1.2622
  716MOL0     H94458   5.819   0.169   8.595  0.8359 -0.1922  1.8077
  716MOL0     H94459   5.569   0.141   8.581  0.8089  1.2653 -1.7354
  716MOL0     H94460   5.546   0.270   8.693  0.6900  1.4105 -3.0855
  716MOL0     H94461   5.670  -0.010   8.760 -2.7949 -2.1128  0.8105
  716MOL0     H94462   5.690   0.115   8.875 -0.0378  1.6344  1.2694
  716MOL0     H94463   5.461   0.145   8.887  0.0720 -1.5538  2.1485
  716MOL0     H94464   5.486  -0.011   8.923 -0.8285  1.5996  0.5156
  716MOL0     H94465   5.270   0.199   8.746  1.1410 -0.9567  1.3486
  716MOL0     H94466   5.055   0.061   8.484 -0.2910 -0.2369 -0.1807
  716MOL0     H94467   5.037   0.140   8.644  0.1191  0.4795 -1.1654
  716MOL0     H94468   5.008  -0.114   8.723  1.5603  1.5717 -0.0182
  716MOL0     H94469   4.995  -0.142   8.551  1.5625 -0.9580  2.4096
  716MOL0     H94470   4.795   0.002   8.726  0.3319 -1.2921 -0.1117
  716MOL0     H94471   4.781   0.023   8.554 -0.7468  0.3406  0.2745
  716MOL0     H94472   4.779  -0.245   8.714 -0.1859 -0.6701 -1.4504
  716MOL0     H94473   4.750  -0.234   8.547 -1.7830 -3.3498  1.7070
  716MOL0     H94474   4.550  -0.265   8.882  3.2561 -2.2770 -1.9547
  716MOL0     H94475   4.384  -0.447   8.894  0.6391 -0.6932 -0.5844
  716MOL0     H94476   4.183  -0.790   8.967  0.3533 -0.4110 -1.5715
  716MOL0     H94477   4.023  -0.978   8.945 -4.2493 -1.4541  0.0410
  716MOL0     H94478   3.612  -0.872   8.844 -0.8993 -1.0127 -0.5000
  716MOL0     H94479   3.707  -0.966   8.969  2.7506  0.1241 -0.4544
  716MOL0     H94480   3.567  -1.073   8.709  1.9763  0.0933 -1.3987
  716MOL0     H94481   3.492  -1.077   8.858 -0.4260  1.1827 -0.6436
  716MOL0     H94482   3.708  -1.203   8.944  2.3317  1.2559 -0.2617
  716MOL0     H94483   3.740  -1.234   8.778 -1.0298  2.3934 -0.9120
  716MOL0     H94484   3.472  -1.322   8.789  1.3941 -1.7417 -2.2008
  716MOL0     H94485   3.617  -1.424   8.805  0.9537  0.6288 -1.2499
  716MOL0     H94486   3.434  -1.301   9.014  2.0574  2.1370  0.2711
  716MOL0     H94487   3.586  -1.372   9.069 -1.5631  0.1481  1.3367
  716MOL0     H94488   3.489  -1.600   8.952 -1.0823 -1.2620  1.0969
  716MOL0     H94489   3.337  -1.494   8.953 -0.8367 -0.1555  1.3874
  716MOL0     H94490   3.501  -1.570   9.189  0.2754  1.3742 -0.7032
  716MOL0     H94491   3.358  -1.475   9.205  0.6187  0.0693 -0.1529
  716MOL0     H94492   3.282  -1.694   9.244  0.3500  0.5478  1.3453
  716MOL0     H94493   3.355  -1.752   9.087 -2.2587 -3.1661  3.7197
  716MOL0     H94494   3.769  -0.713   8.719  0.8068 -1.0473 -1.1100
  716MOL0     H94495   3.922  -0.533   8.753 -2.2794 -0.3499  0.3903
  716MOL0     H94496   4.267  -0.387   8.481 -3.4541  0.3307  1.7012
  716MOL0     H94497   4.450  -0.221   8.464 -0.5266  2.8527  0.8954
  716MOL0     H94498   6.397   0.267   8.423  1.1780  0.2261 -2.0812
  716MOL0     H94499   6.603   0.321   8.360 -0.0578  2.1036 -3.3147
  716MOL0     H94500   6.896   0.670   8.218 -0.1865  0.1163 -0.1834
  716MOL0     H94501   7.102   0.784   8.185 -0.1164 -0.3631 -0.1235
  716MOL0     H94502   7.510   0.791   8.384  0.0624  1.2041  0.9002
  716MOL0     H94503   7.412   0.738   8.512  1.3999  1.3054  0.7814
  716MOL0     H94504   7.413   1.007   8.355  1.0104 -0.8975  0.6436
  716MOL0     H94505   7.262   0.977   8.428 -0.5159 -1.0581 -0.3825
  716MOL0     H94506   7.424   1.132   8.557  3.1454  0.7286 -0.4356
  716MOL0     H94507   7.541   1.003   8.568 -0.5564 -2.2630  3.5864
  716MOL0     H94508   7.256   0.995   8.711  0.6852 -0.0792  2.5116
  716MOL0     H94509   7.374   0.874   8.727 -1.1176 -0.2696  0.3734
  716MOL0     H94510   7.526   1.212   8.941 -0.8334 -1.3031  1.7127
  716MOL0     H94511   7.273   0.583   8.525 -2.4132 -1.9693  0.7452
  716MOL0     H94512   7.062   0.491   8.572  1.5917  0.9557  0.0718
  717MOL0     O94513  11.242   5.007   4.633  0.4639 -0.6648 -0.4455
  717MOL0     C94514  11.268   4.890   4.668  0.5987  0.5102  0.4629
  717MOL0     O94515  11.186   4.782   4.656 -0.4978 -0.0003  0.2622
  717MOL0     C94516  11.055   4.812   4.615 -0.1071  0.0739 -0.2452
  717MOL0     C94517  10.983   4.728   4.518 -0.2432 -0.0022 -0.7119
  717MOL0     C94518  10.846   4.726   4.508  0.9163 -0.4799 -0.3431
  717MOL0     C94519  10.763   4.812   4.591  0.9333  0.1236  1.0329
  717MOL0     O94520  10.631   4.803   4.569  0.6064 -0.8055 -0.2115
  717MOL0     C94521  10.537   4.845   4.672 -1.0632  0.2243 -0.1829
  717MOL0     C94522  10.387   4.829   4.641 -1.3345  0.5596  0.2068
  717MOL0     C94523  10.300   4.832   4.766 -0.3481 -0.3563 -0.4558
  717MOL0     C94524  10.160   4.874   4.750 -0.2977  0.2762  0.1449
  717MOL0     C94525  10.092   4.901   4.881 -0.0830  0.2329  0.0482
  717MOL0     C94526  10.023   4.772   4.944 -0.1586  0.4148 -0.4953
  717MOL0     C94527   9.955   4.809   5.070 -0.5758  0.3174 -0.3929
  717MOL0     C94528   9.831   4.729   5.092  0.5119  0.9151 -0.8136
  717MOL0     N94529   9.780   4.740   5.234  0.4953 -0.0455 -0.3448
  717MOL0     C94530   9.698   4.839   5.278  0.8069 -0.4795  0.4869
  717MOL0     C94531   9.681   4.819   5.413 -0.7807 -1.1843  0.0785
  717MOL0     C94532   9.602   4.912   5.502  0.8125  0.1146  0.1763
  717MOL0     C94533   9.464   4.938   5.450  0.7093 -0.4105 -0.7739
  717MOL0     C94534   9.391   5.023   5.560  0.6548 -0.1060  0.0887
  717MOL0     C94535   9.241   5.051   5.522  0.1393  0.1263 -1.1073
  717MOL0     O94536   9.144   4.950   5.579 -0.1588  0.1631 -0.0914
  717MOL0     C94537   9.022   5.006   5.607  0.3019 -0.0164 -0.6317
  717MOL0     C94538   8.958   4.969   5.718 -1.0594 -0.1060  0.0655
  717MOL0     C94539   8.841   5.030   5.749  0.1017 -0.7209 -0.5119
  717MOL0     C94540   8.773   5.114   5.665 -0.9728  0.9243  0.4419
  717MOL0     C94541   8.645   5.178   5.703  0.6456 -0.6444  0.3055
  717MOL0     O94542   8.591   5.145   5.817 -0.5288 -0.0128  0.2277
  717MOL0     C94543   8.459   5.196   5.839 -0.4833  0.8477  0.0436
  717MOL0     C94544   8.350   5.120   5.834 -0.4328  0.7551 -0.4186
  717MOL0     C94545   8.222   5.174   5.860  0.4209 -0.0843 -0.1638
  717MOL0     C94546   8.204   5.310   5.906  0.2370  1.4289  0.6909
  717MOL0     O94547   8.087   5.370   5.930  0.7052 -0.2979  0.0105
  717MOL0     C94548   7.995   5.308   6.023 -0.5040 -0.2859  0.3244
  717MOL0     C94549   7.895   5.409   6.085 -0.5106  0.9061 -0.2588
  717MOL0     C94550   7.978   5.522   6.159  1.2104  0.1912  0.0310
  717MOL0     C94551   7.881   5.626   6.210 -0.3010 -0.3202  0.2140
  717MOL0     C94552   7.816   5.705   6.093  0.4585 -0.3671  0.0323
  717MOL0     C94553   7.766   5.841   6.129 -0.4891 -0.2089  0.1316
  717MOL0     C94554   7.680   5.919   6.027 -0.0416 -0.4613 -0.1642
  717MOL0     C94555   7.623   6.045   6.080  0.2952  0.3544  0.2734
  717MOL0    Cl94556   7.517   6.134   5.954  0.2210  0.0444  0.4046
  717MOL0     C94557   8.315   5.385   5.912 -0.1603 -0.1415 -0.6382
  717MOL0     C94558   8.440   5.332   5.882  0.4823  0.3577  0.4557
  717MOL0     O94559   8.596   5.258   5.622 -0.1334 -0.5315 -0.8601
  717MOL0     C94560   8.832   5.135   5.535  0.0198 -0.7360  0.7481
  717MOL0     C94561   8.962   5.099   5.518  0.9516 -0.9280 -0.3157
  717MOL0     N94562   9.752   4.703   5.447 -0.0359 -0.2479 -0.4424
  717MOL0     N94563   9.808   4.663   5.338  0.6889 -0.7332 -0.2836
  717MOL0     C94564  10.832   4.887   4.688  0.3531  0.3639  0.4331
  717MOL0     C94565  10.973   4.893   4.693  0.0962 -0.0652 -0.0676
  717MOL0     C94566  11.387   4.872   4.751  0.4113 -0.1985 -0.2283
  717MOL0     C94567  11.494   4.969   4.761  0.0537  0.8017 -0.8348
  717MOL0     C94568  11.614   4.941   4.821  0.1046  0.4976  1.4310
  717MOL0     C94569  11.638   4.812   4.879  0.0661 -0.4788  0.4024
  717MOL0     O94570  11.750   4.774   4.944 -0.0573 -0.3240  0.5899
  717MOL0     C94571  11.803   4.867   5.036 -0.2494 -1.0368 -0.6885
  717MOL0     C94572  11.906   4.788   5.112  0.4184  0.5369 -0.5303
  717MOL0     C94573  11.965   4.881   5.223  0.4220 -0.4327  0.2931
  717MOL0     C94574  12.072   4.793   5.294 -0.7436  0.3053  0.1605
  717MOL0     C94575  12.091   4.849   5.429  0.1628 -0.2207  0.3362
  717MOL0     C94576  12.100   4.898   5.540 -0.4909 -0.2238  0.3622
  717MOL0     C94577  11.542   4.715   4.873 -0.4853  0.1118 -0.4962
  717MOL0     C94578  11.419   4.743   4.809 -0.1566 -0.3902 -0.2661
  717MOL0     H94579  11.044   4.665   4.454 -1.5202 -3.4192  1.1619
  717MOL0     H94580  10.795   4.664   4.435  0.3460 -0.5116  0.0836
  717MOL0     H94581  10.544   4.954   4.683 -2.0356  0.0931  2.4418
  717MOL0     H94582  10.562   4.793   4.764 -0.0226  0.6706 -0.1878
  717MOL0     H94583  10.385   4.729   4.598 -2.2377  1.3555 -1.7478
  717MOL0     H94584  10.365   4.903   4.564  1.8986  0.1959 -1.2401
  717MOL0     H94585  10.355   4.895   4.837 -1.7629  1.5218 -0.9701
  717MOL0     H94586  10.307   4.728   4.801  3.4517 -0.5788 -1.4727
  717MOL0     H94587  10.157   4.957   4.679  1.9493 -0.9566 -1.5230
  717MOL0     H94588  10.097   4.796   4.704 -1.5318  0.7970  0.8945
  717MOL0     H94589  10.016   4.976   4.860  1.2403  1.0893 -1.9811
  717MOL0     H94590  10.166   4.938   4.952  1.2469 -1.4524 -0.3895
  717MOL0     H94591  10.084   4.683   4.963  0.4979  1.0808  0.5736
  717MOL0     H94592   9.951   4.736   4.870  0.9053  0.6684 -1.6849
  717MOL0     H94593  10.017   4.801   5.159 -1.9980  0.2603  0.6259
  717MOL0     H94594   9.933   4.915   5.053 -0.1586  0.4595 -0.0362
  717MOL0     H94595   9.870   4.627   5.085 -2.0172 -0.0119 -3.0089
  717MOL0     H94596   9.747   4.748   5.025 -2.1428 -1.1152  1.6905
  717MOL0     H94597   9.662   4.918   5.213  2.3850  0.0215  0.1626
  717MOL0     H94598   9.651   5.008   5.520 -2.2770  1.5453  1.5496
  717MOL0     H94599   9.594   4.862   5.599  2.5590 -0.2605  0.1544
  717MOL0     H94600   9.415   4.845   5.422 -1.0663  0.4296 -0.5934
  717MOL0     H94601   9.475   4.999   5.359  1.0916 -2.6634 -2.3081
  717MOL0     H94602   9.393   4.968   5.654  2.3715  1.4360  1.0301
  717MOL0     H94603   9.440   5.116   5.592 -0.1797 -0.4205  2.4021
  717MOL0     H94604   9.236   5.082   5.418  2.4824  1.1544 -0.9767
  717MOL0     H94605   9.217   5.140   5.582 -1.3577 -0.7068 -0.4078
  717MOL0     H94606   9.013   4.917   5.796 -0.1939 -0.9302 -1.0503
  717MOL0     H94607   8.810   5.035   5.853  1.0534 -0.3875 -0.2269
  717MOL0     H94608   8.354   5.013   5.817 -1.7328  0.2703  1.9219
  717MOL0     H94609   8.133   5.113   5.852  1.7533 -2.0164 -1.3589
  717MOL0     H94610   8.052   5.263   6.104 -0.6528 -2.1950 -0.5742
  717MOL0     H94611   7.941   5.237   5.959 -2.0759  0.4954  0.7272
  717MOL0     H94612   7.825   5.362   6.155 -0.6688 -0.2588 -1.1720
  717MOL0     H94613   7.842   5.457   6.002 -1.8238 -2.3724 -1.4807
  717MOL0     H94614   8.047   5.579   6.095  0.3005  3.1625  1.5234
  717MOL0     H94615   8.020   5.474   6.248 -0.9596 -1.3644  0.3091
  717MOL0     H94616   7.800   5.585   6.270 -1.4022  0.0080 -0.9805
  717MOL0     H94617   7.925   5.699   6.278 -2.2470  0.6264  0.5279
  717MOL0     H94618   7.736   5.649   6.045  0.5374  0.0490 -0.5933
  717MOL0     H94619   7.877   5.718   6.003 -0.7084  0.2868 -0.6929
  717MOL0     H94620   7.856   5.901   6.147  0.0388 -1.1550  0.7122
  717MOL0     H94621   7.704   5.835   6.219  1.2149  1.6671  1.5129
  717MOL0     H94622   7.748   5.945   5.946  0.7401 -2.9005 -0.3966
  717MOL0     H94623   7.600   5.856   5.988 -1.2479  0.5503  0.6178
  717MOL0     H94624   7.696   6.118   6.118 -0.7850  3.2059 -2.6418
  717MOL0     H94625   7.550   6.015   6.156 -2.0152 -1.1241 -2.3389
  717MOL0     H94626   8.293   5.490   5.928 -2.0973 -0.8346  2.1011
  717MOL0     H94627   8.521   5.404   5.880  1.9477 -1.2473  0.1672
  717MOL0     H94628   8.771   5.195   5.469  0.7172  0.9211  1.5725
  717MOL0     H94629   9.010   5.124   5.424  0.9846 -1.5016 -0.4514
  717MOL0     H94630  10.784   4.955   4.758  1.4227  1.8296 -0.1972
  717MOL0     H94631  11.022   4.936   4.780  2.1761  1.5700 -1.9375
  717MOL0     H94632  11.489   5.063   4.706  0.3550  0.7081 -1.0275
  717MOL0     H94633  11.701   5.005   4.816  1.8672 -1.8178 -0.6692
  717MOL0     H94634  11.729   4.892   5.113  0.5607 -0.6836 -0.0175
  717MOL0     H94635  11.845   4.959   4.995 -3.7172  4.8481  6.4535
  717MOL0     H94636  11.856   4.706   5.164 -0.2346  1.3163  0.0910
  717MOL0     H94637  11.987   4.755   5.045 -0.1270 -1.8211 -0.1069
  717MOL0     H94638  11.880   4.926   5.275  0.6099  2.2338 -1.4901
  717MOL0     H94639  12.021   4.967   5.184  3.5251 -1.9713  1.0205
  717MOL0     H94640  12.050   4.687   5.312  1.4846  0.1061  2.2140
  717MOL0     H94641  12.163   4.789   5.233 -0.8456  1.2132 -0.0689
  717MOL0     H94642  12.099   4.927   5.643 -0.1261  3.6222 -0.5829
  717MOL0     H94643  11.554   4.617   4.919 -1.8630 -0.3108 -0.9881
  717MOL0     H94644  11.344   4.665   4.815  1.0995 -1.5848  0.5616
  718MOL0     O94645   8.322   6.584   1.306  0.5378  0.1289 -0.3882
  718MOL0     C94646   8.364   6.495   1.225  0.1396  0.5576  0.4267
  718MOL0     O94647   8.323   6.480   1.102 -0.1533 -0.4706 -0.2732
  718MOL0     C94648   8.186   6.492   1.070 -0.2096  0.1734  0.0875
  718MOL0     C94649   8.083   6.487   1.160  0.0098 -1.1375  0.1776
  718MOL0     C94650   7.951   6.505   1.133 -0.4678  0.2959 -0.3368
  718MOL0     C94651   7.912   6.507   0.996 -0.2416  0.1295 -0.5392
  718MOL0     O94652   7.781   6.512   0.969  0.4779  0.1881  0.5268
  718MOL0     C94653   7.730   6.602   0.870 -0.1243 -0.3930  0.1719
  718MOL0     C94654   7.671   6.520   0.751 -0.3458 -1.1187  0.0207
  718MOL0     C94655   7.543   6.446   0.781 -0.2810  0.1870  0.1837
  718MOL0     C94656   7.418   6.530   0.775 -0.2474 -0.1156 -0.0720
  718MOL0     C94657   7.288   6.453   0.769 -0.1986 -0.2129  0.4245
  718MOL0     C94658   7.166   6.545   0.744  0.1701 -0.4496 -0.1166
  718MOL0     C94659   7.032   6.474   0.776 -0.4654 -0.0411  0.7073
  718MOL0     C94660   6.912   6.562   0.728 -0.5503  0.3639  0.1301
  718MOL0     N94661   6.779   6.514   0.763 -0.0594 -0.5683  0.1925
  718MOL0     C94662   6.682   6.594   0.805  0.6894 -0.7209  0.5267
  718MOL0     C94663   6.573   6.515   0.809  0.2636  0.0249  0.4933
  718MOL0     C94664   6.445   6.553   0.879 -0.4291 -0.2708  0.5610
  718MOL0     C94665   6.331   6.556   0.772 -0.1035 -0.1650 -0.3052
  718MOL0     C94666   6.216   6.666   0.812 -0.0160  0.6829  0.0854
  718MOL0     C94667   6.163   6.644   0.953 -0.0645 -0.3988 -0.2100
  718MOL0     O94668   6.091   6.521   0.963 -0.1206  1.2706  0.5521
  718MOL0     C94669   6.095   6.435   1.071 -0.2946 -1.1332  0.0572
  718MOL0     C94670   6.161   6.453   1.194 -0.3861 -0.5567  0.3884
  718MOL0     C94671   6.160   6.362   1.295  1.2554  0.3021  0.4602
  718MOL0     C94672   6.082   6.247   1.281 -0.2243 -0.5862  0.0237
  718MOL0     C94673   6.086   6.147   1.382  0.8651  0.2023 -0.0983
  718MOL0     O94674   5.979   6.062   1.379 -0.8802 -0.0068  0.4274
  718MOL0     C94675   5.969   5.959   1.469 -0.4834  0.0270 -0.6612
  718MOL0     C94676   5.888   5.967   1.582 -0.3729 -0.4057  0.7504
  718MOL0     C94677   5.872   5.865   1.670  0.3725  0.3302 -0.5018
  718MOL0     C94678   5.951   5.748   1.658  0.5688 -0.0441 -0.0202
  718MOL0     O94679   5.947   5.644   1.747  0.0239  0.1920 -0.0814
  718MOL0     C94680   6.003   5.509   1.724  1.0809  0.5721 -0.1348
  718MOL0     C94681   5.923   5.406   1.798 -0.1592 -0.5151 -0.4168
  718MOL0     C94682   5.946   5.433   1.944  0.8801 -0.0415  0.4671
  718MOL0     C94683   5.822   5.414   2.025  0.8086  0.8081  0.2568
  718MOL0     C94684   5.871   5.452   2.167  0.3226 -0.1993  0.3251
  718MOL0     C94685   5.775   5.398   2.266 -0.4897 -0.3815 -0.7200
  718MOL0     C94686   5.794   5.465   2.398 -0.1384  0.5023 -0.5445
  718MOL0     C94687   5.698   5.415   2.499  0.7176 -0.6143  0.0462
  718MOL0    Cl94688   5.729   5.242   2.547 -0.0587  0.2180  0.1769
  718MOL0     C94689   6.037   5.741   1.551 -0.6721 -0.2192 -0.7711
  718MOL0     C94690   6.052   5.848   1.466  0.1477 -0.2975 -0.8615
  718MOL0     O94691   6.190   6.137   1.451 -0.7522 -0.5176 -0.1715
  718MOL0     C94692   6.020   6.223   1.164 -0.7243  0.6855  0.1134
  718MOL0     C94693   6.023   6.312   1.057  0.8030  0.5409 -0.6154
  718MOL0     N94694   6.614   6.390   0.764  0.1104 -0.6731 -0.2744
  718MOL0     N94695   6.742   6.387   0.746 -0.4099 -0.5241  0.5737
  718MOL0     C94696   8.006   6.485   0.898 -0.9168 -0.0517  0.2086
  718MOL0     C94697   8.142   6.486   0.930  0.4774 -0.2201 -0.7710
  718MOL0     C94698   8.491   6.423   1.263  0.0449 -0.6395 -0.9815
  718MOL0     C94699   8.555   6.326   1.177 -0.8141 -0.1682 -0.4187
  718MOL0     C94700   8.664   6.249   1.208 -0.4396  0.2989 -0.4051
  718MOL0     C94701   8.735   6.283   1.326 -0.8558 -0.2788 -0.1064
  718MOL0     O94702   8.848   6.217   1.374 -0.2142 -0.8088 -0.9254
  718MOL0     C94703   8.913   6.122   1.287 -0.3585  0.1094 -0.0669
  718MOL0     C94704   9.019   6.185   1.196 -0.0460 -0.7396  0.7637
  718MOL0     C94705   9.130   6.280   1.255 -0.8384  0.7791 -0.1909
  718MOL0     C94706   9.189   6.213   1.378  0.3822 -1.6440  0.6745
  718MOL0     C94707   9.247   6.082   1.360  0.4411  0.3942 -0.8725
  718MOL0     C94708   9.295   5.975   1.348  0.3523  0.3157 -0.1018
  718MOL0     C94709   8.677   6.382   1.418  0.5100  0.6536 -0.5271
  718MOL0     C94710   8.556   6.447   1.386 -0.3364  0.2065 -0.7553
  718MOL0     H94711   8.110   6.463   1.262 -0.7280  1.2814  1.0097
  718MOL0     H94712   7.875   6.510   1.210 -0.5801  0.5960 -0.4671
  718MOL0     H94713   7.812   6.671   0.849  1.5131 -1.7426  1.8272
  718MOL0     H94714   7.647   6.667   0.901  0.3231  0.6007 -0.6581
  718MOL0     H94715   7.748   6.450   0.720  0.1586 -0.4494 -0.2694
  718MOL0     H94716   7.662   6.584   0.662  0.4762 -1.4626 -0.3167
  718MOL0     H94717   7.564   6.394   0.875  2.1470 -0.1609 -0.4782
  718MOL0     H94718   7.544   6.369   0.704  4.6591 -0.3688  0.4566
  718MOL0     H94719   7.416   6.603   0.857  0.5994  0.7423 -0.7845
  718MOL0     H94720   7.417   6.599   0.690 -1.2828 -1.1887 -0.9543
  718MOL0     H94721   7.269   6.392   0.857  0.8664 -2.6724 -0.9446
  718MOL0     H94722   7.306   6.374   0.695  1.8524  0.3449  0.2640
  718MOL0     H94723   7.157   6.573   0.638  2.9513 -1.1193 -0.6083
  718MOL0     H94724   7.173   6.642   0.793 -2.1486 -0.0160 -0.5202
  718MOL0     H94725   7.015   6.376   0.731  1.3198  0.2327 -0.6511
  718MOL0     H94726   7.014   6.465   0.884  0.3985 -1.9329  0.7310
  718MOL0     H94727   6.915   6.561   0.619  0.9229 -0.0010  0.1472
  718MOL0     H94728   6.929   6.662   0.768  1.5850 -0.1515  0.6360
  718MOL0     H94729   6.682   6.693   0.850 -0.5748 -1.4735  2.3369
  718MOL0     H94730   6.458   6.646   0.936 -0.7378  0.2131 -0.1329
  718MOL0     H94731   6.412   6.486   0.959 -0.2830 -0.2973  0.5985
  718MOL0     H94732   6.274   6.463   0.771 -1.7632  0.6059  3.7401
  718MOL0     H94733   6.379   6.583   0.677  0.2064  0.8537  0.1283
  718MOL0     H94734   6.269   6.761   0.801  2.0838 -0.6540 -2.3609
  718MOL0     H94735   6.140   6.664   0.733 -0.7091 -1.5686  0.7487
  718MOL0     H94736   6.095   6.725   0.980 -2.6534 -1.7852 -2.1388
  718MOL0     H94737   6.246   6.649   1.024 -3.5238 -1.4625  4.4191
  718MOL0     H94738   6.218   6.545   1.204 -0.9249  0.4457 -3.8566
  718MOL0     H94739   6.215   6.370   1.388 -0.5144  2.7574  1.4391
  718MOL0     H94740   5.831   6.059   1.591 -0.2222 -0.2553  0.2057
  718MOL0     H94741   5.794   5.876   1.745  0.7138  1.7750 -0.3306
  718MOL0     H94742   6.107   5.500   1.759  0.9257 -3.1099 -0.3024
  718MOL0     H94743   6.008   5.481   1.619  3.3561 -2.5530  0.6696
  718MOL0     H94744   5.946   5.308   1.755 -0.5533 -0.9766  0.3940
  718MOL0     H94745   5.816   5.416   1.775 -0.8361  2.5333  3.1017
  718MOL0     H94746   5.971   5.537   1.969  1.9514 -0.5341  1.5560
  718MOL0     H94747   6.032   5.368   1.963  0.8992 -0.8949 -2.0914
  718MOL0     H94748   5.753   5.484   1.976  2.7514  0.1950 -3.8374
  718MOL0     H94749   5.782   5.313   2.017  1.9644  0.3586 -0.0168
  718MOL0     H94750   5.876   5.560   2.179  1.2866 -0.1457 -0.4585
  718MOL0     H94751   5.972   5.411   2.177 -0.2591 -2.2186 -1.1893
  718MOL0     H94752   5.785   5.290   2.284  3.8278  0.1366  1.2477
  718MOL0     H94753   5.677   5.414   2.220 -0.3406 -1.4427 -1.4490
  718MOL0     H94754   5.896   5.439   2.427 -1.0552 -1.3398  1.2986
  718MOL0     H94755   5.794   5.574   2.396  3.3358  0.6060 -0.4924
  718MOL0     H94756   5.592   5.414   2.470 -0.1232 -0.7316  2.7957
  718MOL0     H94757   5.687   5.486   2.583 -1.1420 -1.1390  0.2961
  718MOL0     H94758   6.111   5.662   1.541  1.9802  1.7860  1.4467
  718MOL0     H94759   6.127   5.843   1.388 -0.8744  0.9541 -1.9663
  718MOL0     H94760   5.968   6.130   1.145 -0.7846  1.4921 -5.6202
  718MOL0     H94761   5.971   6.288   0.964 -1.4976 -2.4190  1.2423
  718MOL0     H94762   7.983   6.487   0.792  2.1611 -2.0069 -0.6075
  718MOL0     H94763   8.209   6.504   0.846  0.5118  1.1019 -0.4910
  718MOL0     H94764   8.499   6.304   1.086  0.5381  0.9756 -1.5707
  718MOL0     H94765   8.702   6.181   1.134  1.7320  0.9807  0.0062
  718MOL0     H94766   8.834   6.069   1.234 -0.7672  1.0164 -0.3737
  718MOL0     H94767   8.956   6.043   1.351 -1.9022 -2.4902 -2.0403
  718MOL0     H94768   9.076   6.103   1.153  2.7798  0.6455  1.6544
  718MOL0     H94769   8.972   6.237   1.111 -1.1115 -2.9142 -0.0599
  718MOL0     H94770   9.093   6.379   1.283 -1.5106  0.1001  1.4457
  718MOL0     H94771   9.210   6.289   1.181  0.2436 -2.0181  0.5377
  718MOL0     H94772   9.278   6.269   1.408  1.0907 -1.1762 -2.0250
  718MOL0     H94773   9.118   6.213   1.461  2.0387 -0.8852  2.1411
  718MOL0     H94774   9.336   5.876   1.342 -0.7450 -0.1787  0.3160
  718MOL0     H94775   8.730   6.382   1.513  1.9283 -5.4191 -0.8640
  718MOL0     H94776   8.514   6.519   1.455 -0.0380  1.0187 -1.4139
  719MOL0     O94777   2.190   6.431   8.785 -0.0039  0.7114 -0.0448
  719MOL0     C94778   2.200   6.492   8.893  0.0070  0.3647  1.2465
  719MOL0     O94779   2.100   6.567   8.943  0.6894  0.5958  0.5864
  719MOL0     C94780   1.976   6.588   8.882  0.1775 -0.7341  0.1589
  719MOL0     C94781   1.942   6.558   8.754  0.6131 -0.3511  0.0728
  719MOL0     C94782   1.827   6.597   8.693  0.3567 -0.2950 -0.2076
  719MOL0     C94783   1.723   6.658   8.768 -1.0699  0.0651 -0.5983
  719MOL0     O94784   1.605   6.703   8.733  0.8874 -0.2530  0.2170
  719MOL0     C94785   1.537   6.619   8.639  0.4282 -0.5039  0.1252
  719MOL0     C94786   1.392   6.673   8.630 -0.1961 -0.1064 -0.3752
  719MOL0     C94787   1.389   6.792   8.532  0.7669 -0.1049 -0.8808
  719MOL0     C94788   1.247   6.852   8.534 -0.5078  0.2434  0.5831
  719MOL0     C94789   1.236   6.967   8.434  1.0130 -0.6488  0.1373
  719MOL0     C94790   1.092   7.011   8.423 -0.2039  0.0696 -0.1294
  719MOL0     C94791   1.018   7.034   8.559 -0.4620  0.1129  0.4471
  719MOL0     C94792   0.883   7.098   8.526 -0.6219 -0.4363  0.2891
  719MOL0     N94793   0.808   7.113   8.644  0.7125 -0.1047 -0.0727
  719MOL0     C94794   0.669   7.110   8.655  0.7371 -1.1538 -0.3941
  719MOL0     C94795   0.641   7.213   8.746  0.4626  0.5630 -0.0895
  719MOL0     C94796   0.503   7.242   8.787 -0.1984  1.2978 -0.1025
  719MOL0     C94797   0.410   7.252   8.666 -0.4248  0.1136  0.6662
  719MOL0     C94798   0.266   7.285   8.711 -0.9469  0.7918 -0.0650
  719MOL0     C94799   0.176   7.334   8.605 -0.0293 -0.0608 -0.1796
  719MOL0     O94800   0.040   7.345   8.651 -0.4302 -0.5996 -0.2990
  719MOL0     C94801  -0.063   7.386   8.577 -1.0436  0.3299 -0.2955
  719MOL0     C94802  -0.052   7.424   8.440  0.3510 -0.0108 -0.5690
  719MOL0     C94803  -0.157   7.484   8.372 -0.1101  0.3138  0.0681
  719MOL0     C94804  -0.284   7.485   8.438  0.6541  0.2362 -0.0974
  719MOL0     C94805  -0.395   7.546   8.367 -0.1128  0.1330 -0.5140
  719MOL0     O94806  -0.520   7.550   8.430 -0.4061 -0.4230 -0.1848
  719MOL0     C94807  -0.645   7.578   8.374  0.0678 -0.5628 -0.0950
  719MOL0     C94808  -0.674   7.577   8.243 -0.3451  0.0064  0.3043
  719MOL0     C94809  -0.803   7.611   8.205  0.0047 -1.8960 -0.1815
  719MOL0     C94810  -0.901   7.635   8.295  0.7148  0.1336 -0.1409
  719MOL0     O94811  -1.033   7.629   8.252  0.2975 -0.2976 -0.0887
  719MOL0     C94812  -1.139   7.627   8.343  0.2081  0.1725 -0.7003
  719MOL0     C94813  -1.281   7.642   8.276 -0.4372 -0.0817 -0.2063
  719MOL0     C94814  -1.398   7.624   8.375 -0.4895 -0.3745  0.6089
  719MOL0     C94815  -1.397   7.715   8.495  0.0338 -0.1419 -0.2296
  719MOL0     C94816  -1.533   7.705   8.579  0.2695  0.0831 -0.4823
  719MOL0     C94817  -1.560   7.829   8.674 -0.4285  0.4452  0.1444
  719MOL0     C94818  -1.685   7.812   8.755 -0.0480 -0.1932  0.5976
  719MOL0     C94819  -1.729   7.943   8.815  0.2489 -0.7462  0.0394
  719MOL0    Cl94820  -1.884   7.897   8.907 -0.0891 -0.0448  0.2428
  719MOL0     C94821  -0.868   7.645   8.429  0.1884 -0.0740  0.3297
  719MOL0     C94822  -0.743   7.607   8.464 -0.3553  0.2295 -1.0380
  719MOL0     O94823  -0.371   7.579   8.256  0.4364  0.5255  0.0353
  719MOL0     C94824  -0.302   7.441   8.571 -0.0940 -0.1047  0.5874
  719MOL0     C94825  -0.190   7.386   8.637  0.5994  0.0117 -0.8500
  719MOL0     N94826   0.760   7.270   8.789 -0.6043  0.5849  0.3240
  719MOL0     N94827   0.856   7.205   8.730 -0.5748  0.6997  0.0697
  719MOL0     C94828   1.759   6.691   8.901 -0.0794  1.6746  0.1538
  719MOL0     C94829   1.885   6.655   8.958 -0.3776 -0.1228 -0.1251
  719MOL0     C94830   2.329   6.484   8.964  0.2999  0.3344 -0.2889
  719MOL0     C94831   2.428   6.393   8.923 -0.0449 -0.2162 -0.2069
  719MOL0     C94832   2.547   6.378   8.994 -0.9699  0.1062 -0.5346
  719MOL0     C94833   2.574   6.457   9.108  0.3672 -0.3859  0.6999
  719MOL0     O94834   2.681   6.456   9.199  0.8588  0.8798 -0.3947
  719MOL0     C94835   2.808   6.388   9.162  0.3760  0.0902  0.8329
  719MOL0     C94836   2.875   6.303   9.277  0.1296  0.1197 -1.2211
  719MOL0     C94837   2.867   6.370   9.417  0.2586 -0.2067  0.5654
  719MOL0     C94838   2.981   6.476   9.432  0.0586  0.4422  0.0751
  719MOL0     C94839   3.065   6.447   9.550  0.7731  1.4678 -0.4128
  719MOL0     C94840   3.118   6.412   9.652  0.6583  0.0070 -0.2768
  719MOL0     C94841   2.475   6.544   9.153  0.6033  0.0910  0.8698
  719MOL0     C94842   2.352   6.548   9.087 -0.1627  0.0643  0.4824
  719MOL0     H94843   2.004   6.520   8.674  2.5468  0.6491  1.0057
  719MOL0     H94844   1.818   6.578   8.586 -1.1449  0.3119 -0.2189
  719MOL0     H94845   1.535   6.512   8.664  0.6743 -0.3482  0.8174
  719MOL0     H94846   1.582   6.633   8.541 -0.6754  2.3246 -0.0869
  719MOL0     H94847   1.351   6.691   8.729 -1.7652 -0.5813 -0.9090
  719MOL0     H94848   1.340   6.586   8.591  0.6665 -2.0201  2.4669
  719MOL0     H94849   1.417   6.756   8.433  1.6857 -1.4299 -0.1735
  719MOL0     H94850   1.467   6.866   8.554  1.0154 -0.8094  0.7919
  719MOL0     H94851   1.175   6.771   8.519  0.2888 -0.2192 -0.9038
  719MOL0     H94852   1.240   6.897   8.634  1.3724  0.3059  0.7214
  719MOL0     H94853   1.269   6.940   8.334 -0.1850  1.7835 -0.9934
  719MOL0     H94854   1.292   7.058   8.457 -0.8239  0.0113  2.4336
  719MOL0     H94855   1.039   6.934   8.368  1.2714 -2.7605  2.1512
  719MOL0     H94856   1.095   7.108   8.371  1.6800  1.8519  2.9724
  719MOL0     H94857   0.997   6.945   8.619  0.7086  0.0905  0.8486
  719MOL0     H94858   1.073   7.109   8.618 -1.1604  0.2355  0.9586
  719MOL0     H94859   0.843   7.027   8.453  1.4388 -0.6558 -0.6771
  719MOL0     H94860   0.893   7.196   8.478  1.2537  1.0801  3.4280
  719MOL0     H94861   0.597   7.049   8.603 -1.9636  2.0131 -0.7174
  719MOL0     H94862   0.511   7.332   8.849 -0.6429  1.1010  0.2473
  719MOL0     H94863   0.463   7.168   8.857 -0.9421  0.7889 -1.0284
  719MOL0     H94864   0.402   7.158   8.611 -1.1671  0.0096  0.9417
  719MOL0     H94865   0.461   7.325   8.602  2.5222 -4.8641 -3.4024
  719MOL0     H94866   0.223   7.193   8.753 -0.1460  0.4972  0.1294
  719MOL0     H94867   0.271   7.355   8.795 -1.9454  0.4844  0.2718
  719MOL0     H94868   0.192   7.276   8.513  1.0247 -1.7594  1.0292
  719MOL0     H94869   0.208   7.437   8.585 -2.9234  1.0389  0.2832
  719MOL0     H94870   0.050   7.427   8.404  0.6550 -0.0582  0.2725
  719MOL0     H94871  -0.141   7.531   8.276 -0.6228 -1.5015 -0.9621
  719MOL0     H94872  -0.596   7.566   8.168 -1.7155 -2.2832 -0.9057
  719MOL0     H94873  -0.821   7.614   8.098  1.9569 -2.0233 -0.5579
  719MOL0     H94874  -1.133   7.713   8.411  2.5367 -1.7692  1.8090
  719MOL0     H94875  -1.128   7.538   8.406 -0.5063  0.6878  0.1659
  719MOL0     H94876  -1.295   7.563   8.201 -0.1839 -0.2593 -0.0686
  719MOL0     H94877  -1.286   7.737   8.221  0.6502  0.4497  0.5706
  719MOL0     H94878  -1.407   7.519   8.403 -1.6626 -1.4988 -3.4131
  719MOL0     H94879  -1.484   7.639   8.310  1.7102  3.8812 -1.7440
  719MOL0     H94880  -1.316   7.683   8.561 -1.9918 -0.4155  2.2976
  719MOL0     H94881  -1.375   7.819   8.473  1.2897 -0.2899  0.2399
  719MOL0     H94882  -1.561   7.609   8.623 -0.2702  0.1994 -0.5612
  719MOL0     H94883  -1.616   7.718   8.509 -0.5886 -2.2021  0.0423
  719MOL0     H94884  -1.569   7.917   8.610 -0.6551 -0.4824 -1.1328
  719MOL0     H94885  -1.468   7.834   8.733 -0.0051  0.6511 -0.5238
  719MOL0     H94886  -1.750   7.781   8.673  0.1914  4.2707 -1.5444
  719MOL0     H94887  -1.680   7.731   8.829 -2.1796 -0.1327  0.8701
  719MOL0     H94888  -1.749   8.011   8.732  0.7407 -3.2013 -2.2564
  719MOL0     H94889  -1.646   7.974   8.879  0.5160  2.1678 -1.5445
  719MOL0     H94890  -0.944   7.658   8.505 -2.0395  0.2465 -1.8194
  719MOL0     H94891  -0.724   7.605   8.571 -0.5728 -0.4168 -1.0071
  719MOL0     H94892  -0.396   7.427   8.623 -1.2569 -0.9370 -1.6168
  719MOL0     H94893  -0.194   7.357   8.741 -1.9334  0.5728 -0.7345
  719MOL0     H94894   1.684   6.750   8.953 -2.2962  0.9795 -2.0876
  719MOL0     H94895   1.898   6.678   9.063 -0.5827 -1.8675  0.3128
  719MOL0     H94896   2.424   6.327   8.837 -1.2324  0.3052 -0.5779
  719MOL0     H94897   2.626   6.309   8.968  0.5997  1.4124  0.5644
  719MOL0     H94898   2.880   6.465   9.133  2.0838 -1.3114  1.2035
  719MOL0     H94899   2.791   6.318   9.080 -0.0144  0.5229  0.5373
  719MOL0     H94900   2.806   6.219   9.290 -0.4488  0.6267 -0.9544
  719MOL0     H94901   2.975   6.270   9.246  0.7375  2.8743 -2.4811
  719MOL0     H94902   2.861   6.297   9.499 -1.9476 -1.0590 -0.2687
  719MOL0     H94903   2.768   6.417   9.419  0.7475  0.8760  0.0127
  719MOL0     H94904   3.046   6.482   9.344  0.3832 -1.9626  0.0836
  719MOL0     H94905   2.934   6.574   9.443 -2.5880 -0.7845  0.5414
  719MOL0     H94906   3.163   6.385   9.746  1.4494  2.6165  0.1904
  719MOL0     H94907   2.483   6.610   9.239 -0.3988  0.9827  0.2966
  719MOL0     H94908   2.268   6.605   9.124 -1.3121 -1.7941  0.8937
  720MOL0     O94909   7.559   1.801   5.608 -0.6265 -0.0192  0.4078
  720MOL0     C94910   7.559   1.920   5.637 -0.5753  0.5451 -0.2249
  720MOL0     O94911   7.451   1.976   5.706 -0.2178  0.1357  0.0170
  720MOL0     C94912   7.347   1.894   5.741  0.3222  0.3703  0.0616
  720MOL0     C94913   7.359   1.798   5.843 -0.3798 -1.2587 -0.3757
  720MOL0     C94914   7.245   1.732   5.895  0.0816 -0.0810  0.6034
  720MOL0     C94915   7.124   1.768   5.833 -0.0714  0.6387 -0.9492
  720MOL0     O94916   7.007   1.694   5.857  0.1673 -0.4244  0.1468
  720MOL0     C94917   7.027   1.558   5.897 -0.2813 -0.2044  0.3295
  720MOL0     C94918   6.893   1.484   5.907  0.4541 -0.6142  0.3684
  720MOL0     C94919   6.816   1.521   6.033 -0.0345 -0.0270 -0.0530
  720MOL0     C94920   6.679   1.440   6.044  0.0931 -0.2606 -0.1935
  720MOL0     C94921   6.709   1.310   6.110  0.9474 -0.4607 -0.1410
  720MOL0     C94922   6.593   1.272   6.203  0.1634  0.2059 -1.1273
  720MOL0     C94923   6.457   1.243   6.129 -0.1848 -0.1157  0.8601
  720MOL0     C94924   6.348   1.201   6.225  0.5032  0.5215  0.1361
  720MOL0     N94925   6.298   1.306   6.309  0.4443  1.0090  0.4990
  720MOL0     C94926   6.193   1.396   6.280  0.8343 -0.0499  0.3295
  720MOL0     C94927   6.195   1.486   6.381  0.4563  0.7161  0.6293
  720MOL0     C94928   6.101   1.599   6.394  0.5519  0.3734  0.5212
  720MOL0     C94929   5.980   1.544   6.471  0.2580  0.2300 -0.0832
  720MOL0     C94930   5.856   1.626   6.470  0.0267  0.1566 -0.7036
  720MOL0     C94931   5.745   1.562   6.555 -0.1224 -0.1974 -0.6274
  720MOL0     O94932   5.631   1.618   6.489  0.2393  0.7298 -0.8026
  720MOL0     C94933   5.515   1.628   6.558 -0.1034  0.2308 -0.2743
  720MOL0     C94934   5.424   1.719   6.518  0.4582 -0.6196  0.4239
  720MOL0     C94935   5.308   1.746   6.591  0.3787  0.2928 -0.6558
  720MOL0     C94936   5.274   1.663   6.696  0.8320  0.8843 -0.6616
  720MOL0     C94937   5.142   1.680   6.754  0.4771  0.5304 -0.2295
  720MOL0     O94938   5.067   1.569   6.803 -0.4242 -0.4162 -1.0372
  720MOL0     C94939   4.937   1.590   6.839  0.1689 -0.1301  0.2967
  720MOL0     C94940   4.838   1.503   6.804 -0.6494  0.5188  0.3039
  720MOL0     C94941   4.706   1.532   6.821 -0.6061  0.4391 -0.0682
  720MOL0     C94942   4.669   1.635   6.906 -0.0743  0.5123 -0.3267
  720MOL0     O94943   4.535   1.647   6.922 -0.0059  0.2014 -0.0127
  720MOL0     C94944   4.504   1.736   7.036  0.1688  0.3412 -0.2436
  720MOL0     C94945   4.354   1.720   7.054  0.7732 -0.8222 -0.3036
  720MOL0     C94946   4.308   1.824   7.160  0.5796 -0.3618 -0.2793
  720MOL0     C94947   4.156   1.816   7.172 -0.0687 -0.7463  0.8784
  720MOL0     C94948   4.102   1.891   7.294  0.0816 -0.2024  0.8661
  720MOL0     C94949   4.106   2.051   7.285  0.5858  0.6500  0.2032
  720MOL0     C94950   4.036   2.100   7.406 -0.1964  0.3705  0.4736
  720MOL0     C94951   3.935   2.211   7.381  0.1350  0.7801 -1.2163
  720MOL0    Cl94952   3.874   2.293   7.531  0.2671 -0.1627 -0.4709
  720MOL0     C94953   4.767   1.717   6.964  1.0694  1.0053  0.2545
  720MOL0     C94954   4.897   1.695   6.922  0.2006 -0.0452  0.3493
  720MOL0     O94955   5.102   1.798   6.756  0.1671 -0.1274 -0.0452
  720MOL0     C94956   5.364   1.563   6.739  0.1618 -0.3548 -1.5140
  720MOL0     C94957   5.483   1.539   6.666  0.2116 -0.7329 -0.0811
  720MOL0     N94958   6.296   1.455   6.467 -1.3092  0.1208  0.1449
  720MOL0     N94959   6.357   1.346   6.427  0.1554  0.0023  0.0925
  720MOL0     C94960   7.113   1.872   5.741  0.7708 -0.8184  0.3432
  720MOL0     C94961   7.222   1.939   5.696 -0.7253  0.2688 -0.1916
  720MOL0     C94962   7.684   1.989   5.614 -0.1837 -0.2390 -0.3402
  720MOL0     C94963   7.695   2.114   5.667 -0.4159 -0.0093  0.2130
  720MOL0     C94964   7.819   2.173   5.668  0.2388 -0.6620 -0.0290
  720MOL0     C94965   7.935   2.114   5.603  0.4097  0.4955  0.0908
  720MOL0     O94966   8.066   2.160   5.587 -0.6379 -0.4098 -0.4791
  720MOL0     C94967   8.111   2.260   5.680  0.5149 -0.0751  0.8274
  720MOL0     C94968   8.260   2.275   5.671  0.7553  0.1905 -1.2657
  720MOL0     C94969   8.299   2.340   5.544 -0.8557 -0.3549 -0.5779
  720MOL0     C94970   8.451   2.340   5.521  0.3589  0.8284 -0.0162
  720MOL0     C94971   8.519   2.216   5.504  0.4832 -0.2717  0.3730
  720MOL0     C94972   8.592   2.120   5.516 -0.1483  0.0356  0.7235
  720MOL0     C94973   7.914   1.989   5.542  0.5290  0.3448 -0.2042
  720MOL0     C94974   7.784   1.928   5.539 -0.4309  0.4271  0.3759
  720MOL0     H94975   7.466   1.800   5.864 -0.5264  0.0405  0.3269
  720MOL0     H94976   7.256   1.653   5.968  0.0266 -1.5618 -0.9316
  720MOL0     H94977   7.077   1.556   5.994 -0.9688 -0.7121  0.6832
  720MOL0     H94978   7.081   1.499   5.821  0.1798 -1.7837  1.8174
  720MOL0     H94979   6.893   1.375   5.917 -3.9106 -0.7795  0.8816
  720MOL0     H94980   6.815   1.499   5.831 -1.3468  0.1902  2.2852
  720MOL0     H94981   6.795   1.629   6.042  2.7958  0.5473  0.5650
  720MOL0     H94982   6.883   1.508   6.118  0.3254  0.0753 -0.3207
  720MOL0     H94983   6.600   1.488   6.103 -1.2557 -0.7204 -1.5538
  720MOL0     H94984   6.630   1.432   5.946 -0.5352 -1.6238  0.2119
  720MOL0     H94985   6.788   1.316   6.186  0.1528 -1.0466  0.7587
  720MOL0     H94986   6.734   1.240   6.029  0.0838  1.0492 -1.7762
  720MOL0     H94987   6.584   1.349   6.280 -0.2215 -0.5859 -0.3737
  720MOL0     H94988   6.627   1.180   6.251  0.2084  1.0714  0.5510
  720MOL0     H94989   6.433   1.337   6.080  0.3190  0.0828  0.9835
  720MOL0     H94990   6.465   1.177   6.042  2.6291  0.0696  0.8807
  720MOL0     H94991   6.378   1.114   6.284 -1.4743  1.3818  2.5317
  720MOL0     H94992   6.261   1.177   6.163  1.1939 -1.1291 -0.2621
  720MOL0     H94993   6.137   1.395   6.187  2.0557 -0.1825 -0.4288
  720MOL0     H94994   6.078   1.650   6.300  0.1535 -1.0374 -0.1760
  720MOL0     H94995   6.150   1.672   6.459  0.4719  1.8506 -0.9924
  720MOL0     H94996   6.005   1.534   6.577  1.2344  0.0591 -0.3197
  720MOL0     H94997   5.949   1.450   6.424  1.4205 -0.3567  0.2881
  720MOL0     H94998   5.875   1.723   6.516 -1.5049 -0.6567  1.8645
  720MOL0     H94999   5.831   1.650   6.366 -1.9852 -1.4395 -0.6508
  720MOL0     H95000   5.742   1.591   6.661  0.3337 -1.9804 -0.1062
  720MOL0     H95001   5.756   1.454   6.562  1.8398  0.0826  2.4165
  720MOL0     H95002   5.450   1.778   6.430 -4.0257 -0.8129 -1.2903
  720MOL0     H95003   5.248   1.832   6.564  1.1788  1.5788  1.4129
  720MOL0     H95004   4.866   1.414   6.749 -0.5916  1.1695 -0.7543
  720MOL0     H95005   4.639   1.457   6.781 -0.1658  0.3164 -0.5776
  720MOL0     H95006   4.521   1.843   7.022 -1.7140  0.6263 -0.6435
  720MOL0     H95007   4.549   1.702   7.130  0.4096  1.4978  0.0785
  720MOL0     H95008   4.335   1.617   7.087  1.9632 -1.1859 -0.6935
  720MOL0     H95009   4.306   1.735   6.958  2.6427  2.6018 -0.8688
  720MOL0     H95010   4.326   1.929   7.136  3.2091 -0.5413  0.6256
  720MOL0     H95011   4.361   1.806   7.254  1.2357 -2.5751 -1.0122
  720MOL0     H95012   4.126   1.870   7.082  1.4409 -0.6982  0.3707
  720MOL0     H95013   4.123   1.711   7.166  0.9858 -1.0199 -1.7015
  720MOL0     H95014   4.155   1.851   7.380  1.0826  0.2144  0.4547
  720MOL0     H95015   3.997   1.860   7.306  0.8567 -2.6932  1.7668
  720MOL0     H95016   4.057   2.084   7.193  1.1636 -1.4356 -0.9355
  720MOL0     H95017   4.212   2.077   7.287  0.4271  1.3315  0.0572
  720MOL0     H95018   3.990   2.019   7.463  2.6335 -0.8299  1.1919
  720MOL0     H95019   4.105   2.134   7.483 -1.0892 -0.0321  1.4772
  720MOL0     H95020   3.848   2.170   7.329  0.8533 -0.0068 -1.8123
  720MOL0     H95021   3.984   2.295   7.330  0.1895  2.6612  1.6660
  720MOL0     H95022   4.753   1.794   7.040  0.5448  0.7675  0.4071
  720MOL0     H95023   4.955   1.780   6.955  0.0768 -0.7748  2.5976
  720MOL0     H95024   5.342   1.502   6.826  0.4119  0.5940 -0.7701
  720MOL0     H95025   5.554   1.461   6.691  2.2949  1.2632  0.6863
  720MOL0     H95026   7.013   1.893   5.704  0.8008  2.0796  1.6328
  720MOL0     H95027   7.208   2.022   5.627 -1.2801 -1.5398 -2.3716
  720MOL0     H95028   7.607   2.161   5.710  0.3854  1.4812  0.3038
  720MOL0     H95029   7.836   2.271   5.713  0.2962 -1.6353  2.2304
  720MOL0     H95030   8.076   2.236   5.781 -1.3289  0.8758  0.4718
  720MOL0     H95031   8.057   2.354   5.664  0.5868  0.0896  1.5435
  720MOL0     H95032   8.287   2.351   5.744  1.1981  0.8308 -2.0708
  720MOL0     H95033   8.320   2.188   5.700  3.3551  1.8145 -1.4099
  720MOL0     H95034   8.257   2.440   5.527 -2.6185 -1.0940 -0.6862
  720MOL0     H95035   8.256   2.279   5.464 -1.8253  0.8416 -0.9990
  720MOL0     H95036   8.462   2.391   5.425  0.1180  0.3890 -0.2795
  720MOL0     H95037   8.506   2.389   5.602  2.5434 -2.8469  0.9693
  720MOL0     H95038   8.651   2.031   5.517 -0.4944 -0.2025  0.0783
  720MOL0     H95039   8.010   1.954   5.504  0.1090  0.4788 -1.4509
  720MOL0     H95040   7.777   1.839   5.478 -0.2628  1.9802 -2.0591
  721MOL0     O95041   2.556   3.560   6.746 -0.3088 -0.3224  0.1625
  721MOL0     C95042   2.606   3.658   6.789  0.5714 -1.2105  0.1089
  721MOL0     O95043   2.529   3.769   6.839 -0.3958 -0.1764  0.4594
  721MOL0     C95044   2.393   3.758   6.847 -0.0839 -0.2209  0.4729
  721MOL0     C95045   2.321   3.644   6.889 -0.4592 -0.0402  0.3444
  721MOL0     C95046   2.184   3.641   6.897  0.2169  0.5059 -0.2924
  721MOL0     C95047   2.106   3.743   6.851 -0.6665 -0.5626 -0.0506
  721MOL0     O95048   1.976   3.758   6.854 -0.0776 -0.5210  0.3740
  721MOL0     C95049   1.905   3.638   6.834  1.0605  0.4311 -0.7693
  721MOL0     C95050   1.762   3.666   6.789  0.0769 -0.0633 -0.8818
  721MOL0     C95051   1.696   3.528   6.764  0.5429 -0.3886  1.0362
  721MOL0     C95052   1.543   3.533   6.733 -0.0157  1.2288  0.5788
  721MOL0     C95053   1.477   3.425   6.653  0.4352  0.1956  0.6073
  721MOL0     C95054   1.536   3.425   6.507  0.0046 -0.1180  0.0091
  721MOL0     C95055   1.428   3.374   6.409  0.6117 -0.4065  0.8354
  721MOL0     C95056   1.490   3.320   6.285  0.5249  0.0361 -0.0356
  721MOL0     N95057   1.400   3.233   6.217  0.0931  0.7147  0.3053
  721MOL0     C95058   1.347   3.109   6.265 -0.5927 -0.5630 -0.1403
  721MOL0     C95059   1.254   3.081   6.174 -0.5034 -0.8011 -0.0316
  721MOL0     C95060   1.166   2.956   6.161 -1.0050 -1.5003  0.0669
  721MOL0     C95061   1.023   3.000   6.142 -1.5691 -0.0731  0.6336
  721MOL0     C95062   0.937   2.878   6.110  0.6463  0.5724  0.2232
  721MOL0     C95063   0.794   2.945   6.096 -0.1813  0.9641  0.2954
  721MOL0     O95064   0.690   2.849   6.082  0.4913  0.4385  0.0223
  721MOL0     C95065   0.562   2.899   6.094  0.1315  0.4871  0.3165
  721MOL0     C95066   0.465   2.812   6.144  0.6152 -0.7864 -0.6586
  721MOL0     C95067   0.334   2.854   6.154 -0.6298 -0.6780  1.3228
  721MOL0     C95068   0.292   2.986   6.120 -0.5854  0.4282 -0.2649
  721MOL0     C95069   0.161   3.040   6.140  0.0602 -0.4077 -0.7797
  721MOL0     O95070   0.078   2.947   6.201  0.1405  0.0677  0.2146
  721MOL0     C95071  -0.056   2.965   6.225 -0.6402 -0.4209 -0.3372
  721MOL0     C95072  -0.115   2.839   6.251  0.0282 -0.3473 -0.1758
  721MOL0     C95073  -0.254   2.841   6.267  0.1427 -0.7993  0.2801
  721MOL0     C95074  -0.331   2.962   6.265 -0.1639  0.3806  0.6103
  721MOL0     O95075  -0.469   2.951   6.287 -0.0160 -0.0287 -0.1431
  721MOL0     C95076  -0.556   3.057   6.252  0.1374 -1.0655 -0.2910
  721MOL0     C95077  -0.699   2.998   6.240 -0.1696 -0.3878 -0.5949
  721MOL0     C95078  -0.813   3.101   6.242  0.7793  0.5403  0.1358
  721MOL0     C95079  -0.952   3.020   6.251 -0.2850 -0.2980 -0.2097
  721MOL0     C95080  -1.076   3.109   6.243  0.7670  0.1335  0.4630
  721MOL0     C95081  -1.094   3.200   6.362 -0.2044  0.1654 -0.7033
  721MOL0     C95082  -1.239   3.211   6.393 -0.5228 -0.1607 -0.5179
  721MOL0     C95083  -1.319   3.305   6.300 -0.6627  0.1321 -0.3576
  721MOL0    Cl95084  -1.275   3.483   6.305 -0.1883 -0.0910 -0.2648
  721MOL0     C95085  -0.261   3.082   6.255 -0.4749  0.3000  0.3340
  721MOL0     C95086  -0.129   3.085   6.230  0.5235 -0.4209 -0.5195
  721MOL0     O95087   0.126   3.145   6.091 -0.4980 -0.9029 -0.0491
  721MOL0     C95088   0.399   3.067   6.080  0.8815 -0.2259 -0.7819
  721MOL0     C95089   0.522   3.020   6.051 -1.0289  0.0175 -0.2317
  721MOL0     N95090   1.248   3.188   6.085 -0.1027 -0.3726  0.3771
  721MOL0     N95091   1.328   3.284   6.111  0.5571 -0.1961 -0.5202
  721MOL0     C95092   2.175   3.854   6.802 -0.1396  0.1200  0.8205
  721MOL0     C95093   2.317   3.859   6.791  0.6390  0.7386 -0.4661
  721MOL0     C95094   2.757   3.691   6.786  0.5152  0.6417 -0.1654
  721MOL0     C95095   2.808   3.792   6.866 -0.9284 -0.4633  0.1038
  721MOL0     C95096   2.937   3.835   6.856  0.4041 -0.1691 -0.3553
  721MOL0     C95097   3.025   3.748   6.780  0.6032  0.7440 -0.0540
  721MOL0     O95098   3.160   3.764   6.760  0.6851  0.2304  0.2486
  721MOL0     C95099   3.220   3.892   6.782 -0.2404 -0.1662  0.2006
  721MOL0     C95100   3.177   3.995   6.683  0.4052  0.6850 -0.6748
  721MOL0     C95101   3.185   3.943   6.541 -0.3319 -0.1390  0.8664
  721MOL0     C95102   3.111   4.034   6.450  0.1406  0.0671  0.3209
  721MOL0     C95103   3.145   4.009   6.308  0.0101  0.4699  0.1044
  721MOL0     C95104   3.188   3.980   6.195 -0.1396 -0.2019 -0.7760
  721MOL0     C95105   2.978   3.633   6.721  0.6282  0.6693 -0.1678
  721MOL0     C95106   2.844   3.595   6.729  0.8621  0.0404 -0.2068
  721MOL0     H95107   2.388   3.565   6.920 -1.3244 -1.5811 -1.4725
  721MOL0     H95108   2.137   3.552   6.937 -2.1603  1.3926 -0.9859
  721MOL0     H95109   1.901   3.565   6.916 -0.7700  0.4997 -0.7677
  721MOL0     H95110   1.944   3.589   6.744  0.6601  0.9799 -1.2478
  721MOL0     H95111   1.773   3.721   6.696  2.3858 -2.1913 -1.9731
  721MOL0     H95112   1.706   3.723   6.864 -1.3174 -0.5131 -1.5436
  721MOL0     H95113   1.714   3.462   6.849 -0.1476  1.4963  2.7286
  721MOL0     H95114   1.749   3.485   6.679 -0.4699 -0.7715  0.5747
  721MOL0     H95115   1.486   3.525   6.826  1.2642 -2.5582  1.2144
  721MOL0     H95116   1.518   3.626   6.682 -3.3873 -0.5005 -1.3117
  721MOL0     H95117   1.370   3.441   6.638  0.6684 -0.1186 -1.6088
  721MOL0     H95118   1.487   3.328   6.704 -0.7973 -0.4007 -0.2384
  721MOL0     H95119   1.626   3.363   6.510  0.2737  0.2557 -0.2068
  721MOL0     H95120   1.564   3.522   6.467 -0.6921 -0.9430 -2.7037
  721MOL0     H95121   1.372   3.294   6.459 -0.4619  1.3607  2.5902
  721MOL0     H95122   1.351   3.446   6.380  1.8007 -0.2888 -2.4338
  721MOL0     H95123   1.583   3.270   6.310  1.1279  0.2096 -1.7844
  721MOL0     H95124   1.507   3.408   6.221 -3.3600 -0.0342 -1.4527
  721MOL0     H95125   1.389   3.052   6.348  2.9257  0.4314 -1.0647
  721MOL0     H95126   1.170   2.900   6.255 -1.8695 -2.5518 -0.5027
  721MOL0     H95127   1.197   2.894   6.076 -0.6633 -0.4525 -0.5983
  721MOL0     H95128   1.023   3.078   6.065  3.3000  1.9690  2.2754
  721MOL0     H95129   0.982   3.043   6.234  2.1465  3.0801  1.0740
  721MOL0     H95130   0.965   2.822   6.020  0.1709  1.3223 -0.4031
  721MOL0     H95131   0.939   2.809   6.195  0.2748 -0.6190 -0.7023
  721MOL0     H95132   0.811   3.007   6.008  1.3958 -0.8670 -0.7786
  721MOL0     H95133   0.776   3.020   6.174 -2.4514  0.9176 -0.1182
  721MOL0     H95134   0.493   2.710   6.170  0.3151 -1.0083 -1.2056
  721MOL0     H95135   0.262   2.783   6.191 -0.3231 -2.0402 -0.5624
  721MOL0     H95136  -0.064   2.743   6.260 -0.8446 -0.7261  0.9216
  721MOL0     H95137  -0.309   2.748   6.276 -1.8912  0.1821 -1.2601
  721MOL0     H95138  -0.522   3.114   6.166  0.5825 -0.7257  0.1047
  721MOL0     H95139  -0.566   3.125   6.338 -2.0923 -2.1230  0.3835
  721MOL0     H95140  -0.716   2.946   6.335 -2.8259  2.2882  0.5661
  721MOL0     H95141  -0.711   2.928   6.157 -3.7258  0.9305 -1.3798
  721MOL0     H95142  -0.808   3.171   6.158 -1.3869 -0.3539 -0.8084
  721MOL0     H95143  -0.805   3.155   6.337  0.7542  1.0955 -0.1739
  721MOL0     H95144  -0.958   2.941   6.176  0.6754 -2.5441  1.9582
  721MOL0     H95145  -0.944   2.970   6.348  1.5076  0.8285  0.2793
  721MOL0     H95146  -1.159   3.038   6.231 -2.3567  3.9166 -3.7693
  721MOL0     H95147  -1.080   3.167   6.151 -0.2840 -0.0005  0.4105
  721MOL0     H95148  -1.064   3.304   6.344 -2.0618  0.5016 -2.1997
  721MOL0     H95149  -1.036   3.164   6.447 -0.1149 -0.8635 -1.1837
  721MOL0     H95150  -1.293   3.117   6.401 -3.5968  1.4442 -0.7270
  721MOL0     H95151  -1.251   3.251   6.494  2.4380  0.1258 -0.1948
  721MOL0     H95152  -1.424   3.303   6.333 -0.3056 -0.4949  0.7884
  721MOL0     H95153  -1.301   3.273   6.197  0.1871  0.9152 -0.4705
  721MOL0     H95154  -0.313   3.178   6.254 -0.3818  0.4266 -2.4749
  721MOL0     H95155  -0.083   3.181   6.211  0.4786  0.2745  2.4689
  721MOL0     H95156   0.389   3.174   6.066  0.3088  0.0833  1.6381
  721MOL0     H95157   0.601   3.086   6.015  0.4597 -1.1779  0.7076
  721MOL0     H95158   2.114   3.932   6.757  1.7795  1.7046  0.8441
  721MOL0     H95159   2.363   3.938   6.733 -1.3234  0.0904 -3.1022
  721MOL0     H95160   2.739   3.857   6.918  0.6719  2.3852 -1.1432
  721MOL0     H95161   2.962   3.924   6.913 -2.2899  0.9170 -0.7310
  721MOL0     H95162   3.327   3.873   6.769 -0.0666  0.5976  0.4635
  721MOL0     H95163   3.216   3.934   6.883  0.8918  1.2451 -0.3140
  721MOL0     H95164   3.077   4.036   6.696  0.4715  0.5724  0.2778
  721MOL0     H95165   3.245   4.081   6.685 -0.0358  1.0903 -1.9678
  721MOL0     H95166   3.140   3.843   6.535  0.3024 -0.3525 -2.1219
  721MOL0     H95167   3.286   3.924   6.504  0.1603  2.0117  0.9560
  721MOL0     H95168   3.004   4.016   6.463 -0.0480  2.4435  2.9514
  721MOL0     H95169   3.136   4.138   6.469  1.0819 -0.3406  1.4580
  721MOL0     H95170   3.207   3.931   6.101  0.3102 -1.6067  0.0247
  721MOL0     H95171   3.046   3.566   6.670  1.0615 -0.3828  1.6979
  721MOL0     H95172   2.802   3.514   6.670 -1.1336 -1.0301  2.4922
  722MOL0     O95173   2.098  11.149   6.975 -0.2359  0.4839  0.4112
  722MOL0     C95174   2.138  11.217   7.068  0.3734 -0.0443  0.0848
  722MOL0     O95175   2.096  11.345   7.096  0.1313  0.0336  0.2413
  722MOL0     C95176   2.008  11.419   7.017 -0.2310  0.1089 -0.2448
  722MOL0     C95177   1.934  11.510   7.090  0.3478 -0.3532  0.3641
  722MOL0     C95178   1.827  11.582   7.026  0.7314 -0.0152 -0.4684
  722MOL0     C95179   1.797  11.557   6.892 -0.0520  0.0352  1.2938
  722MOL0     O95180   1.698  11.619   6.819 -0.4822 -0.2289  0.0362
  722MOL0     C95181   1.592  11.687   6.882 -0.1106 -0.5303 -0.8031
  722MOL0     C95182   1.500  11.741   6.773  0.3134  0.9010  0.4093
  722MOL0     C95183   1.432  11.634   6.689  1.0070  0.7596 -0.0811
  722MOL0     C95184   1.291  11.590   6.751  0.2365  0.1985 -0.4386
  722MOL0     C95185   1.230  11.458   6.697 -0.1114 -0.3354  0.9100
  722MOL0     C95186   1.081  11.447   6.740  0.4826 -0.3485  0.2559
  722MOL0     C95187   1.056  11.425   6.886 -0.0310  0.2991  0.3542
  722MOL0     C95188   0.906  11.445   6.915 -0.4554 -0.6412  0.4533
  722MOL0     N95189   0.862  11.374   7.037 -0.9465  0.1477 -0.1372
  722MOL0     C95190   0.915  11.380   7.160 -0.0780 -0.4053 -0.1667
  722MOL0     C95191   0.831  11.301   7.230 -0.2484 -0.8388  0.1088
  722MOL0     C95192   0.873  11.257   7.371 -0.6186 -0.1160 -0.1646
  722MOL0     C95193   0.885  11.357   7.478 -0.1607 -0.4023 -0.3042
  722MOL0     C95194   0.759  11.433   7.515 -0.3861  0.4079 -0.0912
  722MOL0     C95195   0.638  11.344   7.526  0.3161  0.3780  0.0170
  722MOL0     O95196   0.537  11.442   7.545  0.3775  0.3405 -0.0031
  722MOL0     C95197   0.415  11.407   7.608 -0.0458  0.0995 -0.1223
  722MOL0     C95198   0.341  11.513   7.665  0.5484 -0.2831  0.3637
  722MOL0     C95199   0.224  11.486   7.741 -0.4990 -0.9627 -0.7885
  722MOL0     C95200   0.171  11.357   7.753 -0.4010  0.2610  0.4057
  722MOL0     C95201   0.053  11.349   7.832  0.7340  0.5616  0.6283
  722MOL0     O95202  -0.039  11.455   7.840  0.0617  0.1136  0.2157
  722MOL0     C95203  -0.148  11.446   7.927 -0.4165  0.0951 -0.5449
  722MOL0     C95204  -0.328  11.530   7.871  0.6400 -1.0046 -0.0264
  722MOL0     C95205  -0.503  11.509   7.994  0.0402 -0.1228  0.4340
  722MOL0     C95206  -0.484  11.397   8.178  1.0643 -0.7339 -0.1783
  722MOL0     O95207  -0.602  11.365   8.251  1.3903 -1.1566 -0.2409
  722MOL0     C95208  -0.593  11.236   8.321  0.1239  0.4648  0.2887
  722MOL0     C95209  -0.692  11.226   8.435 -0.2406 -0.1736 -0.1032
  722MOL0     C95210  -0.839  11.233   8.383  0.4295  0.0180  0.2237
  722MOL0     C95211  -0.887  11.112   8.302  0.0124  1.3037 -0.2724
  722MOL0     C95212  -1.042  11.095   8.275 -0.3691 -0.0072 -0.7470
  722MOL0     C95213  -1.120  11.071   8.409  0.1810 -0.3359  0.7542
  722MOL0     C95214  -1.261  11.063   8.374  0.1603 -0.0784  1.2715
  722MOL0     C95215  -1.345  11.025   8.498 -0.4597 -0.0288 -0.3779
  722MOL0    Cl95216  -1.523  11.044   8.463 -0.1841  0.1013 -0.0880
  722MOL0     C95217  -0.300  11.312   8.232 -0.7296  0.5360  0.6496
  722MOL0     C95218  -0.133  11.337   8.106 -0.4257 -1.3818 -1.2667
  722MOL0     O95219   0.031  11.237   7.874 -0.2825 -0.2498  0.6512
  722MOL0     C95220   0.249  11.251   7.703  0.0361 -0.5317  0.7916
  722MOL0     C95221   0.363  11.270   7.623  0.0872 -0.3887 -0.5006
  722MOL0     N95222   0.741  11.239   7.155  0.2409 -0.4042 -0.3073
  722MOL0     N95223   0.748  11.300   7.043  0.7907 -1.0102  0.6003
  722MOL0     C95224   1.867  11.460   6.810 -0.2222  0.2086 -1.6380
  722MOL0     C95225   1.976  11.393   6.884  0.4824 -0.3836  0.0225
  722MOL0     C95226   2.247  11.163   7.158  0.0933 -0.6675  1.0285
  722MOL0     C95227   2.332  11.245   7.236 -0.5273 -0.4250 -0.6021
  722MOL0     C95228   2.438  11.190   7.313 -0.5289  0.5937  0.2585
  722MOL0     C95229   2.456  11.054   7.322 -0.4686  0.5101 -0.0460
  722MOL0     O95230   2.556  11.001   7.396  0.2517  0.4800 -0.2667
  722MOL0     C95231   2.567  10.852   7.424  0.0329 -0.4069  1.0087
  722MOL0     C95232   2.680  10.824   7.525 -0.9018  0.0453 -1.5147
  722MOL0     C95233   2.675  10.941   7.626  1.2765 -0.7761 -0.2542
  722MOL0     C95234   2.760  10.918   7.750 -0.5995  0.5846 -0.1013
  722MOL0     C95235   2.718  10.809   7.834 -0.3252  0.1229 -0.1488
  722MOL0     C95236   2.686  10.721   7.903  1.1842 -0.5264 -0.5519
  722MOL0     C95237   2.388  10.974   7.227 -0.0757 -0.4065  0.4739
  722MOL0     C95238   2.288  11.036   7.143 -0.0697  0.4883  0.0066
  722MOL0     H95239   1.943  11.531   7.196  0.3158  4.3655 -0.3622
  722MOL0     H95240   1.783  11.662   7.083  0.4138 -0.4642 -0.0790
  722MOL0     H95241   1.630  11.773   6.938  0.2313 -1.1774 -0.0290
  722MOL0     H95242   1.533  11.635   6.958 -0.3738  1.2706  0.2695
  722MOL0     H95243   1.559  11.808   6.709 -0.3145  2.0960  1.0491
  722MOL0     H95244   1.426  11.803   6.825 -0.6917 -2.0830  2.8709
  722MOL0     H95245   1.505  11.554   6.677 -0.7579 -0.7889 -1.0703
  722MOL0     H95246   1.409  11.673   6.589  1.0005  0.3186 -0.2516
  722MOL0     H95247   1.293  11.571   6.859 -0.8093  0.3567 -0.3852
  722MOL0     H95248   1.222  11.675   6.747 -1.4159 -1.0854 -0.4773
  722MOL0     H95249   1.294  11.376   6.731  0.0383 -0.5364  0.1633
  722MOL0     H95250   1.242  11.454   6.589 -0.6396 -3.4805  0.8682
  722MOL0     H95251   1.026  11.368   6.688  0.8080 -1.2818  1.2744
  722MOL0     H95252   1.039  11.539   6.700 -0.4506 -1.7879 -2.2890
  722MOL0     H95253   1.091  11.326   6.917 -2.2583 -1.1973 -1.6224
  722MOL0     H95254   1.124  11.488   6.945  3.7795 -2.0608 -1.1594
  722MOL0     H95255   0.849  11.414   6.827  0.6741 -2.5973  0.3543
  722MOL0     H95256   0.888  11.553   6.921  0.4839 -0.4579  0.0744
  722MOL0     H95257   0.999  11.442   7.188 -0.4273  0.1831 -0.3931
  722MOL0     H95258   0.970  11.205   7.367  0.0103  1.0429 -0.7133
  722MOL0     H95259   0.801  11.183   7.406  0.1548 -1.1535 -0.7123
  722MOL0     H95260   0.954  11.435   7.446 -0.7388  0.2516  0.0054
  722MOL0     H95261   0.932  11.303   7.560  0.0040  1.5764  0.9646
  722MOL0     H95262   0.765  11.481   7.613  0.1110 -0.6994  0.4437
  722MOL0     H95263   0.742  11.499   7.430  0.5749 -0.5079 -1.0221
  722MOL0     H95264   0.652  11.271   7.606  0.2872 -1.3135 -1.4663
  722MOL0     H95265   0.630  11.287   7.433 -0.5522 -1.0345  0.9270
  722MOL0     H95266   0.381  11.614   7.664 -1.8681  0.7917  2.4047
  722MOL0     H95267   0.188  11.571   7.797  2.1087 -0.6460  0.5593
  722MOL0     H95268  -0.321  11.571   7.771  3.4664  1.4204  1.0452
  722MOL0     H95269  -0.598  11.551   7.962  0.2374  1.1227  1.4000
  722MOL0     H95270  -0.492  11.216   8.357  0.5614 -0.0232 -1.1681
  722MOL0     H95271  -0.619  11.159   8.248  2.0416  2.0009 -2.1449
  722MOL0     H95272  -0.669  11.311   8.499 -1.3299  0.0485  0.0153
  722MOL0     H95273  -0.690  11.125   8.478 -1.3677 -1.3773 -2.6155
  722MOL0     H95274  -0.843  11.324   8.321  1.9690 -0.9582 -1.4256
  722MOL0     H95275  -0.917  11.241   8.459 -0.8461 -2.5089 -0.7093
  722MOL0     H95276  -0.835  11.116   8.206 -0.6268  2.4961 -0.5856
  722MOL0     H95277  -0.865  11.024   8.363 -1.7357  0.5097 -0.7192
  722MOL0     H95278  -1.047  11.008   8.210  0.1984 -0.4057 -0.2653
  722MOL0     H95279  -1.085  11.181   8.222 -0.9216 -0.6943 -1.4204
  722MOL0     H95280  -1.102  11.151   8.482 -0.2381 -1.7635  2.5149
  722MOL0     H95281  -1.094  10.976   8.457 -0.1511 -0.9507 -0.2580
  722MOL0     H95282  -1.306  11.151   8.325 -0.2312 -0.8365  0.2373
  722MOL0     H95283  -1.275  10.985   8.299  1.2366  1.0816 -0.1939
  722MOL0     H95284  -1.299  11.084   8.578  2.2222 -0.0317 -1.7782
  722MOL0     H95285  -1.325  10.923   8.531 -1.0381 -0.5402 -1.5430
  722MOL0     H95286  -0.284  11.261   8.327  2.2931  1.9299  1.0185
  722MOL0     H95287  -0.040  11.291   8.139 -1.1029 -1.5866  0.4581
  722MOL0     H95288   0.212  11.149   7.713 -0.2958 -0.6685 -1.2838
  722MOL0     H95289   0.417  11.185   7.585  0.1051  0.1847 -1.8246
  722MOL0     H95290   1.843  11.438   6.706 -1.3045 -0.9248 -1.1838
  722MOL0     H95291   2.036  11.320   6.829  0.5586 -2.0535  2.1990
  722MOL0     H95292   2.317  11.352   7.227  1.7507 -0.1525 -2.0543
  722MOL0     H95293   2.511  11.262   7.347 -0.4694  2.0603 -2.6724
  722MOL0     H95294   2.568  10.793   7.332 -2.9691 -2.0275  1.8955
  722MOL0     H95295   2.479  10.825   7.483  0.8584 -0.5420  2.2168
  722MOL0     H95296   2.660  10.734   7.584  1.9133  1.0857  1.3124
  722MOL0     H95297   2.777  10.822   7.473 -0.5516  1.4179 -0.9548
  722MOL0     H95298   2.577  10.978   7.658  2.0471  3.8383 -2.4093
  722MOL0     H95299   2.703  11.035   7.578 -1.2899 -1.1699 -2.7609
  722MOL0     H95300   2.864  10.895   7.725 -1.0623 -2.1143  0.1633
  722MOL0     H95301   2.752  11.006   7.814  1.5445 -0.4385  1.7320
  722MOL0     H95302   2.676  10.638   7.969  1.0984 -0.0176  0.0837
  722MOL0     H95303   2.399  10.867   7.217  1.1718 -0.1388 -1.5366
  722MOL0     H95304   2.225  10.970   7.084 -2.2786 -0.8652  3.5466
  723MOL0     O95305   0.807   8.563   8.507  0.1616 -0.2991  0.2676
  723MOL0     C95306   0.816   8.608   8.391 -0.1833 -0.0208  0.2084
  723MOL0     O95307   0.727   8.685   8.330  0.0507 -0.2392  0.3003
  723MOL0     C95308   0.605   8.692   8.373 -0.1236  0.5087  0.3910
  723MOL0     C95309   0.545   8.821   8.373 -0.2803 -0.6026 -0.5325
  723MOL0     C95310   0.416   8.836   8.433 -1.0200 -0.7654  0.1158
  723MOL0     C95311   0.338   8.720   8.459 -0.4521  0.4907 -0.1478
  723MOL0     O95312   0.206   8.735   8.479  0.7932 -0.3182  0.7702
  723MOL0     C95313   0.145   8.734   8.344  0.1581  0.0012 -0.0054
  723MOL0     C95314  -0.008   8.744   8.348  0.2588  0.0025  0.2029
  723MOL0     C95315  -0.055   8.878   8.418 -0.4351  0.1208 -0.6673
  723MOL0     C95316  -0.207   8.883   8.417 -0.1236 -0.4249  0.1109
  723MOL0     C95317  -0.261   8.879   8.276 -0.6152  0.3007 -0.3763
  723MOL0     C95318  -0.404   8.929   8.265 -0.4319  0.0708  0.3214
  723MOL0     C95319  -0.467   8.924   8.127 -0.3464 -0.4048  1.1856
  723MOL0     C95320  -0.578   9.020   8.099  0.1618 -0.0384  0.3563
  723MOL0     N95321  -0.699   8.977   8.177 -0.4709 -0.1552 -0.0808
  723MOL0     C95322  -0.762   8.852   8.182 -0.0470 -0.7970 -0.5804
  723MOL0     C95323  -0.845   8.859   8.285 -0.2324 -0.7931  0.3397
  723MOL0     C95324  -0.945   8.747   8.319 -0.0864  0.3960  0.4670
  723MOL0     C95325  -1.083   8.788   8.272  0.1865  0.2037  0.9932
  723MOL0     C95326  -1.183   8.673   8.295 -0.6168 -0.1330  0.3607
  723MOL0     C95327  -1.209   8.585   8.172  0.5120 -0.1187  0.2320
  723MOL0     O95328  -1.316   8.498   8.208  2.0506 -0.1152  0.0631
  723MOL0     C95329  -1.436   8.540   8.164  0.6027 -0.0084  0.8327
  723MOL0     C95330  -1.541   8.445   8.186 -0.5914 -0.4024 -0.2860
  723MOL0     C95331  -1.664   8.449   8.123  0.1300  0.5980 -0.7608
  723MOL0     C95332  -1.704   8.568   8.061 -0.9555 -0.2163 -0.1413
  723MOL0     C95333  -1.840   8.579   7.996 -1.0119 -0.2491  0.0834
  723MOL0     O95334  -1.888   8.702   7.965  0.3802 -0.8304 -0.1652
  723MOL0     C95335  -1.989   8.723   7.868 -0.6050 -0.0446 -0.5109
  723MOL0     C95336  -2.040   8.857   7.863 -0.9756 -0.2729  0.0164
  723MOL0     C95337  -2.142   8.884   7.769 -0.4490  0.0654 -0.3027
  723MOL0     C95338  -2.190   8.791   7.680  0.0218 -0.1989 -0.0247
  723MOL0     O95339  -2.286   8.847   7.603  0.0297  0.4103  0.4586
  723MOL0     C95340  -2.318   8.789   7.474 -1.1163  0.2509 -0.6299
  723MOL0     C95341  -2.422   8.872   7.393 -0.2837 -0.6796  0.1534
  723MOL0     C95342  -2.442   8.825   7.243  0.8310 -0.0975  0.2484
  723MOL0     C95343  -2.490   8.670   7.230 -0.3918 -0.1557 -0.2158
  723MOL0     C95344  -2.519   8.612   7.082 -0.8823  0.1074  0.4671
  723MOL0     C95345  -2.634   8.683   7.019 -0.7290 -1.4977  0.6342
  723MOL0     C95346  -2.768   8.665   7.097 -0.3104  0.1658  0.4937
  723MOL0     C95347  -2.793   8.520   7.125 -0.3390 -1.0564 -1.2466
  723MOL0    Cl95348  -2.802   8.419   6.986  0.3789  0.0986 -0.0807
  723MOL0     C95349  -2.143   8.659   7.683 -0.0321 -0.2727 -0.2791
  723MOL0     C95350  -2.040   8.626   7.776  0.3631 -0.1977 -0.7487
  723MOL0     O95351  -1.910   8.480   8.008 -0.5748 -0.0622 -0.0825
  723MOL0     C95352  -1.607   8.665   8.047  0.1565 -1.4832 -0.0886
  723MOL0     C95353  -1.478   8.655   8.094 -0.2299  0.9235  0.3487
  723MOL0     N95354  -0.837   8.983   8.344 -0.0906  1.1860 -0.2969
  723MOL0     N95355  -0.737   9.044   8.284  0.2556  0.0630 -0.4931
  723MOL0     C95356   0.397   8.587   8.445  0.4313 -1.4302  0.3054
  723MOL0     C95357   0.532   8.577   8.417  0.2230  0.3877  0.7449
  723MOL0     C95358   0.946   8.590   8.321  0.1241 -0.4146  0.3076
  723MOL0     C95359   0.950   8.572   8.189  0.0059 -0.4423  0.8865
  723MOL0     C95360   1.063   8.549   8.118  0.5426  0.0165  0.3466
  723MOL0     C95361   1.184   8.560   8.187  0.0588 -0.3369  0.5182
  723MOL0     O95362   1.304   8.555   8.107  0.1299  0.4634  0.3128
  723MOL0     C95363   1.431   8.517   8.171  0.1635  0.3012 -0.2873
  723MOL0     C95364   1.538   8.468   8.081  0.4307  0.3613 -0.4571
  723MOL0     C95365   1.649   8.406   8.167 -0.1913  0.2562 -0.0329
  723MOL0     C95366   1.723   8.511   8.259  0.5749 -0.1768 -0.1290
  723MOL0     C95367   1.820   8.595   8.189  0.6049  0.7848  0.4920
  723MOL0     C95368   1.889   8.671   8.120  0.4661 -0.0693  0.5842
  723MOL0     C95369   1.189   8.575   8.326 -0.2025  0.4464  0.6472
  723MOL0     C95370   1.062   8.585   8.389 -0.8303 -0.4508 -0.1219
  723MOL0     H95371   0.586   8.917   8.346  0.9439 -0.4208  1.6752
  723MOL0     H95372   0.364   8.931   8.440  0.2865 -0.0862  0.8706
  723MOL0     H95373   0.159   8.643   8.286 -3.2647 -0.1627 -0.7246
  723MOL0     H95374   0.184   8.822   8.292  3.9415 -2.7044 -2.2749
  723MOL0     H95375  -0.045   8.664   8.412  2.1349 -0.1289  1.2013
  723MOL0     H95376  -0.058   8.724   8.253 -1.8077  0.5400  1.1157
  723MOL0     H95377  -0.018   8.971   8.373 -2.2460  2.0142  1.4667
  723MOL0     H95378  -0.034   8.888   8.525 -5.9798  0.2757  0.7496
  723MOL0     H95379  -0.241   8.798   8.477  1.4489 -0.2395  1.3646
  723MOL0     H95380  -0.242   8.979   8.458 -3.2689 -2.3686  2.4216
  723MOL0     H95381  -0.262   8.779   8.232 -0.8445  0.7682 -1.4601
  723MOL0     H95382  -0.193   8.939   8.215  1.2317  0.8654  2.0990
  723MOL0     H95383  -0.410   9.031   8.306  1.3097 -0.5856  2.3738
  723MOL0     H95384  -0.458   8.864   8.334 -0.6248  0.3046  0.3922
  723MOL0     H95385  -0.387   8.961   8.061 -0.4170  0.7832  1.7468
  723MOL0     H95386  -0.484   8.822   8.091  0.5193  0.3570 -1.6032
  723MOL0     H95387  -0.607   9.016   7.994 -1.9437 -3.5799  0.8985
  723MOL0     H95388  -0.535   9.118   8.122  0.9350 -0.7198  1.9634
  723MOL0     H95389  -0.754   8.775   8.106 -3.5156 -2.6397  0.6843
  723MOL0     H95390  -0.951   8.724   8.426 -2.2650  3.0001  0.9891
  723MOL0     H95391  -0.910   8.655   8.271  0.9363 -0.2404  2.3428
  723MOL0     H95392  -1.081   8.816   8.166  0.6938  1.1441  1.2408
  723MOL0     H95393  -1.121   8.870   8.333 -3.1870 -1.8472  1.9572
  723MOL0     H95394  -1.146   8.611   8.377 -2.6360 -2.1505 -0.1371
  723MOL0     H95395  -1.271   8.718   8.342 -1.4402 -2.0197  0.6876
  723MOL0     H95396  -1.125   8.521   8.142  0.8279  0.5338 -0.2854
  723MOL0     H95397  -1.234   8.652   8.089  0.1913  0.3292  0.6829
  723MOL0     H95398  -1.538   8.367   8.262 -2.6252 -0.0184  0.2560
  723MOL0     H95399  -1.738   8.374   8.151  0.2191  0.1506 -1.6855
  723MOL0     H95400  -1.997   8.940   7.919  3.5195 -2.1094 -0.3012
  723MOL0     H95401  -2.175   8.987   7.774  0.4541  0.3881 -0.6720
  723MOL0     H95402  -2.365   8.693   7.495  0.7277 -0.6413 -0.4206
  723MOL0     H95403  -2.226   8.783   7.415 -0.1125 -1.8991  0.9969
  723MOL0     H95404  -2.391   8.977   7.384 -0.7351 -0.4879  0.8234
  723MOL0     H95405  -2.515   8.876   7.449 -2.0453  0.0652 -2.6226
  723MOL0     H95406  -2.358   8.838   7.175  1.6464  0.5395  1.3495
  723MOL0     H95407  -2.522   8.888   7.202  1.5450  0.4859 -0.2744
  723MOL0     H95408  -2.407   8.613   7.272 -1.0569 -0.8743  0.1495
  723MOL0     H95409  -2.569   8.660   7.304  0.2511  1.9505  0.8205
  723MOL0     H95410  -2.525   8.504   7.070 -0.5226  0.0576  0.7259
  723MOL0     H95411  -2.425   8.637   7.032 -1.6622  3.2031  0.3496
  723MOL0     H95412  -2.647   8.656   6.914 -3.1245  2.9796 -0.5029
  723MOL0     H95413  -2.601   8.787   7.021 -2.2417 -0.9884  1.4315
  723MOL0     H95414  -2.771   8.717   7.193  0.4204  0.4889  0.3584
  723MOL0     H95415  -2.845   8.703   7.029 -0.5608  0.1703  0.7807
  723MOL0     H95416  -2.884   8.514   7.186  0.4168  1.5441  0.3279
  723MOL0     H95417  -2.709   8.478   7.181  0.6371  2.3511  0.1097
  723MOL0     H95418  -2.176   8.573   7.626 -0.9364  0.1272 -0.3793
  723MOL0     H95419  -2.005   8.523   7.770 -2.7924 -1.6722  2.5028
  723MOL0     H95420  -1.631   8.758   7.996  1.1218 -1.4571 -0.5276
  723MOL0     H95421  -1.405   8.733   8.073  1.0329 -0.9298 -2.7877
  723MOL0     H95422   0.336   8.498   8.454  0.0046 -1.3324 -1.3985
  723MOL0     H95423   0.581   8.480   8.412 -1.8530 -0.8803  2.9137
  723MOL0     H95424   0.858   8.564   8.132 -0.6608  0.6576  1.7622
  723MOL0     H95425   1.067   8.546   8.010  2.2262  1.2286  0.3209
  723MOL0     H95426   1.412   8.438   8.244 -0.7975 -0.9685 -1.8195
  723MOL0     H95427   1.463   8.611   8.215  1.0493 -0.0243 -0.2161
  723MOL0     H95428   1.498   8.405   8.001 -0.2693  1.3487 -0.9070
  723MOL0     H95429   1.586   8.545   8.019  2.3874 -2.0963 -2.2132
  723MOL0     H95430   1.732   8.363   8.109 -2.2140 -1.6998 -1.6654
  723MOL0     H95431   1.602   8.320   8.215  2.1871 -1.1000  0.0213
  723MOL0     H95432   1.656   8.582   8.309  1.3017  1.0399 -0.8306
  723MOL0     H95433   1.778   8.457   8.337  1.6183  0.6230 -0.2808
  723MOL0     H95434   1.955   8.737   8.069 -2.1807  1.4459 -1.1192
  723MOL0     H95435   1.279   8.567   8.387 -1.3428 -0.9424  2.2411
  723MOL0     H95436   1.055   8.603   8.496 -3.9758  0.7936 -0.4294
  724MOL0     O95437   9.253   0.636   3.615 -0.4686 -0.7974  0.6626
  724MOL0     C95438   9.346   0.635   3.540  0.3522 -0.5259  0.5927
  724MOL0     O95439   9.353   0.724   3.423 -0.3585  0.1581 -0.2093
  724MOL0     C95440   9.266   0.813   3.384  0.4393 -0.0107 -0.1801
  724MOL0     C95441   9.298   0.862   3.257  0.5717 -0.8477 -0.2629
  724MOL0     C95442   9.203   0.936   3.186 -0.0048  1.3292  0.3511
  724MOL0     C95443   9.086   0.973   3.240  1.2341  0.9735 -0.6931
  724MOL0     O95444   8.996   1.036   3.159  0.4057 -0.3466 -0.0474
  724MOL0     C95445   8.891   1.104   3.226 -0.8159  0.3190 -0.4804
  724MOL0     C95446   8.829   1.205   3.136 -0.1150  0.3109  0.2459
  724MOL0     C95447   8.718   1.273   3.229 -0.2238 -0.3271 -0.1253
  724MOL0     C95448   8.651   1.386   3.148 -0.3167 -0.6783  0.7909
  724MOL0     C95449   8.528   1.463   3.220 -0.0699 -0.0302 -0.5983
  724MOL0     C95450   8.448   1.535   3.113 -0.1152 -0.1873  0.8896
  724MOL0     C95451   8.331   1.623   3.172  0.5628 -0.7662 -0.3907
  724MOL0     C95452   8.197   1.541   3.184  0.1305 -0.3439 -0.2927
  724MOL0     N95453   8.069   1.616   3.183 -0.1353 -0.8691  0.5758
  724MOL0     C95454   8.024   1.698   3.079 -0.4288 -0.6663 -0.5571
  724MOL0     C95455   7.919   1.764   3.138  0.8035 -1.0774 -0.0073
  724MOL0     C95456   7.838   1.854   3.046  0.3644  0.5135  0.2010
  724MOL0     C95457   7.700   1.877   3.113  0.5616 -0.2401 -0.6565
  724MOL0     C95458   7.599   1.957   3.039  0.7741  0.1440 -0.0731
  724MOL0     C95459   7.475   1.993   3.118  0.2020  0.5290  1.1858
  724MOL0     O95460   7.409   1.874   3.169 -0.8289 -0.0509  0.8894
  724MOL0     C95461   7.311   1.906   3.251 -0.3136 -0.3117 -0.0081
  724MOL0     C95462   7.272   2.034   3.305  0.3775  0.5467  0.2426
  724MOL0     C95463   7.172   2.039   3.401 -0.6284 -0.6923 -0.4170
  724MOL0     C95464   7.098   1.931   3.450  0.5584  0.2544  0.8248
  724MOL0     C95465   6.989   1.949   3.545  0.2568  0.1591  0.9359
  724MOL0     O95466   6.905   1.840   3.572 -0.4575  0.4471  0.2792
  724MOL0     C95467   6.776   1.866   3.613  0.2123  0.5762 -0.3485
  724MOL0     C95468   6.678   1.813   3.530  1.1813  0.4132 -0.7714
  724MOL0     C95469   6.547   1.798   3.568  0.4446 -0.0296 -0.1159
  724MOL0     C95470   6.501   1.855   3.683  0.1094  0.1860 -0.8594
  724MOL0     O95471   6.370   1.842   3.716  0.1409 -0.5597  0.1187
  724MOL0     C95472   6.311   1.927   3.822  0.0067  0.1510 -0.9501
  724MOL0     C95473   6.173   1.951   3.810  1.8986 -0.0638  0.9004
  724MOL0     C95474   6.093   1.817   3.816  0.5821  0.4186  0.6124
  724MOL0     C95475   5.946   1.848   3.773 -0.6222  0.0565  0.6270
  724MOL0     C95476   5.844   1.738   3.810  0.5275  0.0452 -0.0116
  724MOL0     C95477   5.715   1.752   3.727 -0.1678 -0.3454  0.4461
  724MOL0     C95478   5.620   1.629   3.735 -0.2150 -0.9013  0.1292
  724MOL0     C95479   5.504   1.649   3.632  0.3015  1.1834 -0.7040
  724MOL0    Cl95480   5.428   1.815   3.662 -0.4268 -0.0568 -0.5633
  724MOL0     C95481   6.594   1.920   3.768 -1.1631 -0.3749 -0.6712
  724MOL0     C95482   6.733   1.921   3.739  0.3233 -0.1736 -0.3300
  724MOL0     O95483   7.000   2.057   3.603 -0.3832  1.1563 -0.1273
  724MOL0     C95484   7.132   1.806   3.392 -0.0194 -0.0481 -0.0857
  724MOL0     C95485   7.236   1.792   3.297 -0.2949 -0.0316  0.1171
  724MOL0     N95486   7.900   1.720   3.269  0.1592  0.2736 -0.0360
  724MOL0     N95487   7.993   1.639   3.296  0.0126  0.0657 -0.2704
  724MOL0     C95488   9.047   0.918   3.369  0.0072 -0.5745  1.1095
  724MOL0     C95489   9.143   0.842   3.435  1.1258  0.2292  0.3998
  724MOL0     C95490   9.452   0.532   3.550 -0.4808 -0.1608  0.0994
  724MOL0     C95491   9.554   0.519   3.452 -0.3394 -0.1628 -0.0941
  724MOL0     C95492   9.658   0.426   3.478 -0.2984  0.4281  0.1241
  724MOL0     C95493   9.658   0.339   3.596  0.5963  0.2756  0.6432
  724MOL0     O95494   9.745   0.238   3.620  0.5850  0.0831  0.6897
  724MOL0     C95495   9.880   0.254   3.566  0.0971  0.4399 -0.5032
  724MOL0     C95496   9.951   0.373   3.633 -0.4259  0.4232  0.6118
  724MOL0     C95497   9.964   0.363   3.788  0.2610 -0.2258  0.0013
  724MOL0     C95498  10.027   0.491   3.831  0.4575  0.2515  0.8827
  724MOL0     C95499  10.033   0.492   3.976  0.7058  0.3599  0.3429
  724MOL0     C95500  10.049   0.508   4.092  0.6747 -0.1656 -0.2687
  724MOL0     C95501   9.557   0.352   3.691 -0.0238 -0.7709  0.7473
  724MOL0     C95502   9.453   0.442   3.660  0.3631  0.1000 -0.8268
  724MOL0     H95503   9.392   0.862   3.202 -1.2844  1.7112 -3.8955
  724MOL0     H95504   9.224   0.986   3.092  1.3316 -0.5807 -0.4376
  724MOL0     H95505   8.947   1.154   3.306  0.7440  0.0150 -1.3400
  724MOL0     H95506   8.818   1.030   3.261  0.7208 -2.3841 -2.5781
  724MOL0     H95507   8.786   1.176   3.039 -0.3310  2.4839 -0.3699
  724MOL0     H95508   8.904   1.281   3.109 -0.3779 -0.4411 -3.1111
  724MOL0     H95509   8.764   1.324   3.315  3.4085  1.5040 -2.8555
  724MOL0     H95510   8.645   1.200   3.263  0.9362 -1.4223  0.0963
  724MOL0     H95511   8.735   1.449   3.116 -1.8358  1.3680  0.6149
  724MOL0     H95512   8.617   1.350   3.051  0.8963  0.9311 -0.2907
  724MOL0     H95513   8.553   1.538   3.295 -0.2783 -0.9448  0.4202
  724MOL0     H95514   8.455   1.391   3.258 -0.7733 -1.1940 -3.7914
  724MOL0     H95515   8.418   1.479   3.023 -1.8707  3.6120 -1.1328
  724MOL0     H95516   8.518   1.605   3.066 -0.4832 -0.1451  0.3850
  724MOL0     H95517   8.364   1.669   3.266  0.9120 -0.4647 -0.6605
  724MOL0     H95518   8.331   1.705   3.100  2.2870  0.1832  0.6123
  724MOL0     H95519   8.204   1.489   3.280 -2.1744 -0.9592 -0.3950
  724MOL0     H95520   8.193   1.470   3.100 -2.2743  1.0260 -1.4215
  724MOL0     H95521   8.073   1.715   2.984  0.7009 -1.4831 -0.1394
  724MOL0     H95522   7.823   1.803   2.950 -1.5749  0.8156  0.3079
  724MOL0     H95523   7.884   1.950   3.023 -1.8938  1.3227 -1.2519
  724MOL0     H95524   7.728   1.933   3.203  0.6638 -1.0093 -0.1973
  724MOL0     H95525   7.653   1.782   3.142 -0.3781  0.9814  2.2681
  724MOL0     H95526   7.656   2.039   2.995  1.6773  1.0289  2.5732
  724MOL0     H95527   7.560   1.887   2.964  1.5403 -0.0872 -0.2704
  724MOL0     H95528   7.405   2.044   3.051 -1.0453  0.4613  2.3922
  724MOL0     H95529   7.511   2.052   3.203  3.2667  0.1109  0.3122
  724MOL0     H95530   7.326   2.126   3.286  1.5227 -0.2199 -0.3288
  724MOL0     H95531   7.150   2.139   3.438  1.1108 -0.6692  0.6250
  724MOL0     H95532   6.705   1.749   3.447 -1.8492 -1.4875 -0.4674
  724MOL0     H95533   6.475   1.738   3.514  0.4807  0.1950 -0.4164
  724MOL0     H95534   6.350   2.029   3.825 -0.2884  0.2619 -0.8384
  724MOL0     H95535   6.331   1.885   3.920  0.6835 -0.3483 -1.2933
  724MOL0     H95536   6.143   2.001   3.717  0.2077 -4.3200 -1.1397
  724MOL0     H95537   6.132   2.014   3.889  2.7713  0.2244  1.1380
  724MOL0     H95538   6.090   1.781   3.919  0.6178  1.0912  0.8522
  724MOL0     H95539   6.138   1.749   3.744  2.8186  1.2987  1.1024
  724MOL0     H95540   5.907   1.942   3.813 -0.4386 -0.4463  2.0080
  724MOL0     H95541   5.964   1.864   3.666  2.3094  1.3512  1.2059
  724MOL0     H95542   5.822   1.744   3.917 -1.8410 -0.5030 -0.4207
  724MOL0     H95543   5.881   1.638   3.788 -2.0174 -1.3815  1.7911
  724MOL0     H95544   5.755   1.770   3.627 -0.7383  0.7357  0.4028
  724MOL0     H95545   5.669   1.848   3.750 -0.7608 -0.3920 -0.4923
  724MOL0     H95546   5.668   1.531   3.724  0.9158 -0.2990 -0.5001
  724MOL0     H95547   5.580   1.627   3.836 -1.3724 -2.8666 -0.3102
  724MOL0     H95548   5.425   1.574   3.643  1.5897  0.0448  1.6694
  724MOL0     H95549   5.539   1.649   3.529  1.6806 -0.6891 -0.2860
  724MOL0     H95550   6.563   1.968   3.861  0.0487 -0.6910 -0.0815
  724MOL0     H95551   6.808   1.965   3.804 -0.2084  1.2248 -0.6268
  724MOL0     H95552   7.073   1.720   3.422 -0.3870  0.0089 -0.6215
  724MOL0     H95553   7.264   1.689   3.277 -1.0979 -0.4199  0.9054
  724MOL0     H95554   8.954   0.949   3.417  0.4736  0.9701  1.0644
  724MOL0     H95555   9.108   0.795   3.526 -0.1145  0.7208  0.2006
  724MOL0     H95556   9.555   0.581   3.362 -1.9069  1.3692  0.8812
  724MOL0     H95557   9.729   0.412   3.397  0.1988 -2.7023  0.9696
  724MOL0     H95558   9.874   0.275   3.459  0.2545  1.6431 -0.2989
  724MOL0     H95559   9.938   0.163   3.584 -1.1581  0.0018  1.6745
  724MOL0     H95560  10.046   0.394   3.584 -1.5035  0.4222 -1.6081
  724MOL0     H95561   9.886   0.460   3.623 -0.3780  0.2211 -1.8418
  724MOL0     H95562  10.030   0.278   3.807  1.2547 -0.0730 -2.4413
  724MOL0     H95563   9.860   0.355   3.821 -0.5972  0.5722 -2.3144
  724MOL0     H95564  10.129   0.486   3.792  0.1193  0.4662 -0.0756
  724MOL0     H95565   9.976   0.582   3.796  1.2728  1.3497  2.4022
  724MOL0     H95566  10.074   0.527   4.195  2.2255  0.3724 -0.7258
  724MOL0     H95567   9.551   0.276   3.768  3.9154  0.0911  2.1443
  724MOL0     H95568   9.367   0.442   3.726  1.7324 -2.9292  1.1435
  725MOL0     O95569   1.348   2.074   9.330 -0.1390 -0.1043 -0.2915
  725MOL0     C95570   1.470   2.062   9.326 -0.2539 -0.7746  0.4784
  725MOL0     O95571   1.560   2.147   9.276  0.0501  0.6009 -0.0343
  725MOL0     C95572   1.518   2.272   9.250  0.0112 -0.5768 -0.1648
  725MOL0     C95573   1.439   2.304   9.144 -0.2201 -0.3033 -0.2025
  725MOL0     C95574   1.392   2.427   9.126  0.2986  1.0568 -0.0836
  725MOL0     C95575   1.407   2.521   9.227 -0.8988  0.3143 -0.4062
  725MOL0     O95576   1.330   2.635   9.214  0.0555  0.2893 -0.3460
  725MOL0     C95577   1.393   2.722   9.131 -0.7396 -0.2636 -0.1321
  725MOL0     C95578   1.452   2.856   9.200 -0.3600  0.3280  0.4702
  725MOL0     C95579   1.333   2.925   9.290 -0.4350  0.4869  0.6993
  725MOL0     C95580   1.376   3.029   9.379  0.2551 -0.3139 -0.4700
  725MOL0     C95581   1.260   3.063   9.484 -0.2474 -0.5818  0.4279
  725MOL0     C95582   1.126   3.100   9.430 -0.1435 -0.7142 -0.0597
  725MOL0     C95583   1.036   3.125   9.547 -0.2962 -0.2184  0.2998
  725MOL0     C95584   0.888   3.149   9.494  0.1321 -0.1117  0.2660
  725MOL0     N95585   0.811   3.206   9.599 -0.4942  0.1343 -0.4350
  725MOL0     C95586   0.745   3.125   9.691  0.3096 -0.6289 -0.0767
  725MOL0     C95587   0.686   3.216   9.771  0.5549 -0.5180 -0.2011
  725MOL0     C95588   0.614   3.168   9.886  0.1326 -0.1376  0.8939
  725MOL0     C95589   0.476   3.209   9.908  0.2038 -0.2209  0.1285
  725MOL0     C95590   0.458   3.359   9.946  0.0182 -0.4174  0.1751
  725MOL0     C95591   0.309   3.393   9.959  0.2822  0.0521  0.4305
  725MOL0     O95592   0.289   3.536   9.985  0.8084 -0.6636 -0.5675
  725MOL0     C95593   0.182   3.567  10.053  0.2190 -0.1583  0.7540
  725MOL0     C95594   0.062   3.486  10.042 -0.6664 -0.3571  0.2827
  725MOL0     C95595  -0.053   3.519  10.110 -0.4222 -0.5712 -0.3622
  725MOL0     C95596  -0.055   3.642  10.188 -0.0145  0.7917 -0.3074
  725MOL0     C95597  -0.180   3.686  10.259 -0.5485  0.6168 -0.1673
  725MOL0     O95598  -0.294   3.631  10.210 -0.0987  0.3246  0.7356
  725MOL0     C95599  -0.412   3.669  10.262  0.3238  0.1406 -0.9361
  725MOL0     C95600  -0.458   3.801  10.250  0.6711 -0.0939  0.2403
  725MOL0     C95601  -0.585   3.829  10.286 -0.2717  0.6326  0.1471
  725MOL0     C95602  -0.675   3.728  10.328  0.4899  0.1674 -0.0934
  725MOL0     O95603  -0.803   3.770  10.354  0.3254 -0.2120 -0.1244
  725MOL0     C95604  -0.850   3.737  10.489 -1.0557  0.8226  0.0838
  725MOL0     C95605  -0.915   3.859  10.547 -0.2365  0.1642  0.0717
  725MOL0     C95606  -1.013   3.826  10.657  0.9917 -0.1146  0.4577
  725MOL0     C95607  -1.065   3.951  10.725 -0.0456 -0.5111  0.1223
  725MOL0     C95608  -1.178   3.918  10.820 -0.1018 -0.8713  0.2041
  725MOL0     C95609  -1.211   4.036  10.916  0.6114 -0.0602 -0.3985
  725MOL0     C95610  -1.338   4.013  10.998 -1.1824  0.0586 -0.4059
  725MOL0     C95611  -1.383   4.155  11.054  0.2700  0.0167  0.2836
  725MOL0    Cl95612  -1.253   4.238  11.153  0.3100  0.1649 -0.1927
  725MOL0     C95613  -0.630   3.599  10.345  1.2596 -0.4317 -0.5992
  725MOL0     C95614  -0.498   3.570  10.310 -0.2218  0.2827 -0.0068
  725MOL0     O95615  -0.174   3.761  10.347  0.1648  0.5324 -0.3878
  725MOL0     C95616   0.060   3.723  10.188 -0.2969 -0.9954 -0.0708
  725MOL0     C95617   0.174   3.687  10.116 -0.2329  0.0833  0.1507
  725MOL0     N95618   0.712   3.344   9.726 -0.5840  0.2852 -0.2453
  725MOL0     N95619   0.791   3.333   9.630 -0.4040  0.2975  0.9362
  725MOL0     C95620   1.502   2.503   9.336 -0.0695  0.3205 -0.1391
  725MOL0     C95621   1.562   2.370   9.337 -0.4753  0.4776 -0.5251
  725MOL0     C95622   1.519   1.924   9.361 -0.0577 -0.1729 -0.3621
  725MOL0     C95623   1.428   1.825   9.392  0.1888  0.4018 -0.1939
  725MOL0     C95624   1.465   1.698   9.434 -0.4122  0.1849  0.7544
  725MOL0     C95625   1.606   1.670   9.444  0.3258 -0.0513  0.3120
  725MOL0     O95626   1.643   1.541   9.477  0.1852  0.1680  0.1309
  725MOL0     C95627   1.777   1.495   9.453  0.1655 -0.2260  0.2519
  725MOL0     C95628   1.768   1.357   9.419  0.3159  0.0384  0.9071
  725MOL0     C95629   1.906   1.283   9.385 -0.2446  0.0175  0.6492
  725MOL0     C95630   1.918   1.136   9.414  0.3362  0.0738 -0.2528
  725MOL0     C95631   1.891   1.102   9.555 -0.3908  0.3344 -0.0432
  725MOL0     C95632   1.854   1.074   9.671 -0.9065  0.1891 -0.2389
  725MOL0     C95633   1.700   1.773   9.407 -0.0984 -0.7621  0.7863
  725MOL0     C95634   1.659   1.894   9.373  2.1708 -0.6891 -0.6765
  725MOL0     H95635   1.426   2.236   9.061 -0.3019  0.0327 -0.4670
  725MOL0     H95636   1.328   2.459   9.044  2.1445  0.6133 -1.7718
  725MOL0     H95637   1.326   2.761   9.054  0.1155  2.5940  0.4532
  725MOL0     H95638   1.479   2.686   9.073 -1.5695  1.0059 -2.2726
  725MOL0     H95639   1.502   2.917   9.124  1.2149 -2.1499 -0.6392
  725MOL0     H95640   1.528   2.827   9.274 -0.6094 -0.0255  0.5902
  725MOL0     H95641   1.284   2.854   9.357  2.8947 -2.2537  0.5436
  725MOL0     H95642   1.260   2.965   9.220  0.5994  0.9314 -0.1549
  725MOL0     H95643   1.463   2.986   9.431 -0.2338 -2.0913 -1.0574
  725MOL0     H95644   1.409   3.113   9.318 -0.7091  0.2915 -0.1743
  725MOL0     H95645   1.298   3.147   9.543 -1.4416  2.6001 -2.9382
  725MOL0     H95646   1.271   2.970   9.541 -0.2188 -0.7454  0.1565
  725MOL0     H95647   1.080   3.021   9.371 -0.4311  0.8582 -2.0428
  725MOL0     H95648   1.136   3.183   9.360  2.4801 -1.2892 -0.4787
  725MOL0     H95649   1.042   3.050   9.626  0.3405 -0.4272  0.0637
  725MOL0     H95650   1.061   3.219   9.597 -0.8824  0.5687 -0.8356
  725MOL0     H95651   0.837   3.057   9.462 -0.1412 -0.0656  0.5680
  725MOL0     H95652   0.890   3.211   9.404 -0.2309 -0.1711  0.2151
  725MOL0     H95653   0.737   3.017   9.689  0.9734 -0.6696 -1.2812
  725MOL0     H95654   0.672   3.191   9.976  0.8176 -2.7649  1.2079
  725MOL0     H95655   0.608   3.059   9.882 -3.5288 -0.0443 -0.3555
  725MOL0     H95656   0.450   3.155   9.999 -2.2866 -2.9270 -1.9514
  725MOL0     H95657   0.414   3.178   9.822  3.3704 -0.4835 -2.2502
  725MOL0     H95658   0.518   3.383  10.034 -0.7245 -0.4304  0.6939
  725MOL0     H95659   0.501   3.423   9.868 -0.0492 -1.2555 -0.5565
  725MOL0     H95660   0.265   3.337  10.042 -4.5674 -2.2512 -3.1822
  725MOL0     H95661   0.249   3.365   9.872 -2.2969 -1.4008  2.5195
  725MOL0     H95662   0.051   3.400   9.977 -1.6931  0.4402 -0.6299
  725MOL0     H95663  -0.139   3.453  10.113  0.1369 -1.5654 -3.0038
  725MOL0     H95664  -0.405   3.874  10.189 -0.7129  0.7019 -0.0316
  725MOL0     H95665  -0.623   3.926  10.255 -1.9599 -0.2939 -0.8509
  725MOL0     H95666  -0.764   3.709  10.551 -0.6687 -1.0645 -1.2300
  725MOL0     H95667  -0.924   3.657  10.485  1.0575 -1.2653  0.8824
  725MOL0     H95668  -0.970   3.922  10.476  1.6946  3.3924  1.2470
  725MOL0     H95669  -0.839   3.922  10.594 -1.4332 -0.8034  3.6171
  725MOL0     H95670  -0.975   3.749  10.725  3.5686  2.0436  1.6230
  725MOL0     H95671  -1.107   3.785  10.618 -0.3023  1.6432  1.5728
  725MOL0     H95672  -0.981   4.001  10.774 -3.1789  4.0537  1.6066
  725MOL0     H95673  -1.099   4.025  10.652 -0.3097 -0.1828  0.5667
  725MOL0     H95674  -1.147   3.831  10.878 -1.7414 -1.5899  0.0444
  725MOL0     H95675  -1.263   3.894  10.755 -0.1748  2.8481 -1.3274
  725MOL0     H95676  -1.224   4.124  10.852 -0.1284  0.2949  0.2125
  725MOL0     H95677  -1.120   4.068  10.967  0.3430  4.0230 -2.0863
  725MOL0     H95678  -1.410   3.968  10.929  0.6100  0.8434 -2.9333
  725MOL0     H95679  -1.299   3.950  11.079  1.6397  3.8709  1.4856
  725MOL0     H95680  -1.481   4.144  11.101 -0.4862 -0.7601 -1.3677
  725MOL0     H95681  -1.418   4.219  10.973 -4.0370  3.1896  4.1127
  725MOL0     H95682  -0.716   3.533  10.351  0.1825  0.9124 -0.8945
  725MOL0     H95683  -0.477   3.463  10.310  0.3489  0.3876  0.3263
  725MOL0     H95684   0.051   3.819  10.238 -1.4539 -1.5933  0.9358
  725MOL0     H95685   0.258   3.756  10.109 -2.0961  2.3886 -0.7509
  725MOL0     H95686   1.523   2.574   9.416  0.5460  2.2834 -1.9722
  725MOL0     H95687   1.626   2.336   9.417 -1.8549 -0.8025  0.0856
  725MOL0     H95688   1.321   1.842   9.383 -0.0089 -0.9350 -0.6116
  725MOL0     H95689   1.390   1.620   9.445 -1.4904  1.0801 -0.0891
  725MOL0     H95690   1.842   1.500   9.542  0.2411 -2.9072  0.4309
  725MOL0     H95691   1.812   1.550   9.365 -0.5245  0.7648  0.5695
  725MOL0     H95692   1.724   1.304   9.504 -1.3510  1.3533  0.9188
  725MOL0     H95693   1.700   1.342   9.334  0.2617 -2.1205  1.2609
  725MOL0     H95694   1.988   1.341   9.429  0.9672 -0.4625 -0.9042
  725MOL0     H95695   1.922   1.289   9.277  2.5214  2.1892  1.0442
  725MOL0     H95696   1.843   1.082   9.356  0.3544 -1.1054  0.7915
  725MOL0     H95697   2.016   1.097   9.383  1.5217  0.6663  2.4439
  725MOL0     H95698   1.834   1.038   9.770  2.4174  1.0794  0.8904
  725MOL0     H95699   1.807   1.756   9.398 -0.3420 -1.4440 -1.9868
  725MOL0     H95700   1.725   1.978   9.350  0.8379  1.0870  1.5861
  726MOL0     O95701   9.834   7.462   7.981 -0.4827  0.1961  1.0101
  726MOL0     C95702   9.770   7.362   8.026 -1.5004 -0.7046  0.0975
  726MOL0     O95703   9.827   7.265   8.102 -0.6824 -0.5304 -0.6968
  726MOL0     C95704   9.957   7.262   8.146  0.3547  0.1598 -0.1340
  726MOL0     C95705  10.065   7.317   8.078  0.1048  0.2011 -1.2912
  726MOL0     C95706  10.195   7.326   8.137  0.0299  0.5832  0.8085
  726MOL0     C95707  10.216   7.294   8.264 -0.0753  0.1082  0.2117
  726MOL0     O95708  10.349   7.310   8.315 -0.5254 -0.5819 -0.1288
  726MOL0     C95709  10.380   7.269   8.449 -0.4869  0.0548  0.2830
  726MOL0     C95710  10.512   7.199   8.446  1.1841  0.1737 -0.1053
  726MOL0     C95711  10.572   7.198   8.585  0.2007  0.6174 -0.6058
  726MOL0     C95712  10.692   7.101   8.603  0.6287  0.8673 -0.5907
  726MOL0     C95713  10.759   7.112   8.736  0.1616  0.1488 -1.3371
  726MOL0     C95714  10.834   6.983   8.778  0.8651 -0.1246  0.5891
  726MOL0     C95715  10.890   6.987   8.920  0.0701 -0.3710 -0.5241
  726MOL0     C95716  10.963   6.861   8.974 -0.5943 -0.6375 -0.1923
  726MOL0     N95717  10.882   6.740   8.969 -0.0234  0.2320  0.3454
  726MOL0     C95718  10.789   6.695   9.059 -0.2659  0.5473  0.1641
  726MOL0     C95719  10.747   6.585   8.995 -0.4573 -0.2579 -0.2283
  726MOL0     C95720  10.622   6.518   9.041  0.7500 -0.4295 -0.2200
  726MOL0     C95721  10.505   6.555   8.956  0.5259 -0.6840  1.6919
  726MOL0     C95722  10.379   6.550   9.031  0.2987  0.6360 -0.2620
  726MOL0     C95723  10.248   6.546   8.945  0.7254  0.9627 -0.3007
  726MOL0     O95724  10.196   6.682   8.922  0.1059  0.6120  0.5330
  726MOL0     C95725  10.066   6.686   8.905  0.6560 -0.2455 -0.6642
  726MOL0     C95726   9.988   6.751   9.003 -0.0155 -0.5209 -0.6267
  726MOL0     C95727   9.846   6.763   8.998 -0.3792 -0.2870 -0.5043
  726MOL0     C95728   9.785   6.704   8.890 -0.0884  1.0835  0.4392
  726MOL0     C95729   9.635   6.711   8.867 -0.4792 -0.1215 -0.1213
  726MOL0     O95730   9.558   6.785   8.955  0.5918  0.4658  0.5404
  726MOL0     C95731   9.414   6.782   8.939 -0.5631 -0.3574 -0.6498
  726MOL0     C95732   9.355   6.905   8.946 -0.1706 -0.7336 -0.5737
  726MOL0     C95733   9.216   6.915   8.917 -0.0034 -0.4391 -0.7567
  726MOL0     C95734   9.136   6.801   8.895 -0.2736 -0.0608  0.5063
  726MOL0     O95735   9.001   6.800   8.869 -0.4031  0.4203  0.4376
  726MOL0     C95736   8.924   6.914   8.905 -0.6868  0.2029  0.0532
  726MOL0     C95737   8.779   6.922   8.859 -0.1633  0.5465 -0.7946
  726MOL0     C95738   8.706   6.805   8.920  0.5545  0.4087 -0.8153
  726MOL0     C95739   8.575   6.849   8.982  0.1025  0.3961  0.4728
  726MOL0     C95740   8.471   6.744   8.961  0.8767 -0.1180  0.2277
  726MOL0     C95741   8.332   6.803   8.978  0.2036  0.6417 -0.4755
  726MOL0     C95742   8.230   6.686   8.984 -0.4828 -0.1996  0.3087
  726MOL0     C95743   8.092   6.743   8.981  0.7513  0.5011 -0.2405
  726MOL0    Cl95744   7.969   6.611   8.928  0.0109 -0.0701  0.1499
  726MOL0     C95745   9.203   6.687   8.894 -0.0939  0.1866 -0.5643
  726MOL0     C95746   9.340   6.670   8.913 -0.2846 -0.2108  0.3227
  726MOL0     O95747   9.598   6.642   8.775  0.6993  0.3151  0.5391
  726MOL0     C95748   9.858   6.636   8.789  0.1934 -0.2908 -0.5616
  726MOL0     C95749   9.994   6.627   8.802 -0.0758 -0.6671 -0.2466
  726MOL0     N95750  10.827   6.553   8.891  0.5501  0.7054  0.3306
  726MOL0     N95751  10.900   6.654   8.863  0.8375 -0.7897 -1.0455
  726MOL0     C95752  10.107   7.245   8.337  0.8906 -0.1604 -0.3139
  726MOL0     C95753   9.978   7.235   8.281  0.1862 -0.0043  0.1927
  726MOL0     C95754   9.629   7.355   8.004  1.2959 -0.3644 -0.0556
  726MOL0     C95755   9.556   7.238   8.018 -0.0611 -0.3813  0.2468
  726MOL0     C95756   9.413   7.240   8.001  1.0061 -0.0680 -0.1634
  726MOL0     C95757   9.350   7.359   7.967  0.0584  0.5203  0.5369
  726MOL0     O95758   9.210   7.352   7.957  0.4797 -0.0148  0.6450
  726MOL0     C95759   9.165   7.424   7.840 -1.6702 -0.4145 -0.2729
  726MOL0     C95760   9.018   7.389   7.827 -0.0224  0.0962  0.1428
  726MOL0     C95761   8.933   7.469   7.922  0.8077  0.4726 -1.1766
  726MOL0     C95762   8.787   7.439   7.890  0.2979  0.0569 -0.5756
  726MOL0     C95763   8.687   7.473   7.987  0.3320 -0.0891  1.0991
  726MOL0     C95764   8.615   7.526   8.068  0.6429 -0.0341  0.2695
  726MOL0     C95765   9.426   7.473   7.937 -0.8251 -0.6501 -0.3710
  726MOL0     C95766   9.564   7.469   7.963  1.2387 -0.0072  0.0902
  726MOL0     H95767  10.048   7.327   7.971 -0.1736  1.4344 -1.1405
  726MOL0     H95768  10.278   7.366   8.079  1.7300 -0.1910  2.6303
  726MOL0     H95769  10.310   7.197   8.492  0.8003 -1.4744 -0.1188
  726MOL0     H95770  10.390   7.362   8.507  2.2638 -0.8344  1.4064
  726MOL0     H95771  10.585   7.226   8.369 -0.1592 -0.0768 -1.5178
  726MOL0     H95772  10.482   7.095   8.429  1.4437 -0.2482  1.8191
  726MOL0     H95773  10.500   7.179   8.666  0.7402 -0.3075 -0.3300
  726MOL0     H95774  10.619   7.294   8.608 -0.0193  0.3217  1.2061
  726MOL0     H95775  10.679   6.994   8.583  2.2779  0.0405  2.1192
  726MOL0     H95776  10.767   7.129   8.528  1.1042 -1.4744 -1.0753
  726MOL0     H95777  10.702   7.133   8.828  2.5652 -1.9377  0.7996
  726MOL0     H95778  10.834   7.192   8.733 -2.5721  3.1269  0.9609
  726MOL0     H95779  10.919   6.961   8.713  1.3063 -2.4168  1.8433
  726MOL0     H95780  10.765   6.899   8.765  1.3375 -0.2938 -0.9781
  726MOL0     H95781  10.960   7.071   8.915  0.2767 -0.5834 -1.2367
  726MOL0     H95782  10.805   7.021   8.980  0.7100 -0.9289  0.7336
  726MOL0     H95783  10.999   6.864   9.077 -1.4094  0.8941  0.0774
  726MOL0     H95784  11.052   6.853   8.910 -0.5760  1.7130 -0.5780
  726MOL0     H95785  10.736   6.744   9.139 -1.4772  1.3668 -1.1099
  726MOL0     H95786  10.588   6.526   9.144 -0.2221  0.9394 -0.6253
  726MOL0     H95787  10.651   6.413   9.031 -1.4050 -1.0350 -0.5312
  726MOL0     H95788  10.500   6.473   8.884  1.7544 -2.5559  3.6351
  726MOL0     H95789  10.513   6.651   8.904  0.1902 -2.0970 -1.1503
  726MOL0     H95790  10.372   6.460   9.092 -2.2857  1.2137  0.4223
  726MOL0     H95791  10.382   6.640   9.093 -2.7056  1.4201 -1.0799
  726MOL0     H95792  10.179   6.484   9.003 -1.9385  1.2613 -2.9073
  726MOL0     H95793  10.249   6.506   8.843 -0.9624  3.0936 -1.2271
  726MOL0     H95794  10.054   6.790   9.080  0.8087 -0.2172 -1.4629
  726MOL0     H95795   9.790   6.807   9.081 -0.8415 -2.7015  0.5537
  726MOL0     H95796   9.413   6.993   8.974 -0.8250  0.2628 -2.1575
  726MOL0     H95797   9.161   7.009   8.919 -2.6797 -1.9161  0.4716
  726MOL0     H95798   8.972   6.997   8.853 -2.1380  2.8050  2.5847
  726MOL0     H95799   8.923   6.925   9.014 -0.7426  2.7390 -0.1466
  726MOL0     H95800   8.783   6.904   8.752  2.8060 -0.8124 -0.5460
  726MOL0     H95801   8.736   7.018   8.890  0.2656 -0.2195  2.6740
  726MOL0     H95802   8.753   6.752   9.003 -1.2115 -1.6973 -1.0719
  726MOL0     H95803   8.692   6.730   8.841  0.1500 -0.4181  0.0194
  726MOL0     H95804   8.591   6.876   9.087 -1.9793 -0.1475  0.9771
  726MOL0     H95805   8.541   6.941   8.933 -1.6941  0.0893  1.0721
  726MOL0     H95806   8.481   6.670   9.040 -2.1641  0.5962  1.4042
  726MOL0     H95807   8.475   6.710   8.857 -1.4507  2.4547 -0.8338
  726MOL0     H95808   8.312   6.865   8.890 -0.3355 -0.4901 -1.1695
  726MOL0     H95809   8.321   6.870   9.064  0.3969 -1.6107  1.4152
  726MOL0     H95810   8.244   6.626   8.894  0.6559  2.0939 -1.1440
  726MOL0     H95811   8.244   6.634   9.078  1.4023 -0.4812 -0.0947
  726MOL0     H95812   8.085   6.829   8.913 -2.1661 -0.6293 -1.5229
  726MOL0     H95813   8.058   6.775   9.080 -0.5364 -2.8143  0.5061
  726MOL0     H95814   9.147   6.595   8.877  0.3508  0.0015 -1.0493
  726MOL0     H95815   9.392   6.575   8.922  1.7654  0.9765  1.8948
  726MOL0     H95816   9.810   6.587   8.705  0.5013  1.0173 -1.5369
  726MOL0     H95817  10.054   6.582   8.725  1.6218 -1.2808  1.3663
  726MOL0     H95818  10.109   7.221   8.443 -0.2242 -1.4704 -0.5583
  726MOL0     H95819   9.897   7.216   8.351 -0.2507 -2.9148 -0.9513
  726MOL0     H95820   9.599   7.145   8.054  0.6700  0.0214  0.4313
  726MOL0     H95821   9.343   7.164   8.034  0.3707  0.8973  0.7668
  726MOL0     H95822   9.218   7.380   7.755 -1.2493  2.8148 -1.8381
  726MOL0     H95823   9.186   7.531   7.846  2.3913 -1.0102 -0.5975
  726MOL0     H95824   8.985   7.412   7.726 -0.3495 -0.4962  0.1132
  726MOL0     H95825   9.009   7.285   7.858 -1.8206 -0.1462 -1.0895
  726MOL0     H95826   8.961   7.574   7.909  1.0909  0.3547 -1.5712
  726MOL0     H95827   8.959   7.443   8.025 -0.4455  1.3442 -0.6118
  726MOL0     H95828   8.774   7.507   7.806  0.6580  0.7373 -0.0876
  726MOL0     H95829   8.766   7.342   7.843 -1.4226  0.0472  0.1493
  726MOL0     H95830   8.548   7.565   8.142 -2.7096 -4.2451 -0.1375
  726MOL0     H95831   9.378   7.566   7.908  0.9764  0.3866 -0.2011
  726MOL0     H95832   9.620   7.561   7.953  1.0943  0.0206 -0.5736
  727MOL0     O95833   1.055   2.265   0.107  1.0001  0.5591  0.3345
  727MOL0     C95834   1.010   2.194   0.198  0.2767  0.9910 -0.1323
  727MOL0     O95835   0.873   2.178   0.235  0.0031  0.2719  0.4877
  727MOL0     C95836   0.783   2.259   0.163 -0.5810  0.0532 -0.8461
  727MOL0     C95837   0.722   2.204   0.056 -0.1021 -0.3755  0.6774
  727MOL0     C95838   0.624   2.272  -0.016  0.7428 -0.3367  0.0334
  727MOL0     C95839   0.584   2.407   0.025  0.1457  0.8546  0.9920
  727MOL0     O95840   0.494   2.489  -0.032 -0.4526 -0.0742 -0.1458
  727MOL0     C95841   0.441   2.454  -0.160  0.1199 -0.0058 -0.9063
  727MOL0     C95842   0.365   2.579  -0.196  0.1153  0.0255  0.5126
  727MOL0     C95843   0.234   2.608  -0.126 -0.4368  0.1322  0.6820
  727MOL0     C95844   0.165   2.721  -0.203  0.6399 -0.5212 -0.9103
  727MOL0     C95845   0.019   2.746  -0.160 -0.0448  1.3076  0.5072
  727MOL0     C95846  -0.010   2.754  -0.012  0.1378  0.9537  0.2312
  727MOL0     C95847  -0.158   2.761   0.019  0.7419 -0.5868  0.2240
  727MOL0     C95848  -0.203   2.910   0.004 -0.2137  1.2178 -0.8762
  727MOL0     N95849  -0.346   2.920   0.007  0.4071 -0.0020 -0.6350
  727MOL0     C95850  -0.437   2.889  -0.089 -0.9331  0.4307  0.2112
  727MOL0     C95851  -0.560   2.912  -0.044 -0.2456 -0.0674 -0.4612
  727MOL0     C95852  -0.691   2.904  -0.122  0.1386 -0.5308 -0.5933
  727MOL0     C95853  -0.728   3.045  -0.188  0.2775  0.2665 -1.0181
  727MOL0     C95854  -0.802   3.137  -0.091  0.7217 -0.2267  0.0516
  727MOL0     C95855  -0.949   3.098  -0.083 -0.2221 -0.5472  0.0109
  727MOL0     O95856  -1.005   3.180   0.021  0.6748 -0.5455 -0.1960
  727MOL0     C95857  -1.142   3.185   0.039 -0.3069  0.1122  0.5116
  727MOL0     C95858  -1.232   3.071   0.003  0.4631 -0.5193  0.4633
  727MOL0     C95859  -1.363   3.068   0.038  0.5593 -0.1013 -0.3497
  727MOL0     C95860  -1.416   3.169   0.116 -0.7066 -0.4742 -0.4351
  727MOL0     C95861  -1.554   3.159   0.167  0.6488 -0.2031 -0.3941
  727MOL0     O95862  -1.602   3.237   0.272 -0.4183 -0.1969  0.0449
  727MOL0     C95863  -1.735   3.210   0.318 -0.6400 -0.5243 -0.0283
  727MOL0     C95864  -1.832   3.315   0.324  0.0487 -0.2503  0.0512
  727MOL0     C95865  -1.956   3.290   0.379 -0.1555  0.6393  0.3067
  727MOL0     C95866  -2.002   3.164   0.421  0.5400 -0.2536  0.7888
  727MOL0     O95867  -2.118   3.157   0.489 -0.2633  0.0595  0.0093
  727MOL0     C95868  -2.173   3.026   0.514  0.3430 -0.2250  0.4078
  727MOL0     C95869  -2.304   3.057   0.586  0.7274 -0.2197 -0.4812
  727MOL0     C95870  -2.403   2.944   0.610 -0.3213  0.3722 -0.7116
  727MOL0     C95871  -2.510   2.965   0.716 -0.9952  0.5292 -0.3389
  727MOL0     C95872  -2.627   2.872   0.689 -0.3652 -0.1341  0.2504
  727MOL0     C95873  -2.748   2.895   0.786 -0.5388  0.4425  0.2265
  727MOL0     C95874  -2.843   2.771   0.796  0.3639 -1.1612 -0.4100
  727MOL0     C95875  -2.906   2.731   0.669 -0.4188  0.8357  0.5090
  727MOL0    Cl95876  -2.980   2.870   0.585 -0.3401 -0.0066  0.0995
  727MOL0     C95877  -1.904   3.060   0.412 -0.3732  0.4183 -0.1692
  727MOL0     C95878  -1.775   3.087   0.363 -0.1555  0.4969  0.6927
  727MOL0     O95879  -1.625   3.078   0.106 -0.5242  0.2636 -0.3743
  727MOL0     C95880  -1.334   3.282   0.158  0.0043 -0.2421 -0.0485
  727MOL0     C95881  -1.199   3.294   0.116  0.3562 -0.0441  0.5988
  727MOL0     N95882  -0.540   2.949   0.090 -0.8541 -0.2081  0.2096
  727MOL0     N95883  -0.415   2.959   0.125  0.1239 -0.1720  0.1988
  727MOL0     C95884   0.652   2.464   0.135 -0.7984  0.8065 -1.0542
  727MOL0     C95885   0.756   2.390   0.202 -0.0775 -0.3784  0.2393
  727MOL0     C95886   1.109   2.115   0.280  0.3766 -0.4335 -0.0169
  727MOL0     C95887   1.075   2.071   0.406 -0.1131  0.6112  0.2264
  727MOL0     C95888   1.171   1.989   0.469  0.4347  0.1777  0.5158
  727MOL0     C95889   1.299   1.969   0.417  0.1467  0.2067  1.0407
  727MOL0     O95890   1.407   1.909   0.476 -0.6047  0.0971 -0.0267
  727MOL0     C95891   1.405   1.840   0.607 -0.2184  0.0485  0.3986
  727MOL0     C95892   1.424   1.953   0.710 -0.8830  0.4218 -1.2589
  727MOL0     C95893   1.576   1.984   0.728 -1.2118 -0.0528  0.1868
  727MOL0     C95894   1.608   2.132   0.696 -0.3727  0.4796  0.6329
  727MOL0     C95895   1.577   2.205   0.820 -0.0556  0.4881  0.7187
  727MOL0     C95896   1.558   2.257   0.932 -0.1982  0.4600 -0.2214
  727MOL0     C95897   1.331   2.028   0.297  0.5524  0.1515  0.2791
  727MOL0     C95898   1.239   2.102   0.229 -0.6817 -0.4336 -0.3018
  727MOL0     H95899   0.751   2.102   0.031  1.0783  0.7378 -3.1490
  727MOL0     H95900   0.562   2.220  -0.088 -3.1721 -0.8317  3.4150
  727MOL0     H95901   0.370   2.371  -0.148  2.5152 -2.1792 -0.7532
  727MOL0     H95902   0.516   2.426  -0.235  0.5802 -0.2547 -0.3657
  727MOL0     H95903   0.350   2.568  -0.304 -2.2337 -0.4423  0.8283
  727MOL0     H95904   0.426   2.669  -0.181 -0.7454  1.6155 -4.0113
  727MOL0     H95905   0.264   2.639  -0.026  0.6274 -0.5859  0.5928
  727MOL0     H95906   0.173   2.517  -0.118 -2.9907  1.6521 -0.1660
  727MOL0     H95907   0.219   2.816  -0.198  0.4668 -0.2985 -2.6073
  727MOL0     H95908   0.177   2.698  -0.309  0.9054  2.3837 -1.6038
  727MOL0     H95909  -0.040   2.660  -0.193  1.1944  0.5060  0.2994
  727MOL0     H95910  -0.021   2.830  -0.216 -1.7643 -0.2808 -0.7671
  727MOL0     H95911   0.044   2.840   0.029 -2.7601  2.1662  1.8152
  727MOL0     H95912   0.031   2.672   0.048  2.0522  1.6483 -0.0672
  727MOL0     H95913  -0.207   2.704  -0.060  1.7548  0.1409 -0.9766
  727MOL0     H95914  -0.177   2.716   0.117  0.5634 -0.5891  0.1893
  727MOL0     H95915  -0.172   2.962  -0.087 -0.7562  0.8044 -1.3024
  727MOL0     H95916  -0.164   2.962   0.092 -0.7377  1.6005 -0.8615
  727MOL0     H95917  -0.418   2.854  -0.190  3.3584  1.6406  0.4312
  727MOL0     H95918  -0.773   2.885  -0.052  1.2601  0.7581  1.1587
  727MOL0     H95919  -0.686   2.836  -0.207  2.0884  1.7467 -2.4463
  727MOL0     H95920  -0.781   3.013  -0.278  2.0699 -1.4824 -1.5027
  727MOL0     H95921  -0.638   3.097  -0.221 -1.2781  2.6601 -1.8559
  727MOL0     H95922  -0.758   3.141   0.009  0.4464 -0.5679  0.1889
  727MOL0     H95923  -0.799   3.240  -0.128 -1.7874 -0.0431  0.1786
  727MOL0     H95924  -0.955   2.992  -0.059  0.1186 -0.4439  0.5828
  727MOL0     H95925  -1.000   3.113  -0.178 -1.7405  0.8050  0.9707
  727MOL0     H95926  -1.197   2.981  -0.046 -1.0423  0.3422 -2.4224
  727MOL0     H95927  -1.421   2.980   0.013 -2.0026  1.2998  0.1996
  727MOL0     H95928  -1.797   3.414   0.297 -0.1264 -0.3128 -0.4238
  727MOL0     H95929  -2.014   3.380   0.395  0.6761  0.8354  2.6034
  727MOL0     H95930  -2.094   2.973   0.567  2.6404  1.8889 -0.6850
  727MOL0     H95931  -2.203   2.978   0.421 -2.3706 -0.8981  1.5323
  727MOL0     H95932  -2.361   3.134   0.532  0.9188  1.6710  1.8459
  727MOL0     H95933  -2.271   3.092   0.684  0.9035  2.0398 -1.2855
  727MOL0     H95934  -2.350   2.852   0.634 -0.4782  0.7555  1.2542
  727MOL0     H95935  -2.452   2.915   0.517 -0.4219 -2.5220  0.1466
  727MOL0     H95936  -2.471   2.945   0.816  2.0593  1.4636 -1.2307
  727MOL0     H95937  -2.533   3.070   0.734 -2.2282 -0.2178  2.9667
  727MOL0     H95938  -2.592   2.769   0.694 -3.4349 -1.2483  1.4103
  727MOL0     H95939  -2.666   2.892   0.588  1.1256 -3.6711 -1.1963
  727MOL0     H95940  -2.801   2.986   0.756 -1.2031  0.2189  0.6995
  727MOL0     H95941  -2.704   2.910   0.885 -0.6862  0.0971  0.3472
  727MOL0     H95942  -2.794   2.690   0.851 -1.9148 -1.4628  1.3151
  727MOL0     H95943  -2.922   2.798   0.866 -2.4192  1.9526 -4.2420
  727MOL0     H95944  -2.987   2.659   0.688  0.8340 -0.5763  0.6944
  727MOL0     H95945  -2.831   2.692   0.600  0.4631  0.2533  1.7499
  727MOL0     H95946  -1.926   2.960   0.450  1.6529 -0.9456 -2.3115
  727MOL0     H95947  -1.698   3.012   0.348 -1.1093 -0.2727 -0.6109
  727MOL0     H95948  -1.374   3.364   0.216 -2.1629  0.4859 -2.4123
  727MOL0     H95949  -1.133   3.370   0.157  2.2439 -1.9704  1.3253
  727MOL0     H95950   0.629   2.563   0.172 -0.3737  1.6331 -2.9241
  727MOL0     H95951   0.806   2.429   0.290 -2.3830  0.4246  1.2891
  727MOL0     H95952   0.977   2.097   0.445  0.0456  1.6197 -0.0409
  727MOL0     H95953   1.141   1.945   0.564 -1.1861 -0.4631 -0.2645
  727MOL0     H95954   1.488   1.770   0.613  1.4358  2.0282  2.5062
  727MOL0     H95955   1.304   1.800   0.622 -1.3634  2.3011 -0.6815
  727MOL0     H95956   1.363   2.042   0.696  1.0141  2.3124  1.3243
  727MOL0     H95957   1.393   1.915   0.808  0.2752  2.2601 -0.1133
  727MOL0     H95958   1.628   1.924   0.652  3.4856  0.4464  2.6086
  727MOL0     H95959   1.613   1.960   0.828 -0.4130  2.7156  0.6534
  727MOL0     H95960   1.716   2.138   0.680 -0.6645  0.1542 -1.8417
  727MOL0     H95961   1.552   2.173   0.611 -2.5632 -2.9931  0.1853
  727MOL0     H95962   1.540   2.315   1.020 -3.5905  1.6900 -1.5697
  727MOL0     H95963   1.431   2.030   0.255 -0.2564  0.7188 -1.7163
  727MOL0     H95964   1.260   2.161   0.141 -1.6681  1.5687  0.7378
  728MOL0     O95965   7.663   8.977  10.140  0.2146  0.0805 -0.0625
  728MOL0     C95966   7.734   8.894  10.193 -0.8094  0.4225  0.0339
  728MOL0     O95967   7.713   8.849  10.319 -0.5083  0.1834  0.2614
  728MOL0     C95968   7.609   8.920  10.385 -0.3986  0.6760 -0.1432
  728MOL0     C95969   7.627   9.038  10.440 -0.2738 -1.1147  0.0818
  728MOL0     C95970   7.525   9.110  10.505 -0.4859  0.7877 -0.8900
  728MOL0     C95971   7.394   9.053  10.518  0.0706 -0.2391  0.8695
  728MOL0     O95972   7.285   9.110  10.579 -0.5151 -0.3377  0.4881
  728MOL0     C95973   7.290   9.249  10.592 -0.4019 -0.4198 -0.9023
  728MOL0     C95974   7.166   9.300  10.665  0.5348  0.1558 -0.2308
  728MOL0     C95975   7.037   9.267  10.589 -0.7192 -0.6107 -0.7016
  728MOL0     C95976   6.909   9.312  10.654  1.1657  0.0752 -0.0400
  728MOL0     C95977   6.782   9.247  10.592 -0.3973 -0.0831  0.9374
  728MOL0     C95978   6.755   9.098  10.634 -0.3746  0.3067  0.1735
  728MOL0     C95979   6.604   9.083  10.642  0.6461  0.0458 -0.5191
  728MOL0     C95980   6.558   8.937  10.646  0.3692 -0.7270  0.3009
  728MOL0     N95981   6.412   8.937  10.628 -0.6097 -0.1633 -0.0430
  728MOL0     C95982   6.309   8.948  10.724  1.5578  0.1013  0.6340
  728MOL0     C95983   6.199   8.901  10.666  0.0909 -0.3641  0.4903
  728MOL0     C95984   6.060   8.899  10.715 -0.6225  0.2750  0.0253
  728MOL0     C95985   6.043   8.818  10.847 -0.0585  0.2055 -1.0504
  728MOL0     C95986   5.893   8.811  10.888  0.5606  0.2433  0.0030
  728MOL0     C95987   5.884   8.748  11.027  0.2823 -0.4385 -0.2586
  728MOL0     O95988   5.756   8.770  11.075 -0.1238  0.1294  0.6113
  728MOL0     C95989   5.645   8.712  11.013  0.0074 -0.7501  0.3281
  728MOL0     C95990   5.646   8.587  10.974 -0.0238  0.5389  0.9600
  728MOL0     C95991   5.526   8.525  10.932  0.9502 -0.2349 -0.1239
  728MOL0     C95992   5.405   8.608  10.922  0.6997 -0.4672  0.2111
  728MOL0     C95993   5.278   8.550  10.891  0.2040  0.2134  0.2123
  728MOL0     O95994   5.270   8.411  10.883 -0.6601 -0.4807 -0.3037
  728MOL0     C95995   5.151   8.350  10.875 -0.3725  0.3011 -0.4036
  728MOL0     C95996   5.065   8.349  10.990  0.1324  0.0863  0.5866
  728MOL0     C95997   4.939   8.294  10.980  0.2332 -0.2402 -0.0749
  728MOL0     C95998   4.887   8.248  10.862 -0.3664 -0.0141  0.4539
  728MOL0     O95999   4.766   8.193  10.865  0.1261  0.2536 -0.4477
  728MOL0     C96000   4.755   8.072  10.790  0.1628 -0.2227 -0.1381
  728MOL0     C96001   4.625   8.004  10.852 -0.4177  0.3735 -0.2501
  728MOL0     C96002   4.544   7.925  10.748 -0.5601  0.6897 -0.1902
  728MOL0     C96003   4.414   7.880  10.811 -0.2186  0.0502 -0.5603
  728MOL0     C96004   4.316   7.828  10.714  0.5786  0.2467  0.4404
  728MOL0     C96005   4.212   7.736  10.786 -1.1129 -0.7371 -0.5544
  728MOL0     C96006   4.176   7.614  10.716 -0.4992 -0.7704 -0.2726
  728MOL0     C96007   4.281   7.501  10.721  0.6679 -0.6974  0.9393
  728MOL0    Cl96008   4.247   7.398  10.574 -0.2480 -0.0297 -0.5152
  728MOL0     C96009   4.977   8.262  10.748  0.4605  0.0978 -0.2584
  728MOL0     C96010   5.111   8.312  10.753  0.2933  1.1131  0.4267
  728MOL0     O96011   5.180   8.623  10.881 -0.0556 -0.1282 -0.4478
  728MOL0     C96012   5.419   8.745  10.949 -0.8865  0.7732  0.0456
  728MOL0     C96013   5.533   8.796  11.006  0.3656  0.1397  0.5742
  728MOL0     N96014   6.230   8.861  10.542 -1.0738 -0.6093  0.3528
  728MOL0     N96015   6.355   8.887  10.514  0.4411 -0.7067 -0.6186
  728MOL0     C96016   7.374   8.928  10.477 -0.4594  0.3873 -0.5974
  728MOL0     C96017   7.485   8.856  10.417  0.2129  0.3796 -0.7390
  728MOL0     C96018   7.858   8.850  10.120  0.7045  1.3323 -0.2724
  728MOL0     C96019   7.965   8.807  10.197 -0.0176 -0.0949 -0.4671
  728MOL0     C96020   8.083   8.773  10.137  0.5043 -0.5347 -0.1363
  728MOL0     C96021   8.097   8.781   9.992  0.2344  0.4963  0.3543
  728MOL0     O96022   8.209   8.750   9.929  0.4575 -0.8377 -0.5135
  728MOL0     C96023   8.315   8.703  10.015 -0.5405 -0.0309 -0.5626
  728MOL0     C96024   8.439   8.690   9.928 -0.3389  1.0052  0.1182
  728MOL0     C96025   8.483   8.826   9.887 -0.4396 -0.3369 -0.5790
  728MOL0     C96026   8.614   8.834   9.800 -0.3671 -0.1941 -0.4722
  728MOL0     C96027   8.724   8.766   9.870 -0.0277  0.7921  0.1711
  728MOL0     C96028   8.827   8.718   9.925 -0.0048  1.1199  1.2916
  728MOL0     C96029   7.989   8.828   9.921  0.2957 -0.6660  0.5635
  728MOL0     C96030   7.862   8.859   9.978 -0.4633 -0.6043 -0.2321
  728MOL0     H96031   7.721   9.089  10.427  0.2438 -2.3259 -1.2202
  728MOL0     H96032   7.536   9.212  10.540 -1.4587  0.5461  0.1775
  728MOL0     H96033   7.316   9.308  10.503  1.2769  0.6596  0.2408
  728MOL0     H96034   7.371   9.275  10.661  0.4887 -1.3965 -1.5327
  728MOL0     H96035   7.180   9.408  10.656  1.0325  0.0631 -0.6070
  728MOL0     H96036   7.177   9.270  10.769  1.5521 -0.8049 -0.5909
  728MOL0     H96037   7.027   9.159  10.577 -3.4149 -0.6186  0.8062
  728MOL0     H96038   7.050   9.310  10.489  1.0029 -2.0403 -1.1567
  728MOL0     H96039   6.921   9.283  10.759  2.9231 -3.2021 -1.0122
  728MOL0     H96040   6.901   9.420  10.641 -0.7571 -0.0609 -0.2764
  728MOL0     H96041   6.782   9.242  10.483 -1.0960 -0.5400  0.9541
  728MOL0     H96042   6.698   9.303  10.636 -1.3484 -1.6617  1.1932
  728MOL0     H96043   6.788   9.070  10.735 -0.9542  0.4320  0.4006
  728MOL0     H96044   6.816   9.031  10.573  2.3284 -0.3677  3.2907
  728MOL0     H96045   6.565   9.127  10.734 -2.6194 -0.7937 -1.3729
  728MOL0     H96046   6.549   9.129  10.559 -0.3914  0.8789  0.5936
  728MOL0     H96047   6.583   8.886  10.740  2.3649 -1.5400 -0.6097
  728MOL0     H96048   6.602   8.891  10.557 -0.0026 -1.5668  0.5355
  728MOL0     H96049   6.314   8.984  10.826  0.7338 -0.1332  0.7618
  728MOL0     H96050   6.002   8.833  10.649  0.0628 -0.8315  0.5034
  728MOL0     H96051   6.015   8.998  10.725  0.2732  0.5496  1.6324
  728MOL0     H96052   6.098   8.868  10.927 -0.5051  1.2785 -1.3822
  728MOL0     H96053   6.073   8.714  10.835 -1.8196 -0.0040 -4.9024
  728MOL0     H96054   5.837   8.905  10.892  1.0294  0.5395 -0.2279
  728MOL0     H96055   5.841   8.741  10.821  0.5196 -0.1164  0.4054
  728MOL0     H96056   5.951   8.796  11.098  2.8165 -2.7494 -0.9126
  728MOL0     H96057   5.918   8.644  11.026  3.9128  0.5834  1.0676
  728MOL0     H96058   5.736   8.527  10.988  0.1326 -0.5476 -3.1311
  728MOL0     H96059   5.513   8.418  10.922 -5.9040 -0.0003  0.9703
  728MOL0     H96060   5.088   8.377  11.092 -1.7790  0.8114  0.8662
  728MOL0     H96061   4.872   8.299  11.066 -1.2651  0.4254 -1.2473
  728MOL0     H96062   4.844   8.009  10.798  0.1419 -0.3243 -0.6567
  728MOL0     H96063   4.737   8.097  10.685 -1.0891 -1.9345 -0.3703
  728MOL0     H96064   4.560   8.084  10.889 -0.7716 -0.4766  1.0160
  728MOL0     H96065   4.651   7.939  10.936  0.4561  2.1630  0.9424
  728MOL0     H96066   4.596   7.835  10.715 -1.2538 -0.4841  1.7910
  728MOL0     H96067   4.524   7.987  10.659  1.8365  1.2126 -0.4236
  728MOL0     H96068   4.441   7.802  10.882 -0.0757  1.9343  1.5830
  728MOL0     H96069   4.364   7.955  10.873 -0.7043 -1.2055  0.6318
  728MOL0     H96070   4.359   7.771  10.631 -5.8197 -2.9469 -1.3198
  728MOL0     H96071   4.264   7.914  10.673 -0.7390 -1.1849 -1.0440
  728MOL0     H96072   4.132   7.808  10.805 -1.6948 -1.5513  0.1672
  728MOL0     H96073   4.255   7.703  10.881  1.4489 -1.3013 -1.8326
  728MOL0     H96074   4.088   7.569  10.761 -1.2926 -0.5478 -1.5379
  728MOL0     H96075   4.136   7.647  10.619 -0.9225 -0.8736 -0.1343
  728MOL0     H96076   4.280   7.454  10.820 -0.6588 -0.7975  0.9064
  728MOL0     H96077   4.383   7.538  10.709  0.3573 -0.4042 -1.4336
  728MOL0     H96078   4.929   8.241  10.653 -1.4177  0.1923  0.6295
  728MOL0     H96079   5.172   8.318  10.663  0.6491  0.4209  0.6119
  728MOL0     H96080   5.339   8.816  10.930 -1.2866  0.4765  0.5882
  728MOL0     H96081   5.556   8.897  11.040  0.9318  0.3797 -0.4877
  728MOL0     H96082   7.275   8.886  10.488  0.1446 -1.3032 -1.2120
  728MOL0     H96083   7.467   8.755  10.381  1.1214  0.4649 -1.4592
  728MOL0     H96084   7.964   8.788  10.304  0.5453 -0.0826 -0.4574
  728MOL0     H96085   8.160   8.730  10.201 -2.0679 -1.3868  2.5942
  728MOL0     H96086   8.288   8.610  10.066 -0.4764  0.6415  0.7182
  728MOL0     H96087   8.329   8.778  10.093 -1.5519 -2.0725  1.6952
  728MOL0     H96088   8.518   8.641   9.987  0.9122  0.4951 -1.9052
  728MOL0     H96089   8.425   8.622   9.845  1.9119 -2.9928  2.6849
  728MOL0     H96090   8.504   8.894   9.970  2.2531 -0.7619 -0.8256
  728MOL0     H96091   8.412   8.887   9.830  2.0950  2.1048 -1.4185
  728MOL0     H96092   8.595   8.782   9.706 -3.7151 -0.4279  0.1830
  728MOL0     H96093   8.636   8.938   9.775 -1.0474 -0.4756 -2.3665
  728MOL0     H96094   8.905   8.652   9.956  0.9268  0.2149 -2.4293
  728MOL0     H96095   8.006   8.829   9.814  0.1186 -1.1979  0.5281
  728MOL0     H96096   7.783   8.895   9.913  0.9778 -0.5359 -2.0315
  729MOL0     O96097   4.104   5.239   6.096 -0.0342 -0.0197  0.0806
  729MOL0     C96098   4.094   5.342   6.157  0.2678  0.1742 -0.3225
  729MOL0     O96099   3.979   5.389   6.206  0.3310  0.7530  0.1334
  729MOL0     C96100   3.856   5.330   6.174  0.0569  1.5326 -0.1850
  729MOL0     C96101   3.746   5.402   6.230  0.2694 -0.2871 -0.1476
  729MOL0     C96102   3.619   5.367   6.201  0.9874  0.0822  0.7779
  729MOL0     C96103   3.579   5.259   6.120  0.1909 -0.2166 -1.1496
  729MOL0     O96104   3.441   5.251   6.098 -0.4755 -0.3561  0.0277
  729MOL0     C96105   3.399   5.128   6.041  0.5707 -0.1107 -0.1107
  729MOL0     C96106   3.249   5.134   6.010  0.0573  0.5705  0.1478
  729MOL0     C96107   3.215   5.215   5.886 -0.5175 -0.2448 -0.7047
  729MOL0     C96108   3.064   5.262   5.885 -0.8447 -0.3420 -0.2414
  729MOL0     C96109   3.028   5.389   5.973 -0.2178 -0.8513 -0.5266
  729MOL0     C96110   2.920   5.479   5.917  0.4033  0.2303  0.0190
  729MOL0     C96111   2.890   5.607   6.004  0.5466  0.0086  0.2369
  729MOL0     C96112   2.806   5.569   6.132 -0.1730  0.0109 -0.7689
  729MOL0     N96113   2.676   5.523   6.104  0.7770 -0.1040  0.5441
  729MOL0     C96114   2.581   5.600   6.035  0.5501  1.2504  0.0432
  729MOL0     C96115   2.464   5.531   6.021 -0.6350  0.4348 -0.5012
  729MOL0     C96116   2.337   5.579   5.955 -0.1082  0.1782 -0.4480
  729MOL0     C96117   2.257   5.667   6.050  0.9154 -0.4114  0.2942
  729MOL0     C96118   2.193   5.569   6.150  0.0249  0.0116  0.1405
  729MOL0     C96119   2.091   5.643   6.235 -0.3008  0.5494  0.1667
  729MOL0     O96120   2.027   5.542   6.330  0.6980 -0.3316 -0.5709
  729MOL0     C96121   1.910   5.574   6.402  0.9476 -0.7588  0.0276
  729MOL0     C96122   1.871   5.704   6.449  0.7345  0.8863 -0.7400
  729MOL0     C96123   1.735   5.728   6.482 -0.7190  0.0049 -0.1681
  729MOL0     C96124   1.643   5.621   6.497 -0.0046  0.1277  0.8476
  729MOL0     C96125   1.513   5.652   6.555  0.6447 -0.0154 -0.8775
  729MOL0     O96126   1.428   5.547   6.544 -0.2606 -0.2928  0.4810
  729MOL0     C96127   1.298   5.562   6.575  0.2275  0.5568  0.1457
  729MOL0     C96128   1.249   5.491   6.682 -0.3672  0.4356 -0.7206
  729MOL0     C96129   1.111   5.496   6.717 -0.2676  0.4055  0.5367
  729MOL0     C96130   1.032   5.597   6.653 -0.0783 -0.3347 -0.4432
  729MOL0     O96131   0.896   5.611   6.671  0.4344  0.2699 -0.8693
  729MOL0     C96132   0.799   5.535   6.591  0.8952 -0.1822 -0.8522
  729MOL0     C96133   0.663   5.584   6.608 -0.0067  0.6797  0.6375
  729MOL0     C96134   0.638   5.736   6.575  0.0108 -1.0666  0.2941
  729MOL0     C96135   0.486   5.770   6.574 -0.2304 -0.1051 -0.7150
  729MOL0     C96136   0.443   5.900   6.507 -0.3508 -0.5724 -0.3484
  729MOL0     C96137   0.289   5.905   6.503 -0.1533 -0.4828  0.7778
  729MOL0     C96138   0.246   6.016   6.401  0.4490 -0.2812  0.7130
  729MOL0     C96139   0.279   6.163   6.427  0.1211  0.9095 -1.2472
  729MOL0    Cl96140   0.192   6.272   6.331 -0.5235  0.3119 -0.7855
  729MOL0     C96141   1.088   5.688   6.557  0.4783 -0.0135 -0.1950
  729MOL0     C96142   1.215   5.660   6.516 -0.0550 -0.2986 -0.2582
  729MOL0     O96143   1.492   5.761   6.601 -0.6352  0.0605  0.6844
  729MOL0     C96144   1.689   5.492   6.458  0.1092  0.3211  0.4544
  729MOL0     C96145   1.819   5.466   6.414  0.2205  0.0153  0.3689
  729MOL0     N96146   2.500   5.410   6.091 -0.3176 -0.6036  0.2677
  729MOL0     N96147   2.614   5.408   6.146  0.0242 -0.0751 -0.6424
  729MOL0     C96148   3.683   5.189   6.061 -1.6254 -0.6998  0.2639
  729MOL0     C96149   3.825   5.223   6.090  0.7699  0.3334  0.2657
  729MOL0     C96150   4.219   5.412   6.191  0.1721  0.4952 -0.1144
  729MOL0     C96151   4.230   5.489   6.309 -0.2052 -0.3870 -0.4209
  729MOL0     C96152   4.342   5.542   6.357 -0.1411 -1.0764 -0.9771
  729MOL0     C96153   4.460   5.530   6.278  0.1844  0.3514 -0.7446
  729MOL0     O96154   4.567   5.591   6.332  0.1147 -0.4916 -0.8024
  729MOL0     C96155   4.696   5.547   6.289 -0.0105  0.7108 -0.2792
  729MOL0     C96156   4.799   5.656   6.345  0.6787 -0.0305 -0.0203
  729MOL0     C96157   4.946   5.619   6.338  0.2302 -0.6297  0.1920
  729MOL0     C96158   5.037   5.727   6.407 -0.0117  0.0043  0.8564
  729MOL0     C96159   5.172   5.688   6.427 -1.1873  1.1564 -0.0716
  729MOL0     C96160   5.290   5.652   6.448  0.2736 -0.5285 -0.3219
  729MOL0     C96161   4.459   5.453   6.159  0.3854  0.1382  0.3969
  729MOL0     C96162   4.342   5.392   6.120  0.5428  0.5305 -0.1422
  729MOL0     H96163   3.768   5.484   6.297 -0.2775 -2.0737  2.3740
  729MOL0     H96164   3.541   5.436   6.232  3.0973  1.6238  2.9643
  729MOL0     H96165   3.414   5.054   6.120  1.1060  2.7536  2.6406
  729MOL0     H96166   3.446   5.097   5.947  0.6817  1.5305 -0.6265
  729MOL0     H96167   3.209   5.184   6.098 -1.2653  0.5066 -0.3910
  729MOL0     H96168   3.206   5.033   6.005  1.4430 -0.0804  0.9126
  729MOL0     H96169   3.236   5.149   5.802  0.7675 -1.7635  0.7262
  729MOL0     H96170   3.267   5.311   5.881 -2.0391  0.7269  0.7591
  729MOL0     H96171   3.028   5.272   5.782  0.2883  1.1116 -0.5304
  729MOL0     H96172   3.004   5.183   5.929  0.1389 -1.0759 -0.1980
  729MOL0     H96173   3.116   5.453   5.987  0.0451 -1.2255 -0.4481
  729MOL0     H96174   3.005   5.358   6.075  3.6434  1.2426  1.2199
  729MOL0     H96175   2.824   5.433   5.892 -1.3937  3.6412  0.0180
  729MOL0     H96176   2.964   5.526   5.830  0.0267  2.1691  0.8259
  729MOL0     H96177   2.980   5.661   6.036  1.7378 -0.0380 -2.7109
  729MOL0     H96178   2.832   5.683   5.951 -5.1318 -2.7506  1.7255
  729MOL0     H96179   2.799   5.661   6.191 -1.5199 -1.1348  0.9713
  729MOL0     H96180   2.851   5.500   6.204 -0.6020 -1.1574 -1.5897
  729MOL0     H96181   2.588   5.703   6.003 -1.2396  2.3721  2.8332
  729MOL0     H96182   2.285   5.490   5.918 -0.7539  1.2834 -2.3138
  729MOL0     H96183   2.355   5.639   5.866 -1.2386  3.3550  1.3077
  729MOL0     H96184   2.190   5.725   5.985  2.6525  0.8147 -0.4917
  729MOL0     H96185   2.319   5.739   6.105  2.2174  0.3983 -2.0825
  729MOL0     H96186   2.137   5.491   6.097  0.1249 -0.8024  1.1850
  729MOL0     H96187   2.273   5.531   6.215  1.4361 -0.1705 -1.6435
  729MOL0     H96188   2.027   5.699   6.166 -0.6620 -0.0893 -0.0238
  729MOL0     H96189   2.144   5.721   6.291 -0.6324  0.5846  0.4355
  729MOL0     H96190   1.935   5.791   6.460 -1.1163  2.2773 -0.5279
  729MOL0     H96191   1.708   5.831   6.504  1.1633  0.2991  0.9719
  729MOL0     H96192   1.312   5.417   6.730 -0.8905  0.3191 -0.2076
  729MOL0     H96193   1.073   5.426   6.791  2.7484  0.0725  1.8774
  729MOL0     H96194   0.805   5.431   6.623  0.0369  0.1080  0.3207
  729MOL0     H96195   0.825   5.539   6.485  1.2238 -1.2983 -0.8203
  729MOL0     H96196   0.639   5.576   6.714 -2.4713 -1.0808  0.0369
  729MOL0     H96197   0.579   5.531   6.562 -0.8009  1.7834  0.7710
  729MOL0     H96198   0.674   5.758   6.475 -1.0822 -1.6573 -0.2550
  729MOL0     H96199   0.691   5.806   6.640  4.4333  0.2817 -4.1506
  729MOL0     H96200   0.434   5.690   6.520 -0.5252 -0.4961  0.1330
  729MOL0     H96201   0.448   5.771   6.677  0.8396  1.7988 -0.2783
  729MOL0     H96202   0.488   5.903   6.408  0.4010  0.6576  0.0004
  729MOL0     H96203   0.484   5.984   6.563 -0.9285 -0.8646  0.5361
  729MOL0     H96204   0.242   5.924   6.600 -1.2782  0.6385  0.0290
  729MOL0     H96205   0.246   5.815   6.458 -0.9058  1.6684 -3.1709
  729MOL0     H96206   0.274   5.988   6.299 -0.7871 -1.8940  0.7711
  729MOL0     H96207   0.137   6.003   6.397  0.2681  0.1489  2.9064
  729MOL0     H96208   0.384   6.184   6.406 -0.1667  2.6206 -1.0899
  729MOL0     H96209   0.271   6.195   6.531 -1.1938 -0.6919 -0.7996
  729MOL0     H96210   1.021   5.755   6.504 -0.1822  0.6599  1.4100
  729MOL0     H96211   1.245   5.713   6.426 -2.3294 -1.8917 -2.0678
  729MOL0     H96212   1.622   5.408   6.440  2.7242 -1.5173 -1.3806
  729MOL0     H96213   1.853   5.372   6.371  1.1311  0.2833  0.4763
  729MOL0     H96214   3.668   5.099   6.003 -1.5244 -1.0012  0.6975
  729MOL0     H96215   3.896   5.163   6.035 -0.2912  1.5696 -2.6486
  729MOL0     H96216   4.139   5.483   6.369  1.2408 -0.2788  1.8779
  729MOL0     H96217   4.336   5.585   6.456 -1.3409 -0.0477 -1.4597
  729MOL0     H96218   4.707   5.553   6.180 -1.1991  0.1853 -0.4386
  729MOL0     H96219   4.720   5.449   6.332 -0.2160  1.0413  0.6048
  729MOL0     H96220   4.790   5.751   6.291  3.8325  0.1898 -0.3817
  729MOL0     H96221   4.765   5.676   6.446 -0.2187  3.5840 -0.8964
  729MOL0     H96222   4.968   5.600   6.232 -1.9842  0.3407 -0.4994
  729MOL0     H96223   4.960   5.530   6.400  1.6586 -0.4180  0.2212
  729MOL0     H96224   5.044   5.823   6.354 -1.0080  0.2096  1.0738
  729MOL0     H96225   4.987   5.747   6.502 -4.4559 -1.9746 -0.8083
  729MOL0     H96226   5.392   5.635   6.474  0.3442  1.0540  0.5807
  729MOL0     H96227   4.550   5.435   6.101 -0.4014  0.2337 -0.9021
  729MOL0     H96228   4.342   5.320   6.039  0.7678 -1.1551  1.3009
  730MOL0     O96229   2.622   8.049   6.579  0.7916 -0.0578  0.3132
  730MOL0     C96230   2.650   7.944   6.634  0.2457  0.3864  0.5827
  730MOL0     O96231   2.562   7.845   6.652  0.1497  0.7350 -0.7379
  730MOL0     C96232   2.423   7.867   6.639 -0.8496 -0.4998  0.1478
  730MOL0     C96233   2.349   7.791   6.551 -0.3113  0.1849  0.1373
  730MOL0     C96234   2.209   7.813   6.540  0.7327  0.3423 -0.4131
  730MOL0     C96235   2.134   7.911   6.617 -0.4296  0.3057  0.0439
  730MOL0     O96236   1.997   7.924   6.613  0.1847  0.0134  0.1031
  730MOL0     C96237   1.928   7.894   6.494  0.2429 -0.0489 -0.2970
  730MOL0     C96238   1.794   7.974   6.492 -0.1501  0.3704  0.7904
  730MOL0     C96239   1.713   7.932   6.371  0.2886 -0.1254  0.4220
  730MOL0     C96240   1.568   7.970   6.376  0.9733 -0.3910  0.8634
  730MOL0     C96241   1.498   7.955   6.237 -0.1341  0.4771  0.0530
  730MOL0     C96242   1.360   8.026   6.218 -0.3659 -0.5174 -0.7568
  730MOL0     C96243   1.244   7.928   6.273  0.0659 -0.2272 -0.0597
  730MOL0     C96244   1.098   7.996   6.261  0.2741 -0.2225 -0.2539
  730MOL0     N96245   0.994   7.908   6.303  0.5037 -0.2484  0.0968
  730MOL0     C96246   0.942   7.912   6.433  0.4827 -0.5254  0.2357
  730MOL0     C96247   0.859   7.806   6.434  0.7637  0.1592 -0.0983
  730MOL0     C96248   0.767   7.770   6.548  0.2545 -0.1266 -0.8784
  730MOL0     C96249   0.633   7.844   6.532  0.0975 -0.4194  0.2535
  730MOL0     C96250   0.536   7.806   6.647 -0.2749  0.3933 -0.4057
  730MOL0     C96251   0.411   7.898   6.638  0.3063 -0.9174 -0.0962
  730MOL0     O96252   0.328   7.888   6.519 -0.5942 -0.1063  0.1865
  730MOL0     C96253   0.211   7.959   6.519 -0.1823 -0.7734  0.1843
  730MOL0     C96254   0.152   7.960   6.388 -0.0915  0.3071 -0.4104
  730MOL0     C96255   0.035   8.021   6.373  0.3861 -0.7479  0.4064
  730MOL0     C96256  -0.044   8.068   6.482  0.0459  0.1193  0.0903
  730MOL0     C96257  -0.182   8.108   6.469  1.2295  0.4597  0.7859
  730MOL0     O96258  -0.234   8.210   6.546  0.4339 -0.0338 -1.0671
  730MOL0     C96259  -0.368   8.217   6.575  0.6671 -0.1291 -0.1393
  730MOL0     C96260  -0.467   8.115   6.564  0.0730 -0.7313  0.0349
  730MOL0     C96261  -0.601   8.151   6.595 -0.6814  0.5186  0.5888
  730MOL0     C96262  -0.651   8.271   6.619  0.6463  0.2813  0.3723
  730MOL0     O96263  -0.784   8.304   6.611 -0.2842  0.0250  0.4142
  730MOL0     C96264  -0.827   8.429   6.674  0.6045  0.4219  0.6937
  730MOL0     C96265  -0.980   8.414   6.658  0.4601  0.4323  0.4378
  730MOL0     C96266  -1.048   8.519   6.742 -0.5491 -0.1758 -0.1425
  730MOL0     C96267  -1.194   8.526   6.714  0.1656  0.0062  0.0252
  730MOL0     C96268  -1.252   8.650   6.782  0.2199 -0.3858 -0.2482
  730MOL0     C96269  -1.396   8.674   6.733 -0.1250  0.3064  0.3107
  730MOL0     C96270  -1.444   8.794   6.831  0.9339  0.7328  0.3651
  730MOL0     C96271  -1.558   8.869   6.774 -0.5175  0.0332 -0.1147
  730MOL0    Cl96272  -1.582   9.016   6.875  0.3114 -0.2619 -0.4236
  730MOL0     C96273  -0.558   8.376   6.629 -1.1468  0.1128  0.5411
  730MOL0     C96274  -0.423   8.349   6.598  0.1187 -0.6586 -0.2891
  730MOL0     O96275  -0.250   8.050   6.380  0.3481  0.2691 -0.3068
  730MOL0     C96276   0.016   8.065   6.611  0.5626  0.7136 -0.3369
  730MOL0     C96277   0.149   8.009   6.628  0.0635 -0.0659  0.3396
  730MOL0     N96278   0.863   7.739   6.314 -0.5650 -0.3472 -0.1202
  730MOL0     N96279   0.950   7.794   6.243 -0.2597 -1.0135 -0.2478
  730MOL0     C96280   2.214   7.992   6.700 -0.8245 -0.0838 -0.9892
  730MOL0     C96281   2.349   7.970   6.716 -0.5750  1.0090  0.2857
  730MOL0     C96282   2.790   7.927   6.675 -0.4352 -1.1813  0.9932
  730MOL0     C96283   2.876   8.033   6.660 -0.1588 -0.4193  0.5782
  730MOL0     C96284   3.012   8.023   6.668  0.8368  0.0710 -0.0635
  730MOL0     C96285   3.069   7.903   6.707  0.7241 -0.5709 -0.5415
  730MOL0     O96286   3.199   7.892   6.724 -1.0577  0.3844  0.2534
  730MOL0     C96287   3.291   7.998   6.688 -0.0330  0.5982 -0.8842
  730MOL0     C96288   3.430   7.943   6.698 -0.1809 -0.5380 -0.9919
  730MOL0     C96289   3.450   7.828   6.600  0.5016  0.2332  0.1406
  730MOL0     C96290   3.533   7.714   6.669 -0.9969 -0.3840  0.5082
  730MOL0     C96291   3.657   7.766   6.725 -0.5903  0.0415  0.2329
  730MOL0     C96292   3.755   7.801   6.787  0.1144 -0.0584 -0.0141
  730MOL0     C96293   2.984   7.784   6.718 -0.1076  0.1453 -0.7078
  730MOL0     C96294   2.846   7.800   6.700 -0.0415 -0.4890 -0.1482
  730MOL0     H96295   2.399   7.716   6.490  2.5197  2.2126 -0.2533
  730MOL0     H96296   2.159   7.744   6.473 -1.8805  1.6477  0.0915
  730MOL0     H96297   1.907   7.787   6.496 -2.3087  0.3991 -0.1081
  730MOL0     H96298   1.981   7.926   6.404  0.5422  1.1496  0.2853
  730MOL0     H96299   1.809   8.082   6.492  0.3350  0.3095  0.2145
  730MOL0     H96300   1.737   7.947   6.581 -0.2445  1.6762  1.1463
  730MOL0     H96301   1.724   7.825   6.350  0.5969  0.2459 -1.4813
  730MOL0     H96302   1.753   7.977   6.280 -1.7945  2.4143  0.6303
  730MOL0     H96303   1.523   7.910   6.456  0.8596 -0.7176  0.5576
  730MOL0     H96304   1.570   8.076   6.403  0.1182 -0.9706  3.4939
  730MOL0     H96305   1.482   7.847   6.227 -3.1140  0.7316  1.1789
  730MOL0     H96306   1.565   7.994   6.160 -3.7050  1.9436 -2.5880
  730MOL0     H96307   1.338   8.052   6.114 -0.7640  1.5949 -0.1746
  730MOL0     H96308   1.365   8.122   6.270  0.7639 -1.3879  0.8123
  730MOL0     H96309   1.236   7.835   6.215 -1.4076 -0.6427  0.7571
  730MOL0     H96310   1.264   7.914   6.380 -1.4855  0.2303  0.3125
  730MOL0     H96311   1.086   8.019   6.154  3.7608  1.8187 -0.3379
  730MOL0     H96312   1.078   8.088   6.316 -2.9190 -0.8721 -0.1012
  730MOL0     H96313   0.953   7.986   6.511 -2.3990  0.0886  0.1548
  730MOL0     H96314   0.817   7.790   6.643  0.9389 -0.2158 -1.2148
  730MOL0     H96315   0.763   7.661   6.553  1.7831 -0.1773 -0.2974
  730MOL0     H96316   0.583   7.817   6.438 -0.4485 -3.2757  1.2700
  730MOL0     H96317   0.658   7.951   6.527  1.1562 -0.6761 -0.1677
  730MOL0     H96318   0.504   7.702   6.638  4.0004 -1.0401 -1.5509
  730MOL0     H96319   0.584   7.820   6.744 -0.2956  0.3624 -0.3909
  730MOL0     H96320   0.454   7.998   6.648  2.5332 -1.9462  1.4614
  730MOL0     H96321   0.343   7.870   6.720 -1.7504 -2.5374 -2.2205
  730MOL0     H96322   0.213   7.926   6.305 -1.3570 -3.3956 -0.0141
  730MOL0     H96323  -0.009   8.030   6.274 -0.0500 -1.2065  0.5530
  730MOL0     H96324  -0.436   8.016   6.531  2.8329 -0.0503  0.3265
  730MOL0     H96325  -0.687   8.084   6.596 -1.8184  1.8136 -2.2123
  730MOL0     H96326  -0.789   8.516   6.621 -0.1684  1.1090  1.2465
  730MOL0     H96327  -0.796   8.440   6.779  0.7199  1.6989  0.5431
  730MOL0     H96328  -1.012   8.315   6.691 -3.6793  2.5201  3.5729
  730MOL0     H96329  -1.006   8.429   6.552  3.0111  1.9412 -0.0853
  730MOL0     H96330  -1.003   8.611   6.704  0.5871 -0.9214 -0.6620
  730MOL0     H96331  -1.036   8.497   6.849 -2.7520 -1.8006 -0.1665
  730MOL0     H96332  -1.214   8.535   6.607 -2.4673  1.9728  0.5662
  730MOL0     H96333  -1.242   8.431   6.736  0.0681 -1.4560 -5.2275
  730MOL0     H96334  -1.192   8.737   6.755 -1.3444  0.8921  0.2123
  730MOL0     H96335  -1.249   8.644   6.891 -0.9717 -0.8915 -0.2216
  730MOL0     H96336  -1.454   8.584   6.755 -0.1550  0.1498 -0.3976
  730MOL0     H96337  -1.407   8.697   6.627  0.9601  2.1227  0.5557
  730MOL0     H96338  -1.470   8.751   6.928  0.1950  0.9487  0.2686
  730MOL0     H96339  -1.356   8.857   6.844  1.5375 -0.3683  1.8784
  730MOL0     H96340  -1.648   8.807   6.781 -0.4294  0.0067  0.9916
  730MOL0     H96341  -1.545   8.900   6.670 -0.6964  2.9629  0.6580
  730MOL0     H96342  -0.580   8.482   6.640 -1.0591  0.3091 -1.0006
  730MOL0     H96343  -0.363   8.438   6.606 -1.2552  0.4035 -1.2451
  730MOL0     H96344  -0.029   8.099   6.704  2.0200  0.4091  0.5159
  730MOL0     H96345   0.183   8.005   6.731  0.7114 -2.2516  0.1029
  730MOL0     H96346   2.180   8.075   6.761  2.1389 -0.3424  1.2511
  730MOL0     H96347   2.392   8.037   6.789 -0.7014  2.3872 -0.8548
  730MOL0     H96348   2.830   8.120   6.615 -1.3135 -0.9876  0.6194
  730MOL0     H96349   3.064   8.114   6.640 -0.4212 -0.1402 -3.6119
  730MOL0     H96350   3.267   8.075   6.762  0.0909  0.4228 -0.6586
  730MOL0     H96351   3.278   8.052   6.594  1.5363  1.9046 -0.4116
  730MOL0     H96352   3.504   8.023   6.684 -1.0492  0.2705 -1.0620
  730MOL0     H96353   3.436   7.908   6.802  0.3478  3.3280  0.4537
  730MOL0     H96354   3.496   7.850   6.503  0.6560  1.2341  0.4293
  730MOL0     H96355   3.351   7.784   6.582  0.0724  0.9176  0.7890
  730MOL0     H96356   3.473   7.656   6.740 -0.7111 -2.2152 -0.6822
  730MOL0     H96357   3.560   7.642   6.591  0.4694  1.4791 -0.7937
  730MOL0     H96358   3.846   7.833   6.833 -0.5203  2.6079 -0.4367
  730MOL0     H96359   3.029   7.689   6.746 -1.2901 -0.5574 -1.1024
  730MOL0     H96360   2.778   7.717   6.718  1.8510 -1.7336  1.6723
  731MOL0     O96361   4.151   9.159   1.800  0.1433 -0.8430 -0.4775
  731MOL0     C96362   4.169   9.253   1.875 -0.0364  0.2696  0.2220
  731MOL0     O96363   4.120   9.378   1.855 -0.1282 -0.0399 -0.3613
  731MOL0     C96364   4.043   9.400   1.749  0.7616  0.1875 -0.6921
  731MOL0     C96365   4.094   9.439   1.624  0.7082 -0.5392 -0.0551
  731MOL0     C96366   4.007   9.456   1.519 -0.0687  0.2131 -0.0625
  731MOL0     C96367   3.870   9.431   1.535 -0.8557  0.7105 -0.5504
  731MOL0     O96368   3.798   9.440   1.417  0.3278  0.3409 -0.3287
  731MOL0     C96369   3.659   9.482   1.440 -0.2863  0.0592  0.7032
  731MOL0     C96370   3.600   9.516   1.306 -0.0785  0.3129  0.5193
  731MOL0     C96371   3.475   9.422   1.292  0.6465 -0.2811  0.1904
  731MOL0     C96372   3.399   9.455   1.167  0.9100  0.2553 -0.4957
  731MOL0     C96373   3.282   9.355   1.157  0.0417  0.3599 -0.1473
  731MOL0     C96374   3.171   9.414   1.075  0.2996 -0.2794  0.3406
  731MOL0     C96375   3.092   9.287   1.037  0.2903 -0.2318  0.2595
  731MOL0     C96376   2.981   9.340   0.947  0.0512  0.3878  0.2987
  731MOL0     N96377   2.846   9.294   0.992 -0.1593 -0.5113 -0.2242
  731MOL0     C96378   2.779   9.188   0.934  0.7753 -0.0207 -0.1354
  731MOL0     C96379   2.664   9.191   1.003  1.2060 -0.1209  0.1090
  731MOL0     C96380   2.540   9.103   0.983 -0.2401  0.0190 -0.5417
  731MOL0     C96381   2.568   8.961   1.027 -0.4677  0.3154 -0.5376
  731MOL0     C96382   2.481   8.848   0.976  0.3879 -0.3281 -0.0607
  731MOL0     C96383   2.344   8.839   1.053  0.4502 -1.2027  0.0011
  731MOL0     O96384   2.274   8.965   1.029 -0.2569 -0.2636 -0.0919
  731MOL0     C96385   2.149   8.973   1.089  1.2148 -0.2070  0.4356
  731MOL0     C96386   2.049   8.901   1.027  0.9439  0.4584 -1.0012
  731MOL0     C96387   1.913   8.926   1.070  0.4490 -1.0633  0.0411
  731MOL0     C96388   1.883   9.029   1.162  0.3602  0.1886 -0.7535
  731MOL0     C96389   1.737   9.080   1.197  0.0016 -0.1416  0.4407
  731MOL0     O96390   1.728   9.155   1.315  0.9126 -0.4200  0.4380
  731MOL0     C96391   1.603   9.172   1.355  0.6194 -1.1220 -1.4600
  731MOL0     C96392   1.518   9.276   1.316 -0.5484 -0.2362  0.0548
  731MOL0     C96393   1.385   9.291   1.361 -0.7092  0.7027 -0.4527
  731MOL0     C96394   1.335   9.196   1.451  0.0554 -0.2329 -0.0722
  731MOL0     O96395   1.196   9.198   1.465 -0.3280  0.9246 -0.6988
  731MOL0     C96396   1.135   9.112   1.568  0.3630 -0.1047 -0.2244
  731MOL0     C96397   0.980   9.126   1.555 -0.2755 -0.8585  0.1601
  731MOL0     C96398   0.898   9.030   1.643 -0.2044 -0.0140 -1.1068
  731MOL0     C96399   0.761   9.017   1.583 -0.6178  0.6526 -0.0911
  731MOL0     C96400   0.651   9.130   1.607 -0.1612 -0.3903  0.2115
  731MOL0     C96401   0.509   9.088   1.554 -0.3695  0.7314  0.2087
  731MOL0     C96402   0.394   9.192   1.568  0.0798  0.2331  0.0640
  731MOL0     C96403   0.265   9.131   1.541  0.6156  0.1582 -0.4064
  731MOL0    Cl96404   0.233   9.015   1.674 -0.3216 -0.0278 -0.0607
  731MOL0     C96405   1.420   9.100   1.505  0.4002 -0.2596  0.1413
  731MOL0     C96406   1.550   9.086   1.457 -0.9739  0.5031 -0.7153
  731MOL0     O96407   1.646   9.044   1.123 -0.0903  0.7064  0.3894
  731MOL0     C96408   1.989   9.097   1.226 -0.4958  0.4313 -0.5214
  731MOL0     C96409   2.118   9.074   1.184 -1.4543 -0.7887 -0.7604
  731MOL0     N96410   2.662   9.292   1.102 -0.1678 -0.6619 -0.4485
  731MOL0     N96411   2.779   9.344   1.103 -0.1364  0.4598 -0.1271
  731MOL0     C96412   3.819   9.402   1.662 -0.2944  0.6098  0.1472
  731MOL0     C96413   3.908   9.385   1.768 -0.1686  0.0982  0.5825
  731MOL0     C96414   4.261   9.218   1.988  0.7438  0.9647 -0.0329
  731MOL0     C96415   4.286   9.086   2.033  0.5742  0.0498  0.8057
  731MOL0     C96416   4.381   9.067   2.129  0.7057 -0.1136 -0.3507
  731MOL0     C96417   4.451   9.173   2.190 -0.3828  0.1767  0.2314
  731MOL0     O96418   4.548   9.139   2.285 -0.1247  0.0130  0.0336
  731MOL0     C96419   4.625   9.239   2.348  0.2959 -0.2099 -0.1908
  731MOL0     C96420   4.687   9.186   2.476 -0.5196 -0.3859  0.0418
  731MOL0     C96421   4.820   9.260   2.504 -0.4589 -0.3527  0.4148
  731MOL0     C96422   4.882   9.238   2.645  0.1329 -0.1945  0.4829
  731MOL0     C96423   4.881   9.103   2.712  0.5940 -0.1214  0.1773
  731MOL0     C96424   4.881   8.999   2.763 -1.0429  0.2679  0.3829
  731MOL0     C96425   4.430   9.296   2.148 -0.0259  0.0753  0.0071
  731MOL0     C96426   4.331   9.318   2.053 -0.3251  0.3574  0.4837
  731MOL0     H96427   4.201   9.453   1.610  1.0811 -1.2511  1.8177
  731MOL0     H96428   4.045   9.494   1.424 -0.9864  3.0835  0.6289
  731MOL0     H96429   3.651   9.570   1.503  0.7153  0.9164 -0.3196
  731MOL0     H96430   3.610   9.397   1.488  1.0114 -0.2495  1.5383
  731MOL0     H96431   3.669   9.494   1.224 -1.0624  0.6523 -0.4270
  731MOL0     H96432   3.585   9.624   1.301 -0.2509  0.2673 -0.0576
  731MOL0     H96433   3.411   9.439   1.379  0.2392  2.8727 -0.6010
  731MOL0     H96434   3.510   9.319   1.285  3.2291  0.2039  3.2581
  731MOL0     H96435   3.363   9.558   1.160 -1.1748 -0.5259 -3.7320
  731MOL0     H96436   3.462   9.439   1.079 -0.1702  2.3419 -1.7158
  731MOL0     H96437   3.235   9.324   1.251 -0.2843  1.5335  0.1047
  731MOL0     H96438   3.324   9.266   1.111 -1.1938 -0.5216  0.3724
  731MOL0     H96439   3.204   9.467   0.985  2.4224  0.0250  1.2572
  731MOL0     H96440   3.105   9.480   1.132  0.1513  1.1242 -1.3871
  731MOL0     H96441   3.156   9.220   0.980 -0.2791 -1.6458  1.2305
  731MOL0     H96442   3.056   9.236   1.128 -0.3007  0.9548  0.7205
  731MOL0     H96443   2.994   9.313   0.842 -2.6684  0.2229 -0.0730
  731MOL0     H96444   2.966   9.449   0.943 -0.6687  0.6452  4.5584
  731MOL0     H96445   2.809   9.126   0.850 -1.9772  0.6864 -1.7651
  731MOL0     H96446   2.520   9.113   0.876 -1.9881  0.5290 -0.1962
  731MOL0     H96447   2.457   9.149   1.037 -0.5468 -2.3151  1.1147
  731MOL0     H96448   2.570   8.955   1.136  2.1207  0.3155 -0.5083
  731MOL0     H96449   2.668   8.934   0.990 -0.8154 -1.5360 -0.2343
  731MOL0     H96450   2.458   8.846   0.869  1.0944  0.5253 -0.2438
  731MOL0     H96451   2.530   8.754   1.005 -1.5768 -0.7274  2.2735
  731MOL0     H96452   2.354   8.799   1.155  0.9356 -0.4575  0.2551
  731MOL0     H96453   2.298   8.769   0.983  2.2317 -1.2351 -1.1947
  731MOL0     H96454   2.064   8.820   0.956 -1.6889 -2.0536  1.0468
  731MOL0     H96455   1.841   8.860   1.023 -2.7880  1.7393  0.6130
  731MOL0     H96456   1.564   9.353   1.254  1.1852  0.7519  2.4069
  731MOL0     H96457   1.317   9.364   1.318 -1.4120 -0.4151 -1.2724
  731MOL0     H96458   1.170   9.140   1.667  1.7894 -3.7490  0.4357
  731MOL0     H96459   1.158   9.007   1.550 -0.8967 -0.3658 -0.4433
  731MOL0     H96460   0.953   9.103   1.452 -2.1388 -3.5722  1.1307
  731MOL0     H96461   0.948   9.228   1.578  3.1397  0.2194  0.7104
  731MOL0     H96462   0.895   9.067   1.746  2.6772  1.5662 -1.5031
  731MOL0     H96463   0.946   8.932   1.653  2.0506  1.0988 -0.3522
  731MOL0     H96464   0.771   9.001   1.475  1.1464  2.6904 -0.2970
  731MOL0     H96465   0.725   8.923   1.625  0.7305 -0.6812 -1.7906
  731MOL0     H96466   0.687   9.223   1.564 -0.2212 -0.0246  0.9332
  731MOL0     H96467   0.635   9.147   1.714  1.0548 -0.4149  0.4068
  731MOL0     H96468   0.475   8.998   1.606 -2.4430  0.8715 -0.7988
  731MOL0     H96469   0.526   9.053   1.451  3.7247 -1.8194  1.5154
  731MOL0     H96470   0.415   9.250   1.658  1.3847  1.5302 -1.0097
  731MOL0     H96471   0.415   9.264   1.488  0.3014 -0.5388 -0.5907
  731MOL0     H96472   0.263   9.067   1.452 -2.7135 -2.5402  1.3758
  731MOL0     H96473   0.180   9.200   1.535  1.0619  0.6354 -1.7210
  731MOL0     H96474   1.396   9.023   1.578  1.6561  0.1588  1.0360
  731MOL0     H96475   1.608   9.008   1.504 -3.2992  0.6216  2.6558
  731MOL0     H96476   1.972   9.172   1.302 -0.8013 -0.1746  0.0273
  731MOL0     H96477   2.195   9.127   1.239 -1.6959  0.7774 -1.8564
  731MOL0     H96478   3.712   9.395   1.677  0.0166  0.7310  3.2423
  731MOL0     H96479   3.869   9.363   1.867 -0.3608  1.3958  0.8091
  731MOL0     H96480   4.247   9.007   1.969 -0.1944  2.0872 -1.3632
  731MOL0     H96481   4.405   8.968   2.166  1.5083  0.7928  1.6930
  731MOL0     H96482   4.564   9.324   2.379  0.6098 -0.0566  0.0074
  731MOL0     H96483   4.708   9.262   2.281  0.8144 -3.0190 -0.6606
  731MOL0     H96484   4.620   9.199   2.561 -0.1683  1.6009  0.0635
  731MOL0     H96485   4.721   9.083   2.467  1.0235  0.1989 -1.3569
  731MOL0     H96486   4.802   9.366   2.485  3.6398  1.3031  4.1047
  731MOL0     H96487   4.897   9.217   2.439  1.1011  2.0140  0.5750
  731MOL0     H96488   4.984   9.277   2.641  0.8226 -1.8936  0.5032
  731MOL0     H96489   4.826   9.303   2.713 -0.9736  2.2360 -2.5263
  731MOL0     H96490   4.894   8.900   2.800 -1.5127 -0.2590 -0.7953
  731MOL0     H96491   4.487   9.372   2.200  2.8122 -1.5315 -0.5492
  731MOL0     H96492   4.311   9.423   2.033  3.1681  0.4366 -4.1577
  732MOL0     O96493   0.601   7.346   7.577  0.6355  0.0200  0.3746
  732MOL0     C96494   0.519   7.256   7.586 -0.5559 -0.8735 -0.6841
  732MOL0     O96495   0.532   7.152   7.663 -0.3100 -0.3079 -0.0170
  732MOL0     C96496   0.647   7.148   7.744  0.0225  0.3227  0.2083
  732MOL0     C96497   0.650   7.193   7.876 -0.0629  0.4584  0.3630
  732MOL0     C96498   0.769   7.188   7.952 -0.0653  0.2659  0.0845
  732MOL0     C96499   0.882   7.118   7.907 -0.1794  0.7263 -0.6316
  732MOL0     O96500   0.982   7.111   8.004 -0.2221 -0.0428  0.2759
  732MOL0     C96501   1.098   7.038   7.965 -0.1811  0.3160  0.6452
  732MOL0     C96502   1.203   7.032   8.081  0.7730  0.4644 -0.0804
  732MOL0     C96503   1.245   7.166   8.121  0.3025 -0.1723 -0.0194
  732MOL0     C96504   1.328   7.221   8.011 -0.6212 -0.6149  0.2928
  732MOL0     C96505   1.381   7.363   8.051  0.2082 -0.2159  0.2206
  732MOL0     C96506   1.483   7.352   8.164  0.8323  0.5332 -0.2884
  732MOL0     C96507   1.542   7.479   8.202  0.0161 -0.1167 -0.3756
  732MOL0     C96508   1.650   7.470   8.313 -0.5681 -0.4448  0.1405
  732MOL0     N96509   1.600   7.404   8.439 -0.3578 -0.1259 -0.1936
  732MOL0     C96510   1.496   7.451   8.511  0.3545  0.0654 -0.8755
  732MOL0     C96511   1.442   7.345   8.569  0.6584 -0.4463 -0.4440
  732MOL0     C96512   1.317   7.339   8.660 -0.3498  0.9407  0.0044
  732MOL0     C96513   1.180   7.366   8.593  1.1016  0.1607  0.7776
  732MOL0     C96514   1.147   7.511   8.569 -0.6526  0.9313 -0.1583
  732MOL0     C96515   0.994   7.523   8.560  0.0903 -0.3013 -0.4003
  732MOL0     O96516   0.934   7.458   8.451 -0.4761  0.3506  0.8216
  732MOL0     C96517   0.802   7.470   8.423 -0.2467 -0.1171 -0.6679
  732MOL0     C96518   0.699   7.503   8.510 -0.2384 -0.7576  0.4467
  732MOL0     C96519   0.561   7.517   8.464 -0.0053 -0.4733 -0.1981
  732MOL0     C96520   0.529   7.479   8.336 -0.1033 -0.5558  0.2813
  732MOL0     C96521   0.389   7.477   8.283 -0.9256 -0.2277 -0.2532
  732MOL0     O96522   0.370   7.438   8.145 -0.4882 -0.6231 -0.4327
  732MOL0     C96523   0.261   7.475   8.065 -0.5669  0.1975 -0.2666
  732MOL0     C96524   0.162   7.567   8.104  0.5132  0.7826 -0.5829
  732MOL0     C96525   0.054   7.581   8.019  0.0364 -0.4177  0.5738
  732MOL0     C96526   0.037   7.508   7.895 -1.3298  0.5808 -0.6185
  732MOL0     O96527  -0.062   7.520   7.812  0.4119 -0.2332  0.9315
  732MOL0     C96528  -0.180   7.591   7.855  0.7819 -0.0988  1.4264
  732MOL0     C96529  -0.295   7.552   7.764 -0.2233  0.3118  0.1335
  732MOL0     C96530  -0.425   7.599   7.824 -0.2121  0.3953  0.1958
  732MOL0     C96531  -0.539   7.546   7.739  0.7912 -0.4751  0.6315
  732MOL0     C96532  -0.679   7.605   7.780  0.5461 -0.9606  0.1080
  732MOL0     C96533  -0.798   7.541   7.700 -0.6746 -0.3059  0.5461
  732MOL0     C96534  -0.940   7.572   7.747 -0.2432 -0.8662 -0.2906
  732MOL0     C96535  -1.063   7.493   7.713 -0.4043 -0.0380 -0.2580
  732MOL0    Cl96536  -1.096   7.525   7.545  0.6240  0.0752  0.0985
  732MOL0     C96537   0.142   7.421   7.859  0.7711 -0.1146 -0.0812
  732MOL0     C96538   0.256   7.404   7.937  0.3829 -0.3049  0.2550
  732MOL0     O96539   0.303   7.518   8.357  0.0859  0.3267  0.6092
  732MOL0     C96540   0.629   7.439   8.250 -0.3878 -0.9817 -0.6783
  732MOL0     C96541   0.764   7.434   8.294 -0.6915 -0.0460 -0.1752
  732MOL0     N96542   1.517   7.238   8.535 -0.4156  0.3120  0.3376
  732MOL0     N96543   1.619   7.275   8.463  0.4767 -0.7086  0.1427
  732MOL0     C96544   0.881   7.075   7.774  0.4143 -0.2693 -0.4851
  732MOL0     C96545   0.768   7.089   7.694 -0.1889  0.6020  0.1903
  732MOL0     C96546   0.386   7.276   7.513 -0.8830  0.8475  0.2061
  732MOL0     C96547   0.268   7.214   7.561 -0.4872 -0.1904 -0.2027
  732MOL0     C96548   0.150   7.235   7.495 -0.2951  0.1821 -0.0692
  732MOL0     C96549   0.140   7.302   7.373  0.0209  0.5009 -0.4269
  732MOL0     O96550   0.025   7.321   7.298  0.1303 -0.1846  0.6370
  732MOL0     C96551  -0.077   7.402   7.365  0.1619  0.0616 -0.8479
  732MOL0     C96552  -0.195   7.423   7.263 -0.3264  0.3458  0.1675
  732MOL0     C96553  -0.289   7.523   7.321 -0.4676 -0.6628 -0.0547
  732MOL0     C96554  -0.382   7.591   7.209  0.2382  0.5383 -0.1908
  732MOL0     C96555  -0.308   7.660   7.104 -0.1054  0.4240  0.3248
  732MOL0     C96556  -0.248   7.714   7.016 -0.3092 -0.2876  0.3219
  732MOL0     C96557   0.253   7.358   7.326 -0.2833  0.3075 -0.3640
  732MOL0     C96558   0.380   7.352   7.394 -0.0353 -0.1796 -0.0165
  732MOL0     H96559   0.564   7.223   7.936  0.7064 -2.6463  3.4239
  732MOL0     H96560   0.758   7.196   8.060  2.6208 -3.7122  0.8789
  732MOL0     H96561   1.138   7.088   7.877 -2.1639  0.4379 -0.2392
  732MOL0     H96562   1.071   6.935   7.941  3.8129 -0.6350 -0.4914
  732MOL0     H96563   1.286   6.967   8.052  1.1659  0.4731  0.9693
  732MOL0     H96564   1.160   6.972   8.162  0.4185  0.0853 -0.5457
  732MOL0     H96565   1.307   7.142   8.208  2.1410 -2.4314 -1.8090
  732MOL0     H96566   1.162   7.232   8.147 -1.0977 -1.0569 -1.9842
  732MOL0     H96567   1.420   7.165   7.993  0.5327  0.8733  1.2405
  732MOL0     H96568   1.272   7.236   7.918 -3.6288 -0.3304  2.0042
  732MOL0     H96569   1.292   7.411   8.091 -1.0041 -3.6343  1.9776
  732MOL0     H96570   1.420   7.402   7.956  0.3123 -1.6409 -0.3493
  732MOL0     H96571   1.568   7.296   8.123  0.4194  0.8531 -1.6307
  732MOL0     H96572   1.437   7.305   8.251 -1.6830  2.9707 -0.1659
  732MOL0     H96573   1.585   7.532   8.117 -2.1473 -0.4584 -1.7798
  732MOL0     H96574   1.462   7.543   8.240  0.0296  2.3202 -3.9590
  732MOL0     H96575   1.681   7.572   8.338 -0.5485 -0.1549 -1.0071
  732MOL0     H96576   1.743   7.422   8.280 -0.3114 -3.0360  4.0138
  732MOL0     H96577   1.465   7.555   8.516  0.3465  0.0194  0.2971
  732MOL0     H96578   1.331   7.414   8.739 -0.9282  1.4636 -0.3797
  732MOL0     H96579   1.313   7.235   8.693  3.9216  0.5879 -0.1212
  732MOL0     H96580   1.111   7.314   8.661  0.2069 -1.7723 -1.4725
  732MOL0     H96581   1.175   7.322   8.493  0.1051 -1.4714  1.5041
  732MOL0     H96582   1.183   7.569   8.654  1.2219 -1.0255  0.4761
  732MOL0     H96583   1.193   7.544   8.475  0.4465 -0.1414 -0.0214
  732MOL0     H96584   0.966   7.629   8.562 -1.5865 -0.7267  1.6795
  732MOL0     H96585   0.951   7.486   8.653 -0.1619  1.5031  0.2379
  732MOL0     H96586   0.719   7.513   8.616  0.9607  2.3016  0.0347
  732MOL0     H96587   0.482   7.553   8.529 -0.0382 -3.2673  1.4986
  732MOL0     H96588   0.159   7.622   8.198 -2.8988  1.7006 -1.0993
  732MOL0     H96589  -0.029   7.645   8.048  1.1862  1.4295 -0.0286
  732MOL0     H96590  -0.154   7.696   7.840 -0.6203 -0.0214 -0.8849
  732MOL0     H96591  -0.204   7.565   7.959 -1.3178 -0.0467  0.9905
  732MOL0     H96592  -0.310   7.444   7.764 -0.8716  0.3857 -0.7693
  732MOL0     H96593  -0.290   7.586   7.660 -1.7028  0.5041  0.1008
  732MOL0     H96594  -0.423   7.708   7.814  1.7852  0.4159  0.3636
  732MOL0     H96595  -0.439   7.565   7.926 -0.4032  1.2627  0.4687
  732MOL0     H96596  -0.530   7.566   7.632 -0.9302 -0.5156  0.4407
  732MOL0     H96597  -0.546   7.440   7.768 -1.2317 -0.1283  1.6120
  732MOL0     H96598  -0.684   7.713   7.763 -1.2519 -1.0226  0.0578
  732MOL0     H96599  -0.685   7.584   7.887  1.9693  0.8559  0.5981
  732MOL0     H96600  -0.792   7.434   7.680  2.1081 -0.0247 -0.7180
  732MOL0     H96601  -0.796   7.589   7.602 -4.1394 -0.9018  0.0778
  732MOL0     H96602  -0.946   7.589   7.855  0.6473  0.4084 -0.4158
  732MOL0     H96603  -0.954   7.671   7.702  1.2296  0.3225  1.6769
  732MOL0     H96604  -1.147   7.536   7.768 -1.3087 -2.7017  0.5950
  732MOL0     H96605  -1.047   7.386   7.729 -3.2724 -0.4316  0.6104
  732MOL0     H96606   0.139   7.371   7.762  1.1654 -1.1854  0.4438
  732MOL0     H96607   0.337   7.343   7.901 -0.0880 -0.0252 -1.3416
  732MOL0     H96608   0.619   7.414   8.145  1.7869 -1.9988 -0.6903
  732MOL0     H96609   0.840   7.417   8.218 -2.2468  1.5538 -2.2458
  732MOL0     H96610   0.964   7.013   7.740 -0.2730 -2.2893  1.2661
  732MOL0     H96611   0.776   7.051   7.593  2.0442  0.7533  0.2430
  732MOL0     H96612   0.281   7.151   7.648 -0.5590  0.2048  0.0972
  732MOL0     H96613   0.062   7.188   7.538  1.6632 -2.3083  1.4639
  732MOL0     H96614  -0.039   7.498   7.401  1.8742 -0.6918 -0.5392
  732MOL0     H96615  -0.115   7.341   7.449  2.4199  0.5033  0.5698
  732MOL0     H96616  -0.139   7.473   7.183  1.1278 -1.2621  0.1232
  732MOL0     H96617  -0.243   7.330   7.229  0.9035 -1.4645  2.9879
  732MOL0     H96618  -0.238   7.607   7.369  0.0867 -0.0811 -1.6224
  732MOL0     H96619  -0.359   7.476   7.392  0.2896  0.8772  1.8004
  732MOL0     H96620  -0.430   7.506   7.160  1.0424 -0.5892  0.9338
  732MOL0     H96621  -0.459   7.657   7.251 -1.3395 -0.4372 -1.4593
  732MOL0     H96622  -0.197   7.766   6.938 -1.3568 -0.2811 -0.3767
  732MOL0     H96623   0.250   7.427   7.241 -0.1715  0.8298  0.0487
  732MOL0     H96624   0.467   7.383   7.338 -1.0760 -0.1255 -1.6889
  733MOL0     O96625   0.781   0.975   3.721  0.6936 -0.6007 -0.2332
  733MOL0     C96626   0.827   0.931   3.616 -0.0937 -0.1704 -0.4750
  733MOL0     O96627   0.760   0.874   3.516  0.1547  0.4653 -0.1968
  733MOL0     C96628   0.621   0.873   3.507  0.1589 -0.7652 -0.8257
  733MOL0     C96629   0.538   0.986   3.495 -0.2144  0.4399 -0.6525
  733MOL0     C96630   0.396   0.972   3.480 -0.0234 -0.0934 -0.1106
  733MOL0     C96631   0.336   0.848   3.468  0.1864 -0.4143 -0.1269
  733MOL0     O96632   0.203   0.824   3.460 -0.5695  0.1384  0.4325
  733MOL0     C96633   0.104   0.924   3.419  0.3978  0.0105 -0.4606
  733MOL0     C96634  -0.013   0.914   3.522  0.0897 -0.2026 -0.3671
  733MOL0     C96635   0.011   0.977   3.662  0.0748  0.1258  0.8381
  733MOL0     C96636  -0.112   0.940   3.750  0.6483  0.1322  0.2071
  733MOL0     C96637  -0.091   0.983   3.892 -0.2855  0.4337  0.0921
  733MOL0     C96638  -0.054   1.126   3.912  0.3282  0.2700  0.7006
  733MOL0     C96639  -0.031   1.155   4.059  0.1048  0.1063  0.4726
  733MOL0     C96640   0.030   1.300   4.089  1.1122  0.0354 -0.6675
  733MOL0     N96641  -0.051   1.397   4.028 -0.4584 -0.6154  0.4019
  733MOL0     C96642  -0.194   1.414   4.049  0.8731  0.3913 -0.5425
  733MOL0     C96643  -0.230   1.505   3.958  0.2523 -0.1737 -0.2123
  733MOL0     C96644  -0.362   1.565   3.923  0.3557 -0.2251 -0.3486
  733MOL0     C96645  -0.474   1.496   4.001 -0.2356  0.4180 -0.1476
  733MOL0     C96646  -0.610   1.539   3.955  0.1738 -0.4654  0.2216
  733MOL0     C96647  -0.726   1.467   4.026  0.2495  0.0893 -0.1334
  733MOL0     O96648  -0.849   1.524   3.973 -0.4363 -0.0941  0.4143
  733MOL0     C96649  -0.966   1.514   4.045 -0.0822  1.3429 -0.2061
  733MOL0     C96650  -0.987   1.456   4.174 -0.0876 -0.4938  0.8303
  733MOL0     C96651  -1.121   1.452   4.238  0.2623 -0.1545  0.7728
  733MOL0     C96652  -1.235   1.513   4.169  0.3578 -0.3039 -0.0822
  733MOL0     C96653  -1.361   1.516   4.238  0.8321  0.1166 -0.0436
  733MOL0     O96654  -1.474   1.550   4.167 -0.3711  0.2151  0.6529
  733MOL0     C96655  -1.599   1.577   4.227  0.3016  0.7191  0.8262
  733MOL0     C96656  -1.641   1.528   4.358 -0.3167  0.7809 -0.7284
  733MOL0     C96657  -1.764   1.557   4.412 -0.6979  0.1298 -0.7646
  733MOL0     C96658  -1.856   1.625   4.341 -0.5336 -0.3201 -0.7754
  733MOL0     O96659  -1.973   1.629   4.406  0.9073  0.2230  0.3218
  733MOL0     C96660  -2.094   1.665   4.339 -0.6387  0.5578  0.2329
  733MOL0     C96661  -2.213   1.624   4.423  0.1199  1.5417  0.0663
  733MOL0     C96662  -2.220   1.474   4.454 -0.4330  0.5211  0.2407
  733MOL0     C96663  -2.356   1.440   4.511 -0.1698  0.0397 -0.3359
  733MOL0     C96664  -2.385   1.290   4.545 -0.7725  0.1901  0.8223
  733MOL0     C96665  -2.516   1.275   4.617 -0.6687 -1.0041 -0.0377
  733MOL0     C96666  -2.526   1.124   4.660 -0.3582 -0.0930 -0.5059
  733MOL0     C96667  -2.670   1.069   4.639 -0.3758 -1.0769  0.6099
  733MOL0    Cl96668  -2.775   1.130   4.769 -0.4645 -0.1379  0.2711
  733MOL0     C96669  -1.819   1.667   4.212  0.3257  1.2745 -0.1255
  733MOL0     C96670  -1.696   1.644   4.148 -0.4058  0.2739 -0.3212
  733MOL0     O96671  -1.356   1.523   4.361  0.1339  0.0841 -0.7064
  733MOL0     C96672  -1.213   1.568   4.040  0.7729  0.4272  1.0414
  733MOL0     C96673  -1.078   1.573   3.988  0.8393  0.3502  0.9649
  733MOL0     N96674  -0.114   1.541   3.879 -0.4412 -0.5305  0.5491
  733MOL0     N96675  -0.018   1.464   3.916 -0.1301 -0.8217  0.1204
  733MOL0     C96676   0.413   0.737   3.500  0.3831  0.6979 -0.1945
  733MOL0     C96677   0.551   0.750   3.524 -0.5794 -0.5006  0.0251
  733MOL0     C96678   0.971   0.912   3.627 -0.1872 -0.6644 -0.2904
  733MOL0     C96679   1.053   1.004   3.698  0.5548  0.5732  0.1032
  733MOL0     C96680   1.186   0.988   3.700 -0.7251 -0.5372 -0.1801
  733MOL0     C96681   1.246   0.866   3.649  0.1864 -0.4277  0.3289
  733MOL0     O96682   1.381   0.842   3.674 -0.0865 -0.1774 -0.4432
  733MOL0     C96683   1.429   0.708   3.682  0.2565 -0.1501 -0.4989
  733MOL0     C96684   1.579   0.687   3.660  0.2844 -0.0013 -0.0047
  733MOL0     C96685   1.661   0.740   3.786  0.6091 -0.2520  0.6992
  733MOL0     C96686   1.810   0.735   3.745  0.5632  0.6270  0.0282
  733MOL0     C96687   1.849   0.833   3.652  0.3964 -0.2026 -0.0727
  733MOL0     C96688   1.881   0.925   3.569 -0.0321 -0.2728 -0.3621
  733MOL0     C96689   1.166   0.770   3.578 -0.6607  0.6402 -0.4213
  733MOL0     C96690   1.028   0.797   3.563 -1.0418  0.4603 -0.7986
  733MOL0     H96691   0.593   1.080   3.496  2.9130 -1.2256  0.8692
  733MOL0     H96692   0.342   1.066   3.473 -0.1442  0.1081  2.5984
  733MOL0     H96693   0.056   0.905   3.323 -0.7823 -1.5706  0.4086
  733MOL0     H96694   0.135   1.029   3.423 -2.2756  0.8299  2.2697
  733MOL0     H96695  -0.026   0.807   3.543  0.3332 -0.2849 -0.6316
  733MOL0     H96696  -0.107   0.956   3.486 -0.9135 -2.5112 -0.5952
  733MOL0     H96697   0.033   1.082   3.641  1.7332 -0.6385 -1.6144
  733MOL0     H96698   0.097   0.919   3.698 -0.5955 -1.2151  0.3688
  733MOL0     H96699  -0.204   0.991   3.718  1.0127 -0.8284 -2.6198
  733MOL0     H96700  -0.132   0.832   3.746 -2.2872  0.5732 -4.3628
  733MOL0     H96701  -0.016   0.922   3.944  0.8167  1.9816  0.3885
  733MOL0     H96702  -0.183   0.957   3.946  0.4360 -0.9981  0.6832
  733MOL0     H96703  -0.128   1.192   3.866  0.3157 -0.8348 -0.9631
  733MOL0     H96704   0.036   1.143   3.853 -0.1238 -1.8745 -0.7514
  733MOL0     H96705  -0.118   1.132   4.121 -1.2743  2.4947 -0.4460
  733MOL0     H96706   0.051   1.088   4.090 -0.9941 -1.3907  0.2323
  733MOL0     H96707   0.130   1.315   4.049  1.0142  1.0720 -0.5427
  733MOL0     H96708   0.030   1.326   4.196 -1.8495  0.3446 -0.6524
  733MOL0     H96709  -0.245   1.363   4.130 -0.9742 -1.1630 -2.5607
  733MOL0     H96710  -0.377   1.570   3.815 -1.2194 -0.5669 -0.1652
  733MOL0     H96711  -0.365   1.669   3.955 -3.7119 -0.5063  0.6712
  733MOL0     H96712  -0.464   1.519   4.107 -1.6512 -1.5483  0.4784
  733MOL0     H96713  -0.470   1.387   3.986  0.2022 -0.1616  3.4270
  733MOL0     H96714  -0.627   1.645   3.976  3.3772  0.1140  0.2804
  733MOL0     H96715  -0.616   1.525   3.846 -0.2493 -1.4424  0.3607
  733MOL0     H96716  -0.717   1.481   4.134  0.4548 -1.3832  0.0632
  733MOL0     H96717  -0.731   1.361   4.003  0.1536  0.3054 -1.1507
  733MOL0     H96718  -0.905   1.403   4.220  0.2860  0.2957  1.0915
  733MOL0     H96719  -1.134   1.401   4.332  0.6777  0.4172  1.1416
  733MOL0     H96720  -1.576   1.463   4.416  2.0469  3.6454  0.0817
  733MOL0     H96721  -1.794   1.515   4.507 -1.3407  1.2766 -0.4484
  733MOL0     H96722  -2.095   1.607   4.246  1.7131  0.2052  0.3735
  733MOL0     H96723  -2.107   1.772   4.316 -0.8895  1.0171  2.3248
  733MOL0     H96724  -2.308   1.655   4.378  1.0694 -0.8206 -4.0242
  733MOL0     H96725  -2.195   1.670   4.521  2.4858  1.0386 -0.0733
  733MOL0     H96726  -2.150   1.450   4.535 -0.2578 -0.0548 -0.0788
  733MOL0     H96727  -2.196   1.418   4.363  6.3989  2.9618 -0.1092
  733MOL0     H96728  -2.368   1.494   4.605 -2.2836  1.0474 -1.1230
  733MOL0     H96729  -2.438   1.477   4.448 -1.6145  4.7029  3.6760
  733MOL0     H96730  -2.310   1.258   4.617  0.2397  0.5216 -0.0665
  733MOL0     H96731  -2.383   1.220   4.461 -3.1906 -0.7948  1.4905
  733MOL0     H96732  -2.600   1.308   4.554 -2.5058 -1.4723  2.0432
  733MOL0     H96733  -2.536   1.332   4.708 -2.3413 -1.2140 -0.2399
  733MOL0     H96734  -2.448   1.060   4.616  0.6194  1.2833 -0.8443
  733MOL0     H96735  -2.504   1.123   4.767  0.9206 -1.9298 -0.7288
  733MOL0     H96736  -2.678   0.963   4.613  1.0034 -1.1953  0.6055
  733MOL0     H96737  -2.699   1.117   4.545  1.0626 -1.2552  0.0597
  733MOL0     H96738  -1.898   1.712   4.153  0.4372 -0.9153 -2.0874
  733MOL0     H96739  -1.673   1.681   4.048  2.0010 -0.4286 -0.1057
  733MOL0     H96740  -1.297   1.603   3.981 -0.4087 -2.1505  1.0408
  733MOL0     H96741  -1.050   1.628   3.898  0.6641 -0.4085  0.4393
  733MOL0     H96742   0.362   0.645   3.523  1.3866  0.7261  2.5946
  733MOL0     H96743   0.604   0.658   3.546  1.1173  0.4104 -0.1199
  733MOL0     H96744   1.010   1.090   3.747 -2.9168 -0.7040 -0.4188
  733MOL0     H96745   1.251   1.060   3.749  0.2484 -1.0182 -0.7388
  733MOL0     H96746   1.386   0.632   3.615 -0.8462 -0.7911  0.8860
  733MOL0     H96747   1.398   0.681   3.783  3.9211 -0.8605  0.5766
  733MOL0     H96748   1.585   0.578   3.653 -0.3608 -0.0763  0.5317
  733MOL0     H96749   1.603   0.745   3.570 -5.2018  2.3205 -0.4156
  733MOL0     H96750   1.650   0.682   3.878  1.0579 -2.0481 -0.3257
  733MOL0     H96751   1.632   0.841   3.815  0.1615  0.1652 -1.0739
  733MOL0     H96752   1.865   0.753   3.838  0.2228  0.7876  0.2004
  733MOL0     H96753   1.819   0.630   3.713 -1.3205 -0.6159  3.0956
  733MOL0     H96754   1.917   1.001   3.503  0.5450  0.8248  1.1505
  733MOL0     H96755   1.217   0.692   3.523  0.9490  1.3288  0.0518
  733MOL0     H96756   0.972   0.726   3.501 -3.8055  1.0307  0.8688
  734MOL0     O96757   9.683   7.572   5.574  0.4401  0.2932 -0.0253
  734MOL0     C96758   9.747   7.484   5.641  0.3658  0.7431 -0.5769
  734MOL0     O96759   9.726   7.454   5.771  0.2731  0.3877  0.7581
  734MOL0     C96760   9.623   7.497   5.842  1.3442  0.2207  0.1108
  734MOL0     C96761   9.490   7.511   5.801  0.7111  0.2911  0.4679
  734MOL0     C96762   9.389   7.543   5.897 -0.5762  0.3519 -0.1438
  734MOL0     C96763   9.435   7.577   6.028  0.4320  0.4551 -0.6851
  734MOL0     O96764   9.350   7.615   6.133  0.8641  0.4334 -0.4659
  734MOL0     C96765   9.209   7.631   6.117  0.2243  0.2202  0.3927
  734MOL0     C96766   9.148   7.620   6.253 -0.1443 -0.3171 -0.2621
  734MOL0     C96767   9.010   7.673   6.269  0.1956 -0.0498  0.8190
  734MOL0     C96768   8.904   7.582   6.196 -0.8771 -0.1452 -0.2139
  734MOL0     C96769   8.765   7.640   6.192  0.6568 -0.0729 -0.2110
  734MOL0     C96770   8.751   7.750   6.089  0.5174 -0.5993  0.0046
  734MOL0     C96771   8.599   7.770   6.059  0.6444 -0.1983 -0.1490
  734MOL0     C96772   8.570   7.857   5.937 -0.1538 -0.1635 -0.0687
  734MOL0     N96773   8.424   7.894   5.939  0.8022  0.1167  0.3368
  734MOL0     C96774   8.355   7.953   6.035 -0.5235 -0.2821 -0.6694
  734MOL0     C96775   8.230   7.943   5.984 -0.3581  0.0637  0.4415
  734MOL0     C96776   8.113   8.015   6.055 -0.1713 -0.5070  1.1708
  734MOL0     C96777   7.969   7.936   6.055 -0.0673  0.4419 -0.2600
  734MOL0     C96778   7.846   8.030   6.078  0.5236  0.5055  0.2683
  734MOL0     C96779   7.718   7.948   6.049 -0.4956 -0.8468 -0.5601
  734MOL0     O96780   7.607   8.024   6.099  0.9699 -0.1881  0.6985
  734MOL0     C96781   7.477   7.976   6.079 -0.2426  0.9972  0.3641
  734MOL0     C96782   7.445   7.848   6.023 -0.1977  0.0847  0.6692
  734MOL0     C96783   7.324   7.819   5.977  0.4111  0.0576 -0.3279
  734MOL0     C96784   7.210   7.890   6.008 -0.2020  0.6357  0.8577
  734MOL0     C96785   7.075   7.844   5.966  0.4854 -0.3128 -0.5627
  734MOL0     O96786   7.072   7.728   5.891  0.2540 -0.2810 -0.5345
  734MOL0     C96787   6.947   7.670   5.884 -0.1445 -0.7645  0.6172
  734MOL0     C96788   6.866   7.711   5.782 -0.0812  0.1983  0.3607
  734MOL0     C96789   6.738   7.654   5.756 -0.3908 -0.1900  0.9361
  734MOL0     C96790   6.700   7.545   5.830 -0.9786 -0.1752  0.0516
  734MOL0     O96791   6.579   7.495   5.800  0.0011  0.0941  0.4096
  734MOL0     C96792   6.494   7.465   5.913 -0.9346  0.6100  0.4121
  734MOL0     C96793   6.349   7.475   5.862  0.2366  0.1818  0.3897
  734MOL0     C96794   6.256   7.449   5.975 -0.2422 -0.5397  0.1782
  734MOL0     C96795   6.126   7.505   5.938  0.0426 -0.1793 -0.1063
  734MOL0     C96796   6.010   7.446   6.024 -0.1361 -0.6738 -0.4660
  734MOL0     C96797   5.872   7.515   6.000 -0.8434  0.6774  0.2041
  734MOL0     C96798   5.753   7.456   6.063 -0.5479  0.9880 -0.2829
  734MOL0     C96799   5.625   7.521   6.025  0.2764  0.1370  0.1976
  734MOL0    Cl96800   5.485   7.420   6.073  0.3060 -0.5284  0.6755
  734MOL0     C96801   6.786   7.492   5.932  0.5736  0.4560  0.7081
  734MOL0     C96802   6.907   7.555   5.963  0.5537  0.1831  0.9061
  734MOL0     O96803   6.972   7.910   6.002  0.1965  0.5666  0.8295
  734MOL0     C96804   7.238   8.016   6.065  0.2938 -0.4238 -0.4184
  734MOL0     C96805   7.366   8.055   6.106 -0.4759  0.2510  0.9707
  734MOL0     N96806   8.228   7.882   5.864  0.5137  0.4510 -0.1022
  734MOL0     N96807   8.344   7.844   5.835 -1.5924 -0.1250 -0.6503
  734MOL0     C96808   9.567   7.574   6.057  0.4340  0.7707 -0.8751
  734MOL0     C96809   9.657   7.524   5.968 -1.3422 -0.2559 -0.5032
  734MOL0     C96810   9.865   7.418   5.585  0.0711 -0.2131 -0.4913
  734MOL0     C96811   9.928   7.325   5.660  0.1327  0.7951  0.8600
  734MOL0     C96812  10.050   7.273   5.623 -0.1972 -0.4613  0.9455
  734MOL0     C96813  10.092   7.288   5.488 -0.2363 -0.1502  0.8435
  734MOL0     O96814  10.212   7.226   5.455  0.6441 -0.1723  0.4773
  734MOL0     C96815  10.252   7.224   5.317  1.0877 -0.7462  0.8429
  734MOL0     C96816  10.371   7.135   5.300 -0.2381 -0.0974  0.3623
  734MOL0     C96817  10.493   7.169   5.379  0.2166  0.5114 -0.7352
  734MOL0     C96818  10.567   7.284   5.324 -1.5702  0.2644  0.3442
  734MOL0     C96819  10.690   7.230   5.256  0.1432  0.3178 -1.3759
  734MOL0     C96820  10.782   7.162   5.215  1.0675  0.2670 -0.5456
  734MOL0     C96821  10.025   7.384   5.411  1.2042  0.2678  0.1884
  734MOL0     C96822   9.916   7.459   5.463  0.4758 -0.6522 -0.3461
  734MOL0     H96823   9.445   7.489   5.704 -1.8842  0.4581  1.5500
  734MOL0     H96824   9.282   7.533   5.882 -0.3302 -3.5656 -0.4940
  734MOL0     H96825   9.172   7.550   6.053 -3.5411  1.2132  1.0737
  734MOL0     H96826   9.181   7.725   6.069 -2.6637 -1.1593 -0.8957
  734MOL0     H96827   9.223   7.671   6.314  1.0091 -4.7565  2.4886
  734MOL0     H96828   9.158   7.516   6.285  0.1399 -0.3185 -0.3548
  734MOL0     H96829   9.000   7.773   6.228 -1.0941  1.1528  3.7811
  734MOL0     H96830   8.984   7.678   6.375  0.7806 -1.6819  1.0789
  734MOL0     H96831   8.951   7.554   6.101  1.8786 -0.5454  1.1374
  734MOL0     H96832   8.886   7.489   6.251 -0.7731 -0.8172 -1.2903
  734MOL0     H96833   8.727   7.674   6.289  0.1311 -0.2332 -0.3532
  734MOL0     H96834   8.691   7.568   6.155 -0.6790  1.9396 -1.6733
  734MOL0     H96835   8.818   7.734   6.004  1.1715  0.9859  0.1914
  734MOL0     H96836   8.803   7.834   6.134  0.4811 -0.4414 -0.2459
  734MOL0     H96837   8.556   7.671   6.046  3.8046 -1.8001  0.5082
  734MOL0     H96838   8.545   7.798   6.150  1.2291 -2.4218  0.9375
  734MOL0     H96839   8.588   7.793   5.851 -1.0965 -2.4574  1.3237
  734MOL0     H96840   8.625   7.951   5.941 -1.5442  0.7451 -1.3634
  734MOL0     H96841   8.390   7.995   6.129 -1.8000 -1.8570  0.5801
  734MOL0     H96842   8.099   8.106   5.996 -0.8308 -1.6297 -0.4927
  734MOL0     H96843   8.148   8.035   6.156  0.5351 -0.1176  0.8549
  734MOL0     H96844   7.973   7.857   6.130  0.7287 -1.0625 -1.8190
  734MOL0     H96845   7.942   7.893   5.958 -2.3703  1.1179  0.0087
  734MOL0     H96846   7.855   8.069   6.180  1.4803 -1.1877  0.8650
  734MOL0     H96847   7.851   8.105   5.999  0.2298 -0.4742 -0.7008
  734MOL0     H96848   7.716   7.857   6.110 -0.5776 -0.5778 -0.1556
  734MOL0     H96849   7.714   7.917   5.944  4.0709  0.6703 -1.4093
  734MOL0     H96850   7.520   7.773   6.001 -2.1806 -1.6299 -0.5730
  734MOL0     H96851   7.322   7.726   5.922  0.6686  0.9995 -2.0092
  734MOL0     H96852   6.908   7.779   5.708  2.1681 -2.2001 -0.7424
  734MOL0     H96853   6.676   7.702   5.681  1.9723  1.3070 -0.2227
  734MOL0     H96854   6.500   7.541   5.991 -3.2474  2.9146 -1.4514
  734MOL0     H96855   6.515   7.365   5.951  2.4098  0.3931 -1.6417
  734MOL0     H96856   6.339   7.402   5.780  0.2189 -1.8704  2.1276
  734MOL0     H96857   6.326   7.575   5.824 -2.1452  0.2249  1.7513
  734MOL0     H96858   6.287   7.499   6.067 -0.8493 -1.0125  0.6445
  734MOL0     H96859   6.248   7.342   5.998  2.9078 -0.8390  0.3460
  734MOL0     H96860   6.126   7.612   5.962 -1.0614  0.2969 -2.0613
  734MOL0     H96861   6.110   7.498   5.831 -0.5094 -0.0098 -0.0350
  734MOL0     H96862   6.041   7.466   6.127  2.1529  0.0767 -1.2285
  734MOL0     H96863   6.005   7.341   5.994  1.1613 -0.1604 -2.6881
  734MOL0     H96864   5.864   7.530   5.892  1.9823  0.1264 -0.1645
  734MOL0     H96865   5.876   7.615   6.045 -1.7161  2.1353 -2.7054
  734MOL0     H96866   5.748   7.350   6.037 -1.6406  0.9695 -0.0213
  734MOL0     H96867   5.774   7.473   6.169  0.7023  2.5457 -0.7418
  734MOL0     H96868   5.617   7.529   5.916  1.6365 -2.7759 -0.2254
  734MOL0     H96869   5.620   7.617   6.077 -0.5003 -0.2798  0.9253
  734MOL0     H96870   6.765   7.400   5.985 -1.4040 -2.0801 -3.8960
  734MOL0     H96871   6.980   7.516   6.033  1.8009 -2.8740 -1.8107
  734MOL0     H96872   7.159   8.086   6.090  1.9663  0.6998  2.1666
  734MOL0     H96873   7.366   8.145   6.167  1.4250 -0.8096  2.6240
  734MOL0     H96874   9.606   7.601   6.155  1.4547 -3.0320 -0.1101
  734MOL0     H96875   9.760   7.527   5.999 -1.1528 -1.9067 -0.9116
  734MOL0     H96876   9.880   7.293   5.752  2.6931 -0.8481  1.7143
  734MOL0     H96877  10.104   7.205   5.687  2.5098 -0.1691 -0.8713
  734MOL0     H96878  10.278   7.327   5.294 -2.9653  1.4645  4.6025
  734MOL0     H96879  10.170   7.188   5.255 -0.7479  2.5099  1.1745
  734MOL0     H96880  10.340   7.033   5.322 -1.5435  0.2580  0.2254
  734MOL0     H96881  10.401   7.142   5.195  0.4336 -2.9896  0.2689
  734MOL0     H96882  10.558   7.080   5.382  3.0259  2.4240 -0.9447
  734MOL0     H96883  10.459   7.198   5.479  3.2606 -2.2366  1.3223
  734MOL0     H96884  10.509   7.343   5.252  0.5853 -1.7284 -3.3124
  734MOL0     H96885  10.599   7.357   5.399  3.4054 -1.9031  0.7112
  734MOL0     H96886  10.852   7.088   5.181  0.2840 -1.1987  0.8998
  734MOL0     H96887  10.046   7.412   5.309  0.9240  1.0649  0.3431
  734MOL0     H96888   9.858   7.528   5.403 -0.6812 -0.4001  1.0247
  735MOL0     O96889   6.385   1.753   0.258  0.0483 -0.4793 -0.1778
  735MOL0     C96890   6.443   1.859   0.292 -0.3333 -0.0392 -0.5831
  735MOL0     O96891   6.388   1.986   0.299  0.1035  0.3596  0.1461
  735MOL0     C96892   6.258   1.985   0.263  0.4766 -0.0089 -0.1458
  735MOL0     C96893   6.148   1.918   0.328 -0.2670 -0.7726  0.2351
  735MOL0     C96894   6.023   1.911   0.263 -0.1249  0.1993 -0.1480
  735MOL0     C96895   5.995   1.960   0.142  0.2878 -0.5882 -1.0555
  735MOL0     O96896   5.871   1.928   0.107 -0.4184  0.7505  0.2827
  735MOL0     C96897   5.795   2.029   0.036  0.1462 -0.0165 -0.0786
  735MOL0     C96898   5.647   1.991   0.058  0.2061 -0.1516  0.4771
  735MOL0     C96899   5.551   2.097   0.012 -0.2485  0.1096 -0.2459
  735MOL0     C96900   5.563   2.115  -0.141 -0.9210  0.3344 -0.2834
  735MOL0     C96901   5.437   2.190  -0.197  0.0478 -0.2896 -0.0668
  735MOL0     C96902   5.315   2.099  -0.218  0.5604  1.0905  0.9182
  735MOL0     C96903   5.255   2.107  -0.363  0.9489 -0.2344 -0.1989
  735MOL0     C96904   5.321   2.013  -0.464  0.7663  0.0117 -0.4777
  735MOL0     N96905   5.310   1.865  -0.437  1.4812  0.2418 -0.9521
  735MOL0     C96906   5.204   1.787  -0.391 -0.4035  0.0055  0.0630
  735MOL0     C96907   5.259   1.670  -0.343  0.5580  0.0129 -0.0252
  735MOL0     C96908   5.179   1.552  -0.293  0.1694 -0.5076  0.0045
  735MOL0     C96909   5.112   1.465  -0.400  0.0529 -0.5119  0.2285
  735MOL0     C96910   5.039   1.341  -0.344  0.0135  0.2400  0.1358
  735MOL0     C96911   4.928   1.373  -0.241 -0.2672  0.2419 -0.3451
  735MOL0     O96912   4.807   1.412  -0.310 -0.3895 -0.0877 -0.1696
  735MOL0     C96913   4.681   1.379  -0.262 -0.3272 -0.7387  0.4486
  735MOL0     C96914   4.576   1.406  -0.358 -0.2919  0.3709 -0.6778
  735MOL0     C96915   4.442   1.366  -0.328 -0.1278  0.5818  0.0454
  735MOL0     C96916   4.407   1.331  -0.195 -1.0232 -0.6551 -0.3173
  735MOL0     C96917   4.275   1.302  -0.149  0.2454 -0.4683  0.0837
  735MOL0     O96918   4.181   1.335  -0.243  0.1079 -0.0678  0.3231
  735MOL0     C96919   4.051   1.295  -0.222 -0.1692  0.2791  0.7236
  735MOL0     C96920   3.989   1.220  -0.322 -0.1796  0.0700  0.6404
  735MOL0     C96921   3.856   1.185  -0.311 -1.0087  0.0197 -0.3213
  735MOL0     C96922   3.774   1.234  -0.209 -0.8827 -0.5811 -0.6144
  735MOL0     O96923   3.640   1.186  -0.217 -0.3618 -0.6164 -0.8121
  735MOL0     C96924   3.546   1.270  -0.156  0.2488 -0.7476 -1.1139
  735MOL0     C96925   3.417   1.254  -0.226  0.0436 -0.1980 -0.8212
  735MOL0     C96926   3.304   1.320  -0.153 -0.7078  0.7186 -0.1106
  735MOL0     C96927   3.170   1.295  -0.215  0.4564 -0.6522  0.4853
  735MOL0     C96928   3.051   1.328  -0.127  0.4283  0.9093  0.1004
  735MOL0     C96929   2.917   1.353  -0.197  0.0675  0.3765 -0.1077
  735MOL0     C96930   2.810   1.372  -0.086  0.1416 -0.1045 -0.1109
  735MOL0     C96931   2.673   1.390  -0.151 -0.5517  0.4285  0.9251
  735MOL0    Cl96932   2.654   1.504  -0.287  0.2367 -0.3734  0.1562
  735MOL0     C96933   3.833   1.314  -0.102 -0.2076  0.3082  0.9738
  735MOL0     C96934   3.975   1.336  -0.116 -0.3625 -0.3598  0.9055
  735MOL0     O96935   4.257   1.247  -0.040  0.7178  0.1709 -0.5655
  735MOL0     C96936   4.522   1.312  -0.093  0.7024  0.4246  0.9927
  735MOL0     C96937   4.656   1.329  -0.131 -0.0371  0.4148  0.8067
  735MOL0     N96938   5.398   1.674  -0.371  0.3405 -0.1172  0.0470
  735MOL0     N96939   5.420   1.790  -0.421  0.2872 -0.3398 -0.4048
  735MOL0     C96940   6.099   2.024   0.069  0.0653  0.0158 -0.1746
  735MOL0     C96941   6.230   2.034   0.136 -0.3350 -0.1042 -0.5157
  735MOL0     C96942   6.575   1.844   0.348 -0.5887  0.0513 -0.6972
  735MOL0     C96943   6.628   1.718   0.394  0.1629  0.1412 -0.1657
  735MOL0     C96944   6.760   1.705   0.432  0.9687 -0.3823  0.2367
  735MOL0     C96945   6.847   1.823   0.441  0.0554 -0.6579 -0.0116
  735MOL0     O96946   6.957   1.834   0.520  0.3846 -0.8164  0.1983
  735MOL0     C96947   7.008   1.724   0.597 -0.3007  0.5962  0.5090
  735MOL0     C96948   7.116   1.773   0.692  0.9239 -0.7180  0.4879
  735MOL0     C96949   7.067   1.864   0.796  0.0208  0.0007  0.4050
  735MOL0     C96950   7.073   2.014   0.755  0.0350 -0.3313  0.1237
  735MOL0     C96951   7.202   2.089   0.772  0.4846  0.1627  1.3253
  735MOL0     C96952   7.306   2.144   0.776 -0.2724  0.6396 -0.3303
  735MOL0     C96953   6.789   1.949   0.408  0.1609  0.1911  0.6749
  735MOL0     C96954   6.658   1.951   0.354 -0.8457 -0.3488 -0.8890
  735MOL0     H96955   6.154   1.875   0.428  0.3873 -0.4072  0.3596
  735MOL0     H96956   5.948   1.854   0.316  1.3403 -0.9924  0.7250
  735MOL0     H96957   5.821   2.019  -0.070  2.0193 -7.2379  0.5896
  735MOL0     H96958   5.808   2.126   0.085  1.0522 -0.3088  0.2837
  735MOL0     H96959   5.634   1.975   0.165  1.3750  0.9502  0.8036
  735MOL0     H96960   5.629   1.897   0.004 -0.1491  0.7545 -1.0513
  735MOL0     H96961   5.550   2.195   0.061 -1.9173 -0.0455  0.0787
  735MOL0     H96962   5.450   2.060   0.030 -0.3033  0.8004  0.9644
  735MOL0     H96963   5.657   2.164  -0.169  1.2175 -1.8088  2.5520
  735MOL0     H96964   5.570   2.021  -0.197  0.3450  0.5655 -0.5415
  735MOL0     H96965   5.473   2.210  -0.298  1.9062 -2.1675  0.1677
  735MOL0     H96966   5.415   2.281  -0.139 -3.7226 -1.3884  0.5376
  735MOL0     H96967   5.240   2.125  -0.143  1.1806 -2.5977  3.0463
  735MOL0     H96968   5.330   1.999  -0.177  0.8779  2.0039  3.1875
  735MOL0     H96969   5.149   2.078  -0.355 -0.1113  3.2115 -0.2934
  735MOL0     H96970   5.253   2.211  -0.396  1.2795 -0.4766 -1.0007
  735MOL0     H96971   5.428   2.035  -0.470  1.0565 -1.5969 -2.1990
  735MOL0     H96972   5.274   2.025  -0.563  1.7550 -2.2879 -1.2858
  735MOL0     H96973   5.099   1.815  -0.381 -1.1771 -3.1019  2.1143
  735MOL0     H96974   5.099   1.598  -0.234 -1.0107 -1.0281 -1.1432
  735MOL0     H96975   5.236   1.500  -0.216  1.9246  3.5541  1.7290
  735MOL0     H96976   5.197   1.443  -0.465  2.4353  3.9614  1.3869
  735MOL0     H96977   5.044   1.529  -0.456 -0.3489  0.7499  2.0686
  735MOL0     H96978   4.994   1.283  -0.426 -0.2157 -0.4732  0.7584
  735MOL0     H96979   5.115   1.278  -0.297  0.6660  0.9110 -0.0123
  735MOL0     H96980   4.953   1.453  -0.170  2.8883 -1.1415  0.2801
  735MOL0     H96981   4.925   1.275  -0.191  1.7532  0.5253  0.4360
  735MOL0     H96982   4.609   1.441  -0.456  2.5311  0.7841  0.3107
  735MOL0     H96983   4.363   1.376  -0.401  0.9536  0.1069 -1.2397
  735MOL0     H96984   4.036   1.198  -0.417  0.9497  0.7492  1.0264
  735MOL0     H96985   3.818   1.122  -0.391  0.3771  1.2590 -2.0613
  735MOL0     H96986   3.567   1.378  -0.155 -1.4366 -0.3938 -1.1408
  735MOL0     H96987   3.534   1.239  -0.052  1.5451  2.7997  0.2509
  735MOL0     H96988   3.405   1.149  -0.252  2.1125 -0.5641 -0.4286
  735MOL0     H96989   3.419   1.308  -0.321  3.4165  0.4032 -0.5262
  735MOL0     H96990   3.321   1.427  -0.140  0.3807  0.3508  1.9671
  735MOL0     H96991   3.304   1.282  -0.050 -0.0962  2.2292  0.4840
  735MOL0     H96992   3.153   1.363  -0.300  1.1242 -0.0927  0.7879
  735MOL0     H96993   3.172   1.190  -0.244  1.5458 -0.6631  0.5430
  735MOL0     H96994   3.081   1.422  -0.079  1.9435  0.1885  0.6510
  735MOL0     H96995   3.045   1.256  -0.045 -0.2907 -2.5280 -2.7441
  735MOL0     H96996   2.893   1.266  -0.259  0.4078  0.5655 -0.5143
  735MOL0     H96997   2.922   1.439  -0.266  1.7146 -0.6062 -1.2913
  735MOL0     H96998   2.816   1.285  -0.021 -0.7177  0.3773  0.6502
  735MOL0     H96999   2.830   1.467  -0.035 -0.8987 -0.4014  0.8865
  735MOL0     H97000   2.594   1.414  -0.078 -1.1695 -1.2489  0.8569
  735MOL0     H97001   2.649   1.289  -0.187 -3.4955  0.5055  2.3435
  735MOL0     H97002   3.765   1.327  -0.018 -2.3212 -0.9181 -0.4640
  735MOL0     H97003   4.036   1.393  -0.047  3.1741  0.5904 -2.6571
  735MOL0     H97004   4.497   1.263   0.001 -1.5748 -0.4212  0.0368
  735MOL0     H97005   4.729   1.317  -0.053  0.5483  0.4636  0.2757
  735MOL0     H97006   6.080   2.051  -0.035  0.5456  0.6266 -0.1109
  735MOL0     H97007   6.300   2.089   0.074  0.2007 -1.4472 -1.1448
  735MOL0     H97008   6.565   1.629   0.404 -0.3111  0.6061  1.2218
  735MOL0     H97009   6.776   1.608   0.478  1.8120  0.1949  1.2019
  735MOL0     H97010   7.056   1.664   0.519 -2.1830  2.8909 -2.6542
  735MOL0     H97011   6.929   1.662   0.641  0.0574 -2.0215 -2.2131
  735MOL0     H97012   7.163   1.687   0.741  1.4264 -1.0658 -0.5818
  735MOL0     H97013   7.193   1.827   0.637 -0.6311 -2.3212 -3.6992
  735MOL0     H97014   7.132   1.839   0.880 -0.6877 -0.8083  0.7262
  735MOL0     H97015   6.965   1.836   0.824 -1.1447  1.7685 -1.6998
  735MOL0     H97016   7.040   2.018   0.651  0.9673 -4.5205 -0.4734
  735MOL0     H97017   7.010   2.059   0.833  0.4911 -1.9294  1.4757
  735MOL0     H97018   7.402   2.192   0.773  0.2628 -0.4396 -1.1372
  735MOL0     H97019   6.850   2.038   0.408  1.8536 -0.9014 -0.7819
  735MOL0     H97020   6.625   2.051   0.327 -0.1740 -0.0795 -0.7279
  736MOL0     O97021   6.837   8.336   5.984  0.3854 -0.6011  0.2564
  736MOL0     C97022   6.894   8.289   6.077 -0.4810  0.0225 -0.1201
  736MOL0     O97023   6.838   8.229   6.178 -0.6996 -0.7591 -0.3607
  736MOL0     C97024   6.702   8.248   6.201  0.3179 -0.4729  0.6049
  736MOL0     C97025   6.610   8.163   6.137 -0.9959  0.1944  0.3254
  736MOL0     C97026   6.474   8.170   6.175 -0.5681  0.0114  0.2636
  736MOL0     C97027   6.433   8.226   6.297 -0.6655 -0.6549 -0.1455
  736MOL0     O97028   6.305   8.229   6.356 -1.1531 -0.0448  0.0188
  736MOL0     C97029   6.244   8.097   6.349  0.0923 -0.3552  0.0960
  736MOL0     C97030   6.150   8.077   6.224 -0.6080 -1.1971 -0.7949
  736MOL0     C97031   6.003   8.112   6.247  0.0472 -0.4141  0.0765
  736MOL0     C97032   5.974   8.254   6.285 -0.2975 -0.5656 -0.1776
  736MOL0     C97033   5.824   8.302   6.267 -0.9107 -0.4201  0.1034
  736MOL0     C97034   5.831   8.444   6.335 -0.5611  0.3178 -0.4631
  736MOL0     C97035   5.719   8.529   6.278 -0.3774  0.5795 -0.0055
  736MOL0     C97036   5.735   8.678   6.318  0.5772  1.1678  0.9504
  736MOL0     N97037   5.617   8.773   6.304  0.0776 -0.2326  0.8636
  736MOL0     C97038   5.595   8.877   6.213 -0.2995  0.2072 -0.2777
  736MOL0     C97039   5.473   8.931   6.243  0.7104 -0.0157 -0.8903
  736MOL0     C97040   5.387   9.046   6.179 -0.6818 -0.0988 -0.3653
  736MOL0     C97041   5.260   8.990   6.105 -0.6361  0.0284 -1.4468
  736MOL0     C97042   5.178   9.096   6.036 -0.8545 -0.3708  0.5095
  736MOL0     C97043   5.068   9.050   5.939 -0.3084  0.4106  0.2456
  736MOL0     O97044   4.995   8.948   5.993  0.3263 -0.0497 -0.2962
  736MOL0     C97045   4.877   8.929   5.926 -0.8002 -0.3390 -0.0247
  736MOL0     C97046   4.805   8.817   5.968  0.0003 -0.8638 -0.3955
  736MOL0     C97047   4.681   8.787   5.919  0.6376 -0.5407 -0.2594
  736MOL0     C97048   4.619   8.861   5.818 -0.0066 -0.5699  0.6081
  736MOL0     C97049   4.493   8.828   5.749 -0.1633 -0.3667  0.0611
  736MOL0     O97050   4.415   8.920   5.690 -0.4837 -0.3000 -0.4039
  736MOL0     C97051   4.278   8.913   5.707  0.0628  0.3243  0.7911
  736MOL0     C97052   4.186   8.955   5.606  0.3807  0.5987 -0.3830
  736MOL0     C97053   4.041   8.944   5.630 -0.5066 -0.4058  1.0512
  736MOL0     C97054   3.987   8.888   5.747  0.4913  0.0620 -0.2351
  736MOL0     O97055   3.861   8.861   5.773 -0.4373  0.7019  0.8797
  736MOL0     C97056   3.779   8.845   5.657 -0.2371 -0.1963  0.8882
  736MOL0     C97057   3.638   8.857   5.692 -0.5158  0.0163  1.2059
  736MOL0     C97058   3.541   8.853   5.571  0.1976 -0.3350 -0.9144
  736MOL0     C97059   3.401   8.848   5.635 -0.2030  0.4243 -0.4648
  736MOL0     C97060   3.292   8.797   5.536 -0.2074 -0.2678  0.5069
  736MOL0     C97061   3.145   8.815   5.583 -0.3090  0.7787  0.3720
  736MOL0     C97062   3.117   8.962   5.624  0.1884  0.2582 -0.2382
  736MOL0     C97063   2.961   8.974   5.635 -0.4565  0.1906 -0.2802
  736MOL0    Cl97064   2.923   9.134   5.683  0.3863 -0.2607 -0.1755
  736MOL0     C97065   4.084   8.847   5.848  0.6754  0.8027 -0.0602
  736MOL0     C97066   4.221   8.868   5.831  0.1896 -0.0099  0.1023
  736MOL0     O97067   4.465   8.710   5.753 -0.4786 -0.3136 -0.2969
  736MOL0     C97068   4.690   8.977   5.778  0.0254 -0.9651 -0.1789
  736MOL0     C97069   4.816   9.004   5.819 -0.3473 -1.1190 -0.7251
  736MOL0     N97070   5.424   8.876   6.358 -0.4950 -0.3753 -0.4862
  736MOL0     N97071   5.509   8.784   6.393  1.1705 -0.9781 -0.2858
  736MOL0     C97072   6.532   8.299   6.372  0.5718  1.2915  0.0659
  736MOL0     C97073   6.667   8.311   6.319 -0.1257 -1.0934 -0.2393
  736MOL0     C97074   7.032   8.332   6.101 -0.0395  0.4442  0.0391
  736MOL0     C97075   7.077   8.362   6.230  0.2684 -0.7741 -0.0167
  736MOL0     C97076   7.212   8.386   6.244  0.7134 -0.8039 -0.3880
  736MOL0     C97077   7.302   8.395   6.143  0.2326  0.9972 -0.2201
  736MOL0     O97078   7.429   8.426   6.182 -0.2780 -0.1550  0.2611
  736MOL0     C97079   7.528   8.417   6.083  0.3441  0.0593 -0.3689
  736MOL0     C97080   7.657   8.468   6.130 -0.9287 -0.2604  1.4027
  736MOL0     C97081   7.720   8.384   6.243 -0.2102 -0.0661 -0.0360
  736MOL0     C97082   7.871   8.376   6.233  0.2322  0.3852  1.5740
  736MOL0     C97083   7.926   8.328   6.363  0.1587  0.5250  0.6847
  736MOL0     C97084   7.945   8.296   6.476  0.1512  0.4759 -0.0510
  736MOL0     C97085   7.253   8.361   6.013  0.1585  0.6538  0.8731
  736MOL0     C97086   7.117   8.338   5.996  0.3171  1.2023 -0.5207
  736MOL0     H97087   6.640   8.096   6.057  1.5814 -1.0449  2.1814
  736MOL0     H97088   6.392   8.126   6.118 -2.1533  1.0278  1.6456
  736MOL0     H97089   6.182   8.078   6.438  1.3039 -1.1035  0.8078
  736MOL0     H97090   6.315   8.014   6.355 -0.1777 -0.5600  0.5221
  736MOL0     H97091   6.172   7.973   6.198  2.6909 -0.8124 -0.0306
  736MOL0     H97092   6.172   8.131   6.131  1.1934 -4.7574 -2.6517
  736MOL0     H97093   5.968   8.054   6.333  2.5444 -0.6325  1.0353
  736MOL0     H97094   5.960   8.084   6.150  2.8981  3.0324 -2.4480
  736MOL0     H97095   6.007   8.272   6.388  0.5925  2.4544 -0.8865
  736MOL0     H97096   6.033   8.312   6.214 -0.4560 -2.7990 -2.2696
  736MOL0     H97097   5.752   8.230   6.308 -2.7166  1.5601  0.6121
  736MOL0     H97098   5.807   8.309   6.160 -2.1265 -1.0093  0.2426
  736MOL0     H97099   5.928   8.487   6.308  0.0164  1.3529  2.7202
  736MOL0     H97100   5.826   8.435   6.444  2.1217 -0.5817 -0.3260
  736MOL0     H97101   5.708   8.522   6.170 -1.1720  0.5854  0.0664
  736MOL0     H97102   5.625   8.483   6.311 -0.1039  1.1435  1.6557
  736MOL0     H97103   5.816   8.720   6.257 -0.1762  0.9372 -0.2359
  736MOL0     H97104   5.762   8.674   6.424 -0.9241 -0.5948  1.2980
  736MOL0     H97105   5.647   8.888   6.119  2.7252 -0.1107  1.2290
  736MOL0     H97106   5.459   9.090   6.109  0.3081 -2.4351 -0.9453
  736MOL0     H97107   5.357   9.110   6.262 -0.0866 -1.3676  0.8788
  736MOL0     H97108   5.194   8.953   6.184  0.0788 -0.2763 -0.9793
  736MOL0     H97109   5.285   8.911   6.032  1.5813  0.1613 -0.9144
  736MOL0     H97110   5.133   9.165   6.108 -0.9172 -2.6615  2.7907
  736MOL0     H97111   5.244   9.141   5.962  1.3486 -0.5119  2.2974
  736MOL0     H97112   5.097   9.016   5.839  0.3360 -0.5786  0.7537
  736MOL0     H97113   5.002   9.137   5.943 -0.0411  0.5935  3.2489
  736MOL0     H97114   4.858   8.741   6.025 -0.1302  0.2766  1.3310
  736MOL0     H97115   4.633   8.703   5.969 -1.0519  0.3073 -0.4048
  736MOL0     H97116   4.229   8.998   5.516  0.4561  2.0317  0.3029
  736MOL0     H97117   3.983   8.982   5.547  1.0766 -1.8748 -0.8310
  736MOL0     H97118   3.803   8.751   5.606  2.0689  0.3354  0.8677
  736MOL0     H97119   3.800   8.924   5.585  0.5136 -1.6840 -0.6157
  736MOL0     H97120   3.637   8.957   5.739 -0.0319 -0.7511  2.9375
  736MOL0     H97121   3.616   8.783   5.769 -4.0467  0.9533  1.2808
  736MOL0     H97122   3.554   8.760   5.515  1.0391 -0.6953 -0.1450
  736MOL0     H97123   3.540   8.941   5.505 -0.3696  1.2963  1.1651
  736MOL0     H97124   3.406   8.783   5.723  1.1348 -2.1592 -2.3400
  736MOL0     H97125   3.373   8.946   5.677 -1.0952 -0.9799  2.4642
  736MOL0     H97126   3.312   8.693   5.508 -1.7097  0.2638 -3.1517
  736MOL0     H97127   3.311   8.860   5.448 -0.7596 -1.1479 -0.2538
  736MOL0     H97128   3.125   8.739   5.659  1.4094 -0.5514 -0.4327
  736MOL0     H97129   3.080   8.785   5.501  0.0940 -3.7282  1.4648
  736MOL0     H97130   3.153   9.001   5.719  1.3589  0.2249 -0.6557
  736MOL0     H97131   3.157   9.032   5.549 -0.5312 -1.8793 -2.7823
  736MOL0     H97132   2.942   8.917   5.726  1.5911 -0.8947 -0.4593
  736MOL0     H97133   2.909   8.945   5.544  1.9735 -0.9057 -1.4054
  736MOL0     H97134   4.049   8.802   5.940  0.7820  1.1052  0.1302
  736MOL0     H97135   4.289   8.830   5.907 -0.5543  1.0835  1.3510
  736MOL0     H97136   4.648   9.037   5.698 -1.6349  0.1977  1.4776
  736MOL0     H97137   4.857   9.094   5.773  1.4178 -0.4459  1.9529
  736MOL0     H97138   6.502   8.333   6.471  2.1675  0.2926  0.9433
  736MOL0     H97139   6.752   8.365   6.360 -0.6216  1.6921 -2.5858
  736MOL0     H97140   7.011   8.365   6.316 -1.9408  3.2691 -1.5870
  736MOL0     H97141   7.249   8.412   6.342 -1.3977  1.7989 -0.1729
  736MOL0     H97142   7.500   8.476   5.996 -0.2648 -0.3314 -0.4458
  736MOL0     H97143   7.540   8.310   6.061  0.7373 -0.3155  1.5082
  736MOL0     H97144   7.723   8.470   6.042 -0.1278  3.1076  1.9140
  736MOL0     H97145   7.646   8.575   6.153 -0.8627  0.8671 -2.8209
  736MOL0     H97146   7.683   8.281   6.252  0.6115 -0.2542  1.3994
  736MOL0     H97147   7.693   8.420   6.342  0.6592 -0.5413  0.3806
  736MOL0     H97148   7.904   8.309   6.153 -1.8286  1.0295  0.0816
  736MOL0     H97149   7.909   8.477   6.215  0.6925  0.1135  0.9845
  736MOL0     H97150   7.962   8.248   6.570  2.9636 -2.6144 -1.8915
  736MOL0     H97151   7.326   8.348   5.934 -0.2206 -0.7574  0.7234
  736MOL0     H97152   7.084   8.298   5.901 -1.5466  3.1677 -0.7781
  737MOL0     O97153   9.418   2.049   5.315 -0.2262 -0.1446 -0.5725
  737MOL0     C97154   9.517   2.126   5.319 -0.0069  0.4774 -0.3606
  737MOL0     O97155   9.578   2.172   5.437 -0.0021 -0.4673 -0.0650
  737MOL0     C97156   9.521   2.148   5.558 -0.9786  0.0470 -0.6620
  737MOL0     C97157   9.492   2.012   5.604  0.7049 -0.5839 -0.5299
  737MOL0     C97158   9.454   1.989   5.738 -0.9068 -0.0295  0.9602
  737MOL0     C97159   9.448   2.095   5.831 -0.5158  0.4317  0.9687
  737MOL0     O97160   9.406   2.058   5.952  0.0227  0.1535 -0.3315
  737MOL0     C97161   9.396   2.148   6.059 -0.3247 -0.4189 -0.9174
  737MOL0     C97162   9.343   2.069   6.179  0.4560 -0.3982 -0.1073
  737MOL0     C97163   9.303   2.178   6.280  0.4915  0.6776 -0.7445
  737MOL0     C97164   9.253   2.098   6.401 -0.4110  0.1782  0.0993
  737MOL0     C97165   9.215   2.202   6.514 -0.5714  0.0133 -0.4658
  737MOL0     C97166   9.110   2.310   6.505 -0.4136 -0.6358 -0.2263
  737MOL0     C97167   8.976   2.247   6.482  0.5475 -0.3048  0.6406
  737MOL0     C97168   8.872   2.334   6.428 -0.3130 -0.1481 -0.1061
  737MOL0     N97169   8.830   2.456   6.505  0.2969  0.6232 -0.1054
  737MOL0     C97170   8.716   2.458   6.589 -0.4018  0.3179 -1.0128
  737MOL0     C97171   8.711   2.574   6.652 -0.6857  0.4007  0.5695
  737MOL0     C97172   8.609   2.638   6.741  0.1926 -0.7440  0.1880
  737MOL0     C97173   8.473   2.572   6.767  0.2102  0.5106 -0.7126
  737MOL0     C97174   8.467   2.431   6.837  0.4518 -0.1647 -0.8825
  737MOL0     C97175   8.344   2.349   6.817 -1.1797 -0.4168  0.0858
  737MOL0     O97176   8.353   2.306   6.686 -0.3101 -0.3705  0.0942
  737MOL0     C97177   8.236   2.261   6.631 -0.4928  0.1152  0.0968
  737MOL0     C97178   8.236   2.214   6.503 -0.0764 -0.3478  1.3609
  737MOL0     C97179   8.117   2.167   6.437  0.0198 -0.3000  0.3736
  737MOL0     C97180   7.997   2.160   6.508 -0.3262 -0.5338  0.7156
  737MOL0     C97181   7.873   2.096   6.461  0.3313 -0.2330  0.0937
  737MOL0     O97182   7.750   2.124   6.527 -0.2834  0.0372  0.0863
  737MOL0     C97183   7.624   2.071   6.491  0.3596  0.2478  0.2367
  737MOL0     C97184   7.523   2.103   6.581  0.7849 -0.0385 -0.0167
  737MOL0     C97185   7.395   2.066   6.547 -0.7443 -0.1211  0.8198
  737MOL0     C97186   7.363   1.980   6.446 -0.3791  0.5959  0.6131
  737MOL0     O97187   7.232   1.955   6.441 -0.0792  0.3478  0.3496
  737MOL0     C97188   7.188   1.854   6.354 -0.1206 -0.1621  0.8467
  737MOL0     C97189   7.043   1.862   6.382  1.0495 -0.0522 -1.1628
  737MOL0     C97190   6.953   1.794   6.282  0.1290  0.2847 -0.0516
  737MOL0     C97191   6.804   1.809   6.324 -0.5481  0.2109  0.1103
  737MOL0     C97192   6.764   1.702   6.431 -0.6725 -0.4085 -0.0155
  737MOL0     C97193   6.614   1.679   6.446 -0.6762 -0.3832 -0.0122
  737MOL0     C97194   6.555   1.792   6.521  0.6256 -1.2788  0.2194
  737MOL0     C97195   6.399   1.792   6.502 -0.2662 -0.2733 -0.1893
  737MOL0    Cl97196   6.352   1.946   6.580  0.1520  0.2905  0.0682
  737MOL0     C97197   7.465   1.946   6.354 -0.3050  0.3773  0.6425
  737MOL0     C97198   7.597   1.989   6.377 -0.1300 -0.1792  0.1723
  737MOL0     O97199   7.890   2.026   6.364  0.5563  0.6008 -0.0286
  737MOL0     C97200   7.998   2.219   6.635 -0.7567 -0.5459 -0.3818
  737MOL0     C97201   8.112   2.260   6.701 -1.2031  0.1370 -0.3587
  737MOL0     N97202   8.827   2.643   6.608 -0.1821  0.0857 -0.0839
  737MOL0     N97203   8.892   2.574   6.522 -0.0572 -0.3934 -1.0460
  737MOL0     C97204   9.482   2.225   5.789  0.2880  0.9050  0.2598
  737MOL0     C97205   9.523   2.247   5.656  0.7658  0.0490 -0.2333
  737MOL0     C97206   9.578   2.180   5.190  0.7591  0.2304  0.6439
  737MOL0     C97207   9.648   2.302   5.184  0.2533 -0.2886  0.2631
  737MOL0     C97208   9.711   2.331   5.064  1.4758  0.6898 -0.4020
  737MOL0     C97209   9.701   2.256   4.945 -0.1577  0.7149 -0.4100
  737MOL0     O97210   9.745   2.299   4.821  0.2900 -0.2092 -0.4070
  737MOL0     C97211   9.866   2.379   4.828 -0.1071 -0.1661  0.8447
  737MOL0     C97212   9.949   2.343   4.710  0.4528  0.9619 -0.3350
  737MOL0     C97213  10.078   2.416   4.691 -0.0750 -0.8177 -0.1487
  737MOL0     C97214  10.164   2.359   4.574  0.2374  0.1073 -0.0016
  737MOL0     C97215  10.283   2.435   4.547 -0.8804 -0.7631 -0.0058
  737MOL0     C97216  10.375   2.508   4.538  0.2313 -0.8846  0.1706
  737MOL0     C97217   9.618   2.145   4.948 -0.5524 -0.2184 -0.1575
  737MOL0     C97218   9.552   2.109   5.066 -0.8405  0.2725  0.0794
  737MOL0     H97219   9.503   1.921   5.547 -3.4527 -1.4480 -0.2222
  737MOL0     H97220   9.426   1.888   5.765 -0.9026  0.2730  2.1152
  737MOL0     H97221   9.329   2.229   6.028 -2.1995 -0.4948  2.4767
  737MOL0     H97222   9.493   2.193   6.082  0.3889 -0.3240 -3.7379
  737MOL0     H97223   9.418   2.006   6.227 -3.2732 -2.7482  3.2388
  737MOL0     H97224   9.259   2.003   6.154  1.6852 -2.3147  0.6195
  737MOL0     H97225   9.215   2.224   6.234  0.3627  2.2550  0.9329
  737MOL0     H97226   9.379   2.248   6.316 -1.1634  1.3152  1.8310
  737MOL0     H97227   9.162   2.042   6.378 -0.8943 -1.8281  5.4904
  737MOL0     H97228   9.327   2.026   6.438 -2.0103 -2.5383 -1.6203
  737MOL0     H97229   9.305   2.262   6.529 -0.4187 -0.1868 -0.5820
  737MOL0     H97230   9.192   2.155   6.610 -0.7321  0.4983 -0.2623
  737MOL0     H97231   9.148   2.360   6.415 -2.1360 -0.3398 -0.8229
  737MOL0     H97232   9.111   2.387   6.583  0.2683 -1.2893  0.4229
  737MOL0     H97233   8.991   2.175   6.401 -1.9793  0.1597 -0.3232
  737MOL0     H97234   8.938   2.215   6.579 -1.2987  2.3285  0.8986
  737MOL0     H97235   8.789   2.267   6.406  1.3862 -2.7105  0.8287
  737MOL0     H97236   8.901   2.389   6.338 -2.5626  2.6374  0.7337
  737MOL0     H97237   8.638   2.382   6.587  1.5915 -1.9223  0.6537
  737MOL0     H97238   8.583   2.731   6.691 -0.2698 -0.6782  0.5492
  737MOL0     H97239   8.655   2.675   6.833  0.9830 -2.9629  0.7660
  737MOL0     H97240   8.431   2.564   6.666 -3.6000  1.2723  0.6327
  737MOL0     H97241   8.409   2.634   6.830  0.3338 -1.9191  1.9966
  737MOL0     H97242   8.546   2.357   6.819  0.1229 -1.1966  1.4806
  737MOL0     H97243   8.467   2.450   6.945 -1.9323  1.1755 -1.0500
  737MOL0     H97244   8.262   2.421   6.829 -0.8024  0.0452 -0.1028
  737MOL0     H97245   8.333   2.260   6.881  0.7646  1.0603  2.6397
  737MOL0     H97246   8.334   2.208   6.456 -0.7810  1.4617 -0.5130
  737MOL0     H97247   8.126   2.118   6.341 -2.0818 -1.0181  0.4908
  737MOL0     H97248   7.541   2.164   6.669 -0.5529  0.0833  0.1857
  737MOL0     H97249   7.315   2.099   6.613 -0.9296  0.9979  0.0564
  737MOL0     H97250   7.217   1.752   6.380  1.6511 -0.0897 -0.6645
  737MOL0     H97251   7.207   1.871   6.247  2.3606 -1.0820  1.0757
  737MOL0     H97252   7.016   1.968   6.386  0.5346 -0.2237  1.0654
  737MOL0     H97253   7.016   1.826   6.481 -1.4359 -0.5756 -1.9541
  737MOL0     H97254   6.980   1.688   6.270  0.6745 -0.1432  3.6722
  737MOL0     H97255   6.965   1.848   6.187 -1.3157  0.4725 -0.1547
  737MOL0     H97256   6.794   1.915   6.348  1.0867  0.7804 -1.5122
  737MOL0     H97257   6.754   1.790   6.229  2.1322  1.3464 -1.6324
  737MOL0     H97258   6.823   1.723   6.521 -0.1581 -0.8554 -0.2417
  737MOL0     H97259   6.813   1.616   6.385  2.4571  0.4349  1.4203
  737MOL0     H97260   6.589   1.584   6.495 -0.5827 -1.6252 -2.2160
  737MOL0     H97261   6.568   1.673   6.347  3.1035 -1.7429 -1.8793
  737MOL0     H97262   6.565   1.779   6.629  0.4861 -0.5942  0.3212
  737MOL0     H97263   6.599   1.886   6.485  0.0652 -1.6920 -1.6678
  737MOL0     H97264   6.353   1.703   6.547 -0.4775  0.3593  0.8685
  737MOL0     H97265   6.375   1.798   6.396  0.3216  4.0213 -0.2412
  737MOL0     H97266   7.458   1.891   6.260  0.1675  2.1137 -0.4581
  737MOL0     H97267   7.672   1.949   6.310 -0.0175 -0.6803  0.5911
  737MOL0     H97268   7.908   2.223   6.695  1.1916  0.9791  2.7310
  737MOL0     H97269   8.107   2.304   6.800 -0.7283  3.8960 -1.8369
  737MOL0     H97270   9.490   2.302   5.865 -2.3992 -1.2541  3.0053
  737MOL0     H97271   9.555   2.349   5.636  1.3397  0.2129  1.3873
  737MOL0     H97272   9.645   2.371   5.268 -0.3325  1.7021 -1.3005
  737MOL0     H97273   9.745   2.434   5.069 -2.3411  2.3451 -3.2730
  737MOL0     H97274   9.928   2.366   4.917  0.0055  0.9281  0.9402
  737MOL0     H97275   9.837   2.484   4.830  0.8740  0.1107  1.4811
  737MOL0     H97276   9.973   2.237   4.712  1.7924  1.2591  1.3430
  737MOL0     H97277   9.890   2.363   4.619 -0.4868 -3.0392 -0.7824
  737MOL0     H97278  10.139   2.404   4.782  1.2053  0.2098 -0.8435
  737MOL0     H97279  10.069   2.525   4.687  0.3243 -0.4935  3.6013
  737MOL0     H97280  10.193   2.256   4.598 -1.6896 -0.1708  1.3862
  737MOL0     H97281  10.097   2.358   4.488 -1.5969 -2.1892  1.3155
  737MOL0     H97282  10.464   2.568   4.539 -0.4188  0.1008  0.1490
  737MOL0     H97283   9.606   2.091   4.855  0.1659  1.9995 -1.6288
  737MOL0     H97284   9.500   2.014   5.068 -0.4858  0.0553 -0.5133
  738MOL0     O97285   1.342   8.904  11.196 -0.2451  0.7266  0.7868
  738MOL0     C97286   1.297   8.807  11.132  0.0322 -0.5857  0.0526
  738MOL0     O97287   1.191   8.730  11.167 -0.2519  0.5600  0.4494
  738MOL0     C97288   1.103   8.752  11.266 -1.3677  0.2745  0.6781
  738MOL0     C97289   0.984   8.675  11.258 -0.0225 -0.4310 -0.2691
  738MOL0     C97290   0.884   8.692  11.359 -1.1645 -1.1404  0.7562
  738MOL0     C97291   0.900   8.787  11.461 -0.6388  0.7792  0.0574
  738MOL0     O97292   0.802   8.791  11.561  0.0195 -1.0606  0.6085
  738MOL0     C97293   0.683   8.868  11.540  0.1452 -0.0407  0.7518
  738MOL0     C97294   0.561   8.777  11.540 -0.3541 -0.4017  0.2005
  738MOL0     C97295   0.428   8.853  11.520 -0.1845  0.7668  0.6669
  738MOL0     C97296   0.310   8.757  11.518 -0.0153 -0.1308 -0.2981
  738MOL0     C97297   0.168   8.818  11.505 -0.2533  0.2486 -0.0503
  738MOL0     C97298   0.122   8.876  11.634  0.0825 -0.3414 -0.3501
  738MOL0     C97299  -0.021   8.934  11.627  0.8898  0.0216 -0.5775
  738MOL0     C97300  -0.056   8.958  11.773 -0.4208 -0.3721  0.0929
  738MOL0     N97301  -0.193   8.987  11.806  0.6324  0.5200 -0.2975
  738MOL0     C97302  -0.255   9.102  11.780 -0.5871 -0.1486 -0.1017
  738MOL0     C97303  -0.360   9.109  11.868 -0.8999 -0.3395 -0.5447
  738MOL0     C97304  -0.465   9.217  11.883  0.7148 -0.2516 -0.7280
  738MOL0     C97305  -0.609   9.164  11.874  0.3078  0.2463  0.7514
  738MOL0     C97306  -0.688   9.228  11.984  0.4667 -0.2164  0.2889
  738MOL0     C97307  -0.841   9.214  11.964  1.1663 -0.1852  0.4289
  738MOL0     O97308  -0.896   9.321  11.884 -0.0225 -0.3501  0.1705
  738MOL0     C97309  -1.019   9.393  11.900  0.1618  0.3536 -0.6199
  738MOL0     C97310  -1.092   9.379  12.019 -0.2802 -0.5620 -0.2532
  738MOL0     C97311  -1.216   9.438  12.024  1.0269  0.0822 -0.6065
  738MOL0     C97312  -1.264   9.521  11.925 -0.2566 -0.3584 -0.2555
  738MOL0     C97313  -1.392   9.580  11.931 -0.3184 -0.9606 -0.1513
  738MOL0     O97314  -1.423   9.662  11.821 -0.5811  0.1470  0.4563
  738MOL0     C97315  -1.552   9.720  11.831 -0.1367 -0.4828 -0.3892
  738MOL0     C97316  -1.559   9.861  11.818 -0.6789 -0.1018 -0.5152
  738MOL0     C97317  -1.680   9.928  11.820  0.0909 -0.4656  0.0828
  738MOL0     C97318  -1.797   9.855  11.842  0.1515 -0.9809 -0.0781
  738MOL0     O97319  -1.922   9.915  11.845 -0.6190 -0.4895  0.8183
  738MOL0     C97320  -2.041   9.859  11.908  0.5579 -0.2144 -0.1028
  738MOL0     C97321  -2.139   9.778  11.817 -0.1423  0.4873 -0.5839
  738MOL0     C97322  -2.205   9.867  11.710  0.0632 -0.0189  0.1821
  738MOL0     C97323  -2.302   9.958  11.774  0.3083 -0.8964  0.8963
  738MOL0     C97324  -2.413  10.012  11.674  0.3118  0.1532  0.6258
  738MOL0     C97325  -2.354  10.104  11.570  0.1017  0.2154 -0.3102
  738MOL0     C97326  -2.471  10.156  11.482  0.2619  0.4553 -0.7105
  738MOL0     C97327  -2.502  10.051  11.371 -0.0572  1.2225  0.4292
  738MOL0    Cl97328  -2.639  10.115  11.273  0.2385 -0.3194 -0.4018
  738MOL0     C97329  -1.785   9.717  11.849  0.4707 -0.0652  0.5240
  738MOL0     C97330  -1.667   9.649  11.851  0.3712 -0.0615  0.0336
  738MOL0     O97331  -1.468   9.562  12.029 -0.1263 -0.6528  0.2107
  738MOL0     C97332  -1.180   9.539  11.809 -0.4793  0.6971 -0.8310
  738MOL0     C97333  -1.049   9.482  11.807  0.3149  0.2819  0.4780
  738MOL0     N97334  -0.358   8.987  11.937  0.1887 -0.5764  0.0553
  738MOL0     N97335  -0.268   8.911  11.888  0.1800  0.2119 -0.1185
  738MOL0     C97336   1.017   8.855  11.468 -0.5744  1.0016 -0.6705
  738MOL0     C97337   1.121   8.836  11.379  0.0814 -0.0433  0.5315
  738MOL0     C97338   1.360   8.769  11.000 -0.3891  0.7025 -0.1373
  738MOL0     C97339   1.487   8.820  10.973  0.1281  0.9006  0.1422
  738MOL0     C97340   1.559   8.766  10.865  0.1727 -0.3021  0.1506
  738MOL0     C97341   1.501   8.666  10.785 -0.0801 -0.1235  1.0467
  738MOL0     O97342   1.561   8.601  10.675  0.8200  0.1031 -0.2638
  738MOL0     C97343   1.692   8.651  10.644 -0.6462  0.7489  0.4419
  738MOL0     C97344   1.804   8.587  10.732  0.8391 -0.0292  0.4861
  738MOL0     C97345   1.938   8.642  10.706 -0.8020 -0.2094 -0.1258
  738MOL0     C97346   1.969   8.793  10.755  0.5530  0.1205 -1.0684
  738MOL0     C97347   1.970   8.792  10.904  0.8479 -0.0990  0.0744
  738MOL0     C97348   1.972   8.791  11.029 -0.0477 -0.5275  0.0283
  738MOL0     C97349   1.369   8.619  10.817 -0.4894 -0.0917 -0.4781
  738MOL0     C97350   1.301   8.666  10.925  0.3876 -0.0979 -0.2057
  738MOL0     H97351   0.965   8.607  11.176 -1.6737  0.0115 -0.2871
  738MOL0     H97352   0.798   8.625  11.366 -2.7217  0.7677  0.6001
  738MOL0     H97353   0.692   8.926  11.448 -3.9146 -2.0070 -1.1610
  738MOL0     H97354   0.663   8.933  11.625 -1.9558  0.8120 -0.3136
  738MOL0     H97355   0.547   8.731  11.639  0.4486 -0.8399  0.1147
  738MOL0     H97356   0.576   8.690  11.475  0.9926 -0.6973  0.8682
  738MOL0     H97357   0.427   8.913  11.429 -0.4601 -1.3668 -0.8081
  738MOL0     H97358   0.411   8.916  11.607 -0.4382 -0.2257  1.3518
  738MOL0     H97359   0.315   8.688  11.434 -1.1615 -0.8989  0.2467
  738MOL0     H97360   0.304   8.699  11.611  3.2727  0.7428  0.5992
  738MOL0     H97361   0.099   8.737  11.480  1.1660 -0.8689 -0.4807
  738MOL0     H97362   0.163   8.891  11.423  1.0744  0.4104 -0.0052
  738MOL0     H97363   0.197   8.948  11.669 -0.7838  0.4169  0.0012
  738MOL0     H97364   0.136   8.795  11.706  3.3874 -1.5219 -2.0875
  738MOL0     H97365  -0.034   9.030  11.578  2.4400  0.6183  0.1079
  738MOL0     H97366  -0.088   8.862  11.579  1.8907 -0.5670 -1.1170
  738MOL0     H97367  -0.001   9.046  11.808 -2.3773  1.1692 -0.5335
  738MOL0     H97368  -0.031   8.866  11.827  2.9120 -0.9776 -2.1765
  738MOL0     H97369  -0.224   9.183  11.714 -1.1657  1.0211  1.0263
  738MOL0     H97370  -0.448   9.298  11.811  1.1463  1.9842  1.7227
  738MOL0     H97371  -0.458   9.275  11.976  0.0120 -0.3864 -0.5839
  738MOL0     H97372  -0.610   9.055  11.880  4.4295  0.0791  1.2746
  738MOL0     H97373  -0.636   9.190  11.771  1.6144  0.0161  0.3293
  738MOL0     H97374  -0.662   9.179  12.079  1.2737 -1.8139 -0.7026
  738MOL0     H97375  -0.680   9.337  11.987 -1.0285 -0.0914  0.9221
  738MOL0     H97376  -0.887   9.203  12.063 -1.5342 -0.0476 -0.7379
  738MOL0     H97377  -0.858   9.122  11.907 -0.8157  0.6415 -0.4031
  738MOL0     H97378  -1.064   9.311  12.099  0.0605  0.5496  0.5859
  738MOL0     H97379  -1.294   9.424  12.099 -0.2994  5.1066 -0.7243
  738MOL0     H97380  -1.469   9.919  11.801 -0.8846 -0.0317 -1.3844
  738MOL0     H97381  -1.676  10.036  11.820  0.7160 -0.4091 -2.5580
  738MOL0     H97382  -2.104   9.934  11.955  0.4171  1.0306 -2.1895
  738MOL0     H97383  -2.002   9.799  11.992 -1.1263 -2.1658 -0.6295
  738MOL0     H97384  -2.221   9.729  11.870  0.1757  3.4661  3.0506
  738MOL0     H97385  -2.082   9.699  11.766 -1.3306  0.6904 -2.3045
  738MOL0     H97386  -2.260   9.809  11.635 -0.3783  1.2743 -0.5118
  738MOL0     H97387  -2.123   9.911  11.654  1.2084  0.3700  2.0687
  738MOL0     H97388  -2.354   9.896  11.848 -0.8550  0.0322  0.8929
  738MOL0     H97389  -2.256  10.036  11.835 -0.0026  0.1571 -0.1856
  738MOL0     H97390  -2.495  10.065  11.724  0.4551  0.0873  0.9300
  738MOL0     H97391  -2.468   9.931  11.625  1.0328  0.1304 -0.1624
  738MOL0     H97392  -2.284  10.045  11.510 -1.1509  0.5681 -2.1973
  738MOL0     H97393  -2.304  10.185  11.624 -1.6302  0.1855  1.4690
  738MOL0     H97394  -2.563  10.177  11.538 -0.9847 -0.5634 -2.2847
  738MOL0     H97395  -2.449  10.255  11.441 -2.2886  2.6087  2.6006
  738MOL0     H97396  -2.518   9.949  11.406  0.2471  0.7917 -0.6590
  738MOL0     H97397  -2.415  10.049  11.305 -0.4209 -1.8510 -0.0903
  738MOL0     H97398  -1.881   9.666  11.851 -0.4017  1.4986  0.1118
  738MOL0     H97399  -1.665   9.542  11.865  0.9303 -0.1656 -0.7748
  738MOL0     H97400  -1.209   9.598  11.723 -1.2035 -1.0658 -1.8509
  738MOL0     H97401  -0.986   9.481  11.719  0.8378 -1.2491  0.8504
  738MOL0     H97402   1.036   8.924  11.550  1.5638  0.1381 -0.3593
  738MOL0     H97403   1.217   8.883  11.397 -0.1906  0.9227 -0.3981
  738MOL0     H97404   1.535   8.883  11.046 -1.5907  2.1948  0.2152
  738MOL0     H97405   1.664   8.792  10.857  0.1265  0.8708  2.5300
  738MOL0     H97406   1.689   8.759  10.660 -0.8193  0.4293  3.0351
  738MOL0     H97407   1.717   8.630  10.539 -0.8975  2.6604 -0.0455
  738MOL0     H97408   1.777   8.610  10.836 -1.3404  2.1436 -0.4434
  738MOL0     H97409   1.800   8.478  10.721 -0.9897 -0.0941  1.3278
  738MOL0     H97410   1.936   8.660  10.598 -2.9092  1.7599  0.1755
  738MOL0     H97411   2.016   8.571  10.733 -1.8091 -2.1869 -2.0675
  738MOL0     H97412   2.067   8.818  10.713  1.7468 -1.0115  0.9050
  738MOL0     H97413   1.902   8.870  10.717 -0.0738  0.0204 -0.2020
  738MOL0     H97414   1.971   8.797  11.136 -0.3555 -0.9757  0.0551
  738MOL0     H97415   1.324   8.542  10.755 -1.8579 -0.5969  1.0896
  738MOL0     H97416   1.202   8.629  10.949 -0.5125  0.1711 -3.0793
  739MOL0     O97417   5.273  10.579   3.170 -0.0760  0.2085 -0.3286
  739MOL0     C97418   5.323  10.657   3.091 -0.0291 -0.1238  0.1910
  739MOL0     O97419   5.255  10.763   3.040  0.1290 -0.3637  0.0042
  739MOL0     C97420   5.128  10.786   3.074  0.1771 -0.0079  0.3100
  739MOL0     C97421   5.015  10.721   3.016  0.7109  0.1315 -1.0131
  739MOL0     C97422   4.889  10.749   3.069 -0.0254  0.5234 -0.6286
  739MOL0     C97423   4.865  10.834   3.178 -0.1294 -0.5079  0.7298
  739MOL0     O97424   4.730  10.836   3.214 -0.2364 -1.1764 -0.7938
  739MOL0     C97425   4.708  10.907   3.341 -0.0872  0.3560 -1.0374
  739MOL0     C97426   4.564  10.882   3.395  0.4816  1.2343  0.3462
  739MOL0     C97427   4.466  10.956   3.304 -0.3629 -0.9412  0.6932
  739MOL0     C97428   4.317  10.963   3.341 -0.6080  0.1231 -0.4258
  739MOL0     C97429   4.226  10.984   3.225  0.4739  0.0132 -0.3098
  739MOL0     C97430   4.072  10.972   3.258  0.2868  0.6921  0.8511
  739MOL0     C97431   3.989  11.022   3.129  0.2922  0.3484 -0.2167
  739MOL0     C97432   3.838  11.009   3.150  0.1722 -0.0630  0.3017
  739MOL0     N97433   3.753  11.087   3.065 -0.1535  0.1576  0.6151
  739MOL0     C97434   3.681  11.185   3.113  0.7350  0.2045  0.2819
  739MOL0     C97435   3.618  11.236   3.003 -0.5195 -0.7453 -0.2213
  739MOL0     C97436   3.519  11.359   2.983 -0.3171  0.5525 -0.1634
  739MOL0     C97437   3.604  11.470   2.911  0.3824  0.9517 -0.0728
  739MOL0     C97438   3.717  11.523   3.001  0.8849  0.3224  0.3878
  739MOL0     C97439   3.811  11.620   2.937  0.1104 -0.0448 -1.1857
  739MOL0     O97440   3.885  11.548   2.837 -0.0168 -0.4358 -0.3067
  739MOL0     C97441   4.019  11.570   2.836 -0.3640  0.1087 -0.4468
  739MOL0     C97442   4.079  11.657   2.743 -0.6338 -0.3945  1.0584
  739MOL0     C97443   4.222  11.667   2.737  0.3184  0.2618  0.3687
  739MOL0     C97444   4.303  11.598   2.834 -0.6296  0.4831 -0.2194
  739MOL0     C97445   4.451  11.609   2.830  0.1735  0.7367 -0.9363
  739MOL0     O97446   4.496  11.684   2.726 -0.1230  0.5128 -0.5154
  739MOL0     C97447   4.632  11.706   2.692 -0.8746 -0.1785 -0.2215
  739MOL0     C97448   4.751  11.634   2.746  0.8654  0.5174  0.2512
  739MOL0     C97449   4.879  11.670   2.712 -0.9219  0.5235  0.1849
  739MOL0     C97450   4.905  11.765   2.610  0.4132  0.2870  0.0110
  739MOL0     O97451   5.029  11.778   2.551 -0.2997 -0.2079  0.4006
  739MOL0     C97452   5.145  11.738   2.616  0.0684 -1.4009 -0.4520
  739MOL0     C97453   5.261  11.740   2.519  0.6096 -0.3045  0.2632
  739MOL0     C97454   5.281  11.879   2.457 -0.4310 -0.4658 -0.5086
  739MOL0     C97455   5.419  11.886   2.382 -0.1044 -0.1696  0.4286
  739MOL0     C97456   5.548  11.921   2.458 -0.1231  0.0669 -0.7405
  739MOL0     C97457   5.670  11.918   2.362 -0.5417 -0.6570 -0.3741
  739MOL0     C97458   5.701  11.784   2.296  0.3762 -0.2498  0.1921
  739MOL0     C97459   5.831  11.785   2.214 -0.2918 -0.3051 -0.4630
  739MOL0    Cl97460   5.960  11.805   2.332 -0.3199 -0.2407  0.7199
  739MOL0     C97461   4.794  11.838   2.564  0.0631  0.5059 -0.9302
  739MOL0     C97462   4.659  11.807   2.601  0.4000  0.4232 -0.2397
  739MOL0     O97463   4.523  11.561   2.919  0.1615 -0.0149  0.1015
  739MOL0     C97464   4.241  11.526   2.935 -0.2694 -0.2182  0.0198
  739MOL0     C97465   4.105  11.511   2.930  0.4670 -0.1865 -0.2882
  739MOL0     N97466   3.660  11.170   2.889  0.0632  0.3765  0.7964
  739MOL0     N97467   3.746  11.078   2.929  0.6613 -0.1751  0.9041
  739MOL0     C97468   4.978  10.905   3.226  0.1248  1.3883 -0.4679
  739MOL0     C97469   5.103  10.883   3.169 -0.3278 -0.4924 -0.0065
  739MOL0     C97470   5.470  10.640   3.047  0.6130 -0.8686 -0.1766
  739MOL0     C97471   5.537  10.737   2.962  0.6493  0.2028  0.4241
  739MOL0     C97472   5.673  10.730   2.914  0.9247  0.0573 -0.1244
  739MOL0     C97473   5.748  10.620   2.967 -0.0617  0.0449  0.0129
  739MOL0     O97474   5.883  10.604   2.950  1.1926 -0.1116 -0.5179
  739MOL0     C97475   5.954  10.705   2.877  0.0958  0.2558  0.9254
  739MOL0     C97476   6.103  10.660   2.862 -0.3451  0.1787  0.9396
  739MOL0     C97477   6.181  10.725   2.973  0.5316  0.0644 -0.2055
  739MOL0     C97478   6.326  10.676   2.985 -0.0782  0.4246  0.2897
  739MOL0     C97479   6.378  10.732   3.106 -0.5035  0.1811  1.0381
  739MOL0     C97480   6.409  10.775   3.211  0.1636  0.6713 -0.1467
  739MOL0     C97481   5.683  10.528   3.049  0.3103 -0.1480  0.8241
  739MOL0     C97482   5.548  10.542   3.093 -0.2533  0.7998  0.3763
  739MOL0     H97483   5.026  10.642   2.942  1.3185 -0.4723 -0.3070
  739MOL0     H97484   4.805  10.686   3.043  0.3263 -1.1203  1.8616
  739MOL0     H97485   4.713  11.016   3.340 -1.1756  0.4179 -1.4985
  739MOL0     H97486   4.779  10.863   3.411 -1.7515  0.5219  0.8440
  739MOL0     H97487   4.569  10.931   3.493 -1.3030  0.2249  1.0005
  739MOL0     H97488   4.551  10.773   3.401 -0.3223  1.0536 -2.9152
  739MOL0     H97489   4.480  10.919   3.202  2.8587  3.1118 -0.5965
  739MOL0     H97490   4.497  11.060   3.295 -0.1362 -1.1822 -2.5411
  739MOL0     H97491   4.287  10.889   3.416 -0.3498  0.2974 -0.1478
  739MOL0     H97492   4.312  11.056   3.398 -0.3548 -0.1735  0.0862
  739MOL0     H97493   4.259  10.908   3.153  1.6938 -1.2285  1.4869
  739MOL0     H97494   4.253  11.084   3.190 -2.9686  0.8589 -0.9368
  739MOL0     H97495   4.044  11.040   3.339 -2.1439  0.3923  0.3515
  739MOL0     H97496   4.054  10.870   3.292  0.2738 -0.2738 -1.8001
  739MOL0     H97497   4.008  11.128   3.110 -0.1836  0.7734  1.5154
  739MOL0     H97498   4.025  10.965   3.043  2.9135  0.1139  0.9504
  739MOL0     H97499   3.807  11.029   3.253 -2.9433 -0.5630 -0.4375
  739MOL0     H97500   3.808  10.905   3.138 -2.5421  0.7288 -0.4110
  739MOL0     H97501   3.675  11.224   3.214  0.4900 -0.8835  0.6995
  739MOL0     H97502   3.472  11.400   3.072 -2.3045  2.6940 -2.0876
  739MOL0     H97503   3.431  11.320   2.931 -0.9220 -2.3570  2.7136
  739MOL0     H97504   3.547  11.554   2.871 -0.3080  0.1089 -0.9259
  739MOL0     H97505   3.649  11.425   2.821  1.2278  1.8265 -0.0995
  739MOL0     H97506   3.667  11.591   3.071  1.3064  0.5211  0.4990
  739MOL0     H97507   3.765  11.446   3.061  3.1214  0.1940 -1.4138
  739MOL0     H97508   3.873  11.660   3.018 -1.6177  1.1373 -0.3864
  739MOL0     H97509   3.752  11.705   2.901 -0.1597  0.2200 -0.1624
  739MOL0     H97510   4.010  11.714   2.680 -1.2070 -0.8429  1.2777
  739MOL0     H97511   4.270  11.712   2.651  1.1206  0.2866  0.8256
  739MOL0     H97512   4.738  11.542   2.802  2.5833  0.2523  0.2679
  739MOL0     H97513   4.963  11.623   2.762 -0.8685  3.0195  2.6716
  739MOL0     H97514   5.135  11.636   2.654  1.1949 -0.9162  1.2774
  739MOL0     H97515   5.162  11.803   2.702 -0.8019  0.7743 -1.8578
  739MOL0     H97516   5.246  11.658   2.448  0.2232  0.5416 -0.6498
  739MOL0     H97517   5.352  11.714   2.574 -1.1796 -2.9671  2.2098
  739MOL0     H97518   5.271  11.954   2.536  4.2167 -0.7888  0.6456
  739MOL0     H97519   5.202  11.891   2.381 -1.5156 -0.6446  0.5526
  739MOL0     H97520   5.442  11.787   2.342  1.3297 -0.3370  1.5850
  739MOL0     H97521   5.403  11.957   2.300 -0.4234  1.1027  1.5670
  739MOL0     H97522   5.568  11.851   2.540 -2.9818  1.2051  1.1136
  739MOL0     H97523   5.536  12.015   2.514 -1.0463 -1.1481  1.2244
  739MOL0     H97524   5.761  11.957   2.409 -0.9027 -1.3682  0.9752
  739MOL0     H97525   5.648  11.990   2.282  0.1196  0.6068  0.5452
  739MOL0     H97526   5.690  11.705   2.372 -4.3069  2.7970  3.1584
  739MOL0     H97527   5.628  11.771   2.216 -0.0768 -3.1067  0.9408
  739MOL0     H97528   5.838  11.870   2.146  1.5547 -2.4398 -3.1846
  739MOL0     H97529   5.832  11.693   2.155 -1.3488  0.5231 -1.8332
  739MOL0     H97530   4.813  11.917   2.492  2.5032  1.8537  1.0569
  739MOL0     H97531   4.575  11.862   2.559 -0.4799 -0.1319  0.7434
  739MOL0     H97532   4.287  11.459   3.008 -0.7093  0.2025  0.6967
  739MOL0     H97533   4.053  11.444   2.997  1.4735 -0.9436 -0.2347
  739MOL0     H97534   4.971  10.974   3.310  0.9419 -0.2037  0.9716
  739MOL0     H97535   5.184  10.936   3.219  0.0509  0.3829 -1.4865
  739MOL0     H97536   5.478  10.825   2.939 -2.2590 -1.6835  0.1482
  739MOL0     H97537   5.710  10.814   2.856  2.6398  0.7976  1.9297
  739MOL0     H97538   5.946  10.801   2.929 -3.9118  0.0220  1.0564
  739MOL0     H97539   5.904  10.718   2.780 -1.6629 -1.0559  1.5885
  739MOL0     H97540   6.114  10.551   2.872  1.3504  0.4939  3.6424
  739MOL0     H97541   6.150  10.686   2.767  2.4611 -4.6242  0.7010
  739MOL0     H97542   6.117  10.699   3.057  0.0530 -2.2242 -1.1991
  739MOL0     H97543   6.186  10.833   2.956  0.6074 -0.2202 -2.3204
  739MOL0     H97544   6.329  10.566   2.981  1.9324  0.4825 -1.8632
  739MOL0     H97545   6.377  10.714   2.896 -1.5602  1.3561 -0.1961
  739MOL0     H97546   6.414  10.791   3.317 -2.1108 -1.5596  0.3751
  739MOL0     H97547   5.736  10.443   3.090 -1.0494 -1.0551  0.7614
  739MOL0     H97548   5.514  10.461   3.158  0.2199  1.2394  1.1892
  740MOL0     O97549   1.034  11.160   3.942  0.0926 -0.4804 -0.0171
  740MOL0     C97550   1.035  11.265   3.871  0.4829 -0.1329 -0.1778
  740MOL0     O97551   1.149  11.309   3.802 -0.2143  0.5541 -0.2820
  740MOL0     C97552   1.270  11.251   3.829 -0.5193  0.1188 -0.4830
  740MOL0     C97553   1.361  11.338   3.883  0.6608 -0.5187 -0.0532
  740MOL0     C97554   1.485  11.294   3.932 -0.1487 -0.5316 -0.7716
  740MOL0     C97555   1.523  11.162   3.913 -0.0529 -0.1764  0.2171
  740MOL0     O97556   1.643  11.106   3.942  0.7179  0.5434 -0.0053
  740MOL0     C97557   1.748  11.186   3.990 -0.3674  0.0362 -0.3164
  740MOL0     C97558   1.867  11.101   4.038 -0.1439  0.0931  0.5758
  740MOL0     C97559   1.925  10.995   3.940  0.1687 -0.2216 -0.3799
  740MOL0     C97560   1.846  10.866   3.904 -0.6651  0.3168 -0.1881
  740MOL0     C97561   1.823  10.764   4.018  0.5145 -0.1547 -0.5044
  740MOL0     C97562   1.935  10.668   4.046 -0.0450 -0.0116  0.2174
  740MOL0     C97563   1.948  10.565   3.930  0.5331  0.9977 -0.5344
  740MOL0     C97564   2.091  10.502   3.949  0.2013  0.3490  0.3578
  740MOL0     N97565   2.196  10.593   3.923 -0.6115 -0.2818  0.0197
  740MOL0     C97566   2.224  10.654   3.801 -0.3400  0.1523  0.2281
  740MOL0     C97567   2.307  10.758   3.831 -0.0711 -0.2017  1.0753
  740MOL0     C97568   2.344  10.873   3.741  0.5697  0.2664  0.6770
  740MOL0     C97569   2.217  10.936   3.684  0.4792  0.3920  0.1682
  740MOL0     C97570   2.242  11.038   3.574 -0.3788 -0.7070 -0.3587
  740MOL0     C97571   2.118  11.063   3.496 -0.8195  0.5380 -0.0902
  740MOL0     O97572   2.000  11.080   3.582  0.0949  0.4019 -0.1876
  740MOL0     C97573   1.884  11.104   3.524  1.0321 -0.3889 -0.2945
  740MOL0     C97574   1.869  11.190   3.412  0.5246 -0.2677  0.6795
  740MOL0     C97575   1.735  11.203   3.349 -0.1774  0.6084  0.0294
  740MOL0     C97576   1.621  11.141   3.415  0.0846  0.2081  0.1957
  740MOL0     C97577   1.481  11.173   3.371  0.3528 -0.8999 -0.3045
  740MOL0     O97578   1.385  11.102   3.439  0.0584 -0.1691 -0.2205
  740MOL0     C97579   1.252  11.129   3.413  0.0169  0.1072 -0.6384
  740MOL0     C97580   1.194  11.239   3.477  0.7848 -0.9187  0.8817
  740MOL0     C97581   1.056  11.268   3.476 -0.1203  1.0215  0.1312
  740MOL0     C97582   0.974  11.182   3.393  0.0375  0.3139 -0.4512
  740MOL0     O97583   0.837  11.195   3.379  0.2957  0.2335  0.2125
  740MOL0     C97584   0.763  11.291   3.450  0.1012 -0.4756  0.2732
  740MOL0     C97585   0.614  11.302   3.412  0.1244 -0.8818  0.2435
  740MOL0     C97586   0.524  11.184   3.449  0.2832  0.2752  0.5154
  740MOL0     C97587   0.377  11.224   3.445 -0.2507 -0.1176  0.0960
  740MOL0     C97588   0.283  11.110   3.456  0.8265  0.3843 -0.1972
  740MOL0     C97589   0.138  11.147   3.474 -0.7307  0.6508  0.5254
  740MOL0     C97590   0.074  11.222   3.357  0.0086 -0.2463 -0.3143
  740MOL0     C97591  -0.075  11.238   3.352  0.1628  0.1818 -0.2097
  740MOL0    Cl97592  -0.094  11.390   3.454 -0.0583  0.1804  0.5958
  740MOL0     C97593   1.032  11.076   3.321 -0.1284 -0.0837 -0.5367
  740MOL0     C97594   1.165  11.045   3.339 -0.1778  0.0244 -0.8213
  740MOL0     O97595   1.461  11.271   3.301  0.5726  0.2273  0.2137
  740MOL0     C97596   1.644  11.052   3.523 -0.5345 -0.8698 -1.0594
  740MOL0     C97597   1.769  11.042   3.575 -0.1618 -0.3650  0.3081
  740MOL0     N97598   2.351  10.738   3.958 -0.0338  0.1761  0.0926
  740MOL0     N97599   2.288  10.634   4.016  0.2908  0.1568  0.0122
  740MOL0     C97600   1.426  11.071   3.861 -0.2419  0.0937  0.3595
  740MOL0     C97601   1.305  11.116   3.814 -0.0829  0.1442 -0.3922
  740MOL0     C97602   0.905  11.317   3.824 -0.1655 -0.7418 -0.0899
  740MOL0     C97603   0.893  11.456   3.777 -0.3367 -0.4405  0.1674
  740MOL0     C97604   0.769  11.508   3.742 -0.5919  0.4892  0.0892
  740MOL0     C97605   0.659  11.429   3.743  1.1583  0.3203  0.4541
  740MOL0     O97606   0.536  11.484   3.711  0.2332 -0.2091 -1.0064
  740MOL0     C97607   0.421  11.458   3.792 -0.0784  0.1555  0.4821
  740MOL0     C97608   0.303  11.548   3.768  0.0507  0.8161 -0.2975
  740MOL0     C97609   0.318  11.669   3.851  0.1509 -1.1432 -0.0419
  740MOL0     C97610   0.182  11.740   3.864  0.4425 -0.0087  0.2501
  740MOL0     C97611   0.211  11.861   3.945  0.7173 -0.0956 -0.1625
  740MOL0     C97612   0.217  11.967   4.004 -0.0861 -0.0936  0.1512
  740MOL0     C97613   0.669  11.293   3.790  1.0226 -0.3167  0.6879
  740MOL0     C97614   0.792  11.240   3.826 -0.2830 -0.3946  0.0312
  740MOL0     H97615   1.336  11.444   3.893 -2.2952 -0.8301 -2.7094
  740MOL0     H97616   1.557  11.367   3.967 -1.7223  0.8921 -0.3469
  740MOL0     H97617   1.703  11.226   4.081  2.9040 -1.1928  2.0500
  740MOL0     H97618   1.766  11.259   3.910 -3.9657  0.3885 -0.9482
  740MOL0     H97619   1.840  11.042   4.126  1.4638 -0.8487  0.4881
  740MOL0     H97620   1.956  11.160   4.066  0.1443 -0.3270  0.5572
  740MOL0     H97621   2.019  10.967   3.990  0.5070  0.5902 -0.5384
  740MOL0     H97622   1.948  11.049   3.848 -0.3784  1.0419  0.2099
  740MOL0     H97623   1.758  10.905   3.851 -1.3396 -1.6030 -0.5497
  740MOL0     H97624   1.897  10.809   3.826 -0.3278 -1.3470  1.1913
  740MOL0     H97625   1.730  10.708   4.006  2.7980 -3.5667 -4.8199
  740MOL0     H97626   1.800  10.831   4.102  1.0060 -0.8847  0.2281
  740MOL0     H97627   1.909  10.625   4.143 -0.0276  1.4159  0.8835
  740MOL0     H97628   2.028  10.726   4.047  0.4284 -0.6731  2.6414
  740MOL0     H97629   1.872  10.490   3.954  3.0127 -1.2542  0.9247
  740MOL0     H97630   1.931  10.605   3.830 -1.2656 -1.4447 -1.3178
  740MOL0     H97631   2.109  10.421   3.876  1.0077  1.9758 -1.3277
  740MOL0     H97632   2.097  10.457   4.048 -1.2875 -0.7278 -0.0005
  740MOL0     H97633   2.162  10.652   3.712 -1.4518 -0.4273  0.9889
  740MOL0     H97634   2.404  10.838   3.656 -1.5627  3.1072 -2.2422
  740MOL0     H97635   2.401  10.947   3.797  0.3823  0.1158  1.0755
  740MOL0     H97636   2.162  10.988   3.763 -1.7792 -0.0593 -1.0192
  740MOL0     H97637   2.159  10.853   3.642  2.3766 -0.0816 -1.6648
  740MOL0     H97638   2.287  11.127   3.618 -0.7020 -0.9789  0.5338
  740MOL0     H97639   2.310  10.987   3.504 -1.1932  0.8914 -2.4187
  740MOL0     H97640   2.101  10.979   3.428 -0.4171  1.5425 -1.4822
  740MOL0     H97641   2.144  11.149   3.433 -0.9906  0.7684  0.1522
  740MOL0     H97642   1.957  11.243   3.378 -0.7075  2.6242  1.7152
  740MOL0     H97643   1.730  11.276   3.268  1.3248  0.2297 -0.4466
  740MOL0     H97644   1.255  11.302   3.541 -0.4645  0.3063  0.9195
  740MOL0     H97645   1.008  11.350   3.528 -1.5847 -2.2933  4.7166
  740MOL0     H97646   0.805  11.391   3.437  1.6614 -1.2572 -1.0530
  740MOL0     H97647   0.768  11.271   3.557  1.3544  0.7789  0.4833
  740MOL0     H97648   0.607  11.320   3.305  1.2047  2.2162  0.5999
  740MOL0     H97649   0.575  11.399   3.443 -1.5409 -0.1510 -3.5636
  740MOL0     H97650   0.545  11.146   3.549  1.9901 -0.9171 -0.2431
  740MOL0     H97651   0.541  11.095   3.387  1.3881 -0.8943  2.3883
  740MOL0     H97652   0.362  11.308   3.513 -1.7509  0.9737 -1.5068
  740MOL0     H97653   0.365  11.267   3.345 -1.6724  0.2092  0.3913
  740MOL0     H97654   0.317  11.059   3.547 -0.8280 -0.9893 -0.2888
  740MOL0     H97655   0.295  11.046   3.368 -2.1558  2.7216 -2.5225
  740MOL0     H97656   0.126  11.214   3.560 -0.3811  2.4840 -0.7831
  740MOL0     H97657   0.081  11.054   3.481 -1.0008  0.5251 -2.0518
  740MOL0     H97658   0.124  11.318   3.340  1.9682 -0.6401  2.6192
  740MOL0     H97659   0.085  11.152   3.273  0.4899 -1.8850  1.0796
  740MOL0     H97660  -0.128  11.155   3.399 -0.3811  0.2097 -0.7557
  740MOL0     H97661  -0.106  11.254   3.248 -1.7779  0.1707  0.3295
  740MOL0     H97662   0.958  11.026   3.259 -2.9456  2.5738  0.4441
  740MOL0     H97663   1.223  10.972   3.284 -0.1269  0.5697 -1.5032
  740MOL0     H97664   1.558  10.993   3.556 -2.0817  2.0875  0.5570
  740MOL0     H97665   1.782  10.974   3.659  1.4185 -1.0824 -0.4700
  740MOL0     H97666   1.444  10.964   3.847 -0.3039  0.0959  0.2589
  740MOL0     H97667   1.238  11.042   3.770 -0.0763  0.3416 -0.7392
  740MOL0     H97668   0.987  11.510   3.774  0.7081 -2.2171 -2.1986
  740MOL0     H97669   0.770  11.613   3.712  1.9181  0.4176 -0.2225
  740MOL0     H97670   0.449  11.447   3.898  1.2544  1.4489  0.2968
  740MOL0     H97671   0.379  11.362   3.761 -0.9704  1.1920 -1.7134
  740MOL0     H97672   0.308  11.577   3.663  0.0430 -0.0126 -0.5376
  740MOL0     H97673   0.208  11.495   3.778  0.4313 -0.2717 -1.9338
  740MOL0     H97674   0.397  11.734   3.810  0.1486 -1.0798  0.0529
  740MOL0     H97675   0.358  11.647   3.950 -0.2142 -0.6802  0.2134
  740MOL0     H97676   0.134  11.775   3.772  2.8930  2.2778 -0.3051
  740MOL0     H97677   0.103  11.675   3.903  0.5642 -1.6067 -1.9690
  740MOL0     H97678   0.223  12.059   4.058 -0.9010 -1.3760  2.5729
  740MOL0     H97679   0.581  11.230   3.790  0.4044  0.5157  0.6301
  740MOL0     H97680   0.791  11.137   3.860  1.8879 -0.6426 -0.4776
  741MOL0     O97681   0.749   1.987  10.553 -0.4606  0.0915  0.3003
  741MOL0     C97682   0.796   1.936  10.450  0.0125 -0.5856 -0.5963
  741MOL0     O97683   0.721   1.918  10.337 -1.0842 -0.2505  0.0797
  741MOL0     C97684   0.603   1.974  10.324 -0.0277 -0.0959  0.0982
  741MOL0     C97685   0.587   2.069  10.223  0.5509  0.0362  0.3228
  741MOL0     C97686   0.463   2.115  10.193 -0.0345  0.0849 -0.3916
  741MOL0     C97687   0.348   2.062  10.259  0.1349 -1.4589  0.0292
  741MOL0     O97688   0.214   2.096  10.236 -0.1056  0.5020 -0.0742
  741MOL0     C97689   0.165   2.035  10.114 -1.0678  0.3864  0.4600
  741MOL0     C97690   0.073   2.143  10.036 -0.0388 -0.0229  0.5203
  741MOL0     C97691   0.004   2.080   9.912 -0.2113 -0.7944 -0.3890
  741MOL0     C97692   0.094   2.035   9.797 -0.4952  0.2668 -0.6715
  741MOL0     C97693   0.104   1.879   9.806  0.5898  0.4288  0.1666
  741MOL0     C97694   0.208   1.829   9.701  0.4224 -0.4856 -0.2446
  741MOL0     C97695   0.160   1.867   9.556 -0.1214  0.2166 -0.4351
  741MOL0     C97696   0.241   1.787   9.455  0.3346 -0.8426 -0.4949
  741MOL0     N97697   0.201   1.811   9.320 -0.1929  0.2548  0.6323
  741MOL0     C97698   0.252   1.903   9.236  0.8098 -0.4480 -0.0197
  741MOL0     C97699   0.163   1.910   9.130  0.2946 -0.0670 -0.0946
  741MOL0     C97700   0.186   1.990   9.008 -0.4691  0.1603 -0.3497
  741MOL0     C97701   0.058   2.003   8.925  0.0480  0.0656 -0.2771
  741MOL0     C97702   0.056   2.114   8.823 -1.0346  0.7240  0.1062
  741MOL0     C97703   0.179   2.123   8.735  0.5112 -0.1039  0.8676
  741MOL0     O97704   0.200   2.009   8.646 -0.2737  0.0431 -0.8161
  741MOL0     C97705   0.330   1.991   8.591  0.5794 -0.6321  0.3052
  741MOL0     C97706   0.384   1.861   8.569 -0.0773  0.4933  0.2781
  741MOL0     C97707   0.520   1.847   8.525  0.4193 -0.3229  0.0167
  741MOL0     C97708   0.601   1.959   8.491  0.5812  0.3761 -0.4714
  741MOL0     C97709   0.747   1.932   8.450 -0.0161  0.6489  0.4054
  741MOL0     O97710   0.818   2.042   8.400 -0.2064  0.5828 -0.2172
  741MOL0     C97711   0.944   2.041   8.351  1.4468  0.0876  0.5201
  741MOL0     C97712   0.979   2.146   8.262 -0.5752 -0.0591  0.1041
  741MOL0     C97713   1.111   2.154   8.207 -0.1562 -0.0366 -0.0161
  741MOL0     C97714   1.206   2.060   8.239 -0.5732  0.9086 -0.1863
  741MOL0     O97715   1.330   2.052   8.179 -0.4883  0.0692 -0.7808
  741MOL0     C97716   1.400   2.173   8.180 -0.0185 -0.3447  0.4940
  741MOL0     C97717   1.517   2.163   8.282 -0.2609 -0.0405  0.2469
  741MOL0     C97718   1.638   2.237   8.231  0.4643 -0.0078 -0.3752
  741MOL0     C97719   1.736   2.261   8.345 -0.6679 -0.7117  0.0667
  741MOL0     C97720   1.861   2.335   8.294 -0.1741 -0.1150 -0.3188
  741MOL0     C97721   1.967   2.330   8.400  0.1087 -0.5136  0.7162
  741MOL0     C97722   2.054   2.197   8.397 -0.4547 -0.4330 -0.1810
  741MOL0     C97723   2.153   2.209   8.520  0.6630 -0.8998 -0.6678
  741MOL0    Cl97724   2.253   2.359   8.517  0.1364 -0.0893  0.1271
  741MOL0     C97725   1.172   1.959   8.328 -0.1219  0.1618 -0.0777
  741MOL0     C97726   1.042   1.944   8.376 -0.2515 -0.2113 -0.0938
  741MOL0     O97727   0.793   1.817   8.467  0.4351 -0.0942 -0.3026
  741MOL0     C97728   0.548   2.086   8.520 -0.4585  0.3481  0.0745
  741MOL0     C97729   0.416   2.097   8.562  0.1912 -0.4723  0.9267
  741MOL0     N97730   0.054   1.833   9.166  0.5313  0.1637  0.2279
  741MOL0     N97731   0.081   1.767   9.276  0.0545 -1.7007  0.1622
  741MOL0     C97732   0.364   1.967  10.362 -1.0243  0.2298  0.2450
  741MOL0     C97733   0.496   1.920  10.391  0.3403  0.2677 -0.1324
  741MOL0     C97734   0.941   1.901  10.450  0.0086  0.5710 -0.3812
  741MOL0     C97735   1.029   1.928  10.555 -0.4590 -0.7616 -0.5094
  741MOL0     C97736   1.166   1.900  10.549 -1.1671  0.1412  0.0733
  741MOL0     C97737   1.215   1.822  10.446 -0.5474  0.7646 -0.0551
  741MOL0     O97738   1.351   1.767  10.439  0.2087 -0.0337  0.1922
  741MOL0     C97739   1.456   1.761  10.539  0.1639 -0.2709  0.5241
  741MOL0     C97740   1.409   1.670  10.649  0.7272  0.4445 -0.3632
  741MOL0     C97741   1.504   1.600  10.735 -0.5000 -0.2101 -0.9078
  741MOL0     C97742   1.590   1.711  10.812 -0.4992 -0.1777  0.0671
  741MOL0     C97743   1.706   1.751  10.723  0.4014 -0.3330 -0.1398
  741MOL0     C97744   1.808   1.785  10.664 -0.0327  0.5586 -0.6529
  741MOL0     C97745   1.130   1.794  10.341 -0.1368 -0.2095  0.5748
  741MOL0     C97746   1.000   1.826  10.341  0.0563  0.1539  0.2211
  741MOL0     H97747   0.672   2.091  10.159 -0.9170  0.8492 -1.4045
  741MOL0     H97748   0.454   2.168  10.099  0.8620 -0.0343 -0.5550
  741MOL0     H97749   0.109   1.943  10.135  0.2788 -1.0995 -1.9069
  741MOL0     H97750   0.253   2.004  10.055  1.2451  1.7195  3.0044
  741MOL0     H97751   0.129   2.224   9.990 -2.1350 -0.3403 -2.9352
  741MOL0     H97752  -0.008   2.182  10.099 -2.9019  0.6636 -3.2389
  741MOL0     H97753  -0.059   2.161   9.873  1.5756  0.0508 -1.6607
  741MOL0     H97754  -0.058   1.997   9.947 -0.5118 -0.4821 -0.1708
  741MOL0     H97755   0.061   2.070   9.699  0.4981 -0.6002 -1.3368
  741MOL0     H97756   0.193   2.083   9.794  0.6043 -1.8966 -0.6300
  741MOL0     H97757   0.003   1.841   9.792 -0.9099  3.9274  0.5868
  741MOL0     H97758   0.138   1.848   9.905 -0.7506 -0.7233  0.2892
  741MOL0     H97759   0.201   1.721   9.711  1.6398 -1.0582 -3.9527
  741MOL0     H97760   0.308   1.864   9.728  1.5025 -3.7755  0.4514
  741MOL0     H97761   0.054   1.839   9.550 -0.3026  0.4531  1.2173
  741MOL0     H97762   0.173   1.974   9.537 -0.8162  1.0536  3.1036
  741MOL0     H97763   0.231   1.681   9.478  1.5109 -0.9065 -0.2418
  741MOL0     H97764   0.343   1.824   9.468 -0.3650  0.8286  0.5425
  741MOL0     H97765   0.350   1.951   9.236  0.4796  0.2578 -1.2788
  741MOL0     H97766   0.268   1.951   8.947 -0.2396 -0.7458  0.5195
  741MOL0     H97767   0.222   2.089   9.036 -0.6729 -0.1146  0.9760
  741MOL0     H97768  -0.026   2.020   8.993 -0.8725 -3.4068 -0.3693
  741MOL0     H97769   0.045   1.908   8.874  0.5801 -0.0637 -0.1763
  741MOL0     H97770  -0.035   2.105   8.764 -2.4257 -2.1301  2.4170
  741MOL0     H97771   0.053   2.206   8.882  1.6690 -0.7385  2.8915
  741MOL0     H97772   0.265   2.141   8.802 -0.3863  0.0310  2.0226
  741MOL0     H97773   0.163   2.210   8.670  1.7428 -0.0061  0.6612
  741MOL0     H97774   0.319   1.778   8.594  1.6511 -0.9413  0.2082
  741MOL0     H97775   0.566   1.749   8.519  2.8291  0.7983 -1.7600
  741MOL0     H97776   0.909   2.222   8.230 -2.8489 -1.0702  2.2681
  741MOL0     H97777   1.131   2.234   8.137  1.3518 -0.6396 -0.3172
  741MOL0     H97778   1.349   2.269   8.197  4.1885  2.1004  0.6321
  741MOL0     H97779   1.438   2.188   8.078 -0.2583  1.4198  0.6230
  741MOL0     H97780   1.550   2.060   8.298  1.5722  0.5549  0.5746
  741MOL0     H97781   1.476   2.202   8.376 -2.0725  1.2149 -0.9980
  741MOL0     H97782   1.604   2.335   8.198  2.0905  0.2058 -1.5474
  741MOL0     H97783   1.683   2.179   8.150 -1.2409 -2.5563  0.3941
  741MOL0     H97784   1.697   2.323   8.426  0.2049  2.7300 -1.9777
  741MOL0     H97785   1.761   2.157   8.372  0.6099  0.1451  2.4981
  741MOL0     H97786   1.834   2.440   8.282  0.7591  0.1957  0.2070
  741MOL0     H97787   1.895   2.275   8.209 -3.5853 -3.3380  0.3318
  741MOL0     H97788   1.931   2.346   8.502 -0.4802 -0.6997  0.5373
  741MOL0     H97789   2.032   2.415   8.375  0.3582 -1.1342 -0.9123
  741MOL0     H97790   1.980   2.120   8.421 -2.6933  2.0194  1.2344
  741MOL0     H97791   2.104   2.190   8.299 -0.9139 -2.1685 -0.3259
  741MOL0     H97792   2.215   2.119   8.528  0.6708 -0.6913  3.8667
  741MOL0     H97793   2.098   2.209   8.614  0.8231 -2.4787 -0.5436
  741MOL0     H97794   1.246   1.880   8.338  0.1448  0.5470  1.0738
  741MOL0     H97795   1.027   1.866   8.450 -1.1375  2.1799  2.4436
  741MOL0     H97796   0.625   2.160   8.500 -1.0351  0.8558 -0.3150
  741MOL0     H97797   0.377   2.198   8.572 -0.3488 -0.7141  1.2629
  741MOL0     H97798   0.275   1.920  10.404  1.2919 -3.3877  1.5861
  741MOL0     H97799   0.506   1.844  10.468  0.2269  1.2780  0.9070
  741MOL0     H97800   0.981   1.975  10.640  0.8493  3.2605 -1.7542
  741MOL0     H97801   1.217   1.911  10.644 -0.4769 -2.2566  0.0372
  741MOL0     H97802   1.480   1.861  10.578  0.2784  1.0377 -2.5805
  741MOL0     H97803   1.551   1.736  10.491 -0.0319  1.7673 -1.0986
  741MOL0     H97804   1.337   1.729  10.706  1.6183  2.9446 -1.6822
  741MOL0     H97805   1.367   1.584  10.595  0.0699 -0.7812  1.9663
  741MOL0     H97806   1.560   1.521  10.684 -1.0008 -1.2313  0.0821
  741MOL0     H97807   1.439   1.551  10.808  0.9293 -2.0123 -0.7485
  741MOL0     H97808   1.534   1.803  10.831 -1.3217 -0.5227 -0.6069
  741MOL0     H97809   1.636   1.678  10.905  1.6559  0.1266 -0.8207
  741MOL0     H97810   1.901   1.827  10.632 -0.0485  2.6177  1.7151
  741MOL0     H97811   1.179   1.734  10.264  1.5699  1.5799  0.2092
  741MOL0     H97812   0.936   1.808  10.255  1.7510 -0.9598 -0.8605
  742MOL0     O97813   1.399  10.378   6.392 -0.6451  0.1467  0.4264
  742MOL0     C97814   1.385  10.268   6.452 -0.3588  0.3834  0.5359
  742MOL0     O97815   1.265  10.223   6.496 -0.3895  0.5982  0.2593
  742MOL0     C97816   1.149  10.254   6.427 -0.2485 -0.4221 -0.5295
  742MOL0     C97817   1.037  10.320   6.485  0.1207 -0.0746  0.2507
  742MOL0     C97818   0.930  10.365   6.410 -0.0679 -0.4891  0.4029
  742MOL0     C97819   0.916  10.334   6.277 -0.6155 -1.3924  0.7688
  742MOL0     O97820   0.794  10.364   6.224 -0.1175 -0.2350  0.0765
  742MOL0     C97821   0.766  10.324   6.088 -0.8034  0.4357 -0.2176
  742MOL0     C97822   0.628  10.379   6.039 -1.2355  0.7908 -0.4517
  742MOL0     C97823   0.522  10.294   6.113  0.4661  0.2744  0.5393
  742MOL0     C97824   0.386  10.352   6.060 -0.2340  0.3055  0.1208
  742MOL0     C97825   0.272  10.254   6.095 -0.5956  0.7353 -0.0083
  742MOL0     C97826   0.140  10.280   6.028 -0.6801  0.4241 -0.1380
  742MOL0     C97827   0.034  10.170   6.060 -0.3321  0.7205 -0.1628
  742MOL0     C97828  -0.056  10.154   5.936 -0.6060 -0.6626  0.1375
  742MOL0     N97829  -0.197  10.115   5.972  0.0618 -0.5855  0.3506
  742MOL0     C97830  -0.239   9.991   6.019  0.3534 -0.0937 -0.4299
  742MOL0     C97831  -0.372  10.019   6.047  0.1763  0.4648 -0.6353
  742MOL0     C97832  -0.463   9.923   6.126  0.0723 -0.1382  0.2539
  742MOL0     C97833  -0.562   9.851   6.042  0.0229  0.5885  1.6396
  742MOL0     C97834  -0.678   9.938   5.988 -0.1440  0.3312  0.5257
  742MOL0     C97835  -0.783  10.000   6.088 -0.6151  0.4500 -1.0269
  742MOL0     O97836  -0.869   9.899   6.140 -0.3006  0.0532 -0.3263
  742MOL0     C97837  -0.973   9.925   6.224 -0.7748 -0.3506 -0.3325
  742MOL0     C97838  -1.059   9.822   6.257 -0.0184 -0.2303  0.4404
  742MOL0     C97839  -1.178   9.841   6.336 -0.6128  0.5180 -0.3463
  742MOL0     C97840  -1.212   9.967   6.382 -0.1613 -0.2622 -0.3545
  742MOL0     C97841  -1.322   9.985   6.475  0.0574 -0.9651  0.7747
  742MOL0     O97842  -1.428   9.903   6.449  0.8469  0.3927  0.2089
  742MOL0     C97843  -1.540   9.919   6.523  0.9407 -0.3893 -0.4074
  742MOL0     C97844  -1.589   9.824   6.611 -0.0897  0.7182  0.1738
  742MOL0     C97845  -1.705   9.837   6.695 -0.4299  1.1548 -0.5267
  742MOL0     C97846  -1.771   9.958   6.691  0.2241 -0.2311  0.7428
  742MOL0     O97847  -1.895   9.966   6.763  0.6352 -0.5157 -0.1852
  742MOL0     C97848  -2.007  10.034   6.700  0.3321 -0.6170 -0.0784
  742MOL0     C97849  -2.131   9.999   6.788  0.2180 -0.1934  0.2505
  742MOL0     C97850  -2.174   9.850   6.782 -0.0609 -0.2067 -0.0357
  742MOL0     C97851  -2.298   9.821   6.875 -0.0684 -0.1441  0.7932
  742MOL0     C97852  -2.338   9.668   6.862  0.4008  0.3778  0.8949
  742MOL0     C97853  -2.455   9.629   6.953  0.5197 -0.0100 -0.1076
  742MOL0     C97854  -2.510   9.484   6.916  0.0593 -0.5470 -0.2196
  742MOL0     C97855  -2.568   9.412   7.045 -0.9004  0.3424  0.3357
  742MOL0    Cl97856  -2.644   9.241   7.018 -0.5488  0.1843 -0.1984
  742MOL0     C97857  -1.724  10.059   6.598  0.4724 -0.7852 -0.4080
  742MOL0     C97858  -1.608  10.040   6.520 -0.1131  0.0203 -0.4772
  742MOL0     O97859  -1.317  10.077   6.554 -0.2235 -0.1635  0.2480
  742MOL0     C97860  -1.125  10.080   6.351  0.3317  0.8971 -1.1324
  742MOL0     C97861  -1.007  10.054   6.280  0.1436  0.1509  0.7445
  742MOL0     N97862  -0.395  10.151   6.019  0.9179 -0.0608 -0.6462
  742MOL0     N97863  -0.288  10.211   5.984  1.3057  0.4404  0.4614
  742MOL0     C97864   1.017  10.254   6.218  0.9996  0.2160 -0.3190
  742MOL0     C97865   1.135  10.231   6.290 -0.5382 -1.1258 -0.5835
  742MOL0     C97866   1.516  10.192   6.481  0.2138 -0.9425  0.7890
  742MOL0     C97867   1.510  10.056   6.503  0.2775 -0.2453  0.9714
  742MOL0     C97868   1.628   9.992   6.544  0.2862 -0.4174  0.3459
  742MOL0     C97869   1.740  10.060   6.568 -0.8685 -0.2148 -0.4904
  742MOL0     O97870   1.854   9.990   6.608 -0.1417 -0.2561 -0.2832
  742MOL0     C97871   1.970  10.022   6.533 -0.1974  0.3459  0.4479
  742MOL0     C97872   2.076   9.916   6.560 -0.2047 -0.1369 -0.3446
  742MOL0     C97873   2.208   9.953   6.483  0.5273  0.0935 -0.2285
  742MOL0     C97874   2.315   9.840   6.500  0.4601 -0.2352 -0.5934
  742MOL0     C97875   2.437   9.880   6.427  0.3890  0.0997  1.1493
  742MOL0     C97876   2.536   9.904   6.352  0.2770 -0.1471 -0.5875
  742MOL0     C97877   1.747  10.199   6.552  0.5380 -0.4734 -0.2776
  742MOL0     C97878   1.634  10.266   6.505 -0.3439  0.0665  0.2816
  742MOL0     H97879   1.032  10.343   6.591  5.1728  0.0286  0.6857
  742MOL0     H97880   0.854  10.420   6.465  0.5039  1.3865 -0.5829
  742MOL0     H97881   0.773  10.215   6.081 -1.4856  0.3932 -0.3539
  742MOL0     H97882   0.847  10.372   6.032  0.0892 -1.5135 -0.6586
  742MOL0     H97883   0.617  10.366   5.931 -1.2594 -0.2213 -0.3364
  742MOL0     H97884   0.616  10.481   6.075  0.0465  0.6482  0.4643
  742MOL0     H97885   0.514  10.313   6.221  2.8357 -1.3587  1.0889
  742MOL0     H97886   0.535  10.188   6.093  2.1102  0.5634 -0.0685
  742MOL0     H97887   0.366  10.448   6.108  0.3154  0.4326  0.0981
  742MOL0     H97888   0.391  10.363   5.952 -1.6852  2.3047  0.1952
  742MOL0     H97889   0.273  10.257   6.205  0.0655  3.4612 -0.0095
  742MOL0     H97890   0.306  10.155   6.063  0.3391  0.6958  1.0288
  742MOL0     H97891   0.162  10.283   5.921  3.4680  1.8411  0.5963
  742MOL0     H97892   0.098  10.379   6.047 -2.1455 -0.4060  1.1469
  742MOL0     H97893   0.069  10.069   6.079 -1.1325  0.0626 -1.9876
  742MOL0     H97894  -0.024  10.197   6.149 -1.7012  0.2354 -0.8850
  742MOL0     H97895  -0.002  10.083   5.873  1.8831  0.9029  0.3652
  742MOL0     H97896  -0.066  10.251   5.887  1.9876 -0.9816 -1.2093
  742MOL0     H97897  -0.188   9.896   6.028  1.0055  0.3955  1.5537
  742MOL0     H97898  -0.516   9.986   6.198 -0.5638  1.2064 -1.3247
  742MOL0     H97899  -0.398   9.851   6.176 -1.3560 -1.6524  0.0580
  742MOL0     H97900  -0.593   9.755   6.085  1.2697 -2.2918 -3.1789
  742MOL0     H97901  -0.506   9.814   5.956 -0.3977  0.4947  1.4027
  742MOL0     H97902  -0.634  10.011   5.919  0.4301  1.3352  1.9198
  742MOL0     H97903  -0.727   9.870   5.918 -0.6173 -2.0594  3.0257
  742MOL0     H97904  -0.849  10.071   6.038 -1.0386  1.0386  0.3224
  742MOL0     H97905  -0.733  10.060   6.164 -1.9311  1.2783 -0.7889
  742MOL0     H97906  -1.035   9.728   6.209  0.0253  1.1871 -2.5200
  742MOL0     H97907  -1.242   9.757   6.362 -0.3300  0.6055  0.6758
  742MOL0     H97908  -1.540   9.728   6.625 -1.2847  0.3293  1.9697
  742MOL0     H97909  -1.732   9.757   6.763  1.4866 -2.2248 -3.4104
  742MOL0     H97910  -2.021  10.002   6.596 -0.8149 -0.4033  0.0002
  742MOL0     H97911  -1.984  10.140   6.698 -1.0621 -0.3112 -0.9812
  742MOL0     H97912  -2.213  10.057   6.745  0.0156  1.4593  2.6507
  742MOL0     H97913  -2.115  10.030   6.892 -0.3517 -0.2555  0.3584
  742MOL0     H97914  -2.088   9.789   6.809  4.2634  5.1586  0.2439
  742MOL0     H97915  -2.207   9.821   6.682 -1.2245  0.5061  0.1267
  742MOL0     H97916  -2.260   9.850   6.974  0.2206 -0.1613  0.6877
  742MOL0     H97917  -2.386   9.882   6.851  2.1456  3.3683  0.8418
  742MOL0     H97918  -2.247   9.608   6.874  1.1493  1.6954  2.0764
  742MOL0     H97919  -2.385   9.652   6.765  1.2505 -3.7192  0.9787
  742MOL0     H97920  -2.541   9.695   6.943 -2.3722 -3.5890 -0.8088
  742MOL0     H97921  -2.417   9.623   7.055 -0.6178 -4.4578  0.2646
  742MOL0     H97922  -2.586   9.497   6.838  0.7423  1.2603 -0.6391
  742MOL0     H97923  -2.429   9.420   6.881  1.7029  1.2710  0.0763
  742MOL0     H97924  -2.644   9.472   7.097 -0.4625  1.9706 -0.8096
  742MOL0     H97925  -2.483   9.396   7.112 -0.5877 -1.8835 -0.5002
  742MOL0     H97926  -1.785  10.148   6.583  0.5500  0.4971  4.8793
  742MOL0     H97927  -1.569  10.121   6.459  4.4470 -1.4471  0.0792
  742MOL0     H97928  -1.157  10.176   6.392  2.0343  0.8942  0.3342
  742MOL0     H97929  -0.934  10.135   6.274  0.6711 -0.4293 -1.1689
  742MOL0     H97930   1.007  10.216   6.117  1.6193 -3.0383  0.7337
  742MOL0     H97931   1.218  10.183   6.238  0.3946  0.2875 -0.4674
  742MOL0     H97932   1.414  10.005   6.504 -1.2203  2.4128  1.2001
  742MOL0     H97933   1.644   9.885   6.554  1.2979 -0.3050  0.0974
  742MOL0     H97934   2.009  10.124   6.545  0.4912  0.5866 -2.8581
  742MOL0     H97935   1.944  10.027   6.427 -1.5825  2.1147  0.8114
  742MOL0     H97936   2.089   9.896   6.666  0.8389  0.4002 -0.3561
  742MOL0     H97937   2.037   9.819   6.527  1.9171 -1.5907  1.1805
  742MOL0     H97938   2.260  10.045   6.512  1.7208 -1.8637  5.1711
  742MOL0     H97939   2.182   9.961   6.378  0.8775  0.6198 -0.2803
  742MOL0     H97940   2.336   9.810   6.603 -0.3311  2.8432  0.5598
  742MOL0     H97941   2.264   9.755   6.455 -1.1471  0.2394  0.2604
  742MOL0     H97942   2.611   9.926   6.279 -1.3873  0.5579 -2.1450
  742MOL0     H97943   1.838  10.250   6.582  1.6190 -3.6420  2.3514
  742MOL0     H97944   1.651  10.367   6.469 -0.1999  0.9477  2.6095
  743MOL0     O97945   1.347   6.353   1.298  0.5175 -0.1190 -0.3535
  743MOL0     C97946   1.390   6.424   1.218  0.6588 -0.3364  0.7771
  743MOL0     O97947   1.331   6.458   1.100  0.7572  0.1225  0.3536
  743MOL0     C97948   1.195   6.441   1.094  0.0964 -0.5671 -0.0362
  743MOL0     C97949   1.132   6.377   0.991 -0.6091  0.0299 -0.0676
  743MOL0     C97950   0.996   6.350   0.985 -0.2275 -0.1412 -0.4767
  743MOL0     C97951   0.912   6.421   1.076  0.1932 -0.8018  0.4278
  743MOL0     O97952   0.781   6.407   1.053  0.0085 -0.2110 -0.6694
  743MOL0     C97953   0.705   6.376   1.173 -0.4508  0.4782 -0.3172
  743MOL0     C97954   0.586   6.294   1.131  0.7001  0.4226  0.2653
  743MOL0     C97955   0.626   6.153   1.074  0.6870 -0.0780  0.3500
  743MOL0     C97956   0.503   6.095   0.995 -0.2947 -0.3107 -0.0144
  743MOL0     C97957   0.546   5.962   0.944 -0.2749 -0.6820  0.1088
  743MOL0     C97958   0.503   5.918   0.798  0.3582  0.2744  0.0394
  743MOL0     C97959   0.544   5.769   0.774 -0.4590 -0.1571 -0.0115
  743MOL0     C97960   0.466   5.661   0.854 -0.4846 -0.1308  0.5089
  743MOL0     N97961   0.324   5.678   0.865  1.0091  0.7094  0.7079
  743MOL0     C97962   0.247   5.678   0.748  0.1670 -0.3623 -0.4071
  743MOL0     C97963   0.139   5.759   0.788  0.3028 -0.9910 -0.4382
  743MOL0     C97964   0.028   5.792   0.693 -0.5559  0.5711  0.3440
  743MOL0     C97965  -0.073   5.679   0.694  0.4733 -0.9657  0.8191
  743MOL0     C97966  -0.167   5.711   0.578  0.0021  0.8713 -0.3819
  743MOL0     C97967  -0.270   5.605   0.583 -0.1815 -0.1172 -0.2675
  743MOL0     O97968  -0.357   5.614   0.694 -0.4244 -0.3791 -0.1269
  743MOL0     C97969  -0.447   5.713   0.701  0.2611  0.0222 -0.7920
  743MOL0     C97970  -0.503   5.788   0.600  0.4927  0.7780 -0.6397
  743MOL0     C97971  -0.589   5.891   0.626  0.1484  1.1862 -0.0527
  743MOL0     C97972  -0.614   5.934   0.754 -0.3769  0.0720  0.0547
  743MOL0     C97973  -0.704   6.043   0.780 -0.7596 -0.7857 -0.6120
  743MOL0     O97974  -0.708   6.089   0.903 -0.2426 -0.4459 -0.3171
  743MOL0     C97975  -0.784   6.193   0.950  0.8128 -0.1951 -0.2361
  743MOL0     C97976  -0.906   6.238   0.897 -0.8628  1.4151  0.3463
  743MOL0     C97977  -0.984   6.337   0.957 -0.9682 -0.1391 -1.3417
  743MOL0     C97978  -0.937   6.403   1.075 -0.0389  0.0244  0.3408
  743MOL0     O97979  -0.996   6.500   1.148  0.7313 -0.9967  0.4110
  743MOL0     C97980  -1.124   6.470   1.199 -0.3462  0.2632 -0.0765
  743MOL0     C97981  -1.202   6.607   1.193  0.3371  1.0267  0.3398
  743MOL0     C97982  -1.340   6.593   1.253  0.6829 -0.0869 -0.1635
  743MOL0     C97983  -1.429   6.508   1.171 -0.0819  0.3923  1.3340
  743MOL0     C97984  -1.544   6.437   1.250 -0.1240  0.7605 -0.2770
  743MOL0     C97985  -1.653   6.534   1.294  0.0103 -0.4222 -0.1806
  743MOL0     C97986  -1.742   6.467   1.400  0.3464  0.9399  0.0885
  743MOL0     C97987  -1.865   6.546   1.429 -1.0662 -0.6919 -0.2666
  743MOL0    Cl97988  -1.964   6.565   1.290  0.3869  0.3885 -0.0479
  743MOL0     C97989  -0.800   6.372   1.114 -0.5860 -0.0604 -0.4542
  743MOL0     C97990  -0.735   6.260   1.063  0.8602 -0.1569  0.3780
  743MOL0     O97991  -0.757   6.094   0.683 -0.2389 -0.3610  0.6780
  743MOL0     C97992  -0.553   5.867   0.860 -0.0380  0.4322  0.3570
  743MOL0     C97993  -0.471   5.756   0.834 -0.6294  0.0812  0.5963
  743MOL0     N97994   0.162   5.820   0.912 -0.4390  0.3492 -0.1063
  743MOL0     N97995   0.268   5.754   0.962  1.2654  0.0294  0.1229
  743MOL0     C97996   0.973   6.504   1.178 -0.1360  0.6352  0.0517
  743MOL0     C97997   1.115   6.509   1.178  0.1591  0.4108 -1.2378
  743MOL0     C97998   1.530   6.468   1.215 -0.4660 -0.9614 -0.0293
  743MOL0     C97999   1.622   6.409   1.300  1.0775  0.3562 -0.4327
  743MOL0     C98000   1.758   6.431   1.286  0.1356 -0.2456 -0.2097
  743MOL0     C98001   1.810   6.515   1.188  1.4179 -0.9207 -0.3443
  743MOL0     O98002   1.942   6.529   1.149 -0.7207  0.4117 -0.3982
  743MOL0     C98003   2.052   6.489   1.237  0.5020  0.3407  0.2383
  743MOL0     C98004   2.176   6.578   1.222  0.6050  0.1519 -0.2504
  743MOL0     C98005   2.143   6.723   1.237 -0.0683  0.8546  0.4188
  743MOL0     C98006   2.146   6.776   1.386  0.6327 -0.1927 -0.2413
  743MOL0     C98007   2.027   6.738   1.477 -0.1284  0.3227 -0.5113
  743MOL0     C98008   1.931   6.724   1.541  0.0299 -1.4125  0.5027
  743MOL0     C98009   1.716   6.587   1.105 -0.4672  0.4901 -0.3248
  743MOL0     C98010   1.579   6.562   1.116 -0.0024 -0.1542  0.0780
  743MOL0     H98011   1.201   6.325   0.925  0.2177  0.4969  0.4078
  743MOL0     H98012   0.964   6.276   0.913 -0.2452 -0.6308  0.0325
  743MOL0     H98013   0.673   6.470   1.218  0.0169 -0.4558  2.1102
  743MOL0     H98014   0.766   6.310   1.235 -0.3940 -2.7651 -3.4689
  743MOL0     H98015   0.522   6.352   1.064  2.6169  3.7430  1.1049
  743MOL0     H98016   0.512   6.277   1.210  0.0282  2.7861  0.2226
  743MOL0     H98017   0.644   6.082   1.154 -2.4716 -1.7154 -0.2275
  743MOL0     H98018   0.717   6.164   1.015  1.2423  1.6428  1.4614
  743MOL0     H98019   0.416   6.096   1.061  0.7592  3.2845  1.5818
  743MOL0     H98020   0.476   6.159   0.911 -1.2575 -0.4307  0.1921
  743MOL0     H98021   0.540   5.888   1.024  0.5764 -1.2840 -0.3672
  743MOL0     H98022   0.653   5.970   0.923 -0.5882  0.5930 -1.1897
  743MOL0     H98023   0.543   5.992   0.729 -2.1442  2.3774  0.6623
  743MOL0     H98024   0.393   5.922   0.796  0.3701  0.5843 -1.1413
  743MOL0     H98025   0.531   5.741   0.669 -0.2689  3.4793 -1.1407
  743MOL0     H98026   0.652   5.751   0.780 -0.5926 -1.9043 -1.7297
  743MOL0     H98027   0.507   5.643   0.954  0.1573 -0.5749  0.1693
  743MOL0     H98028   0.481   5.564   0.806  1.7387  1.9109 -3.3840
  743MOL0     H98029   0.278   5.622   0.661  3.8470  0.3918  0.2474
  743MOL0     H98030   0.071   5.793   0.593 -1.6311 -0.2778 -0.1470
  743MOL0     H98031  -0.020   5.885   0.726  0.9839  1.9800 -1.1687
  743MOL0     H98032  -0.132   5.707   0.782  0.3643  0.6472  0.2621
  743MOL0     H98033  -0.036   5.577   0.683 -0.6934 -1.3144 -0.0751
  743MOL0     H98034  -0.208   5.808   0.607  0.0528  0.8143 -0.1184
  743MOL0     H98035  -0.117   5.711   0.481 -0.1720  2.7765 -0.4987
  743MOL0     H98036  -0.222   5.507   0.579  0.8847  0.3804 -3.9960
  743MOL0     H98037  -0.332   5.604   0.492 -1.8848  2.5142  0.7381
  743MOL0     H98038  -0.490   5.757   0.497  0.8043  1.7811 -0.9132
  743MOL0     H98039  -0.638   5.938   0.541 -2.5641 -2.3806 -0.6819
  743MOL0     H98040  -0.937   6.185   0.807  3.6890 -1.5214  0.1610
  743MOL0     H98041  -1.083   6.359   0.917 -0.9655  1.1710 -0.6889
  743MOL0     H98042  -1.121   6.426   1.300 -0.5835 -0.5364 -0.4065
  743MOL0     H98043  -1.173   6.389   1.144 -2.3171  1.0805  0.3889
  743MOL0     H98044  -1.215   6.633   1.087  0.9867 -2.7587 -0.8368
  743MOL0     H98045  -1.144   6.684   1.243  1.3366  0.8474 -0.4967
  743MOL0     H98046  -1.390   6.690   1.261  1.3483  0.3159 -0.7147
  743MOL0     H98047  -1.329   6.550   1.352  1.6534 -0.6406 -0.4964
  743MOL0     H98048  -1.468   6.565   1.086  1.4507  0.1476  0.4183
  743MOL0     H98049  -1.373   6.425   1.126  1.9313 -0.0349  4.3221
  743MOL0     H98050  -1.504   6.384   1.337  1.4957  0.8034 -0.9570
  743MOL0     H98051  -1.598   6.370   1.182 -0.7314 -0.9213  1.7353
  743MOL0     H98052  -1.714   6.570   1.211  1.3554  2.5868  0.0040
  743MOL0     H98053  -1.593   6.615   1.336  2.0499 -2.2925  0.7072
  743MOL0     H98054  -1.765   6.362   1.379  2.1234  0.2469  1.3455
  743MOL0     H98055  -1.676   6.466   1.487  1.7838 -2.3793 -0.8619
  743MOL0     H98056  -1.830   6.643   1.466  1.1833 -1.9972  1.2848
  743MOL0     H98057  -1.921   6.503   1.512 -0.8579 -0.3481  0.0521
  743MOL0     H98058  -0.759   6.433   1.195 -0.7456 -1.3936  0.6766
  743MOL0     H98059  -0.634   6.249   1.101  0.5896  0.1646  1.1964
  743MOL0     H98060  -0.568   5.886   0.966 -0.7429  1.1407  0.1423
  743MOL0     H98061  -0.426   5.705   0.919 -0.6423 -0.8554  0.0612
  743MOL0     H98062   0.911   6.571   1.237 -1.9205 -1.7802  1.0955
  743MOL0     H98063   1.164   6.571   1.253 -3.6960 -0.9868  2.8819
  743MOL0     H98064   1.584   6.354   1.385  1.0560  3.4381  1.7327
  743MOL0     H98065   1.800   6.359   1.356 -0.8737  1.0012  1.7578
  743MOL0     H98066   2.087   6.386   1.222  0.6319  0.4855 -0.5147
  743MOL0     H98067   2.010   6.477   1.337 -2.4425 -2.3106 -1.1069
  743MOL0     H98068   2.242   6.559   1.307 -1.7245  2.1931  2.1916
  743MOL0     H98069   2.226   6.567   1.125 -0.5411 -0.9653 -0.7518
  743MOL0     H98070   2.045   6.751   1.198 -0.3497  1.1736  1.3150
  743MOL0     H98071   2.214   6.777   1.174  0.1111 -0.6630 -0.7120
  743MOL0     H98072   2.230   6.742   1.446 -0.6171 -0.2793  1.5544
  743MOL0     H98073   2.149   6.885   1.378  0.0107 -0.2545 -1.7814
  743MOL0     H98074   1.850   6.739   1.609  0.2973  1.8506  0.2640
  743MOL0     H98075   1.755   6.659   1.035  0.5607  1.4164  1.1446
  743MOL0     H98076   1.509   6.613   1.050  1.9669 -2.0998 -3.8788
  744MOL0     O98077  11.028   9.048   2.009  0.1969 -0.5760  0.7884
  744MOL0     C98078  11.070   8.931   2.029 -0.1881 -0.3008 -0.7345
  744MOL0     O98079  10.996   8.829   2.056  0.3128  0.4294 -0.6694
  744MOL0     C98080  10.864   8.854   2.074 -0.4457 -0.0292 -0.3480
  744MOL0     C98081  10.764   8.872   1.983  0.1718 -0.6811  0.5782
  744MOL0     C98082  10.633   8.888   2.007  0.1754 -0.1892 -0.3023
  744MOL0     C98083  10.589   8.889   2.138  0.5321 -0.3112 -0.0817
  744MOL0     O98084  10.455   8.894   2.176  0.4307 -0.7817 -0.0339
  744MOL0     C98085  10.343   8.859   2.091 -0.8411 -0.1290  0.1941
  744MOL0     C98086  10.234   8.960   2.115 -0.3580 -0.6255  0.1897
  744MOL0     C98087  10.104   8.938   2.031 -0.2644  0.4319 -0.2492
  744MOL0     C98088  10.012   9.049   2.061  0.2434  0.5226  0.1847
  744MOL0     C98089   9.901   9.062   1.951  0.8648  0.5002  0.1555
  744MOL0     C98090   9.833   9.194   1.959  0.2342 -0.2118  0.3826
  744MOL0     C98091   9.767   9.235   2.090  0.8415  0.4068  0.4284
  744MOL0     C98092   9.751   9.392   2.102 -0.1183 -0.9224  0.1678
  744MOL0     N98093   9.618   9.420   2.146  0.4785  0.9942  0.8691
  744MOL0     C98094   9.577   9.437   2.281  1.3643 -0.2714  0.2738
  744MOL0     C98095   9.441   9.469   2.274  0.5925 -0.3264  0.7838
  744MOL0     C98096   9.359   9.523   2.389 -0.8812  0.4395 -0.0983
  744MOL0     C98097   9.427   9.645   2.464 -0.4364 -0.6458 -0.7340
  744MOL0     C98098   9.442   9.752   2.355 -0.0511 -0.2003  0.4487
  744MOL0     C98099   9.319   9.789   2.265 -0.8317  0.3954 -0.8761
  744MOL0     O98100   9.213   9.825   2.363 -0.2076  0.3145 -0.6548
  744MOL0     C98101   9.121   9.896   2.294 -0.1803 -0.5226 -0.8523
  744MOL0     C98102   9.119  10.035   2.307 -0.7482  0.2342 -0.3371
  744MOL0     C98103   9.001  10.107   2.274 -0.2567 -0.0686  0.4637
  744MOL0     C98104   8.890  10.049   2.203 -0.3832 -0.2368  0.3330
  744MOL0     C98105   8.762  10.118   2.158 -0.7164 -0.0567  0.3029
  744MOL0     O98106   8.764  10.251   2.174 -0.1398  0.1044 -0.2187
  744MOL0     C98107   8.639  10.313   2.179  0.5220 -0.7295 -0.2653
  744MOL0     C98108   8.599  10.405   2.084  0.3299 -0.3624 -0.7797
  744MOL0     C98109   8.476  10.470   2.071  0.3729 -0.8410 -0.9318
  744MOL0     C98110   8.379  10.447   2.168  0.2185  0.2857 -0.0551
  744MOL0     O98111   8.250  10.499   2.165 -0.0008 -0.1206 -0.0319
  744MOL0     C98112   8.205  10.564   2.042 -0.4621 -0.3602 -0.2785
  744MOL0     C98113   8.055  10.598   2.050 -0.0928 -0.4270  0.0904
  744MOL0     C98114   8.018  10.668   2.183 -0.0216 -0.0894 -1.1750
  744MOL0     C98115   7.861  10.664   2.191  0.0407  0.3949 -0.0470
  744MOL0     C98116   7.794  10.720   2.322 -0.2678 -0.3802 -0.2094
  744MOL0     C98117   7.859  10.846   2.364 -0.1096  0.2867 -0.0735
  744MOL0     C98118   7.803  10.890   2.498 -0.7962  0.7217  0.6790
  744MOL0     C98119   7.868  11.019   2.536  0.8683 -0.1591 -0.1540
  744MOL0    Cl98120   7.769  11.149   2.459  0.0008  0.0709  0.1327
  744MOL0     C98121   8.416  10.369   2.278 -1.0143 -0.3870  0.4441
  744MOL0     C98122   8.540  10.300   2.279 -0.2447  1.2071  0.1231
  744MOL0     O98123   8.673  10.041   2.116 -0.6802  0.4499  0.0181
  744MOL0     C98124   8.915   9.914   2.174  0.4340 -0.5128  0.4713
  744MOL0     C98125   9.018   9.838   2.225 -0.4495 -0.4764 -0.1485
  744MOL0     N98126   9.399   9.465   2.144 -1.0202 -0.3301 -0.1848
  744MOL0     N98127   9.506   9.434   2.066 -0.4275 -0.1871 -0.3429
  744MOL0     C98128  10.687   8.875   2.234  0.9392  0.0353  0.7336
  744MOL0     C98129  10.818   8.854   2.202 -0.0564  0.0924 -0.3046
  744MOL0     C98130  11.225   8.911   2.019  1.0299  0.4658 -0.6416
  744MOL0     C98131  11.273   8.783   2.008 -0.1488 -0.2633  0.5639
  744MOL0     C98132  11.414   8.756   2.016  0.6890  0.6121  0.5634
  744MOL0     C98133  11.507   8.862   2.025  0.4261  0.4901 -0.6027
  744MOL0     O98134  11.643   8.831   2.027 -0.0875  0.4059  0.2802
  744MOL0     C98135  11.728   8.907   1.953 -1.2115  0.4258  0.0598
  744MOL0     C98136  11.865   8.854   1.987  0.8794  0.0024 -0.1955
  744MOL0     C98137  11.893   8.719   1.913 -0.2671 -0.4813  0.0511
  744MOL0     C98138  12.034   8.667   1.946 -0.2169  0.3679  1.0925
  744MOL0     C98139  12.049   8.538   1.879  0.5123  1.1516 -0.4811
  744MOL0     C98140  12.073   8.427   1.838  0.3833  0.3913  0.9199
  744MOL0     C98141  11.451   8.985   2.034  1.3920 -0.1293  0.9437
  744MOL0     C98142  11.310   9.022   2.030  0.3287  0.2510  0.0131
  744MOL0     H98143  10.794   8.865   1.879 -3.4735 -4.0877 -0.4715
  744MOL0     H98144  10.567   8.904   1.922  2.0560  0.8201 -1.6506
  744MOL0     H98145  10.303   8.763   2.125 -3.1224  0.8218  0.3460
  744MOL0     H98146  10.371   8.849   1.985 -2.0210 -0.8469 -0.0719
  744MOL0     H98147  10.264   9.064   2.094  0.9676 -1.5298 -3.0370
  744MOL0     H98148  10.209   8.951   2.221  2.3855  1.3223  1.1426
  744MOL0     H98149  10.059   8.846   2.069 -2.1174  2.0131  1.6555
  744MOL0     H98150  10.125   8.927   1.924 -1.0923 -1.2050 -0.2600
  744MOL0     H98151   9.970   9.034   2.161  2.7124 -1.5886  1.0201
  744MOL0     H98152  10.064   9.144   2.080  1.9383 -0.1280 -1.0048
  744MOL0     H98153   9.825   8.987   1.975  0.8076  0.8635  1.1678
  744MOL0     H98154   9.923   9.052   1.844 -1.2398  2.1950 -0.5075
  744MOL0     H98155   9.760   9.206   1.879 -2.0649 -1.4464  2.1974
  744MOL0     H98156   9.908   9.271   1.937  0.4018 -0.6618 -0.6880
  744MOL0     H98157   9.668   9.190   2.101  1.4477 -1.2567 -0.5705
  744MOL0     H98158   9.829   9.197   2.172 -1.4240 -1.3759  1.4342
  744MOL0     H98159   9.773   9.437   2.005 -3.5722  0.2804 -0.1764
  744MOL0     H98160   9.830   9.433   2.165 -1.4411  0.5340  0.9310
  744MOL0     H98161   9.637   9.440   2.371  0.7816 -0.6483  0.6838
  744MOL0     H98162   9.350   9.446   2.466 -0.5866 -0.7067 -1.1940
  744MOL0     H98163   9.257   9.542   2.354 -1.1478  0.6706  0.7748
  744MOL0     H98164   9.524   9.611   2.500 -0.9467 -2.0719 -0.6532
  744MOL0     H98165   9.371   9.674   2.553 -0.7041  0.9996 -1.4054
  744MOL0     H98166   9.471   9.844   2.406 -0.5024  1.2463 -1.7589
  744MOL0     H98167   9.528   9.724   2.293 -0.8092 -2.2965  0.2487
  744MOL0     H98168   9.294   9.704   2.201 -0.0471 -0.3566 -0.2131
  744MOL0     H98169   9.343   9.877   2.204 -1.1229  1.2364  0.2095
  744MOL0     H98170   9.195  10.090   2.361  0.3514  0.3642 -1.9619
  744MOL0     H98171   9.002  10.206   2.319  3.7647 -1.4247  3.9906
  744MOL0     H98172   8.663  10.414   1.996  1.9995  1.5618  0.5515
  744MOL0     H98173   8.462  10.545   1.994 -2.2944 -0.0153  0.2422
  744MOL0     H98174   8.233  10.495   1.962 -3.4828  0.0903 -1.8684
  744MOL0     H98175   8.266  10.654   2.033 -0.5864 -0.2934 -0.4597
  744MOL0     H98176   8.001  10.504   2.036 -1.0607  0.3405 -1.6194
  744MOL0     H98177   8.035  10.665   1.966 -0.4266 -1.7853 -0.9424
  744MOL0     H98178   8.050  10.772   2.178 -1.3101  0.6558  2.5581
  744MOL0     H98179   8.057  10.625   2.275  1.5357  1.5162 -1.0411
  744MOL0     H98180   7.831  10.725   2.105  2.5935  0.7878 -0.7396
  744MOL0     H98181   7.817  10.564   2.188  4.4861 -1.7858 -0.6098
  744MOL0     H98182   7.827  10.659   2.407  1.5190  0.5880 -0.1709
  744MOL0     H98183   7.685  10.724   2.312 -0.0396  0.0622 -4.1422
  744MOL0     H98184   7.844  10.923   2.288 -0.0676  0.8026  0.4383
  744MOL0     H98185   7.968  10.836   2.371 -0.2207 -1.9200 -0.6797
  744MOL0     H98186   7.693  10.890   2.495 -0.8726  0.1089  2.3919
  744MOL0     H98187   7.828  10.821   2.579 -0.4762  0.7604  0.6151
  744MOL0     H98188   7.974  11.018   2.509  0.8825 -0.2140 -0.0964
  744MOL0     H98189   7.845  11.033   2.642 -1.3229  0.2912 -0.6510
  744MOL0     H98190   8.349  10.347   2.360 -0.4397 -1.9832  0.5190
  744MOL0     H98191   8.565  10.232   2.361 -1.4734  0.7811  0.1663
  744MOL0     H98192   8.858   9.858   2.100  1.7435 -2.9953  1.2422
  744MOL0     H98193   9.017   9.730   2.215 -0.0692 -0.6438  1.3737
  744MOL0     H98194  10.662   8.867   2.339  0.8256 -2.0014  0.5756
  744MOL0     H98195  10.895   8.848   2.279  0.6733  4.4628 -0.4407
  744MOL0     H98196  11.208   8.697   1.992 -0.5349  0.3652 -1.3666
  744MOL0     H98197  11.454   8.657   1.996 -0.9055 -0.0134  0.2858
  744MOL0     H98198  11.733   9.016   1.967  0.3487  0.5787 -1.3651
  744MOL0     H98199  11.712   8.896   1.846  1.6534 -0.4285 -0.3529
  744MOL0     H98200  11.934   8.932   1.954 -1.9256  2.9681  0.5596
  744MOL0     H98201  11.875   8.853   2.096 -0.1200 -0.1103 -0.1027
  744MOL0     H98202  11.897   8.735   1.805  2.0832  1.4591  0.3263
  744MOL0     H98203  11.816   8.645   1.936  0.3906 -1.3918 -0.5941
  744MOL0     H98204  12.111   8.733   1.906 -0.4784 -0.4652 -0.9102
  744MOL0     H98205  12.045   8.669   2.055 -0.1733  1.5112  1.0835
  744MOL0     H98206  12.089   8.331   1.794  2.6258  0.1641  2.0858
  744MOL0     H98207  11.527   9.060   2.055 -1.9286  4.0404 -0.4697
  744MOL0     H98208  11.277   9.119   2.067 -2.3510 -0.7949  0.5767
  745MOL0     O98209   7.463  10.113  10.544  0.0123  0.2055  0.4092
  745MOL0     C98210   7.423  10.121  10.662 -0.2830 -0.3713  0.3086
  745MOL0     O98211   7.304  10.172  10.702  0.4358  0.1690  0.0283
  745MOL0     C98212   7.211  10.197  10.597  0.1472  0.3247 -0.0642
  745MOL0     C98213   7.125  10.102  10.547 -0.4585  0.9746  0.6333
  745MOL0     C98214   7.040  10.138  10.442 -0.7527  0.0310 -0.2883
  745MOL0     C98215   7.030  10.272  10.392 -1.1459 -0.3542 -0.0530
  745MOL0     O98216   6.939  10.316  10.304  0.6392 -0.4720  0.0013
  745MOL0     C98217   6.821  10.237  10.269 -0.0113 -0.6491  0.0370
  745MOL0     C98218   6.714  10.218  10.385 -0.6445  0.5951  0.5304
  745MOL0     C98219   6.571  10.197  10.333  0.3949  0.5117 -0.0543
  745MOL0     C98220   6.477  10.177  10.453 -0.3928  0.3884 -0.3859
  745MOL0     C98221   6.341  10.114  10.415 -0.4021 -0.3321  0.3342
  745MOL0     C98222   6.272  10.052  10.535  0.5673 -0.1564  0.3631
  745MOL0     C98223   6.149   9.988  10.482  0.3824  0.1394  0.2157
  745MOL0     C98224   6.044   9.958  10.600 -0.2921  0.3409 -0.7294
  745MOL0     N98225   5.945   9.847  10.559 -0.0651 -0.4443 -0.3426
  745MOL0     C98226   5.987   9.730  10.522 -0.1215  0.0821  0.6172
  745MOL0     C98227   5.875   9.664  10.473 -0.3537  0.8676  0.0090
  745MOL0     C98228   5.879   9.522  10.433 -0.1985 -0.2777  0.1765
  745MOL0     C98229   5.742   9.457  10.412  0.0543  1.1225  0.2698
  745MOL0     C98230   5.672   9.517  10.283 -0.2258  0.1064 -0.3453
  745MOL0     C98231   5.534   9.454  10.264  0.5928 -0.3818  0.0025
  745MOL0     O98232   5.538   9.324  10.210  0.6518  0.5139 -0.2434
  745MOL0     C98233   5.424   9.250  10.178  0.5460  0.0475  0.4254
  745MOL0     C98234   5.287   9.300  10.184  0.0865  0.4547  0.1412
  745MOL0     C98235   5.175   9.226  10.151  0.6296 -0.4169  0.7540
  745MOL0     C98236   5.192   9.096  10.101  0.0657  0.8969 -0.6940
  745MOL0     C98237   5.078   9.016  10.062  0.3035 -0.2302  0.0579
  745MOL0     O98238   4.951   9.053  10.092  0.1860  0.0978 -0.4731
  745MOL0     C98239   4.848   8.973  10.053 -0.2383 -0.6120 -0.6792
  745MOL0     C98240   4.799   8.972   9.918 -0.1673  0.5856 -0.4254
  745MOL0     C98241   4.685   8.902   9.881 -0.5760 -0.4390  0.3677
  745MOL0     C98242   4.613   8.830   9.979  0.2296 -0.9347  0.0231
  745MOL0     O98243   4.498   8.760   9.971 -0.7147  0.0563 -0.5362
  745MOL0     C98244   4.432   8.767   9.839 -0.4300 -0.3884 -0.5452
  745MOL0     C98245   4.282   8.719   9.858 -0.2987 -0.0401  0.8129
  745MOL0     C98246   4.265   8.579   9.913  0.1663 -0.1843  0.0120
  745MOL0     C98247   4.124   8.557   9.948  1.1657  0.0357  0.6157
  745MOL0     C98248   4.099   8.422  10.012  0.1221  0.6272 -0.3002
  745MOL0     C98249   3.991   8.426  10.112  0.5695  0.2537  0.1681
  745MOL0     C98250   3.975   8.289  10.178  0.1919  0.0297  0.1332
  745MOL0     C98251   3.873   8.309  10.299  1.1498 -0.2829  0.5957
  745MOL0    Cl98252   3.886   8.174  10.408 -0.0382 -0.3882  0.3575
  745MOL0     C98253   4.662   8.830  10.113  0.4414 -0.0483  0.5328
  745MOL0     C98254   4.780   8.906  10.160  0.6715 -0.7957 -0.6149
  745MOL0     O98255   5.110   8.920   9.988  0.1691 -0.3117  0.0824
  745MOL0     C98256   5.328   9.049  10.089  0.8500 -0.3518 -0.3113
  745MOL0     C98257   5.441   9.121  10.126  0.3144  0.5823  0.1194
  745MOL0     N98258   5.766   9.751  10.485 -0.1074 -0.3710 -0.0776
  745MOL0     N98259   5.809   9.863  10.526 -0.5769 -0.0707 -0.2006
  745MOL0     C98260   7.118  10.364  10.449 -0.7431 -0.0254  0.1515
  745MOL0     C98261   7.211  10.328  10.546  0.0752  0.2774 -0.7015
  745MOL0     C98262   7.511  10.061  10.763  0.6988 -0.2972  0.0602
  745MOL0     C98263   7.650  10.066  10.750 -0.6354  0.0764 -0.1377
  745MOL0     C98264   7.724   9.996  10.840 -0.6167  0.8947  0.6783
  745MOL0     C98265   7.657   9.929  10.948  0.0183 -0.0422 -0.7971
  745MOL0     O98266   7.729   9.879  11.055  0.5225 -0.8551  0.3483
  745MOL0     C98267   7.821   9.965  11.116 -0.2722 -0.0078 -0.3668
  745MOL0     C98268   7.805   9.934  11.267  0.9825 -0.9053 -0.2128
  745MOL0     C98269   7.671   9.976  11.332 -0.8604  0.2291  0.0541
  745MOL0     C98270   7.652   9.908  11.463 -0.7375  0.5514 -0.3431
  745MOL0     C98271   7.515   9.917  11.520 -0.4470  0.0764 -0.7261
  745MOL0     C98272   7.417   9.938  11.585  0.6200 -0.6944 -0.3701
  745MOL0     C98273   7.526   9.924  10.953  0.2113  0.3589 -0.4148
  745MOL0     C98274   7.449   9.976  10.853  0.2042 -0.8681 -0.1149
  745MOL0     H98275   7.131   9.997  10.570  2.5618  0.4205 -2.0821
  745MOL0     H98276   6.973  10.057  10.411 -1.5058 -0.3932  2.1725
  745MOL0     H98277   6.853  10.138  10.234 -0.4136 -0.9067  0.3857
  745MOL0     H98278   6.770  10.295  10.192 -0.5553  0.3779  1.1350
  745MOL0     H98279   6.709  10.309  10.445 -2.8718  0.5808  0.4359
  745MOL0     H98280   6.753  10.133  10.443  1.4790  1.8780  1.0983
  745MOL0     H98281   6.561  10.114  10.262 -1.8745  0.8913 -0.2593
  745MOL0     H98282   6.536  10.292  10.291 -4.4242  0.1805  2.5543
  745MOL0     H98283   6.528  10.101  10.513 -0.1373 -0.5082 -1.7075
  745MOL0     H98284   6.459  10.260  10.521 -1.7781 -2.3036  2.8389
  745MOL0     H98285   6.359  10.037  10.340 -2.2206 -0.2746 -0.2172
  745MOL0     H98286   6.281  10.189  10.364 -2.4527 -1.1680  1.3800
  745MOL0     H98287   6.256  10.133  10.607 -0.3130 -0.0467  0.0595
  745MOL0     H98288   6.327   9.969  10.582  0.5920 -0.8906 -0.9223
  745MOL0     H98289   6.093  10.054  10.414 -0.7971  1.4755  2.3321
  745MOL0     H98290   6.180   9.900  10.425 -1.0631  0.8731 -1.8357
  745MOL0     H98291   5.973  10.039  10.615 -0.8161 -0.3208  0.4913
  745MOL0     H98292   6.088   9.938  10.698 -0.6726  3.2389  0.1109
  745MOL0     H98293   6.088   9.694  10.535 -0.5747 -1.4101  0.2120
  745MOL0     H98294   5.934   9.474  10.515  4.3278 -0.5681 -2.6948
  745MOL0     H98295   5.945   9.515  10.346  1.8612 -1.5121  1.7495
  745MOL0     H98296   5.668   9.478  10.490 -1.9414 -1.6670 -0.7211
  745MOL0     H98297   5.756   9.350  10.394  1.8004  1.5462 -1.2274
  745MOL0     H98298   5.652   9.624  10.294 -2.1072 -0.0012 -2.2544
  745MOL0     H98299   5.736   9.513  10.195  0.9705 -1.3001  0.5365
  745MOL0     H98300   5.461   9.516  10.213  0.6766  0.5690  1.0034
  745MOL0     H98301   5.492   9.453  10.365 -0.0518  4.2470 -0.0017
  745MOL0     H98302   5.280   9.404  10.213  2.7657  0.9117 -0.5373
  745MOL0     H98303   5.070   9.253  10.162 -0.1901 -3.0801  0.4224
  745MOL0     H98304   4.860   9.017   9.840  1.7487 -2.6072 -0.9707
  745MOL0     H98305   4.647   8.892   9.780 -1.1740 -0.8883  0.6344
  745MOL0     H98306   4.483   8.705   9.765 -1.7262 -3.2230  0.7981
  745MOL0     H98307   4.439   8.870   9.803  1.4505 -0.7370 -1.2759
  745MOL0     H98308   4.236   8.724   9.759 -0.4896 -1.6815  0.7873
  745MOL0     H98309   4.242   8.801   9.919 -0.9500 -1.3642  2.2463
  745MOL0     H98310   4.319   8.560  10.006  0.1210 -2.1775 -0.3154
  745MOL0     H98311   4.301   8.516   9.831 -0.0343 -3.7138  2.4066
  745MOL0     H98312   4.085   8.640  10.007  0.0914 -0.0307  0.0479
  745MOL0     H98313   4.062   8.559   9.857 -0.6096 -0.8783  1.7489
  745MOL0     H98314   4.186   8.377  10.061  1.4929  1.3103 -2.0366
  745MOL0     H98315   4.061   8.356   9.933 -2.9852  2.6107 -0.6536
  745MOL0     H98316   3.893   8.465  10.083  1.0953  0.2995 -1.6885
  745MOL0     H98317   4.020   8.496  10.192 -0.4390  2.5113 -1.3340
  745MOL0     H98318   3.942   8.212  10.107  2.0039 -1.0426  0.3899
  745MOL0     H98319   4.065   8.258  10.232  0.6054 -2.9381 -2.0140
  745MOL0     H98320   3.770   8.307  10.263  0.5421  1.4073  2.0749
  745MOL0     H98321   3.886   8.406  10.348 -3.8110  0.8461  0.1985
  745MOL0     H98322   4.613   8.773  10.191 -1.8393  1.0802  0.0364
  745MOL0     H98323   4.800   8.919  10.266 -0.5988  2.0342 -0.6341
  745MOL0     H98324   5.335   8.944  10.062 -2.5534 -1.1154  1.1178
  745MOL0     H98325   5.545   9.090  10.122  0.4330  1.0526 -1.0643
  745MOL0     H98326   7.120  10.467  10.414  0.3309 -0.0041  0.2334
  745MOL0     H98327   7.282  10.401  10.584 -0.4236 -0.0096  0.8579
  745MOL0     H98328   7.703  10.126  10.677  0.5271  1.6923  1.9695
  745MOL0     H98329   7.833   9.998  10.843  0.1036 -2.3173 -5.6827
  745MOL0     H98330   7.793  10.070  11.105 -0.5495 -0.0846 -0.3981
  745MOL0     H98331   7.924   9.956  11.080 -0.5538 -0.9569 -0.9690
  745MOL0     H98332   7.809   9.825  11.271  0.1241 -0.9086  2.1972
  745MOL0     H98333   7.886   9.980  11.323 -1.0399  0.1621  2.0173
  745MOL0     H98334   7.588   9.945  11.268 -0.7692  0.6886 -0.2970
  745MOL0     H98335   7.678  10.085  11.343  2.7883  0.0952  0.0943
  745MOL0     H98336   7.686   9.805  11.451  3.1493  1.8622 -2.0712
  745MOL0     H98337   7.711   9.961  11.539 -2.0512  2.1984 -0.4105
  745MOL0     H98338   7.330   9.967  11.639  1.2118  1.2751 -0.4077
  745MOL0     H98339   7.485   9.878  11.042  1.9554  0.0761  0.2748
  745MOL0     H98340   7.343   9.951  10.851 -0.1012 -0.0766  2.3188
  746MOL0     O98341   6.785   5.806  10.197 -0.1874 -0.2574  0.3919
  746MOL0     C98342   6.852   5.828  10.098 -0.1554  0.4446  0.3213
  746MOL0     O98343   6.812   5.838   9.968  0.2922  0.0020 -0.1433
  746MOL0     C98344   6.688   5.786   9.943 -0.9049 -0.1369 -0.1907
  746MOL0     C98345   6.683   5.694   9.840  0.5334  0.2454  0.6335
  746MOL0     C98346   6.566   5.627   9.804 -0.2637 -0.5784  0.3343
  746MOL0     C98347   6.450   5.662   9.875  0.7892 -0.2887  0.0521
  746MOL0     O98348   6.338   5.586   9.837  0.3841  0.0591 -0.1310
  746MOL0     C98349   6.240   5.571   9.943 -0.0396  0.4400  0.4843
  746MOL0     C98350   6.138   5.473   9.884  0.1549  0.0682  0.1373
  746MOL0     C98351   6.006   5.477   9.965 -0.0880  0.3681  0.1488
  746MOL0     C98352   5.880   5.437   9.885 -0.0099 -0.4951  0.1065
  746MOL0     C98353   5.754   5.448   9.974 -0.6904  0.0682 -0.0290
  746MOL0     C98354   5.621   5.422   9.894  0.1549  0.1046 -0.0207
  746MOL0     C98355   5.586   5.542   9.807  0.6232  0.2616  0.5848
  746MOL0     C98356   5.481   5.503   9.700 -0.1609  0.4594  0.5051
  746MOL0     N98357   5.359   5.448   9.753 -0.7256  0.3514  0.4396
  746MOL0     C98358   5.322   5.323   9.727  0.3875  0.5534 -0.2183
  746MOL0     C98359   5.192   5.317   9.769 -0.5049 -1.4245 -0.1946
  746MOL0     C98360   5.096   5.196   9.770 -1.0421 -0.4201  0.5308
  746MOL0     C98361   4.979   5.212   9.681 -0.0906 -0.6020 -0.0981
  746MOL0     C98362   4.880   5.094   9.710 -0.8234  0.2834 -0.0139
  746MOL0     C98363   4.751   5.100   9.622 -0.2156  1.7465 -0.0237
  746MOL0     O98364   4.772   5.132   9.483  0.6281 -0.3236 -0.4045
  746MOL0     C98365   4.670   5.105   9.387  0.3987 -1.2419  0.7261
  746MOL0     C98366   4.529   5.106   9.419  0.9011 -0.1615 -0.1200
  746MOL0     C98367   4.432   5.090   9.318  0.2629  0.7951 -0.1400
  746MOL0     C98368   4.467   5.081   9.186 -0.4748 -0.0502  0.7007
  746MOL0     C98369   4.366   5.072   9.078 -0.3352  0.3519 -0.1135
  746MOL0     O98370   4.243   5.040   9.115  0.3491  0.9853 -0.7866
  746MOL0     C98371   4.135   5.033   9.036 -0.3306  0.2266  0.6626
  746MOL0     C98372   4.112   5.105   8.916 -1.0483 -0.0922 -0.3059
  746MOL0     C98373   3.983   5.104   8.859  0.2262 -0.7452  0.3405
  746MOL0     C98374   3.885   5.019   8.908  0.2234 -0.0569  0.7585
  746MOL0     O98375   3.764   5.015   8.843  0.1502 -0.0768  0.2384
  746MOL0     C98376   3.662   5.101   8.904 -0.0387  0.6733 -0.4426
  746MOL0     C98377   3.523   5.034   8.878  0.2229  0.4940  0.7130
  746MOL0     C98378   3.517   4.885   8.922  0.5488 -0.7011  0.6619
  746MOL0     C98379   3.370   4.825   8.901 -0.1513 -0.5370 -0.5509
  746MOL0     C98380   3.361   4.675   8.937  0.5985  0.5116  0.2827
  746MOL0     C98381   3.399   4.605   8.809  0.2234  0.2486  0.1709
  746MOL0     C98382   3.406   4.449   8.829  0.2144  0.3676  0.1287
  746MOL0     C98383   3.423   4.371   8.698  0.0059 -0.2942 -0.5058
  746MOL0    Cl98384   3.566   4.433   8.612 -0.1504 -0.4048  0.1286
  746MOL0     C98385   3.910   4.952   9.025  0.1136  0.8064  0.3111
  746MOL0     C98386   4.027   4.958   9.094 -0.2526 -0.4933  0.4251
  746MOL0     O98387   4.402   5.082   8.961  0.1044  1.0196 -0.4666
  746MOL0     C98388   4.600   5.101   9.147  1.1452 -0.5532 -0.6286
  746MOL0     C98389   4.700   5.113   9.248  0.5202  0.1572  0.5317
  746MOL0     N98390   5.146   5.447   9.804 -0.5024 -0.0329 -0.6829
  746MOL0     N98391   5.254   5.527   9.795 -0.2396  0.4532 -0.7376
  746MOL0     C98392   6.446   5.768   9.971 -0.0361 -0.5852 -0.5745
  746MOL0     C98393   6.572   5.830   9.998 -0.5691 -0.8667 -0.0632
  746MOL0     C98394   6.998   5.858  10.117 -0.6539  0.1608 -0.5856
  746MOL0     C98395   7.061   5.830  10.246  0.9456  0.1875 -0.1989
  746MOL0     C98396   7.195   5.864  10.268 -0.3951 -0.0663  0.8275
  746MOL0     C98397   7.272   5.936  10.165  0.2096  0.1426 -0.0570
  746MOL0     O98398   7.391   5.983  10.188  0.1626  0.2948  0.6320
  746MOL0     C98399   7.463   5.951  10.313  0.0434 -0.0289 -0.0118
  746MOL0     C98400   7.609   6.002  10.307  1.6922  1.3989 -0.0118
  746MOL0     C98401   7.700   5.911  10.231  0.4409 -0.1626  0.6791
  746MOL0     C98402   7.840   5.954  10.251 -0.1322  0.5991  0.3949
  746MOL0     C98403   7.945   5.884  10.179 -0.3994  0.4249 -0.4704
  746MOL0     C98404   8.046   5.842  10.116  1.0112 -0.0991 -0.2067
  746MOL0     C98405   7.216   5.960  10.043 -0.1416  0.5614 -0.2182
  746MOL0     C98406   7.088   5.916  10.018  0.3445 -0.3232  0.1032
  746MOL0     H98407   6.774   5.670   9.784 -0.9742  0.1891 -1.9805
  746MOL0     H98408   6.564   5.558   9.720 -1.8204  0.3707 -0.4496
  746MOL0     H98409   6.189   5.666   9.961  1.6594  1.5117 -0.1036
  746MOL0     H98410   6.272   5.544  10.044 -2.2405  0.0779  1.1459
  746MOL0     H98411   6.166   5.367   9.878  1.3191  0.3779 -0.2034
  746MOL0     H98412   6.123   5.499   9.779  0.9641  0.5798  0.1316
  746MOL0     H98413   5.998   5.584   9.986  2.4792  0.6446  0.0487
  746MOL0     H98414   6.015   5.428  10.063  1.5321 -0.0481 -0.1776
  746MOL0     H98415   5.874   5.494   9.793 -2.0539 -2.1828 -0.8901
  746MOL0     H98416   5.883   5.331   9.855 -0.4666 -0.3029 -0.6357
  746MOL0     H98417   5.756   5.549  10.015  0.2217  0.3478 -0.7140
  746MOL0     H98418   5.766   5.383  10.061  2.3452  1.8725  1.0309
  746MOL0     H98419   5.547   5.416   9.974  0.5309  0.2236  0.3381
  746MOL0     H98420   5.630   5.337   9.826  3.4516  2.1971 -2.5104
  746MOL0     H98421   5.555   5.620   9.877 -1.2436  0.0293  0.0880
  746MOL0     H98422   5.677   5.569   9.753 -0.0958  1.6941  0.0506
  746MOL0     H98423   5.531   5.431   9.635 -0.1221  0.1347  0.8897
  746MOL0     H98424   5.454   5.586   9.634 -2.6227 -2.3281 -2.2475
  746MOL0     H98425   5.373   5.231   9.700  1.7050  0.8844  1.0012
  746MOL0     H98426   5.057   5.196   9.872 -2.0204 -5.8668  0.4763
  746MOL0     H98427   5.152   5.105   9.745  2.2037  1.8446 -1.2237
  746MOL0     H98428   5.008   5.221   9.576 -3.6328  0.2382 -1.1156
  746MOL0     H98429   4.938   5.307   9.715  1.0196  0.1551 -0.7885
  746MOL0     H98430   4.936   5.004   9.683  0.5951  0.0376  3.2979
  746MOL0     H98431   4.858   5.091   9.817  3.0224  0.6064  0.9198
  746MOL0     H98432   4.684   5.176   9.663  0.4902  1.9108  0.8579
  746MOL0     H98433   4.702   5.004   9.635  2.8565  0.0616  0.0713
  746MOL0     H98434   4.496   5.117   9.522  3.1123  0.0826  0.6065
  746MOL0     H98435   4.325   5.096   9.337  0.2926  2.4214 -0.3307
  746MOL0     H98436   4.197   5.142   8.858 -0.7731 -1.1315 -0.5822
  746MOL0     H98437   3.962   5.160   8.769  0.9104 -0.3904  0.3966
  746MOL0     H98438   3.660   5.202   8.861  1.6750  0.5533 -0.9069
  746MOL0     H98439   3.684   5.120   9.009  2.8954 -1.7841 -0.4742
  746MOL0     H98440   3.494   5.045   8.774 -1.4725  3.0068  1.3722
  746MOL0     H98441   3.448   5.091   8.933  0.1948  0.6565  0.5069
  746MOL0     H98442   3.544   4.884   9.028  1.8512  1.6339  0.4113
  746MOL0     H98443   3.590   4.826   8.865  0.8128  0.0714  0.1856
  746MOL0     H98444   3.315   4.882   8.977 -0.0619  2.9120 -2.8601
  746MOL0     H98445   3.322   4.859   8.809 -0.8798  1.4349  0.5044
  746MOL0     H98446   3.257   4.660   8.965  0.5981 -1.1629 -0.5115
  746MOL0     H98447   3.423   4.652   9.024  0.1978  3.1324  1.3471
  746MOL0     H98448   3.498   4.632   8.772  0.2415  0.1647  0.1584
  746MOL0     H98449   3.319   4.635   8.740 -1.1976 -2.0317  0.7197
  746MOL0     H98450   3.494   4.428   8.890  0.6803  0.3980 -0.5348
  746MOL0     H98451   3.311   4.414   8.872 -0.0880 -0.0030 -0.8160
  746MOL0     H98452   3.332   4.378   8.638 -2.7521 -1.3778  3.2156
  746MOL0     H98453   3.445   4.265   8.713  1.8060 -0.0821 -1.3950
  746MOL0     H98454   3.820   4.902   9.062 -0.5542  1.1494 -0.8187
  746MOL0     H98455   4.037   4.908   9.190  2.3813  1.5676  1.3536
  746MOL0     H98456   4.635   5.100   9.045  0.2340  0.6519 -0.9801
  746MOL0     H98457   4.805   5.117   9.223  0.2824 -1.8012 -1.0298
  746MOL0     H98458   6.357   5.800  10.024  0.1420 -1.3190  0.1849
  746MOL0     H98459   6.575   5.911  10.070 -0.5016  0.2515 -1.2713
  746MOL0     H98460   7.008   5.779  10.326  1.1855  1.2803  0.6792
  746MOL0     H98461   7.227   5.839  10.369 -2.5868  0.9383  1.8440
  746MOL0     H98462   7.457   5.842  10.319 -1.3960  0.0609  0.5516
  746MOL0     H98463   7.408   6.001  10.393 -0.3976  4.0980 -2.6112
  746MOL0     H98464   7.604   6.095  10.249 -0.3476  1.6014  0.4133
  746MOL0     H98465   7.656   6.017  10.404  0.1283  2.5649  0.5940
  746MOL0     H98466   7.669   5.907  10.126 -2.7279 -0.2603  1.5241
  746MOL0     H98467   7.675   5.808  10.259 -3.1750 -0.6705 -3.3263
  746MOL0     H98468   7.850   6.052  10.203  0.6593  0.1246 -0.4527
  746MOL0     H98469   7.863   5.971  10.356  1.1315 -0.3167  0.2946
  746MOL0     H98470   8.134   5.808  10.066  2.8401  0.9430  2.1449
  746MOL0     H98471   7.280   6.014   9.975  1.6183  0.5343  1.3503
  746MOL0     H98472   7.043   5.948   9.925 -0.0197  1.4419  0.8612
  747MOL0     O98473   0.052   1.597  10.685 -0.2008  0.1159  0.0188
  747MOL0     C98474   0.140   1.600  10.596  0.4152 -0.1364 -0.8943
  747MOL0     O98475   0.122   1.640  10.470 -0.3453  0.1565  0.0094
  747MOL0     C98476  -0.002   1.651  10.412 -1.0293  0.1768 -1.1452
  747MOL0     C98477  -0.022   1.769  10.339 -0.8077 -0.8281  0.4806
  747MOL0     C98478  -0.143   1.791  10.282 -0.1518  0.6815 -0.3420
  747MOL0     C98479  -0.242   1.691  10.298  0.0228  1.2438 -0.8873
  747MOL0     O98480  -0.369   1.698  10.245 -0.6213 -0.1469 -0.0741
  747MOL0     C98481  -0.400   1.794  10.146  0.0474  0.8122  0.4368
  747MOL0     C98482  -0.473   1.920  10.186 -0.8214 -1.0616 -0.4263
  747MOL0     C98483  -0.526   2.011  10.076  1.2653 -0.4236  0.8665
  747MOL0     C98484  -0.404   2.072   9.994 -0.4431  0.6119 -0.1112
  747MOL0     C98485  -0.436   2.165   9.877  0.1902  0.1764  1.0531
  747MOL0     C98486  -0.545   2.104   9.785  0.0918 -0.0006  0.3343
  747MOL0     C98487  -0.567   2.207   9.670  0.6480 -0.5411 -0.3237
  747MOL0     C98488  -0.662   2.152   9.558 -0.7557 -0.4213  0.0496
  747MOL0     N98489  -0.679   2.228   9.428  0.4942  0.3770 -0.5148
  747MOL0     C98490  -0.664   2.362   9.413 -0.4235 -1.1752 -0.2647
  747MOL0     C98491  -0.669   2.390   9.282  0.5264  0.4158  0.9313
  747MOL0     C98492  -0.644   2.515   9.219 -0.2784  0.8440  0.3020
  747MOL0     C98493  -0.676   2.511   9.067  0.7394  0.2033 -1.2558
  747MOL0     C98494  -0.656   2.654   9.006  0.0118 -1.1311 -0.3092
  747MOL0     C98495  -0.710   2.650   8.868 -0.8890 -0.4038  0.0482
  747MOL0     O98496  -0.619   2.563   8.797 -0.4571 -0.1089  0.5913
  747MOL0     C98497  -0.652   2.524   8.668  0.6433 -0.1981  0.4314
  747MOL0     C98498  -0.682   2.626   8.570  0.5708  0.4472 -0.1250
  747MOL0     C98499  -0.699   2.587   8.437  1.1479 -0.8377 -0.2085
  747MOL0     C98500  -0.680   2.455   8.392 -0.5795  1.0728 -0.8555
  747MOL0     C98501  -0.701   2.407   8.252 -0.0954  0.1347 -1.3674
  747MOL0     O98502  -0.735   2.274   8.241  0.1638  0.2226 -1.0490
  747MOL0     C98503  -0.698   2.216   8.122 -0.3645  1.3441 -0.5937
  747MOL0     C98504  -0.803   2.185   8.042  1.0119  0.3540  0.4388
  747MOL0     C98505  -0.781   2.121   7.919  1.1419  0.2735 -0.2923
  747MOL0     C98506  -0.655   2.102   7.871 -0.6178 -0.0558 -0.4067
  747MOL0     O98507  -0.658   2.048   7.741 -0.1223 -0.5389  0.0421
  747MOL0     C98508  -0.531   2.006   7.670  0.0905 -0.5093  0.2750
  747MOL0     C98509  -0.567   2.014   7.521 -0.0919 -1.0653  0.2254
  747MOL0     C98510  -0.465   1.956   7.421  0.2603 -0.3369 -0.3687
  747MOL0     C98511  -0.481   2.016   7.276 -0.6450 -0.0439  0.5944
  747MOL0     C98512  -0.351   1.984   7.193  0.7053  0.1040  0.0119
  747MOL0     C98513  -0.377   1.854   7.123 -0.1730 -0.5853  0.3669
  747MOL0     C98514  -0.243   1.815   7.048  0.2019 -0.5576  0.5090
  747MOL0     C98515  -0.237   1.671   7.031 -0.3628 -0.0523  0.0341
  747MOL0    Cl98516  -0.122   1.638   6.890 -0.5299 -0.0303 -0.3457
  747MOL0     C98517  -0.547   2.140   7.953  0.6211  0.3080  0.8778
  747MOL0     C98518  -0.566   2.192   8.088 -0.5934 -0.3433  0.1014
  747MOL0     O98519  -0.700   2.484   8.156  0.4844 -0.0958 -0.7522
  747MOL0     C98520  -0.650   2.357   8.489  0.1745 -0.5842  0.8982
  747MOL0     C98521  -0.622   2.393   8.621 -0.5040  0.0424 -0.0290
  747MOL0     N98522  -0.698   2.268   9.219  0.1522 -0.2968  0.1326
  747MOL0     N98523  -0.708   2.173   9.306  0.5971  0.2720 -0.5007
  747MOL0     C98524  -0.222   1.568  10.372  0.7964 -0.5496  0.1349
  747MOL0     C98525  -0.099   1.559  10.435 -0.5483  0.6862  0.5804
  747MOL0     C98526   0.283   1.567  10.636  0.1980 -0.9346 -0.0757
  747MOL0     C98527   0.378   1.544  10.534 -0.2732 -0.0681 -0.6217
  747MOL0     C98528   0.511   1.521  10.577  0.4280 -0.1786 -0.5012
  747MOL0     C98529   0.546   1.531  10.707 -0.2606 -0.2336  0.6926
  747MOL0     O98530   0.679   1.506  10.738 -0.7390 -0.3642 -0.2004
  747MOL0     C98531   0.764   1.624  10.712  0.2713  0.0435  0.1800
  747MOL0     C98532   0.850   1.629  10.833  0.7926  0.5397  0.6473
  747MOL0     C98533   0.948   1.514  10.845  0.3916 -0.4755  0.2601
  747MOL0     C98534   1.056   1.533  10.956 -0.7019  0.3888 -0.0946
  747MOL0     C98535   1.129   1.655  10.937  0.4149 -0.2010  0.6547
  747MOL0     C98536   1.188   1.761  10.938 -0.0429  0.3297 -0.7760
  747MOL0     C98537   0.453   1.548  10.807  0.1637  0.3752 -0.6584
  747MOL0     C98538   0.317   1.572  10.773 -0.5653  0.1287  0.4879
  747MOL0     H98539   0.053   1.847  10.330 -0.5295 -1.2245 -0.7363
  747MOL0     H98540  -0.155   1.881  10.224  1.8718  0.9390 -0.4329
  747MOL0     H98541  -0.473   1.746  10.079  1.2146 -0.9190  0.3424
  747MOL0     H98542  -0.311   1.804  10.084  0.3689 -1.7940  0.3971
  747MOL0     H98543  -0.408   1.985  10.246 -0.5630 -1.6164 -0.0889
  747MOL0     H98544  -0.559   1.902  10.250 -1.4262  1.3970 -0.4598
  747MOL0     H98545  -0.598   2.084  10.114  0.2213  0.1175 -1.8757
  747MOL0     H98546  -0.598   1.950  10.018 -0.1836 -0.0724  2.2236
  747MOL0     H98547  -0.336   2.113  10.069  2.0873 -1.7844 -0.9187
  747MOL0     H98548  -0.344   1.991   9.951 -0.9468  1.9591 -3.7066
  747MOL0     H98549  -0.342   2.183   9.823 -0.4622 -2.6474 -1.3273
  747MOL0     H98550  -0.471   2.255   9.928  2.6428  0.6036  2.1611
  747MOL0     H98551  -0.630   2.078   9.849  0.3322 -0.2508  0.5569
  747MOL0     H98552  -0.525   2.008   9.737 -1.1321  0.9750 -2.2964
  747MOL0     H98553  -0.611   2.295   9.718  2.7316 -0.6689  2.0082
  747MOL0     H98554  -0.480   2.242   9.614 -0.6040  3.1079 -0.2632
  747MOL0     H98555  -0.758   2.133   9.607 -0.5549 -1.2962  0.1120
  747MOL0     H98556  -0.623   2.057   9.522 -1.9075  0.3906 -3.8944
  747MOL0     H98557  -0.650   2.441   9.486 -0.8902 -1.6555  0.3502
  747MOL0     H98558  -0.537   2.533   9.230 -0.1073 -0.3743  0.7778
  747MOL0     H98559  -0.691   2.598   9.272 -0.2987  1.7215 -1.0199
  747MOL0     H98560  -0.783   2.486   9.070  0.4385  1.3361  1.7940
  747MOL0     H98561  -0.614   2.438   9.015  4.6547  1.5652  1.0352
  747MOL0     H98562  -0.710   2.733   9.058  3.4802  0.5465  1.0580
  747MOL0     H98563  -0.551   2.680   9.019 -0.6138  0.7981  1.3576
  747MOL0     H98564  -0.695   2.752   8.831 -0.3587 -0.0905  1.0908
  747MOL0     H98565  -0.814   2.619   8.857 -0.8122 -0.2785 -1.2507
  747MOL0     H98566  -0.697   2.728   8.605 -1.0487  1.0262 -2.2703
  747MOL0     H98567  -0.727   2.661   8.363  0.2256 -1.5670 -0.6061
  747MOL0     H98568  -0.900   2.201   8.088  0.7700  3.3585 -0.8737
  747MOL0     H98569  -0.867   2.101   7.856  1.7495 -3.1123 -0.2502
  747MOL0     H98570  -0.508   1.905   7.705  0.1423 -0.1741  1.2348
  747MOL0     H98571  -0.453   2.079   7.693 -2.4392  1.7238  2.4950
  747MOL0     H98572  -0.578   2.118   7.490 -1.3084 -2.4293 -4.9623
  747MOL0     H98573  -0.661   1.961   7.501 -1.2142  0.6679  0.7238
  747MOL0     H98574  -0.462   1.847   7.429  0.5353 -0.1828  3.4478
  747MOL0     H98575  -0.372   1.992   7.466 -1.0305  2.0075  0.6189
  747MOL0     H98576  -0.565   1.961   7.232  0.9625 -2.3525  0.1782
  747MOL0     H98577  -0.482   2.125   7.281  2.5861  0.0283  2.5708
  747MOL0     H98578  -0.262   1.975   7.256 -0.5276  1.1071  1.9850
  747MOL0     H98579  -0.327   2.067   7.126  1.7673 -0.5763 -0.4888
  747MOL0     H98580  -0.467   1.868   7.063 -0.7004 -3.3970  0.3493
  747MOL0     H98581  -0.397   1.779   7.201 -1.8624 -1.8784 -1.2199
  747MOL0     H98582  -0.250   1.857   6.947 -2.1317 -0.1814  0.7863
  747MOL0     H98583  -0.153   1.847   7.102 -0.9202 -0.0981  2.1659
  747MOL0     H98584  -0.330   1.615   7.019  1.0983 -2.4095 -0.9092
  747MOL0     H98585  -0.182   1.634   7.118 -0.5899 -0.9472 -0.1875
  747MOL0     H98586  -0.443   2.130   7.923  0.2963  0.9002 -0.5240
  747MOL0     H98587  -0.477   2.211   8.147 -1.5950 -0.9062  1.8696
  747MOL0     H98588  -0.653   2.249   8.478  0.4638 -0.4362 -0.8939
  747MOL0     H98589  -0.574   2.322   8.687 -1.0223  1.7901  2.3873
  747MOL0     H98590  -0.307   1.502  10.388 -0.2767  0.8419  0.3053
  747MOL0     H98591  -0.083   1.471  10.497  1.7901  1.0317  0.5439
  747MOL0     H98592   0.349   1.556  10.430 -2.5970 -2.2063 -0.3179
  747MOL0     H98593   0.594   1.496  10.512  3.0488 -1.7997  3.1118
  747MOL0     H98594   0.707   1.717  10.710  0.3662  0.1010  0.1722
  747MOL0     H98595   0.819   1.624  10.618 -1.3042 -1.4560 -0.7938
  747MOL0     H98596   0.896   1.728  10.837  1.7182  0.4761 -3.8696
  747MOL0     H98597   0.780   1.630  10.918  1.7489  0.0904  1.4709
  747MOL0     H98598   1.009   1.505  10.755 -2.0630 -1.3408 -1.4417
  747MOL0     H98599   0.891   1.422  10.860  1.3536 -1.1418 -0.1296
  747MOL0     H98600   0.994   1.555  11.043 -2.9443 -0.7156 -1.3137
  747MOL0     H98601   1.110   1.444  10.992 -4.3626 -1.1681  2.1234
  747MOL0     H98602   1.234   1.858  10.928  0.5519  0.3163  1.3182
  747MOL0     H98603   0.492   1.531  10.907  1.8071 -0.0829 -1.3558
  747MOL0     H98604   0.238   1.582  10.846 -0.1575 -0.3290  1.0007
  748MOL0     O98605   8.610   2.213   8.962 -0.5221 -0.3823 -0.6452
  748MOL0     C98606   8.692   2.239   8.872 -0.2966 -0.4815  0.2028
  748MOL0     O98607   8.657   2.297   8.752  0.3358 -0.2879  1.2476
  748MOL0     C98608   8.528   2.294   8.718 -1.1837 -0.7269 -0.5281
  748MOL0     C98609   8.459   2.177   8.704 -0.8180 -0.1173 -1.0458
  748MOL0     C98610   8.339   2.175   8.645  0.7682  0.1480  0.6721
  748MOL0     C98611   8.270   2.296   8.611 -0.1067  0.5236 -0.2967
  748MOL0     O98612   8.143   2.315   8.555 -0.2525  0.4137  0.2126
  748MOL0     C98613   8.086   2.217   8.472 -0.6920 -0.9434 -0.3735
  748MOL0     C98614   7.954   2.268   8.407  0.3633  0.9926  0.6856
  748MOL0     C98615   7.855   2.328   8.504  0.4919  0.7598  0.4816
  748MOL0     C98616   7.713   2.334   8.464 -0.2907  0.0804 -0.9444
  748MOL0     C98617   7.694   2.400   8.325 -0.1930 -0.3379  0.2941
  748MOL0     C98618   7.552   2.387   8.282 -0.6419  0.3099 -1.2224
  748MOL0     C98619   7.527   2.351   8.132 -0.5248  0.0409  0.5259
  748MOL0     C98620   7.564   2.197   8.105 -0.9711 -0.2805 -0.0482
  748MOL0     N98621   7.483   2.097   8.173 -0.8497  0.4157  0.4543
  748MOL0     C98622   7.345   2.091   8.168  0.1435 -0.0289  0.1243
  748MOL0     C98623   7.305   1.993   8.247 -0.1869 -0.4411  0.6195
  748MOL0     C98624   7.162   1.950   8.274 -0.8111 -0.9838 -0.0856
  748MOL0     C98625   7.098   2.007   8.410 -0.0157  0.0579 -1.0149
  748MOL0     C98626   6.944   2.008   8.402 -0.8123  0.7762  0.1929
  748MOL0     C98627   6.878   1.880   8.342  0.3421  0.1942 -0.5240
  748MOL0     O98628   6.744   1.896   8.295 -0.2889 -0.0452  0.0472
  748MOL0     C98629   6.633   1.874   8.372 -1.1052 -0.9054 -0.7546
  748MOL0     C98630   6.629   1.794   8.484 -0.1114 -0.1375 -0.1089
  748MOL0     C98631   6.512   1.772   8.563 -0.4835 -1.2657  0.8207
  748MOL0     C98632   6.397   1.845   8.536 -1.5660 -0.2498  0.3661
  748MOL0     C98633   6.280   1.837   8.618 -0.1521 -0.4380 -0.2793
  748MOL0     O98634   6.168   1.901   8.566 -0.4319 -0.1240  0.2337
  748MOL0     C98635   6.050   1.901   8.633  0.0813 -0.4856 -0.7968
  748MOL0     C98636   5.996   2.019   8.676  0.4273  0.2459 -0.2075
  748MOL0     C98637   5.881   2.006   8.760 -0.1962 -0.0136  0.6768
  748MOL0     C98638   5.829   1.884   8.803  0.1013 -0.5209 -0.7176
  748MOL0     O98639   5.726   1.876   8.891 -0.2143 -0.1162 -0.6660
  748MOL0     C98640   5.728   1.962   9.008  0.5033  1.0378 -0.4848
  748MOL0     C98641   5.826   1.922   9.116 -0.7666 -0.4685 -0.5151
  748MOL0     C98642   5.759   1.847   9.236 -0.0637  0.6899 -0.3427
  748MOL0     C98643   5.686   1.707   9.196  0.0589 -0.7108  0.2893
  748MOL0     C98644   5.589   1.663   9.310 -0.0545  0.0279 -0.0425
  748MOL0     C98645   5.492   1.559   9.241 -0.6153 -1.4741  0.2512
  748MOL0     C98646   5.399   1.487   9.332 -0.0376  0.4674  0.7818
  748MOL0     C98647   5.449   1.389   9.422  0.0831  0.5174  0.2364
  748MOL0    Cl98648   5.317   1.296   9.490 -0.2719  0.0063  0.2219
  748MOL0     C98649   5.887   1.771   8.757  1.0726 -0.2144 -0.2370
  748MOL0     C98650   6.002   1.776   8.674 -0.1866 -0.1813 -0.1627
  748MOL0     O98651   6.287   1.804   8.734 -0.2879 -0.3742 -0.3019
  748MOL0     C98652   6.406   1.930   8.426  0.6703  0.4424 -0.7930
  748MOL0     C98653   6.519   1.950   8.351 -0.3190  0.5826 -0.1660
  748MOL0     N98654   7.419   1.944   8.305 -0.1269  0.2954 -0.1267
  748MOL0     N98655   7.522   2.018   8.270  0.5815  0.9206 -0.2458
  748MOL0     C98656   8.333   2.419   8.646 -0.0152 -0.5043  0.4241
  748MOL0     C98657   8.461   2.417   8.700  0.1309  0.8201 -0.4761
  748MOL0     C98658   8.829   2.225   8.896 -0.1355 -0.2659 -0.2954
  748MOL0     C98659   8.875   2.141   9.003 -0.0002 -0.9429 -0.5706
  748MOL0     C98660   9.015   2.121   9.012 -0.3779 -0.0220 -0.1857
  748MOL0     C98661   9.105   2.170   8.920 -0.3921 -0.3437  0.4942
  748MOL0     O98662   9.236   2.160   8.945  0.1822  0.1778  0.4171
  748MOL0     C98663   9.326   2.245   8.885  0.3630 -0.6515  0.1502
  748MOL0     C98664   9.467   2.223   8.946  0.4074 -1.1003 -0.5533
  748MOL0     C98665   9.566   2.143   8.863 -0.3007  1.0431  0.4716
  748MOL0     C98666   9.713   2.176   8.896  0.0879  0.9115  1.0073
  748MOL0     C98667   9.758   2.091   9.011  0.7445 -0.5950  0.8732
  748MOL0     C98668   9.771   2.027   9.109 -0.3616  0.6910 -0.8534
  748MOL0     C98669   9.054   2.243   8.812  0.1707  0.6348  0.3938
  748MOL0     C98670   8.923   2.273   8.802  0.2363 -0.3705  0.2096
  748MOL0     H98671   8.507   2.084   8.732 -4.0263 -2.0507 -1.4535
  748MOL0     H98672   8.298   2.075   8.633  3.3902 -1.2426  2.0941
  748MOL0     H98673   8.054   2.133   8.534  0.5414  2.0365  4.9169
  748MOL0     H98674   8.151   2.190   8.389 -2.8230 -0.8272 -2.1954
  748MOL0     H98675   7.902   2.187   8.354  2.5474  0.0941 -0.2049
  748MOL0     H98676   7.986   2.343   8.334 -0.5507 -2.1689 -3.3631
  748MOL0     H98677   7.887   2.427   8.536  2.1156  0.0089  1.3008
  748MOL0     H98678   7.857   2.271   8.598 -0.8158  0.1029  0.1386
  748MOL0     H98679   7.671   2.235   8.444  1.0821 -1.1547  1.8394
  748MOL0     H98680   7.652   2.371   8.547  0.5487  1.2603 -0.8402
  748MOL0     H98681   7.760   2.348   8.255  0.6234 -0.1014  0.8782
  748MOL0     H98682   7.727   2.504   8.324 -1.6462  0.1691 -1.3463
  748MOL0     H98683   7.510   2.486   8.303  1.7108  1.4812 -1.6868
  748MOL0     H98684   7.491   2.328   8.351  2.0281  0.7592  1.7560
  748MOL0     H98685   7.435   2.385   8.084  0.0104  1.9844  0.7880
  748MOL0     H98686   7.602   2.404   8.072  0.7030  0.4689  2.3696
  748MOL0     H98687   7.669   2.188   8.135 -1.7178 -1.0131  2.6798
  748MOL0     H98688   7.555   2.177   7.998  2.7611  1.5754 -0.8685
  748MOL0     H98689   7.281   2.158   8.111 -1.9638 -1.5447  0.6203
  748MOL0     H98690   7.176   1.843   8.294  2.1449 -0.4151  1.5166
  748MOL0     H98691   7.098   1.971   8.188  1.5508  0.3953 -1.6195
  748MOL0     H98692   7.125   2.111   8.432  0.9601 -0.5319  0.7658
  748MOL0     H98693   7.123   1.943   8.494 -0.9636  0.9169 -0.0588
  748MOL0     H98694   6.891   2.020   8.497 -1.0640 -0.4806  0.2324
  748MOL0     H98695   6.912   2.085   8.332  3.1691  0.4543 -2.2883
  748MOL0     H98696   6.887   1.798   8.413  0.5492 -1.2719 -2.1723
  748MOL0     H98697   6.933   1.846   8.254 -0.1524  0.7825 -1.0780
  748MOL0     H98698   6.709   1.728   8.515 -0.9142 -1.4030 -0.6529
  748MOL0     H98699   6.503   1.709   8.650 -0.7547  1.0277  2.5492
  748MOL0     H98700   6.030   2.114   8.635 -1.7796  0.0352 -2.8435
  748MOL0     H98701   5.834   2.095   8.802  2.5339  1.8744  0.0468
  748MOL0     H98702   5.630   1.967   9.055 -0.4762  1.1844 -2.4234
  748MOL0     H98703   5.745   2.066   8.979  0.7883  2.1908  3.3192
  748MOL0     H98704   5.885   2.008   9.148 -0.7843 -0.1857 -1.2328
  748MOL0     H98705   5.902   1.856   9.073 -0.7189 -0.0845 -1.0325
  748MOL0     H98706   5.677   1.909   9.275 -3.5681 -2.3095 -2.3157
  748MOL0     H98707   5.827   1.826   9.320 -0.2131 -0.2265 -0.4457
  748MOL0     H98708   5.627   1.712   9.104 -1.2316 -1.6385  1.0355
  748MOL0     H98709   5.761   1.629   9.188 -0.2736 -1.3594  2.6822
  748MOL0     H98710   5.523   1.745   9.342  0.0449  0.2905 -0.4995
  748MOL0     H98711   5.644   1.619   9.394  0.3990 -0.3312 -0.5254
  748MOL0     H98712   5.558   1.488   9.190  2.0187  0.3986  0.8653
  748MOL0     H98713   5.439   1.616   9.164  0.4441 -1.7678 -0.7249
  748MOL0     H98714   5.329   1.552   9.385 -0.2568 -0.4573  1.6556
  748MOL0     H98715   5.337   1.420   9.270  0.9331 -0.9548  1.2917
  748MOL0     H98716   5.515   1.439   9.494 -0.2069  1.2355  0.0080
  748MOL0     H98717   5.513   1.320   9.367 -2.3915  0.5875 -3.0161
  748MOL0     H98718   5.833   1.689   8.802 -1.6635  1.7527  0.3405
  748MOL0     H98719   6.041   1.684   8.632  0.6264 -0.8665  1.9720
  748MOL0     H98720   6.325   1.994   8.390  0.4523  1.3478  1.1982
  748MOL0     H98721   6.532   2.026   8.274  0.1366  0.9605  0.2751
  748MOL0     H98722   8.287   2.517   8.633  0.4021 -0.4438 -0.7324
  748MOL0     H98723   8.514   2.509   8.720 -1.3010  1.2921  1.3276
  748MOL0     H98724   8.804   2.114   9.080  0.4681 -1.3845 -0.2849
  748MOL0     H98725   9.059   2.056   9.087  0.5835 -1.4382 -1.8951
  748MOL0     H98726   9.307   2.351   8.904  2.3458  0.6070 -3.8211
  748MOL0     H98727   9.343   2.239   8.777  0.5533  3.5227 -0.2203
  748MOL0     H98728   9.507   2.322   8.970 -0.3221 -0.7287 -0.8392
  748MOL0     H98729   9.457   2.185   9.048  0.4331  2.2212  0.8424
  748MOL0     H98730   9.562   2.165   8.756 -0.1978 -1.9566 -0.2625
  748MOL0     H98731   9.549   2.035   8.869  0.3810  0.8794 -0.3951
  748MOL0     H98732   9.773   2.158   8.807  0.9352  0.7516  1.5946
  748MOL0     H98733   9.724   2.280   8.926  3.1740  1.2078 -0.7402
  748MOL0     H98734   9.798   1.963   9.190  1.4618 -0.7398 -2.4930
  748MOL0     H98735   9.121   2.285   8.738  0.9694  1.3963  1.5181
  748MOL0     H98736   8.893   2.340   8.722  1.3140 -0.7768 -0.5481
  749MOL0     O98737   9.097   9.379   9.179 -0.0657  0.0156  0.6123
  749MOL0     C98738   9.161   9.378   9.284  0.5956 -0.0418  0.6031
  749MOL0     O98739   9.112   9.339   9.411 -0.4940 -1.1028  0.2790
  749MOL0     C98740   8.978   9.319   9.438 -0.0126 -0.3895  0.4193
  749MOL0     C98741   8.945   9.201   9.517 -0.7458 -0.1200 -0.2850
  749MOL0     C98742   8.808   9.175   9.553 -0.0943 -0.7384  0.5930
  749MOL0     C98743   8.708   9.257   9.499  0.0603  0.7961 -0.1253
  749MOL0     O98744   8.579   9.209   9.516  0.0651  0.3914 -0.4447
  749MOL0     C98745   8.538   9.100   9.431 -0.5538 -1.0286  0.0683
  749MOL0     C98746   8.391   9.076   9.462 -0.2864 -0.5409 -0.2240
  749MOL0     C98747   8.270   9.163   9.404 -0.8064  0.3998 -0.3204
  749MOL0     C98748   8.272   9.303   9.459  0.3992 -0.2260  0.2458
  749MOL0     C98749   8.177   9.386   9.372 -0.5254 -0.6896 -0.0811
  749MOL0     C98750   8.043   9.322   9.358 -0.6392  0.6166  0.2833
  749MOL0     C98751   7.931   9.440   9.346  0.9099 -0.3238  0.1370
  749MOL0     C98752   7.792   9.372   9.344  0.5504 -0.4811  0.0192
  749MOL0     N98753   7.692   9.475   9.374  0.3638  0.3373 -0.6503
  749MOL0     C98754   7.661   9.504   9.499 -0.5832  0.4168  0.4644
  749MOL0     C98755   7.560   9.591   9.504  0.5895  0.0375 -0.0367
  749MOL0     C98756   7.500   9.661   9.626 -0.4962 -0.4113  0.0905
  749MOL0     C98757   7.406   9.553   9.685  0.9111 -0.6574  0.4825
  749MOL0     C98758   7.285   9.498   9.613  0.5062 -0.4937 -0.2622
  749MOL0     C98759   7.194   9.605   9.549 -0.0650  0.2124 -0.7281
  749MOL0     O98760   7.071   9.551   9.494 -0.2840 -0.4200 -0.3410
  749MOL0     C98761   7.072   9.506   9.364  0.1402 -0.3668  0.2824
  749MOL0     C98762   7.180   9.489   9.273  0.2237  0.1320 -0.2041
  749MOL0     C98763   7.149   9.443   9.146 -0.8421 -0.0325  0.9907
  749MOL0     C98764   7.024   9.423   9.092  0.4127  0.1462  0.1160
  749MOL0     C98765   7.003   9.373   8.956  0.1515  0.2284 -0.1642
  749MOL0     O98766   6.871   9.336   8.918 -0.2866  0.4886  0.6972
  749MOL0     C98767   6.846   9.264   8.801  0.2720 -0.3447  0.9938
  749MOL0     C98768   6.714   9.285   8.740  0.0922 -0.0027  0.1462
  749MOL0     C98769   6.686   9.231   8.613  0.2777  0.1796  0.2410
  749MOL0     C98770   6.770   9.155   8.546 -0.1557  0.3438 -0.0478
  749MOL0     O98771   6.719   9.097   8.434 -0.1914  0.2052 -0.3619
  749MOL0     C98772   6.825   9.049   8.354  0.7041  0.2585  0.8917
  749MOL0     C98773   6.767   9.001   8.223  0.3504  0.1140  0.1767
  749MOL0     C98774   6.686   8.872   8.211  0.2263 -0.0905  0.1296
  749MOL0     C98775   6.545   8.875   8.261  0.1911  0.1275 -0.0760
  749MOL0     C98776   6.461   8.771   8.181 -0.5361  0.1668  0.0530
  749MOL0     C98777   6.312   8.787   8.212  1.0217  0.3528 -0.3464
  749MOL0     C98778   6.246   8.912   8.151 -0.3441 -0.0691  0.3088
  749MOL0     C98779   6.092   8.894   8.129 -0.4191 -0.1652 -0.4175
  749MOL0    Cl98780   6.013   8.848   8.286  0.3253  0.2178  0.1419
  749MOL0     C98781   6.899   9.138   8.601 -0.0990 -0.0674 -0.2854
  749MOL0     C98782   6.942   9.195   8.723 -0.5747  0.4481  0.3384
  749MOL0     O98783   7.106   9.373   8.885 -0.0200 -0.1060 -0.4058
  749MOL0     C98784   6.918   9.455   9.180  0.0972  0.2042  0.1847
  749MOL0     C98785   6.938   9.490   9.318  0.3677  0.3989  0.1939
  749MOL0     N98786   7.518   9.592   9.373 -0.2081  0.8144 -0.2237
  749MOL0     N98787   7.600   9.534   9.292  0.6402  0.1919 -0.1541
  749MOL0     C98788   8.741   9.374   9.432 -0.1058 -0.4318 -0.4828
  749MOL0     C98789   8.875   9.399   9.390 -0.0084  0.1523 -0.6921
  749MOL0     C98790   9.306   9.410   9.279 -0.5619  0.2836 -0.1559
  749MOL0     C98791   9.381   9.451   9.391  0.0747  0.1712  0.1502
  749MOL0     C98792   9.523   9.465   9.401 -0.3720  0.3207  0.5631
  749MOL0     C98793   9.597   9.430   9.282  0.2918 -0.2476  0.4031
  749MOL0     O98794   9.734   9.433   9.271  0.3181 -0.5111  0.2110
  749MOL0     C98795   9.808   9.414   9.395 -0.3568  1.3228  0.1159
  749MOL0     C98796   9.937   9.336   9.351 -0.4706 -0.3703 -0.3007
  749MOL0     C98797   9.907   9.191   9.323  0.0501 -0.1970  0.2096
  749MOL0     C98798   9.881   9.163   9.174  0.3455 -0.2115 -0.0014
  749MOL0     C98799   9.866   9.020   9.152  0.0097  0.4070  0.5144
  749MOL0     C98800   9.860   8.899   9.162 -0.1591  0.2146  0.5156
  749MOL0     C98801   9.524   9.398   9.165  0.1427  0.7430 -0.1274
  749MOL0     C98802   9.384   9.384   9.163 -0.7100  0.1927  0.2617
  749MOL0     H98803   9.027   9.136   9.546  1.0620  2.9550  2.1908
  749MOL0     H98804   8.781   9.084   9.605  0.4602 -3.8530 -3.9979
  749MOL0     H98805   8.601   9.012   9.445  0.0074 -0.4065  1.7926
  749MOL0     H98806   8.548   9.121   9.324  0.1114 -2.1564 -0.0982
  749MOL0     H98807   8.381   9.073   9.571 -0.8015  0.4768 -0.2388
  749MOL0     H98808   8.375   8.978   9.417 -1.3073 -1.2234  1.5225
  749MOL0     H98809   8.176   9.113   9.431 -0.9119  1.6715  1.9382
  749MOL0     H98810   8.276   9.182   9.297  0.0120  2.6941  0.0894
  749MOL0     H98811   8.217   9.290   9.553  0.3903  3.0699  0.8445
  749MOL0     H98812   8.371   9.351   9.464 -0.0744  0.7059  1.0498
  749MOL0     H98813   8.229   9.402   9.277 -0.4045 -0.8311 -0.0383
  749MOL0     H98814   8.162   9.486   9.413 -0.3562 -0.5245 -0.4210
  749MOL0     H98815   8.021   9.259   9.444  1.4438 -1.4134 -0.5749
  749MOL0     H98816   8.033   9.265   9.265  2.6853  0.6074 -0.1804
  749MOL0     H98817   7.940   9.506   9.433 -0.8233  2.2760 -1.5222
  749MOL0     H98818   7.947   9.491   9.250 -1.2362 -3.4243 -2.0688
  749MOL0     H98819   7.806   9.300   9.425 -0.7756  0.5344  1.2185
  749MOL0     H98820   7.770   9.337   9.242  0.8133 -0.5560 -0.0118
  749MOL0     H98821   7.700   9.467   9.593 -1.8956 -0.4408  0.7058
  749MOL0     H98822   7.444   9.751   9.603  2.8893  1.5800 -1.0778
  749MOL0     H98823   7.579   9.691   9.695 -1.1428 -0.0768  0.6945
  749MOL0     H98824   7.358   9.596   9.774 -2.0959 -0.0357 -1.3016
  749MOL0     H98825   7.456   9.466   9.730 -1.4132 -2.7281 -0.6937
  749MOL0     H98826   7.318   9.422   9.542  2.2778  0.5478 -0.6168
  749MOL0     H98827   7.218   9.443   9.680 -0.6108  0.3275 -0.6703
  749MOL0     H98828   7.257   9.663   9.481  2.2052  0.9831  1.8431
  749MOL0     H98829   7.163   9.673   9.630 -0.7760 -0.6962 -0.2141
  749MOL0     H98830   7.284   9.497   9.300 -0.0708  0.8792  0.7778
  749MOL0     H98831   7.241   9.420   9.092 -1.0302 -0.8965  1.0208
  749MOL0     H98832   6.643   9.341   8.800  1.3850 -0.2444  1.9834
  749MOL0     H98833   6.587   9.248   8.572 -0.1566 -0.7818  0.8549
  749MOL0     H98834   6.875   8.961   8.397  1.1692  0.1610  0.1707
  749MOL0     H98835   6.897   9.128   8.331  0.6186 -0.2524 -1.3936
  749MOL0     H98836   6.860   8.970   8.173 -0.2589 -1.9895  0.2219
  749MOL0     H98837   6.716   9.082   8.170  1.1670  2.1649  2.3618
  749MOL0     H98838   6.745   8.795   8.261 -0.1231 -0.6129 -0.2518
  749MOL0     H98839   6.690   8.854   8.103  1.2194  0.1895  0.1028
  749MOL0     H98840   6.549   8.861   8.369  0.3384  2.0182  0.2063
  749MOL0     H98841   6.499   8.973   8.244 -1.9272 -0.7553  0.2182
  749MOL0     H98842   6.502   8.673   8.207 -1.7483 -0.5238 -0.5640
  749MOL0     H98843   6.476   8.779   8.073  0.9018 -1.4468  0.0913
  749MOL0     H98844   6.316   8.786   8.321  0.2953 -4.4299 -0.1418
  749MOL0     H98845   6.252   8.699   8.190  1.6146  0.1373 -1.1406
  749MOL0     H98846   6.263   9.001   8.212  1.5413 -0.8548  0.9746
  749MOL0     H98847   6.287   8.926   8.050 -0.8176  2.2994  0.3764
  749MOL0     H98848   6.076   8.819   8.052  0.7244 -0.5524 -0.3019
  749MOL0     H98849   6.058   8.993   8.096  1.1545  0.8138  0.7467
  749MOL0     H98850   6.977   9.086   8.547 -0.3173 -0.4923 -0.1969
  749MOL0     H98851   7.041   9.191   8.767 -0.0695  0.1559 -0.7945
  749MOL0     H98852   6.816   9.442   9.147 -0.9883  0.8357  3.0370
  749MOL0     H98853   6.859   9.499   9.391  1.1644  1.6938  0.9259
  749MOL0     H98854   8.662   9.447   9.420  0.4027 -0.0162 -1.3458
  749MOL0     H98855   8.898   9.492   9.340 -2.7177 -0.1045 -2.6503
  749MOL0     H98856   9.317   9.468   9.478 -2.1271  0.8650 -1.5217
  749MOL0     H98857   9.568   9.492   9.497 -1.3176 -0.0876  1.1397
  749MOL0     H98858   9.744   9.361   9.465 -0.2292 -1.1161 -1.4785
  749MOL0     H98859   9.831   9.508   9.445 -1.9661  2.2315 -0.7551
  749MOL0     H98860   9.990   9.392   9.274 -2.1267  1.0276 -0.4729
  749MOL0     H98861  10.003   9.339   9.437  0.4821  0.0873 -1.0363
  749MOL0     H98862   9.823   9.158   9.384 -1.0118 -1.7062 -1.9482
  749MOL0     H98863   9.994   9.135   9.361  1.3545  1.7708  0.2889
  749MOL0     H98864   9.783   9.208   9.157 -1.1050 -2.2985  2.0391
  749MOL0     H98865   9.963   9.207   9.117  0.8335 -1.1659 -0.0639
  749MOL0     H98866   9.864   8.792   9.165  1.5173  0.2719  1.5767
  749MOL0     H98867   9.567   9.358   9.074 -3.2194 -0.3666 -1.4034
  749MOL0     H98868   9.347   9.338   9.072  2.1555 -0.9702 -0.4462
  750MOL0     O98869   9.041   3.413   5.987 -0.0426 -0.2927  0.8397
  750MOL0     C98870   9.022   3.489   5.890 -0.3650  0.1093 -0.0797
  750MOL0     O98871   8.947   3.597   5.872 -0.0132  0.3090 -0.2398
  750MOL0     C98872   8.873   3.652   5.977 -0.1842  0.6009  0.4548
  750MOL0     C98873   8.813   3.575   6.072  0.5919 -0.3951  0.9541
  750MOL0     C98874   8.718   3.625   6.157  0.0724 -0.1998  0.2168
  750MOL0     C98875   8.691   3.762   6.163 -0.6278  0.0679  0.1426
  750MOL0     O98876   8.602   3.798   6.260  0.4541  0.6019  0.0623
  750MOL0     C98877   8.572   3.933   6.297 -0.2299 -0.0159 -0.0687
  750MOL0     C98878   8.435   3.944   6.350 -0.3475  0.3221 -0.1507
  750MOL0     C98879   8.386   4.083   6.406 -0.4809  1.3953  0.1026
  750MOL0     C98880   8.249   4.074   6.468  0.5944  0.0957  0.4890
  750MOL0     C98881   8.184   4.207   6.508  0.0224 -0.6203 -0.0962
  750MOL0     C98882   8.066   4.205   6.611 -0.5047 -0.0616  0.3327
  750MOL0     C98883   7.950   4.114   6.570 -0.2398 -0.3326 -0.5288
  750MOL0     C98884   7.821   4.168   6.613 -1.0757 -0.0283  0.2656
  750MOL0     N98885   7.808   4.154   6.760 -0.7552 -0.0015  0.0193
  750MOL0     C98886   7.770   4.043   6.825 -0.8856 -0.3530  0.1383
  750MOL0     C98887   7.709   4.086   6.940  0.5836 -0.1928  1.3973
  750MOL0     C98888   7.633   4.004   7.045 -0.7056  0.1421  0.5996
  750MOL0     C98889   7.513   4.078   7.100 -0.7882  0.0381 -0.1664
  750MOL0     C98890   7.457   4.000   7.226 -0.0506 -0.4049  0.0411
  750MOL0     C98891   7.319   4.067   7.267  0.3193 -0.0820 -0.2068
  750MOL0     O98892   7.236   4.012   7.170 -0.1288  0.3429 -1.1251
  750MOL0     C98893   7.105   4.051   7.196 -0.2906  1.1285  0.0317
  750MOL0     C98894   7.012   4.009   7.100 -0.3480  0.2773 -0.2741
  750MOL0     C98895   6.882   4.043   7.114 -0.1409 -0.9619  0.1454
  750MOL0     C98896   6.832   4.125   7.212  0.5015 -0.2559  0.2455
  750MOL0     C98897   6.692   4.173   7.199  0.3225  0.4532  0.5626
  750MOL0     O98898   6.629   4.147   7.081  0.6535 -0.7635 -0.2393
  750MOL0     C98899   6.493   4.139   7.088  0.1243 -0.1366 -0.1260
  750MOL0     C98900   6.433   4.026   7.112 -0.1687  0.1767 -0.8704
  750MOL0     C98901   6.292   4.017   7.125  0.2804  0.3728 -0.1173
  750MOL0     C98902   6.217   4.129   7.117 -0.3080  0.0147  0.4758
  750MOL0     O98903   6.081   4.108   7.122 -0.4961  0.1286 -0.1964
  750MOL0     C98904   6.011   4.155   7.006 -0.0025 -0.0375  0.6697
  750MOL0     C98905   5.890   4.061   6.986  0.1347 -0.6386 -0.1343
  750MOL0     C98906   5.791   4.049   7.106  0.4876 -0.4746  0.3338
  750MOL0     C98907   5.653   3.998   7.069 -0.3966  0.6346  0.8002
  750MOL0     C98908   5.553   4.003   7.176 -0.2418 -0.6302 -0.2174
  750MOL0     C98909   5.492   4.141   7.198  0.2400 -0.5650  0.5594
  750MOL0     C98910   5.510   4.180   7.343 -0.7306 -0.0338  1.2509
  750MOL0     C98911   5.471   4.328   7.377 -0.3483  0.6747  0.0827
  750MOL0    Cl98912   5.296   4.336   7.396  0.3416 -0.0490  0.4020
  750MOL0     C98913   6.278   4.254   7.085 -0.1246  0.0849  0.6517
  750MOL0     C98914   6.419   4.252   7.073 -0.1710 -0.6116  0.3265
  750MOL0     O98915   6.647   4.223   7.300  0.5032 -0.3759 -0.7579
  750MOL0     C98916   6.917   4.165   7.310  0.6460 -0.2405  0.2410
  750MOL0     C98917   7.055   4.136   7.300  0.2445 -0.1159  1.1586
  750MOL0     N98918   7.743   4.222   6.957 -0.3086 -0.3132 -0.2774
  750MOL0     N98919   7.793   4.262   6.841 -0.8788 -1.1991  0.0088
  750MOL0     C98920   8.767   3.842   6.077  0.3745 -0.6844  0.4913
  750MOL0     C98921   8.852   3.790   5.984 -0.9620  0.9084 -0.7685
  750MOL0     C98922   9.109   3.461   5.774 -0.7266  0.1177 -0.2326
  750MOL0     C98923   9.099   3.544   5.663  0.6945  0.7198 -0.0324
  750MOL0     C98924   9.166   3.516   5.546  0.2805  0.6274  0.0674
  750MOL0     C98925   9.271   3.419   5.550 -0.0788 -0.1584 -0.4911
  750MOL0     O98926   9.331   3.399   5.437  0.5073  0.4814  0.3035
  750MOL0     C98927   9.469   3.345   5.447 -0.6256 -0.5741  0.2779
  750MOL0     C98928   9.560   3.394   5.332 -0.3645  0.1039  0.0198
  750MOL0     C98929   9.554   3.552   5.320 -0.3197  0.4232  0.1765
  750MOL0     C98930   9.683   3.620   5.260  0.5427  0.2726  0.0865
  750MOL0     C98931   9.725   3.557   5.136  0.3696  0.0937  0.4397
  750MOL0     C98932   9.762   3.503   5.031  0.4212  0.2329 -0.4064
  750MOL0     C98933   9.290   3.342   5.664  0.8627 -0.4216  0.3305
  750MOL0     C98934   9.207   3.362   5.771 -0.6150 -0.3156  0.2626
  750MOL0     H98935   8.821   3.467   6.076 -1.9763 -0.8541 -2.1240
  750MOL0     H98936   8.660   3.558   6.220  0.7555 -1.4775 -0.4675
  750MOL0     H98937   8.573   3.998   6.209  0.9345 -1.2772 -1.0360
  750MOL0     H98938   8.641   3.976   6.370  0.2462 -0.5740 -0.1825
  750MOL0     H98939   8.427   3.859   6.418  2.0088 -0.7373 -1.0836
  750MOL0     H98940   8.373   3.907   6.267  1.1322 -2.0309 -0.3130
  750MOL0     H98941   8.393   4.159   6.328  0.7218 -0.1749 -1.4119
  750MOL0     H98942   8.452   4.105   6.491 -2.1452  1.4769  1.4375
  750MOL0     H98943   8.188   4.028   6.389  1.9532  0.4151 -0.7988
  750MOL0     H98944   8.248   4.006   6.554 -3.0715 -1.9070 -0.8822
  750MOL0     H98945   8.145   4.254   6.417  1.2146  1.6612  0.4899
  750MOL0     H98946   8.258   4.274   6.553 -0.2559  0.8725 -1.7308
  750MOL0     H98947   8.033   4.308   6.623  0.3016  0.1990  0.4000
  750MOL0     H98948   8.103   4.171   6.708  0.6617 -1.8494 -0.6559
  750MOL0     H98949   7.957   4.109   6.461  0.3085  1.2315 -0.5777
  750MOL0     H98950   7.960   4.014   6.614 -1.6000  0.5572  2.0296
  750MOL0     H98951   7.735   4.117   6.570 -0.7799  0.8970 -1.5338
  750MOL0     H98952   7.817   4.276   6.595 -0.1158  0.6999  3.6445
  750MOL0     H98953   7.768   3.939   6.792  2.2144 -0.6925  0.7163
  750MOL0     H98954   7.701   3.993   7.130 -0.6764  1.5783  0.7905
  750MOL0     H98955   7.611   3.911   6.992  0.1509  2.5171 -4.4573
  750MOL0     H98956   7.434   4.089   7.025 -0.4790  1.9804 -0.2701
  750MOL0     H98957   7.544   4.179   7.127  1.7082 -0.1873 -1.8534
  750MOL0     H98958   7.443   3.894   7.207 -3.3490  0.2621 -1.9738
  750MOL0     H98959   7.526   4.023   7.308 -0.2191  1.1810 -0.2208
  750MOL0     H98960   7.327   4.176   7.263  1.8373 -0.1639 -0.0668
  750MOL0     H98961   7.293   4.049   7.372  0.2321  1.3719  0.0530
  750MOL0     H98962   7.047   3.948   7.017  0.2218 -0.0508  0.2035
  750MOL0     H98963   6.826   4.013   7.026  1.6159  0.5514 -1.5931
  750MOL0     H98964   6.491   3.936   7.134 -1.5272 -0.4426  0.3665
  750MOL0     H98965   6.257   3.918   7.152  1.0572  0.4379  1.2174
  750MOL0     H98966   6.075   4.156   6.918  2.3405 -2.5816  2.1974
  750MOL0     H98967   5.984   4.260   7.022  2.6978  0.8081  0.1656
  750MOL0     H98968   5.928   3.961   6.960 -0.6112 -0.5666 -1.6498
  750MOL0     H98969   5.832   4.113   6.908 -0.1177  0.5583  0.8318
  750MOL0     H98970   5.780   4.146   7.156 -0.6980 -1.6665  2.5174
  750MOL0     H98971   5.820   3.980   7.186 -1.0183 -1.7486 -0.1849
  750MOL0     H98972   5.624   4.051   6.978 -0.0277 -0.0140  0.2924
  750MOL0     H98973   5.656   3.892   7.041  2.9524  0.3459  1.8921
  750MOL0     H98974   5.606   3.967   7.264 -1.3946 -1.0870  0.3184
  750MOL0     H98975   5.472   3.933   7.153 -0.9347 -2.1884  5.3722
  750MOL0     H98976   5.385   4.138   7.176  0.5793  2.0008 -2.1377
  750MOL0     H98977   5.540   4.211   7.129  1.2518 -1.9075 -0.1380
  750MOL0     H98978   5.468   4.110   7.417 -2.7560  3.1117  3.2990
  750MOL0     H98979   5.615   4.188   7.372  0.4177 -0.2804 -2.3020
  750MOL0     H98980   5.514   4.395   7.302  0.4821 -0.2704 -0.3212
  750MOL0     H98981   5.494   4.372   7.474  1.4626  1.8361 -0.8249
  750MOL0     H98982   6.205   4.334   7.077 -0.1937 -0.0293  0.0360
  750MOL0     H98983   6.471   4.347   7.064  1.7185 -1.3490  2.3768
  750MOL0     H98984   6.870   4.230   7.382  0.3111  2.0617 -1.9046
  750MOL0     H98985   7.113   4.184   7.379 -1.4009  0.9435  1.7719
  750MOL0     H98986   8.749   3.948   6.091 -1.2194 -0.9116  0.2801
  750MOL0     H98987   8.913   3.854   5.921  1.0067 -1.6577 -1.6487
  750MOL0     H98988   9.017   3.613   5.651 -0.0713 -0.0553  0.6606
  750MOL0     H98989   9.144   3.562   5.451 -1.2599 -1.5302 -0.6975
  750MOL0     H98990   9.451   3.239   5.462 -5.0350 -0.0538  0.0844
  750MOL0     H98991   9.513   3.386   5.538 -3.0798 -1.0859  1.7905
  750MOL0     H98992   9.661   3.356   5.351  0.8892  2.8319 -0.7819
  750MOL0     H98993   9.515   3.353   5.241  1.0731  0.3576 -0.8334
  750MOL0     H98994   9.538   3.598   5.417 -2.5838  0.1644 -0.0135
  750MOL0     H98995   9.470   3.586   5.258 -0.3412  0.7763  0.4002
  750MOL0     H98996   9.668   3.729   5.259 -0.4821  0.1401 -0.2818
  750MOL0     H98997   9.762   3.607   5.334 -1.0028  1.8852  2.1662
  750MOL0     H98998   9.794   3.445   4.947 -1.0267  0.1305 -0.9037
  750MOL0     H98999   9.375   3.274   5.673  1.5448 -0.0022 -2.0418
  750MOL0     H99000   9.226   3.302   5.859  1.1900 -1.1942 -0.6531
  751MOL0     O99001   5.491   4.016   9.708  0.0213 -0.3382  0.0744
  751MOL0     C99002   5.556   3.969   9.798 -0.3760 -0.3560  1.0458
  751MOL0     O99003   5.506   3.884   9.888  0.0740  0.3326  0.3076
  751MOL0     C99004   5.375   3.851   9.886  0.2925  0.9095  0.7631
  751MOL0     C99005   5.332   3.757   9.800 -0.2777  0.6327 -0.7434
  751MOL0     C99006   5.197   3.724   9.804 -0.1718 -0.3350 -0.5029
  751MOL0     C99007   5.101   3.781   9.891 -0.1554 -0.0112  0.0214
  751MOL0     O99008   4.977   3.740   9.876 -0.0193 -0.2215 -0.0178
  751MOL0     C99009   4.871   3.796   9.968 -1.2342  0.0914 -0.1140
  751MOL0     C99010   4.737   3.720   9.971  0.1213  0.0866 -0.2252
  751MOL0     C99011   4.647   3.779  10.075 -0.5479 -0.1495  0.2534
  751MOL0     C99012   4.527   3.690  10.085  1.0659  0.3110 -0.4392
  751MOL0     C99013   4.428   3.745  10.180 -0.5545 -0.7770 -0.9074
  751MOL0     C99014   4.307   3.649  10.212  0.2050  0.2953  0.7247
  751MOL0     C99015   4.220   3.619  10.085 -0.1461  0.3739 -0.7268
  751MOL0     C99016   4.112   3.511  10.113 -0.3926 -0.0226  0.4365
  751MOL0     N99017   4.163   3.409  10.202  0.1266 -0.4220  0.2045
  751MOL0     C99018   4.256   3.313  10.169  0.3732  0.5711 -0.1971
  751MOL0     C99019   4.252   3.231  10.275 -0.2998  0.8557  1.0229
  751MOL0     C99020   4.313   3.097  10.290 -0.4200 -0.0492 -0.5229
  751MOL0     C99021   4.204   2.987  10.254 -0.3149 -0.3680 -0.7930
  751MOL0     C99022   4.252   2.843  10.281  0.5402 -0.2556  0.4478
  751MOL0     C99023   4.157   2.740  10.203 -0.0383 -0.4847 -0.0958
  751MOL0     O99024   4.170   2.783  10.060  0.2661  0.2263 -0.2287
  751MOL0     C99025   4.095   2.711   9.979  0.5388 -0.5563  0.6326
  751MOL0     C99026   4.129   2.714   9.847  0.3112  0.6043  0.8468
  751MOL0     C99027   4.069   2.635   9.746  0.1166  0.1187  0.0813
  751MOL0     C99028   3.956   2.557   9.789 -0.4545  0.1299 -0.2352
  751MOL0     C99029   3.899   2.458   9.696  0.3531 -0.4268  1.2714
  751MOL0     O99030   3.788   2.389   9.732 -0.6464  0.3618 -0.3242
  751MOL0     C99031   3.739   2.271   9.667  0.9093 -0.0615  0.6786
  751MOL0     C99032   3.794   2.204   9.562  0.2768  1.0322 -0.1172
  751MOL0     C99033   3.739   2.090   9.505  0.6924 -1.0597 -0.4440
  751MOL0     C99034   3.619   2.034   9.563 -0.1529  0.3952  0.4247
  751MOL0     O99035   3.580   1.913   9.510  0.6726 -0.7575 -0.1932
  751MOL0     C99036   3.442   1.910   9.459 -0.9506 -0.5691 -0.0467
  751MOL0     C99037   3.358   1.809   9.545 -0.7544 -0.8002  0.3823
  751MOL0     C99038   3.214   1.803   9.488  0.5218  0.2392 -0.5660
  751MOL0     C99039   3.119   1.749   9.593 -0.7673  0.1427 -1.1044
  751MOL0     C99040   2.986   1.695   9.526  0.3356 -1.1276 -0.2766
  751MOL0     C99041   2.883   1.642   9.626  0.2233  0.4691  0.1286
  751MOL0     C99042   2.921   1.495   9.640 -0.0008 -0.5787 -0.4488
  751MOL0     C99043   2.870   1.422   9.761  0.4234 -0.9096  0.2900
  751MOL0    Cl99044   2.689   1.444   9.785  0.4607  0.0643 -0.3374
  751MOL0     C99045   3.559   2.098   9.666  0.2561  0.3798 -0.4651
  751MOL0     C99046   3.618   2.219   9.719  0.3371 -0.6669  0.1972
  751MOL0     O99047   3.934   2.465   9.581  0.2816 -0.6032  0.3513
  751MOL0     C99048   3.922   2.550   9.925  0.5665 -0.4187 -0.1855
  751MOL0     C99049   3.989   2.630  10.019  0.4482  0.2602  0.9949
  751MOL0     N99050   4.155   3.281  10.364 -0.5226 -0.2610  0.1415
  751MOL0     N99051   4.097   3.375  10.311  0.3633  0.1946 -0.3010
  751MOL0     C99052   5.152   3.883   9.975 -0.8489 -0.5853 -0.2481
  751MOL0     C99053   5.285   3.915   9.972 -0.9722 -0.3241 -0.1931
  751MOL0     C99054   5.692   4.004   9.809  0.6698 -0.1344 -0.4303
  751MOL0     C99055   5.763   4.076   9.706 -0.1325 -0.1637 -0.7558
  751MOL0     C99056   5.903   4.097   9.712 -1.0120  1.1478 -0.3173
  751MOL0     C99057   5.974   4.069   9.830  0.0384  0.6072 -0.0966
  751MOL0     O99058   6.110   4.064   9.838  0.2569  0.2802  0.0151
  751MOL0     C99059   6.188   4.108   9.721  0.0141  0.4549 -0.5067
  751MOL0     C99060   6.334   4.090   9.743  0.3591  0.2214  0.0749
  751MOL0     C99061   6.385   3.943   9.709 -0.7233 -0.3441 -0.0219
  751MOL0     C99062   6.525   3.904   9.742 -0.9036 -0.0119 -0.0255
  751MOL0     C99063   6.629   3.973   9.661 -0.2559 -0.1528 -0.6811
  751MOL0     C99064   6.729   4.010   9.604 -0.1412 -0.9198  0.9965
  751MOL0     C99065   5.901   4.009   9.934 -0.5168 -0.7201  0.7210
  751MOL0     C99066   5.763   3.981   9.925 -0.6004 -0.2588 -0.2368
  751MOL0     H99067   5.388   3.716   9.717 -1.7296  0.4902 -1.7008
  751MOL0     H99068   5.163   3.644   9.739 -1.2529 -1.4065  1.3099
  751MOL0     H99069   4.861   3.903   9.945 -0.0358  0.3949  0.6571
  751MOL0     H99070   4.903   3.789  10.072 -2.2297  1.4781  0.3077
  751MOL0     H99071   4.760   3.617   9.997 -1.9338  0.0307  1.6124
  751MOL0     H99072   4.700   3.716   9.868 -0.2606  0.6115 -0.1193
  751MOL0     H99073   4.611   3.878  10.044  0.2921 -0.6109 -2.5039
  751MOL0     H99074   4.694   3.784  10.173 -0.0444  0.7613 -0.0166
  751MOL0     H99075   4.476   3.674   9.990  3.7453  0.4468 -1.9851
  751MOL0     H99076   4.562   3.601  10.138  0.3511  0.6402  0.6240
  751MOL0     H99077   4.397   3.840  10.137  3.8478  1.7778  0.9222
  751MOL0     H99078   4.486   3.760  10.271 -2.4576 -0.8686  0.3902
  751MOL0     H99079   4.244   3.684  10.294 -0.8429  1.5738 -0.5519
  751MOL0     H99080   4.365   3.561  10.242  0.1830 -0.3163 -0.9380
  751MOL0     H99081   4.176   3.709  10.041  0.9242 -0.0008 -2.7293
  751MOL0     H99082   4.293   3.575  10.016  0.3040 -1.8353  1.0736
  751MOL0     H99083   4.084   3.465  10.018  0.7622  4.4030 -2.3189
  751MOL0     H99084   4.032   3.561  10.168 -0.5837  4.2529 -3.1796
  751MOL0     H99085   4.307   3.295  10.074  0.7047 -2.8951  0.5018
  751MOL0     H99086   4.346   3.089  10.394  0.1397  0.0517 -0.6905
  751MOL0     H99087   4.402   3.071  10.231  0.4186 -0.7221  0.9819
  751MOL0     H99088   4.171   2.995  10.151 -2.6739 -3.1829 -0.3949
  751MOL0     H99089   4.113   3.012  10.310 -1.8475 -3.4041 -1.7139
  751MOL0     H99090   4.352   2.821  10.242  0.6963 -0.6858  1.0729
  751MOL0     H99091   4.263   2.816  10.387  1.0403  3.6629  1.5766
  751MOL0     H99092   4.057   2.756  10.244 -0.0391 -0.6633 -0.0303
  751MOL0     H99093   4.178   2.634  10.216 -0.6759 -1.0154 -2.9078
  751MOL0     H99094   4.202   2.785   9.810 -0.8123  1.1420 -0.3999
  751MOL0     H99095   4.102   2.643   9.643  0.5087 -0.1213  0.1860
  751MOL0     H99096   3.880   2.247   9.512  0.3597 -0.2838 -1.1561
  751MOL0     H99097   3.787   2.046   9.418  1.4849 -2.8137  0.8218
  751MOL0     H99098   3.449   1.857   9.363 -3.5525 -1.4698  0.1764
  751MOL0     H99099   3.397   2.007   9.439  2.3728  1.2017  0.4161
  751MOL0     H99100   3.352   1.853   9.645 -0.7354 -2.0572  0.9600
  751MOL0     H99101   3.405   1.710   9.554  1.2784 -0.0755 -1.3266
  751MOL0     H99102   3.220   1.746   9.395  0.0829  1.1757 -1.1853
  751MOL0     H99103   3.172   1.902   9.467 -1.5807 -0.6938 -1.0172
  751MOL0     H99104   3.162   1.662   9.644 -1.9990  1.8904  3.3693
  751MOL0     H99105   3.098   1.829   9.664 -1.2713 -0.5292 -0.4908
  751MOL0     H99106   3.017   1.622   9.450  1.3021 -1.2245  0.1925
  751MOL0     H99107   2.928   1.777   9.482  0.1460 -1.7950 -1.3133
  751MOL0     H99108   2.782   1.657   9.588  1.2331  3.0701 -1.8058
  751MOL0     H99109   2.892   1.697   9.721 -2.2025  1.1540  0.0279
  751MOL0     H99110   2.882   1.447   9.549 -1.2341  0.2673 -0.3810
  751MOL0     H99111   3.030   1.488   9.636  0.2032  2.1303 -1.8720
  751MOL0     H99112   2.921   1.455   9.852 -1.7338 -3.2884  2.5214
  751MOL0     H99113   2.886   1.315   9.744  0.0169 -0.7649 -1.0848
  751MOL0     H99114   3.459   2.069   9.697  1.4086 -2.1596  1.1636
  751MOL0     H99115   3.572   2.268   9.804  1.9019 -1.0626  1.3178
  751MOL0     H99116   3.839   2.485   9.949 -0.0741 -0.4772 -2.3976
  751MOL0     H99117   3.955   2.628  10.122  0.2103  3.0641  1.0389
  751MOL0     H99118   5.101   3.943  10.050  1.9074 -1.7856  2.8036
  751MOL0     H99119   5.323   3.987  10.044 -1.8724  0.0379 -0.0779
  751MOL0     H99120   5.716   4.102   9.612  0.7906  3.4161 -0.3495
  751MOL0     H99121   5.937   4.148   9.623  1.4288  0.5247  0.1980
  751MOL0     H99122   6.164   4.212   9.696  0.8426  0.7920  0.0605
  751MOL0     H99123   6.170   4.045   9.633 -0.2449 -1.1965  0.6812
  751MOL0     H99124   6.384   4.162   9.677  0.8897  1.0382  1.3203
  751MOL0     H99125   6.355   4.127   9.845  0.5722 -1.3958  0.6391
  751MOL0     H99126   6.360   3.941   9.603 -1.2831  1.4245  0.0410
  751MOL0     H99127   6.319   3.871   9.757  1.7622  0.1481  4.7541
  751MOL0     H99128   6.538   3.937   9.845 -1.0119 -0.0574  0.0022
  751MOL0     H99129   6.526   3.795   9.734 -0.6271  0.0292 -0.6681
  751MOL0     H99130   6.813   4.039   9.543  1.3812 -1.3658  2.7762
  751MOL0     H99131   5.959   3.967  10.015  1.2607 -0.1219 -0.1739
  751MOL0     H99132   5.704   3.928  10.000 -2.1540 -3.0236 -3.1744
  752MOL0     O99133   3.612   6.633   6.539  0.9456 -0.9040  0.3060
  752MOL0     C99134   3.686   6.546   6.573  0.0598 -0.5560 -0.0764
  752MOL0     O99135   3.654   6.449   6.671 -0.4729  0.0433  0.8205
  752MOL0     C99136   3.527   6.434   6.719 -0.0102 -0.9136  0.2054
  752MOL0     C99137   3.507   6.443   6.862  0.2265 -0.6107  0.1303
  752MOL0     C99138   3.377   6.417   6.915  0.9861  0.5604 -0.2179
  752MOL0     C99139   3.267   6.406   6.826  0.9164  0.4359 -0.5484
  752MOL0     O99140   3.138   6.391   6.865 -0.0910  0.3545 -0.2817
  752MOL0     C99141   3.103   6.452   6.995 -0.6068 -0.0317  0.6421
  752MOL0     C99142   2.954   6.453   7.011  0.0453  0.4786 -0.0823
  752MOL0     C99143   2.912   6.326   7.079  0.2449  0.0528  0.1533
  752MOL0     C99144   2.755   6.338   7.091 -0.1995 -0.1220 -0.6772
  752MOL0     C99145   2.689   6.220   7.161 -0.0103 -0.3414 -0.0838
  752MOL0     C99146   2.541   6.242   7.166  0.3900 -0.2197  0.0253
  752MOL0     C99147   2.475   6.150   7.268  0.0416 -0.0702  0.8551
  752MOL0     C99148   2.503   5.997   7.262  0.3150 -0.2832 -0.0224
  752MOL0     N99149   2.425   5.919   7.351 -0.9859 -0.6250 -0.2749
  752MOL0     C99150   2.399   5.787   7.319 -0.0830 -0.2144  0.3483
  752MOL0     C99151   2.331   5.753   7.435 -0.4883  0.2912  0.0611
  752MOL0     C99152   2.256   5.630   7.457 -0.2167  1.6219 -1.0351
  752MOL0     C99153   2.326   5.520   7.534 -0.3078  0.4681 -0.0574
  752MOL0     C99154   2.235   5.396   7.540  0.0942  0.3026 -0.2970
  752MOL0     C99155   2.288   5.268   7.615 -0.1163  0.0134 -0.1041
  752MOL0     O99156   2.188   5.163   7.626 -0.0509 -0.2400  0.3638
  752MOL0     C99157   2.168   5.096   7.750  0.5709 -0.9069 -0.1317
  752MOL0     C99158   2.049   5.018   7.772 -0.7128  0.1961 -0.3934
  752MOL0     C99159   2.028   4.946   7.893 -0.0187 -0.8394  0.9338
  752MOL0     C99160   2.136   4.937   7.990 -0.5338 -0.7137 -0.5001
  752MOL0     C99161   2.121   4.860   8.117  0.1551  0.9958 -0.1690
  752MOL0     O99162   2.034   4.751   8.099  0.9111  0.4751  0.1315
  752MOL0     C99163   1.981   4.681   8.211 -0.2164  0.3210  0.7854
  752MOL0     C99164   1.846   4.705   8.248 -0.1914 -1.7621  0.0157
  752MOL0     C99165   1.782   4.631   8.348 -0.3274 -0.0903  1.1237
  752MOL0     C99166   1.849   4.522   8.403  0.0669 -0.7865 -0.3911
  752MOL0     O99167   1.787   4.448   8.503  0.4492 -0.7474 -0.1876
  752MOL0     C99168   1.856   4.334   8.558  0.8581  0.1348 -0.6737
  752MOL0     C99169   1.784   4.269   8.674  0.5055 -0.3386 -0.4282
  752MOL0     C99170   1.643   4.229   8.634 -0.0331  0.4766 -0.8101
  752MOL0     C99171   1.586   4.114   8.719  0.8447  0.9751 -0.0001
  752MOL0     C99172   1.450   4.069   8.656 -0.1307  0.2750 -0.0476
  752MOL0     C99173   1.344   4.172   8.635  0.0374 -0.3240 -0.3902
  752MOL0     C99174   1.207   4.103   8.586  0.1363  0.0721 -0.2084
  752MOL0     C99175   1.089   4.201   8.564  0.1411  0.2849 -0.5761
  752MOL0    Cl99176   1.114   4.289   8.409 -0.2178 -0.3877 -0.2480
  752MOL0     C99177   1.989   4.498   8.365  0.0858 -0.1652 -0.2674
  752MOL0     C99178   2.052   4.578   8.270 -0.0139 -0.0764 -0.5080
  752MOL0     O99179   2.201   4.866   8.212 -0.0173  0.3247 -0.1799
  752MOL0     C99180   2.264   4.995   7.954  0.1021 -1.0633 -0.6222
  752MOL0     C99181   2.277   5.075   7.836  0.5057 -0.6390 -0.7000
  752MOL0     N99182   2.320   5.864   7.511  0.0456  0.1812  0.3829
  752MOL0     N99183   2.382   5.961   7.466  0.2257  0.2812 -0.1765
  752MOL0     C99184   3.290   6.412   6.688 -0.3434 -0.2780  0.1351
  752MOL0     C99185   3.415   6.425   6.634  0.0687  0.6108 -0.1062
  752MOL0     C99186   3.831   6.545   6.524  0.7465  0.0227  0.0794
  752MOL0     C99187   3.919   6.436   6.547 -0.0822 -0.4784  0.1062
  752MOL0     C99188   4.050   6.447   6.502 -0.6918  0.2497 -0.2459
  752MOL0     C99189   4.102   6.554   6.433  0.4612  0.0334  0.3835
  752MOL0     O99190   4.238   6.566   6.391  0.3968 -0.3289  0.4806
  752MOL0     C99191   4.274   6.694   6.323 -0.1532  0.5430  0.6606
  752MOL0     C99192   4.424   6.693   6.270  0.0067 -0.6833 -0.2861
  752MOL0     C99193   4.447   6.591   6.164  0.1467  0.0502 -0.2558
  752MOL0     C99194   4.554   6.629   6.062  0.8648  1.3093  0.8372
  752MOL0     C99195   4.692   6.620   6.112 -0.4579  0.2761 -0.6462
  752MOL0     C99196   4.810   6.634   6.127  0.2368  0.1014  0.1976
  752MOL0     C99197   4.011   6.666   6.414 -0.6121 -0.4767  0.1501
  752MOL0     C99198   3.883   6.661   6.460 -0.3385 -0.0419 -0.6283
  752MOL0     H99199   3.590   6.456   6.931 -1.4163 -0.7232  2.2216
  752MOL0     H99200   3.370   6.413   7.023 -0.9675  1.9299 -0.2501
  752MOL0     H99201   3.124   6.559   6.996 -1.2136  0.0878  0.8022
  752MOL0     H99202   3.151   6.403   7.080  0.2393  0.7252  0.6126
  752MOL0     H99203   2.897   6.474   6.920 -1.8511  0.7616  1.1264
  752MOL0     H99204   2.921   6.525   7.086 -4.5052 -2.3399  0.9501
  752MOL0     H99205   2.962   6.316   7.175  3.1276 -0.9026 -1.3243
  752MOL0     H99206   2.937   6.239   7.017  0.7950 -0.7956  1.5144
  752MOL0     H99207   2.735   6.428   7.150  1.1304  2.0557 -3.2953
  752MOL0     H99208   2.725   6.356   6.987  2.2170  1.6533 -1.1642
  752MOL0     H99209   2.735   6.211   7.260  0.8110 -1.2440 -0.5264
  752MOL0     H99210   2.706   6.126   7.108  0.2873 -0.0643 -0.4896
  752MOL0     H99211   2.501   6.231   7.065 -1.9789  2.4996  0.5519
  752MOL0     H99212   2.515   6.347   7.176 -2.1586 -0.2275 -4.1841
  752MOL0     H99213   2.494   6.195   7.366  2.2878  2.2277 -0.5013
  752MOL0     H99214   2.369   6.161   7.244 -0.0201 -0.8904  0.7447
  752MOL0     H99215   2.609   5.981   7.282  1.4964  0.7849 -4.2644
  752MOL0     H99216   2.487   5.963   7.159 -1.4252  1.0074 -0.2446
  752MOL0     H99217   2.432   5.735   7.229  0.4735  0.2170  0.2961
  752MOL0     H99218   2.245   5.582   7.359  1.8724  0.6441 -0.8467
  752MOL0     H99219   2.162   5.667   7.500 -0.4827 -0.8723  0.7590
  752MOL0     H99220   2.340   5.556   7.636 -0.0665  0.7335 -0.1818
  752MOL0     H99221   2.419   5.486   7.486 -0.6521 -0.9881  0.2651
  752MOL0     H99222   2.143   5.422   7.593  0.4570  1.1181 -0.0440
  752MOL0     H99223   2.219   5.373   7.435  1.4771  2.8636 -1.1520
  752MOL0     H99224   2.306   5.308   7.716 -2.6052  1.7188 -0.2486
  752MOL0     H99225   2.374   5.232   7.558 -0.2764  0.1425 -0.4302
  752MOL0     H99226   1.974   5.025   7.694 -2.3998 -0.6402  1.0696
  752MOL0     H99227   1.932   4.898   7.911 -1.0728  0.9269  0.3315
  752MOL0     H99228   1.780   4.778   8.201 -3.6306 -0.9496  5.2012
  752MOL0     H99229   1.679   4.636   8.379 -0.3390  0.4085  1.0187
  752MOL0     H99230   1.953   4.357   8.604  0.1883 -0.3434  1.0613
  752MOL0     H99231   1.873   4.258   8.482  1.8331 -2.8066  2.2734
  752MOL0     H99232   1.783   4.330   8.765 -2.3288  0.2733 -0.7695
  752MOL0     H99233   1.834   4.173   8.690  1.0695 -0.5520 -3.0229
  752MOL0     H99234   1.648   4.185   8.534 -0.7361  0.3091 -0.7767
  752MOL0     H99235   1.576   4.315   8.627 -1.0444 -0.3463 -1.6399
  752MOL0     H99236   1.651   4.026   8.715  2.0391  1.8507 -3.5834
  752MOL0     H99237   1.566   4.156   8.818 -1.3665  2.3291 -0.9350
  752MOL0     H99238   1.416   3.992   8.726 -1.1467 -0.4695 -1.2997
  752MOL0     H99239   1.472   4.018   8.562 -2.1825  1.1221 -1.0625
  752MOL0     H99240   1.367   4.248   8.560  0.3063 -0.3596 -0.3459
  752MOL0     H99241   1.324   4.226   8.729 -0.9295 -1.7952  0.2764
  752MOL0     H99242   1.232   4.055   8.491  2.0608  3.5805 -1.6593
  752MOL0     H99243   1.189   4.032   8.667 -4.1142  1.9417  0.7839
  752MOL0     H99244   1.080   4.273   8.646  4.5904  0.7991 -0.2542
  752MOL0     H99245   0.997   4.143   8.557  0.1993  0.2698 -1.3045
  752MOL0     H99246   2.045   4.410   8.398  0.8102 -0.4301 -2.0809
  752MOL0     H99247   2.154   4.559   8.236 -0.1565 -0.4737 -0.7214
  752MOL0     H99248   2.353   4.982   8.016 -0.0766 -0.2951 -0.1925
  752MOL0     H99249   2.371   5.116   7.799 -0.2694  1.1398 -0.8018
  752MOL0     H99250   3.203   6.399   6.625 -0.3572  0.4435 -0.0103
  752MOL0     H99251   3.437   6.420   6.528  3.3846  1.1028  0.4556
  752MOL0     H99252   3.882   6.343   6.589 -0.2478 -1.3947 -1.9175
  752MOL0     H99253   4.109   6.357   6.517 -1.5447 -0.3143 -0.2020
  752MOL0     H99254   4.278   6.763   6.408 -0.2692  0.2283  0.9254
  752MOL0     H99255   4.211   6.742   6.247 -1.9449 -2.4446  0.0994
  752MOL0     H99256   4.447   6.795   6.237  0.7419 -0.3669  1.1299
  752MOL0     H99257   4.493   6.671   6.352  2.6524  1.4582 -1.7355
  752MOL0     H99258   4.356   6.568   6.109 -0.5895  0.3931  0.7923
  752MOL0     H99259   4.483   6.504   6.220  0.1349  1.8650  2.8319
  752MOL0     H99260   4.539   6.567   5.973  3.8030 -0.3242  1.3249
  752MOL0     H99261   4.533   6.733   6.034  2.0522  1.0452 -1.2627
  752MOL0     H99262   4.916   6.634   6.142  0.4660  1.2098 -1.2428
  752MOL0     H99263   4.038   6.758   6.364 -2.6034  1.2391  2.0392
  752MOL0     H99264   3.814   6.745   6.453 -1.5744 -1.0257 -0.5033
  753MOL0     O99265   8.072   0.179   9.915 -0.6541  0.4650  0.1075
  753MOL0     C99266   8.133   0.247   9.834 -0.4156 -0.0367 -0.3263
  753MOL0     O99267   8.073   0.292   9.722  0.0087  0.2648  0.0614
  753MOL0     C99268   7.937   0.291   9.709 -0.2393 -0.2390  0.4637
  753MOL0     C99269   7.871   0.167   9.677 -0.2578 -0.3934  0.8364
  753MOL0     C99270   7.734   0.181   9.660 -0.3329  0.7313 -0.5245
  753MOL0     C99271   7.663   0.297   9.678  0.1907 -0.6100  0.6357
  753MOL0     O99272   7.530   0.285   9.668  0.5485  0.2117 -0.4969
  753MOL0     C99273   7.451   0.381   9.729 -0.3735 -0.3759  0.4190
  753MOL0     C99274   7.306   0.342   9.708 -0.2910 -1.3858 -0.2389
  753MOL0     C99275   7.240   0.261   9.816  0.0048  0.2915  0.0062
  753MOL0     C99276   7.088   0.260   9.803  0.4353  0.1905  0.5206
  753MOL0     C99277   7.056   0.139   9.718  0.4174 -0.1295 -0.7728
  753MOL0     C99278   6.904   0.131   9.711  0.1226  0.4823  0.8443
  753MOL0     C99279   6.834   0.245   9.626 -0.4507 -0.1359  0.4064
  753MOL0     C99280   6.727   0.321   9.713 -0.3190 -0.0578  0.8498
  753MOL0     N99281   6.596   0.254   9.712 -0.5125 -0.1203 -0.6341
  753MOL0     C99282   6.512   0.239   9.824 -0.7864  0.3587  0.2179
  753MOL0     C99283   6.397   0.204   9.759  0.3176 -0.6882  0.2696
  753MOL0     C99284   6.267   0.203   9.830 -0.0627  0.3034  0.1947
  753MOL0     C99285   6.240   0.074   9.909 -0.1825 -0.4598 -0.3506
  753MOL0     C99286   6.113   0.082  10.001 -0.0496 -0.0171 -0.0423
  753MOL0     C99287   6.094  -0.043  10.086  0.1658  0.3078 -0.1463
  753MOL0     O99288   5.982  -0.026  10.177  0.0678  0.1012 -0.4522
  753MOL0     C99289   5.860  -0.067  10.136  0.2579  0.4423 -0.2237
  753MOL0     C99290   5.759  -0.044  10.232  0.3389  0.7036 -0.3391
  753MOL0     C99291   5.627  -0.090  10.205 -0.1420  0.1703 -0.0843
  753MOL0     C99292   5.602  -0.166  10.090  0.3777 -0.9026 -0.6518
  753MOL0     C99293   5.469  -0.225  10.066  0.0236  0.5370 -0.9505
  753MOL0     O99294   5.362  -0.171  10.112  0.6799 -0.3208  0.2110
  753MOL0     C99295   5.232  -0.208  10.082  0.4557 -0.0406 -0.7602
  753MOL0     C99296   5.137  -0.110  10.075  0.3233  0.6340 -0.2196
  753MOL0     C99297   5.000  -0.143  10.041  0.1850 -0.5142 -0.4620
  753MOL0     C99298   4.960  -0.273  10.020 -0.7462  0.3317  0.7004
  753MOL0     O99299   4.839  -0.324   9.987  0.0136 -0.3738  0.8034
  753MOL0     C99300   4.720  -0.246   9.992 -0.9538  1.5051 -0.0779
  753MOL0     C99301   4.664  -0.251  10.136 -0.6717  0.1267 -0.0280
  753MOL0     C99302   4.517  -0.219  10.141 -0.0585  0.0688  0.1340
  753MOL0     C99303   4.430  -0.345  10.107 -0.1524 -0.1245 -0.1461
  753MOL0     C99304   4.278  -0.301  10.106 -1.2785 -0.1509  0.2460
  753MOL0     C99305   4.195  -0.410  10.038  1.2100 -0.8005  0.1850
  753MOL0     C99306   4.049  -0.353  10.024 -0.0122  0.4932 -0.0746
  753MOL0     C99307   3.952  -0.471   9.988 -0.4986  0.3794  0.7730
  753MOL0    Cl99308   3.796  -0.390   9.974  0.6447  0.3121  0.2128
  753MOL0     C99309   5.057  -0.368  10.032  0.1671 -1.0386 -0.8713
  753MOL0     C99310   5.188  -0.339  10.056 -0.6228 -1.1984 -0.2061
  753MOL0     O99311   5.474  -0.335  10.007 -0.5582  0.4354  0.0639
  753MOL0     C99312   5.701  -0.187   9.994  0.3926 -0.4634  0.6689
  753MOL0     C99313   5.828  -0.131  10.013  0.9539 -0.4691 -0.2759
  753MOL0     N99314   6.412   0.187   9.623 -0.2552  0.5756 -0.5242
  753MOL0     N99315   6.534   0.215   9.598  0.7391 -0.1400 -0.2963
  753MOL0     C99316   7.738   0.414   9.711 -0.4287 -0.5746 -0.0055
  753MOL0     C99317   7.878   0.412   9.726  0.5654  0.0935  0.4911
  753MOL0     C99318   8.280   0.263   9.844  1.0612 -0.8469  0.0069
  753MOL0     C99319   8.345   0.357   9.770  0.3978  0.2938 -0.2446
  753MOL0     C99320   8.478   0.393   9.806  0.6620  0.3830  0.6507
  753MOL0     C99321   8.551   0.324   9.908 -0.1940 -0.1818 -0.3222
  753MOL0     O99322   8.683   0.359   9.947 -0.0045 -0.4377 -0.2837
  753MOL0     C99323   8.740   0.482   9.896  0.2703  0.0793  0.2963
  753MOL0     C99324   8.884   0.497   9.942 -0.1079  0.6415 -0.5563
  753MOL0     C99325   8.936   0.629   9.887  0.9148  0.4720 -0.4652
  753MOL0     C99326   9.088   0.641   9.910 -0.2317 -0.5456  0.4222
  753MOL0     C99327   9.164   0.519   9.873  0.0938 -0.5573  0.0224
  753MOL0     C99328   9.225   0.438   9.816  0.4317  0.4707  0.0630
  753MOL0     C99329   8.486   0.227   9.986  0.2917 -0.5178 -0.3771
  753MOL0     C99330   8.353   0.201   9.956  1.6557  0.2291  0.2223
  753MOL0     H99331   7.921   0.076   9.642  1.2628  0.6283  0.2564
  753MOL0     H99332   7.672   0.095   9.638 -2.1290  2.3138 -2.0291
  753MOL0     H99333   7.460   0.479   9.680  1.3243 -0.2861  0.8366
  753MOL0     H99334   7.484   0.390   9.833  0.5753 -0.1387  0.1113
  753MOL0     H99335   7.302   0.300   9.607  2.4444 -2.6514  0.0839
  753MOL0     H99336   7.255   0.439   9.717  2.8422  0.7341 -2.6547
  753MOL0     H99337   7.258   0.314   9.910  2.8963 -0.5692  0.0205
  753MOL0     H99338   7.264   0.155   9.826 -3.0235 -0.4957 -0.0284
  753MOL0     H99339   7.056   0.242   9.906  0.2576 -3.3910 -0.0330
  753MOL0     H99340   7.050   0.353   9.761  1.7088 -0.1080 -1.4339
  753MOL0     H99341   7.095   0.045   9.757  0.5070  0.1410 -0.1928
  753MOL0     H99342   7.094   0.154   9.617 -0.4657  0.0328 -1.0944
  753MOL0     H99343   6.860   0.121   9.811  1.9265 -1.0548  1.5318
  753MOL0     H99344   6.881   0.039   9.656  0.1464  1.0058 -0.0623
  753MOL0     H99345   6.913   0.313   9.593 -2.3349  1.3280 -1.2591
  753MOL0     H99346   6.790   0.212   9.532 -2.4897  2.9813  0.1495
  753MOL0     H99347   6.704   0.419   9.672 -1.3849  0.5225  2.7194
  753MOL0     H99348   6.763   0.342   9.815  0.4583  0.2533  0.5201
  753MOL0     H99349   6.526   0.259   9.930  3.0775 -1.6118  0.2530
  753MOL0     H99350   6.194   0.208   9.749  1.7280 -1.4249 -1.6326
  753MOL0     H99351   6.263   0.288   9.900  1.0630 -1.5050  2.6131
  753MOL0     H99352   6.327   0.065   9.974 -1.8892  0.3527  2.1606
  753MOL0     H99353   6.233  -0.007   9.835  2.2774  1.6673 -3.2226
  753MOL0     H99354   6.125   0.172  10.062 -1.4410  0.5145 -0.5144
  753MOL0     H99355   6.024   0.108   9.942  1.2796  2.7892 -1.0137
  753MOL0     H99356   6.183  -0.057  10.148  0.9440 -0.1316 -1.3217
  753MOL0     H99357   6.086  -0.140  10.036  4.2467 -1.4602  2.0889
  753MOL0     H99358   5.781   0.012  10.323 -1.3906 -0.1892  0.6727
  753MOL0     H99359   5.546  -0.077  10.275 -1.7129  0.8673 -1.9194
  753MOL0     H99360   5.169  -0.010  10.103 -0.0485  0.2185  1.7890
  753MOL0     H99361   4.919  -0.071  10.047  1.4858  0.9252  1.2241
  753MOL0     H99362   4.652  -0.286   9.916  0.6595 -1.0622 -0.2795
  753MOL0     H99363   4.734  -0.149   9.944  1.2673  0.3017 -2.0807
  753MOL0     H99364   4.719  -0.181  10.199  0.0916 -0.5807  0.1079
  753MOL0     H99365   4.677  -0.354  10.171 -0.3740  1.1560  3.2013
  753MOL0     H99366   4.502  -0.134  10.074 -2.2473 -1.7885 -1.9482
  753MOL0     H99367   4.489  -0.181  10.239 -0.4723 -0.2921  0.1591
  753MOL0     H99368   4.452  -0.384  10.007  0.3202 -0.5365  0.1127
  753MOL0     H99369   4.444  -0.420  10.186 -1.3870  0.0165  0.2295
  753MOL0     H99370   4.283  -0.214  10.040  0.4248 -2.5415 -3.0534
  753MOL0     H99371   4.239  -0.256  10.198 -0.1393  2.4769 -0.4677
  753MOL0     H99372   4.192  -0.498  10.103  0.0745  0.2478  1.6219
  753MOL0     H99373   4.234  -0.445   9.941  1.9220 -0.5413  0.3725
  753MOL0     H99374   4.017  -0.321  10.124 -2.9539 -2.0111 -0.0581
  753MOL0     H99375   4.047  -0.275   9.948  3.2646  0.2865 -0.5043
  753MOL0     H99376   3.954  -0.540  10.073  2.3953 -1.2214 -0.4378
  753MOL0     H99377   3.986  -0.524   9.899 -0.4758  0.4603  0.7336
  753MOL0     H99378   5.037  -0.469   9.999 -1.1529 -0.2188 -2.7184
  753MOL0     H99379   5.254  -0.424  10.073 -1.7145 -1.9126  0.6308
  753MOL0     H99380   5.684  -0.242   9.902 -1.8242 -0.9218  1.2991
  753MOL0     H99381   5.897  -0.134   9.930 -1.1312 -0.4049 -2.1011
  753MOL0     H99382   7.683   0.506   9.731  1.0439  0.2027  0.6256
  753MOL0     H99383   7.925   0.500   9.769  1.6982  0.3917 -1.2536
  753MOL0     H99384   8.287   0.415   9.700  0.2414  1.2623  0.6754
  753MOL0     H99385   8.513   0.481   9.753 -1.1952  0.8549  0.1280
  753MOL0     H99386   8.675   0.567   9.920 -0.1761  0.0022 -0.5590
  753MOL0     H99387   8.751   0.476   9.787  1.2479  0.5820  0.3635
  753MOL0     H99388   8.880   0.510  10.051  0.2449  2.2118 -0.7043
  753MOL0     H99389   8.940   0.405   9.927 -1.1170 -0.1703  0.4172
  753MOL0     H99390   8.890   0.715   9.936  2.7924  1.6866 -0.7437
  753MOL0     H99391   8.919   0.637   9.779  1.0880  1.8949 -0.3979
  753MOL0     H99392   9.122   0.723   9.847 -3.5163  0.6489 -0.0055
  753MOL0     H99393   9.113   0.656  10.016 -1.0185  0.7430  0.4396
  753MOL0     H99394   9.277   0.353   9.776 -1.8782 -1.7203  1.4162
  753MOL0     H99395   8.538   0.178  10.067 -0.3537  0.7210  0.8324
  753MOL0     H99396   8.306   0.124  10.016 -0.2426  0.1398 -1.2752
  754MOL0     O99397  10.417   5.923   8.655  0.0012  0.4417 -0.4509
  754MOL0     C99398  10.452   6.006   8.743  0.2907  0.9672  0.3576
  754MOL0     O99399  10.376   6.106   8.788 -0.1277 -0.2096  0.1609
  754MOL0     C99400  10.269   6.144   8.719  0.0791 -0.6360 -0.3473
  754MOL0     C99401  10.278   6.272   8.661  0.6866  0.2526  0.1844
  754MOL0     C99402  10.161   6.326   8.593 -0.2846 -0.2585  0.1892
  754MOL0     C99403  10.047   6.245   8.591  0.3960 -0.1553 -0.8353
  754MOL0     O99404   9.936   6.302   8.542 -0.0807  0.2303  0.5840
  754MOL0     C99405   9.935   6.328   8.400  0.0710 -0.1734  0.3250
  754MOL0     C99406   9.866   6.457   8.382 -0.1240  0.5073  0.4496
  754MOL0     C99407   9.728   6.435   8.317  0.4744  1.0895 -0.2629
  754MOL0     C99408   9.640   6.339   8.406  0.5460  0.3803 -0.0882
  754MOL0     C99409   9.503   6.325   8.343  0.8382  0.0415  0.4333
  754MOL0     C99410   9.423   6.452   8.309 -0.3828  0.1411  0.0707
  754MOL0     C99411   9.414   6.554   8.427 -0.2459  0.0821  0.5004
  754MOL0     C99412   9.372   6.513   8.566 -0.1229  0.5537  0.2389
  754MOL0     N99413   9.226   6.486   8.556 -0.0542 -0.4839 -0.0098
  754MOL0     C99414   9.122   6.571   8.591  0.5222 -1.2444  0.2307
  754MOL0     C99415   9.009   6.510   8.565 -0.6421  0.4665  0.5554
  754MOL0     C99416   8.872   6.556   8.603 -0.0123  0.8626  0.3342
  754MOL0     C99417   8.791   6.592   8.486 -1.3442 -0.8506  0.3298
  754MOL0     C99418   8.663   6.654   8.521 -0.0926 -0.3024  0.0687
  754MOL0     C99419   8.579   6.705   8.400 -0.3419 -0.9483  0.3504
  754MOL0     O99420   8.461   6.776   8.443 -0.4426 -0.3126 -0.7056
  754MOL0     C99421   8.365   6.808   8.352  1.1838  0.4043  0.2955
  754MOL0     C99422   8.251   6.869   8.399  0.2513  0.1762  0.4538
  754MOL0     C99423   8.146   6.904   8.318 -0.1928 -0.1270 -0.7157
  754MOL0     C99424   8.150   6.882   8.183  0.4669  0.5604 -0.5447
  754MOL0     C99425   8.034   6.926   8.100 -0.0493  0.2899 -0.2371
  754MOL0     O99426   7.926   6.978   8.167 -0.4053  0.9662 -0.0813
  754MOL0     C99427   7.803   7.004   8.108 -0.8561  0.2108 -0.1166
  754MOL0     C99428   7.754   6.938   7.989 -0.0425 -0.7649 -0.9448
  754MOL0     C99429   7.638   6.985   7.925  0.7534  0.0359 -0.2378
  754MOL0     C99430   7.553   7.078   7.982  0.7454 -0.1429  0.1042
  754MOL0     O99431   7.426   7.113   7.937  0.0878  0.4495 -0.5269
  754MOL0     C99432   7.363   7.035   7.832  1.1154  1.0286  0.0885
  754MOL0     C99433   7.386   7.072   7.682  0.2979  0.2631 -0.3783
  754MOL0     C99434   7.332   7.210   7.647 -0.5744  0.0619 -0.7163
  754MOL0     C99435   7.340   7.242   7.499 -0.2604  0.3812  0.0467
  754MOL0     C99436   7.260   7.148   7.408  1.4082 -0.0304 -0.0956
  754MOL0     C99437   7.106   7.123   7.446  0.1150 -0.4334  0.0707
  754MOL0     C99438   7.019   7.253   7.460  0.2379 -0.0591 -0.3941
  754MOL0     C99439   6.879   7.210   7.523 -0.1789  0.2491  0.0623
  754MOL0    Cl99440   6.770   7.088   7.434  0.1588 -0.1400 -0.1090
  754MOL0     C99441   7.600   7.133   8.103 -0.5315 -0.4272 -0.5036
  754MOL0     C99442   7.726   7.105   8.162  0.2584  1.4407 -0.0350
  754MOL0     O99443   8.038   6.902   7.975 -0.1775 -0.5055  0.2591
  754MOL0     C99444   8.263   6.815   8.135 -0.6604 -0.5043  1.3185
  754MOL0     C99445   8.371   6.780   8.217 -0.0572 -0.3029 -0.2080
  754MOL0     N99446   9.037   6.386   8.515 -0.0731 -1.0356  0.9155
  754MOL0     N99447   9.166   6.372   8.510 -0.0308 -0.7352  0.2487
  754MOL0     C99448  10.042   6.125   8.652  0.2225  0.0414  0.5612
  754MOL0     C99449  10.154   6.070   8.718 -0.6886  0.6441 -0.1941
  754MOL0     C99450  10.584   5.995   8.795  0.1610 -0.5532  0.5823
  754MOL0     C99451  10.639   6.097   8.881 -0.3316 -0.6681 -0.0956
  754MOL0     C99452  10.757   6.075   8.944 -0.0404  0.2759  0.3046
  754MOL0     C99453  10.833   5.965   8.921  0.4569 -0.3346 -0.6211
  754MOL0     O99454  10.960   5.942   8.974  0.8947  0.6186  0.3164
  754MOL0     C99455  11.014   6.028   9.079  0.3151  0.4257  0.1636
  754MOL0     C99456  11.132   5.964   9.143 -0.7207  0.8383 -0.4255
  754MOL0     C99457  11.086   5.836   9.239 -0.7628 -0.9310  0.2748
  754MOL0     C99458  11.200   5.809   9.344  0.2182 -1.0614  0.1323
  754MOL0     C99459  11.320   5.763   9.277 -0.1759 -0.4047  0.0113
  754MOL0     C99460  11.430   5.732   9.237 -0.3399 -0.4022 -0.0364
  754MOL0     C99461  10.786   5.869   8.839  0.8822 -1.1356  0.5009
  754MOL0     C99462  10.670   5.888   8.765  0.2796  0.0553 -0.1931
  754MOL0     H99463  10.372   6.324   8.646  0.9479  0.1896  1.4718
  754MOL0     H99464  10.166   6.426   8.550 -0.6101  0.1571  1.0868
  754MOL0     H99465   9.880   6.251   8.345 -1.6084  1.3232 -0.2036
  754MOL0     H99466  10.032   6.340   8.352  0.5826 -2.6416  0.6563
  754MOL0     H99467   9.933   6.514   8.318 -0.7207 -1.1617 -1.7823
  754MOL0     H99468   9.858   6.502   8.482 -0.0898 -0.2490  0.7979
  754MOL0     H99469   9.740   6.386   8.220 -1.4139  1.1696 -0.5773
  754MOL0     H99470   9.674   6.530   8.305 -3.2832 -0.8179  0.0629
  754MOL0     H99471   9.684   6.239   8.414  0.2371  0.3602  1.8138
  754MOL0     H99472   9.633   6.373   8.510  1.7024 -1.7998  0.7626
  754MOL0     H99473   9.435   6.277   8.415  1.1269 -1.1928 -0.0928
  754MOL0     H99474   9.512   6.269   8.250  0.4680 -1.4655  1.2691
  754MOL0     H99475   9.325   6.424   8.269 -0.1837  1.6754 -1.5869
  754MOL0     H99476   9.477   6.506   8.231 -0.5529  1.6812  0.9785
  754MOL0     H99477   9.511   6.599   8.448 -0.0037 -0.5926  0.8615
  754MOL0     H99478   9.367   6.642   8.380  1.6182  0.0125 -1.6732
  754MOL0     H99479   9.385   6.601   8.630  1.3381 -0.1989  1.0211
  754MOL0     H99480   9.431   6.429   8.604 -0.6601 -0.8266 -1.8247
  754MOL0     H99481   9.130   6.671   8.631 -0.5179 -0.7591 -0.7407
  754MOL0     H99482   8.893   6.641   8.670 -0.4375 -1.3020  3.4635
  754MOL0     H99483   8.824   6.473   8.656 -1.2515 -0.9751 -3.3305
  754MOL0     H99484   8.774   6.515   8.410 -1.8884  1.4071 -2.0065
  754MOL0     H99485   8.841   6.663   8.419 -2.5078 -1.1455 -0.9051
  754MOL0     H99486   8.602   6.577   8.568  2.1065 -1.9494  0.4025
  754MOL0     H99487   8.670   6.735   8.594 -0.9265 -1.7683  1.8680
  754MOL0     H99488   8.556   6.614   8.343  1.3762 -1.1684 -0.0522
  754MOL0     H99489   8.635   6.765   8.327 -2.1592 -0.9965 -1.1884
  754MOL0     H99490   8.246   6.896   8.504 -0.5838 -1.4400  0.8569
  754MOL0     H99491   8.063   6.952   8.368  1.7884 -0.0182  2.8111
  754MOL0     H99492   7.817   6.862   7.944  1.3763  0.6834 -1.5068
  754MOL0     H99493   7.611   6.938   7.831 -0.4788  1.1159 -0.4473
  754MOL0     H99494   7.257   7.053   7.854  0.9731 -0.1038  0.3755
  754MOL0     H99495   7.376   6.928   7.853 -2.5075  0.3048 -0.7411
  754MOL0     H99496   7.322   7.003   7.626 -1.1644  1.0510  0.2656
  754MOL0     H99497   7.494   7.067   7.667  0.1006 -1.0151 -1.6561
  754MOL0     H99498   7.388   7.281   7.707 -3.1251  2.5614 -1.1149
  754MOL0     H99499   7.228   7.214   7.680 -1.0695  0.5621 -2.2694
  754MOL0     H99500   7.310   7.347   7.492  0.8656  0.6118 -2.3881
  754MOL0     H99501   7.443   7.232   7.465 -0.4713  1.4523 -0.9702
  754MOL0     H99502   7.299   7.046   7.414  2.9343  0.3815 -1.9238
  754MOL0     H99503   7.265   7.171   7.301 -0.8812  0.2276 -0.1840
  754MOL0     H99504   7.088   7.066   7.538  0.7159 -1.6429 -0.5261
  754MOL0     H99505   7.054   7.067   7.367 -2.4200  1.2424  0.4745
  754MOL0     H99506   7.066   7.331   7.521  2.5548 -1.6186 -0.0955
  754MOL0     H99507   7.008   7.286   7.356 -2.5155 -3.0036 -1.2100
  754MOL0     H99508   6.826   7.306   7.530 -1.1660 -0.3531  1.2731
  754MOL0     H99509   6.898   7.192   7.629 -0.9761  3.3995  0.8539
  754MOL0     H99510   7.537   7.205   8.153 -0.5792  0.2726 -1.5442
  754MOL0     H99511   7.777   7.143   8.250  3.5851 -3.6225  0.5937
  754MOL0     H99512   8.269   6.802   8.027 -2.9202  1.4188  0.8894
  754MOL0     H99513   8.464   6.749   8.169 -0.9883 -3.3971 -0.2694
  754MOL0     H99514   9.943   6.081   8.658  0.1517  0.1628  0.2961
  754MOL0     H99515  10.136   5.980   8.776 -0.3880  1.4567  1.1908
  754MOL0     H99516  10.582   6.184   8.910  0.8433  0.3514 -0.7080
  754MOL0     H99517  10.794   6.161   8.999 -0.4055  1.0317 -0.5783
  754MOL0     H99518  10.938   6.050   9.155  0.5458  3.4328 -0.3337
  754MOL0     H99519  11.048   6.124   9.038 -1.8976  0.2264 -2.3893
  754MOL0     H99520  11.191   5.919   9.064 -0.8628 -1.5961  0.7643
  754MOL0     H99521  11.193   6.035   9.201 -0.2085  0.4464 -0.4812
  754MOL0     H99522  11.064   5.744   9.184 -0.9904 -0.6663 -0.0774
  754MOL0     H99523  10.999   5.862   9.302  0.3009  3.2509  0.2744
  754MOL0     H99524  11.224   5.894   9.408  2.2227 -1.5436  0.0860
  754MOL0     H99525  11.165   5.734   9.415  1.1823 -1.3158  0.3473
  754MOL0     H99526  11.529   5.713   9.201 -0.8555 -1.5020 -0.9237
  754MOL0     H99527  10.837   5.777   8.813 -0.3561 -1.8987  0.6938
  754MOL0     H99528  10.636   5.813   8.695 -1.2528 -0.5343  1.1214
  755MOL0     O99529  11.204   5.497   8.271  0.0189  0.2225  0.5796
  755MOL0     C99530  11.192   5.410   8.188 -0.1812  0.5389 -0.0405
  755MOL0     O99531  11.297   5.334   8.142  0.5882 -0.3824 -0.6079
  755MOL0     C99532  11.427   5.355   8.198  0.7747 -0.2464 -0.6282
  755MOL0     C99533  11.477   5.251   8.278 -0.2124 -1.0823 -0.6658
  755MOL0     C99534  11.594   5.274   8.356  0.9088  0.1284  1.3048
  755MOL0     C99535  11.666   5.394   8.337  0.5643  0.2100  0.1144
  755MOL0     O99536  11.772   5.435   8.407  0.4020  0.7154 -0.3416
  755MOL0     C99537  11.808   5.384   8.540  0.0547 -1.3667  0.7810
  755MOL0     C99538  11.911   5.477   8.595 -0.4630  1.1281 -0.8505
  755MOL0     C99539  11.941   5.447   8.745  0.1924  0.4681 -0.3491
  755MOL0     C99540  12.027   5.325   8.776  0.2278  0.1226 -0.2730
  755MOL0     C99541  12.006   5.281   8.923 -0.6664  0.4459  0.2780
  755MOL0     C99542  12.127   5.208   8.980 -0.6705 -0.1223  0.9831
  755MOL0     C99543  12.102   5.175   9.125  0.0750  0.0756  0.2347
  755MOL0     C99544  12.221   5.100   9.184 -0.0204  0.0371 -0.7793
  755MOL0     N99545  12.196   5.016   9.300 -0.5242  0.3109  0.0210
  755MOL0     C99546  12.136   4.901   9.300 -0.4433  0.6348  0.1188
  755MOL0     C99547  12.109   4.865   9.428  0.5270 -0.2132 -0.8824
  755MOL0     C99548  12.034   4.736   9.469 -0.1189  1.2270 -0.7326
  755MOL0     C99549  11.879   4.734   9.443  0.1275 -0.8542 -0.1012
  755MOL0     C99550  11.814   4.804   9.560  0.4694 -0.5453  1.2616
  755MOL0     C99551  11.677   4.851   9.533  0.4907 -1.0620  0.1236
  755MOL0     O99552  11.604   4.749   9.463  0.1158  0.5634  0.4850
  755MOL0     C99553  11.485   4.776   9.409  0.0496 -0.4926 -0.9991
  755MOL0     C99554  11.426   4.904   9.403 -0.7844 -0.4097 -0.1346
  755MOL0     C99555  11.304   4.926   9.338 -0.2295 -0.1777  0.3242
  755MOL0     C99556  11.222   4.817   9.285 -0.5783 -0.4633 -0.8941
  755MOL0     C99557  11.087   4.833   9.241  0.3185  0.2029  0.0960
  755MOL0     O99558  11.030   4.949   9.271  0.0562  0.4510  0.8361
  755MOL0     C99559  10.894   4.970   9.253 -0.8142 -0.3321 -0.2318
  755MOL0     C99560  10.797   4.872   9.275  1.4842  0.2518  0.3377
  755MOL0     C99561  10.662   4.894   9.243 -0.3405 -0.0384  0.3336
  755MOL0     C99562  10.613   5.007   9.179 -0.0348 -0.3410 -0.8819
  755MOL0     O99563  10.481   5.027   9.160 -0.7648  0.1565 -0.6945
  755MOL0     C99564  10.447   5.044   9.022 -0.0638 -0.0420  0.1569
  755MOL0     C99565  10.301   5.054   9.006  0.9403  0.7578 -0.0394
  755MOL0     C99566  10.245   5.182   9.065  0.7465  0.3155 -0.2945
  755MOL0     C99567  10.104   5.203   9.009 -0.3874 -0.0292  0.8177
  755MOL0     C99568  10.006   5.097   9.051 -0.6742  0.1200 -0.1093
  755MOL0     C99569   9.867   5.121   8.995  0.4773  0.2448  0.6282
  755MOL0     C99570   9.785   4.998   9.034  0.3740 -0.2646  0.3706
  755MOL0     C99571   9.636   5.047   9.081  0.4693  0.0789 -1.0655
  755MOL0    Cl99572   9.541   5.129   8.954  0.0730 -0.3753 -0.4432
  755MOL0     C99573  10.709   5.110   9.155  0.8525 -0.4418 -1.0440
  755MOL0     C99574  10.845   5.088   9.193  0.5679 -0.4932  0.4123
  755MOL0     O99575  11.035   4.746   9.177  0.1693  0.0316  0.1516
  755MOL0     C99576  11.288   4.690   9.275 -0.5550  0.2476  0.9556
  755MOL0     C99577  11.415   4.681   9.335  0.7126  0.4722 -0.1710
  755MOL0     N99578  12.149   4.971   9.508  0.2870 -0.1592  0.5713
  755MOL0     N99579  12.203   5.058   9.427 -0.2130 -0.4593 -0.6359
  755MOL0     C99580  11.632   5.478   8.232  0.2995  0.0131 -0.2399
  755MOL0     C99581  11.510   5.456   8.167 -0.7276 -0.0862  0.0460
  755MOL0     C99582  11.067   5.404   8.112 -0.3066  0.0005  0.2748
  755MOL0     C99583  10.958   5.479   8.143  0.4340  0.1264  0.0323
  755MOL0     C99584  10.845   5.490   8.062 -0.7067  0.7220 -0.6624
  755MOL0     C99585  10.824   5.414   7.951  0.6740 -0.7619 -0.6236
  755MOL0     O99586  10.705   5.413   7.881 -0.2895  0.8003 -0.7273
  755MOL0     C99587  10.601   5.503   7.925 -0.0523  1.1271  0.4825
  755MOL0     C99588  10.483   5.487   7.831 -0.5568  1.2902 -0.4779
  755MOL0     C99589  10.536   5.517   7.684  0.4882  0.6798 -0.2270
  755MOL0     C99590  10.530   5.668   7.651 -0.5730  0.9467 -0.1854
  755MOL0     C99591  10.580   5.703   7.514 -1.0871  0.2483 -0.8703
  755MOL0     C99592  10.617   5.726   7.400 -0.0989 -0.2057 -0.2609
  755MOL0     C99593  10.935   5.342   7.909  0.2094  0.1826  0.3979
  755MOL0     C99594  11.059   5.335   7.986 -0.3337 -0.2630 -0.2857
  755MOL0     H99595  11.425   5.157   8.297 -1.0815 -0.6990 -1.0945
  755MOL0     H99596  11.616   5.207   8.439  2.3741  0.1095  0.9285
  755MOL0     H99597  11.850   5.284   8.527  3.9704 -0.2581  3.1244
  755MOL0     H99598  11.721   5.384   8.606 -0.8942  2.2042 -0.2321
  755MOL0     H99599  11.880   5.581   8.594 -1.8803  0.8898  2.8947
  755MOL0     H99600  12.010   5.483   8.547  0.3810  1.3055  0.8309
  755MOL0     H99601  11.842   5.438   8.791  0.1441 -0.2378 -0.5918
  755MOL0     H99602  11.993   5.533   8.788  3.2223 -1.0709 -0.6906
  755MOL0     H99603  11.983   5.245   8.716 -1.1287 -0.1734  1.0608
  755MOL0     H99604  12.132   5.346   8.755  0.0052 -1.6527 -3.8493
  755MOL0     H99605  11.918   5.216   8.919 -0.4752  0.1292  1.0202
  755MOL0     H99606  11.982   5.369   8.983 -0.4962  2.5288 -2.5022
  755MOL0     H99607  12.205   5.284   8.974 -0.4259 -0.4653 -0.4888
  755MOL0     H99608  12.152   5.119   8.922 -1.7306  1.4675 -2.1772
  755MOL0     H99609  12.094   5.265   9.187  0.4537 -0.1131  0.5651
  755MOL0     H99610  12.009   5.117   9.130 -1.9313  2.8805 -1.5232
  755MOL0     H99611  12.286   5.182   9.215  0.1220 -0.5044  0.4371
  755MOL0     H99612  12.268   5.045   9.102 -1.7687 -0.8584 -1.2389
  755MOL0     H99613  12.107   4.831   9.222 -0.6107 -1.3428  1.8628
  755MOL0     H99614  12.052   4.703   9.572 -1.3274 -0.2189 -0.9564
  755MOL0     H99615  12.076   4.652   9.412 -5.3300 -0.5257 -2.5475
  755MOL0     H99616  11.842   4.632   9.436 -1.1809 -0.5006  1.2793
  755MOL0     H99617  11.841   4.775   9.349  1.0841 -0.3814 -0.2972
  755MOL0     H99618  11.798   4.732   9.641 -3.9563 -1.9780 -0.5945
  755MOL0     H99619  11.872   4.893   9.586 -1.6192  0.9289  1.0858
  755MOL0     H99620  11.690   4.934   9.464  0.2542  2.0590  3.5332
  755MOL0     H99621  11.624   4.894   9.619 -1.6531  0.0937 -1.6599
  755MOL0     H99622  11.456   5.000   9.444 -0.8147 -0.7022  0.5929
  755MOL0     H99623  11.264   5.026   9.327 -0.5073  0.3543  4.4914
  755MOL0     H99624  10.810   4.766   9.291  0.7216 -0.3674 -2.5762
  755MOL0     H99625  10.595   4.811   9.263  0.7633 -0.9831  0.2164
  755MOL0     H99626  10.495   4.962   8.968  3.6111  0.1106  2.8097
  755MOL0     H99627  10.493   5.138   8.993  1.7347 -0.5811  1.0971
  755MOL0     H99628  10.251   4.970   9.055 -0.9141  0.1032 -2.7963
  755MOL0     H99629  10.275   5.057   8.899 -1.5661  1.5448  0.5219
  755MOL0     H99630  10.309   5.269   9.050 -0.8936  1.1029 -3.5369
  755MOL0     H99631  10.244   5.177   9.174  1.3775  4.2171  0.0332
  755MOL0     H99632  10.073   5.302   9.044  1.5996 -0.0405  2.9230
  755MOL0     H99633  10.093   5.209   8.901 -0.4211 -0.2117  0.8103
  755MOL0     H99634   9.995   5.101   9.160  1.8695  1.5980  0.1883
  755MOL0     H99635  10.041   4.997   9.026 -1.3113 -1.0651  3.2373
  755MOL0     H99636   9.866   5.130   8.886  0.7665 -0.6331  0.5460
  755MOL0     H99637   9.817   5.211   9.032 -0.5676 -0.3749  0.7750
  755MOL0     H99638   9.772   4.947   8.939  0.9795 -1.1082  0.7284
  755MOL0     H99639   9.844   4.939   9.104  0.2330 -1.8123 -0.7750
  755MOL0     H99640   9.631   5.097   9.178  0.1618 -1.6494 -0.1367
  755MOL0     H99641   9.576   4.956   9.095  0.5533  0.0202 -1.0918
  755MOL0     H99642  10.678   5.200   9.102 -0.6480  0.6426  1.4564
  755MOL0     H99643  10.920   5.160   9.162 -0.7246  1.5072  1.7262
  755MOL0     H99644  11.244   4.599   9.234 -0.6778  0.6253  0.2265
  755MOL0     H99645  11.461   4.584   9.322  1.2883  0.8789 -1.3296
  755MOL0     H99646  11.695   5.564   8.210 -0.3545  0.5336 -0.0967
  755MOL0     H99647  11.481   5.528   8.091  1.9898  2.2274  1.0028
  755MOL0     H99648  10.960   5.543   8.230 -0.9452  4.0564 -2.5594
  755MOL0     H99649  10.762   5.543   8.108 -2.4499 -2.4471  0.1009
  755MOL0     H99650  10.632   5.607   7.936  0.8653  1.3786 -3.1743
  755MOL0     H99651  10.593   5.480   8.031 -0.1593  4.9481  1.4344
  755MOL0     H99652  10.452   5.382   7.833  1.8378  0.3342 -3.8342
  755MOL0     H99653  10.399   5.555   7.848 -3.2516 -1.3129 -2.1502
  755MOL0     H99654  10.478   5.458   7.613 -1.8031  1.4148  0.9007
  755MOL0     H99655  10.638   5.479   7.676 -0.0308 -0.9234  0.3869
  755MOL0     H99656  10.428   5.707   7.641 -1.1495 -1.0025 -3.0178
  755MOL0     H99657  10.587   5.726   7.724  0.9498 -1.4466  0.6586
  755MOL0     H99658  10.680   5.753   7.317  0.9356 -0.7469  0.3249
  755MOL0     H99659  10.926   5.279   7.821  1.0831  1.6527 -0.7784
  755MOL0     H99660  11.147   5.289   7.942 -1.2711  0.6507 -3.3746
  756MOL0     O99661   2.303   1.476   6.078 -0.2564 -0.1716 -0.4010
  756MOL0     C99662   2.335   1.538   5.978  0.5044  0.1505 -0.7139
  756MOL0     O99663   2.255   1.598   5.898 -0.2358  0.5356  0.0916
  756MOL0     C99664   2.126   1.611   5.924  0.2209 -0.3732 -0.2306
  756MOL0     C99665   2.059   1.737   5.935 -0.0598  0.7884  0.1612
  756MOL0     C99666   1.922   1.744   5.948  0.1741  0.4729  0.8420
  756MOL0     C99667   1.840   1.627   5.934  0.5596 -0.1105 -0.0678
  756MOL0     O99668   1.705   1.645   5.945  0.3076  0.6669 -0.2725
  756MOL0     C99669   1.636   1.759   5.889  0.4217  0.0653 -0.0954
  756MOL0     C99670   1.528   1.721   5.786 -0.6671 -0.2552 -0.8498
  756MOL0     C99671   1.401   1.665   5.853 -0.9133  0.0080  0.0733
  756MOL0     C99672   1.306   1.585   5.759  0.1472 -0.5245 -0.0547
  756MOL0     C99673   1.191   1.516   5.839  0.1703  0.2093 -0.0647
  756MOL0     C99674   1.083   1.618   5.882 -0.0194 -0.0619 -0.1862
  756MOL0     C99675   0.965   1.549   5.947 -1.0194 -0.2383  0.4015
  756MOL0     C99676   0.873   1.636   6.026  0.2113 -0.4313 -0.7580
  756MOL0     N99677   0.758   1.558   6.080  0.5722  0.7331  0.0679
  756MOL0     C99678   0.657   1.528   5.998  0.0275  0.4048 -0.9181
  756MOL0     C99679   0.564   1.489   6.086 -0.0334  0.2042 -0.6119
  756MOL0     C99680   0.423   1.448   6.067 -0.2336 -0.4504  0.4443
  756MOL0     C99681   0.327   1.507   6.161 -0.3050  0.0157  0.3492
  756MOL0     C99682   0.182   1.468   6.116  0.0802  0.3153 -0.2385
  756MOL0     C99683   0.071   1.560   6.171  0.1157  0.0035 -0.7058
  756MOL0     O99684  -0.061   1.523   6.118  0.1689 -0.4165  0.3159
  756MOL0     C99685  -0.170   1.584   6.164 -0.0357  1.1902  0.7100
  756MOL0     C99686  -0.255   1.518   6.246  0.3205 -1.3096 -0.3757
  756MOL0     C99687  -0.368   1.582   6.286 -0.5756  1.0272 -0.4546
  756MOL0     C99688  -0.405   1.706   6.241  0.4129  0.0427 -0.1435
  756MOL0     C99689  -0.530   1.767   6.298 -1.2069 -0.4143  0.4305
  756MOL0     O99690  -0.549   1.899   6.264 -0.8554 -0.2766  0.1304
  756MOL0     C99691  -0.671   1.951   6.293  0.0119 -0.1632 -0.1332
  756MOL0     C99692  -0.788   1.930   6.222 -0.1977  0.0342 -0.2187
  756MOL0     C99693  -0.905   2.005   6.258  0.3983 -0.5645  0.3109
  756MOL0     C99694  -0.910   2.089   6.371  0.3738 -0.3757  0.4602
  756MOL0     O99695  -1.020   2.149   6.414 -0.1963  0.7727  0.0567
  756MOL0     C99696  -1.022   2.214   6.540  0.5518  0.2929 -0.1974
  756MOL0     C99697  -1.172   2.261   6.572  0.7048  0.1288  0.2711
  756MOL0     C99698  -1.173   2.307   6.718  1.2083  0.2592  0.0338
  756MOL0     C99699  -1.293   2.387   6.763  0.4021  0.4517 -0.7475
  756MOL0     C99700  -1.294   2.398   6.918  0.8392  0.9145  0.4399
  756MOL0     C99701  -1.435   2.444   6.974 -0.7565  0.3182 -0.7288
  756MOL0     C99702  -1.490   2.585   6.923 -0.6792  0.5260  0.7851
  756MOL0     C99703  -1.593   2.651   7.014 -0.3151 -0.9077 -0.3061
  756MOL0    Cl99704  -1.658   2.801   6.939  0.3114  0.2526 -0.0937
  756MOL0     C99705  -0.786   2.100   6.434 -0.2740  0.0863 -0.0817
  756MOL0     C99706  -0.671   2.035   6.394  0.6798 -0.2946  0.6278
  756MOL0     O99707  -0.606   1.698   6.368 -0.5842  0.1272 -0.2057
  756MOL0     C99708  -0.314   1.776   6.156 -0.4735 -0.3572 -0.5812
  756MOL0     C99709  -0.192   1.711   6.124  0.4417  0.5740  0.7497
  756MOL0     N99710   0.609   1.495   6.215 -0.2150  0.7704 -0.0404
  756MOL0     N99711   0.722   1.545   6.208 -0.0094  0.4706  0.3369
  756MOL0     C99712   1.900   1.509   5.927 -0.3832  0.2913  0.6901
  756MOL0     C99713   2.042   1.498   5.921 -0.1949  0.1703 -0.1695
  756MOL0     C99714   2.482   1.556   5.954  0.1899 -0.2247 -0.0370
  756MOL0     C99715   2.530   1.619   5.833 -0.2941 -0.5734 -0.1765
  756MOL0     C99716   2.665   1.646   5.819  0.6993  0.1519  1.1704
  756MOL0     C99717   2.766   1.602   5.913 -0.1128 -0.9955 -0.5913
  756MOL0     O99718   2.896   1.637   5.894 -0.3029  0.3799 -0.5604
  756MOL0     C99719   3.003   1.585   5.971 -0.1714  0.5249 -0.3593
  756MOL0     C99720   3.143   1.628   5.922 -0.0736  0.4119 -0.2654
  756MOL0     C99721   3.254   1.581   6.019 -0.1947  0.7988 -1.0072
  756MOL0     C99722   3.387   1.633   5.970 -0.1502  0.2700  0.0082
  756MOL0     C99723   3.479   1.614   6.087  0.2239 -0.5414 -0.8564
  756MOL0     C99724   3.558   1.604   6.180  1.0199  0.1890  0.1075
  756MOL0     C99725   2.713   1.545   6.035 -0.0101  0.8262  0.2131
  756MOL0     C99726   2.577   1.517   6.052 -0.1121  0.3644 -0.3686
  756MOL0     H99727   2.124   1.824   5.940 -1.8917  2.1810  1.1603
  756MOL0     H99728   1.881   1.843   5.962  1.1312  1.9638 -4.5195
  756MOL0     H99729   1.703   1.830   5.839 -1.9753  1.3252 -1.6758
  756MOL0     H99730   1.591   1.819   5.968 -0.9355  1.6465 -1.9761
  756MOL0     H99731   1.574   1.638   5.732  1.8200  0.3432  0.2245
  756MOL0     H99732   1.509   1.812   5.728  2.7859  2.1244  1.3853
  756MOL0     H99733   1.339   1.747   5.892 -0.0480 -0.0442  1.6313
  756MOL0     H99734   1.422   1.601   5.940 -3.5983 -2.4145 -0.8932
  756MOL0     H99735   1.270   1.644   5.674 -3.6503 -0.3602  1.4881
  756MOL0     H99736   1.362   1.498   5.722  2.4327 -0.8176  3.5715
  756MOL0     H99737   1.234   1.468   5.928 -1.1800 -1.1367 -0.0994
  756MOL0     H99738   1.138   1.449   5.771  0.9650  0.3163 -0.8018
  756MOL0     H99739   1.043   1.676   5.799 -0.7465 -0.1898  0.0698
  756MOL0     H99740   1.126   1.682   5.960  2.2864 -2.6892  0.8833
  756MOL0     H99741   0.903   1.495   5.874  0.9462 -0.5605 -1.1060
  756MOL0     H99742   1.012   1.481   6.018  1.7395 -0.5511 -1.5622
  756MOL0     H99743   0.844   1.723   5.967 -0.6764  0.9430  1.5693
  756MOL0     H99744   0.922   1.687   6.110 -2.4386  3.8217 -1.5221
  756MOL0     H99745   0.650   1.528   5.889 -2.0076 -0.5819 -0.8231
  756MOL0     H99746   0.419   1.341   6.086  2.6037 -0.8598 -0.7256
  756MOL0     H99747   0.389   1.462   5.964 -0.9364 -2.8344  0.3038
  756MOL0     H99748   0.352   1.612   6.175 -0.5433  0.1655 -0.3330
  756MOL0     H99749   0.339   1.458   6.258  1.0039 -1.2414 -0.4107
  756MOL0     H99750   0.180   1.467   6.007  0.2562 -1.9942 -0.2687
  756MOL0     H99751   0.171   1.364   6.150  2.4679  0.6435  1.8336
  756MOL0     H99752   0.088   1.663   6.138 -0.6088 -0.0791 -1.3659
  756MOL0     H99753   0.071   1.545   6.280 -0.1246 -0.8726 -0.8169
  756MOL0     H99754  -0.235   1.420   6.287 -1.7154 -0.9832  1.5717
  756MOL0     H99755  -0.432   1.528   6.355  1.4515 -1.6810 -0.5460
  756MOL0     H99756  -0.785   1.860   6.138 -2.3188  1.7054 -1.8059
  756MOL0     H99757  -0.996   1.996   6.200 -0.9844  1.7285  1.9469
  756MOL0     H99758  -0.951   2.297   6.547  1.9937 -0.9687  1.1915
  756MOL0     H99759  -0.982   2.144   6.615  4.2428  1.4071 -0.9413
  756MOL0     H99760  -1.243   2.178   6.567  4.8120 -3.9300  2.0986
  756MOL0     H99761  -1.195   2.350   6.512  4.1517  1.0708  0.1047
  756MOL0     H99762  -1.086   2.369   6.743  1.9636 -0.5077 -0.6575
  756MOL0     H99763  -1.149   2.218   6.776 -0.7741  0.5588  1.3972
  756MOL0     H99764  -1.299   2.488   6.721 -0.3553  0.4326 -0.7063
  756MOL0     H99765  -1.388   2.342   6.732 -0.8427  2.8821 -0.7392
  756MOL0     H99766  -1.216   2.462   6.960  2.7556 -3.0453  3.6553
  756MOL0     H99767  -1.276   2.294   6.946  0.0811  0.8396  0.6741
  756MOL0     H99768  -1.430   2.446   7.083 -4.1758 -1.0055 -0.4277
  756MOL0     H99769  -1.504   2.362   6.949  0.6260 -0.7469 -1.2133
  756MOL0     H99770  -1.405   2.652   6.906  1.2903 -1.8440  0.6737
  756MOL0     H99771  -1.537   2.567   6.825  2.1508  1.6336 -0.8932
  756MOL0     H99772  -1.533   2.675   7.102 -0.8216  0.5568 -0.3362
  756MOL0     H99773  -1.662   2.569   7.034 -2.1710  0.3705 -1.2044
  756MOL0     H99774  -0.775   2.156   6.527 -1.4233 -0.6664  0.5362
  756MOL0     H99775  -0.578   2.042   6.448  1.1191 -0.5370 -0.0829
  756MOL0     H99776  -0.347   1.877   6.133 -0.7685 -0.1458  0.7328
  756MOL0     H99777  -0.118   1.763   6.064  0.2816 -1.1954 -1.0595
  756MOL0     H99778   1.851   1.413   5.927  0.2658 -0.0698 -1.0747
  756MOL0     H99779   2.088   1.401   5.908  0.0324  0.3158 -0.4352
  756MOL0     H99780   2.466   1.651   5.751 -2.3967  0.8408  1.8764
  756MOL0     H99781   2.707   1.697   5.733  0.7625  0.1644  1.2082
  756MOL0     H99782   2.993   1.476   5.978  0.6205  0.4021 -1.0411
  756MOL0     H99783   2.999   1.616   6.076  1.9545 -0.1152 -0.0389
  756MOL0     H99784   3.159   1.579   5.826 -3.2905 -1.5427  0.0755
  756MOL0     H99785   3.145   1.738   5.921 -1.5928  0.4601 -0.4195
  756MOL0     H99786   3.247   1.472   6.020 -1.4201  0.8528  0.1345
  756MOL0     H99787   3.217   1.608   6.118 -0.4964 -0.4804 -0.7426
  756MOL0     H99788   3.417   1.571   5.885 -1.9749  0.1163 -0.5533
  756MOL0     H99789   3.394   1.739   5.943 -0.7233  0.7646  1.6768
  756MOL0     H99790   3.631   1.597   6.259 -0.8928  1.4537  2.1119
  756MOL0     H99791   2.781   1.505   6.110  0.3662 -0.6962 -0.9136
  756MOL0     H99792   2.536   1.456   6.132 -1.7078  0.3666 -1.1630
  757MOL0     O99793   0.631   0.877   2.603 -0.0490 -0.3951  0.5244
  757MOL0     C99794   0.682   0.762   2.632 -0.0092 -0.4110  0.5668
  757MOL0     O99795   0.616   0.637   2.621  0.2888 -0.3313 -0.0326
  757MOL0     C99796   0.483   0.654   2.578 -0.9228 -0.0740 -0.0140
  757MOL0     C99797   0.453   0.651   2.440  0.7009 -0.1873 -0.1767
  757MOL0     C99798   0.324   0.639   2.391  0.1348  0.3906 -0.3615
  757MOL0     C99799   0.215   0.632   2.475 -0.0899 -0.0406 -0.0095
  757MOL0     O99800   0.082   0.614   2.444 -0.0100  0.1203 -0.1930
  757MOL0     C99801   0.029   0.650   2.311 -0.1185  0.6944  0.2407
  757MOL0     C99802  -0.051   0.781   2.329 -0.2285  0.1305  0.2482
  757MOL0     C99803   0.038   0.899   2.296 -0.7266  0.7853 -0.0671
  757MOL0     C99804  -0.045   1.032   2.294  0.4830  0.1247 -0.2117
  757MOL0     C99805   0.020   1.131   2.192 -0.0956  0.0262  0.2385
  757MOL0     C99806  -0.064   1.259   2.202 -0.9100 -0.5032  0.7680
  757MOL0     C99807  -0.214   1.264   2.152 -0.3325 -0.4308  0.4007
  757MOL0     C99808  -0.252   1.404   2.120 -0.1280  0.1594  0.0620
  757MOL0     N99809  -0.397   1.402   2.081  0.3087 -0.6606  0.6608
  757MOL0     C99810  -0.505   1.403   2.166 -0.2762 -0.7608  0.3193
  757MOL0     C99811  -0.613   1.383   2.086  0.1272 -0.6544 -0.4206
  757MOL0     C99812  -0.753   1.383   2.139 -0.3427  0.2577  1.0248
  757MOL0     C99813  -0.793   1.524   2.188  0.1579 -0.4011  0.1736
  757MOL0     C99814  -0.938   1.506   2.227 -0.5054  0.3271  0.5710
  757MOL0     C99815  -0.995   1.631   2.286 -0.4021  0.0128  0.2871
  757MOL0     O99816  -1.098   1.612   2.381 -0.7066  0.2391 -0.1119
  757MOL0     C99817  -1.216   1.581   2.327 -0.2398  0.5661 -0.4970
  757MOL0     C99818  -1.312   1.546   2.429 -0.8940 -0.1440  0.8308
  757MOL0     C99819  -1.434   1.495   2.386  0.2515  0.8691 -0.1649
  757MOL0     C99820  -1.473   1.480   2.257  0.0882 -0.5686 -0.6797
  757MOL0     C99821  -1.615   1.459   2.224 -0.4143  0.6375  0.6718
  757MOL0     O99822  -1.700   1.441   2.334  0.7772 -0.2512 -0.5740
  757MOL0     C99823  -1.835   1.406   2.319  0.2217  0.2723  0.2121
  757MOL0     C99824  -1.882   1.329   2.213 -0.3874 -0.4083 -0.3052
  757MOL0     C99825  -2.020   1.307   2.195  0.1952 -0.3378 -0.2661
  757MOL0     C99826  -2.117   1.353   2.287 -0.3364 -0.6805  0.1829
  757MOL0     O99827  -2.251   1.336   2.285 -0.2828 -0.0615  0.0107
  757MOL0     C99828  -2.302   1.256   2.172 -0.0416 -0.4650 -0.4108
  757MOL0     C99829  -2.456   1.219   2.186 -0.1390  0.0923 -1.3199
  757MOL0     C99830  -2.547   1.341   2.226  0.0567  0.7237  1.0986
  757MOL0     C99831  -2.684   1.340   2.170 -0.4046  0.3725  1.0905
  757MOL0     C99832  -2.673   1.393   2.027  0.3339  0.4116 -0.3481
  757MOL0     C99833  -2.823   1.396   1.975  0.7064  0.1163  0.3574
  757MOL0     C99834  -2.836   1.427   1.825 -0.6716  0.1306  0.4966
  757MOL0     C99835  -2.778   1.566   1.790  0.5447  0.0487  0.1974
  757MOL0    Cl99836  -2.845   1.710   1.885 -0.0966 -0.0212 -0.1964
  757MOL0     C99837  -2.071   1.423   2.397  0.1895  0.0834  0.3199
  757MOL0     C99838  -1.930   1.455   2.411 -0.6865  0.1067 -0.0472
  757MOL0     O99839  -1.645   1.460   2.104  0.4448 -0.6072 -0.1363
  757MOL0     C99840  -1.383   1.512   2.159 -0.1385  1.1094 -0.0461
  757MOL0     C99841  -1.253   1.562   2.190  0.1761 -0.0144 -0.2657
  757MOL0     N99842  -0.575   1.370   1.951  0.3745  0.2270  0.2069
  757MOL0     N99843  -0.444   1.384   1.947  0.0377  0.6740 -0.8749
  757MOL0     C99844   0.239   0.668   2.614 -0.2004 -0.0952  0.6968
  757MOL0     C99845   0.374   0.674   2.669 -0.0135  0.8773 -0.0826
  757MOL0     C99846   0.813   0.767   2.699 -0.0950  0.6244  0.2679
  757MOL0     C99847   0.902   0.654   2.677 -0.5050 -0.5973  0.9100
  757MOL0     C99848   1.024   0.649   2.740  0.1653  0.0341  0.4123
  757MOL0     C99849   1.064   0.754   2.833  0.3779 -1.0048  0.2471
  757MOL0     O99850   1.193   0.781   2.875 -0.1604  0.2989 -0.0678
  757MOL0     C99851   1.287   0.675   2.866 -0.4312  0.0680 -0.9220
  757MOL0     C99852   1.383   0.660   2.748 -0.2535  0.2499 -0.0083
  757MOL0     C99853   1.482   0.772   2.723  0.4932 -0.3831 -0.3058
  757MOL0     C99854   1.530   0.829   2.862 -0.2173 -0.1144  0.4643
  757MOL0     C99855   1.643   0.924   2.850 -0.0398 -0.7585 -0.3451
  757MOL0     C99856   1.739   0.998   2.842  0.1436  0.6642  1.1296
  757MOL0     C99857   0.977   0.863   2.850  0.8915  0.2970 -0.4356
  757MOL0     C99858   0.850   0.867   2.794  0.5749  0.8612  0.1187
  757MOL0     H99859   0.534   0.641   2.369  1.5878 -0.4145  0.8404
  757MOL0     H99860   0.311   0.613   2.286 -1.1817  0.0944 -0.1393
  757MOL0     H99861  -0.047   0.574   2.290 -1.1918  1.6542  0.5608
  757MOL0     H99862   0.115   0.652   2.245  1.9386  1.1254  2.7661
  757MOL0     H99863  -0.080   0.783   2.434 -0.8437  0.7454  0.0762
  757MOL0     H99864  -0.132   0.772   2.256  0.3201  2.4506 -0.7514
  757MOL0     H99865   0.071   0.875   2.194 -2.2755  1.9367 -0.8964
  757MOL0     H99866   0.127   0.905   2.360  0.5135  2.8742 -1.8256
  757MOL0     H99867  -0.152   1.008   2.284  0.5465 -1.8916  2.8653
  757MOL0     H99868  -0.039   1.065   2.398 -1.5801 -3.2047  1.1056
  757MOL0     H99869   0.013   1.087   2.092  1.3822 -0.0064  0.1247
  757MOL0     H99870   0.123   1.145   2.228  0.5776  1.9952 -2.2299
  757MOL0     H99871  -0.013   1.334   2.141  0.9716 -0.8613  1.7980
  757MOL0     H99872  -0.072   1.287   2.308 -0.4270 -1.8323  1.1695
  757MOL0     H99873  -0.219   1.202   2.062 -1.8687 -0.5670  0.5567
  757MOL0     H99874  -0.274   1.213   2.227  0.5160 -1.1230  0.6238
  757MOL0     H99875  -0.198   1.420   2.027  2.4741 -1.3908  1.1897
  757MOL0     H99876  -0.225   1.477   2.197  2.6833 -1.6973  1.0066
  757MOL0     H99877  -0.501   1.419   2.273 -3.0277 -0.9197  0.5074
  757MOL0     H99878  -0.759   1.307   2.218 -2.2131  0.1349  0.8115
  757MOL0     H99879  -0.822   1.352   2.060  1.1717 -0.7012  0.0278
  757MOL0     H99880  -0.792   1.598   2.107 -1.4995  0.9613  1.3433
  757MOL0     H99881  -0.746   1.547   2.284 -0.8731  0.5072  0.4786
  757MOL0     H99882  -0.986   1.472   2.135  1.2845 -0.2301 -0.1977
  757MOL0     H99883  -0.943   1.423   2.298 -0.6290 -0.5829 -0.4684
  757MOL0     H99884  -1.025   1.698   2.205  0.5644  1.0391  0.7501
  757MOL0     H99885  -0.914   1.670   2.349  0.2584 -2.2309  0.9045
  757MOL0     H99886  -1.288   1.549   2.535 -0.3502 -0.7207  0.7300
  757MOL0     H99887  -1.504   1.458   2.460 -0.9192  0.9785 -1.1780
  757MOL0     H99888  -1.811   1.288   2.141 -0.0308  0.0689 -0.2264
  757MOL0     H99889  -2.043   1.252   2.103 -0.9471  0.2373 -0.3329
  757MOL0     H99890  -2.266   1.155   2.151 -3.2992 -1.5975 -1.2418
  757MOL0     H99891  -2.294   1.320   2.083 -1.4307 -0.4235 -0.5388
  757MOL0     H99892  -2.470   1.135   2.255  3.2373  0.1873 -0.3250
  757MOL0     H99893  -2.482   1.203   2.081  0.0273  0.7506 -1.4675
  757MOL0     H99894  -2.499   1.435   2.195  1.5925 -0.2144  0.5186
  757MOL0     H99895  -2.554   1.352   2.334 -3.5894 -2.8941  1.4630
  757MOL0     H99896  -2.718   1.236   2.172  2.6216 -0.7388  0.3585
  757MOL0     H99897  -2.752   1.393   2.237 -0.2251  0.0513  1.5349
  757MOL0     H99898  -2.613   1.325   1.965  0.4805 -1.0062  1.2430
  757MOL0     H99899  -2.635   1.495   2.039 -0.7542  0.8267 -0.3326
  757MOL0     H99900  -2.873   1.472   2.035 -0.0765 -2.2383  2.9017
  757MOL0     H99901  -2.870   1.300   1.998  0.0435  0.0724 -1.0535
  757MOL0     H99902  -2.779   1.358   1.761  0.2875  1.8585 -0.6162
  757MOL0     H99903  -2.941   1.411   1.802 -0.1103 -1.8834 -0.9529
  757MOL0     H99904  -2.804   1.597   1.689  1.4117  1.1808  0.3017
  757MOL0     H99905  -2.668   1.567   1.795  0.5215  2.3244  2.8247
  757MOL0     H99906  -2.128   1.463   2.481  1.1374 -1.1882  1.6118
  757MOL0     H99907  -1.881   1.515   2.486  0.3397  0.4037 -0.9352
  757MOL0     H99908  -1.407   1.492   2.055 -1.1046  0.4032  0.3047
  757MOL0     H99909  -1.186   1.584   2.108  0.1269 -0.5383 -0.4467
  757MOL0     H99910   0.148   0.681   2.672  0.2182  2.2854  0.9114
  757MOL0     H99911   0.397   0.684   2.774 -0.3811 -0.4541  0.1456
  757MOL0     H99912   0.885   0.578   2.602  0.2412 -0.6060  0.7426
  757MOL0     H99913   1.094   0.572   2.708 -0.8116 -0.7001  0.0105
  757MOL0     H99914   1.229   0.584   2.883 -0.4828  0.3206  0.3694
  757MOL0     H99915   1.348   0.678   2.957 -2.9186  1.3543  0.8446
  757MOL0     H99916   1.439   0.568   2.763 -1.8943 -0.7395  0.2970
  757MOL0     H99917   1.315   0.652   2.663 -1.4759  0.8647  0.8789
  757MOL0     H99918   1.415   0.839   2.668  1.3272  0.6961 -0.0433
  757MOL0     H99919   1.568   0.741   2.664  1.4720 -2.5574  2.0618
  757MOL0     H99920   1.453   0.893   2.906 -1.1389 -0.0638 -1.1345
  757MOL0     H99921   1.561   0.747   2.928  0.6899  0.6839  1.0512
  757MOL0     H99922   1.823   1.064   2.839 -0.0634  0.8897 -1.1887
  757MOL0     H99923   1.023   0.938   2.913  0.7615  0.8433 -0.9743
  757MOL0     H99924   0.778   0.944   2.820 -0.2036  0.1583  0.0767
  758MOL0     O99925   4.535   3.624   3.280  0.1276 -0.0540  0.3864
  758MOL0     C99926   4.644   3.571   3.252 -0.1955 -0.7769 -0.1561
  758MOL0     O99927   4.754   3.574   3.329  0.5272  0.1387 -0.1507
  758MOL0     C99928   4.758   3.662   3.437  0.0596 -0.1268 -0.2399
  758MOL0     C99929   4.784   3.803   3.421  0.8939 -0.0550 -0.7613
  758MOL0     C99930   4.764   3.887   3.537 -0.0932 -0.2972 -0.0910
  758MOL0     C99931   4.749   3.834   3.665  0.3881  0.3308 -0.0063
  758MOL0     O99932   4.744   3.924   3.770  0.1843 -0.0055 -0.5246
  758MOL0     C99933   4.686   3.864   3.889 -0.1345 -0.1241  0.0185
  758MOL0     C99934   4.795   3.824   3.997 -0.6858  0.3405  0.2794
  758MOL0     C99935   4.937   3.910   3.998  0.2669 -0.2978 -0.0274
  758MOL0     C99936   4.906   4.058   4.032 -0.5196 -0.2582 -0.3188
  758MOL0     C99937   5.014   4.119   4.116  0.4176 -0.5695  0.6853
  758MOL0     C99938   5.143   4.132   4.039 -0.0208  0.7297 -0.0805
  758MOL0     C99939   5.250   4.204   4.130 -0.3666  0.0399 -0.1310
  758MOL0     C99940   5.390   4.219   4.067 -0.1638 -0.1854 -0.3469
  758MOL0     N99941   5.460   4.091   4.039 -0.2057  0.4750  0.2290
  758MOL0     C99942   5.460   4.020   3.919  0.6962 -0.7670 -1.1204
  758MOL0     C99943   5.560   3.932   3.942 -0.1873 -0.8520  0.0606
  758MOL0     C99944   5.611   3.832   3.848  0.0209  0.4376  0.9118
  758MOL0     C99945   5.737   3.864   3.765 -0.3367  0.7595  0.4232
  758MOL0     C99946   5.726   4.001   3.688 -0.6749 -0.2196 -0.3551
  758MOL0     C99947   5.822   4.008   3.566  0.8768 -0.4680 -0.4826
  758MOL0     O99948   5.769   3.913   3.461  0.3626  0.4345 -0.3778
  758MOL0     C99949   5.863   3.857   3.374  1.0526 -0.4442  0.4093
  758MOL0     C99950   5.821   3.833   3.246  1.0975  0.6885  0.5218
  758MOL0     C99951   5.893   3.754   3.156  0.5366 -0.7422 -0.4268
  758MOL0     C99952   6.014   3.703   3.192 -0.0821 -0.0401  0.1503
  758MOL0     C99953   6.099   3.631   3.097  0.6478  0.6960 -0.3955
  758MOL0     O99954   6.222   3.594   3.137 -0.4199  0.2254 -0.2248
  758MOL0     C99955   6.297   3.500   3.069  0.7414 -0.4318  0.9826
  758MOL0     C99956   6.395   3.432   3.149 -0.2591 -0.6373  0.2792
  758MOL0     C99957   6.472   3.332   3.096 -0.0192 -0.2019  0.7211
  758MOL0     C99958   6.479   3.302   2.962  0.3437 -0.0217 -0.3677
  758MOL0     O99959   6.550   3.197   2.908 -0.4088  0.1113 -0.6405
  758MOL0     C99960   6.558   3.087   2.993 -0.9231  0.7122  0.1833
  758MOL0     C99961   6.609   2.960   2.921 -1.1653 -0.0388  0.3264
  758MOL0     C99962   6.740   2.971   2.841 -0.5848  0.4000  0.3359
  758MOL0     C99963   6.761   2.868   2.728  0.4475 -0.4213  0.1924
  758MOL0     C99964   6.911   2.875   2.677 -0.8093 -0.0292 -0.2472
  758MOL0     C99965   6.934   2.784   2.550  0.3914  0.8119  0.3542
  758MOL0     C99966   7.075   2.751   2.522 -0.0448 -0.3469  0.2792
  758MOL0     C99967   7.097   2.676   2.391  0.3888  0.1588  0.3314
  758MOL0    Cl99968   7.017   2.517   2.401 -0.1695 -0.3331 -0.0611
  758MOL0     C99969   6.398   3.379   2.880  0.3793 -0.4333 -0.3788
  758MOL0     C99970   6.307   3.477   2.927 -0.8714 -0.0024 -0.3529
  758MOL0     O99971   6.039   3.591   2.995 -0.6625  0.1517 -0.4813
  758MOL0     C99972   6.074   3.740   3.317  0.1976  0.8124 -0.2715
  758MOL0     C99973   5.993   3.816   3.408 -0.6197  0.5163  0.9375
  758MOL0     N99974   5.592   3.930   4.070  0.2708  0.4116 -0.5650
  758MOL0     N99975   5.535   4.028   4.133  0.0876  0.7416  0.9224
  758MOL0     C99976   4.749   3.693   3.678  0.3667  0.3594  0.5971
  758MOL0     C99977   4.739   3.608   3.561 -0.3581  0.3574  0.0270
  758MOL0     C99978   4.663   3.484   3.132 -0.4632  0.7852 -0.3832
  758MOL0     C99979   4.750   3.371   3.134 -0.2435  1.0177 -1.3842
  758MOL0     C99980   4.777   3.292   3.021 -0.5958  0.7481  0.5832
  758MOL0     C99981   4.723   3.333   2.893 -0.5487 -0.4301  0.0730
  758MOL0     O99982   4.746   3.257   2.778  0.4193 -0.4090 -0.3701
  758MOL0     C99983   4.854   3.166   2.765  0.1952  0.3800 -0.3893
  758MOL0     C99984   4.807   3.025   2.827 -0.2198 -0.1477  0.2159
  758MOL0     C99985   4.770   2.919   2.716  0.1058  0.3329  0.4187
  758MOL0     C99986   4.891   2.883   2.628 -0.5501  0.2186  0.2284
  758MOL0     C99987   4.828   2.842   2.508 -0.4593 -0.1004 -1.0310
  758MOL0     C99988   4.796   2.816   2.393  0.0657 -0.1545 -0.2546
  758MOL0     C99989   4.638   3.446   2.892 -0.0696 -1.0774 -0.3037
  758MOL0     C99990   4.598   3.508   3.012  0.5688  0.0231  0.8084
  758MOL0     H99991   4.799   3.829   3.317 -0.2884 -0.5288 -1.0757
  758MOL0     H99992   4.761   3.993   3.514  0.4426 -0.2251  0.1473
  758MOL0     H99993   4.615   3.782   3.876 -0.3146 -0.0199  0.3096
  758MOL0     H99994   4.629   3.951   3.925 -1.0037  0.4628 -2.5622
  758MOL0     H99995   4.821   3.718   3.998  3.6174  1.2194 -0.9397
  758MOL0     H99996   4.745   3.844   4.093  0.9883  1.0266  1.0383
  758MOL0     H99997   4.984   3.901   3.900  1.0890 -0.7410  0.4018
  758MOL0     H99998   5.007   3.869   4.071  0.8762 -0.9202 -0.9453
  758MOL0     H99999   4.900   4.124   3.945  0.2292  4.0105  2.5724
  758MOL0     H    0   4.811   4.063   4.085 -0.5196  1.3517 -0.4319
  758MOL0     H    1   5.044   4.053   4.198  3.3544  0.8894  0.9111
  758MOL0     H    2   4.977   4.208   4.167  1.3194 -0.3936  1.0628
  758MOL0     H    3   5.127   4.196   3.952 -2.6001  1.2003  0.6671
  758MOL0     H    4   5.175   4.031   4.013 -3.4208 -0.3627 -0.4927
  758MOL0     H    5   5.214   4.297   4.174  4.0834  0.4608  3.4015
  758MOL0     H    6   5.265   4.137   4.215 -3.3868  0.0730  0.5220
  758MOL0     H    7   5.445   4.276   4.142  0.5823  0.3358 -1.2705
  758MOL0     H    8   5.399   4.288   3.983  0.4653 -0.0196 -0.1485
  758MOL0     H    9   5.396   4.042   3.834 -1.6872 -0.9573  0.5314
  758MOL0     H   10   5.531   3.829   3.773  1.7750 -2.7498 -1.0523
  758MOL0     H   11   5.623   3.735   3.898 -1.1403 -0.1142  0.1727
  758MOL0     H   12   5.759   3.783   3.694  1.8612  1.9696 -0.3741
  758MOL0     H   13   5.814   3.875   3.842  1.4037  3.0385 -1.4833
  758MOL0     H   14   5.620   4.012   3.665 -0.5224  2.8336 -0.0622
  758MOL0     H   15   5.750   4.087   3.751 -0.8356  1.8807 -3.0235
  758MOL0     H   16   5.929   4.002   3.590  0.8051  0.6595  0.2193
  758MOL0     H   17   5.804   4.100   3.509  0.2059 -2.1153 -3.0996
  758MOL0     H   18   5.720   3.866   3.224  1.8444  2.8207  0.0327
  758MOL0     H   19   5.844   3.715   3.067  0.3229 -1.6649  0.0753
  758MOL0     H   20   6.399   3.459   3.254  0.4034  1.8881 -0.3333
  758MOL0     H   21   6.542   3.288   3.166 -0.4970 -0.4488  1.0407
  758MOL0     H   22   6.464   3.064   3.043 -2.7290  1.1602 -2.7191
  758MOL0     H   23   6.626   3.105   3.076 -0.7816  0.5897  0.0943
  758MOL0     H   24   6.521   2.945   2.858 -1.6024  1.1851  0.6152
  758MOL0     H   25   6.605   2.870   2.984  0.1530  0.1217  0.6544
  758MOL0     H   26   6.826   2.951   2.906 -0.2788  0.0778 -0.1562
  758MOL0     H   27   6.760   3.071   2.803  1.4401  1.1174  2.9794
  758MOL0     H   28   6.728   2.765   2.746  1.7426 -1.6395 -3.4336
  758MOL0     H   29   6.698   2.894   2.642  1.2946 -0.6690 -0.5183
  758MOL0     H   30   6.969   2.848   2.766 -0.7073  0.1085 -0.2727
  758MOL0     H   31   6.936   2.979   2.654  3.9718 -1.6537 -4.0626
  758MOL0     H   32   6.885   2.828   2.463  0.8011 -1.6282 -1.2064
  758MOL0     H   33   6.880   2.692   2.573 -2.1376  1.6044 -1.9331
  758MOL0     H   34   7.123   2.848   2.505  0.5530 -1.0719 -2.8817
  758MOL0     H   35   7.116   2.698   2.608  0.6933  0.2991  0.3347
  758MOL0     H   36   7.201   2.660   2.363  0.1104  1.3604 -1.5206
  758MOL0     H   37   7.049   2.724   2.306  1.2467  2.3349  0.9923
  758MOL0     H   38   6.381   3.360   2.775 -3.9382  0.0573  0.0690
  758MOL0     H   39   6.247   3.531   2.854 -0.8778  0.0598 -0.3016
  758MOL0     H   40   6.167   3.699   3.354 -0.5204 -0.2748  0.3843
  758MOL0     H   41   6.026   3.807   3.511  1.2902  0.0300  0.3376
  758MOL0     H   42   4.756   3.638   3.771  4.3323  0.3335  0.4730
  758MOL0     H   43   4.716   3.502   3.569 -2.7692  0.8002 -0.0755
  758MOL0     H   44   4.802   3.347   3.226 -0.5014 -2.0260 -1.9348
  758MOL0     H   45   4.845   3.209   3.035 -2.3760 -0.7780  0.5345
  758MOL0     H   46   4.939   3.210   2.818 -2.0554  2.1675  2.0204
  758MOL0     H   47   4.879   3.158   2.659  0.4603 -2.1843 -0.1917
  758MOL0     H   48   4.893   2.995   2.888  0.4749  2.2833  0.5463
  758MOL0     H   49   4.721   3.046   2.891  0.6827  0.4463  1.2801
  758MOL0     H   50   4.695   2.967   2.653  0.6772  1.9328  0.8902
  758MOL0     H   51   4.743   2.829   2.772 -0.7077  1.2499  1.5383
  758MOL0     H   52   4.969   2.958   2.617  0.9256 -1.2999 -0.1493
  758MOL0     H   53   4.945   2.800   2.676 -2.5459 -0.4013  1.5427
  758MOL0     H   54   4.765   2.787   2.294 -1.9211 -1.2742  0.6308
  758MOL0     H   55   4.591   3.491   2.804 -1.0834  1.6865  1.4951
  758MOL0     H   56   4.521   3.584   3.019  0.1981 -0.3388  0.7219
  759MOL0     O   57   8.903   8.965  10.493 -0.0055  0.3636 -0.1084
  759MOL0     C   58   8.902   8.926  10.379 -0.4711  0.6465 -0.0629
  759MOL0     O   59   8.792   8.893  10.306  0.3632  0.6570 -0.0780
  759MOL0     C   60   8.664   8.905  10.353 -0.4138  0.7294  0.1259
  759MOL0     C   61   8.585   8.796  10.307 -0.4752 -0.5269 -0.1775
  759MOL0     C   62   8.448   8.805  10.336 -0.6034 -0.3118 -0.3917
  759MOL0     C   63   8.391   8.908  10.406  0.0542  0.3323 -0.3885
  759MOL0     O   64   8.257   8.900  10.437  0.3211  0.3170  0.3882
  759MOL0     C   65   8.203   9.020  10.500  0.2564  0.2668  0.0287
  759MOL0     C   66   8.060   8.989  10.557  0.0024  0.3300  0.3738
  759MOL0     C   67   8.051   8.859  10.630  0.3239  1.3112 -0.1283
  759MOL0     C   68   7.911   8.855  10.695  0.0057  0.2788 -0.6252
  759MOL0     C   69   7.895   8.919  10.836  0.1695  0.2024  0.3508
  759MOL0     C   70   7.781   9.021  10.846  0.9718 -0.5236 -0.5048
  759MOL0     C   71   7.643   8.953  10.830  0.4451 -0.3758  0.0289
  759MOL0     C   72   7.541   9.050  10.873  0.1132 -0.1319 -0.9097
  759MOL0     N   73   7.413   8.995  10.922 -0.5980  0.8900 -0.0863
  759MOL0     C   74   7.322   8.926  10.844  0.1277  0.6219 -0.2092
  759MOL0     C   75   7.213   8.916  10.917  0.5277  0.4564 -0.1150
  759MOL0     C   76   7.075   8.872  10.880  0.3904  0.3255 -0.0016
  759MOL0     C   77   6.973   8.890  10.989 -0.0850 -0.6602 -0.1643
  759MOL0     C   78   6.960   8.768  11.087 -0.1371 -1.1179  0.2850
  759MOL0     C   79   6.875   8.662  11.018 -0.8169  0.2909  0.5210
  759MOL0     O   80   6.746   8.707  10.986 -0.4233 -0.3748 -0.5242
  759MOL0     C   81   6.634   8.666  11.058  0.7425  0.1239 -0.5306
  759MOL0     C   82   6.516   8.655  10.977 -0.0031  1.0381 -0.1108
  759MOL0     C   83   6.398   8.607  11.032 -0.0255 -0.5339 -0.2319
  759MOL0     C   84   6.395   8.564  11.165 -0.2031 -0.1538 -0.5481
  759MOL0     C   85   6.284   8.484  11.209 -0.5036  0.9953 -0.1885
  759MOL0     O   86   6.298   8.403  11.312 -0.5292 -0.2603 -0.8701
  759MOL0     C   87   6.197   8.327  11.352 -0.0142  1.2139 -0.0568
  759MOL0     C   88   6.121   8.364  11.472 -0.2597 -0.1220  0.8174
  759MOL0     C   89   6.008   8.287  11.505  1.1717  0.1013 -0.7126
  759MOL0     C   90   5.984   8.170  11.438  0.0754  0.0771  0.4211
  759MOL0     O   91   5.879   8.098  11.487 -0.6497  1.1786 -0.8688
  759MOL0     C   92   5.820   7.982  11.407 -1.1208  0.0272 -0.7341
  759MOL0     C   93   5.893   7.849  11.444  0.1804 -0.8423  0.4765
  759MOL0     C   94   5.882   7.822  11.590  0.6905 -0.6874 -0.3547
  759MOL0     C   95   5.931   7.681  11.634 -0.2748  0.2927  0.1878
  759MOL0     C   96   6.087   7.667  11.658  0.4341 -0.9220 -0.5118
  759MOL0     C   97   6.181   7.700  11.540  0.0982 -0.5955  0.3350
  759MOL0     C   98   6.154   7.598  11.429 -1.5408 -0.3169  0.6307
  759MOL0     C   99   6.268   7.594  11.325 -0.6492 -0.3430  0.4706
  759MOL0    Cl  100   6.211   7.498  11.185 -0.0959  0.4210  0.1740
  759MOL0     C  101   6.064   8.124  11.328  0.6890  0.3890 -0.5243
  759MOL0     C  102   6.166   8.208  11.283 -0.1373 -0.1255  0.0005
  759MOL0     O  103   6.186   8.485  11.139 -0.5687 -0.7445 -0.2494
  759MOL0     C  104   6.514   8.565  11.242 -0.6062 -0.2010 -0.2289
  759MOL0     C  105   6.635   8.619  11.189 -0.3454 -0.9688 -0.2059
  759MOL0     N  106   7.237   8.971  11.041 -0.3024  0.2568  0.1878
  759MOL0     N  107   7.362   9.019  11.047  0.2215 -0.4704  0.7150
  759MOL0     C  108   8.477   9.014  10.458  0.3554  0.0108 -0.3691
  759MOL0     C  109   8.612   9.009  10.427  0.0869 -0.1626 -0.1605
  759MOL0     C  110   9.037   8.910  10.317 -0.2630  0.0041  0.4346
  759MOL0     C  111   9.048   8.849  10.187 -0.6263  0.7634 -0.5728
  759MOL0     C  112   9.174   8.838  10.127  0.3761 -1.3382 -0.7567
  759MOL0     C  113   9.289   8.900  10.187 -0.2059  1.0524  0.2936
  759MOL0     O  114   9.415   8.872  10.120  0.4914  0.6494 -0.2192
  759MOL0     C  115   9.524   8.953  10.166  0.1856 -0.3008 -0.1479
  759MOL0     C  116   9.656   8.938  10.091 -0.8163 -0.6623  0.1674
  759MOL0     C  117   9.763   9.047  10.128 -0.1356 -0.2115 -0.6425
  759MOL0     C  118   9.902   9.002  10.117 -0.4759 -0.1840  0.7645
  759MOL0     C  119   9.948   8.926   9.999 -0.6357  0.2553  1.5568
  759MOL0     C  120   9.962   8.845   9.907 -0.1220  0.2728 -1.1458
  759MOL0     C  121   9.280   8.961  10.311 -1.0471 -0.5332 -1.3499
  759MOL0     C  122   9.149   8.964  10.376 -0.1829 -0.9049  0.4508
  759MOL0     H  123   8.628   8.718  10.245 -1.3288 -0.3935 -0.9637
  759MOL0     H  124   8.364   8.745  10.300 -2.4668  3.0326 -2.0983
  759MOL0     H  125   8.198   9.103  10.429  0.1474 -1.1434 -1.6741
  759MOL0     H  126   8.265   9.055  10.583  1.0158 -0.4064 -0.2406
  759MOL0     H  127   7.995   8.985  10.469  0.7129  0.7168 -0.1785
  759MOL0     H  128   8.039   9.072  10.624 -0.5811  0.8984 -0.4976
  759MOL0     H  129   8.136   8.848  10.699  0.7630 -0.7604 -0.9219
  759MOL0     H  130   8.064   8.775  10.561 -2.5635  2.3238 -2.0824
  759MOL0     H  131   7.828   8.898  10.638 -0.0145 -0.0068 -0.8122
  759MOL0     H  132   7.885   8.749  10.704  1.3538 -0.0159  0.1671
  759MOL0     H  133   7.988   8.969  10.862  0.3817 -1.4547  3.1957
  759MOL0     H  134   7.881   8.831  10.900  1.0743  0.1692  0.5126
  759MOL0     H  135   7.789   9.106  10.778  0.0825 -1.2110 -1.5046
  759MOL0     H  136   7.786   9.062  10.947 -0.7434 -0.7103 -0.3262
  759MOL0     H  137   7.626   8.906  10.733  2.5959  0.7480 -0.9617
  759MOL0     H  138   7.643   8.874  10.905  0.7914  2.3166  3.0954
  759MOL0     H  139   7.510   9.113  10.790  1.8632  0.0725 -1.4416
  759MOL0     H  140   7.573   9.111  10.958 -1.9366  2.4244 -1.8586
  759MOL0     H  141   7.346   8.905  10.740  2.9800 -2.2120  0.8454
  759MOL0     H  142   7.078   8.771  10.838 -1.5229  0.9269 -1.7760
  759MOL0     H  143   7.037   8.931  10.796 -0.1740 -0.8985 -0.6415
  759MOL0     H  144   6.885   8.934  10.941  1.2450  0.5430 -1.6113
  759MOL0     H  145   6.999   8.979  11.048  0.4034 -1.7168  1.2773
  759MOL0     H  146   7.059   8.724  11.105  0.0510 -1.6788 -1.8705
  759MOL0     H  147   6.907   8.803  11.176 -1.1661  2.2112 -1.4724
  759MOL0     H  148   6.880   8.577  11.086  3.7304  2.1707  2.9773
  759MOL0     H  149   6.932   8.624  10.933 -2.2074 -1.5382  0.3387
  759MOL0     H  150   6.518   8.676  10.871  1.7718 -0.0688 -0.3324
  759MOL0     H  151   6.317   8.595  10.960  0.1211  4.3434 -1.5974
  759MOL0     H  152   6.156   8.450  11.527  1.4394 -1.4207  1.8675
  759MOL0     H  153   5.954   8.324  11.592  3.6222  1.1608  0.4786
  759MOL0     H  154   5.823   7.999  11.299 -1.2397  1.8423 -0.4721
  759MOL0     H  155   5.716   7.970  11.437 -1.3085  0.6596 -1.1133
  759MOL0     H  156   5.995   7.865  11.409 -0.4184  0.0115 -0.9941
  759MOL0     H  157   5.844   7.764  11.395  0.2115 -0.4010 -0.3366
  759MOL0     H  158   5.773   7.820  11.601 -0.1470 -3.8042 -5.5657
  759MOL0     H  159   5.930   7.903  11.647  0.0035 -2.4995  3.0421
  759MOL0     H  160   5.893   7.652  11.733 -0.4315  0.0038  0.0443
  759MOL0     H  161   5.898   7.599  11.569  1.0714  0.0861 -0.2706
  759MOL0     H  162   6.108   7.562  11.683  0.5759 -0.5726  0.9645
  759MOL0     H  163   6.107   7.719  11.752 -0.6311  0.0321 -0.7874
  759MOL0     H  164   6.285   7.680  11.567 -0.3349 -7.1849 -1.1522
  759MOL0     H  165   6.164   7.803  11.507 -0.9229 -1.1167 -0.8808
  759MOL0     H  166   6.149   7.493  11.460 -1.5841 -1.0130 -1.5688
  759MOL0     H  167   6.063   7.621  11.373 -1.0762  4.6042  1.3870
  759MOL0     H  168   6.356   7.547  11.370 -3.0452 -1.9416  4.0327
  759MOL0     H  169   6.281   7.700  11.301  0.5742 -0.2470  1.4540
  759MOL0     H  170   6.054   8.030  11.274 -0.6528 -0.7315  1.5109
  759MOL0     H  171   6.232   8.196  11.198  1.1028  0.2489  0.8998
  759MOL0     H  172   6.523   8.529  11.344  1.1753  2.2619  0.5878
  759MOL0     H  173   6.733   8.621  11.237  0.0164  0.2053 -0.9470
  759MOL0     H  174   8.438   9.109  10.492  1.6464  0.8515 -1.1583
  759MOL0     H  175   8.684   9.087  10.449  3.1915 -2.3949 -1.6104
  759MOL0     H  176   8.968   8.798  10.136 -1.6126 -2.9651  4.0003
  759MOL0     H  177   9.183   8.789  10.030  0.5329 -1.0569 -0.8859
  759MOL0     H  178   9.539   8.935  10.273 -0.3724  0.8927  0.1367
  759MOL0     H  179   9.499   9.057  10.146 -1.7607 -1.2981 -3.9706
  759MOL0     H  180   9.703   8.843  10.118  5.8787  2.6725  2.4523
  759MOL0     H  181   9.645   8.948   9.983  0.4753  0.5461  0.1113
  759MOL0     H  182   9.735   9.077  10.229 -0.1828  1.7970 -1.2005
  759MOL0     H  183   9.750   9.135  10.064  1.0081  0.0571 -0.5225
  759MOL0     H  184   9.959   9.095  10.123 -1.0317  0.1695  0.5194
  759MOL0     H  185   9.914   8.928  10.198  4.3888 -1.4635 -0.7604
  759MOL0     H  186   9.974   8.773   9.829  0.0379 -1.7561  0.6699
  759MOL0     H  187   9.367   8.998  10.365 -2.1285 -1.4369  1.1556
  759MOL0     H  188   9.130   9.007  10.473  3.4515 -1.8122  1.7486
  760MOL0     O  189  10.871   3.260   9.942 -0.4750  0.1330 -0.2720
  760MOL0     C  190  10.780   3.211   9.881  0.4104 -0.5390 -0.1670
  760MOL0     O  191  10.788   3.133   9.758  0.4683 -0.6120  0.1568
  760MOL0     C  192  10.910   3.113   9.697 -0.1076  0.2562  0.3785
  760MOL0     C  193  10.912   3.116   9.552 -0.4062  0.1172  0.0087
  760MOL0     C  194  11.032   3.091   9.474 -0.4157 -0.3101  0.0141
  760MOL0     C  195  11.149   3.085   9.549 -0.6608 -0.4253 -0.4227
  760MOL0     O  196  11.268   3.060   9.495  0.1879  0.0320 -0.8960
  760MOL0     C  197  11.362   3.172   9.499  0.1198  0.2296  0.1646
  760MOL0     C  198  11.475   3.133   9.408 -0.4016 -0.8664  0.2224
  760MOL0     C  199  11.588   3.240   9.429  0.4374  0.9074 -0.5912
  760MOL0     C  200  11.692   3.202   9.330 -0.4944 -0.3363  1.1174
  760MOL0     C  201  11.796   3.319   9.324 -0.3702 -0.3554  0.3835
  760MOL0     C  202  11.918   3.298   9.232 -0.6287  0.9394  0.4094
  760MOL0     C  203  11.996   3.425   9.196 -0.0002 -0.8252 -0.9073
  760MOL0     C  204  12.049   3.515   9.308 -0.2634 -0.0296  0.3488
  760MOL0     N  205  11.944   3.597   9.365 -0.2050 -0.1106 -0.0244
  760MOL0     C  206  11.897   3.604   9.490  1.3292 -0.6050 -0.3881
  760MOL0     C  207  11.800   3.705   9.492 -0.4994  0.3061 -0.3465
  760MOL0     C  208  11.732   3.749   9.622  0.6592 -0.2259 -0.4582
  760MOL0     C  209  11.634   3.645   9.679  0.2789  0.3149 -0.1829
  760MOL0     C  210  11.524   3.632   9.568 -0.6099  0.1952 -0.1836
  760MOL0     C  211  11.411   3.542   9.608 -0.6884 -0.6367  0.9323
  760MOL0     O  212  11.339   3.610   9.712  0.2466 -0.0031 -0.0839
  760MOL0     C  213  11.203   3.618   9.706 -0.0491  0.1410 -0.7221
  760MOL0     C  214  11.151   3.726   9.769 -0.5175 -0.0204  0.5875
  760MOL0     C  215  11.011   3.749   9.775 -0.2455 -0.7857 -1.1949
  760MOL0     C  216  10.918   3.655   9.719  0.0738 -0.3660 -0.4435
  760MOL0     C  217  10.765   3.667   9.737 -0.1697 -1.5081 -0.1183
  760MOL0     O  218  10.720   3.788   9.792 -0.4215  0.4404  0.2697
  760MOL0     C  219  10.597   3.809   9.846  0.3932 -0.1154 -0.6260
  760MOL0     C  220  10.532   3.709   9.920 -0.5254  0.6927  1.1381
  760MOL0     C  221  10.423   3.737  10.002  0.4489 -0.2873  0.6521
  760MOL0     C  222  10.381   3.871  10.000  0.3103 -0.1552 -0.7059
  760MOL0     O  223  10.260   3.897  10.058  0.2984 -0.3220  0.0338
  760MOL0     C  224  10.259   3.984  10.172 -1.1107  0.3961  0.0593
  760MOL0     C  225  10.112   4.021  10.199 -0.8601  0.2045  0.0264
  760MOL0     C  226  10.090   4.100  10.322 -0.5325 -0.6206 -0.4730
  760MOL0     C  227   9.945   4.133  10.346  0.2910 -0.1092  0.5988
  760MOL0     C  228   9.925   4.195  10.486  0.0397  0.1071 -0.2412
  760MOL0     C  229   9.777   4.240  10.510  0.2438  0.7927  0.2573
  760MOL0     C  230   9.741   4.246  10.657 -0.2955  0.8972  0.0235
  760MOL0     C  231   9.616   4.329  10.673 -0.1542  0.9683 -0.3188
  760MOL0    Cl  232   9.479   4.229  10.634  0.1462 -0.2254  0.6559
  760MOL0     C  233  10.436   3.975   9.924 -0.0097  0.1222  0.6478
  760MOL0     C  234  10.554   3.940   9.866 -0.0052  0.3024  0.2088
  760MOL0     O  235  10.690   3.579   9.699 -1.2797 -0.5005 -0.2480
  760MOL0     C  236  10.976   3.539   9.661  0.0958 -0.0512 -0.3088
  760MOL0     C  237  11.114   3.518   9.658 -0.4255  0.4939  0.4474
  760MOL0     N  238  11.801   3.756   9.364  0.8410  0.1637 -0.1174
  760MOL0     N  239  11.891   3.694   9.298  0.7389 -0.4331  0.5628
  760MOL0     C  240  11.147   3.079   9.689  0.4057  0.1916 -0.4953
  760MOL0     C  241  11.029   3.095   9.758 -0.0437 -0.2921 -0.7616
  760MOL0     C  242  10.647   3.266   9.915 -0.2565  0.5580  0.6078
  760MOL0     C  243  10.620   3.303  10.050 -0.7861  0.5577  0.3312
  760MOL0     C  244  10.492   3.352  10.083 -0.4659 -1.0201 -0.5575
  760MOL0     C  245  10.398   3.375   9.989 -1.0228  0.9542 -0.5270
  760MOL0     O  246  10.278   3.428  10.030 -0.2352 -0.6134  0.3396
  760MOL0     C  247  10.179   3.458   9.928  1.2478 -0.7675  0.3120
  760MOL0     C  248  10.096   3.340   9.880 -0.1059 -0.5548 -0.1416
  760MOL0     C  249  10.009   3.277  10.004  0.1218 -0.9049  0.3322
  760MOL0     C  250   9.940   3.162   9.940  0.0876  0.6375  0.0480
  760MOL0     C  251   9.901   3.059  10.036 -0.6955 -0.6168  0.4402
  760MOL0     C  252   9.850   2.991  10.117 -0.0206  0.7571 -0.1442
  760MOL0     C  253  10.424   3.334   9.852 -0.4615 -0.3954 -0.8528
  760MOL0     C  254  10.543   3.274   9.820  0.4455  0.5608  0.9438
  760MOL0     H  255  10.821   3.145   9.500  0.4301  2.6453 -0.2060
  760MOL0     H  256  11.025   3.083   9.366 -0.1010  1.5174 -0.1694
  760MOL0     H  257  11.408   3.171   9.598 -1.4724  0.9232  0.9543
  760MOL0     H  258  11.329   3.271   9.464  1.3115  1.2608  1.7808
  760MOL0     H  259  11.429   3.145   9.309 -1.2996  1.4960  0.8619
  760MOL0     H  260  11.511   3.031   9.425  0.1883 -0.3542  2.2521
  760MOL0     H  261  11.632   3.246   9.529  0.5128  1.3376 -0.6492
  760MOL0     H  262  11.558   3.342   9.404  2.6646  2.2021  1.5931
  760MOL0     H  263  11.742   3.110   9.360 -1.2533 -1.6345 -1.3718
  760MOL0     H  264  11.649   3.195   9.230 -0.1420 -1.7754  1.0466
  760MOL0     H  265  11.839   3.344   9.422  0.1480  1.3017 -0.2330
  760MOL0     H  266  11.758   3.417   9.295  2.5464  0.8881  0.4468
  760MOL0     H  267  11.887   3.255   9.136  0.2824  0.3176  0.3800
  760MOL0     H  268  11.982   3.225   9.283 -2.2520 -2.2381 -1.7894
  760MOL0     H  269  12.085   3.397   9.140  1.5435 -0.1240  1.0781
  760MOL0     H  270  11.930   3.489   9.136 -0.9188  2.8699  3.4567
  760MOL0     H  271  12.124   3.577   9.258 -0.5836  1.8089  2.0315
  760MOL0     H  272  12.107   3.459   9.382  2.7127  2.0033 -0.2754
  760MOL0     H  273  11.931   3.556   9.581 -0.1845  1.2442  1.2312
  760MOL0     H  274  11.672   3.838   9.598 -1.4414 -1.3525  0.3715
  760MOL0     H  275  11.802   3.772   9.703  1.6891 -2.7024 -0.5697
  760MOL0     H  276  11.585   3.681   9.769  0.1531  0.5524 -0.3445
  760MOL0     H  277  11.684   3.548   9.684 -3.5083 -1.8639 -0.0024
  760MOL0     H  278  11.486   3.731   9.540 -0.0307  0.0157 -1.6700
  760MOL0     H  279  11.575   3.587   9.483  0.3489  1.2901 -0.2164
  760MOL0     H  280  11.451   3.450   9.649  0.3731 -0.3447  0.5836
  760MOL0     H  281  11.346   3.517   9.524 -2.1870 -2.3659  2.5259
  760MOL0     H  282  11.213   3.808   9.803 -1.5690  1.5066 -1.0467
  760MOL0     H  283  10.969   3.836   9.824 -1.9096 -0.0870 -3.6709
  760MOL0     H  284  10.564   3.605   9.914 -0.0724  0.7546  2.2265
  760MOL0     H  285  10.362   3.661  10.050  1.2106 -1.9876 -0.9362
  760MOL0     H  286  10.311   4.078  10.153 -1.0193  0.6343  1.3921
  760MOL0     H  287  10.307   3.926  10.251  2.4480  0.1296 -2.0780
  760MOL0     H  288  10.057   3.927  10.211 -2.3411  0.9551 -0.5780
  760MOL0     H  289  10.075   4.072  10.109 -0.0971 -0.4389 -0.6662
  760MOL0     H  290  10.151   4.189  10.301  1.5792 -1.9642 -0.2742
  760MOL0     H  291  10.136   4.058  10.411 -0.4750 -0.2806 -0.3429
  760MOL0     H  292   9.918   4.216  10.280 -3.4169 -0.9229  0.9072
  760MOL0     H  293   9.884   4.044  10.333  0.9445 -0.5278  0.3448
  760MOL0     H  294   9.995   4.277  10.505  0.6286 -0.5339  0.4214
  760MOL0     H  295   9.957   4.120  10.559  1.3061  0.8914  0.0300
  760MOL0     H  296   9.708   4.176  10.453  2.4272 -1.2067 -0.2966
  760MOL0     H  297   9.773   4.342  10.469  0.9761  0.9591  0.5892
  760MOL0     H  298   9.723   4.147  10.701  1.3806  1.3831  1.9431
  760MOL0     H  299   9.813   4.296  10.722 -1.6997  1.9235  0.8412
  760MOL0     H  300   9.627   4.410  10.601  0.4354  0.9794 -0.2187
  760MOL0     H  301   9.610   4.378  10.771  0.3432 -0.6400  0.5557
  760MOL0     H  302  10.401   4.077   9.934  0.1008  0.2126  0.1304
  760MOL0     H  303  10.620   4.020   9.832 -1.4894  1.6515  0.3868
  760MOL0     H  304  10.911   3.465   9.616  1.7140 -1.3688 -0.5732
  760MOL0     H  305  11.160   3.431   9.613  2.9776  1.0530  2.4333
  760MOL0     H  306  11.244   3.075   9.739 -1.1784  3.3141  3.3782
  760MOL0     H  307  11.041   3.104   9.865  1.3369 -0.7191 -0.8635
  760MOL0     H  308  10.700   3.287  10.122 -0.4397 -2.5699 -0.6152
  760MOL0     H  309  10.472   3.361  10.190 -0.0390 -2.4075 -0.3382
  760MOL0     H  310  10.208   3.510   9.837 -4.3732  3.6929  0.4437
  760MOL0     H  311  10.108   3.519   9.985  0.5641  0.9887 -2.2584
  760MOL0     H  312  10.024   3.390   9.814 -3.2248 -0.4902  3.0326
  760MOL0     H  313  10.162   3.272   9.825 -0.3942  0.7651 -2.2487
  760MOL0     H  314   9.942   3.351  10.049  1.8897 -0.3526  2.1739
  760MOL0     H  315  10.079   3.239  10.078  3.1599 -0.2430 -1.9656
  760MOL0     H  316   9.858   3.209   9.884  0.0695  0.6861  0.1144
  760MOL0     H  317   9.996   3.111   9.861 -2.3930  2.7309 -3.3922
  760MOL0     H  318   9.794   2.946  10.196 -2.8967  2.5916 -0.9789
  760MOL0     H  319  10.343   3.341   9.780 -2.6049 -2.2502  1.1969
  760MOL0     H  320  10.562   3.249   9.716  1.0117  0.7427  0.9963
  761MOL0     O  321   3.991   9.247   2.818  0.9651 -0.7250  0.4598
  761MOL0     C  322   3.931   9.335   2.755 -0.3060  0.2900 -0.5345
  761MOL0     O  323   3.963   9.467   2.753 -0.2082 -0.1203 -0.8045
  761MOL0     C  324   4.064   9.502   2.842  0.4755  0.0687 -0.5026
  761MOL0     C  325   4.058   9.482   2.982 -0.3516 -0.8815  0.3870
  761MOL0     C  326   4.160   9.541   3.059 -0.6360 -0.8321  0.0448
  761MOL0     C  327   4.271   9.613   3.004  0.4125  0.1486 -0.3891
  761MOL0     O  328   4.351   9.681   3.084 -0.4255 -0.5788 -0.5383
  761MOL0     C  329   4.458   9.757   3.026 -0.4840  0.3266  0.4764
  761MOL0     C  330   4.568   9.803   3.112 -0.4084  0.3285  0.0041
  761MOL0     C  331   4.681   9.700   3.128 -0.5058 -0.8484 -1.2261
  761MOL0     C  332   4.794   9.757   3.214  0.5525  0.2813  0.2036
  761MOL0     C  333   4.909   9.661   3.207 -0.3559 -0.3865  0.4908
  761MOL0     C  334   5.028   9.694   3.293 -0.1126 -0.6774  0.7664
  761MOL0     C  335   5.114   9.796   3.218  1.3201 -0.1388 -0.6831
  761MOL0     C  336   5.169   9.756   3.077  0.2714 -0.9819  0.5277
  761MOL0     N  337   5.250   9.864   3.011 -0.0075  0.1788 -0.2597
  761MOL0     C  338   5.267   9.995   3.048 -0.1806 -1.3239 -0.4565
  761MOL0     C  339   5.332  10.060   2.952  0.6950  0.4083  0.3684
  761MOL0     C  340   5.348  10.200   2.938 -0.2671 -0.9044  1.0554
  761MOL0     C  341   5.272  10.256   2.818 -0.7423 -0.1727  0.8928
  761MOL0     C  342   5.274  10.407   2.820  0.2711 -0.2932  0.5499
  761MOL0     C  343   5.204  10.471   2.699  0.7503 -0.0883  0.3969
  761MOL0     O  344   5.214  10.618   2.697  0.1063 -0.5444 -0.4779
  761MOL0     C  345   5.329  10.676   2.645  0.8145  0.5336  0.2988
  761MOL0     C  346   5.440  10.601   2.616  0.2100 -0.9684  0.7430
  761MOL0     C  347   5.565  10.671   2.589  0.2864 -0.7929  1.1450
  761MOL0     C  348   5.556  10.808   2.553  0.1438 -0.1362 -0.3326
  761MOL0     C  349   5.679  10.864   2.496 -0.5365  0.3059 -0.3891
  761MOL0     O  350   5.795  10.805   2.524  0.0700 -0.2638 -0.3073
  761MOL0     C  351   5.908  10.852   2.471  0.1137  0.4309  0.4378
  761MOL0     C  352   6.002  10.896   2.563 -0.3954 -0.7454  0.1711
  761MOL0     C  353   6.132  10.910   2.519 -0.9912  0.2844  0.2967
  761MOL0     C  354   6.171  10.903   2.381  0.7111  0.4454 -0.7072
  761MOL0     O  355   6.296  10.925   2.322  0.0258  0.0772 -0.2434
  761MOL0     C  356   6.376  11.031   2.380 -0.0614 -0.5873  0.1544
  761MOL0     C  357   6.490  11.059   2.289 -0.3122  0.4526 -0.4975
  761MOL0     C  358   6.622  11.057   2.360 -0.4884 -0.4099  0.3400
  761MOL0     C  359   6.723  11.142   2.283  0.4754 -0.1421 -0.6473
  761MOL0     C  360   6.874  11.131   2.319  0.1357  0.5152 -0.1753
  761MOL0     C  361   6.917  10.985   2.305 -0.4342 -0.1920 -0.2812
  761MOL0     C  362   7.069  10.963   2.284 -0.3779 -0.1810 -0.1425
  761MOL0     C  363   7.105  10.829   2.366 -0.5643 -0.9873  0.5056
  761MOL0    Cl  364   7.277  10.800   2.330  0.1703  0.3663 -0.3700
  761MOL0     C  365   6.074  10.862   2.294  0.6152 -0.7310  1.1829
  761MOL0     C  366   5.945  10.831   2.337  0.0025 -0.1022  0.1943
  761MOL0     O  367   5.666  10.964   2.423  0.1278  0.3064  0.0630
  761MOL0     C  368   5.440  10.884   2.577 -0.1311  0.1347  0.4968
  761MOL0     C  369   5.334  10.816   2.630  0.0647  0.0910  0.6137
  761MOL0     N  370   5.366   9.959   2.860  0.6234 -0.4605 -0.6403
  761MOL0     N  371   5.317   9.844   2.897  0.6054  0.1475  0.2103
  761MOL0     C  372   4.273   9.612   2.865  0.2418 -0.2410  0.7357
  761MOL0     C  373   4.172   9.556   2.786 -0.4833 -1.0091 -0.6331
  761MOL0     C  374   3.811   9.292   2.680 -0.0632  0.7654 -0.4827
  761MOL0     C  375   3.814   9.162   2.635 -0.6051 -0.3121  0.4187
  761MOL0     C  376   3.707   9.127   2.548 -0.3307 -1.0868 -0.1772
  761MOL0     C  377   3.588   9.201   2.529  0.0248  0.7068  0.9250
  761MOL0     O  378   3.481   9.155   2.456 -0.3016 -0.0391 -0.1607
  761MOL0     C  379   3.472   9.024   2.411 -0.6852  0.0279 -0.0658
  761MOL0     C  380   3.346   8.998   2.330  0.2791  0.3872 -0.6389
  761MOL0     C  381   3.217   9.062   2.366 -0.1251 -0.2085 -0.5340
  761MOL0     C  382   3.123   9.054   2.249 -0.0543 -0.1647  0.3774
  761MOL0     C  383   2.989   9.081   2.297  1.2760  0.6473  0.1551
  761MOL0     C  384   2.872   9.099   2.335 -0.4803  0.8368 -0.6829
  761MOL0     C  385   3.594   9.333   2.583  0.3492 -0.3487  0.3022
  761MOL0     C  386   3.703   9.378   2.649  0.7458  0.5205  0.4948
  761MOL0     H  387   3.980   9.414   3.015 -2.0475 -0.9275 -3.2279
  761MOL0     H  388   4.148   9.547   3.167  0.0597  2.1665  0.0474
  761MOL0     H  389   4.408   9.849   2.995  0.9186  1.2590  0.8874
  761MOL0     H  390   4.493   9.711   2.934  0.1190  2.9259 -0.6683
  761MOL0     H  391   4.520   9.840   3.202 -3.6609  1.9792 -2.2151
  761MOL0     H  392   4.617   9.885   3.059  0.7928 -0.4822 -0.1688
  761MOL0     H  393   4.710   9.664   3.029 -0.5582 -0.3869 -1.4113
  761MOL0     H  394   4.637   9.613   3.178  0.4587 -1.1684 -0.9214
  761MOL0     H  395   4.812   9.860   3.183  1.0309  0.6198  1.5353
  761MOL0     H  396   4.767   9.759   3.320  1.7870 -1.6547  0.6211
  761MOL0     H  397   4.941   9.639   3.105  0.6810  2.5195  0.0826
  761MOL0     H  398   4.873   9.563   3.239 -1.2007 -0.6806 -1.2581
  761MOL0     H  399   5.097   9.610   3.298  1.0027 -0.0870 -2.2738
  761MOL0     H  400   4.994   9.733   3.389 -1.9268  0.1506 -0.1551
  761MOL0     H  401   5.042   9.876   3.195  1.0836 -0.9187 -2.8785
  761MOL0     H  402   5.197   9.826   3.282  0.0374 -3.4084  2.8420
  761MOL0     H  403   5.097   9.702   3.015 -0.6022 -4.2061  3.9975
  761MOL0     H  404   5.243   9.680   3.099  0.6885 -1.3914 -2.0135
  761MOL0     H  405   5.218  10.037   3.135  2.7585  1.0709  0.1617
  761MOL0     H  406   5.452  10.231   2.922 -0.1006  0.1754  3.7817
  761MOL0     H  407   5.322  10.249   3.031  0.2896 -0.3129  0.9066
  761MOL0     H  408   5.170  10.216   2.811 -0.8788  0.3228 -0.2839
  761MOL0     H  409   5.330  10.215   2.735  1.4962 -2.1480  3.2729
  761MOL0     H  410   5.226  10.429   2.915 -0.9886  0.6597 -0.2672
  761MOL0     H  411   5.375  10.449   2.825  0.6378 -0.7583 -1.6792
  761MOL0     H  412   5.097  10.445   2.705  0.0156  1.2546 -3.8159
  761MOL0     H  413   5.225  10.418   2.606 -2.5595 -1.0974  0.0806
  761MOL0     H  414   5.435  10.493   2.609  0.1574 -0.8944 -4.0434
  761MOL0     H  415   5.654  10.617   2.560 -1.2930 -1.1261 -4.1676
  761MOL0     H  416   5.974  10.898   2.668 -0.8167 -2.8654  0.1494
  761MOL0     H  417   6.206  10.937   2.594 -1.2160 -0.9058  0.9645
  761MOL0     H  418   6.416  11.009   2.479  0.5897 -0.3863 -0.0563
  761MOL0     H  419   6.306  11.115   2.375 -1.8997 -1.8433  2.6861
  761MOL0     H  420   6.470  11.152   2.235  0.0040 -0.4974 -2.3460
  761MOL0     H  421   6.490  10.980   2.213  0.4363 -0.7438  0.7070
  761MOL0     H  422   6.660  10.955   2.362 -0.1577 -0.5084 -3.5027
  761MOL0     H  423   6.613  11.105   2.458 -0.1601  3.1574 -1.2176
  761MOL0     H  424   6.703  11.120   2.178 -0.0747  1.1530 -0.8274
  761MOL0     H  425   6.698  11.246   2.305  0.1182 -0.0923 -1.2819
  761MOL0     H  426   6.887  11.163   2.423 -0.3728 -0.7941  0.3074
  761MOL0     H  427   6.937  11.195   2.257 -1.8540  1.7983 -0.9992
  761MOL0     H  428   6.857  10.946   2.222 -1.1660 -3.0213  1.4224
  761MOL0     H  429   6.892  10.932   2.397  1.6675 -2.2660 -0.8014
  761MOL0     H  430   7.098  10.964   2.178 -0.0082  1.9521 -0.0661
  761MOL0     H  431   7.114  11.052   2.328 -1.0096 -1.0906  2.5609
  761MOL0     H  432   7.038  10.745   2.343 -0.7310 -1.6612  3.0878
  761MOL0     H  433   7.087  10.851   2.472 -1.0054  0.3805  0.1656
  761MOL0     H  434   6.110  10.847   2.193 -1.0347 -1.4784  0.6728
  761MOL0     H  435   5.884  10.795   2.254 -1.8994 -2.3867  2.4013
  761MOL0     H  436   5.441  10.991   2.556  0.4005 -0.2451 -1.6279
  761MOL0     H  437   5.241  10.871   2.642 -0.7571 -0.8204 -1.1282
  761MOL0     H  438   4.334   9.681   2.807  0.5639 -2.9812 -2.5656
  761MOL0     H  439   4.166   9.578   2.680 -0.1236 -1.5755 -0.7772
  761MOL0     H  440   3.912   9.116   2.640  0.4410  1.6316 -0.8331
  761MOL0     H  441   3.729   9.042   2.484 -1.1580  0.1349 -2.2257
  761MOL0     H  442   3.473   8.954   2.495 -0.4528  1.2957  1.0250
  761MOL0     H  443   3.563   9.000   2.356  0.0363 -0.2438  1.1971
  761MOL0     H  444   3.373   9.037   2.231 -0.3698  0.4170 -0.8068
  761MOL0     H  445   3.324   8.891   2.318 -2.1339  0.5543  1.5847
  761MOL0     H  446   3.239   9.163   2.404  1.0439 -0.3253 -0.8457
  761MOL0     H  447   3.171   9.000   2.442  0.1812 -2.2718 -1.9478
  761MOL0     H  448   3.165   9.127   2.179  2.2064  0.5293  2.3424
  761MOL0     H  449   3.106   8.961   2.194 -3.8451  0.6122 -0.0862
  761MOL0     H  450   2.772   9.108   2.373 -0.5113  0.0601 -0.5722
  761MOL0     H  451   3.508   9.397   2.570  0.9433  0.5990  0.9036
  761MOL0     H  452   3.695   9.474   2.699  0.0892  0.8439 -0.2138
  762MOL0     O  453   0.867   6.812   1.688  0.1735 -0.0004 -0.5004
  762MOL0     C  454   0.944   6.808   1.596 -0.6669  0.5603 -0.4949
  762MOL0     O  455   0.915   6.774   1.467 -0.0653 -0.0530  0.1097
  762MOL0     C  456   0.784   6.752   1.447 -1.0733 -0.7407  0.6056
  762MOL0     C  457   0.728   6.626   1.450 -0.6337 -0.8553  0.3272
  762MOL0     C  458   0.592   6.605   1.421  0.3432  0.8064 -0.0989
  762MOL0     C  459   0.512   6.708   1.379 -1.0451 -0.4706  0.2094
  762MOL0     O  460   0.393   6.663   1.337  0.2360 -0.5336 -0.0724
  762MOL0     C  461   0.298   6.748   1.280  0.3064  0.2968  1.0734
  762MOL0     C  462   0.173   6.656   1.267 -0.1006  0.1373 -0.5952
  762MOL0     C  463   0.193   6.531   1.180 -0.3341 -0.3887 -0.7029
  762MOL0     C  464   0.075   6.433   1.188  0.7255  0.1587 -0.2697
  762MOL0     C  465   0.094   6.300   1.124 -0.5098 -0.5264 -0.3769
  762MOL0     C  466  -0.035   6.216   1.122  0.5077 -0.4952  0.1719
  762MOL0     C  467  -0.004   6.074   1.080  0.6724 -0.7357 -0.3575
  762MOL0     C  468  -0.130   5.994   1.050  0.1560 -0.1883  0.4945
  762MOL0     N  469  -0.185   5.955   1.184  0.9108  0.4797  0.7857
  762MOL0     C  470  -0.262   6.032   1.260  0.4167  0.4465  0.4088
  762MOL0     C  471  -0.301   5.943   1.356 -0.0985  0.4039 -0.1268
  762MOL0     C  472  -0.405   5.951   1.455 -0.4977  0.0712 -0.1465
  762MOL0     C  473  -0.525   6.012   1.384  0.4062  1.7710 -0.3220
  762MOL0     C  474  -0.638   6.060   1.470  0.7236 -0.1104  0.0266
  762MOL0     C  475  -0.751   6.090   1.374  0.4628 -1.3969 -0.2135
  762MOL0     O  476  -0.875   6.079   1.447 -0.6436 -0.1940  0.0316
  762MOL0     C  477  -0.994   6.082   1.380 -0.4170  0.5513 -0.2938
  762MOL0     C  478  -1.106   6.066   1.455  0.1905  0.4448  0.2969
  762MOL0     C  479  -1.231   6.050   1.405 -0.0853 -0.0369 -0.3069
  762MOL0     C  480  -1.250   6.047   1.264 -0.0343  0.0921  0.3043
  762MOL0     C  481  -1.381   6.015   1.204 -1.1164  0.0805 -0.3257
  762MOL0     O  482  -1.414   6.084   1.095  0.2514 -0.5556  0.6272
  762MOL0     C  483  -1.539   6.073   1.033 -0.9009  0.2452  0.3136
  762MOL0     C  484  -1.546   6.050   0.896 -0.5737 -0.5275  0.4009
  762MOL0     C  485  -1.670   6.050   0.831  1.0331  0.4777 -0.4379
  762MOL0     C  486  -1.790   6.076   0.896 -0.1800 -0.8287 -0.2417
  762MOL0     O  487  -1.912   6.058   0.836 -0.3806  0.0103 -0.7266
  762MOL0     C  488  -1.927   6.091   0.698 -0.0568 -0.3277  0.7148
  762MOL0     C  489  -2.073   6.105   0.645  0.1800 -0.1889 -0.4496
  762MOL0     C  490  -2.158   6.222   0.706  0.0424  0.2313  0.2144
  762MOL0     C  491  -2.303   6.242   0.663  0.1865 -0.8154  0.6627
  762MOL0     C  492  -2.366   6.354   0.743  1.1164 -0.1698 -0.2307
  762MOL0     C  493  -2.513   6.384   0.697  0.4050 -0.0154  1.1374
  762MOL0     C  494  -2.572   6.468   0.819 -0.0774 -0.4221 -0.1019
  762MOL0     C  495  -2.722   6.518   0.804 -0.2023  0.5681  0.2419
  762MOL0    Cl  496  -2.829   6.372   0.798  0.5613  0.7077  0.4478
  762MOL0     C  497  -1.785   6.101   1.038  0.7634  0.1626 -0.5959
  762MOL0     C  498  -1.660   6.100   1.105  0.1232 -0.4527  0.7083
  762MOL0     O  499  -1.449   5.939   1.266 -0.0913 -0.4257  0.6699
  762MOL0     C  500  -1.143   6.079   1.177 -0.5537  0.5719  0.6698
  762MOL0     C  501  -1.015   6.102   1.243 -0.0517  0.4612  0.4098
  762MOL0     N  502  -0.234   5.822   1.344  0.7646  0.2102  0.1683
  762MOL0     N  503  -0.158   5.837   1.243 -0.3053 -0.0658 -0.2247
  762MOL0     C  504   0.567   6.835   1.362 -0.8142  0.3003  0.2554
  762MOL0     C  505   0.705   6.856   1.397  0.3629  0.2379 -0.1504
  762MOL0     C  506   1.083   6.848   1.622  0.4067  0.3347 -0.0699
  762MOL0     C  507   1.115   6.910   1.747 -0.0373  0.7348  0.6046
  762MOL0     C  508   1.245   6.947   1.777  0.4995 -0.0344 -0.1289
  762MOL0     C  509   1.345   6.919   1.685 -0.9170  0.1530 -0.4065
  762MOL0     O  510   1.477   6.950   1.715 -0.3397  0.4753 -0.2689
  762MOL0     C  511   1.545   6.830   1.765 -0.0854  0.0063 -0.3803
  762MOL0     C  512   1.496   6.793   1.908 -0.8153 -0.0531  0.4464
  762MOL0     C  513   1.603   6.708   1.982  0.1713 -0.1887  0.1194
  762MOL0     C  514   1.576   6.672   2.130  0.4111 -0.3800 -0.8982
  762MOL0     C  515   1.443   6.591   2.133 -0.1074 -0.2939  0.7137
  762MOL0     C  516   1.338   6.535   2.132  0.6154 -0.3807  0.1548
  762MOL0     C  517   1.323   6.837   1.570 -0.1640  0.2817 -0.0442
  762MOL0     C  518   1.187   6.808   1.532 -0.1109 -0.5745  0.5043
  762MOL0     H  519   0.793   6.547   1.486 -1.5667 -1.6977  0.1914
  762MOL0     H  520   0.543   6.508   1.422 -1.2295  1.5845  0.0409
  762MOL0     H  521   0.325   6.805   1.191  1.0982 -3.5332 -1.3956
  762MOL0     H  522   0.269   6.829   1.348  0.3324 -0.5560  2.1305
  762MOL0     H  523   0.095   6.708   1.211 -0.9184 -1.4804 -1.0127
  762MOL0     H  524   0.136   6.633   1.367 -0.5287 -1.1317 -1.0274
  762MOL0     H  525   0.282   6.476   1.213 -2.3085 -2.0201  2.3631
  762MOL0     H  526   0.204   6.565   1.077  1.1247  4.0425  0.6778
  762MOL0     H  527   0.045   6.421   1.292 -0.8288  0.4957 -0.6541
  762MOL0     H  528  -0.010   6.485   1.142  0.7166 -1.4452 -2.2410
  762MOL0     H  529   0.166   6.231   1.169 -0.0498 -0.6006 -1.2074
  762MOL0     H  530   0.133   6.334   1.027 -0.5059  4.0160  0.9728
  762MOL0     H  531  -0.101   6.262   1.048  1.3967 -0.9125 -0.9099
  762MOL0     H  532  -0.092   6.231   1.214  0.1750 -0.4463 -0.0377
  762MOL0     H  533   0.053   6.081   0.987  0.7212 -0.0259 -0.2789
  762MOL0     H  534   0.053   6.011   1.149 -2.4124 -1.5737  1.6339
  762MOL0     H  535  -0.099   5.907   0.991  1.9642  0.7401 -0.0030
  762MOL0     H  536  -0.204   6.042   0.984  1.3231 -2.4666 -2.7318
  762MOL0     H  537  -0.308   6.127   1.235 -0.1256 -0.4239 -2.2536
  762MOL0     H  538  -0.382   6.011   1.544  1.4167 -1.2686  0.3079
  762MOL0     H  539  -0.421   5.852   1.497  3.0932 -0.6863 -0.1997
  762MOL0     H  540  -0.546   5.939   1.305  3.0121 -0.1182  0.5964
  762MOL0     H  541  -0.493   6.106   1.337  1.2407  1.2427 -0.8519
  762MOL0     H  542  -0.668   5.978   1.536  2.3857 -1.5832 -0.9568
  762MOL0     H  543  -0.616   6.154   1.523 -0.6648 -0.2550  0.9270
  762MOL0     H  544  -0.759   6.017   1.293 -0.2460 -1.2028 -0.3266
  762MOL0     H  545  -0.740   6.191   1.333  2.5290 -1.4083  0.2436
  762MOL0     H  546  -1.097   6.050   1.562 -0.7082 -0.9169  0.1921
  762MOL0     H  547  -1.310   6.018   1.473 -0.2261  1.2004  0.1369
  762MOL0     H  548  -1.462   6.041   0.827 -2.2406 -0.8045 -1.6877
  762MOL0     H  549  -1.677   6.034   0.724 -0.6548 -2.2318 -0.0332
  762MOL0     H  550  -1.876   6.011   0.644  1.4566  1.4976 -0.6898
  762MOL0     H  551  -1.877   6.185   0.675 -3.9617  2.4524  2.3915
  762MOL0     H  552  -2.130   6.016   0.675  1.6960 -0.4689  1.7489
  762MOL0     H  553  -2.071   6.101   0.535 -1.9041 -3.4333 -0.5169
  762MOL0     H  554  -2.108   6.315   0.677 -2.8203  1.9420  0.3623
  762MOL0     H  555  -2.139   6.211   0.813  1.3592 -3.8696 -0.2591
  762MOL0     H  556  -2.301   6.261   0.556  0.0480 -1.0712  0.6150
  762MOL0     H  557  -2.352   6.146   0.682  0.7068 -2.0173 -3.2301
  762MOL0     H  558  -2.307   6.445   0.741 -0.8390  1.1447 -0.6226
  762MOL0     H  559  -2.372   6.321   0.848 -1.6977 -0.6585 -0.4784
  762MOL0     H  560  -2.570   6.295   0.666  2.0371  0.1497 -3.0067
  762MOL0     H  561  -2.518   6.431   0.598 -2.7144 -1.7976  0.3108
  762MOL0     H  562  -2.575   6.413   0.914  0.9537  1.8942  1.3410
  762MOL0     H  563  -2.509   6.557   0.826 -1.9647  1.2110 -2.4048
  762MOL0     H  564  -2.729   6.585   0.718 -1.4279 -0.2104 -0.2885
  762MOL0     H  565  -2.753   6.584   0.885  3.3269  1.0703  1.3684
  762MOL0     H  566  -1.871   6.130   1.097  0.7515 -0.0103 -0.5276
  762MOL0     H  567  -1.645   6.112   1.212 -1.0842 -1.1756  0.9783
  762MOL0     H  568  -1.155   6.086   1.070 -0.0701 -0.5401  0.5263
  762MOL0     H  569  -0.930   6.109   1.176  0.4836 -1.1827  0.8565
  762MOL0     H  570   0.506   6.909   1.312 -0.3454 -0.7137 -1.9079
  762MOL0     H  571   0.752   6.954   1.400  3.6031 -1.1987  0.4481
  762MOL0     H  572   1.044   6.938   1.825  2.8475  1.8169  3.0159
  762MOL0     H  573   1.268   7.009   1.863  1.6522 -0.6657  0.0390
  762MOL0     H  574   1.652   6.849   1.776  0.2809 -2.1141  0.1922
  762MOL0     H  575   1.539   6.747   1.695 -0.8945  0.9811 -1.4980
  762MOL0     H  576   1.483   6.891   1.957 -0.7509  2.4269 -3.9754
  762MOL0     H  577   1.408   6.729   1.898  0.1427 -1.3440  0.1314
  762MOL0     H  578   1.701   6.754   1.971  0.1892 -0.7306 -3.3884
  762MOL0     H  579   1.620   6.609   1.939  1.2071 -0.6816  1.6339
  762MOL0     H  580   1.664   6.613   2.156 -0.2824  0.3265  3.8935
  762MOL0     H  581   1.564   6.764   2.188  2.3767 -0.9057  0.4180
  762MOL0     H  582   1.239   6.494   2.127 -0.2749  1.0643  3.3533
  762MOL0     H  583   1.407   6.804   1.509  0.7196  1.7339  0.3277
  762MOL0     H  584   1.160   6.742   1.450 -0.9245  0.3387  0.0313
  763MOL0     O  585   4.871   8.096   9.719  0.3872  0.5587  0.4065
  763MOL0     C  586   4.890   7.991   9.784  0.5604  0.0414  0.0911
  763MOL0     O  587   4.815   7.871   9.768  0.0031  0.7943  0.7198
  763MOL0     C  588   4.706   7.868   9.688 -1.0417  0.5485 -0.1370
  763MOL0     C  589   4.720   7.874   9.548 -0.0846 -0.2854  0.2249
  763MOL0     C  590   4.606   7.873   9.464 -0.1068  0.0675  0.1087
  763MOL0     C  591   4.480   7.859   9.513  0.0787 -0.0709 -0.3422
  763MOL0     O  592   4.370   7.857   9.438 -0.1987 -0.0258 -0.7519
  763MOL0     C  593   4.363   7.907   9.297  0.0615 -0.4231 -0.0262
  763MOL0     C  594   4.246   7.830   9.227 -0.1727  0.6648 -0.7328
  763MOL0     C  595   4.107   7.861   9.287 -0.6273  0.4485 -0.4738
  763MOL0     C  596   3.998   7.867   9.182 -1.0724  0.6448 -0.4689
  763MOL0     C  597   3.854   7.880   9.246 -1.0262 -1.0667 -0.2163
  763MOL0     C  598   3.752   7.923   9.142 -0.0439 -0.4232 -0.5766
  763MOL0     C  599   3.612   7.903   9.193 -1.0572 -0.1534 -0.2800
  763MOL0     C  600   3.566   7.759   9.196 -0.8552 -0.0531 -0.1499
  763MOL0     N  601   3.426   7.757   9.244  0.2665  0.7193 -0.4967
  763MOL0     C  602   3.378   7.774   9.367 -0.1395  0.2848  0.3033
  763MOL0     C  603   3.245   7.748   9.364  0.1541 -0.1896 -0.0325
  763MOL0     C  604   3.140   7.755   9.476 -1.0550  0.6031  1.0175
  763MOL0     C  605   2.994   7.709   9.429  0.0158 -0.5657 -0.3484
  763MOL0     C  606   2.897   7.716   9.546  0.7456  0.6254 -0.5167
  763MOL0     C  607   2.772   7.645   9.505  0.4651 -0.3979 -0.1295
  763MOL0     O  608   2.680   7.638   9.613  0.5001 -0.3319  0.1775
  763MOL0     C  609   2.571   7.718   9.639 -0.7899  0.1367  0.2105
  763MOL0     C  610   2.480   7.667   9.737  0.0231 -0.4912  0.5464
  763MOL0     C  611   2.377   7.744   9.782  0.7195  0.2305  0.5713
  763MOL0     C  612   2.358   7.875   9.737 -0.6612  0.4058  0.7508
  763MOL0     C  613   2.246   7.960   9.794  0.2362  0.2716  1.1175
  763MOL0     O  614   2.161   7.895   9.879  0.0213  0.3261  0.4766
  763MOL0     C  615   2.062   7.966   9.930  0.5341  0.0259 -0.0459
  763MOL0     C  616   2.057   7.986  10.066  0.3963  0.7675 -0.0361
  763MOL0     C  617   1.953   8.053  10.121 -0.3673 -0.6028 -0.5806
  763MOL0     C  618   1.852   8.117  10.047 -1.1726  1.0129 -0.3342
  763MOL0     O  619   1.755   8.205  10.098 -0.3100  0.2679  0.1574
  763MOL0     C  620   1.726   8.176  10.238  0.7022  0.2247  0.9251
  763MOL0     C  621   1.596   8.260  10.276  0.2514  0.3015  1.0693
  763MOL0     C  622   1.560   8.235  10.423 -0.5290 -0.0739  0.6277
  763MOL0     C  623   1.431   8.306  10.460  0.7110 -0.3487 -0.1149
  763MOL0     C  624   1.381   8.285  10.604 -0.2286  0.2190 -0.3648
  763MOL0     C  625   1.350   8.145  10.636 -0.3681 -0.0553  0.1932
  763MOL0     C  626   1.266   8.142  10.761 -0.8896  0.4183  1.0774
  763MOL0     C  627   1.300   8.014  10.842 -0.1575 -0.4124 -0.1657
  763MOL0    Cl  628   1.154   7.977  10.940  0.6774 -0.3565  0.0870
  763MOL0     C  629   1.862   8.103   9.908  0.4576 -0.1269  0.8503
  763MOL0     C  630   1.957   8.018   9.848  0.0194 -0.6266 -0.5121
  763MOL0     O  631   2.238   8.077   9.759 -0.1987  0.2540 -0.8277
  763MOL0     C  632   2.455   7.932   9.652  0.0283  0.7415  0.3315
  763MOL0     C  633   2.553   7.846   9.594  0.9229 -0.6681  0.2661
  763MOL0     N  634   3.219   7.732   9.230  0.8001  0.1922 -0.1461
  763MOL0     N  635   3.324   7.730   9.160  0.1134  0.3728 -1.0332
  763MOL0     C  636   4.468   7.838   9.651 -0.5482 -0.6633 -0.6320
  763MOL0     C  637   4.580   7.846   9.743  0.6623 -0.1748 -0.4379
  763MOL0     C  638   5.007   7.999   9.868 -0.3387  0.0325  0.5730
  763MOL0     C  639   5.102   8.095   9.851  0.1838  0.6753  0.3835
  763MOL0     C  640   5.209   8.095   9.940 -0.7480 -0.3201 -0.0476
  763MOL0     C  641   5.228   8.006  10.040  0.5582  0.7399 -0.0021
  763MOL0     O  642   5.344   8.028  10.115  0.8026  0.6980 -0.4114
  763MOL0     C  643   5.370   7.959  10.239  0.2064 -0.0305 -0.0503
  763MOL0     C  644   5.477   8.027  10.313 -0.1334  0.1945 -0.8309
  763MOL0     C  645   5.604   8.057  10.236 -0.8314 -0.0208 -0.2858
  763MOL0     C  646   5.732   8.053  10.329 -0.1849  0.4246 -1.1446
  763MOL0     C  647   5.717   8.165  10.420  0.0932 -0.4738  0.7222
  763MOL0     C  648   5.700   8.263  10.492 -0.3319  0.8552 -0.1950
  763MOL0     C  649   5.139   7.907  10.054  0.3219 -0.3261  0.5152
  763MOL0     C  650   5.034   7.902   9.969  0.4365 -0.2499  0.8481
  763MOL0     H  651   4.815   7.896   9.500 -0.4124 -2.0277 -1.3206
  763MOL0     H  652   4.614   7.883   9.356  0.5823  0.3053  0.1810
  763MOL0     H  653   4.448   7.873   9.239  0.6821 -4.0430  2.6558
  763MOL0     H  654   4.345   8.015   9.293  1.0112 -0.2514  0.0587
  763MOL0     H  655   4.262   7.723   9.239  2.2701  1.1939  1.9878
  763MOL0     H  656   4.242   7.868   9.125  0.2815  0.2966 -0.8904
  763MOL0     H  657   4.102   7.946   9.356 -1.6201 -0.3054  0.4125
  763MOL0     H  658   4.083   7.789   9.365  1.0649  0.7712  0.3977
  763MOL0     H  659   4.015   7.953   9.116  1.8892  0.6335  0.1781
  763MOL0     H  660   3.988   7.776   9.120 -0.0059  0.9228 -1.0785
  763MOL0     H  661   3.866   7.961   9.319  2.3636 -0.4623 -1.2497
  763MOL0     H  662   3.818   7.791   9.297 -2.5414 -0.8619 -0.8871
  763MOL0     H  663   3.760   7.858   9.055 -1.6361 -0.2431 -0.8769
  763MOL0     H  664   3.767   8.027   9.110 -1.9327 -0.3277 -1.2356
  763MOL0     H  665   3.608   7.950   9.292  1.9102  0.3145 -0.2878
  763MOL0     H  666   3.547   7.955   9.122 -0.9404 -1.2890 -1.2426
  763MOL0     H  667   3.635   7.703   9.260 -1.2355  1.0323  1.2552
  763MOL0     H  668   3.586   7.719   9.096  3.0145  0.7298  0.1724
  763MOL0     H  669   3.447   7.800   9.447  0.1541  0.0266  0.1388
  763MOL0     H  670   3.138   7.859   9.509  3.3677  1.7791 -1.6338
  763MOL0     H  671   3.173   7.681   9.550 -2.0481 -1.1668 -0.2321
  763MOL0     H  672   3.005   7.608   9.389  3.5868  0.6798 -3.1877
  763MOL0     H  673   2.969   7.771   9.342  0.4520 -1.2543 -0.9813
  763MOL0     H  674   2.937   7.664   9.634  0.3550 -2.2985 -1.9456
  763MOL0     H  675   2.863   7.819   9.563  0.9704  1.1380 -2.9204
  763MOL0     H  676   2.807   7.544   9.481  2.7559  0.5289 -1.0225
  763MOL0     H  677   2.729   7.697   9.420  1.7280  1.1181  0.1215
  763MOL0     H  678   2.481   7.568   9.779 -0.6535 -1.3423 -1.3288
  763MOL0     H  679   2.311   7.705   9.860  0.1539 -0.1009 -0.0598
  763MOL0     H  680   2.142   7.943  10.118 -0.3584  0.1490  0.7219
  763MOL0     H  681   1.961   8.068  10.228  2.2758  3.3846 -1.1189
  763MOL0     H  682   1.808   8.206  10.304  2.1003 -1.2189 -0.0833
  763MOL0     H  683   1.708   8.069  10.249  0.1767  0.4181  2.0630
  763MOL0     H  684   1.516   8.239  10.204  1.1600 -0.4448  0.2400
  763MOL0     H  685   1.625   8.365  10.263  0.0522  0.2981  0.5467
  763MOL0     H  686   1.636   8.279  10.487 -0.0590 -0.3833  0.2837
  763MOL0     H  687   1.538   8.129  10.438 -0.4635 -0.2995 -0.7066
  763MOL0     H  688   1.457   8.411  10.451  0.2124 -0.3410 -1.8133
  763MOL0     H  689   1.351   8.285  10.387  0.9388  1.2127 -0.8427
  763MOL0     H  690   1.292   8.349  10.601 -1.5390 -1.5693 -1.5045
  763MOL0     H  691   1.455   8.326  10.674  1.1751  1.0149 -2.2528
  763MOL0     H  692   1.441   8.090  10.660 -1.3227 -1.3068  1.1017
  763MOL0     H  693   1.291   8.085  10.566 -1.9749 -1.2656  2.4542
  763MOL0     H  694   1.303   8.225  10.821  2.3170  0.6021 -0.9035
  763MOL0     H  695   1.158   8.142  10.739 -1.1263  1.5803  2.1640
  763MOL0     H  696   1.384   8.041  10.907 -1.4320 -0.3942  1.5567
  763MOL0     H  697   1.322   7.924  10.783 -0.0210 -0.3900 -0.1492
  763MOL0     H  698   1.784   8.150   9.848  2.5182  1.4890 -0.6871
  763MOL0     H  699   1.967   7.999   9.742 -0.0821 -0.3721 -0.5684
  763MOL0     H  700   2.455   8.040   9.639  3.4752  0.7105 -0.9516
  763MOL0     H  701   2.620   7.894   9.523  0.3939  0.1682  0.3138
  763MOL0     H  702   4.370   7.807   9.686 -0.0937 -1.1743  0.2050
  763MOL0     H  703   4.563   7.810   9.844  0.1291 -4.9666 -1.9546
  763MOL0     H  704   5.098   8.173   9.776  0.7592  1.4745  1.1693
  763MOL0     H  705   5.284   8.172   9.924  1.2105 -2.2657 -0.6553
  763MOL0     H  706   5.400   7.855  10.222 -0.8555 -0.6463  1.6505
  763MOL0     H  707   5.281   7.965  10.302  0.0997 -2.3277  0.1140
  763MOL0     H  708   5.434   8.115  10.362  2.4124  0.5900  0.8876
  763MOL0     H  709   5.503   7.956  10.391  0.4695 -1.8820 -2.8263
  763MOL0     H  710   5.605   8.149  10.177 -0.4458 -0.4148 -0.9005
  763MOL0     H  711   5.613   7.967  10.174 -2.9258 -1.6251  1.5496
  763MOL0     H  712   5.753   7.957  10.376  1.6322  1.5936  0.6453
  763MOL0     H  713   5.820   8.074  10.267  0.9005 -0.4313  0.0489
  763MOL0     H  714   5.672   8.359  10.530  1.1516  2.0672 -2.0400
  763MOL0     H  715   5.143   7.821  10.119 -0.4341 -0.5818  0.2347
  763MOL0     H  716   4.949   7.834   9.970 -0.9031  1.2838 -0.6431
  764MOL0     O  717   4.210   9.846   2.452  0.0048  0.4413  1.0290
  764MOL0     C  718   4.267   9.740   2.448 -0.1885  0.3854 -0.6649
  764MOL0     O  719   4.238   9.631   2.368 -0.1537  0.6922  0.0960
  764MOL0     C  720   4.111   9.631   2.308 -1.3676 -0.4938 -0.5883
  764MOL0     C  721   4.004   9.565   2.363 -0.4468  0.2749 -0.1794
  764MOL0     C  722   3.890   9.549   2.291 -0.3174  0.8371  0.5829
  764MOL0     C  723   3.873   9.594   2.156  0.3651 -0.0223  0.3155
  764MOL0     O  724   3.751   9.573   2.105  0.9702  0.5763 -0.0024
  764MOL0     C  725   3.715   9.612   1.975  0.0927 -0.1435 -0.1139
  764MOL0     C  726   3.569   9.567   1.950  0.2128  0.5111  0.5027
  764MOL0     C  727   3.522   9.624   1.815  0.2665  0.0037 -0.0691
  764MOL0     C  728   3.387   9.556   1.783 -0.1072  0.6726  0.5725
  764MOL0     C  729   3.328   9.603   1.653 -0.2937  1.1216  0.0019
  764MOL0     C  730   3.213   9.511   1.631 -0.5467  0.6359 -0.0310
  764MOL0     C  731   3.142   9.534   1.495 -0.3719  0.2704  0.3379
  764MOL0     C  732   3.053   9.413   1.454  0.3212  0.3803  0.2589
  764MOL0     N  733   2.915   9.429   1.491  0.0813  0.8089  0.4547
  764MOL0     C  734   2.815   9.351   1.432 -0.1481  0.1329 -0.8218
  764MOL0     C  735   2.708   9.382   1.509 -0.1191 -0.5625 -0.4847
  764MOL0     C  736   2.567   9.328   1.496  0.6292  0.3254 -0.4509
  764MOL0     C  737   2.553   9.205   1.591  0.8956  0.4996  0.3247
  764MOL0     C  738   2.400   9.173   1.614 -0.8727 -0.0071  0.0415
  764MOL0     C  739   2.374   9.024   1.657 -0.1722 -1.0931  0.1748
  764MOL0     O  740   2.374   8.938   1.542 -0.0508 -0.1295 -0.1059
  764MOL0     C  741   2.247   8.893   1.499  0.0174  0.2694  0.6596
  764MOL0     C  742   2.118   8.949   1.532 -0.4006 -0.1375 -0.1730
  764MOL0     C  743   2.000   8.880   1.490 -0.5744 -0.7258 -0.0104
  764MOL0     C  744   1.999   8.771   1.412  0.0613  0.3495  0.0116
  764MOL0     C  745   1.869   8.701   1.379 -0.3506 -0.2719  0.6110
  764MOL0     O  746   1.752   8.780   1.380 -0.1739  0.3590  0.4008
  764MOL0     C  747   1.636   8.733   1.334 -0.1349  1.2091  0.7085
  764MOL0     C  748   1.634   8.681   1.201 -0.4515 -0.5805 -0.2785
  764MOL0     C  749   1.517   8.622   1.153  0.0544  0.1842 -0.6150
  764MOL0     C  750   1.397   8.625   1.226 -0.8329  1.4965  0.5076
  764MOL0     O  751   1.289   8.576   1.159 -0.7160 -0.0678  0.3629
  764MOL0     C  752   1.172   8.646   1.188 -0.1531  0.0108 -0.0575
  764MOL0     C  753   1.053   8.590   1.100 -0.9875 -0.1703  0.3151
  764MOL0     C  754   1.067   8.644   0.952  0.5782 -0.7721 -0.1960
  764MOL0     C  755   1.133   8.537   0.855 -0.4277  0.6280  0.1370
  764MOL0     C  756   1.161   8.576   0.708 -0.1296 -0.4058 -0.2981
  764MOL0     C  757   1.223   8.721   0.694 -0.0152  0.5138 -0.4111
  764MOL0     C  758   1.286   8.732   0.562 -0.2282  0.7889 -0.4714
  764MOL0     C  759   1.358   8.866   0.543  0.0816  0.4408  0.0888
  764MOL0    Cl  760   1.398   8.906   0.368 -0.2392  0.1551 -0.2509
  764MOL0     C  761   1.404   8.668   1.364 -0.2866 -0.3103  0.7945
  764MOL0     C  762   1.522   8.731   1.414 -1.1451 -0.1384  0.0925
  764MOL0     O  763   1.879   8.589   1.336  0.4132 -0.0830 -0.0708
  764MOL0     C  764   2.135   8.717   1.384  0.4680  1.0232 -0.4052
  764MOL0     C  765   2.252   8.778   1.428 -0.2297 -0.3586 -0.6896
  764MOL0     N  766   2.745   9.464   1.616 -0.3336  0.4755  0.2324
  764MOL0     N  767   2.872   9.495   1.600 -0.0789 -0.3269  1.3961
  764MOL0     C  768   3.988   9.653   2.094  0.1176 -0.0961  0.0887
  764MOL0     C  769   4.102   9.672   2.175  0.8699  0.4751  0.5430
  764MOL0     C  770   4.391   9.722   2.533 -0.3259  0.1707  1.1885
  764MOL0     C  771   4.466   9.596   2.532  0.3245 -0.4495 -0.3566
  764MOL0     C  772   4.582   9.579   2.594  1.0064  0.0209 -0.0930
  764MOL0     C  773   4.630   9.681   2.673  0.3866  0.3216  0.4568
  764MOL0     O  774   4.749   9.648   2.733 -0.0132  0.1126 -0.1590
  764MOL0     C  775   4.829   9.749   2.791 -0.6625 -0.6719 -1.1430
  764MOL0     C  776   4.879   9.850   2.687  0.3739 -0.8388 -0.3715
  764MOL0     C  777   5.023   9.890   2.723 -0.6628  0.1574  1.3738
  764MOL0     C  778   5.102   9.969   2.614  0.2330  0.5052 -0.2498
  764MOL0     C  779   5.051  10.101   2.602 -0.0099 -0.6125  0.2066
  764MOL0     C  780   5.014  10.215   2.592 -0.7245 -0.3898  0.5315
  764MOL0     C  781   4.568   9.806   2.681  0.8917 -0.5656  0.7760
  764MOL0     C  782   4.449   9.828   2.612  1.1439  0.8322 -0.7229
  764MOL0     H  783   4.020   9.518   2.459  0.4207  0.2759 -0.3097
  764MOL0     H  784   3.809   9.488   2.330  1.1203 -0.5824  1.4570
  764MOL0     H  785   3.785   9.578   1.898 -0.5805 -0.4308 -0.6031
  764MOL0     H  786   3.716   9.722   1.972  1.4830 -0.1479 -0.5608
  764MOL0     H  787   3.500   9.601   2.028  1.2480 -0.6156  1.9846
  764MOL0     H  788   3.564   9.457   1.948 -1.9307  0.5842 -1.1767
  764MOL0     H  789   3.590   9.593   1.735  0.5371  2.3509 -0.8090
  764MOL0     H  790   3.527   9.733   1.821  0.0948  0.0084 -0.0183
  764MOL0     H  791   3.414   9.450   1.772 -1.5656  0.4719 -1.5286
  764MOL0     H  792   3.326   9.575   1.872  0.4137 -1.6966  1.5148
  764MOL0     H  793   3.404   9.586   1.576  0.8781 -0.9889  1.5186
  764MOL0     H  794   3.301   9.709   1.650 -0.4286  1.1940  2.2631
  764MOL0     H  795   3.140   9.517   1.712 -0.3129  1.9748  0.1143
  764MOL0     H  796   3.250   9.409   1.621 -1.4603  0.1233  1.4828
  764MOL0     H  797   3.099   9.633   1.479  1.3889  0.9737 -0.3213
  764MOL0     H  798   3.227   9.536   1.426 -0.3465 -1.7237  0.2779
  764MOL0     H  799   3.086   9.328   1.513  2.2524  0.0924 -1.1123
  764MOL0     H  800   3.068   9.382   1.350 -0.6728 -1.4658  0.6244
  764MOL0     H  801   2.828   9.294   1.340  4.8994  1.7944 -1.4708
  764MOL0     H  802   2.548   9.317   1.389  0.1579 -3.5218 -0.1195
  764MOL0     H  803   2.492   9.400   1.530 -0.9930 -2.0920  1.3920
  764MOL0     H  804   2.604   9.220   1.686  1.6723 -5.0100  1.1628
  764MOL0     H  805   2.596   9.115   1.545  0.1765  0.4484 -0.2585
  764MOL0     H  806   2.363   9.239   1.693 -2.2614 -2.7995  1.8644
  764MOL0     H  807   2.345   9.189   1.521 -0.3488 -1.1379 -0.4768
  764MOL0     H  808   2.279   9.029   1.712 -1.8016 -0.2607 -2.5014
  764MOL0     H  809   2.451   8.991   1.727 -0.4243  0.7633  1.3993
  764MOL0     H  810   2.103   9.040   1.589  1.1476  2.0891 -3.0224
  764MOL0     H  811   1.908   8.930   1.519 -0.1694 -0.1570  0.3218
  764MOL0     H  812   1.723   8.693   1.140  0.8239  0.2024  1.5968
  764MOL0     H  813   1.511   8.561   1.064  0.9920 -3.4177  1.5598
  764MOL0     H  814   1.190   8.754   1.183  2.1304 -0.3512 -1.1751
  764MOL0     H  815   1.144   8.626   1.292 -0.6612 -0.4336 -0.2757
  764MOL0     H  816   0.964   8.629   1.151  0.4175  2.7168  0.8228
  764MOL0     H  817   1.056   8.481   1.106  1.2787 -0.0894  2.4717
  764MOL0     H  818   1.138   8.726   0.943 -0.9761  0.4537 -2.3525
  764MOL0     H  819   0.971   8.685   0.920  1.6202  0.9556 -1.2880
  764MOL0     H  820   1.228   8.520   0.906  0.3975  0.2910 -1.4814
  764MOL0     H  821   1.071   8.447   0.846 -0.6451  1.0200 -3.9361
  764MOL0     H  822   1.070   8.577   0.648 -0.7679  0.8564  0.6570
  764MOL0     H  823   1.230   8.501   0.666  0.9766  0.1687  0.4614
  764MOL0     H  824   1.308   8.722   0.764 -0.7199 -0.5816  0.4879
  764MOL0     H  825   1.158   8.808   0.709  1.6841  1.5716  1.4072
  764MOL0     H  826   1.368   8.660   0.551  0.5981  1.7913 -1.0243
  764MOL0     H  827   1.220   8.715   0.477 -2.7999 -2.3058  1.9054
  764MOL0     H  828   1.449   8.871   0.603  1.0338  0.0554 -1.2537
  764MOL0     H  829   1.286   8.941   0.576 -3.5817 -3.1501  1.0936
  764MOL0     H  830   1.319   8.664   1.431  0.4951 -1.8009  1.7713
  764MOL0     H  831   1.525   8.776   1.513 -0.3057 -0.1765  0.0886
  764MOL0     H  832   2.152   8.623   1.332 -0.0811  0.0660  1.0917
  764MOL0     H  833   2.350   8.739   1.400 -0.1103 -0.6522  0.1107
  764MOL0     H  834   3.976   9.688   1.992  0.4683 -2.6663 -0.9117
  764MOL0     H  835   4.193   9.700   2.122 -0.3381  0.3709 -1.7251
  764MOL0     H  836   4.436   9.513   2.468 -0.3347 -1.4173  1.1443
  764MOL0     H  837   4.636   9.486   2.607  1.4087  0.6291  3.8396
  764MOL0     H  838   4.919   9.702   2.831 -0.5698  0.5789  0.1883
  764MOL0     H  839   4.776   9.803   2.870 -1.5076  0.1217 -2.2066
  764MOL0     H  840   4.871   9.813   2.585 -0.8364 -0.2416 -0.5023
  764MOL0     H  841   4.811   9.936   2.680  0.4612 -0.7859 -0.5775
  764MOL0     H  842   5.085   9.802   2.741 -1.9117 -1.1798 -0.4953
  764MOL0     H  843   5.033   9.943   2.818  2.6725  1.8511  0.2537
  764MOL0     H  844   5.210   9.973   2.634  0.9364  0.1760 -3.5341
  764MOL0     H  845   5.091   9.923   2.516 -0.2171 -0.2571  0.1510
  764MOL0     H  846   4.973  10.314   2.599  0.6653  0.4088 -1.4724
  764MOL0     H  847   4.604   9.876   2.756 -1.4866  1.2034  0.4128
  764MOL0     H  848   4.399   9.924   2.618 -3.0989 -1.1779  0.2371
  765MOL0     O  849   0.297  10.605   8.552  0.1199  0.2270  0.2410
  765MOL0     C  850   0.328  10.721   8.540  0.3122  0.4283  0.2245
  765MOL0     O  851   0.244  10.829   8.585  0.0974  0.1071  0.1423
  765MOL0     C  852   0.117  10.794   8.628 -0.8934  1.3152  0.2656
  765MOL0     C  853   0.017  10.730   8.553 -0.4767  0.2847  0.5237
  765MOL0     C  854  -0.112  10.684   8.605 -0.5558 -0.8891 -0.7187
  765MOL0     C  855  -0.134  10.718   8.745 -0.2751 -0.5481  0.3453
  765MOL0     O  856  -0.254  10.696   8.812  0.1056  0.0140  0.3755
  765MOL0     C  857  -0.337  10.590   8.761  0.8181  0.3121  0.5178
  765MOL0     C  858  -0.459  10.580   8.856 -0.0234  0.1137 -0.2933
  765MOL0     C  859  -0.561  10.696   8.840  0.3646 -0.5172  0.0832
  765MOL0     C  860  -0.695  10.687   8.910 -0.0071 -0.5610 -0.5621
  765MOL0     C  861  -0.749  10.818   8.957  0.3369 -0.1887  0.2364
  765MOL0     C  862  -0.867  10.790   9.052  0.1732  0.2841 -0.0104
  765MOL0     C  863  -0.930  10.915   9.107  0.8399  0.0686 -0.6921
  765MOL0     C  864  -1.062  10.886   9.178  0.2001 -0.1138  0.1937
  765MOL0     N  865  -1.132  11.008   9.227 -0.2919  0.8239  0.3206
  765MOL0     C  866  -1.144  11.038   9.366  0.5393  0.0905  0.3638
  765MOL0     C  867  -1.254  11.119   9.370 -0.1855  0.6774 -0.5914
  765MOL0     C  868  -1.317  11.186   9.491 -0.0672 -0.0879  0.8139
  765MOL0     C  869  -1.228  11.185   9.614 -0.0656  0.6690 -0.9547
  765MOL0     C  870  -1.286  11.275   9.734  0.5729 -0.0633  0.8724
  765MOL0     C  871  -1.226  11.237   9.862 -0.4344  0.2695  0.2921
  765MOL0     O  872  -1.256  11.104   9.897  0.4344 -0.3385  0.9985
  765MOL0     C  873  -1.381  11.065   9.940 -0.6132  0.2538  0.2297
  765MOL0     C  874  -1.484  11.153   9.981 -0.1143 -0.9965 -0.5951
  765MOL0     C  875  -1.599  11.106  10.041 -0.1572  0.2927 -0.4305
  765MOL0     C  876  -1.626  10.968  10.064  0.2651  0.5025  0.0244
  765MOL0     C  877  -1.737  10.921  10.146  0.3797  0.9474 -0.1361
  765MOL0     O  878  -1.848  11.004  10.157 -0.1241 -0.2537  0.2429
  765MOL0     C  879  -1.950  10.970  10.241  0.3027 -0.2573 -0.8981
  765MOL0     C  880  -2.026  10.850  10.240 -0.0465 -0.5719 -0.3349
  765MOL0     C  881  -2.132  10.824  10.331  0.1887  0.6631  0.5385
  765MOL0     C  882  -2.168  10.921  10.434 -1.0337 -0.2677  0.1626
  765MOL0     O  883  -2.275  10.919  10.514 -0.5471  0.1614 -0.0139
  765MOL0     C  884  -2.383  10.821  10.493 -0.5000  0.6270 -0.3575
  765MOL0     C  885  -2.507  10.905  10.527 -0.0976  0.1471  1.0754
  765MOL0     C  886  -2.519  10.941  10.678 -0.2711  0.5133 -0.0044
  765MOL0     C  887  -2.590  11.074  10.695 -0.6898  0.2241  0.0414
  765MOL0     C  888  -2.594  11.104  10.850  0.1287 -1.2618  0.3777
  765MOL0     C  889  -2.464  11.107  10.915 -0.7318  0.6676 -1.1845
  765MOL0     C  890  -2.355  11.195  10.851 -0.7796 -0.5311 -0.3276
  765MOL0     C  891  -2.247  11.240  10.951 -0.5293  0.0442  0.4672
  765MOL0    Cl  892  -2.311  11.353  11.061 -0.0810  0.0304  0.4600
  765MOL0     C  893  -2.101  11.041  10.426 -0.8344  0.2033 -0.3013
  765MOL0     C  894  -1.997  11.070  10.337 -0.6408  1.0094  0.3148
  765MOL0     O  895  -1.724  10.816  10.209  0.3890  0.6193  0.5418
  765MOL0     C  896  -1.521  10.882  10.012  0.2649 -1.0157 -0.5045
  765MOL0     C  897  -1.408  10.928   9.943 -0.3371 -0.2001 -0.2850
  765MOL0     N  898  -1.306  11.120   9.244  0.2421 -0.5004  0.3570
  765MOL0     N  899  -1.232  11.061   9.153  0.3847  0.0660 -0.0834
  765MOL0     C  900  -0.035  10.791   8.820 -0.0645 -1.1454 -0.2581
  765MOL0     C  901   0.089  10.824   8.762  0.4576  0.5411  0.7586
  765MOL0     C  902   0.457  10.754   8.470  1.1583  0.7436 -0.2672
  765MOL0     C  903   0.522  10.652   8.405 -0.5811 -0.0966  0.1493
  765MOL0     C  904   0.650  10.671   8.339  0.2902  0.7431 -0.7946
  765MOL0     C  905   0.696  10.800   8.339 -0.0998 -0.4164  0.8959
  765MOL0     O  906   0.813  10.829   8.274 -0.3025 -1.1662 -0.4502
  765MOL0     C  907   0.936  10.785   8.331  0.0423  0.7400  1.1059
  765MOL0     C  908   0.951  10.843   8.471 -0.0012 -0.2046  0.7913
  765MOL0     C  909   1.069  10.791   8.559  0.3509  0.1263 -0.2254
  765MOL0     C  910   1.081  10.869   8.686 -0.1748  1.1883 -0.5037
  765MOL0     C  911   1.132  11.007   8.669 -0.0312 -0.1676  0.6907
  765MOL0     C  912   1.157  11.126   8.646 -0.0342  1.4889  0.1018
  765MOL0     C  913   0.621  10.907   8.394  0.3703  0.7071  0.4263
  765MOL0     C  914   0.505  10.881   8.469 -0.6648  0.1772 -0.1291
  765MOL0     H  915   0.046  10.703   8.452 -0.4837  0.3623  0.5013
  765MOL0     H  916  -0.193  10.640   8.548 -1.6859 -0.4907  0.5415
  765MOL0     H  917  -0.275  10.500   8.755 -1.5925 -1.3877 -0.2361
  765MOL0     H  918  -0.377  10.609   8.661 -0.7731  2.4080  1.4666
  765MOL0     H  919  -0.415  10.575   8.956 -0.6646  0.1348 -0.0049
  765MOL0     H  920  -0.514  10.487   8.839 -0.3438  0.3234 -0.3998
  765MOL0     H  921  -0.593  10.709   8.736 -3.0134 -2.2132  0.8073
  765MOL0     H  922  -0.509  10.787   8.874  0.5083 -1.5759  2.9389
  765MOL0     H  923  -0.774  10.637   8.853 -2.5773 -0.7190  2.8088
  765MOL0     H  924  -0.676  10.613   8.987  1.0027 -1.4186 -1.5956
  765MOL0     H  925  -0.779  10.870   8.866  2.1853 -0.6007 -0.6506
  765MOL0     H  926  -0.672  10.875   9.009  1.5744 -2.5951  1.2141
  765MOL0     H  927  -0.848  10.734   9.145  0.4521  5.2729  3.3176
  765MOL0     H  928  -0.940  10.735   8.991 -0.9247  0.8426  0.7707
  765MOL0     H  929  -0.872  10.972   9.180 -0.4734 -0.3532  0.7356
  765MOL0     H  930  -0.944  10.976   9.018  0.9307 -1.1950 -1.5994
  765MOL0     H  931  -1.046  10.813   9.257 -0.3269 -0.0600  0.3503
  765MOL0     H  932  -1.130  10.835   9.108  1.4208 -2.0984  0.3744
  765MOL0     H  933  -1.086  11.011   9.454  2.2644  2.1380 -0.0757
  765MOL0     H  934  -1.412  11.136   9.511 -2.7277  2.2006 -4.1861
  765MOL0     H  935  -1.339  11.290   9.464  0.3227 -0.2774 -0.3107
  765MOL0     H  936  -1.128  11.214   9.581  1.3873  0.3845  2.7052
  765MOL0     H  937  -1.222  11.083   9.655 -0.6298  0.6068 -1.0158
  765MOL0     H  938  -1.254  11.374   9.700  0.3240 -0.5809 -0.9674
  765MOL0     H  939  -1.395  11.283   9.743  0.1680 -2.5122 -0.8432
  765MOL0     H  940  -1.261  11.305   9.941 -1.8554 -0.1653  0.0619
  765MOL0     H  941  -1.118  11.258   9.864 -0.5911  1.1470  1.9182
  765MOL0     H  942  -1.465  11.259   9.992  0.6764 -1.2380  0.6094
  765MOL0     H  943  -1.673  11.176  10.076 -1.7707 -2.5288  2.3673
  765MOL0     H  944  -2.006  10.772  10.168  2.0438 -0.0399 -0.3761
  765MOL0     H  945  -2.199  10.739  10.322 -0.2604  1.0611  0.1136
  765MOL0     H  946  -2.367  10.736  10.561  0.2947  0.6833 -0.4576
  765MOL0     H  947  -2.393  10.780  10.392 -1.2252  1.1929 -0.5229
  765MOL0     H  948  -2.588  10.842  10.489  1.3973 -0.6240 -0.9829
  765MOL0     H  949  -2.513  10.996  10.466 -2.7121  0.0179  1.0476
  765MOL0     H  950  -2.417  10.945  10.719  0.9508 -3.6889 -2.0926
  765MOL0     H  951  -2.565  10.858  10.733  0.6643 -0.9153 -1.3027
  765MOL0     H  952  -2.535  11.153  10.643  1.8345 -0.2242  1.8176
  765MOL0     H  953  -2.692  11.078  10.659 -0.9751  1.9783  0.9217
  765MOL0     H  954  -2.659  11.022  10.882 -1.3597 -0.2509  0.0055
  765MOL0     H  955  -2.641  11.198  10.879  2.9724 -0.0579  1.5135
  765MOL0     H  956  -2.423  11.005  10.919  1.1716  1.4268 -0.4792
  765MOL0     H  957  -2.477  11.137  11.019  0.6214 -1.8349 -0.2087
  765MOL0     H  958  -2.309  11.157  10.759  0.9409 -0.6359  0.5391
  765MOL0     H  959  -2.411  11.284  10.820 -1.2042 -0.5533  0.3488
  765MOL0     H  960  -2.173  11.295  10.892 -1.6009  2.1626  0.9828
  765MOL0     H  961  -2.206  11.150  10.999  1.4411  0.1905 -0.8155
  765MOL0     H  962  -2.123  11.114  10.503  0.4220 -0.7941  1.0497
  765MOL0     H  963  -1.941  11.163  10.344  1.1004  0.8527 -5.8540
  765MOL0     H  964  -1.532  10.775  10.016 -4.8230 -0.6903  1.9882
  765MOL0     H  965  -1.324  10.868   9.909 -0.9301 -0.0399 -2.1360
  765MOL0     H  966  -0.066  10.829   8.917  0.3248  2.9760 -1.5558
  765MOL0     H  967   0.170  10.863   8.823  1.3271 -0.1638  0.0810
  765MOL0     H  968   0.479  10.555   8.389 -2.5463  0.5931  0.9891
  765MOL0     H  969   0.713  10.589   8.307  0.7330  1.1925 -1.0732
  765MOL0     H  970   1.025  10.809   8.272  0.8603 -0.0211  1.9865
  765MOL0     H  971   0.930  10.676   8.338  4.7318 -0.1833 -3.1722
  765MOL0     H  972   0.955  10.952   8.469  0.1334 -0.2237  0.0399
  765MOL0     H  973   0.860  10.815   8.526  1.5697 -0.9170  3.1978
  765MOL0     H  974   1.160  10.807   8.502  0.7729  0.5601  0.5569
  765MOL0     H  975   1.045  10.687   8.582 -3.3984  1.1657  1.4808
  765MOL0     H  976   0.981  10.863   8.729 -0.6858 -0.2192 -1.7990
  765MOL0     H  977   1.143  10.823   8.764 -3.4992  0.3232  1.8403
  765MOL0     H  978   1.191  11.223   8.617  2.0477  0.4712 -1.0328
  765MOL0     H  979   0.657  11.009   8.386 -0.7926  1.4420  3.1608
  765MOL0     H  980   0.442  10.959   8.512 -1.2940  0.3264 -1.2576
  766MOL0     O  981   3.980   0.315  10.786  1.2000  0.4343  0.1306
  766MOL0     C  982   4.042   0.405  10.846  0.2239  0.1446  0.0131
  766MOL0     O  983   3.987   0.504  10.930  0.5305  0.9051  0.2035
  766MOL0     C  984   3.853   0.473  10.957  0.3139 -0.2565  0.2553
  766MOL0     C  985   3.759   0.562  10.897  0.1267  0.4734 -0.0473
  766MOL0     C  986   3.627   0.551  10.918  1.1333 -1.0960  0.0362
  766MOL0     C  987   3.565   0.439  10.987  1.1692 -0.4309 -1.2108
  766MOL0     O  988   3.428   0.449  11.008 -0.6184 -0.5710  0.2702
  766MOL0     C  989   3.382   0.354  11.099  0.2528  0.1222  0.3728
  766MOL0     C  990   3.232   0.375  11.126 -1.6789 -0.5454  0.6542
  766MOL0     C  991   3.169   0.247  11.160 -0.0054  0.4613  0.3283
  766MOL0     C  992   3.019   0.263  11.212 -0.1546  0.2944  0.0916
  766MOL0     C  993   3.012   0.338  11.348  0.3271 -0.4531  0.2557
  766MOL0     C  994   2.860   0.381  11.371  0.3014  0.3143 -0.0343
  766MOL0     C  995   2.749   0.265  11.346 -0.0622 -0.7892  0.5869
  766MOL0     C  996   2.697   0.206  11.482 -0.0586  0.2677  0.2410
  766MOL0     N  997   2.566   0.131  11.468  0.2870 -0.3063  0.0290
  766MOL0     C  998   2.550   0.008  11.414 -1.0698  0.2587 -0.1138
  766MOL0     C  999   2.438  -0.035  11.447  0.2198 -0.3243  0.2968
  766MOL0     C 1000   2.387  -0.178  11.420 -0.0399 -0.7468 -0.3965
  766MOL0     C 1001   2.288  -0.231  11.524  0.5844  0.1531  0.0962
  766MOL0     C 1002   2.237  -0.379  11.493  0.2675  0.9276 -0.3542
  766MOL0     C 1003   2.202  -0.454  11.618 -0.3532  0.4437 -0.6272
  766MOL0     O 1004   2.114  -0.371  11.695  0.2555 -0.6522  0.8723
  766MOL0     C 1005   1.986  -0.357  11.645 -0.0419 -0.2468 -0.0325
  766MOL0     C 1006   1.907  -0.277  11.724 -0.6324  0.5680  0.0986
  766MOL0     C 1007   1.773  -0.252  11.695 -0.0002  0.4196  0.5522
  766MOL0     C 1008   1.711  -0.301  11.574 -0.6692  0.2614  0.3581
  766MOL0     C 1009   1.578  -0.264  11.523 -0.1517  0.5907  0.0916
  766MOL0     O 1010   1.520  -0.348  11.429  0.0962 -0.5568 -0.5135
  766MOL0     C 1011   1.399  -0.316  11.376 -0.1610 -0.6474 -0.7468
  766MOL0     C 1012   1.392  -0.239  11.260  0.4636  0.7659 -0.1920
  766MOL0     C 1013   1.264  -0.207  11.203 -0.0339 -0.4850 -0.4577
  766MOL0     C 1014   1.144  -0.252  11.262 -0.0683  0.3806  0.2367
  766MOL0     O 1015   1.027  -0.216  11.200  0.6641  0.3160 -0.3776
  766MOL0     C 1016   0.905  -0.247  11.261  1.2395  0.0979  0.7783
  766MOL0     C 1017   0.797  -0.148  11.209 -0.4916  1.1278  0.5275
  766MOL0     C 1018   0.651  -0.177  11.262  0.1632 -0.4888  0.1151
  766MOL0     C 1019   0.548  -0.070  11.205 -0.7322  1.0410 -0.5094
  766MOL0     C 1020   0.405  -0.104  11.258  0.4073  0.1426  0.3423
  766MOL0     C 1021   0.383  -0.096  11.410 -0.0610 -0.2551 -0.1071
  766MOL0     C 1022   0.235  -0.136  11.449 -0.1568 -0.7349  0.0290
  766MOL0     C 1023   0.210  -0.097  11.597  0.4374 -0.0900  0.2034
  766MOL0    Cl 1024   0.046  -0.051  11.639  0.1941  0.1751 -0.0115
  766MOL0     C 1025   1.158  -0.350  11.369  0.0523  0.2201  0.1699
  766MOL0     C 1026   1.281  -0.379  11.427  0.4104  0.6347  1.2014
  766MOL0     O 1027   1.522  -0.170  11.578 -0.4328 -0.1942 -0.3967
  766MOL0     C 1028   1.792  -0.387  11.505 -0.7197 -0.1879  0.4717
  766MOL0     C 1029   1.924  -0.418  11.534 -0.3270  0.2059 -0.4964
  766MOL0     N 1030   2.370   0.070  11.509 -0.2537  0.2055 -0.7130
  766MOL0     N 1031   2.449   0.172  11.517 -0.4491 -0.2758 -0.0452
  766MOL0     C 1032   3.658   0.343  11.022  0.3808  0.3859 -0.5505
  766MOL0     C 1033   3.797   0.353  11.007 -0.5976  0.6645  0.7983
  766MOL0     C 1034   4.196   0.404  10.816  0.5622 -0.2425 -0.3781
  766MOL0     C 1035   4.272   0.512  10.857  0.7051  0.1093 -0.7338
  766MOL0     C 1036   4.414   0.499  10.842  0.2499  0.0600 -0.3222
  766MOL0     C 1037   4.480   0.393  10.776 -0.1923 -0.2395  0.4715
  766MOL0     O 1038   4.615   0.388  10.745 -0.1677  0.1056 -0.5208
  766MOL0     C 1039   4.693   0.509  10.721  0.1550  0.2387 -0.4415
  766MOL0     C 1040   4.679   0.544  10.565  0.6302 -0.9642 -0.4971
  766MOL0     C 1041   4.790   0.634  10.510 -0.3578  0.0625  0.0244
  766MOL0     C 1042   4.930   0.562  10.507  1.1283  0.6482  0.3217
  766MOL0     C 1043   5.034   0.652  10.448  0.5773 -0.3212 -0.7264
  766MOL0     C 1044   5.116   0.714  10.388 -0.4894  0.4101 -1.1502
  766MOL0     C 1045   4.397   0.289  10.739  0.1856  0.6051 -0.7728
  766MOL0     C 1046   4.260   0.290  10.759 -0.1182  0.2998  0.2671
  766MOL0     H 1047   3.795   0.632  10.822  2.1324  0.6101  0.9847
  766MOL0     H 1048   3.564   0.628  10.875 -1.5454 -3.4593 -0.5943
  766MOL0     H 1049   3.443   0.361  11.190  1.8943  0.7511 -0.7211
  766MOL0     H 1050   3.396   0.257  11.051 -0.2820  1.2342 -2.1538
  766MOL0     H 1051   3.190   0.422  11.037 -3.3252 -1.2402  1.0254
  766MOL0     H 1052   3.224   0.450  11.205 -0.1340  0.5625 -0.1712
  766MOL0     H 1053   3.222   0.192  11.238 -0.3560  1.5613  1.3712
  766MOL0     H 1054   3.168   0.176  11.076  2.0217  0.7734 -0.0021
  766MOL0     H 1055   2.948   0.291  11.134  0.0800 -1.3020 -0.7469
  766MOL0     H 1056   2.984   0.160  11.229 -0.4920  0.4900  0.5892
  766MOL0     H 1057   3.079   0.424  11.356  0.5082 -0.5194 -0.4652
  766MOL0     H 1058   3.034   0.269  11.430 -1.9553  0.3433  1.6305
  766MOL0     H 1059   2.844   0.471  11.310  0.2331  1.1924  1.2220
  766MOL0     H 1060   2.848   0.427  11.470  1.4820  1.0486 -0.2077
  766MOL0     H 1061   2.658   0.302  11.298  0.8046  0.2803 -0.2824
  766MOL0     H 1062   2.782   0.187  11.277  0.5112  0.6783 -0.8420
  766MOL0     H 1063   2.685   0.297  11.542  3.7132  0.7840  0.4201
  766MOL0     H 1064   2.772   0.141  11.526  0.8236  1.3486  0.3806
  766MOL0     H 1065   2.629  -0.048  11.365  0.6757  3.5542 -1.3872
  766MOL0     H 1066   2.478  -0.238  11.426  1.1758  1.1010  0.9991
  766MOL0     H 1067   2.342  -0.183  11.320 -0.2678 -1.4348 -0.2599
  766MOL0     H 1068   2.211  -0.155  11.538  1.0335  0.2411  2.5567
  766MOL0     H 1069   2.329  -0.228  11.625 -0.9781  1.7592  0.7409
  766MOL0     H 1070   2.158  -0.386  11.418 -1.1334 -1.6655  1.2244
  766MOL0     H 1071   2.313  -0.439  11.441  0.3688  0.0047  0.8093
  766MOL0     H 1072   2.294  -0.471  11.676 -1.2879 -0.4743  0.6523
  766MOL0     H 1073   2.155  -0.552  11.603 -1.4499  1.1023 -1.5942
  766MOL0     H 1074   1.952  -0.229  11.810 -0.7087  1.6483 -0.4471
  766MOL0     H 1075   1.719  -0.188  11.763  1.4596  0.1493  2.0187
  766MOL0     H 1076   1.480  -0.194  11.216 -1.8717  4.4722 -1.5610
  766MOL0     H 1077   1.260  -0.147  11.114 -0.6458 -0.5148 -0.4552
  766MOL0     H 1078   0.915  -0.239  11.370  0.1062  0.1398  0.8851
  766MOL0     H 1079   0.875  -0.349  11.233  2.7283  0.3851 -2.2323
  766MOL0     H 1080   0.787  -0.174  11.103  2.9839 -0.7493  0.5120
  766MOL0     H 1081   0.828  -0.044  11.216 -1.7774  1.5283  0.4477
  766MOL0     H 1082   0.649  -0.178  11.371 -2.0556 -0.0432  0.1262
  766MOL0     H 1083   0.611  -0.274  11.232 -1.0453 -0.0571  0.2586
  766MOL0     H 1084   0.580   0.031  11.230  1.8769 -0.0496  0.9927
  766MOL0     H 1085   0.545  -0.077  11.096  1.7573 -0.4578 -0.5651
  766MOL0     H 1086   0.376  -0.201  11.216 -2.0768  0.8145  0.2902
  766MOL0     H 1087   0.335  -0.037  11.206  1.9934  0.6642 -1.1972
  766MOL0     H 1088   0.398   0.010  11.432 -3.6502  0.0971  1.3166
  766MOL0     H 1089   0.453  -0.162  11.462 -0.6933 -1.1645 -0.3896
  766MOL0     H 1090   0.177  -0.088  11.370 -2.0132 -3.2658 -0.2707
  766MOL0     H 1091   0.218  -0.241  11.425 -1.0641 -0.5373 -0.2327
  766MOL0     H 1092   0.276  -0.014  11.627 -0.9312  0.7891  0.8753
  766MOL0     H 1093   0.236  -0.170  11.675 -0.9733 -0.4031  0.4093
  766MOL0     H 1094   1.065  -0.400  11.395 -1.7183  3.1383 -0.1176
  766MOL0     H 1095   1.279  -0.448  11.511 -2.4796  0.8243  1.4110
  766MOL0     H 1096   1.753  -0.435  11.416  0.5477 -1.9100  0.8003
  766MOL0     H 1097   1.974  -0.486  11.467 -0.8125 -0.5858 -0.0711
  766MOL0     H 1098   3.632   0.247  11.064 -0.8770  0.7123 -0.5577
  766MOL0     H 1099   3.867   0.276  11.038  1.9991  1.7734 -1.8061
  766MOL0     H 1100   4.237   0.601  10.907  0.3141 -1.5841  2.2250
  766MOL0     H 1101   4.471   0.586  10.872 -0.8665  0.2987  1.2073
  766MOL0     H 1102   4.798   0.494  10.745  0.0687 -1.1823 -0.8717
  766MOL0     H 1103   4.659   0.589  10.788  0.5105  0.5123 -0.5832
  766MOL0     H 1104   4.672   0.458  10.497  0.3042  0.8125 -2.8458
  766MOL0     H 1105   4.582   0.592  10.551  0.4568 -1.2309 -0.2130
  766MOL0     H 1106   4.793   0.730  10.563 -2.1027 -0.0141  0.3078
  766MOL0     H 1107   4.769   0.663  10.406 -0.5042  1.9865  0.5495
  766MOL0     H 1108   4.954   0.527  10.608  0.3385 -2.9785 -0.5864
  766MOL0     H 1109   4.914   0.471  10.447 -2.1756  0.6872  0.9857
  766MOL0     H 1110   5.189   0.764  10.326  3.6132 -2.7573  0.6259
  766MOL0     H 1111   4.441   0.201  10.693 -0.2374  0.6942 -1.3675
  766MOL0     H 1112   4.207   0.206  10.716  1.0357  0.6962 -2.0710
  767MOL0     O 1113   5.636   5.691  10.710 -0.6288  0.1329 -0.2937
  767MOL0     C 1114   5.678   5.572  10.742 -0.2869  0.4542  0.4512
  767MOL0     O 1115   5.600   5.464  10.769 -0.8269  0.4227  0.1713
  767MOL0     C 1116   5.465   5.478  10.761  0.3990 -0.9071 -0.2077
  767MOL0     C 1117   5.412   5.418  10.651  0.7153  0.3770 -0.0040
  767MOL0     C 1118   5.273   5.418  10.643  0.1063 -0.3153 -0.2252
  767MOL0     C 1119   5.198   5.509  10.722  0.6792 -0.1583  0.7008
  767MOL0     O 1120   5.057   5.508  10.697 -0.1386 -0.4351 -0.5792
  767MOL0     C 1121   4.974   5.603  10.764  0.1004  0.2135 -0.4507
  767MOL0     C 1122   4.829   5.570  10.728  0.8617 -0.3021  0.2353
  767MOL0     C 1123   4.728   5.683  10.768 -0.2622 -0.0715  0.3148
  767MOL0     C 1124   4.606   5.695  10.667 -0.1622  0.5913 -0.0688
  767MOL0     C 1125   4.493   5.779  10.741 -0.8981 -0.0078 -0.3098
  767MOL0     C 1126   4.368   5.775  10.659 -0.2618  0.1407  0.2272
  767MOL0     C 1127   4.260   5.860  10.734  0.6764  0.0278 -0.6985
  767MOL0     C 1128   4.115   5.804  10.701  0.0678 -0.1034  0.3464
  767MOL0     N 1129   4.011   5.910  10.700 -0.5987  0.8611 -0.5516
  767MOL0     C 1130   3.965   5.976  10.586 -0.1179  0.4591 -0.4771
  767MOL0     C 1131   3.891   6.082  10.638 -0.7337  0.1417 -0.3964
  767MOL0     C 1132   3.832   6.198  10.563  0.4327 -0.7622  0.7776
  767MOL0     C 1133   3.681   6.219  10.580  0.4548 -0.3977 -0.1796
  767MOL0     C 1134   3.607   6.141  10.461  0.9727 -0.1764  0.2942
  767MOL0     C 1135   3.449   6.152  10.455 -0.0320  0.2289  0.0073
  767MOL0     O 1136   3.401   6.167  10.593  0.3104  0.0476  0.2772
  767MOL0     C 1137   3.269   6.186  10.624 -0.0488  0.2767 -0.3083
  767MOL0     C 1138   3.225   6.196  10.758  0.5931  0.3375 -0.5605
  767MOL0     C 1139   3.094   6.188  10.797  0.1973  0.2290  0.3916
  767MOL0     C 1140   2.997   6.159  10.702  0.1454  0.6078 -0.4037
  767MOL0     C 1141   2.855   6.148  10.747 -0.3168  0.7444 -0.0584
  767MOL0     O 1142   2.764   6.144  10.647 -0.0153 -0.7490 -0.6082
  767MOL0     C 1143   2.630   6.146  10.686 -0.0369  0.8498 -1.2053
  767MOL0     C 1144   2.578   6.028  10.738  0.5579 -0.2110  0.9529
  767MOL0     C 1145   2.448   6.026  10.799 -0.9124 -0.0813 -0.3275
  767MOL0     C 1146   2.359   6.132  10.786 -0.1223 -0.9407  0.2272
  767MOL0     O 1147   2.227   6.119  10.822 -0.7125 -0.4777  0.1332
  767MOL0     C 1148   2.163   6.247  10.842  0.2305 -0.4787  0.7674
  767MOL0     C 1149   2.035   6.221  10.909  0.5629 -0.4445 -0.8050
  767MOL0     C 1150   1.994   6.353  10.986  0.0716  0.0001 -0.0767
  767MOL0     C 1151   1.928   6.456  10.903 -0.2785  0.1941 -0.2937
  767MOL0     C 1152   1.792   6.408  10.845 -0.2361  0.7607 -0.3242
  767MOL0     C 1153   1.721   6.522  10.787 -0.2412  0.8410  0.3799
  767MOL0     C 1154   1.568   6.496  10.761 -0.1943 -0.1282  0.4276
  767MOL0     C 1155   1.528   6.364  10.695 -0.4870  0.1027  1.4824
  767MOL0    Cl 1156   1.359   6.326  10.693 -0.1407 -0.1018 -0.1075
  767MOL0     C 1157   2.413   6.241  10.714  0.3836 -0.2558  0.0392
  767MOL0     C 1158   2.547   6.246  10.678  0.3110 -0.5233  0.0913
  767MOL0     O 1159   2.833   6.133  10.863  0.1150  0.2128 -0.1452
  767MOL0     C 1160   3.034   6.156  10.562  0.7295  0.8209 -0.9504
  767MOL0     C 1161   3.171   6.171  10.532  1.2259 -0.0358  0.8122
  767MOL0     N 1162   3.882   6.071  10.773 -0.1892  0.5079 -0.5367
  767MOL0     N 1163   3.947   5.963  10.809  0.8527 -0.5384  0.1230
  767MOL0     C 1164   5.260   5.588  10.819  0.4702  0.1680 -0.4819
  767MOL0     C 1165   5.388   5.550  10.848 -0.1045  0.1435 -0.0203
  767MOL0     C 1166   5.824   5.562  10.761 -0.7340  0.5014  0.2856
  767MOL0     C 1167   5.902   5.672  10.755 -1.5170  0.5577 -0.6193
  767MOL0     C 1168   6.046   5.666  10.770  1.2613  0.3718  0.0929
  767MOL0     C 1169   6.105   5.549  10.803 -0.7919 -0.1729 -1.2410
  767MOL0     O 1170   6.244   5.548  10.807 -0.5438  0.1489 -1.4486
  767MOL0     C 1171   6.322   5.430  10.778  0.6799  0.8000 -0.3410
  767MOL0     C 1172   6.468   5.480  10.779 -0.1410 -0.2121 -0.0770
  767MOL0     C 1173   6.566   5.372  10.721  0.1997 -0.1764  0.2475
  767MOL0     C 1174   6.706   5.416  10.725 -0.6842 -0.6012 -0.0844
  767MOL0     C 1175   6.802   5.315  10.751  0.2332 -0.6624  0.0873
  767MOL0     C 1176   6.880   5.232  10.785 -0.6557  0.6450 -0.8247
  767MOL0     C 1177   6.030   5.433  10.793 -0.2420  0.0896  0.2556
  767MOL0     C 1178   5.890   5.441  10.786  1.0556 -0.9025 -0.2481
  767MOL0     H 1179   5.464   5.350  10.584 -2.7477 -1.4295 -1.0915
  767MOL0     H 1180   5.217   5.361  10.570 -0.1690  1.0897 -1.1589
  767MOL0     H 1181   5.005   5.701  10.726  0.5108 -0.2297 -1.2845
  767MOL0     H 1182   4.982   5.590  10.873  2.3605  0.2700 -0.5704
  767MOL0     H 1183   4.796   5.474  10.769  1.7146 -1.7052 -2.1671
  767MOL0     H 1184   4.822   5.562  10.619 -0.5872 -1.1994  0.3757
  767MOL0     H 1185   4.784   5.777  10.774  0.9007 -0.8077  1.4751
  767MOL0     H 1186   4.685   5.663  10.866 -2.9733  1.6225 -0.4164
  767MOL0     H 1187   4.627   5.745  10.572  0.5937 -0.5534 -0.5273
  767MOL0     H 1188   4.571   5.592  10.653  2.2972 -0.3741  0.2874
  767MOL0     H 1189   4.539   5.877  10.758 -0.8292  0.0028 -0.5523
  767MOL0     H 1190   4.470   5.729  10.835 -0.4246 -1.9027 -1.1559
  767MOL0     H 1191   4.332   5.673  10.644 -0.3916  0.3749 -1.1643
  767MOL0     H 1192   4.389   5.819  10.561  1.7601  1.5345  1.2264
  767MOL0     H 1193   4.259   5.871  10.843 -1.4821  0.8537 -0.7640
  767MOL0     H 1194   4.272   5.960  10.692 -0.3145  1.6566  2.5180
  767MOL0     H 1195   4.085   5.726  10.772 -2.1904 -0.3825 -0.8554
  767MOL0     H 1196   4.116   5.746  10.608  0.1998  2.4811 -1.3586
  767MOL0     H 1197   3.963   5.954  10.480 -0.3607  2.6338 -0.9808
  767MOL0     H 1198   3.853   6.182  10.457 -1.7873 -1.8659  0.4533
  767MOL0     H 1199   3.893   6.286  10.587  1.2509 -1.2332  0.4611
  767MOL0     H 1200   3.643   6.321  10.576  3.1957  0.6944 -1.2749
  767MOL0     H 1201   3.660   6.186  10.682  0.1556 -2.4119 -0.8565
  767MOL0     H 1202   3.644   6.183  10.367  0.5489 -1.2943 -0.3919
  767MOL0     H 1203   3.635   6.036  10.453  2.2071  0.0592  1.3763
  767MOL0     H 1204   3.412   6.063  10.402 -1.2047 -1.2741  3.0914
  767MOL0     H 1205   3.414   6.242  10.406  0.9201  1.0283  0.7396
  767MOL0     H 1206   3.295   6.216  10.839 -0.9484  2.0234  0.4247
  767MOL0     H 1207   3.067   6.208  10.901 -0.3126  1.2501  0.0691
  767MOL0     H 1208   2.641   5.940  10.730 -1.1100 -1.3789 -0.1054
  767MOL0     H 1209   2.405   5.937  10.844  0.3006 -2.2202 -3.0936
  767MOL0     H 1210   2.146   6.303  10.749  2.2117  2.2154  1.8934
  767MOL0     H 1211   2.234   6.314  10.892  0.1869  0.2067 -0.0471
  767MOL0     H 1212   2.045   6.137  10.979  0.2490  0.2727  0.1355
  767MOL0     H 1213   1.955   6.195  10.839 -0.6118  3.3181 -1.1165
  767MOL0     H 1214   2.070   6.395  11.053 -0.4576  0.5864  0.1759
  767MOL0     H 1215   1.912   6.329  11.055  1.9831  1.2496  2.8075
  767MOL0     H 1216   1.917   6.545  10.966  3.7076 -0.4528  1.6155
  767MOL0     H 1217   1.994   6.479  10.818  0.4412 -1.6709 -0.2826
  767MOL0     H 1218   1.737   6.369  10.931  1.4069 -1.1074 -0.0407
  767MOL0     H 1219   1.807   6.328  10.772 -0.5365  0.7222 -0.3447
  767MOL0     H 1220   1.768   6.549  10.692  0.6612  0.1121  0.6057
  767MOL0     H 1221   1.729   6.609  10.852 -2.2911  1.4781 -0.1261
  767MOL0     H 1222   1.512   6.509  10.854 -0.5897  1.5462 -0.0157
  767MOL0     H 1223   1.531   6.575  10.696 -1.4875 -1.3170 -0.3378
  767MOL0     H 1224   1.578   6.285  10.753 -2.3787  0.9450  4.4969
  767MOL0     H 1225   1.561   6.370  10.591  1.9831 -1.5683  2.0800
  767MOL0     H 1226   2.358   6.331  10.686 -0.6432 -0.5838  0.9084
  767MOL0     H 1227   2.584   6.336  10.631 -4.1244  1.3263 -0.3523
  767MOL0     H 1228   2.955   6.154  10.488 -0.4850 -1.4973  0.2952
  767MOL0     H 1229   3.195   6.169  10.427 -1.1208  0.5921  0.2031
  767MOL0     H 1230   5.201   5.653  10.882 -0.5161  0.3528 -1.5775
  767MOL0     H 1231   5.445   5.601  10.926  0.9296 -1.1278  0.0796
  767MOL0     H 1232   5.857   5.770  10.742 -2.0544  0.2339 -1.3169
  767MOL0     H 1233   6.109   5.750  10.743 -2.2275  2.0513 -3.9317
  767MOL0     H 1234   6.290   5.396  10.679  2.5321  0.3052 -0.7944
  767MOL0     H 1235   6.311   5.355  10.856  0.6284  0.5308 -0.6022
  767MOL0     H 1236   6.488   5.580  10.739  3.3638 -0.6910  0.1546
  767MOL0     H 1237   6.490   5.501  10.884 -0.1554  3.1439 -0.6190
  767MOL0     H 1238   6.545   5.351  10.615  2.5521  2.8796 -0.9761
  767MOL0     H 1239   6.552   5.281  10.779 -0.8337 -0.7028 -0.7726
  767MOL0     H 1240   6.730   5.471  10.634  0.8436 -0.1807  0.5296
  767MOL0     H 1241   6.707   5.491  10.805 -3.6046 -3.5217  3.0141
  767MOL0     H 1242   6.949   5.152  10.801  0.1927  1.2939 -1.1486
  767MOL0     H 1243   6.068   5.332  10.803 -3.2348 -1.4227 -1.7782
  767MOL0     H 1244   5.825   5.354  10.783 -0.3538  0.1373 -0.4045
  768MOL0     O 1245   3.456  10.663   5.032 -0.3399  0.2665  0.0735
  768MOL0     C 1246   3.496  10.624   4.926 -0.1911  0.2041  0.0822
  768MOL0     O 1247   3.428  10.647   4.808 -0.8641 -0.1946 -0.8867
  768MOL0     C 1248   3.302  10.708   4.796  0.0228 -0.2683  0.7707
  768MOL0     C 1249   3.269  10.765   4.670  0.9373  0.3426  0.6355
  768MOL0     C 1250   3.157  10.847   4.661  0.6992  1.1593  0.0417
  768MOL0     C 1251   3.062  10.864   4.758 -0.3715  0.1048 -0.0158
  768MOL0     O 1252   2.949  10.925   4.708 -0.1826  0.1942 -0.1530
  768MOL0     C 1253   2.833  10.942   4.788  0.9589 -0.5139 -0.6037
  768MOL0     C 1254   2.712  10.965   4.699  0.4752  0.8498 -0.0379
  768MOL0     C 1255   2.658  10.829   4.653  0.3933  0.4092  1.0048
  768MOL0     C 1256   2.529  10.843   4.567 -1.0599  0.2050  0.4551
  768MOL0     C 1257   2.462  10.706   4.552 -0.6188  0.4928 -0.4278
  768MOL0     C 1258   2.364  10.712   4.430 -0.6663 -0.0639 -0.5107
  768MOL0     C 1259   2.244  10.811   4.440  0.1898 -0.5415 -0.7895
  768MOL0     C 1260   2.141  10.762   4.344  0.1773  0.5116  0.0325
  768MOL0     N 1261   2.005  10.801   4.381 -0.7596 -1.2210 -0.7079
  768MOL0     C 1262   1.903  10.722   4.424  0.5279 -0.2256  0.0339
  768MOL0     C 1263   1.800  10.809   4.451 -0.6709  0.4652  1.1873
  768MOL0     C 1264   1.658  10.770   4.495 -0.3704  0.4982  0.1475
  768MOL0     C 1265   1.538  10.868   4.485  0.5867  0.0275 -0.0123
  768MOL0     C 1266   1.514  10.903   4.336 -0.0895 -0.3547  0.5956
  768MOL0     C 1267   1.366  10.917   4.296  0.5545  0.1106 -0.4867
  768MOL0     O 1268   1.292  10.984   4.397 -0.0402  0.1990  0.0791
  768MOL0     C 1269   1.161  10.948   4.417 -0.6774 -0.1175 -1.5122
  768MOL0     C 1270   1.077  10.860   4.349 -0.2113 -0.3075  0.1917
  768MOL0     C 1271   0.942  10.848   4.384  0.1073  0.5613 -1.0663
  768MOL0     C 1272   0.900  10.895   4.508  0.0179  0.1831 -0.2563
  768MOL0     C 1273   0.751  10.889   4.540  0.1480  1.0480 -0.3348
  768MOL0     O 1274   0.665  10.852   4.449 -0.2899  0.3229  0.3389
  768MOL0     C 1275   0.537  10.816   4.470  0.7545 -0.1882  0.1172
  768MOL0     C 1276   0.438  10.878   4.392  0.0883 -0.0668 -0.6851
  768MOL0     C 1277   0.302  10.840   4.413 -0.2268 -0.4477  0.4080
  768MOL0     C 1278   0.267  10.727   4.504 -0.0655 -0.1110 -0.0277
  768MOL0     O 1279   0.138  10.673   4.492  0.2113  0.2771  0.5606
  768MOL0     C 1280   0.085  10.612   4.608  0.1907  0.8581 -0.4207
  768MOL0     C 1281   0.014  10.481   4.585  1.0926 -0.2145 -0.3113
  768MOL0     C 1282  -0.033  10.415   4.725  0.7474 -0.9448 -0.3516
  768MOL0     C 1283  -0.156  10.333   4.717  0.0823  0.6469  0.6018
  768MOL0     C 1284  -0.182  10.239   4.836  0.5318 -0.3122  0.6891
  768MOL0     C 1285  -0.296  10.158   4.813 -0.5971 -0.1640 -0.0302
  768MOL0     C 1286  -0.340  10.072   4.924  0.0835 -0.1238 -0.9713
  768MOL0     C 1287  -0.349  10.140   5.057  0.8635 -0.9299  0.4249
  768MOL0    Cl 1288  -0.464  10.288   5.045  0.3701 -0.3136 -0.4401
  768MOL0     C 1289   0.369  10.671   4.582 -0.3154 -0.0439 -1.2598
  768MOL0     C 1290   0.498  10.724   4.570 -0.1263 -0.7802 -0.9160
  768MOL0     O 1291   0.737  10.915   4.660 -0.4040 -0.6105 -0.3030
  768MOL0     C 1292   0.988  10.969   4.590 -0.4203 -0.4173  0.2524
  768MOL0     C 1293   1.114  11.005   4.535  0.0520 -0.5879  0.1032
  768MOL0     N 1294   1.845  10.934   4.440 -0.2825 -0.5980  0.3409
  768MOL0     N 1295   1.963  10.933   4.391 -0.9986  0.4430  0.0381
  768MOL0     C 1296   3.094  10.809   4.884  0.7224  0.0043 -0.2577
  768MOL0     C 1297   3.213  10.740   4.903 -0.2317 -0.7140  0.6068
  768MOL0     C 1298   3.635  10.566   4.922 -0.7185  0.5672  0.1823
  768MOL0     C 1299   3.701  10.565   4.798 -0.7748  0.2492 -0.1548
  768MOL0     C 1300   3.837  10.523   4.788 -0.5140 -0.8543  0.1992
  768MOL0     C 1301   3.919  10.500   4.902 -0.2207  0.7736 -0.2869
  768MOL0     O 1302   4.053  10.456   4.884 -0.3357  0.3413  1.1054
  768MOL0     C 1303   4.158  10.511   4.954  0.4154  0.3847  0.3843
  768MOL0     C 1304   4.260  10.585   4.872 -0.5713  0.1393  0.7748
  768MOL0     C 1305   4.367  10.484   4.812 -0.5075 -1.4162  0.3614
  768MOL0     C 1306   4.507  10.474   4.870 -0.5230  0.1323  0.2390
  768MOL0     C 1307   4.594  10.596   4.842  0.1202 -0.8491  0.2634
  768MOL0     C 1308   4.677  10.686   4.817  0.0008  0.5660  0.3632
  768MOL0     C 1309   3.851  10.495   5.022 -0.8259  0.6448  0.3713
  768MOL0     C 1310   3.712  10.532   5.040  0.0085  0.1902 -0.6218
  768MOL0     H 1311   3.337  10.754   4.587  0.4915 -1.0112  0.4240
  768MOL0     H 1312   3.136  10.904   4.571  1.1447 -0.6248 -1.2618
  768MOL0     H 1313   2.834  11.018   4.867  2.0497 -2.9299  1.8664
  768MOL0     H 1314   2.809  10.855   4.850 -0.2944  2.4130  3.4576
  768MOL0     H 1315   2.743  11.036   4.621  1.2724  1.8738  1.1575
  768MOL0     H 1316   2.635  11.011   4.762 -1.0574  0.0331 -1.2321
  768MOL0     H 1317   2.631  10.779   4.746 -1.5864  1.5183  1.0751
  768MOL0     H 1318   2.739  10.775   4.602  0.0388  0.3700  0.4752
  768MOL0     H 1319   2.463  10.917   4.613 -1.0755  1.2134 -1.1297
  768MOL0     H 1320   2.563  10.882   4.471 -1.2047 -1.2406 -0.2079
  768MOL0     H 1321   2.406  10.685   4.644 -0.4077  2.1381  0.1213
  768MOL0     H 1322   2.530  10.622   4.535 -0.3089  0.2442  1.8354
  768MOL0     H 1323   2.336  10.608   4.415  0.7020 -0.6929  0.9407
  768MOL0     H 1324   2.424  10.747   4.345 -2.8843 -0.8567 -2.5065
  768MOL0     H 1325   2.199  10.810   4.540 -0.3649 -2.3539 -1.0182
  768MOL0     H 1326   2.269  10.914   4.413  0.0676 -0.6539 -1.3384
  768MOL0     H 1327   2.138  10.653   4.360  1.3867  0.2953 -1.0319
  768MOL0     H 1328   2.157  10.785   4.238 -2.4856  0.2792 -0.5089
  768MOL0     H 1329   1.892  10.615   4.428 -1.4346 -0.0093  1.2744
  768MOL0     H 1330   1.674  10.733   4.597 -0.6739  0.1901  0.0831
  768MOL0     H 1331   1.625  10.682   4.440  0.5316 -0.2114  0.7195
  768MOL0     H 1332   1.561  10.962   4.535  1.1494 -2.0266  4.0613
  768MOL0     H 1333   1.446  10.828   4.531  0.1944 -0.4288 -1.1605
  768MOL0     H 1334   1.575  10.993   4.323  1.0009 -1.2199 -0.4352
  768MOL0     H 1335   1.559  10.825   4.275  2.3133  0.1180  1.6307
  768MOL0     H 1336   1.320  10.819   4.283  0.2626  0.3905 -1.7021
  768MOL0     H 1337   1.356  10.959   4.195  0.6963 -1.5144 -1.2023
  768MOL0     H 1338   1.110  10.809   4.259  2.1609  2.4693 -0.6682
  768MOL0     H 1339   0.874  10.787   4.327 -1.7151  0.3996  1.1229
  768MOL0     H 1340   0.457  10.960   4.324 -2.4369  0.3971 -0.8948
  768MOL0     H 1341   0.225  10.874   4.345  1.2379  0.5759 -0.8001
  768MOL0     H 1342   0.020  10.681   4.663  0.1982  0.2302  0.4131
  768MOL0     H 1343   0.164  10.595   4.681  2.2425  1.9317 -2.2889
  768MOL0     H 1344   0.069  10.412   4.520 -2.8122 -1.8996 -2.1330
  768MOL0     H 1345  -0.078  10.494   4.528 -0.0767 -3.2553  0.7023
  768MOL0     H 1346  -0.049  10.491   4.802  1.6838  1.0411 -1.9896
  768MOL0     H 1347   0.045  10.351   4.766  0.5670 -0.6233  0.4991
  768MOL0     H 1348  -0.240  10.400   4.699  0.4806  1.4386  1.5869
  768MOL0     H 1349  -0.136  10.284   4.621  2.3770  4.5968 -1.2128
  768MOL0     H 1350  -0.196  10.301   4.925  0.8517  0.0530  0.4852
  768MOL0     H 1351  -0.092  10.178   4.850  1.2556  1.0137  2.1469
  768MOL0     H 1352  -0.279  10.091   4.729 -0.4284 -0.9141  0.5962
  768MOL0     H 1353  -0.379  10.218   4.773 -1.9829 -2.4256 -0.6886
  768MOL0     H 1354  -0.440  10.031   4.906  1.3596 -2.4072 -3.6065
  768MOL0     H 1355  -0.280   9.981   4.920 -1.9697 -1.6352  0.7140
  768MOL0     H 1356  -0.256  10.180   5.100  0.8349 -0.1386 -0.2241
  768MOL0     H 1357  -0.390  10.071   5.131 -1.2187 -0.9749 -0.7060
  768MOL0     H 1358   0.362  10.579   4.641  1.0138  0.3792 -0.3997
  768MOL0     H 1359   0.578  10.696   4.638 -0.0053  1.6775  0.0476
  768MOL0     H 1360   0.947  10.999   4.686 -1.5546 -2.8161  0.6026
  768MOL0     H 1361   1.181  11.067   4.594  1.4096 -4.1704  2.7165
  768MOL0     H 1362   3.020  10.820   4.963  0.8832 -2.7242  0.3738
  768MOL0     H 1363   3.230  10.699   5.002 -0.7394  0.1401  1.0546
  768MOL0     H 1364   3.658  10.599   4.705  2.7423  0.0756 -2.0208
  768MOL0     H 1365   3.891  10.533   4.695  1.3338 -0.2284  1.2868
  768MOL0     H 1366   4.212  10.436   5.014 -0.5177 -0.1017  0.6378
  768MOL0     H 1367   4.118  10.572   5.036 -4.0204 -0.2304 -1.0599
  768MOL0     H 1368   4.212  10.635   4.787  0.0204 -1.0288 -0.2738
  768MOL0     H 1369   4.316  10.656   4.933  1.8226 -1.8197  1.0219
  768MOL0     H 1370   4.375  10.508   4.706 -2.9415 -3.5897 -0.4172
  768MOL0     H 1371   4.323  10.384   4.820 -1.3874 -1.1224 -0.6202
  768MOL0     H 1372   4.498  10.446   4.975  0.9653 -0.9921  0.0912
  768MOL0     H 1373   4.559  10.384   4.835 -0.0486  0.2496  0.6304
  768MOL0     H 1374   4.736  10.772   4.792 -2.4429  1.9087 -1.2247
  768MOL0     H 1375   3.908  10.477   5.113  0.3950  1.4729 -0.1917
  768MOL0     H 1376   3.652  10.536   5.130 -2.4297  0.1245 -2.1433
  769MOL0     O 1377   8.423   8.865   9.047 -0.2569  0.1879  0.3195
  769MOL0     C 1378   8.503   8.953   9.068 -0.5159  0.5666 -0.7172
  769MOL0     O 1379   8.495   9.077   9.031 -0.0838  0.4529  0.2227
  769MOL0     C 1380   8.366   9.124   8.994 -0.0132 -0.3899  0.2164
  769MOL0     C 1381   8.264   9.056   8.925 -0.2523  0.5693  0.1635
  769MOL0     C 1382   8.147   9.118   8.892  1.3436 -0.2743  0.9035
  769MOL0     C 1383   8.120   9.250   8.934  0.0140 -0.1399  0.5797
  769MOL0     O 1384   7.992   9.301   8.926 -0.4403 -0.2032  0.0043
  769MOL0     C 1385   7.977   9.435   8.876  0.2151 -0.3024  0.2320
  769MOL0     C 1386   7.826   9.467   8.916 -0.3291 -0.3518 -0.2781
  769MOL0     C 1387   7.711   9.406   8.829 -0.3096  0.0350  0.0058
  769MOL0     C 1388   7.571   9.412   8.890  0.4824  0.3770  0.7088
  769MOL0     C 1389   7.465   9.372   8.792 -0.8196  0.8880  0.8014
  769MOL0     C 1390   7.468   9.217   8.784  0.1630  0.0894  1.0865
  769MOL0     C 1391   7.362   9.171   8.680 -0.2902 -0.4979  0.2201
  769MOL0     C 1392   7.341   9.021   8.669 -0.0337 -0.4540 -0.6162
  769MOL0     N 1393   7.278   8.984   8.540 -0.1620  0.2002 -0.0067
  769MOL0     C 1394   7.340   8.980   8.420  0.1345  0.4784 -1.5098
  769MOL0     C 1395   7.266   8.902   8.344 -0.1867  0.7277 -0.3408
  769MOL0     C 1396   7.311   8.862   8.203 -0.1625 -0.0546 -0.2026
  769MOL0     C 1397   7.300   8.985   8.119  0.4978 -0.8214  0.1394
  769MOL0     C 1398   7.310   8.936   7.972  0.2684  0.5565 -0.1150
  769MOL0     C 1399   7.181   8.890   7.908  0.0968 -0.5478 -0.4937
  769MOL0     O 1400   7.076   8.986   7.902  0.5097  0.0292 -0.4114
  769MOL0     C 1401   6.969   8.953   7.834  0.0662  0.1327 -0.0668
  769MOL0     C 1402   6.868   9.047   7.837  0.1698  0.5441  0.0787
  769MOL0     C 1403   6.737   9.016   7.788 -0.1014 -0.2217  0.8420
  769MOL0     C 1404   6.716   8.893   7.725  0.6129  0.4163 -0.5393
  769MOL0     C 1405   6.583   8.862   7.673 -0.3794 -0.6870 -0.3121
  769MOL0     O 1406   6.573   8.741   7.614 -0.4476  0.5755  0.2362
  769MOL0     C 1407   6.447   8.710   7.568  0.3064 -0.1829  0.2809
  769MOL0     C 1408   6.437   8.650   7.448  0.3407 -0.3220 -0.5974
  769MOL0     C 1409   6.313   8.644   7.386 -0.6627 -0.3914 -0.6082
  769MOL0     C 1410   6.196   8.681   7.458 -0.2167  0.2056 -0.5031
  769MOL0     O 1411   6.073   8.661   7.391  0.2584  0.1598 -0.3605
  769MOL0     C 1412   5.953   8.682   7.462  0.4992 -1.0856 -0.2094
  769MOL0     C 1413   5.833   8.680   7.362 -0.1458 -0.4103 -0.6666
  769MOL0     C 1414   5.698   8.702   7.432 -0.4600  1.1375 -0.8885
  769MOL0     C 1415   5.574   8.688   7.341  0.4938  0.2902 -0.6174
  769MOL0     C 1416   5.453   8.763   7.389  0.2726 -0.9491 -0.6462
  769MOL0     C 1417   5.325   8.698   7.325  0.3978  0.2684 -0.6223
  769MOL0     C 1418   5.300   8.751   7.177 -0.2134 -0.0598  0.1211
  769MOL0     C 1419   5.158   8.722   7.129 -0.0872  0.5690  0.0096
  769MOL0    Cl 1420   5.137   8.762   6.964 -0.1733  0.3034 -0.3495
  769MOL0     C 1421   6.215   8.727   7.586  0.4035  0.5078  0.5137
  769MOL0     C 1422   6.336   8.741   7.642 -1.0278 -0.6425 -0.0915
  769MOL0     O 1423   6.509   8.959   7.663  0.8234  0.1004  0.9303
  769MOL0     C 1424   6.817   8.793   7.730  0.6880  0.0034 -1.3608
  769MOL0     C 1425   6.939   8.830   7.783  1.4359 -0.0292  0.5092
  769MOL0     N 1426   7.151   8.864   8.409  0.1052 -0.0620 -0.1754
  769MOL0     N 1427   7.156   8.919   8.528  0.0224 -0.3780  0.6542
  769MOL0     C 1428   8.231   9.324   8.997 -0.2896  0.1131 -1.0481
  769MOL0     C 1429   8.349   9.262   9.020  0.4329 -0.1198  0.0892
  769MOL0     C 1430   8.618   8.921   9.144  0.1055  1.4772  0.6060
  769MOL0     C 1431   8.629   8.802   9.224  0.0573 -0.5436 -0.4541
  769MOL0     C 1432   8.736   8.786   9.314 -0.1937 -0.5678 -0.6233
  769MOL0     C 1433   8.834   8.883   9.336 -0.6025  0.0077 -0.8580
  769MOL0     O 1434   8.946   8.869   9.419 -0.1961  0.8583  0.4773
  769MOL0     C 1435   8.936   8.797   9.539  0.4429  0.4007  0.0224
  769MOL0     C 1436   9.068   8.815   9.612  1.3780 -0.0050 -0.0884
  769MOL0     C 1437   9.187   8.736   9.561 -0.3568  0.5343 -0.1164
  769MOL0     C 1438   9.180   8.582   9.572  0.1270 -0.5187  0.0334
  769MOL0     C 1439   9.299   8.510   9.504  0.8508  0.2783 -0.6373
  769MOL0     C 1440   9.401   8.455   9.472 -0.6053  0.2445  0.1507
  769MOL0     C 1441   8.831   8.998   9.244  0.0260 -0.0844 -0.8528
  769MOL0     C 1442   8.729   9.009   9.146 -0.2550  0.3236  0.1075
  769MOL0     H 1443   8.286   8.955   8.890  1.5411  0.6596  0.9453
  769MOL0     H 1444   8.068   9.053   8.854  0.0655 -0.5664  3.8486
  769MOL0     H 1445   7.987   9.421   8.767 -0.8060  3.1513 -0.4245
  769MOL0     H 1446   8.044   9.512   8.914 -0.8141  1.0821 -0.6770
  769MOL0     H 1447   7.806   9.574   8.926 -2.4914 -0.9041  2.4193
  769MOL0     H 1448   7.811   9.419   9.013 -0.5576 -0.9499 -0.6027
  769MOL0     H 1449   7.735   9.302   8.807 -0.2847  0.3583 -1.6016
  769MOL0     H 1450   7.718   9.457   8.733  1.3598  1.4362  0.8158
  769MOL0     H 1451   7.564   9.361   8.986  1.3942  0.3287  0.7629
  769MOL0     H 1452   7.566   9.520   8.910  1.3260  1.0044 -1.9633
  769MOL0     H 1453   7.474   9.425   8.697  1.2958  2.5852  1.8761
  769MOL0     H 1454   7.368   9.397   8.837 -2.6121 -3.0061 -0.4275
  769MOL0     H 1455   7.438   9.176   8.881 -1.2196  0.4381  0.8179
  769MOL0     H 1456   7.557   9.168   8.744 -1.1011 -2.5733  1.2816
  769MOL0     H 1457   7.265   9.217   8.698 -0.9656 -1.2563 -1.2553
  769MOL0     H 1458   7.402   9.198   8.581  3.1661  0.9612  1.8576
  769MOL0     H 1459   7.272   8.995   8.750  3.5319 -0.8068  2.6413
  769MOL0     H 1460   7.432   8.966   8.696 -1.2204 -2.8987 -1.3115
  769MOL0     H 1461   7.441   9.014   8.398  0.8237 -0.2268  0.3255
  769MOL0     H 1462   7.257   8.775   8.164  0.1954 -0.2621 -0.2391
  769MOL0     H 1463   7.414   8.826   8.208 -0.3576 -0.6875 -0.6047
  769MOL0     H 1464   7.387   9.049   8.133 -1.5559  1.4759  3.9601
  769MOL0     H 1465   7.213   9.050   8.132  1.8984  1.5819 -1.6171
  769MOL0     H 1466   7.335   9.026   7.915  2.4292 -0.8038 -1.4564
  769MOL0     H 1467   7.390   8.862   7.960  0.2074  0.4398  0.1858
  769MOL0     H 1468   7.147   8.804   7.967  1.2759  0.0059  1.0710
  769MOL0     H 1469   7.207   8.852   7.809  1.0261  1.4658 -1.0764
  769MOL0     H 1470   6.886   9.134   7.898  3.6517  0.2240 -0.3240
  769MOL0     H 1471   6.670   9.100   7.776  0.2529 -0.1406 -0.8699
  769MOL0     H 1472   6.527   8.623   7.395 -0.9035 -2.6440 -1.6890
  769MOL0     H 1473   6.308   8.613   7.282 -0.8007 -1.1337 -0.3876
  769MOL0     H 1474   5.943   8.785   7.500 -1.2508 -1.3613  0.1894
  769MOL0     H 1475   5.944   8.607   7.541 -1.2425 -1.5135 -0.7605
  769MOL0     H 1476   5.833   8.579   7.321  1.7644 -0.6463 -0.1725
  769MOL0     H 1477   5.842   8.763   7.290 -1.6114  0.8722  0.5573
  769MOL0     H 1478   5.706   8.797   7.485  1.2834 -0.0848  1.2174
  769MOL0     H 1479   5.697   8.623   7.507  0.1670 -0.4871 -2.5068
  769MOL0     H 1480   5.599   8.723   7.240 -1.1681  1.0930 -0.7897
  769MOL0     H 1481   5.558   8.580   7.331  4.6365 -0.7854  1.9349
  769MOL0     H 1482   5.460   8.867   7.357 -3.2754 -0.9109 -1.6682
  769MOL0     H 1483   5.449   8.762   7.499  2.0316 -0.2642 -0.5334
  769MOL0     H 1484   5.236   8.721   7.385  0.5390  2.7157 -1.2131
  769MOL0     H 1485   5.338   8.590   7.323  0.3947  0.1927  1.4603
  769MOL0     H 1486   5.321   8.858   7.174 -0.0779 -0.1030 -0.7948
  769MOL0     H 1487   5.372   8.698   7.113 -0.2997 -0.7793  0.5992
  769MOL0     H 1488   5.085   8.781   7.185 -0.7363  2.0225 -2.2468
  769MOL0     H 1489   5.141   8.614   7.141  1.9923  0.1497 -0.4670
  769MOL0     H 1490   6.127   8.754   7.644  0.8984 -0.2195  1.6397
  769MOL0     H 1491   6.342   8.785   7.741  1.7448 -1.1138  0.0253
  769MOL0     H 1492   6.800   8.692   7.695  2.0227  0.5192 -3.6687
  769MOL0     H 1493   7.008   8.748   7.793 -0.2745 -1.3643  2.0882
  769MOL0     H 1494   8.236   9.428   9.027 -1.6358  0.1611 -0.9359
  769MOL0     H 1495   8.434   9.319   9.057  1.4084 -0.4199 -1.5980
  769MOL0     H 1496   8.560   8.719   9.214  1.0949 -1.2239 -2.2117
  769MOL0     H 1497   8.746   8.697   9.376  1.5702 -0.2962 -0.4574
  769MOL0     H 1498   8.915   8.691   9.520 -0.7644  0.2290  2.1123
  769MOL0     H 1499   8.853   8.837   9.597 -0.2515 -0.6841 -0.1959
  769MOL0     H 1500   9.095   8.921   9.610  0.2067  0.3378  1.0200
  769MOL0     H 1501   9.048   8.781   9.715  1.1054  3.6453  1.2100
  769MOL0     H 1502   9.278   8.762   9.615  0.8366 -1.7397 -0.9048
  769MOL0     H 1503   9.190   8.759   9.454  1.4128 -0.3610 -0.2868
  769MOL0     H 1504   9.178   8.545   9.675  1.5972 -2.2751 -0.5061
  769MOL0     H 1505   9.086   8.548   9.529 -0.1480 -1.4762  1.3542
  769MOL0     H 1506   9.497   8.416   9.447 -1.0243 -0.0009 -1.1521
  769MOL0     H 1507   8.913   9.068   9.246  0.7680 -0.9546  0.2557
  769MOL0     H 1508   8.735   9.093   9.077  0.2536 -0.4405 -0.8011
  770MOL0     O 1509   9.043  10.738   4.152  0.0563 -0.2261 -0.6391
  770MOL0     C 1510   9.091  10.832   4.214  0.2174 -0.9553  0.2065
  770MOL0     O 1511   9.017  10.925   4.286 -0.9666  1.0608 -0.2858
  770MOL0     C 1512   8.884  10.909   4.294 -0.3121  0.4794  0.2423
  770MOL0     C 1513   8.806  10.920   4.183  0.3556 -0.1966 -0.0157
  770MOL0     C 1514   8.675  10.908   4.198  1.0124  0.8063 -0.1720
  770MOL0     C 1515   8.602  10.891   4.320 -1.2735  0.1731  0.2193
  770MOL0     O 1516   8.472  10.891   4.347 -0.3314  0.0459  0.0942
  770MOL0     C 1517   8.386  10.933   4.246  0.7754  0.8436 -0.0740
  770MOL0     C 1518   8.256  10.972   4.317 -0.3080 -0.2553  0.0238
  770MOL0     C 1519   8.153  11.014   4.212  0.3738  0.5633  0.2304
  770MOL0     C 1520   8.013  11.019   4.285 -0.7868  0.1870  0.3832
  770MOL0     C 1521   7.898  11.033   4.181  0.2377  0.5760 -0.0167
  770MOL0     C 1522   7.758  11.014   4.235  0.3295 -0.1941  0.7390
  770MOL0     C 1523   7.652  11.009   4.127  0.9853  0.9528  0.4551
  770MOL0     C 1524   7.634  10.871   4.066  0.6834  0.2026 -0.0683
  770MOL0     N 1525   7.542  10.857   3.957  0.1834  0.6861 -0.1747
  770MOL0     C 1526   7.409  10.834   3.955 -0.7456  1.2644 -1.1853
  770MOL0     C 1527   7.378  10.806   3.826 -0.0290 -0.9772  0.0973
  770MOL0     C 1528   7.241  10.766   3.777  0.2424 -0.1932  0.1978
  770MOL0     C 1529   7.178  10.871   3.695 -0.3457  0.0625 -0.0593
  770MOL0     C 1530   7.140  10.990   3.784 -0.4814  0.7274 -0.0704
  770MOL0     C 1531   7.088  11.111   3.696 -0.9306 -0.6976  0.4336
  770MOL0     O 1532   7.016  11.067   3.583  0.1162 -0.2810  0.3120
  770MOL0     C 1533   6.888  11.007   3.607  0.2284 -0.0969 -0.1383
  770MOL0     C 1534   6.852  10.917   3.499  0.4099  0.1626  0.0753
  770MOL0     C 1535   6.733  10.850   3.505  0.0313 -0.0611 -0.2332
  770MOL0     C 1536   6.656  10.853   3.619  0.0737  0.0835  0.0479
  770MOL0     C 1537   6.520  10.789   3.624  0.6054 -0.5505  0.3076
  770MOL0     O 1538   6.428  10.832   3.720 -0.0377  0.5448  0.0008
  770MOL0     C 1539   6.289  10.823   3.691  0.6531  0.2372 -0.6835
  770MOL0     C 1540   6.202  10.928   3.737  0.1029  0.7198 -0.3070
  770MOL0     C 1541   6.066  10.900   3.744  0.3295 -0.0803  0.5009
  770MOL0     C 1542   6.001  10.776   3.719 -0.4198  0.4010  0.3644
  770MOL0     O 1543   5.867  10.743   3.732  0.5323  0.3669  0.1659
  770MOL0     C 1544   5.772  10.854   3.745 -0.5142  0.3559  0.2931
  770MOL0     C 1545   5.632  10.801   3.762  0.4240  0.2394  1.2544
  770MOL0     C 1546   5.621  10.726   3.904 -0.5827  0.2987 -0.5053
  770MOL0     C 1547   5.481  10.730   3.960 -0.1743  0.5218 -0.4056
  770MOL0     C 1548   5.445  10.631   4.070 -0.4313 -0.1650  0.5145
  770MOL0     C 1549   5.552  10.636   4.183 -0.4644  0.2600  0.2242
  770MOL0     C 1550   5.497  10.526   4.271  0.7752 -0.9330  0.5099
  770MOL0     C 1551   5.584  10.490   4.391 -0.3967 -0.0252  0.4466
  770MOL0    Cl 1552   5.750  10.432   4.357  0.1849 -0.1033 -0.1104
  770MOL0     C 1553   6.089  10.679   3.666  0.0271 -1.2267 -0.1461
  770MOL0     C 1554   6.233  10.700   3.657  0.0818  0.5186 -0.2992
  770MOL0     O 1555   6.494  10.723   3.527  0.0277 -0.1771 -0.6598
  770MOL0     C 1556   6.692  10.940   3.726  0.1778  0.2492 -1.4972
  770MOL0     C 1557   6.805  11.012   3.716 -0.0839  0.7143 -0.6008
  770MOL0     N 1558   7.494  10.794   3.753 -0.3810  0.1164 -0.3763
  770MOL0     N 1559   7.594  10.819   3.834 -0.5488  0.2620 -0.6864
  770MOL0     C 1560   8.683  10.878   4.432  0.8407 -0.4179 -0.6216
  770MOL0     C 1561   8.819  10.892   4.425 -0.0374  0.4201  0.6516
  770MOL0     C 1562   9.232  10.870   4.179  0.8847 -0.1484 -0.5913
  770MOL0     C 1563   9.297  10.967   4.247  0.3170  0.2200 -0.2355
  770MOL0     C 1564   9.430  11.004   4.220 -0.0885 -0.8430 -0.3597
  770MOL0     C 1565   9.497  10.942   4.118 -0.3225  0.0637  0.0396
  770MOL0     O 1566   9.630  10.985   4.091  1.0104 -0.8509  0.1339
  770MOL0     C 1567   9.667  10.983   3.948  0.3008  0.0580 -0.0603
  770MOL0     C 1568   9.779  11.097   3.932  0.5159 -0.4300 -0.0727
  770MOL0     C 1569   9.837  11.094   3.792  0.6063 -0.1167  1.0533
  770MOL0     C 1570   9.962  11.194   3.789  0.3636  0.7358  0.4548
  770MOL0     C 1571  10.043  11.168   3.669  0.2415 -0.0137  0.6833
  770MOL0     C 1572  10.107  11.147   3.571 -0.0517 -0.3173 -0.2491
  770MOL0     C 1573   9.429  10.840   4.043 -0.3060 -0.4644 -0.0110
  770MOL0     C 1574   9.306  10.801   4.087  0.6949  0.4271  0.3191
  770MOL0     H 1575   8.855  10.937   4.087 -1.0275  2.6052 -0.3229
  770MOL0     H 1576   8.612  10.900   4.110  0.1992 -1.1589  0.5229
  770MOL0     H 1577   8.359  10.852   4.178 -0.2540 -1.7638  3.1795
  770MOL0     H 1578   8.431  11.010   4.183  1.1618 -0.1417 -1.0341
  770MOL0     H 1579   8.275  11.055   4.386  3.5128  1.9372 -3.2056
  770MOL0     H 1580   8.210  10.882   4.360 -2.1829 -3.2343 -6.9071
  770MOL0     H 1581   8.147  10.932   4.140  0.6760 -0.3500  1.2074
  770MOL0     H 1582   8.189  11.104   4.163  1.3723  0.4255  0.6789
  770MOL0     H 1583   7.996  10.925   4.339 -0.2437 -0.2016 -0.1072
  770MOL0     H 1584   8.004  11.107   4.349 -0.7479  1.9245 -1.9032
  770MOL0     H 1585   7.921  10.952   4.111 -1.0467 -0.2854  0.5179
  770MOL0     H 1586   7.907  11.122   4.118 -2.2195 -0.7771 -2.4931
  770MOL0     H 1587   7.731  11.091   4.307  1.0321  0.3206  0.4642
  770MOL0     H 1588   7.757  10.920   4.291 -3.0645 -1.3413 -0.9682
  770MOL0     H 1589   7.552  11.036   4.162  0.1237  0.1314 -1.2601
  770MOL0     H 1590   7.676  11.091   4.059 -4.2591  3.4470  1.0718
  770MOL0     H 1591   7.596  10.799   4.139 -0.8709  0.9165 -0.1279
  770MOL0     H 1592   7.734  10.844   4.032  0.3522 -1.5386  0.2189
  770MOL0     H 1593   7.341  10.828   4.039 -0.2241 -0.0522 -0.8292
  770MOL0     H 1594   7.173  10.751   3.861 -0.4405  0.8312 -0.1550
  770MOL0     H 1595   7.241  10.670   3.725  1.4888  0.6575 -1.4877
  770MOL0     H 1596   7.092  10.824   3.647  0.7757 -3.6342  1.2007
  770MOL0     H 1597   7.244  10.909   3.616  0.2176 -2.0849 -0.6858
  770MOL0     H 1598   7.063  10.961   3.857 -0.5361 -1.6325 -0.9884
  770MOL0     H 1599   7.229  11.030   3.834 -1.0148  0.6188  1.0143
  770MOL0     H 1600   7.178  11.156   3.653 -0.6863 -0.7115  0.9279
  770MOL0     H 1601   7.043  11.190   3.757  1.1016  2.3443 -1.6846
  770MOL0     H 1602   6.911  10.913   3.408  2.8271  1.5953  1.4709
  770MOL0     H 1603   6.706  10.797   3.414  3.3626  1.4856 -2.3080
  770MOL0     H 1604   6.227  11.031   3.757  0.8220  1.0841 -2.7471
  770MOL0     H 1605   6.002  10.975   3.789 -1.7358 -0.0383 -2.1861
  770MOL0     H 1606   5.766  10.918   3.656 -1.4679  0.0723  0.1420
  770MOL0     H 1607   5.804  10.917   3.828 -0.1342 -0.6836  0.9481
  770MOL0     H 1608   5.605  10.735   3.680 -3.8802  2.8255  0.2933
  770MOL0     H 1609   5.561  10.884   3.771  1.3652  1.3871 -1.1280
  770MOL0     H 1610   5.684  10.784   3.972 -2.7186  1.7361  0.3311
  770MOL0     H 1611   5.658  10.624   3.887 -0.9103  0.1635 -0.4258
  770MOL0     H 1612   5.443  10.830   3.983  1.3511  1.3080 -1.1287
  770MOL0     H 1613   5.411  10.702   3.881 -0.4626 -0.2531  0.1123
  770MOL0     H 1614   5.443  10.530   4.028  1.8690  0.6283 -1.7308
  770MOL0     H 1615   5.342  10.660   4.093 -0.9857  0.8536 -2.7409
  770MOL0     H 1616   5.547  10.730   4.239 -0.5348 -0.3221  1.2130
  770MOL0     H 1617   5.652  10.623   4.140 -0.9611  0.4148 -1.0128
  770MOL0     H 1618   5.406  10.565   4.318  1.8132  1.8429  0.4237
  770MOL0     H 1619   5.480  10.435   4.213 -0.5031 -0.0067 -0.6397
  770MOL0     H 1620   5.537  10.408   4.447  1.3648 -1.5036 -0.1504
  770MOL0     H 1621   5.588  10.582   4.450 -0.8073 -1.8136  3.5097
  770MOL0     H 1622   6.045  10.586   3.631  0.2369 -1.5601  0.4546
  770MOL0     H 1623   6.299  10.622   3.622 -0.4230  0.5190 -1.3127
  770MOL0     H 1624   6.627  10.950   3.813  1.8732 -1.7153  0.1080
  770MOL0     H 1625   6.827  11.082   3.797 -0.1427 -0.0725  0.1126
  770MOL0     H 1626   8.637  10.865   4.529  1.2855 -0.0520 -0.3583
  770MOL0     H 1627   8.888  10.879   4.507 -0.4895 -0.1546  0.9440
  770MOL0     H 1628   9.246  11.028   4.320 -0.1492  1.0214 -1.2012
  770MOL0     H 1629   9.482  11.084   4.271 -1.8099  1.3987 -1.8787
  770MOL0     H 1630   9.587  11.020   3.883 -0.4048  1.8137  1.7143
  770MOL0     H 1631   9.696  10.881   3.922 -2.6979 -1.8658  3.2921
  770MOL0     H 1632   9.722  11.186   3.958 -1.2418 -1.0421 -1.6385
  770MOL0     H 1633   9.857  11.081   4.008  2.1100  0.9517 -1.3460
  770MOL0     H 1634   9.761  11.143   3.730  1.0096  2.2094  2.2822
  770MOL0     H 1635   9.865  10.993   3.760  3.6333  1.1822 -0.8588
  770MOL0     H 1636   9.929  11.298   3.794 -2.6860  0.2742 -4.2407
  770MOL0     H 1637  10.025  11.171   3.876  1.3344  1.6036  0.0038
  770MOL0     H 1638  10.170  11.134   3.485  2.3170 -1.8557  1.5866
  770MOL0     H 1639   9.479  10.786   3.964  3.5507 -0.3799  2.1040
  770MOL0     H 1640   9.255  10.725   4.028 -0.6415  2.3969 -1.1579
  771MOL0     O 1641   7.890   9.189   1.500  0.1603  0.0122 -0.8198
  771MOL0     C 1642   7.939   9.297   1.459  0.2045  0.0433  0.5554
  771MOL0     O 1643   7.872   9.398   1.399 -0.1608  0.3107  0.4956
  771MOL0     C 1644   7.733   9.400   1.394 -0.1038 -0.1725  0.3878
  771MOL0     C 1645   7.680   9.529   1.405 -0.2499 -0.1179  1.0055
  771MOL0     C 1646   7.535   9.540   1.401 -0.9502 -0.1499 -1.1182
  771MOL0     C 1647   7.446   9.434   1.383  0.3354  0.5750 -1.0622
  771MOL0     O 1648   7.306   9.453   1.377 -0.5972 -0.2031 -0.4943
  771MOL0     C 1649   7.253   9.528   1.487  1.2846 -0.4412  1.4630
  771MOL0     C 1650   7.130   9.599   1.433 -0.3629 -0.4679  0.3927
  771MOL0     C 1651   7.013   9.504   1.398 -0.4852 -0.7742  0.3334
  771MOL0     C 1652   6.905   9.594   1.339  0.3546  0.3581  1.3777
  771MOL0     C 1653   6.777   9.534   1.299 -0.3005 -0.1170  0.8021
  771MOL0     C 1654   6.703   9.481   1.426 -0.2617 -0.7468  0.5226
  771MOL0     C 1655   6.565   9.419   1.396 -0.1066 -0.5936  0.3441
  771MOL0     C 1656   6.462   9.519   1.364  0.7870  0.2742  0.0707
  771MOL0     N 1657   6.353   9.483   1.268 -0.1225  0.9253 -0.0832
  771MOL0     C 1658   6.364   9.446   1.133 -0.2070 -0.3502  0.2546
  771MOL0     C 1659   6.238   9.430   1.086  0.4652  0.2023 -0.2786
  771MOL0     C 1660   6.206   9.401   0.940 -1.1261 -0.1767  0.2675
  771MOL0     C 1661   6.201   9.253   0.911 -0.3154  0.0786  0.3700
  771MOL0     C 1662   6.126   9.217   0.774 -1.1201  0.2224 -0.2777
  771MOL0     C 1663   6.094   9.067   0.757 -0.5419  0.6769 -0.2763
  771MOL0     O 1664   6.009   9.044   0.636 -0.5251 -0.2734  0.0722
  771MOL0     C 1665   5.914   8.945   0.653 -0.0304  0.3768  0.7679
  771MOL0     C 1666   5.783   8.975   0.615  0.3039 -0.2626 -0.5987
  771MOL0     C 1667   5.675   8.886   0.641 -0.4892  0.8862  0.4751
  771MOL0     C 1668   5.711   8.750   0.690  0.8185  0.0132 -0.3966
  771MOL0     C 1669   5.604   8.651   0.720 -0.1309  0.4296 -0.0541
  771MOL0     O 1670   5.633   8.537   0.784  0.5926 -0.4486  0.7433
  771MOL0     C 1671   5.555   8.425   0.769  0.1352 -0.3702 -1.3540
  771MOL0     C 1672   5.480   8.393   0.656 -0.3665  0.0692 -0.1700
  771MOL0     C 1673   5.395   8.277   0.652  0.4019 -0.0498  0.2456
  771MOL0     C 1674   5.387   8.196   0.765 -0.2354  0.2117 -0.5134
  771MOL0     O 1675   5.315   8.083   0.774  0.3674  0.1975  0.6759
  771MOL0     C 1676   5.284   8.002   0.655  0.4972 -0.5299 -0.0527
  771MOL0     C 1677   5.264   7.866   0.713  0.3268  0.5478 -0.6708
  771MOL0     C 1678   5.198   7.771   0.622  0.3215 -0.4993 -0.3053
  771MOL0     C 1679   5.198   7.627   0.669 -0.3596  0.9449 -0.0310
  771MOL0     C 1680   5.184   7.518   0.563  0.3903  0.0355  0.3037
  771MOL0     C 1681   5.071   7.530   0.463 -0.3886 -0.8296  0.0134
  771MOL0     C 1682   5.072   7.411   0.369  0.1733  0.3323  0.5043
  771MOL0     C 1683   4.946   7.412   0.271  0.4418  0.1594 -0.1174
  771MOL0    Cl 1684   5.007   7.521   0.128 -0.1050 -0.0296 -0.3842
  771MOL0     C 1685   5.457   8.224   0.878 -0.2031  0.0062  0.2081
  771MOL0     C 1686   5.541   8.337   0.889 -1.2627  1.2772 -0.2636
  771MOL0     O 1687   5.490   8.690   0.689  0.5586  0.0603 -0.0606
  771MOL0     C 1688   5.849   8.723   0.734 -0.3390  0.5886  0.4377
  771MOL0     C 1689   5.948   8.817   0.703  0.5868  0.4827  0.3261
  771MOL0     N 1690   6.147   9.444   1.192  0.5181 -0.7914 -0.0521
  771MOL0     N 1691   6.218   9.490   1.296  0.3548 -0.0148 -0.0937
  771MOL0     C 1692   7.503   9.304   1.377  0.2840 -0.5402  0.0601
  771MOL0     C 1693   7.644   9.287   1.385 -0.6916 -0.1609 -0.6446
  771MOL0     C 1694   8.078   9.304   1.457 -0.0885  0.3939 -0.1566
  771MOL0     C 1695   8.160   9.195   1.501  1.0235 -0.3395 -0.2988
  771MOL0     C 1696   8.301   9.184   1.483  0.6567  0.5506  0.2087
  771MOL0     C 1697   8.364   9.283   1.428  0.3883 -1.1612 -0.0029
  771MOL0     O 1698   8.507   9.274   1.416  0.0034  0.0567 -0.9578
  771MOL0     C 1699   8.573   9.373   1.341  0.3223 -0.2563 -0.1707
  771MOL0     C 1700   8.717   9.370   1.355  0.8939  0.4913  0.5924
  771MOL0     C 1701   8.760   9.459   1.475 -0.6980 -0.0796 -0.3734
  771MOL0     C 1702   8.883   9.406   1.537  0.5237 -0.7665  0.3035
  771MOL0     C 1703   8.862   9.281   1.612  0.0280  0.5549  0.4674
  771MOL0     C 1704   8.861   9.170   1.652 -0.4468  0.4918  0.1382
  771MOL0     C 1705   8.288   9.388   1.374  0.2200  0.4931  0.0557
  771MOL0     C 1706   8.150   9.406   1.401 -0.2517 -0.0800 -0.4673
  771MOL0     H 1707   7.737   9.621   1.404 -0.4094 -0.0233  0.4916
  771MOL0     H 1708   7.493   9.638   1.380  0.0781  0.3157 -1.0607
  771MOL0     H 1709   7.318   9.606   1.529  1.9548 -1.0674  1.6184
  771MOL0     H 1710   7.219   9.454   1.559  0.8045 -2.1750 -0.4513
  771MOL0     H 1711   7.167   9.629   1.334  2.6770  0.5168  1.7209
  771MOL0     H 1712   7.094   9.687   1.487 -1.7464 -0.7977  0.0571
  771MOL0     H 1713   6.975   9.458   1.490 -0.7501  0.4077  0.8319
  771MOL0     H 1714   7.046   9.423   1.333 -2.3731 -1.1237 -0.2740
  771MOL0     H 1715   6.875   9.667   1.416 -2.0938 -0.1363  0.9601
  771MOL0     H 1716   6.946   9.650   1.254 -0.8348  2.8998  2.3607
  771MOL0     H 1717   6.795   9.448   1.233 -2.4171  1.1116 -1.5553
  771MOL0     H 1718   6.720   9.603   1.235  1.4334  0.3476 -0.3283
  771MOL0     H 1719   6.684   9.558   1.501  0.6957  0.1807 -0.1743
  771MOL0     H 1720   6.770   9.406   1.470  3.1223  0.5102 -2.1182
  771MOL0     H 1721   6.573   9.354   1.308 -3.7653  0.6975 -1.1196
  771MOL0     H 1722   6.528   9.355   1.477 -1.8018  0.5986  0.5613
  771MOL0     H 1723   6.501   9.619   1.342 -0.6659  0.7261 -0.5821
  771MOL0     H 1724   6.409   9.527   1.459 -2.0288 -2.7983 -1.0384
  771MOL0     H 1725   6.454   9.421   1.078 -2.1632 -0.6693 -3.1181
  771MOL0     H 1726   6.275   9.464   0.882  1.6791 -1.3462  2.1340
  771MOL0     H 1727   6.110   9.446   0.915 -0.2368  1.1708 -0.9422
  771MOL0     H 1728   6.160   9.200   0.998  0.5378 -1.6401 -0.2146
  771MOL0     H 1729   6.299   9.205   0.900 -0.5481 -0.0823 -1.3909
  771MOL0     H 1730   6.029   9.267   0.768  0.4763  3.8001  1.0642
  771MOL0     H 1731   6.188   9.251   0.690 -0.7344  3.1465  1.0951
  771MOL0     H 1732   6.045   9.022   0.843  1.3235 -4.0712 -1.3720
  771MOL0     H 1733   6.189   9.015   0.741 -0.7302  0.8106 -2.1340
  771MOL0     H 1734   5.776   9.065   0.556  0.4349  0.0606 -0.1319
  771MOL0     H 1735   5.575   8.917   0.612 -1.1477 -0.6540  1.0001
  771MOL0     H 1736   5.491   8.462   0.573 -0.8886 -0.2562 -0.5154
  771MOL0     H 1737   5.340   8.255   0.561  3.4332  0.3347 -1.8383
  771MOL0     H 1738   5.356   8.018   0.574 -0.5156  2.3892 -0.4912
  771MOL0     H 1739   5.188   8.024   0.607  0.9075  0.3233 -0.5204
  771MOL0     H 1740   5.201   7.881   0.801  1.6137  1.5703  0.1177
  771MOL0     H 1741   5.363   7.820   0.724 -0.0877 -1.1327 -3.2651
  771MOL0     H 1742   5.249   7.766   0.526  1.9470 -3.4066  0.5769
  771MOL0     H 1743   5.093   7.799   0.608  1.1819  3.1391 -0.5021
  771MOL0     H 1744   5.291   7.611   0.724 -0.0300 -1.5202 -1.1925
  771MOL0     H 1745   5.121   7.616   0.746 -0.3501 -1.9608 -0.3101
  771MOL0     H 1746   5.183   7.418   0.609  0.9341 -0.9093 -1.6529
  771MOL0     H 1747   5.274   7.522   0.503  0.6307  0.8012  0.7082
  771MOL0     H 1748   5.094   7.619   0.404  1.1967 -0.7323  0.7074
  771MOL0     H 1749   4.978   7.538   0.519  0.4673  3.3739  1.2092
  771MOL0     H 1750   5.164   7.396   0.312 -1.4682 -1.4272 -1.8864
  771MOL0     H 1751   5.056   7.322   0.432  0.0278 -2.2398 -2.9057
  771MOL0     H 1752   4.862   7.458   0.323  2.3642  1.4266  2.0678
  771MOL0     H 1753   4.916   7.319   0.221 -1.5744  1.0365 -0.6204
  771MOL0     H 1754   5.456   8.163   0.968  0.6656  1.6540  1.3951
  771MOL0     H 1755   5.593   8.356   0.982 -2.5135 -1.8402  1.1936
  771MOL0     H 1756   5.869   8.626   0.777  0.7871  0.1921 -0.9196
  771MOL0     H 1757   6.051   8.791   0.725  0.7438  0.8674  0.0588
  771MOL0     H 1758   7.423   9.231   1.371 -3.2073  3.0569 -1.7590
  771MOL0     H 1759   7.690   9.188   1.381 -0.1952 -0.0780  1.7060
  771MOL0     H 1760   8.109   9.118   1.558  0.0369  0.2559 -0.3516
  771MOL0     H 1761   8.342   9.090   1.519  1.5555  0.4997 -0.8741
  771MOL0     H 1762   8.544   9.478   1.353  3.8228  0.7036  0.8992
  771MOL0     H 1763   8.539   9.328   1.247 -0.3527 -2.9684  1.2793
  771MOL0     H 1764   8.745   9.265   1.364 -0.4877 -0.3479 -3.0916
  771MOL0     H 1765   8.770   9.401   1.265  1.2879 -0.4775  0.4767
  771MOL0     H 1766   8.688   9.464   1.558  0.2442  2.1655  0.4038
  771MOL0     H 1767   8.779   9.560   1.437 -1.2799  0.5279  0.8743
  771MOL0     H 1768   8.960   9.384   1.462 -0.2836  1.2471 -1.2369
  771MOL0     H 1769   8.930   9.467   1.615  0.9774 -3.5301  2.3566
  771MOL0     H 1770   8.861   9.073   1.699  0.3076 -0.0475 -0.9351
  771MOL0     H 1771   8.337   9.470   1.322  0.2006  2.3880  2.7702
  771MOL0     H 1772   8.111   9.495   1.354  2.3838  1.8488  0.7475
  772MOL0     O 1773   5.495  10.898   5.491 -0.7676 -0.0122 -0.2233
  772MOL0     C 1774   5.553  10.975   5.415  0.1317  0.1058 -0.5805
  772MOL0     O 1775   5.498  11.042   5.307 -0.1483  0.9279 -0.1105
  772MOL0     C 1776   5.369  11.078   5.331  0.9774 -0.1007  0.9433
  772MOL0     C 1777   5.336  11.159   5.443  0.7534 -0.4694 -0.3443
  772MOL0     C 1778   5.200  11.197   5.455  0.1916  0.2228  0.3139
  772MOL0     C 1779   5.099  11.155   5.367 -0.2854 -0.5291  1.0104
  772MOL0     O 1780   4.973  11.195   5.403  0.0551  0.2201  0.8234
  772MOL0     C 1781   4.868  11.200   5.303 -0.1650  0.2905 -0.1242
  772MOL0     C 1782   4.734  11.209   5.382 -0.5673  1.1908  0.0114
  772MOL0     C 1783   4.617  11.130   5.312 -0.0003  1.0413 -0.6863
  772MOL0     C 1784   4.587  11.161   5.162  0.1629 -0.0464  0.3787
  772MOL0     C 1785   4.451  11.246   5.138  0.1836 -0.0071 -0.2252
  772MOL0     C 1786   4.397  11.234   4.995 -0.7679 -0.2067 -0.0704
  772MOL0     C 1787   4.253  11.292   4.978 -0.7550  0.4770  0.0386
  772MOL0     C 1788   4.195  11.287   4.836  0.0468 -0.1350 -0.4331
  772MOL0     N 1789   4.080  11.374   4.847  0.7644 -0.4373  0.3887
  772MOL0     C 1790   3.970  11.346   4.917  1.1682  0.0178  0.0549
  772MOL0     C 1791   3.883  11.442   4.881  0.8735  0.2175 -0.4830
  772MOL0     C 1792   3.734  11.447   4.926 -0.4953 -0.1064 -0.5423
  772MOL0     C 1793   3.644  11.473   4.802 -0.4479  0.2928 -0.9417
  772MOL0     C 1794   3.519  11.550   4.850  0.3104  0.4669  0.2983
  772MOL0     C 1795   3.407  11.566   4.742 -0.0138 -0.6519  0.7464
  772MOL0     O 1796   3.311  11.655   4.790  0.2657 -0.5588  0.4874
  772MOL0     C 1797   3.207  11.689   4.713  0.3145  0.3087  0.5851
  772MOL0     C 1798   3.100  11.751   4.779 -0.0596  0.8024  0.8060
  772MOL0     C 1799   2.986  11.785   4.703  0.4791 -0.3335 -0.5220
  772MOL0     C 1800   2.985  11.762   4.568  0.1813 -0.4585  0.0129
  772MOL0     C 1801   2.845  11.796   4.505 -0.1402  0.8568 -0.0912
  772MOL0     O 1802   2.724  11.796   4.580 -0.8121  0.1048 -0.0667
  772MOL0     C 1803   2.595  11.835   4.531  0.0773 -0.6384  0.1350
  772MOL0     C 1804   2.512  11.916   4.613  0.8281  0.0232  0.5323
  772MOL0     C 1805   2.382  11.940   4.561 -0.2861  0.4866 -0.2256
  772MOL0     C 1806   2.335  11.902   4.440  0.0572  0.4800 -0.8674
  772MOL0     O 1807   2.211  11.926   4.389  0.9348 -0.2953 -0.1715
  772MOL0     C 1808   2.120  11.991   4.477  0.4939 -0.4842 -0.3438
  772MOL0     C 1809   1.992  11.988   4.395  0.6815 -0.7168 -0.1363
  772MOL0     C 1810   1.889  12.084   4.462  0.4990 -0.1767  0.0684
  772MOL0     C 1811   1.753  12.060   4.391 -0.4639 -0.3904  0.3584
  772MOL0     C 1812   1.641  12.144   4.435  0.7124  0.1512  0.6357
  772MOL0     C 1813   1.520  12.128   4.354  0.5635 -0.2356  0.9038
  772MOL0     C 1814   1.391  12.189   4.408  0.0899 -0.3772  0.1066
  772MOL0     C 1815   1.271  12.179   4.314  0.0347  0.1977  0.2933
  772MOL0    Cl 1816   1.138  12.240   4.411 -0.1929  0.3214 -0.3061
  772MOL0     C 1817   2.419  11.831   4.359 -0.3918  0.1549  0.0921
  772MOL0     C 1818   2.552  11.796   4.403  0.7593 -0.8058  0.1886
  772MOL0     O 1819   2.855  11.826   4.382  0.5280  0.4250  0.6116
  772MOL0     C 1820   3.082  11.693   4.499 -0.0591  0.4200  0.6901
  772MOL0     C 1821   3.196  11.659   4.576 -0.4798 -0.3421  0.4219
  772MOL0     N 1822   3.946  11.531   4.799  0.3125  0.1961  0.1317
  772MOL0     N 1823   4.061  11.479   4.772  1.0060 -0.2773 -0.2464
  772MOL0     C 1824   5.141  11.099   5.249  0.9455  1.0153  0.0812
  772MOL0     C 1825   5.277  11.057   5.232  0.2970  0.4156  0.0982
  772MOL0     C 1826   5.701  10.962   5.432  0.1084 -0.3999 -0.4575
  772MOL0     C 1827   5.762  10.898   5.546 -0.6824 -0.3067  0.4443
  772MOL0     C 1828   5.908  10.881   5.550 -0.4287 -0.6144  0.0068
  772MOL0     C 1829   5.983  10.920   5.438 -0.0776  0.7758 -0.7550
  772MOL0     O 1830   6.123  10.899   5.427  0.0338  0.1507  0.3852
  772MOL0     C 1831   6.190  10.918   5.550 -0.2229 -0.2528 -0.2808
  772MOL0     C 1832   6.343  10.915   5.510 -0.7797  0.2295 -0.5017
  772MOL0     C 1833   6.386  10.780   5.470  0.7846 -0.2778 -0.3757
  772MOL0     C 1834   6.532  10.779   5.451 -0.6994  0.5925 -0.8400
  772MOL0     C 1835   6.567  10.641   5.399 -0.0982 -0.4173  0.0955
  772MOL0     C 1836   6.594  10.525   5.372  0.2703  0.2280  0.2686
  772MOL0     C 1837   5.916  10.952   5.320 -0.9992 -0.0497 -0.3053
  772MOL0     C 1838   5.786  10.990   5.317  0.1617  0.3181  0.2186
  772MOL0     H 1839   5.415  11.195   5.508  1.2961  0.3791 -1.4475
  772MOL0     H 1840   5.169  11.262   5.536  0.2094  2.6855 -1.5336
  772MOL0     H 1841   4.881  11.116   5.234  0.8921  0.8791 -0.6690
  772MOL0     H 1842   4.872  11.287   5.238  2.3569 -0.3064 -0.8485
  772MOL0     H 1843   4.710  11.315   5.375 -0.3760  1.2501  0.2235
  772MOL0     H 1844   4.743  11.182   5.488  0.9858  7.7029  2.0298
  772MOL0     H 1845   4.525  11.143   5.370  0.7210 -0.4458  0.8554
  772MOL0     H 1846   4.647  11.026   5.321  0.6030  1.2131 -0.6856
  772MOL0     H 1847   4.667  11.222   5.118 -0.7058  0.5365 -0.4147
  772MOL0     H 1848   4.577  11.073   5.099  0.6687  0.1782 -0.0222
  772MOL0     H 1849   4.462  11.352   5.163 -2.5341 -0.0697  1.7205
  772MOL0     H 1850   4.379  11.208   5.212  2.1943  1.8360  2.9124
  772MOL0     H 1851   4.403  11.128   4.969  1.9209 -0.4241  1.0424
  772MOL0     H 1852   4.471  11.287   4.933 -0.2017  0.1817  0.9145
  772MOL0     H 1853   4.180  11.241   5.042 -1.1016 -4.8752 -3.9352
  772MOL0     H 1854   4.256  11.395   5.014  2.2197 -0.0152  1.4234
  772MOL0     H 1855   4.163  11.184   4.819  2.9507 -0.7458 -3.0045
  772MOL0     H 1856   4.264  11.315   4.756 -3.1233  1.6972 -2.7467
  772MOL0     H 1857   3.960  11.249   4.963 -0.4496 -2.7007 -5.2143
  772MOL0     H 1858   3.730  11.522   5.006  0.9443 -2.0560  1.4651
  772MOL0     H 1859   3.699  11.354   4.971 -1.3188 -0.6329 -2.2044
  772MOL0     H 1860   3.614  11.374   4.766 -4.0945  0.2331  1.7315
  772MOL0     H 1861   3.695  11.537   4.730 -2.2566  1.9744 -0.8179
  772MOL0     H 1862   3.490  11.485   4.933  0.4518  0.0899  0.0590
  772MOL0     H 1863   3.545  11.651   4.882 -4.1897  1.7711  0.4781
  772MOL0     H 1864   3.366  11.466   4.724 -3.0302  0.5238  0.4466
  772MOL0     H 1865   3.446  11.606   4.648  0.5929 -1.4413  0.6470
  772MOL0     H 1866   3.117  11.769   4.885  3.0606  3.8165 -0.0074
  772MOL0     H 1867   2.904  11.829   4.759  0.2746 -0.6902 -0.5445
  772MOL0     H 1868   2.526  11.950   4.715 -1.6152  1.4987  0.4529
  772MOL0     H 1869   2.316  11.987   4.634  0.9903 -0.5679  1.7174
  772MOL0     H 1870   2.161  12.088   4.505  1.0590 -0.6264 -0.6537
  772MOL0     H 1871   2.108  11.930   4.567 -0.4722  0.5567  0.2566
  772MOL0     H 1872   1.944  11.890   4.388 -0.0552 -0.2718 -1.7712
  772MOL0     H 1873   2.017  12.023   4.295 -0.6552 -1.9294 -0.9298
  772MOL0     H 1874   1.921  12.188   4.448  1.4725 -0.7938 -2.9699
  772MOL0     H 1875   1.884  12.061   4.569 -0.3284 -1.7790 -0.2813
  772MOL0     H 1876   1.773  12.069   4.284 -1.7303  0.0774  0.1549
  772MOL0     H 1877   1.718  11.958   4.404 -1.5725  0.0456  0.9383
  772MOL0     H 1878   1.673  12.246   4.411  1.5102 -0.6521 -2.0671
  772MOL0     H 1879   1.622  12.148   4.543 -0.0480  1.9351  0.4765
  772MOL0     H 1880   1.502  12.021   4.339 -0.4013 -0.0834  0.8674
  772MOL0     H 1881   1.539  12.169   4.255 -1.1873 -1.1128  0.1565
  772MOL0     H 1882   1.377  12.153   4.510 -0.5038 -1.3609 -0.3057
  772MOL0     H 1883   1.421  12.294   4.415 -0.4594 -0.0843 -1.4356
  772MOL0     H 1884   1.234  12.076   4.303  2.0661 -0.8341  2.3513
  772MOL0     H 1885   1.268  12.228   4.216  0.6391 -0.9646 -0.3360
  772MOL0     H 1886   2.391  11.793   4.261  0.9440 -0.2377 -0.1601
  772MOL0     H 1887   2.609  11.734   4.334  0.9198  0.4432 -0.8279
  772MOL0     H 1888   3.085  11.672   4.392  2.1785  1.0407  0.5905
  772MOL0     H 1889   3.273  11.620   4.510  2.2529 -0.9292  3.6651
  772MOL0     H 1890   5.079  11.053   5.173  1.2776  0.3925  0.1765
  772MOL0     H 1891   5.305  10.992   5.150 -0.3673  1.6787 -1.1505
  772MOL0     H 1892   5.691  10.869   5.622  1.2564 -1.6766  1.8238
  772MOL0     H 1893   5.953  10.832   5.635 -0.5650 -0.2738  0.2743
  772MOL0     H 1894   6.163  10.834   5.615 -1.1533 -1.3715 -2.0310
  772MOL0     H 1895   6.148  11.008   5.595 -1.8294 -2.0331  2.0163
  772MOL0     H 1896   6.356  10.989   5.431  1.8176  0.1944 -0.1788
  772MOL0     H 1897   6.401  10.940   5.599 -0.8578 -0.4819 -0.2409
  772MOL0     H 1898   6.337  10.743   5.379  1.9258  1.0426 -1.5749
  772MOL0     H 1899   6.364  10.710   5.552  2.0153 -0.2439 -0.0052
  772MOL0     H 1900   6.556  10.852   5.373  1.6195 -1.3358 -2.0528
  772MOL0     H 1901   6.586  10.807   5.542 -1.5687  3.5543 -1.1373
  772MOL0     H 1902   6.610  10.422   5.345 -0.7228 -0.5285  2.3329
  772MOL0     H 1903   5.977  10.964   5.231 -0.3358  1.4532  0.3337
  772MOL0     H 1904   5.750  11.030   5.223  2.3448 -0.2442 -0.9472
  773MOL0     O 1905  10.116   7.127   1.585 -0.4753 -0.8166 -0.1763
  773MOL0     C 1906  10.151   7.017   1.558  0.7408  0.4688 -0.2763
  773MOL0     O 1907  10.072   6.910   1.530  0.3105  0.1345  0.0040
  773MOL0     C 1908   9.942   6.932   1.502  0.2767  0.3685  0.3760
  773MOL0     C 1909   9.897   7.014   1.400 -0.5785 -0.4353 -1.1358
  773MOL0     C 1910   9.770   7.011   1.357  0.8285  1.0140  0.3172
  773MOL0     C 1911   9.677   6.924   1.416 -0.3312  0.8512  0.5830
  773MOL0     O 1912   9.547   6.900   1.384 -0.2756 -0.8269 -0.2460
  773MOL0     C 1913   9.470   7.018   1.356 -0.7206  0.0085  0.5401
  773MOL0     C 1914   9.321   7.002   1.400 -0.4195 -0.0986  0.5489
  773MOL0     C 1915   9.311   6.975   1.547  0.7850 -0.0603 -0.0133
  773MOL0     C 1916   9.158   6.979   1.586 -0.0690  0.1428  0.4723
  773MOL0     C 1917   9.128   6.856   1.676  0.1906  0.1649 -0.2235
  773MOL0     C 1918   8.987   6.854   1.731 -0.7800  0.9060  0.2903
  773MOL0     C 1919   8.964   6.736   1.830  0.1596 -0.4872  0.4478
  773MOL0     C 1920   8.942   6.600   1.755 -0.7579 -0.3149 -0.4640
  773MOL0     N 1921   8.801   6.584   1.726  0.3412  0.6102 -0.3519
  773MOL0     C 1922   8.712   6.540   1.820  1.2296 -0.1413  0.0987
  773MOL0     C 1923   8.592   6.570   1.760 -0.1530  0.8690  1.3736
  773MOL0     C 1924   8.452   6.526   1.820 -0.0790 -0.2620  0.3980
  773MOL0     C 1925   8.404   6.391   1.751 -0.0160  0.2451 -0.0461
  773MOL0     C 1926   8.318   6.305   1.849 -0.3447 -1.0542  0.5450
  773MOL0     C 1927   8.169   6.342   1.838  0.1904  0.1055  0.4067
  773MOL0     O 1928   8.081   6.275   1.931 -0.2550 -0.1209  0.2191
  773MOL0     C 1929   7.959   6.263   1.881 -0.2285  0.2393 -0.0290
  773MOL0     C 1930   7.923   6.132   1.855 -0.1308 -0.5559 -0.8989
  773MOL0     C 1931   7.794   6.099   1.812 -0.7976 -0.3598 -0.1586
  773MOL0     C 1932   7.708   6.193   1.760 -0.2161 -0.3700  0.3373
  773MOL0     C 1933   7.590   6.152   1.703  0.5297 -0.3520  0.2450
  773MOL0     O 1934   7.549   6.023   1.722  0.4504 -0.2822 -0.4745
  773MOL0     C 1935   7.431   5.980   1.677  0.4947 -0.3276  0.0572
  773MOL0     C 1936   7.425   5.845   1.633  0.3460 -0.4381  0.3058
  773MOL0     C 1937   7.308   5.786   1.586  0.0787  0.0224  0.1151
  773MOL0     C 1938   7.186   5.860   1.581 -0.4144  0.1836 -0.6831
  773MOL0     O 1939   7.071   5.790   1.558 -0.1404 -0.1882 -0.0082
  773MOL0     C 1940   6.945   5.844   1.607  0.5083 -0.2747 -0.0840
  773MOL0     C 1941   6.834   5.742   1.594  0.0366 -0.4766 -0.3473
  773MOL0     C 1942   6.864   5.624   1.697 -0.0993 -0.1068  0.2303
  773MOL0     C 1943   6.731   5.555   1.739 -0.5575  0.0753  0.6699
  773MOL0     C 1944   6.767   5.431   1.826 -0.4386  0.0216  0.1906
  773MOL0     C 1945   6.655   5.363   1.889  0.5274  0.0160 -0.8882
  773MOL0     C 1946   6.612   5.434   2.019 -0.1634  0.7372 -0.4531
  773MOL0     C 1947   6.476   5.384   2.074 -0.0753  0.5120 -0.5511
  773MOL0    Cl 1948   6.342   5.413   1.949 -0.3074  0.3429  0.1429
  773MOL0     C 1949   7.194   5.998   1.625 -0.1932 -0.0869 -0.4139
  773MOL0     C 1950   7.313   6.053   1.673 -0.1546  0.7061 -0.4174
  773MOL0     O 1951   7.523   6.239   1.646  0.3725  0.1285 -0.0632
  773MOL0     C 1952   7.751   6.327   1.771  0.2099 -0.3232 -0.5679
  773MOL0     C 1953   7.877   6.366   1.831  0.5743  0.6648 -1.0588
  773MOL0     N 1954   8.613   6.654   1.647  0.1396  0.7572  0.3749
  773MOL0     N 1955   8.740   6.648   1.619 -0.0784 -0.0372  0.1237
  773MOL0     C 1956   9.725   6.842   1.513  0.2880 -0.2608  0.3291
  773MOL0     C 1957   9.853   6.849   1.565 -0.2573 -0.7436 -0.1270
  773MOL0     C 1958  10.298   6.991   1.558  0.3534  0.4543  0.4944
  773MOL0     C 1959  10.351   6.882   1.483 -0.2739  0.3928 -0.1336
  773MOL0     C 1960  10.489   6.856   1.486  0.0423 -0.0164 -0.1120
  773MOL0     C 1961  10.574   6.932   1.555 -0.8858 -0.5821  0.3525
  773MOL0     O 1962  10.705   6.884   1.557  0.1472 -0.0874  0.0446
  773MOL0     C 1963  10.816   6.935   1.633 -0.4784 -0.1412  0.0950
  773MOL0     C 1964  10.929   6.839   1.594  0.6634  1.1288 -0.4827
  773MOL0     C 1965  10.958   6.852   1.442  0.4889  0.0232 -0.3244
  773MOL0     C 1966  11.098   6.791   1.401 -0.0716 -0.3640  0.5715
  773MOL0     C 1967  11.202   6.883   1.464 -1.0064  1.0150 -0.8966
  773MOL0     C 1968  11.283   6.950   1.524  0.8947 -0.1970  0.0890
  773MOL0     C 1969  10.532   7.041   1.626 -1.2060 -0.0572 -0.0301
  773MOL0     C 1970  10.392   7.067   1.631 -0.6699  0.0162  0.2239
  773MOL0     H 1971   9.962   7.077   1.341 -1.5672  0.6092 -1.1555
  773MOL0     H 1972   9.746   7.080   1.277 -1.6828  0.2289  0.3034
  773MOL0     H 1973   9.465   7.040   1.249 -0.7065 -1.8353  0.1277
  773MOL0     H 1974   9.507   7.096   1.423 -0.3155 -2.0485  2.8722
  773MOL0     H 1975   9.286   6.919   1.337  1.2906 -0.0292 -0.5840
  773MOL0     H 1976   9.266   7.089   1.365  0.2105 -0.3138 -1.0588
  773MOL0     H 1977   9.376   7.044   1.600  2.0873 -1.5735  0.4216
  773MOL0     H 1978   9.351   6.876   1.570 -0.2681 -0.7442 -0.9688
  773MOL0     H 1979   9.146   7.073   1.641 -3.4838  2.5000 -3.6961
  773MOL0     H 1980   9.090   6.986   1.500  0.0216 -0.3676  0.3577
  773MOL0     H 1981   9.197   6.863   1.761 -0.0759  0.6070 -0.0361
  773MOL0     H 1982   9.138   6.768   1.613 -1.6832  0.9325 -1.6954
  773MOL0     H 1983   8.906   6.872   1.661 -0.2029 -0.4245 -0.7708
  773MOL0     H 1984   8.975   6.945   1.790  0.2216  1.1599  0.1256
  773MOL0     H 1985   9.056   6.735   1.890  2.3828 -0.1554 -2.7307
  773MOL0     H 1986   8.876   6.764   1.889 -1.3386 -2.7371 -0.5830
  773MOL0     H 1987   8.975   6.517   1.819 -0.8872 -0.4229 -0.5364
  773MOL0     H 1988   8.996   6.602   1.660 -3.2110 -0.6924 -1.9506
  773MOL0     H 1989   8.726   6.482   1.911 -1.3896 -2.0871 -0.6269
  773MOL0     H 1990   8.378   6.605   1.806  2.1827  1.7537 -0.9890
  773MOL0     H 1991   8.468   6.508   1.927  0.0759  0.3243  0.4782
  773MOL0     H 1992   8.488   6.326   1.725 -0.9151 -0.7571 -0.5121
  773MOL0     H 1993   8.351   6.412   1.658  1.1936  0.5118 -0.6870
  773MOL0     H 1994   8.339   6.200   1.827 -2.1669 -1.1444 -1.0792
  773MOL0     H 1995   8.353   6.314   1.952  0.1338 -1.4853  0.4220
  773MOL0     H 1996   8.145   6.314   1.735 -1.4931 -1.0665  1.0882
  773MOL0     H 1997   8.136   6.446   1.853 -3.6737 -0.9392  0.1293
  773MOL0     H 1998   7.994   6.052   1.874  0.9400  0.5437 -0.1482
  773MOL0     H 1999   7.772   5.993   1.807 -0.1771 -0.4300 -2.7328
  773MOL0     H 2000   7.521   5.794   1.638  0.9051  0.6499  0.8579
  773MOL0     H 2001   7.306   5.679   1.567 -0.4281  0.3232 -1.7793
  773MOL0     H 2002   6.911   5.930   1.549 -1.1207  0.9273  2.4216
  773MOL0     H 2003   6.956   5.875   1.712 -0.2096 -0.0050 -0.0762
  773MOL0     H 2004   6.814   5.703   1.494 -3.7979 -0.6579  0.3371
  773MOL0     H 2005   6.748   5.800   1.630  0.6766  0.2502  0.0468
  773MOL0     H 2006   6.913   5.672   1.782 -0.9152  0.5668  0.3352
  773MOL0     H 2007   6.939   5.549   1.670 -2.1002 -1.4635 -1.9374
  773MOL0     H 2008   6.661   5.628   1.779 -1.5127 -1.6614  2.3780
  773MOL0     H 2009   6.699   5.521   1.640  0.2870 -1.0602  0.7529
  773MOL0     H 2010   6.835   5.464   1.905 -1.4257  2.0857  0.2301
  773MOL0     H 2011   6.821   5.362   1.760 -3.3614 -1.3528 -0.9301
  773MOL0     H 2012   6.677   5.259   1.913 -1.5436 -0.3587 -0.4522
  773MOL0     H 2013   6.572   5.355   1.818 -1.3842  2.7156  0.8012
  773MOL0     H 2014   6.694   5.424   2.091 -0.6015  0.2085 -0.0081
  773MOL0     H 2015   6.605   5.541   2.000 -0.4328  0.2721 -3.4015
  773MOL0     H 2016   6.460   5.437   2.168  0.3422 -1.9693  1.0118
  773MOL0     H 2017   6.475   5.277   2.096 -1.5857  0.6173  0.0373
  773MOL0     H 2018   7.097   6.046   1.623  0.8122  2.0911  0.0815
  773MOL0     H 2019   7.301   6.157   1.702 -1.3965  0.4109  0.2237
  773MOL0     H 2020   7.685   6.399   1.724 -0.8613 -0.8882  0.0464
  773MOL0     H 2021   7.895   6.473   1.839 -1.1394  1.0001 -1.3268
  773MOL0     H 2022   9.660   6.776   1.570 -2.2488  0.3723 -1.6430
  773MOL0     H 2023   9.892   6.788   1.646 -1.3490 -0.0580  0.9434
  773MOL0     H 2024  10.289   6.814   1.425 -0.0866  0.2961 -0.2213
  773MOL0     H 2025  10.519   6.765   1.434  1.0625 -0.6278  1.4668
  773MOL0     H 2026  10.794   6.925   1.740  0.0320  1.5530  0.3847
  773MOL0     H 2027  10.835   7.040   1.610 -1.3664 -0.0823 -0.3978
  773MOL0     H 2028  11.019   6.862   1.651  1.8374 -1.8804 -0.9797
  773MOL0     H 2029  10.907   6.737   1.626  1.4777  1.3218  0.7921
  773MOL0     H 2030  10.957   6.958   1.417 -3.2653  0.8971  2.6374
  773MOL0     H 2031  10.879   6.799   1.389 -1.1328  0.5307  1.4503
  773MOL0     H 2032  11.117   6.697   1.455 -0.6304  0.5998  2.5339
  773MOL0     H 2033  11.114   6.784   1.293 -0.6574  0.1893  0.4477
  773MOL0     H 2034  11.361   6.998   1.581  1.0419 -0.1570 -0.1446
  773MOL0     H 2035  10.594   7.106   1.687 -1.0681  0.3527 -0.5934
  773MOL0     H 2036  10.361   7.147   1.698  0.3097  1.1046 -0.5724
  774MOL0     O 2037   2.090  10.694   5.917 -0.2695  0.0701  0.0079
  774MOL0     C 2038   2.094  10.656   5.800  0.3439 -0.1289  0.1731
  774MOL0     O 2039   2.001  10.680   5.698 -0.2166  0.7447  0.6891
  774MOL0     C 2040   1.883  10.745   5.727 -0.2194 -0.3963  0.1849
  774MOL0     C 2041   1.762  10.694   5.688 -0.4514  0.5788 -0.2717
  774MOL0     C 2042   1.652  10.761   5.736  0.3952  0.7230  0.3680
  774MOL0     C 2043   1.651  10.883   5.799  0.3241  0.4190  0.5144
  774MOL0     O 2044   1.539  10.952   5.847  0.1115 -0.6989 -0.0007
  774MOL0     C 2045   1.418  10.871   5.859  0.1654  0.7496  0.9831
  774MOL0     C 2046   1.329  10.953   5.960  0.0576 -0.2041  0.5434
  774MOL0     C 2047   1.189  10.893   5.994  0.1804 -0.1829 -0.0721
  774MOL0     C 2048   1.093  11.006   6.043  0.2234  0.2581 -0.1649
  774MOL0     C 2049   0.950  10.955   6.060  0.2115 -0.9863 -0.1684
  774MOL0     C 2050   0.864  11.067   6.121  0.8319 -0.0583  0.0754
  774MOL0     C 2051   0.717  11.023   6.124  0.0709 -0.0688 -0.0754
  774MOL0     C 2052   0.627  11.117   6.207 -1.1486  0.1794  0.1091
  774MOL0     N 2053   0.489  11.077   6.221  0.4934  0.2962  0.6445
  774MOL0     C 2054   0.446  10.955   6.271 -0.3972 -0.4195 -0.5329
  774MOL0     C 2055   0.310  10.961   6.255  0.5860  0.4825  0.4703
  774MOL0     C 2056   0.224  10.846   6.280  0.5152  0.1817 -0.3382
  774MOL0     C 2057   0.127  10.815   6.167 -0.0593  0.2218 -0.4519
  774MOL0     C 2058   0.194  10.754   6.045  0.4350 -1.1597  0.0298
  774MOL0     C 2059   0.253  10.867   5.954  0.2364  0.5984  0.6948
  774MOL0     O 2060   0.298  10.795   5.830 -0.9433  0.3135 -0.2356
  774MOL0     C 2061   0.426  10.740   5.842  0.2854 -0.3719 -0.0072
  774MOL0     C 2062   0.459  10.662   5.731 -0.0160 -0.8801  0.0014
  774MOL0     C 2063   0.585  10.605   5.717 -0.3152  0.4932 -0.5378
  774MOL0     C 2064   0.693  10.639   5.811 -0.5397  1.1489 -0.2376
  774MOL0     C 2065   0.831  10.592   5.788  0.1140 -0.5478  0.9235
  774MOL0     O 2066   0.934  10.630   5.871  0.1918 -0.5136 -0.0223
  774MOL0     C 2067   1.058  10.584   5.874  0.8219  0.0400  0.5046
  774MOL0     C 2068   1.111  10.540   5.995 -0.2025 -0.1319 -0.4586
  774MOL0     C 2069   1.238  10.490   6.010 -0.6786  0.1158  0.2290
  774MOL0     C 2070   1.321  10.476   5.894  0.1786 -0.5519  0.1319
  774MOL0     O 2071   1.450  10.416   5.900  0.4392  0.3827 -0.3577
  774MOL0     C 2072   1.516  10.433   6.026 -0.2736 -0.7958 -0.6086
  774MOL0     C 2073   1.645  10.343   6.041  0.3762  0.0447  1.1964
  774MOL0     C 2074   1.750  10.368   5.932  0.0839 -0.0972 -0.7788
  774MOL0     C 2075   1.848  10.249   5.939  0.8975 -0.0644  0.8932
  774MOL0     C 2076   1.954  10.262   5.839 -0.1658 -0.4559 -0.2751
  774MOL0     C 2077   2.067  10.170   5.864  0.6413  0.5422 -0.6086
  774MOL0     C 2078   2.172  10.204   5.759  0.5778 -0.4800  0.6414
  774MOL0     C 2079   2.289  10.109   5.765 -0.0587 -0.5425  0.4148
  774MOL0    Cl 2080   2.373  10.128   5.929  0.3037 -0.0953  0.2244
  774MOL0     C 2081   1.263  10.510   5.775  0.3155  0.2350 -0.1490
  774MOL0     C 2082   1.138  10.559   5.762  0.3352 -0.1713  0.0365
  774MOL0     O 2083   0.835  10.517   5.699 -0.4892 -0.0726 -0.8044
  774MOL0     C 2084   0.659  10.713   5.928  0.2706  0.4372  0.1697
  774MOL0     C 2085   0.524  10.764   5.943  0.5724  0.3514 -0.3378
  774MOL0     N 2086   0.275  11.082   6.205 -0.6881  0.5772 -1.0220
  774MOL0     N 2087   0.386  11.153   6.193  0.3627  0.6841 -0.2923
  774MOL0     C 2088   1.779  10.950   5.812 -0.5291 -0.1652 -0.5527
  774MOL0     C 2089   1.895  10.874   5.779  0.2296 -0.3946  0.6661
  774MOL0     C 2090   2.224  10.587   5.768 -0.0283 -0.0573  0.6559
  774MOL0     C 2091   2.271  10.576   5.634  0.4801  0.0622 -0.4211
  774MOL0     C 2092   2.393  10.512   5.602 -0.5159 -0.1800 -0.2547
  774MOL0     C 2093   2.469  10.465   5.705 -0.0372  0.2443 -0.0976
  774MOL0     O 2094   2.598  10.416   5.675  0.0073 -1.0148  0.1107
  774MOL0     C 2095   2.629  10.288   5.724  0.0584 -0.1564 -0.4820
  774MOL0     C 2096   2.759  10.243   5.659 -0.6996  0.2465  0.0354
  774MOL0     C 2097   2.743  10.196   5.514 -1.4252  0.5191  0.0746
  774MOL0     C 2098   2.886  10.218   5.449  0.8104  0.1929  0.5325
  774MOL0     C 2099   2.887  10.143   5.319 -0.7918  0.4496 -0.1226
  774MOL0     C 2100   2.869  10.091   5.212 -0.3098  0.7041  0.1428
  774MOL0     C 2101   2.424  10.475   5.838 -0.3023  0.0869 -0.2678
  774MOL0     C 2102   2.310  10.533   5.868  0.9896 -0.2388  0.0701
  774MOL0     H 2103   1.756  10.599   5.637  0.2532  0.6270 -0.4606
  774MOL0     H 2104   1.557  10.718   5.707 -0.7739  1.7700  2.4558
  774MOL0     H 2105   1.441  10.774   5.906 -1.0231 -0.8270 -1.4537
  774MOL0     H 2106   1.379  10.857   5.758  3.2412 -1.7895 -0.0249
  774MOL0     H 2107   1.310  11.053   5.920 -2.4814  0.1403  2.3683
  774MOL0     H 2108   1.385  10.970   6.052  0.9505 -2.3725  0.4682
  774MOL0     H 2109   1.201  10.819   6.073  1.3234 -0.2784 -0.3176
  774MOL0     H 2110   1.144  10.840   5.909  0.2234  1.0280 -0.8778
  774MOL0     H 2111   1.126  11.031   6.145 -1.2051  0.5810  0.2359
  774MOL0     H 2112   1.095  11.093   5.977  0.2353 -1.3359 -2.3549
  774MOL0     H 2113   0.967  10.872   6.129 -1.1046 -1.5905 -0.5401
  774MOL0     H 2114   0.916  10.917   5.963  0.3235 -2.8651  0.4859
  774MOL0     H 2115   0.867  11.154   6.056  0.8114 -0.1477 -0.0446
  774MOL0     H 2116   0.883  11.097   6.224 -3.5719  0.7240  0.8531
  774MOL0     H 2117   0.677  11.016   6.023 -2.8027 -0.0707  0.9847
  774MOL0     H 2118   0.716  10.919   6.159 -1.7260 -0.1433 -0.2742
  774MOL0     H 2119   0.624  11.215   6.157  0.2047  3.0447  4.9726
  774MOL0     H 2120   0.673  11.140   6.303  1.0977 -1.4748 -0.4769
  774MOL0     H 2121   0.515  10.879   6.306  0.8602  1.6604  1.8709
  774MOL0     H 2122   0.167  10.867   6.371  0.3543 -0.7171 -0.2297
  774MOL0     H 2123   0.284  10.757   6.300 -0.8390 -0.4805  0.8958
  774MOL0     H 2124   0.066  10.901   6.137 -2.7997 -0.7249  1.9111
  774MOL0     H 2125   0.064  10.741   6.217  1.8630 -1.3339 -0.1883
  774MOL0     H 2126   0.271  10.686   6.083  1.5537 -1.1492 -2.0657
  774MOL0     H 2127   0.121  10.692   5.992 -0.6622 -0.9641  1.2630
  774MOL0     H 2128   0.335  10.927   5.995  1.5536 -0.4157 -0.3547
  774MOL0     H 2129   0.164  10.921   5.920  0.2094  0.5742  0.7281
  774MOL0     H 2130   0.383  10.660   5.654  1.4886  1.2158 -1.6600
  774MOL0     H 2131   0.612  10.558   5.622  0.3104  1.2894 -0.7680
  774MOL0     H 2132   1.045  10.554   6.080 -1.1067  4.1259 -1.6529
  774MOL0     H 2133   1.256  10.462   6.113  0.0540  2.6912  0.8668
  774MOL0     H 2134   1.448  10.401   6.105 -0.5693 -1.8705 -1.2740
  774MOL0     H 2135   1.539  10.540   6.033 -0.1599 -0.9088  1.2887
  774MOL0     H 2136   1.615  10.238   6.041 -1.2192  0.4198 -1.1393
  774MOL0     H 2137   1.681  10.362   6.143  0.4189 -2.6936  1.7718
  774MOL0     H 2138   1.824  10.444   5.960  3.9548 -3.5425 -0.6177
  774MOL0     H 2139   1.702  10.384   5.835 -0.8414  3.1616  0.0955
  774MOL0     H 2140   1.897  10.235   6.036  1.7582  1.5714  0.7222
  774MOL0     H 2141   1.788  10.160   5.920 -1.4537  1.9846 -2.3770
  774MOL0     H 2142   1.979  10.368   5.843 -1.5881 -0.1223  0.2037
  774MOL0     H 2143   1.905  10.247   5.743 -4.1081 -0.6938  1.5976
  774MOL0     H 2144   2.049  10.063   5.853  2.5811 -0.1622  2.1536
  774MOL0     H 2145   2.111  10.188   5.962 -0.9183 -1.1101  0.4411
  774MOL0     H 2146   2.129  10.213   5.659  3.0883  2.0490 -0.3280
  774MOL0     H 2147   2.210  10.306   5.765 -1.6723  0.5550 -1.0271
  774MOL0     H 2148   2.350  10.131   5.676 -2.0835  2.0312 -0.4675
  774MOL0     H 2149   2.255  10.005   5.756 -2.4181  0.2881 -1.2807
  774MOL0     H 2150   1.311  10.505   5.678 -0.3529 -2.0028 -0.4096
  774MOL0     H 2151   1.099  10.603   5.670  2.8631  0.9654 -0.5720
  774MOL0     H 2152   0.729  10.739   6.007 -1.2248  3.0044  0.7829
  774MOL0     H 2153   0.512  10.809   6.041  3.4351  0.4421  0.0426
  774MOL0     H 2154   1.778  11.051   5.850 -1.4467  0.3561 -1.9034
  774MOL0     H 2155   1.991  10.916   5.807 -0.1972  0.9573  0.1573
  774MOL0     H 2156   2.214  10.614   5.550  2.5338 -0.4192 -2.1206
  774MOL0     H 2157   2.428  10.504   5.499 -0.0174 -0.7815 -0.0437
  774MOL0     H 2158   2.558  10.217   5.683  0.1451  0.1705 -1.2225
  774MOL0     H 2159   2.632  10.300   5.833  0.2900 -0.6763 -0.4296
  774MOL0     H 2160   2.829  10.327   5.662 -0.9606  0.4643  2.1748
  774MOL0     H 2161   2.801  10.162   5.719 -1.8167 -0.3817  0.0061
  774MOL0     H 2162   2.665  10.250   5.460 -2.3465 -0.9502 -0.1177
  774MOL0     H 2163   2.720  10.089   5.505  1.8912 -0.4744  1.5673
  774MOL0     H 2164   2.914  10.322   5.427 -0.0508 -0.1534 -2.7126
  774MOL0     H 2165   2.963  10.176   5.514  0.2741  1.3423  1.9570
  774MOL0     H 2166   2.854  10.049   5.115  1.8637 -1.1839  0.5298
  774MOL0     H 2167   2.489  10.446   5.920 -1.5697  0.1676  0.8001
  774MOL0     H 2168   2.270  10.544   5.969  0.8182 -0.0718 -0.0159
  775MOL0     O 2169   3.904   2.552   7.342  0.8709  0.9547  0.1680
  775MOL0     C 2170   3.932   2.628   7.436  0.6325 -0.8443 -0.2647
  775MOL0     O 2171   3.841   2.684   7.514 -0.1078 -0.1924  0.1840
  775MOL0     C 2172   3.712   2.656   7.479  0.1515  0.0156 -0.6831
  775MOL0     C 2173   3.653   2.726   7.370 -0.9830 -0.2090 -0.0323
  775MOL0     C 2174   3.530   2.698   7.321  0.1646 -0.6151 -0.8733
  775MOL0     C 2175   3.449   2.596   7.370 -0.4653  0.2237  0.1816
  775MOL0     O 2176   3.320   2.573   7.339  0.0356  0.6840 -0.1172
  775MOL0     C 2177   3.227   2.680   7.306  0.0838  0.0997  0.4139
  775MOL0     C 2178   3.088   2.609   7.318 -0.0005 -0.2305 -0.5768
  775MOL0     C 2179   2.963   2.687   7.278 -0.6027 -0.5152 -0.5949
  775MOL0     C 2180   2.957   2.807   7.377  2.0586 -0.1208  0.5299
  775MOL0     C 2181   2.811   2.834   7.395  0.9621  0.2387  0.1107
  775MOL0     C 2182   2.735   2.894   7.279 -0.6538 -0.1957  0.2258
  775MOL0     C 2183   2.595   2.947   7.315 -0.3701  0.4649 -0.4280
  775MOL0     C 2184   2.499   2.969   7.199  0.4195  0.0138 -0.3058
  775MOL0     N 2185   2.427   2.846   7.155  0.0987 -0.4304 -0.9349
  775MOL0     C 2186   2.304   2.808   7.204 -0.5656  0.4074  1.3400
  775MOL0     C 2187   2.259   2.730   7.111 -0.1799 -0.0083  0.9943
  775MOL0     C 2188   2.127   2.664   7.100  0.3841 -0.8196  0.3434
  775MOL0     C 2189   2.012   2.764   7.091  0.3426 -0.3783 -0.4624
  775MOL0     C 2190   1.868   2.705   7.102 -0.2315  0.5055  0.6649
  775MOL0     C 2191   1.821   2.621   6.974  0.5937 -0.8883 -1.3943
  775MOL0     O 2192   1.680   2.639   6.978  0.6818 -0.3363  0.5973
  775MOL0     C 2193   1.590   2.542   7.006  0.3800  0.2877 -0.2654
  775MOL0     C 2194   1.462   2.570   6.956  0.4386 -0.1536  0.7915
  775MOL0     C 2195   1.360   2.478   6.969 -1.0544  0.3945  0.2566
  775MOL0     C 2196   1.392   2.348   7.010  0.3729  0.2903  0.3496
  775MOL0     C 2197   1.293   2.241   7.000  0.0089  0.1039 -0.0716
  775MOL0     O 2198   1.338   2.113   7.032  0.7678 -0.0981 -0.1253
  775MOL0     C 2199   1.246   2.006   7.023  0.0487 -0.4682  0.2632
  775MOL0     C 2200   1.126   1.986   6.942 -0.7246 -0.2387 -0.1043
  775MOL0     C 2201   1.054   1.869   6.927 -0.8032 -0.2939  0.0810
  775MOL0     C 2202   1.084   1.769   7.022  0.7739  0.7118 -0.4071
  775MOL0     O 2203   1.010   1.659   7.029 -0.0836  0.3373 -0.4427
  775MOL0     C 2204   0.869   1.690   7.020  0.5327 -0.5044  0.0930
  775MOL0     C 2205   0.786   1.582   7.087  0.3440  0.7695  0.3574
  775MOL0     C 2206   0.634   1.568   7.048 -1.0591 -0.0362  0.2238
  775MOL0     C 2207   0.570   1.491   7.162 -0.0729 -0.6745 -0.5881
  775MOL0     C 2208   0.426   1.454   7.117 -0.0884  0.8169  0.2515
  775MOL0     C 2209   0.346   1.575   7.133 -0.1675  0.0107 -0.5830
  775MOL0     C 2210   0.196   1.545   7.128 -0.1025  0.1415  0.2138
  775MOL0     C 2211   0.151   1.449   7.235  0.0384 -0.0303 -0.4492
  775MOL0    Cl 2212   0.230   1.461   7.394 -0.3034 -0.3267 -0.2379
  775MOL0     C 2213   1.204   1.780   7.097 -0.2430 -0.5376 -0.3176
  775MOL0     C 2214   1.291   1.898   7.098  0.9089  0.3316 -0.2828
  775MOL0     O 2215   1.169   2.270   6.976 -1.0633  0.8013  0.5018
  775MOL0     C 2216   1.518   2.322   7.058  0.5801  0.6997 -0.2600
  775MOL0     C 2217   1.616   2.423   7.066  0.3077  0.5882  0.0234
  775MOL0     N 2218   2.342   2.721   7.001 -0.1988  0.5783  0.2613
  775MOL0     N 2219   2.450   2.787   7.039  0.3062 -0.2287  0.1966
  775MOL0     C 2220   3.510   2.522   7.470 -0.6416  0.3041 -1.0966
  775MOL0     C 2221   3.631   2.555   7.523  0.4093  0.3285 -0.3644
  775MOL0     C 2222   4.067   2.634   7.476  0.2503  0.2980 -0.2255
  775MOL0     C 2223   4.125   2.748   7.513  0.1922  0.6630 -0.2135
  775MOL0     C 2224   4.267   2.755   7.538  0.1218 -1.4347 -0.0045
  775MOL0     C 2225   4.342   2.640   7.534  0.0615  0.7996 -0.3996
  775MOL0     O 2226   4.481   2.631   7.565  0.2174  0.2053 -0.2007
  775MOL0     C 2227   4.561   2.754   7.551  0.8274  0.1357  0.2654
  775MOL0     C 2228   4.703   2.701   7.508  0.4502 -0.3150 -0.3986
  775MOL0     C 2229   4.796   2.814   7.476  0.3360 -0.1417 -0.2298
  775MOL0     C 2230   4.944   2.778   7.505 -1.0050  0.4082 -0.3249
  775MOL0     C 2231   5.004   2.717   7.380  0.8057 -0.1364  0.1879
  775MOL0     C 2232   5.060   2.683   7.282  0.1345  0.4584 -0.1475
  775MOL0     C 2233   4.278   2.521   7.517  0.1240  0.8294  0.2201
  775MOL0     C 2234   4.146   2.518   7.483  0.7906  0.2682  0.0390
  775MOL0     H 2235   3.711   2.807   7.325 -0.0092 -1.5727 -1.3175
  775MOL0     H 2236   3.506   2.765   7.239  2.2115 -0.5644 -1.4730
  775MOL0     H 2237   3.235   2.721   7.205 -0.1272  0.5393  0.5740
  775MOL0     H 2238   3.237   2.756   7.384  2.6711  0.6392 -0.3463
  775MOL0     H 2239   3.070   2.557   7.412  1.6403  0.2245  0.0254
  775MOL0     H 2240   3.097   2.527   7.247 -5.5424 -1.6199 -0.0786
  775MOL0     H 2241   2.876   2.622   7.285  0.7851 -2.3659  0.3332
  775MOL0     H 2242   2.966   2.729   7.177  2.0329  1.8777  0.3275
  775MOL0     H 2243   3.006   2.801   7.475  2.4957 -0.9725  0.2711
  775MOL0     H 2244   3.005   2.895   7.334  3.2805  0.0912  2.2101
  775MOL0     H 2245   2.803   2.907   7.476  0.7016  0.9562 -0.5404
  775MOL0     H 2246   2.749   2.750   7.429 -1.7585  2.6651  1.5896
  775MOL0     H 2247   2.718   2.817   7.203  1.2223 -0.5985  0.1614
  775MOL0     H 2248   2.794   2.975   7.236  1.1266 -0.4219  2.0989
  775MOL0     H 2249   2.546   2.874   7.381  0.6526  1.3919  1.4298
  775MOL0     H 2250   2.603   3.037   7.377 -0.9024 -0.2376  0.7056
  775MOL0     H 2251   2.554   2.999   7.109  4.2462  0.0837  1.8627
  775MOL0     H 2252   2.433   3.053   7.221  0.2613 -0.5132  1.3176
  775MOL0     H 2253   2.250   2.845   7.291 -2.2968  0.2174  0.3920
  775MOL0     H 2254   2.105   2.601   7.188 -0.3614 -0.5744  0.3377
  775MOL0     H 2255   2.118   2.600   7.012  0.3188  1.8972 -1.7388
  775MOL0     H 2256   2.029   2.828   7.003  4.3700 -1.9613 -1.0627
  775MOL0     H 2257   2.023   2.835   7.174  1.7891  0.6576 -1.4832
  775MOL0     H 2258   1.859   2.649   7.196 -0.2327 -0.4967  0.0763
  775MOL0     H 2259   1.792   2.780   7.124 -1.1991 -0.1218 -0.4388
  775MOL0     H 2260   1.847   2.515   6.981  1.6041 -0.5246  2.1588
  775MOL0     H 2261   1.864   2.661   6.882 -1.8412  0.7551 -1.9135
  775MOL0     H 2262   1.437   2.664   6.909 -1.1292 -0.5399  0.7901
  775MOL0     H 2263   1.261   2.495   6.928 -0.7999  2.3728  0.3488
  775MOL0     H 2264   1.107   2.066   6.871  1.8038 -2.1235 -3.2066
  775MOL0     H 2265   0.970   1.862   6.858  0.0432 -0.6930 -0.9385
  775MOL0     H 2266   0.842   1.681   6.915 -0.4104 -1.7406  0.4074
  775MOL0     H 2267   0.839   1.786   7.061 -1.3584 -1.2965  0.6845
  775MOL0     H 2268   0.801   1.589   7.195  0.2605 -1.9352  0.6233
  775MOL0     H 2269   0.829   1.486   7.056 -0.5357  0.8266 -1.1596
  775MOL0     H 2270   0.616   1.532   6.947  1.1376  2.3458 -1.1265
  775MOL0     H 2271   0.593   1.669   7.040  0.0860  0.4934  0.7761
  775MOL0     H 2272   0.629   1.401   7.183  1.2722  0.3443  0.1141
  775MOL0     H 2273   0.571   1.558   7.248 -0.6882  1.1857 -1.9799
  775MOL0     H 2274   0.398   1.371   7.183  1.5968 -0.1611 -0.2081
  775MOL0     H 2275   0.428   1.420   7.013  0.6386 -2.5056  1.2394
  775MOL0     H 2276   0.370   1.636   7.045 -0.7680 -1.0449 -1.4975
  775MOL0     H 2277   0.368   1.624   7.228 -3.0449 -1.3889  0.9173
  775MOL0     H 2278   0.153   1.642   7.157  0.8927  0.1313  1.8781
  775MOL0     H 2279   0.165   1.511   7.029  1.7257 -1.0189 -0.0024
  775MOL0     H 2280   0.146   1.346   7.198 -1.9441  0.1735 -0.8609
  775MOL0     H 2281   0.049   1.484   7.251  0.9864  2.6050  0.5577
  775MOL0     H 2282   1.222   1.696   7.163 -0.1826 -0.9334 -0.8302
  775MOL0     H 2283   1.374   1.908   7.167  1.1276  2.9344 -0.8445
  775MOL0     H 2284   1.550   2.222   7.088 -1.2287 -0.9215 -3.1932
  775MOL0     H 2285   1.720   2.400   7.088  1.4278 -0.9169 -5.2886
  775MOL0     H 2286   3.470   2.432   7.515 -0.6443  0.6592 -0.3761
  775MOL0     H 2287   3.667   2.492   7.603 -0.6871  0.7047  0.4565
  775MOL0     H 2288   4.066   2.839   7.515 -1.3377 -0.2643 -1.1109
  775MOL0     H 2289   4.305   2.850   7.575 -1.5228 -2.0987  3.8735
  775MOL0     H 2290   4.564   2.814   7.642  3.2079 -2.8300  2.3365
  775MOL0     H 2291   4.521   2.822   7.475  0.0408  0.1700  0.6912
  775MOL0     H 2292   4.740   2.645   7.595 -0.0226  0.1520  0.1123
  775MOL0     H 2293   4.691   2.643   7.417  0.3354 -0.9335  0.0038
  775MOL0     H 2294   4.767   2.892   7.547 -2.7579 -0.2090 -1.2588
  775MOL0     H 2295   4.780   2.854   7.376 -2.4179  2.7529  1.1864
  775MOL0     H 2296   4.999   2.868   7.535 -3.0114  1.5323  0.1406
  775MOL0     H 2297   4.951   2.703   7.584  1.3526 -2.1661 -2.7108
  775MOL0     H 2298   5.123   2.646   7.203  2.2115 -2.5221  2.6246
  775MOL0     H 2299   4.336   2.431   7.533  3.1265  2.5285 -0.3017
  775MOL0     H 2300   4.097   2.425   7.454 -0.7303  1.2371 -0.5969
  776MOL0     O 2301   9.019   2.462   1.004  0.1497 -0.3072 -0.5795
  776MOL0     C 2302   9.074   2.522   1.094  0.1746  0.1877 -0.5466
  776MOL0     O 2303   9.016   2.556   1.210 -0.1423 -0.6030  0.1262
  776MOL0     C 2304   8.877   2.575   1.222 -0.3462 -0.0739 -1.4369
  776MOL0     C 2305   8.798   2.616   1.118 -0.3975  0.0598 -0.3646
  776MOL0     C 2306   8.671   2.662   1.136  0.0021 -0.5963 -0.7919
  776MOL0     C 2307   8.617   2.673   1.269 -0.6710 -0.1194  0.7184
  776MOL0     O 2308   8.486   2.705   1.302  0.2668  0.0564  0.0063
  776MOL0     C 2309   8.414   2.788   1.212  0.4690 -0.7928  0.7829
  776MOL0     C 2310   8.292   2.859   1.278  0.3652 -0.0191  0.0089
  776MOL0     C 2311   8.204   2.761   1.351  0.3543 -0.6602  0.3310
  776MOL0     C 2312   8.066   2.830   1.391 -0.0939 -0.9539  0.1316
  776MOL0     C 2313   7.946   2.731   1.400 -0.1206 -0.8588  0.5288
  776MOL0     C 2314   7.839   2.784   1.318  0.2326  1.3227 -0.1142
  776MOL0     C 2315   7.702   2.735   1.390  0.2713 -1.1604 -0.3615
  776MOL0     C 2316   7.588   2.729   1.303  0.2778  0.7485  0.3094
  776MOL0     N 2317   7.463   2.693   1.378  0.7864 -1.0297 -0.5270
  776MOL0     C 2318   7.409   2.774   1.475  0.3136  0.5493 -0.0379
  776MOL0     C 2319   7.288   2.706   1.505 -1.3138 -0.8148 -0.3525
  776MOL0     C 2320   7.181   2.750   1.614  0.0528  0.3914  0.2688
  776MOL0     C 2321   7.042   2.697   1.570 -0.4252 -0.5313 -0.0220
  776MOL0     C 2322   6.921   2.765   1.643 -0.5561 -0.3165 -0.0771
  776MOL0     C 2323   6.804   2.669   1.645 -0.4173 -0.1911 -0.3505
  776MOL0     O 2324   6.707   2.764   1.702 -0.9032  0.4688  0.6956
  776MOL0     C 2325   6.582   2.706   1.716  0.4260 -0.5539 -0.1315
  776MOL0     C 2326   6.535   2.567   1.678 -0.0870 -0.5527  0.7921
  776MOL0     C 2327   6.407   2.531   1.700 -0.1554 -0.9491  0.2562
  776MOL0     C 2328   6.328   2.620   1.767  0.6494 -0.2052  0.7096
  776MOL0     C 2329   6.188   2.577   1.804  1.0221 -0.4688  0.7586
  776MOL0     O 2330   6.157   2.440   1.796 -0.3695  0.6700 -0.1082
  776MOL0     C 2331   6.048   2.402   1.864  0.6930 -0.5961  0.2680
  776MOL0     C 2332   6.039   2.424   2.007 -0.2130  0.6573  0.4128
  776MOL0     C 2333   5.917   2.371   2.067 -0.1616 -0.8993  0.0575
  776MOL0     C 2334   5.813   2.321   1.997 -0.0537  0.5789 -0.0351
  776MOL0     O 2335   5.718   2.265   2.071 -0.4702  0.4226 -0.8096
  776MOL0     C 2336   5.585   2.274   2.020  0.3479 -0.6748  0.4891
  776MOL0     C 2337   5.490   2.262   2.139 -0.0960  0.3108 -0.3216
  776MOL0     C 2338   5.356   2.207   2.095  0.5955  0.0877  0.4493
  776MOL0     C 2339   5.349   2.063   2.167  0.2584 -0.7388 -0.2241
  776MOL0     C 2340   5.279   1.957   2.082 -0.2096  0.3384  0.8464
  776MOL0     C 2341   5.135   1.993   2.029  0.5617  0.3207  0.9864
  776MOL0     C 2342   5.080   1.898   1.919 -1.1353 -1.4547 -0.5828
  776MOL0     C 2343   4.964   1.956   1.836 -0.2496  0.5035  0.3679
  776MOL0    Cl 2344   4.814   1.954   1.941 -0.1667  0.2253 -0.2436
  776MOL0     C 2345   5.823   2.298   1.867  0.0173  0.2928  0.3135
  776MOL0     C 2346   5.935   2.346   1.798 -0.7721  0.6149 -0.7142
  776MOL0     O 2347   6.115   2.654   1.863 -0.3720  0.5637  0.3137
  776MOL0     C 2348   6.365   2.752   1.794  0.7440  0.0179  0.0712
  776MOL0     C 2349   6.493   2.797   1.759 -0.1769 -0.7348  0.5156
  776MOL0     N 2350   7.279   2.589   1.435  0.3867 -0.3774 -0.3773
  776MOL0     N 2351   7.382   2.578   1.354  0.3878  0.9064 -0.5616
  776MOL0     C 2352   8.697   2.638   1.379 -0.1421 -0.3293 -0.3473
  776MOL0     C 2353   8.819   2.586   1.352  0.7675  0.7443  1.0800
  776MOL0     C 2354   9.224   2.536   1.100 -0.0614 -0.7015  0.0961
  776MOL0     C 2355   9.306   2.526   0.983 -0.4906  0.2346  0.0831
  776MOL0     C 2356   9.448   2.531   1.001  0.2504 -0.3824 -0.5662
  776MOL0     C 2357   9.499   2.557   1.124 -0.7637  0.2618  0.2302
  776MOL0     O 2358   9.638   2.540   1.132  0.1298  0.1583 -0.6630
  776MOL0     C 2359   9.698   2.517   1.259  0.4563 -0.4376 -0.2764
  776MOL0     C 2360   9.811   2.613   1.278 -0.0426  0.7188  0.6118
  776MOL0     C 2361   9.932   2.579   1.183  0.6032 -0.0282  0.1258
  776MOL0     C 2362  10.070   2.636   1.233 -0.0890  0.2200 -0.4842
  776MOL0     C 2363  10.169   2.556   1.158  0.2534  0.3436  0.9765
  776MOL0     C 2364  10.255   2.495   1.109 -0.4382 -0.5362  0.4227
  776MOL0     C 2365   9.412   2.601   1.225 -0.9667  0.3791 -0.6642
  776MOL0     C 2366   9.281   2.594   1.213 -0.6156  0.0485 -0.7213
  776MOL0     H 2367   8.828   2.619   1.014  0.0879  0.4299 -0.2203
  776MOL0     H 2368   8.602   2.694   1.059 -1.2786 -0.9559  0.1639
  776MOL0     H 2369   8.384   2.731   1.124  2.2581  0.0098 -0.4225
  776MOL0     H 2370   8.485   2.863   1.176 -1.4364 -0.7130 -3.3551
  776MOL0     H 2371   8.243   2.915   1.197  0.6069 -1.2294 -1.0152
  776MOL0     H 2372   8.333   2.935   1.345  0.1370  0.9703 -0.9401
  776MOL0     H 2373   8.247   2.714   1.440  3.3761  2.9672  1.0217
  776MOL0     H 2374   8.171   2.682   1.282 -4.0930 -0.1360  1.5422
  776MOL0     H 2375   8.072   2.889   1.483 -1.4273  1.7454 -1.3826
  776MOL0     H 2376   8.050   2.894   1.304 -0.1920 -0.3846  0.5626
  776MOL0     H 2377   7.929   2.716   1.507  1.1678 -2.7770  0.5177
  776MOL0     H 2378   7.979   2.635   1.358 -0.4549 -0.8405  0.2208
  776MOL0     H 2379   7.854   2.743   1.218 -0.2767  2.0443 -0.4976
  776MOL0     H 2380   7.836   2.891   1.295 -0.1329  1.1659 -0.8412
  776MOL0     H 2381   7.705   2.636   1.435 -1.4944 -0.5524  1.2299
  776MOL0     H 2382   7.685   2.796   1.479 -1.7350 -1.8746 -0.2088
  776MOL0     H 2383   7.609   2.649   1.231 -1.2764  0.4311  0.1810
  776MOL0     H 2384   7.573   2.826   1.253  2.4094  0.5305 -0.8997
  776MOL0     H 2385   7.450   2.864   1.519  0.2738  1.7982 -2.3815
  776MOL0     H 2386   7.174   2.858   1.626  0.6148  0.3447  1.1380
  776MOL0     H 2387   7.217   2.706   1.708 -2.8663  1.5031  2.0579
  776MOL0     H 2388   7.028   2.591   1.592  0.7443 -0.6432  0.2661
  776MOL0     H 2389   7.030   2.723   1.465  2.4273  3.2229  0.3918
  776MOL0     H 2390   6.949   2.779   1.748 -2.1224  0.6181  0.2395
  776MOL0     H 2391   6.899   2.864   1.603 -0.2220 -0.4772 -0.6682
  776MOL0     H 2392   6.810   2.574   1.699 -0.6644 -1.4403 -2.4128
  776MOL0     H 2393   6.764   2.646   1.546  0.1794  1.3389 -0.9804
  776MOL0     H 2394   6.597   2.496   1.626 -0.2824  1.2260 -2.0905
  776MOL0     H 2395   6.354   2.441   1.669 -1.2151 -0.3390  0.2552
  776MOL0     H 2396   6.126   2.459   2.062  0.5913 -1.5331  0.6267
  776MOL0     H 2397   5.922   2.378   2.175 -0.0413  1.5578 -0.0339
  776MOL0     H 2398   5.571   2.200   1.941  1.0181 -1.2833  0.9307
  776MOL0     H 2399   5.568   2.373   1.977  1.9488  0.0891  1.5103
  776MOL0     H 2400   5.479   2.367   2.169 -2.0262  0.9537 -2.8710
  776MOL0     H 2401   5.545   2.202   2.212  2.2555  2.1829 -0.4052
  776MOL0     H 2402   5.368   2.190   1.988  1.8353  1.1649  0.3916
  776MOL0     H 2403   5.277   2.280   2.113 -0.3491 -0.2009 -2.1865
  776MOL0     H 2404   5.448   2.020   2.178  1.1066  1.3328  0.7703
  776MOL0     H 2405   5.301   2.070   2.265  1.1521  1.9464  0.1000
  776MOL0     H 2406   5.278   1.864   2.139 -1.9774  0.5431  1.1888
  776MOL0     H 2407   5.336   1.947   1.989 -0.4582 -1.0678  0.8166
  776MOL0     H 2408   5.130   2.094   1.987 -1.9322 -0.6036 -1.1637
  776MOL0     H 2409   5.066   2.002   2.114  0.3848  0.6132  0.8127
  776MOL0     H 2410   5.153   1.884   1.840  1.1448  4.3713 -0.0412
  776MOL0     H 2411   5.056   1.797   1.954  0.6626 -2.0823 -1.0688
  776MOL0     H 2412   4.957   1.894   1.747  0.4766 -0.7098  1.1189
  776MOL0     H 2413   5.003   2.053   1.805 -0.5992 -0.2394 -2.6348
  776MOL0     H 2414   5.733   2.261   1.818 -1.1858  0.6632  2.1808
  776MOL0     H 2415   5.941   2.309   1.697 -2.7347 -0.6344 -0.4358
  776MOL0     H 2416   6.280   2.810   1.828 -0.9388 -0.2105 -3.3766
  776MOL0     H 2417   6.520   2.901   1.776 -2.4560 -0.2015  1.1904
  776MOL0     H 2418   8.664   2.636   1.483 -2.7082  0.0371 -1.0792
  776MOL0     H 2419   8.878   2.566   1.441  2.1546 -2.4406 -0.3966
  776MOL0     H 2420   9.254   2.496   0.892 -2.8459  0.4009  1.2901
  776MOL0     H 2421   9.522   2.510   0.923  0.0909  0.4140 -0.9373
  776MOL0     H 2422   9.727   2.411   1.266  0.4503 -0.4335 -0.1905
  776MOL0     H 2423   9.627   2.534   1.341 -0.5066 -2.2008 -0.6785
  776MOL0     H 2424   9.784   2.706   1.228 -4.2695 -0.0221  1.0983
  776MOL0     H 2425   9.845   2.618   1.382  0.3846 -2.2818  0.7007
  776MOL0     H 2426   9.916   2.604   1.078  0.7748 -0.3890  0.0111
  776MOL0     H 2427   9.950   2.472   1.193 -0.8311 -0.1521  2.0888
  776MOL0     H 2428  10.078   2.743   1.215 -3.0939  0.7719  0.7873
  776MOL0     H 2429  10.086   2.615   1.339 -0.1607 -2.1009 -0.8780
  776MOL0     H 2430  10.331   2.445   1.053  0.9296  0.7533  1.0698
  776MOL0     H 2431   9.447   2.638   1.321  3.1515 -3.1153 -0.5129
  776MOL0     H 2432   9.210   2.623   1.289 -0.7549 -2.0063  0.0065
  777MOL0     O 2433   1.442   4.466  10.692  0.3668 -0.2279  0.8423
  777MOL0     C 2434   1.469   4.493  10.575  0.4904 -0.1936 -0.3713
  777MOL0     O 2435   1.386   4.560  10.487  0.7356  0.5541 -0.0375
  777MOL0     C 2436   1.244   4.583  10.510 -0.4880  0.9007 -0.6334
  777MOL0     C 2437   1.205   4.662  10.613  0.8037 -0.4230  0.5820
  777MOL0     C 2438   1.075   4.695  10.629  0.9842  0.0932 -0.9050
  777MOL0     C 2439   0.977   4.655  10.530 -0.4912  0.4498 -0.7436
  777MOL0     O 2440   0.846   4.704  10.534  0.2981  0.4789 -0.1573
  777MOL0     C 2441   0.801   4.767  10.652  0.0223 -1.0441  0.5219
  777MOL0     C 2442   0.643   4.763  10.654 -0.4190 -0.1788 -0.4210
  777MOL0     C 2443   0.577   4.635  10.603 -0.4925 -0.2114 -0.3333
  777MOL0     C 2444   0.549   4.644  10.449 -0.2635  0.3501  0.3642
  777MOL0     C 2445   0.476   4.523  10.392  0.0847  0.9255  0.1851
  777MOL0     C 2446   0.334   4.531  10.447  0.7841 -0.2260 -0.2079
  777MOL0     C 2447   0.230   4.606  10.354  0.2309  0.3719 -0.0729
  777MOL0     C 2448   0.095   4.594  10.424 -1.0501 -0.1098 -0.4705
  777MOL0     N 2449  -0.009   4.660  10.348  0.0356 -0.0268 -0.0131
  777MOL0     C 2450  -0.089   4.600  10.248 -0.1640 -0.3380  0.6473
  777MOL0     C 2451  -0.150   4.705  10.190 -0.3305  0.2305  0.1717
  777MOL0     C 2452  -0.246   4.693  10.075  0.9764  0.4574  0.0874
  777MOL0     C 2453  -0.387   4.747  10.095 -0.2692 -0.4205  0.3058
  777MOL0     C 2454  -0.494   4.716   9.984  0.3535 -0.2404  0.0669
  777MOL0     C 2455  -0.627   4.773  10.026 -0.2808 -0.3129  0.3884
  777MOL0     O 2456  -0.736   4.711   9.958 -0.1540 -0.0467 -0.8161
  777MOL0     C 2457  -0.870   4.754   9.972  0.0370  0.0757  0.0063
  777MOL0     C 2458  -0.901   4.864  10.055  0.4976 -0.3186  0.0270
  777MOL0     C 2459  -1.038   4.910  10.058  0.3016  0.3529 -0.5708
  777MOL0     C 2460  -1.136   4.839   9.979 -0.1634 -0.3342 -1.5253
  777MOL0     C 2461  -1.271   4.878   9.986  0.6009  0.8459 -0.0021
  777MOL0     O 2462  -1.290   5.012  10.032  0.0426 -0.7272  0.2197
  777MOL0     C 2463  -1.412   5.074  10.021  0.6908  0.0862 -0.1439
  777MOL0     C 2464  -1.509   5.050   9.922 -0.0310  0.9604 -0.3160
  777MOL0     C 2465  -1.638   5.104   9.927 -0.8462  0.8347  0.2797
  777MOL0     C 2466  -1.672   5.184  10.039  0.4768 -0.1728 -0.4705
  777MOL0     O 2467  -1.800   5.232  10.046 -0.2483 -0.2427 -0.0807
  777MOL0     C 2468  -1.840   5.325  10.153 -0.2142  0.4671  0.4029
  777MOL0     C 2469  -1.974   5.388  10.108  0.2860 -0.0634 -0.2532
  777MOL0     C 2470  -2.078   5.277  10.082 -0.3091  0.3843  0.0567
  777MOL0     C 2471  -2.206   5.342  10.035 -0.6827  0.1223  0.8398
  777MOL0     C 2472  -2.304   5.239   9.992  0.1052  0.3982  0.7301
  777MOL0     C 2473  -2.421   5.299   9.906 -0.3331  0.1702  0.1093
  777MOL0     C 2474  -2.503   5.173   9.859 -0.6100  0.6460 -0.2214
  777MOL0     C 2475  -2.610   5.189   9.763  0.3949 -0.2185 -0.1134
  777MOL0    Cl 2476  -2.706   5.324   9.799 -0.1933 -0.3370  0.0275
  777MOL0     C 2477  -1.578   5.204  10.138 -0.7709  0.6486 -0.1852
  777MOL0     C 2478  -1.456   5.150  10.139  0.2081  0.0763  0.5649
  777MOL0     O 2479  -1.362   4.801   9.950 -0.5674 -0.0444 -0.8220
  777MOL0     C 2480  -1.104   4.726   9.912  0.5604 -0.3268  0.7589
  777MOL0     C 2481  -0.972   4.682   9.901  0.3928 -0.3641 -0.0379
  777MOL0     N 2482  -0.118   4.826  10.255 -0.2481  0.2237  0.3805
  777MOL0     N 2483  -0.042   4.791  10.355  0.2724 -0.4150 -1.0181
  777MOL0     C 2484   1.014   4.573  10.425  0.0283  0.5010 -0.9664
  777MOL0     C 2485   1.149   4.541  10.418  0.1377 -0.3867 -0.1990
  777MOL0     C 2486   1.608   4.475  10.538 -0.5310  0.1189 -0.5600
  777MOL0     C 2487   1.697   4.435  10.640  0.1087 -0.5018 -0.3010
  777MOL0     C 2488   1.837   4.443  10.621  0.1460 -1.0729 -0.5346
  777MOL0     C 2489   1.896   4.478  10.501  0.3951 -0.3510  0.0363
  777MOL0     O 2490   2.023   4.478  10.483 -0.7380 -0.4808  0.1321
  777MOL0     C 2491   2.089   4.541  10.365 -0.5756 -0.2830 -0.2536
  777MOL0     C 2492   2.245   4.546  10.383  0.7483 -0.0554 -0.1649
  777MOL0     C 2493   2.305   4.632  10.271 -0.0294  0.5441  0.1067
  777MOL0     C 2494   2.322   4.778  10.310 -0.8358 -0.0677  0.0676
  777MOL0     C 2495   2.319   4.864  10.192  0.9097  0.2632  0.4680
  777MOL0     C 2496   2.306   4.918  10.083 -0.5929  1.5720 -0.2109
  777MOL0     C 2497   1.808   4.509  10.394  0.3210 -0.0607 -0.6172
  777MOL0     C 2498   1.669   4.504  10.417 -0.0016 -0.0070 -0.1090
  777MOL0     H 2499   1.274   4.691  10.692  0.6953  1.6328 -0.0342
  777MOL0     H 2500   1.052   4.766  10.708 -0.4243 -1.5883  0.2689
  777MOL0     H 2501   0.836   4.871  10.652  1.3293 -1.4397 -1.0914
  777MOL0     H 2502   0.846   4.711  10.733 -2.2405 -3.7436  0.0608
  777MOL0     H 2503   0.599   4.857  10.619 -0.1491  0.8034  1.6957
  777MOL0     H 2504   0.624   4.773  10.761  0.4193  3.7495 -0.4700
  777MOL0     H 2505   0.480   4.620  10.653 -1.5819 -0.6064 -2.4483
  777MOL0     H 2506   0.633   4.546  10.632 -2.4499 -1.0784  1.0342
  777MOL0     H 2507   0.486   4.731  10.428 -2.6685 -1.0386  1.4000
  777MOL0     H 2508   0.645   4.647  10.396 -0.0695  0.7877  0.7345
  777MOL0     H 2509   0.521   4.426  10.417 -0.8139 -0.6246 -3.4092
  777MOL0     H 2510   0.483   4.519  10.283  0.7852 -1.3870  0.2589
  777MOL0     H 2511   0.324   4.583  10.543 -1.9398 -1.1652  0.1052
  777MOL0     H 2512   0.291   4.431  10.457 -2.2956  0.7057 -2.5591
  777MOL0     H 2513   0.274   4.705  10.340  1.9931  0.2690  3.6104
  777MOL0     H 2514   0.230   4.553  10.258 -0.2412 -0.1440  0.2072
  777MOL0     H 2515   0.087   4.636  10.525 -2.3086 -0.6707 -0.3227
  777MOL0     H 2516   0.077   4.487  10.432  0.5836 -0.5946 -2.5217
  777MOL0     H 2517  -0.111   4.495  10.230  0.1396 -0.6004  1.7073
  777MOL0     H 2518  -0.251   4.585  10.059 -1.5516  0.5727 -0.2970
  777MOL0     H 2519  -0.209   4.747   9.987 -1.8057  1.9068 -0.3205
  777MOL0     H 2520  -0.390   4.856  10.103 -3.5513 -0.2444 -1.6247
  777MOL0     H 2521  -0.422   4.720  10.195  4.1542 -0.0438  2.1626
  777MOL0     H 2522  -0.463   4.760   9.889 -4.0263  0.8894 -1.0754
  777MOL0     H 2523  -0.508   4.609   9.967 -1.3144 -0.4262  2.2550
  777MOL0     H 2524  -0.626   4.878   9.995  2.1159 -0.7924 -1.3885
  777MOL0     H 2525  -0.644   4.759  10.134 -1.3694 -1.3152  0.1094
  777MOL0     H 2526  -0.820   4.915  10.108  1.6234 -2.6262  0.6564
  777MOL0     H 2527  -1.064   4.988  10.128 -1.3691 -1.1938  0.6183
  777MOL0     H 2528  -1.482   4.981   9.842 -1.0603  0.2029 -0.0255
  777MOL0     H 2529  -1.711   5.075   9.852 -0.7379  3.0630 -0.7533
  777MOL0     H 2530  -1.765   5.401  10.179 -0.3235  0.2982  1.2477
  777MOL0     H 2531  -1.850   5.263  10.243 -3.2587 -0.1262 -0.2431
  777MOL0     H 2532  -1.945   5.443  10.018  1.4409  0.9615  0.7137
  777MOL0     H 2533  -2.023   5.463  10.172 -3.2502 -0.1329 -2.5892
  777MOL0     H 2534  -2.084   5.205  10.164 -0.1157 -2.2288 -2.0946
  777MOL0     H 2535  -2.039   5.221   9.997  2.2578  2.4453 -0.2504
  777MOL0     H 2536  -2.254   5.401  10.115 -2.1213 -1.1142  0.9446
  777MOL0     H 2537  -2.186   5.404   9.948  0.9235 -0.4502  0.7698
  777MOL0     H 2538  -2.354   5.193  10.078 -2.0463  1.4785  0.1249
  777MOL0     H 2539  -2.265   5.151   9.939 -2.8316 -1.8285  1.9222
  777MOL0     H 2540  -2.387   5.359   9.821 -0.7504  0.5463  0.2022
  777MOL0     H 2541  -2.487   5.369   9.958  1.7293  2.6987 -0.5048
  777MOL0     H 2542  -2.434   5.107   9.807  1.6089  2.0858  0.7753
  777MOL0     H 2543  -2.548   5.118   9.942 -1.4062  0.9692 -0.4245
  777MOL0     H 2544  -2.676   5.102   9.755 -1.2613  0.6370  2.8492
  777MOL0     H 2545  -2.562   5.205   9.666  0.7813  2.9060  0.5168
  777MOL0     H 2546  -1.605   5.268  10.222 -0.0106  2.8085 -1.4889
  777MOL0     H 2547  -1.379   5.161  10.215  2.1915  3.5801 -1.6104
  777MOL0     H 2548  -1.185   4.672   9.863 -2.6547  3.0210  1.9433
  777MOL0     H 2549  -0.940   4.585   9.864  2.5714 -0.5092  1.9524
  777MOL0     H 2550   0.941   4.551  10.348 -1.9375 -3.3207  1.6566
  777MOL0     H 2551   1.185   4.499  10.324  0.6374  1.8577 -1.0851
  777MOL0     H 2552   1.667   4.420  10.744  1.3320 -3.3741 -0.2653
  777MOL0     H 2553   1.900   4.428  10.708 -1.3508  1.2515  1.0771
  777MOL0     H 2554   2.052   4.643  10.351  0.3559 -0.0506 -1.1705
  777MOL0     H 2555   2.073   4.488  10.271 -0.4097  0.1859 -0.5519
  777MOL0     H 2556   2.252   4.606  10.474 -0.2245 -0.7777  0.4040
  777MOL0     H 2557   2.289   4.447  10.393 -1.6733 -1.0146  1.9674
  777MOL0     H 2558   2.237   4.625  10.185  1.0340  0.8779 -0.7864
  777MOL0     H 2559   2.402   4.595  10.237 -0.3549  2.2519 -3.0333
  777MOL0     H 2560   2.255   4.812  10.390 -0.5360  0.9857 -0.1108
  777MOL0     H 2561   2.427   4.799  10.333 -0.5722 -2.0861  0.8411
  777MOL0     H 2562   2.298   4.965   9.987 -0.5452 -0.6285 -1.3534
  777MOL0     H 2563   1.840   4.541  10.296 -4.3930  2.7513 -1.5823
  777MOL0     H 2564   1.600   4.513  10.335  0.7850  0.7107 -0.7067
  778MOL0     O 2565   6.464   2.308  10.378 -0.2689  0.5240  0.5718
  778MOL0     C 2566   6.478   2.221  10.290 -0.4957 -0.3299 -0.0024
  778MOL0     O 2567   6.384   2.149  10.219 -0.0292  0.1360  0.1755
  778MOL0     C 2568   6.244   2.165  10.234  0.9522  0.1178  0.2309
  778MOL0     C 2569   6.163   2.103  10.143  0.0370  0.0738  0.2829
  778MOL0     C 2570   6.027   2.117  10.130 -0.0660 -0.2891  0.0374
  778MOL0     C 2571   5.955   2.185  10.230 -0.1622 -0.4741 -1.1962
  778MOL0     O 2572   5.821   2.215  10.224  0.3016 -0.5115 -0.7079
  778MOL0     C 2573   5.761   2.180  10.094 -0.3654  0.5328 -0.7102
  778MOL0     C 2574   5.615   2.208  10.104 -0.2585  0.1738 -0.7555
  778MOL0     C 2575   5.544   2.088  10.155 -0.0551 -0.3288 -1.0229
  778MOL0     C 2576   5.401   2.133  10.186  0.1256 -0.4962  0.0365
  778MOL0     C 2577   5.330   2.028  10.274  0.1622  0.3071 -1.5045
  778MOL0     C 2578   5.194   2.085  10.301  1.3337  0.3118  0.8970
  778MOL0     C 2579   5.128   1.986  10.397  0.5825 -0.0033 -0.2877
  778MOL0     C 2580   5.012   2.069  10.461 -0.4731  0.8540  0.1750
  778MOL0     N 2581   4.957   1.998  10.576  0.5460 -0.3142  0.4204
  778MOL0     C 2582   4.880   1.884  10.566 -0.0468 -0.5315 -0.4625
  778MOL0     C 2583   4.838   1.854  10.696 -0.2055  0.4531 -0.3416
  778MOL0     C 2584   4.768   1.725  10.744 -0.6638 -0.5491  0.4762
  778MOL0     C 2585   4.628   1.749  10.812  0.4085  0.7186  0.6989
  778MOL0     C 2586   4.515   1.705  10.721  0.4992  0.6365  0.4744
  778MOL0     C 2587   4.388   1.704  10.805 -0.4347 -0.2225 -0.6219
  778MOL0     O 2588   4.279   1.692  10.721  0.3550 -0.6402 -0.3903
  778MOL0     C 2589   4.151   1.677  10.761 -0.2636 -0.6600 -0.3873
  778MOL0     C 2590   4.119   1.661  10.893  0.5334  0.3678  0.4022
  778MOL0     C 2591   3.989   1.641  10.939  0.2263  0.2796 -0.0612
  778MOL0     C 2592   3.884   1.661  10.849 -0.5161  0.4782  0.0325
  778MOL0     C 2593   3.747   1.644  10.896  0.2220  0.0221 -0.7830
  778MOL0     O 2594   3.648   1.656  10.799 -0.2837 -0.0503  0.5097
  778MOL0     C 2595   3.513   1.640  10.827 -0.0672 -0.8361 -0.5136
  778MOL0     C 2596   3.448   1.651  10.947  0.0484 -0.4774 -0.3191
  778MOL0     C 2597   3.313   1.625  10.965  0.1382 -0.5404 -0.1593
  778MOL0     C 2598   3.230   1.601  10.856 -0.4054  0.2825  0.1084
  778MOL0     O 2599   3.093   1.575  10.863  0.3748 -0.2038  0.0228
  778MOL0     C 2600   3.010   1.631  10.757 -0.4151  0.0070  0.0872
  778MOL0     C 2601   2.902   1.721  10.831  0.1856 -1.0446  0.5277
  778MOL0     C 2602   2.829   1.797  10.721  0.1499 -0.4757 -0.5058
  778MOL0     C 2603   2.750   1.701  10.625 -0.5912  0.5252 -0.1294
  778MOL0     C 2604   2.609   1.663  10.683 -0.5651 -0.1263  0.3192
  778MOL0     C 2605   2.490   1.753  10.633 -0.4636  0.3151  0.7691
  778MOL0     C 2606   2.360   1.675  10.672 -0.5323 -0.1059 -0.0923
  778MOL0     C 2607   2.235   1.757  10.645 -0.6791  0.0844  0.1661
  778MOL0    Cl 2608   2.223   1.884  10.771  0.1920  0.1849  0.2161
  778MOL0     C 2609   3.301   1.578  10.730 -0.7176 -0.7710  0.2479
  778MOL0     C 2610   3.436   1.600  10.721  0.0092  0.6044  0.3281
  778MOL0     O 2611   3.727   1.613  11.011  0.1756  0.1032  0.5823
  778MOL0     C 2612   3.912   1.672  10.708 -0.2206  0.9093 -0.6785
  778MOL0     C 2613   4.045   1.684  10.671 -0.4667 -0.3265  0.4984
  778MOL0     N 2614   4.899   1.946  10.777  0.9849 -0.2977  0.1505
  778MOL0     N 2615   4.965   2.029  10.708 -0.1302  0.5888 -0.0550
  778MOL0     C 2616   6.034   2.249  10.332 -0.1204  0.2140 -0.5056
  778MOL0     C 2617   6.176   2.244  10.327 -0.1443  0.4633  0.3440
  778MOL0     C 2618   6.625   2.177  10.262  0.0540  0.2656  0.0544
  778MOL0     C 2619   6.657   2.066  10.188  0.6543 -0.1999  0.4728
  778MOL0     C 2620   6.792   2.031  10.167 -0.1067  1.1485  0.5962
  778MOL0     C 2621   6.896   2.105  10.216 -0.2074 -0.4453  0.4150
  778MOL0     O 2622   7.031   2.088  10.192  0.1273 -0.0481 -0.3700
  778MOL0     C 2623   7.073   1.994  10.092  0.4494 -0.7880  0.0517
  778MOL0     C 2624   7.216   2.023  10.066 -0.5395 -0.1101 -0.1217
  778MOL0     C 2625   7.291   1.906   9.999 -0.4818 -0.0915  0.0634
  778MOL0     C 2626   7.434   1.936   9.954  0.2139 -0.3200 -0.3507
  778MOL0     C 2627   7.524   1.929  10.062  0.3344  0.2144  0.5932
  778MOL0     C 2628   7.607   1.903  10.143 -0.3446 -0.7505  0.5012
  778MOL0     C 2629   6.868   2.212  10.296  0.4723  0.3090 -0.0227
  778MOL0     C 2630   6.734   2.252  10.317  0.1699  0.1704  0.2738
  778MOL0     H 2631   6.209   2.045  10.063  0.0092  0.2875  0.1094
  778MOL0     H 2632   5.969   2.049  10.068 -1.3061 -0.7925  1.6751
  778MOL0     H 2633   5.780   2.073  10.084  0.3474  0.2757  2.4665
  778MOL0     H 2634   5.803   2.227  10.004  0.1689 -2.5451 -2.1961
  778MOL0     H 2635   5.586   2.239  10.003 -0.1532  1.4211 -0.4100
  778MOL0     H 2636   5.608   2.296  10.168  1.0409 -1.2046  1.3937
  778MOL0     H 2637   5.589   2.059  10.251  0.0391 -1.8291 -1.4998
  778MOL0     H 2638   5.548   2.002  10.088  0.3144 -0.5573 -0.7100
  778MOL0     H 2639   5.400   2.219  10.253 -0.4065 -0.4247 -0.0624
  778MOL0     H 2640   5.348   2.161  10.094  0.1771  2.6090  0.8466
  778MOL0     H 2641   5.385   2.011  10.367 -2.2716 -3.2887 -0.4849
  778MOL0     H 2642   5.323   1.931  10.224  0.2425 -0.2484 -0.4528
  778MOL0     H 2643   5.143   2.107  10.207  1.3028 -1.7738  0.3636
  778MOL0     H 2644   5.205   2.178  10.358 -3.2233  1.1681  0.7365
  778MOL0     H 2645   5.081   1.902  10.347  0.3463  1.1726 -2.1472
  778MOL0     H 2646   5.201   1.951  10.471  1.5601 -1.3108 -1.8009
  778MOL0     H 2647   4.940   2.093  10.381 -0.4078 -0.7665 -0.3952
  778MOL0     H 2648   5.056   2.161  10.500 -0.1881  0.3281  1.1017
  778MOL0     H 2649   4.854   1.831  10.474 -3.0933  1.2493 -0.7694
  778MOL0     H 2650   4.837   1.667  10.807  0.2518  0.3957  0.3712
  778MOL0     H 2651   4.759   1.663  10.655 -0.3591 -0.5446  0.4436
  778MOL0     H 2652   4.608   1.850  10.849 -1.1105 -0.2084  2.5460
  778MOL0     H 2653   4.624   1.686  10.901 -1.5429  0.3108  0.3833
  778MOL0     H 2654   4.496   1.771  10.636  0.0935  2.3300  1.8048
  778MOL0     H 2655   4.524   1.604  10.679 -1.0668  0.3802  0.6923
  778MOL0     H 2656   4.386   1.790  10.872  0.8843 -0.8424  0.2561
  778MOL0     H 2657   4.394   1.623  10.878  1.2368  1.3955  1.1446
  778MOL0     H 2658   4.201   1.665  10.965  0.0876  0.1185  0.9304
  778MOL0     H 2659   3.959   1.609  11.039 -3.0244  0.8323 -0.7327
  778MOL0     H 2660   3.501   1.665  11.041  0.9987 -0.0570 -0.8945
  778MOL0     H 2661   3.259   1.624  11.059  1.5594 -0.2963  0.6885
  778MOL0     H 2662   2.961   1.549  10.703 -1.2899 -0.0099  0.8792
  778MOL0     H 2663   3.061   1.700  10.689  2.4201 -0.7947  1.2687
  778MOL0     H 2664   2.945   1.795  10.899 -1.2203 -1.8704  2.4147
  778MOL0     H 2665   2.849   1.651  10.896  0.2948 -0.5846  1.1209
  778MOL0     H 2666   2.897   1.858  10.660 -0.6315 -1.2724 -2.2366
  778MOL0     H 2667   2.760   1.863  10.776 -1.3829 -4.2306  2.5245
  778MOL0     H 2668   2.745   1.767  10.537  0.6940 -0.4877 -1.0135
  778MOL0     H 2669   2.806   1.612  10.594 -1.5096  1.1726 -4.2174
  778MOL0     H 2670   2.608   1.649  10.791 -0.1786 -0.7825  0.2418
  778MOL0     H 2671   2.586   1.563  10.644 -0.0942  0.8010 -2.5917
  778MOL0     H 2672   2.484   1.757  10.524 -3.0970 -2.8493  0.6627
  778MOL0     H 2673   2.491   1.847  10.690 -1.2435 -1.2572  3.5402
  778MOL0     H 2674   2.354   1.584  10.612  2.3709 -1.1367  1.0024
  778MOL0     H 2675   2.360   1.665  10.781  1.3921  0.3744 -0.0130
  778MOL0     H 2676   2.148   1.691  10.648  1.3823 -2.9096 -1.1502
  778MOL0     H 2677   2.243   1.796  10.543 -0.2964  0.2693  0.2636
  778MOL0     H 2678   3.260   1.535  10.640  0.7192  0.1185 -0.8837
  778MOL0     H 2679   3.484   1.573  10.628  0.2928 -0.2326  0.7089
  778MOL0     H 2680   3.835   1.659  10.633 -0.7093  0.0451 -0.0450
  778MOL0     H 2681   4.081   1.699  10.570 -2.6869  1.9693 -0.0267
  778MOL0     H 2682   5.981   2.302  10.410 -2.0532 -3.6920  1.1247
  778MOL0     H 2683   6.236   2.305  10.394  0.4447  1.1123 -0.7282
  778MOL0     H 2684   6.578   2.004  10.145  1.9613 -4.4881  3.5613
  778MOL0     H 2685   6.825   1.948  10.106 -1.7399  3.7477 -4.3855
  778MOL0     H 2686   7.011   2.009  10.003  0.6853 -1.2601 -0.1941
  778MOL0     H 2687   7.059   1.897  10.139 -2.5876 -1.3934 -1.8265
  778MOL0     H 2688   7.232   2.112  10.005  2.2467  0.6611  1.5514
  778MOL0     H 2689   7.256   2.044  10.166 -0.4765 -0.0313 -0.1639
  778MOL0     H 2690   7.231   1.885   9.911 -1.1501 -1.4326  0.8034
  778MOL0     H 2691   7.296   1.816  10.061 -0.8615 -0.1449  0.0143
  778MOL0     H 2692   7.461   1.863   9.877  0.8984 -2.7695  2.0437
  778MOL0     H 2693   7.433   2.040   9.923 -1.0637 -0.2006  0.0132
  778MOL0     H 2694   7.686   1.894  10.215  2.3896  5.5598 -0.9913
  778MOL0     H 2695   6.948   2.275  10.335 -0.9480  1.4794  1.0930
  778MOL0     H 2696   6.718   2.338  10.381 -0.8342  0.4071 -0.2771
  779MOL0     O 2697   6.811   4.499   6.318  1.0679  0.5437  0.1666
  779MOL0     C 2698   6.802   4.544   6.429 -0.2918  0.2543 -0.3027
  779MOL0     O 2699   6.756   4.666   6.460  0.5621  0.3804 -0.1533
  779MOL0     C 2700   6.691   4.736   6.355  0.1717  0.8375  0.0536
  779MOL0     C 2701   6.756   4.789   6.245 -0.4213  0.4987 -0.1846
  779MOL0     C 2702   6.679   4.857   6.147 -0.6262  0.6875 -0.5773
  779MOL0     C 2703   6.544   4.876   6.150 -0.1811  0.3271 -0.4984
  779MOL0     O 2704   6.466   4.936   6.054  0.3263 -0.5351 -0.7031
  779MOL0     C 2705   6.511   4.920   5.924 -0.4603  0.7149 -0.4331
  779MOL0     C 2706   6.422   4.985   5.826  0.5025 -0.1066 -0.4859
  779MOL0     C 2707   6.283   4.917   5.806  0.4207 -0.1036 -0.0206
  779MOL0     C 2708   6.291   4.768   5.803  0.4048  0.2017 -0.2757
  779MOL0     C 2709   6.161   4.703   5.750  0.4500  0.0309  0.3994
  779MOL0     C 2710   6.025   4.744   5.810 -0.2875  0.0306  0.0938
  779MOL0     C 2711   5.900   4.666   5.763  0.0491 -0.4379 -0.2947
  779MOL0     C 2712   5.765   4.715   5.826  0.4409  0.5141  0.7117
  779MOL0     N 2713   5.661   4.610   5.798 -0.1741 -0.8604  0.7624
  779MOL0     C 2714   5.618   4.513   5.886  0.4354 -0.0165 -0.2170
  779MOL0     C 2715   5.536   4.432   5.809 -1.1879 -0.4455 -0.8877
  779MOL0     C 2716   5.468   4.298   5.831 -0.1209  0.3658 -0.2801
  779MOL0     C 2717   5.350   4.328   5.920  0.0493 -0.6452  1.1087
  779MOL0     C 2718   5.251   4.429   5.865  0.2621 -0.1505 -0.4477
  779MOL0     C 2719   5.180   4.379   5.742 -0.7443  0.0612  0.0250
  779MOL0     O 2720   5.146   4.238   5.744  0.0995 -0.3854 -0.1316
  779MOL0     C 2721   5.030   4.215   5.676 -0.8914 -0.3106  0.7133
  779MOL0     C 2722   5.047   4.175   5.543 -0.3540  0.2378  0.4438
  779MOL0     C 2723   4.935   4.142   5.469 -0.6492  0.2683 -0.5445
  779MOL0     C 2724   4.802   4.149   5.525  0.4145  0.0415  0.2765
  779MOL0     C 2725   4.675   4.142   5.451  0.1373  0.6381 -0.6338
  779MOL0     O 2726   4.571   4.211   5.501 -0.2661 -0.3323  0.9149
  779MOL0     C 2727   4.456   4.245   5.434 -0.5110 -0.4111  0.4507
  779MOL0     C 2728   4.413   4.177   5.319 -0.3963  0.5715 -0.1589
  779MOL0     C 2729   4.293   4.217   5.258 -0.0668 -0.4298 -0.1119
  779MOL0     C 2730   4.220   4.329   5.305  0.4570 -0.2489 -0.6741
  779MOL0     O 2731   4.105   4.379   5.249 -0.2152 -0.3242  0.2172
  779MOL0     C 2732   4.070   4.326   5.118 -0.1827  0.4265  0.1247
  779MOL0     C 2733   3.952   4.402   5.049  0.0315  0.3256 -0.3104
  779MOL0     C 2734   3.834   4.428   5.142  0.3661  0.6458  0.1425
  779MOL0     C 2735   3.714   4.469   5.061 -0.5589  0.2209 -0.3953
  779MOL0     C 2736   3.597   4.460   5.157 -0.0647 -0.2561 -0.7790
  779MOL0     C 2737   3.459   4.516   5.114  0.0062  0.0331  0.3228
  779MOL0     C 2738   3.361   4.480   5.227 -0.4867 -0.0517 -0.9109
  779MOL0     C 2739   3.227   4.564   5.225 -0.2617  0.6870 -0.4038
  779MOL0    Cl 2740   3.128   4.529   5.370 -0.0737  0.1734 -0.1090
  779MOL0     C 2741   4.265   4.393   5.425 -0.2356 -0.0535  0.1368
  779MOL0     C 2742   4.384   4.351   5.488 -0.1346 -0.1851 -0.0602
  779MOL0     O 2743   4.687   4.101   5.338 -0.0990  0.3316 -0.3773
  779MOL0     C 2744   4.790   4.163   5.663 -1.0475  0.8368 -0.0201
  779MOL0     C 2745   4.907   4.206   5.732 -0.5894  1.6440 -0.3653
  779MOL0     N 2746   5.533   4.488   5.682 -0.4458  0.1889 -0.3245
  779MOL0     N 2747   5.613   4.589   5.678 -0.1376 -0.2021  0.7100
  779MOL0     C 2748   6.480   4.818   6.258  0.2428  1.0724  0.4113
  779MOL0     C 2749   6.545   4.752   6.364 -0.1333  0.9749 -0.0598
  779MOL0     C 2750   6.869   4.473   6.539  1.0377 -0.7485  0.1790
  779MOL0     C 2751   6.886   4.527   6.666  0.4914 -0.9545  0.3067
  779MOL0     C 2752   6.956   4.461   6.766  0.4394 -0.8951 -0.6088
  779MOL0     C 2753   7.011   4.328   6.751  0.8067  0.2728  0.8055
  779MOL0     O 2754   7.077   4.278   6.859  0.5807  0.2503 -0.0331
  779MOL0     C 2755   7.181   4.187   6.853 -0.1826 -0.3819 -0.0594
  779MOL0     C 2756   7.298   4.267   6.799 -0.8027  0.6089  0.6498
  779MOL0     C 2757   7.411   4.170   6.760  0.7478 -0.0416 -0.8913
  779MOL0     C 2758   7.414   4.151   6.606  0.2139 -0.3138  0.7914
  779MOL0     C 2759   7.475   4.275   6.538 -0.1223  0.1363 -0.0339
  779MOL0     C 2760   7.517   4.367   6.466  0.4918  0.0937 -0.8883
  779MOL0     C 2761   6.983   4.274   6.623 -0.7304  0.1278 -0.5781
  779MOL0     C 2762   6.913   4.342   6.525  0.3629  0.3871 -0.1628
  779MOL0     H 2763   6.864   4.779   6.240 -0.2806  2.0588 -0.6171
  779MOL0     H 2764   6.737   4.885   6.060 -1.0551  1.9990 -0.4670
  779MOL0     H 2765   6.529   4.814   5.904  2.7478  0.8505  1.1772
  779MOL0     H 2766   6.606   4.973   5.909 -1.0275  1.9301  0.0816
  779MOL0     H 2767   6.483   4.976   5.735  2.5232  0.1237  0.7923
  779MOL0     H 2768   6.426   5.092   5.848  4.4457  0.5165 -3.1004
  779MOL0     H 2769   6.232   4.947   5.714  0.0157 -0.9531 -0.0813
  779MOL0     H 2770   6.219   4.943   5.890 -2.1671  1.8206 -2.3933
  779MOL0     H 2771   6.377   4.732   5.747  0.2701  0.3933 -0.6071
  779MOL0     H 2772   6.311   4.735   5.905  0.5050 -1.7572 -0.8876
  779MOL0     H 2773   6.175   4.595   5.761  1.3468 -0.0016 -0.7852
  779MOL0     H 2774   6.152   4.734   5.645 -3.9381 -0.4592  0.4847
  779MOL0     H 2775   6.010   4.847   5.776 -0.0978  0.4593  1.2780
  779MOL0     H 2776   6.034   4.740   5.919 -0.2699 -0.5996  0.0768
  779MOL0     H 2777   5.890   4.681   5.656  0.8912 -0.1058 -0.3364
  779MOL0     H 2778   5.905   4.559   5.785 -0.6040 -0.0304  2.2656
  779MOL0     H 2779   5.734   4.806   5.774  0.6555  1.1456  1.6615
  779MOL0     H 2780   5.776   4.730   5.934 -0.1260 -0.0018  0.8496
  779MOL0     H 2781   5.653   4.497   5.987 -0.5669  0.2015  0.1758
  779MOL0     H 2782   5.528   4.224   5.885 -2.0315 -1.6963 -0.8513
  779MOL0     H 2783   5.439   4.246   5.739  0.1171 -1.9372  0.8749
  779MOL0     H 2784   5.387   4.369   6.015 -1.4924  1.7537  0.7701
  779MOL0     H 2785   5.314   4.229   5.951  0.7276 -0.3890  2.8727
  779MOL0     H 2786   5.179   4.441   5.946 -1.0791 -1.0776 -1.4473
  779MOL0     H 2787   5.290   4.530   5.847 -1.2451  0.4321 -0.5286
  779MOL0     H 2788   5.249   4.385   5.657  2.0448 -0.6975  2.0607
  779MOL0     H 2789   5.094   4.443   5.722 -0.1986  0.9139  0.3690
  779MOL0     H 2790   5.150   4.168   5.511  1.1976  1.0883  4.6226
  779MOL0     H 2791   4.954   4.113   5.366  1.8085  1.1423 -0.4244
  779MOL0     H 2792   4.460   4.086   5.285 -2.2053 -0.4703 -0.0066
  779MOL0     H 2793   4.268   4.154   5.173  0.5879 -0.4694 -0.2863
  779MOL0     H 2794   4.033   4.223   5.125 -3.0880  1.2695 -1.1789
  779MOL0     H 2795   4.162   4.334   5.060  1.4068  0.5618  2.5454
  779MOL0     H 2796   3.934   4.337   4.963  1.7118 -0.9206  0.2293
  779MOL0     H 2797   3.978   4.501   5.010  1.4714  0.0351 -0.1445
  779MOL0     H 2798   3.856   4.511   5.211 -0.1576  0.1204  0.9638
  779MOL0     H 2799   3.814   4.331   5.188  2.0267  0.0406 -0.3563
  779MOL0     H 2800   3.736   4.563   5.009 -0.4970  1.5070  1.8352
  779MOL0     H 2801   3.686   4.404   4.978 -0.9426 -0.4596  0.2516
  779MOL0     H 2802   3.625   4.503   5.254  0.8060 -1.1971 -0.6011
  779MOL0     H 2803   3.581   4.355   5.184  2.7034 -0.0348  2.4884
  779MOL0     H 2804   3.422   4.464   5.025  2.9563  3.6261 -3.4041
  779MOL0     H 2805   3.454   4.620   5.079  0.2052 -0.4371 -1.2055
  779MOL0     H 2806   3.349   4.371   5.229  0.3818 -0.1459  0.7970
  779MOL0     H 2807   3.410   4.496   5.324 -2.2177  2.2358 -0.3193
  779MOL0     H 2808   3.168   4.525   5.141  0.2650 -1.3812  0.1433
  779MOL0     H 2809   3.237   4.670   5.200  0.2486  0.3048 -1.9039
  779MOL0     H 2810   4.206   4.478   5.457  2.3235  2.6556 -1.8606
  779MOL0     H 2811   4.426   4.392   5.580 -2.6471  1.0839  0.5969
  779MOL0     H 2812   4.701   4.158   5.725 -0.6879 -0.3481  0.4224
  779MOL0     H 2813   4.895   4.243   5.834 -1.4509 -2.2814  1.1359
  779MOL0     H 2814   6.373   4.815   6.275  0.0757 -1.8619 -0.6802
  779MOL0     H 2815   6.487   4.712   6.446 -2.2262 -2.5677 -2.9371
  779MOL0     H 2816   6.826   4.613   6.695  2.5075  0.4189  0.5559
  779MOL0     H 2817   6.960   4.504   6.865 -1.6013  0.7931 -1.1765
  779MOL0     H 2818   7.148   4.109   6.784 -0.0018 -1.4194  1.0044
  779MOL0     H 2819   7.209   4.146   6.950  0.5876  1.1383  0.3956
  779MOL0     H 2820   7.262   4.326   6.715 -2.3026 -1.9990 -0.6801
  779MOL0     H 2821   7.344   4.330   6.876  1.5473  0.0048 -0.2035
  779MOL0     H 2822   7.399   4.070   6.803  2.0548 -0.4123 -1.3513
  779MOL0     H 2823   7.507   4.209   6.793 -0.9931  1.8062  2.4760
  779MOL0     H 2824   7.482   4.069   6.583 -0.4352 -0.3770 -1.0649
  779MOL0     H 2825   7.318   4.130   6.557 -0.0504 -1.5012  1.7640
  779MOL0     H 2826   7.550   4.450   6.407  0.8900  0.8613  0.3781
  779MOL0     H 2827   7.020   4.172   6.610  1.1748  0.5396  1.0852
  779MOL0     H 2828   6.897   4.304   6.424  1.0155  1.1708 -0.5773
  780MOL0     O 2829   7.546   5.013   7.405 -0.9312  0.0625  0.2550
  780MOL0     C 2830   7.542   5.132   7.389 -0.3697  0.9270 -0.2978
  780MOL0     O 2831   7.440   5.196   7.326  0.3230 -0.4261  0.7545
  780MOL0     C 2832   7.320   5.144   7.279 -0.6614 -0.0052  0.3414
  780MOL0     C 2833   7.300   5.007   7.240  0.4527  0.0847  0.5538
  780MOL0     C 2834   7.184   4.958   7.181  0.1000  0.2011 -1.1857
  780MOL0     C 2835   7.068   5.045   7.157  0.2448  0.4508 -0.4547
  780MOL0     O 2836   6.942   4.990   7.126  0.3380  0.5084  0.5052
  780MOL0     C 2837   6.944   4.899   7.011  0.4612 -0.2898 -0.6205
  780MOL0     C 2838   6.805   4.873   6.964 -0.1986  0.2611  1.0911
  780MOL0     C 2839   6.748   5.007   6.904  0.2978  0.8047 -0.3189
  780MOL0     C 2840   6.607   4.971   6.845 -0.2781  0.2412  0.0027
  780MOL0     C 2841   6.542   5.082   6.762 -0.4005  0.5881 -0.3881
  780MOL0     C 2842   6.505   5.205   6.839  0.7101  1.0145 -0.3040
  780MOL0     C 2843   6.370   5.178   6.905 -0.5137  0.1180  0.1373
  780MOL0     C 2844   6.237   5.220   6.824  0.3515  0.2064 -0.2915
  780MOL0     N 2845   6.193   5.121   6.723 -0.5286 -0.3246  0.5147
  780MOL0     C 2846   6.141   5.001   6.757 -0.1602 -0.2418  0.2786
  780MOL0     C 2847   6.104   4.942   6.635 -0.2499 -0.4044 -0.3206
  780MOL0     C 2848   6.057   4.800   6.613 -0.3119  0.4108  0.3641
  780MOL0     C 2849   5.927   4.808   6.532  0.3248 -0.5221 -0.1594
  780MOL0     C 2850   5.809   4.853   6.611 -0.8575 -0.1458  0.2047
  780MOL0     C 2851   5.678   4.788   6.568  0.0102  0.0624  0.5554
  780MOL0     O 2852   5.563   4.856   6.616 -1.0960 -0.5354 -0.3662
  780MOL0     C 2853   5.445   4.793   6.582  0.0443 -0.3077  0.0865
  780MOL0     C 2854   5.326   4.860   6.621  0.2531 -0.3160 -0.5794
  780MOL0     C 2855   5.197   4.822   6.589  0.4058  0.7904  0.0874
  780MOL0     C 2856   5.181   4.705   6.514 -0.5111 -0.4980 -0.0703
  780MOL0     C 2857   5.048   4.674   6.453 -0.5688  0.2015  0.3138
  780MOL0     O 2858   4.939   4.728   6.527 -0.2741  0.6834  0.0660
  780MOL0     C 2859   4.810   4.695   6.492  0.5978  0.0176 -0.0533
  780MOL0     C 2860   4.761   4.665   6.366  0.0135 -0.0242  0.7012
  780MOL0     C 2861   4.625   4.658   6.339 -0.8100 -0.2138  0.1671
  780MOL0     C 2862   4.529   4.673   6.441  0.1081  0.1263 -0.5331
  780MOL0     O 2863   4.392   4.665   6.427  0.5361 -0.0706  0.2140
  780MOL0     C 2864   4.345   4.633   6.293 -0.4958  0.1965  0.7750
  780MOL0     C 2865   4.191   4.634   6.283  0.4001 -0.4709  0.3740
  780MOL0     C 2866   4.123   4.525   6.373  0.6192 -0.6369  0.4565
  780MOL0     C 2867   4.153   4.390   6.317 -0.7614  0.5212  0.5546
  780MOL0     C 2868   4.065   4.279   6.362  0.1024  0.2743 -0.6122
  780MOL0     C 2869   4.119   4.144   6.315  0.0347 -0.1878  0.3137
  780MOL0     C 2870   4.035   4.030   6.373 -0.8400  0.0097 -0.5826
  780MOL0     C 2871   4.091   3.895   6.331  0.2093  0.4465  0.3458
  780MOL0    Cl 2872   4.221   3.852   6.446  0.0440  0.0447  0.2646
  780MOL0     C 2873   4.576   4.704   6.565  0.0334  0.4067  0.0761
  780MOL0     C 2874   4.719   4.721   6.594  0.8100  0.7494 -0.4778
  780MOL0     O 2875   5.041   4.601   6.356 -0.3157  0.1733  0.7186
  780MOL0     C 2876   5.299   4.637   6.466  0.1010 -1.0196 -0.1227
  780MOL0     C 2877   5.426   4.677   6.509 -0.6853  1.1179 -0.7721
  780MOL0     N 2878   6.128   5.030   6.538  0.3862  0.3169 -0.7422
  780MOL0     N 2879   6.197   5.130   6.585  0.5305 -0.9119  0.4007
  780MOL0     C 2880   7.092   5.184   7.179 -0.3080  0.5069  0.2689
  780MOL0     C 2881   7.210   5.223   7.247  0.1714 -0.6466  0.2477
  780MOL0     C 2882   7.644   5.215   7.442  0.7572  0.0546 -0.4851
  780MOL0     C 2883   7.607   5.354   7.477  0.3414 -0.9755  0.2286
  780MOL0     C 2884   7.706   5.445   7.511 -1.3364  0.2866 -0.0405
  780MOL0     C 2885   7.842   5.402   7.520 -0.5291 -0.0665  0.3573
  780MOL0     O 2886   7.936   5.495   7.551  0.7788 -0.2775 -0.2220
  780MOL0     C 2887   8.070   5.475   7.523  0.3386 -0.1185  0.2011
  780MOL0     C 2888   8.095   5.472   7.374 -0.0411 -0.1994  0.0383
  780MOL0     C 2889   8.246   5.460   7.327  0.5077 -0.0085  0.1183
  780MOL0     C 2890   8.261   5.431   7.174 -0.5145 -0.5351  1.1766
  780MOL0     C 2891   8.287   5.558   7.102  0.1068 -0.8066  0.6232
  780MOL0     C 2892   8.311   5.670   7.048 -0.1103  0.0636 -0.0317
  780MOL0     C 2893   7.874   5.269   7.490  0.1838 -0.2018  0.8886
  780MOL0     C 2894   7.783   5.174   7.450  0.0454  0.2136  0.0444
  780MOL0     H 2895   7.384   4.939   7.246  0.4472 -0.2920 -2.2887
  780MOL0     H 2896   7.169   4.851   7.177 -0.3363  0.0977  1.5367
  780MOL0     H 2897   6.990   4.806   7.045 -1.7673  0.2136  4.7608
  780MOL0     H 2898   7.001   4.933   6.924  1.9413  0.0590  0.4572
  780MOL0     H 2899   6.745   4.845   7.051 -2.3353  2.8856  0.6062
  780MOL0     H 2900   6.815   4.789   6.896  1.5501 -0.2573  1.9311
  780MOL0     H 2901   6.807   5.045   6.821 -4.0088 -0.4751 -4.3946
  780MOL0     H 2902   6.736   5.088   6.976 -0.0748  0.5252 -0.0563
  780MOL0     H 2903   6.626   4.890   6.774 -0.1004  1.6559 -1.6070
  780MOL0     H 2904   6.529   4.944   6.917 -1.9954  0.0262 -1.8602
  780MOL0     H 2905   6.453   5.037   6.717  1.3110 -1.7076 -1.7434
  780MOL0     H 2906   6.605   5.110   6.677 -0.1258  0.7298 -0.1412
  780MOL0     H 2907   6.494   5.281   6.761  0.2418 -0.5427 -1.8273
  780MOL0     H 2908   6.584   5.236   6.908  2.5257 -4.1242  0.3349
  780MOL0     H 2909   6.362   5.079   6.950  0.0403 -0.5385 -1.1581
  780MOL0     H 2910   6.382   5.256   6.981 -0.0733 -2.4728  2.9007
  780MOL0     H 2911   6.253   5.315   6.774 -0.9704  0.4680 -0.2622
  780MOL0     H 2912   6.154   5.232   6.894 -0.1453 -3.2543 -0.0862
  780MOL0     H 2913   6.123   4.959   6.855 -1.2633 -3.9147 -1.3198
  780MOL0     H 2914   6.028   4.752   6.707 -2.1775  0.3213 -0.2151
  780MOL0     H 2915   6.130   4.728   6.574 -3.0806 -1.5719 -1.6316
  780MOL0     H 2916   5.898   4.712   6.490 -3.2419 -1.3598  3.5942
  780MOL0     H 2917   5.936   4.880   6.449 -1.7318  0.7597  0.6552
  780MOL0     H 2918   5.812   4.836   6.719  1.0365 -1.4769 -0.0172
  780MOL0     H 2919   5.804   4.963   6.613  2.7953  0.1761 -1.5042
  780MOL0     H 2920   5.672   4.692   6.619 -4.0412  1.8276  4.0290
  780MOL0     H 2921   5.665   4.788   6.460 -1.4426  3.7364  0.5843
  780MOL0     H 2922   5.354   4.955   6.666  2.0485  0.2033 -2.6351
  780MOL0     H 2923   5.112   4.875   6.630 -1.2593 -2.9679  1.9692
  780MOL0     H 2924   4.829   4.657   6.281  1.7310 -0.6084  2.0637
  780MOL0     H 2925   4.587   4.625   6.243 -1.9576  0.6130  0.3208
  780MOL0     H 2926   4.385   4.544   6.245 -0.2658  2.0780 -2.8463
  780MOL0     H 2927   4.375   4.720   6.234 -1.9916 -0.4090 -0.9481
  780MOL0     H 2928   4.157   4.624   6.179 -1.9867 -0.3000  1.0804
  780MOL0     H 2929   4.143   4.724   6.323  1.1639  0.0866  0.0604
  780MOL0     H 2930   4.017   4.555   6.371  0.8160  0.1173  0.9337
  780MOL0     H 2931   4.137   4.530   6.481 -1.1137 -0.5999  0.7178
  780MOL0     H 2932   4.151   4.400   6.208 -1.2547  0.3182  0.5420
  780MOL0     H 2933   4.255   4.360   6.343 -0.8064 -1.4456 -1.2520
  780MOL0     H 2934   3.961   4.296   6.336 -1.7382  0.2918  5.3061
  780MOL0     H 2935   4.073   4.272   6.471 -0.9777  1.1368 -0.4703
  780MOL0     H 2936   4.226   4.140   6.337  0.5809  5.5977  0.2125
  780MOL0     H 2937   4.131   4.138   6.206  2.2265 -1.8529  0.5571
  780MOL0     H 2938   4.037   4.042   6.482  0.4519 -2.3358 -0.2854
  780MOL0     H 2939   3.932   4.031   6.335 -1.3652 -0.0733  0.7846
  780MOL0     H 2940   4.122   3.896   6.226  2.2924  3.8715  0.8339
  780MOL0     H 2941   4.012   3.820   6.336  1.3716 -0.8501 -0.1289
  780MOL0     H 2942   4.503   4.720   6.644 -1.0665  0.5318 -0.9231
  780MOL0     H 2943   4.741   4.756   6.694  2.5946 -1.3215 -0.0602
  780MOL0     H 2944   5.282   4.554   6.398 -0.6988  1.8079 -3.6765
  780MOL0     H 2945   5.516   4.623   6.479 -1.2691  0.3663 -1.2290
  780MOL0     H 2946   7.013   5.248   7.142 -1.6795 -0.8146  0.8122
  780MOL0     H 2947   7.220   5.330   7.264 -4.8842  0.3530 -1.2786
  780MOL0     H 2948   7.505   5.388   7.468  0.5553 -0.8517 -2.6502
  780MOL0     H 2949   7.698   5.548   7.544  0.1341  0.1623  0.7662
  780MOL0     H 2950   8.113   5.382   7.561 -1.5805 -0.4681  1.6611
  780MOL0     H 2951   8.125   5.563   7.557 -0.1463  0.4339 -0.4003
  780MOL0     H 2952   8.044   5.386   7.330 -0.9646  1.8167 -3.2160
  780MOL0     H 2953   8.051   5.564   7.333 -0.6247 -0.1517  0.7554
  780MOL0     H 2954   8.301   5.377   7.372  1.5467  1.2118  1.2074
  780MOL0     H 2955   8.296   5.554   7.354 -0.8639  0.2816  1.7904
  780MOL0     H 2956   8.344   5.362   7.160 -0.9416 -0.4356 -3.0049
  780MOL0     H 2957   8.172   5.383   7.132  0.1504 -1.3486  0.6719
  780MOL0     H 2958   8.331   5.767   7.008  0.4642 -0.0153  0.0592
  780MOL0     H 2959   7.976   5.232   7.494  1.5238  3.0362  0.3106
  780MOL0     H 2960   7.831   5.077   7.441  2.9212  1.7650 -4.9812
  781MOL0     O 2961   5.220   8.211   6.328 -0.5119  0.0575 -0.5820
  781MOL0     C 2962   5.251   8.111   6.395 -0.0352 -0.6156  0.7915
  781MOL0     O 2963   5.183   7.998   6.405  0.2467 -0.1537 -0.3813
  781MOL0     C 2964   5.059   7.990   6.351 -0.1755 -0.1322  0.0007
  781MOL0     C 2965   4.959   8.085   6.372  0.2584  0.4311  0.1120
  781MOL0     C 2966   4.837   8.070   6.314  0.4241 -0.0930  0.4190
  781MOL0     C 2967   4.804   7.964   6.232 -0.3472  0.9046 -0.1515
  781MOL0     O 2968   4.681   7.959   6.171  0.6168  0.2803  0.0639
  781MOL0     C 2969   4.625   7.843   6.113  0.5341 -0.3174  0.8119
  781MOL0     C 2970   4.475   7.856   6.134  0.5488  0.8946 -0.3474
  781MOL0     C 2971   4.399   7.745   6.065  0.4298  1.4350  0.0460
  781MOL0     C 2972   4.243   7.756   6.086 -0.0849 -0.0959 -0.5136
  781MOL0     C 2973   4.166   7.630   6.041 -0.0407 -0.2157  0.1198
  781MOL0     C 2974   4.200   7.504   6.122  0.6874  0.6413 -0.4866
  781MOL0     C 2975   4.105   7.381   6.098 -0.4183  0.3019  1.0199
  781MOL0     C 2976   3.964   7.406   6.144  0.4175 -0.1045 -0.8854
  781MOL0     N 2977   3.946   7.445   6.288  0.1033 -0.4617 -0.4910
  781MOL0     C 2978   3.974   7.373   6.399  0.1814 -0.1728 -0.7858
  781MOL0     C 2979   3.955   7.453   6.506  0.2570  0.1427 -0.3493
  781MOL0     C 2980   3.977   7.432   6.655 -0.3209 -0.2625 -1.1580
  781MOL0     C 2981   4.108   7.495   6.704  0.1197 -0.6677  0.3649
  781MOL0     C 2982   4.154   7.435   6.828  0.2254 -0.0804  0.2241
  781MOL0     C 2983   4.298   7.472   6.858  0.7039 -1.3161 -0.9058
  781MOL0     O 2984   4.372   7.384   6.779  0.1854  0.5649 -0.0167
  781MOL0     C 2985   4.506   7.387   6.812  0.1551 -0.5040 -0.9045
  781MOL0     C 2986   4.582   7.504   6.821  0.1409 -0.6736 -0.5834
  781MOL0     C 2987   4.713   7.500   6.850  0.2823 -0.5553  0.5089
  781MOL0     C 2988   4.785   7.382   6.867 -0.6784  0.6590  0.2998
  781MOL0     C 2989   4.934   7.380   6.881  0.4210 -0.2991  0.2958
  781MOL0     O 2990   5.000   7.260   6.877 -0.4690  0.3519  0.0949
  781MOL0     C 2991   5.134   7.247   6.866 -0.1093  0.2336 -0.1911
  781MOL0     C 2992   5.202   7.143   6.928  1.2715  1.1200 -0.3940
  781MOL0     C 2993   5.335   7.118   6.906  0.7080 -0.0379  0.5791
  781MOL0     C 2994   5.402   7.193   6.815 -0.5625 -0.4582  0.3114
  781MOL0     O 2995   5.532   7.166   6.785 -0.3774  0.5400  0.3475
  781MOL0     C 2996   5.636   7.264   6.802  0.1979 -0.2711  0.1537
  781MOL0     C 2997   5.773   7.211   6.756 -0.7366 -0.4379  0.1205
  781MOL0     C 2998   5.883   7.306   6.799 -0.4073 -0.4537  0.6049
  781MOL0     C 2999   6.020   7.242   6.768  0.2628 -0.3068  0.1584
  781MOL0     C 3000   6.131   7.317   6.840 -0.3520 -0.2899  0.5094
  781MOL0     C 3001   6.272   7.288   6.766  0.2927  0.1159 -0.4303
  781MOL0     C 3002   6.379   7.366   6.836 -0.5885 -0.2346  0.2832
  781MOL0     C 3003   6.497   7.385   6.742  0.5808  0.3950  0.4711
  781MOL0    Cl 3004   6.643   7.449   6.814  0.4287 -0.5865 -0.1030
  781MOL0     C 3005   5.336   7.297   6.756 -0.6284 -0.5036 -0.7363
  781MOL0     C 3006   5.202   7.322   6.773  1.0320 -0.3189  0.9467
  781MOL0     O 3007   4.988   7.487   6.889 -0.1253  0.1258 -0.4255
  781MOL0     C 3008   4.709   7.263   6.866  0.6858 -0.0873 -0.8492
  781MOL0     C 3009   4.568   7.267   6.837  0.3281  0.5224 -0.2133
  781MOL0     N 3010   3.916   7.579   6.454 -1.0514  0.1427 -0.4643
  781MOL0     N 3011   3.911   7.572   6.329  1.1061 -0.0423 -0.4103
  781MOL0     C 3012   4.907   7.873   6.201  0.1877  0.0436 -0.1577
  781MOL0     C 3013   5.031   7.888   6.265 -0.7309 -0.2922  1.6054
  781MOL0     C 3014   5.359   8.129   6.499  0.2598 -0.7269 -1.1808
  781MOL0     C 3015   5.397   8.032   6.589  0.8712  0.1549  1.0665
  781MOL0     C 3016   5.518   8.042   6.653 -0.1724 -0.3845  0.2080
  781MOL0     C 3017   5.601   8.152   6.639  0.0853  0.0403 -0.5417
  781MOL0     O 3018   5.722   8.168   6.709  0.4765  0.7881  0.0657
  781MOL0     C 3019   5.798   8.051   6.724 -0.0466  0.0292 -0.5897
  781MOL0     C 3020   5.936   8.083   6.793  0.9387 -0.0125 -0.0826
  781MOL0     C 3021   6.029   8.177   6.729 -1.0146  0.1153 -0.3295
  781MOL0     C 3022   6.172   8.179   6.775  0.7328  0.4764  0.5127
  781MOL0     C 3023   6.244   8.282   6.706  0.9137  0.1546 -1.0946
  781MOL0     C 3024   6.304   8.369   6.650 -0.0064 -0.4189 -0.1634
  781MOL0     C 3025   5.562   8.250   6.555 -0.3447 -0.2082 -0.4097
  781MOL0     C 3026   5.441   8.237   6.494 -0.8423 -0.8992 -0.1722
  781MOL0     H 3027   4.981   8.167   6.439 -2.7835  0.7149  0.8708
  781MOL0     H 3028   4.757   8.131   6.355  0.7950 -0.8585  2.4077
  781MOL0     H 3029   4.668   7.750   6.150  0.5769 -0.4179  0.5152
  781MOL0     H 3030   4.641   7.841   6.005 -0.3572 -1.1255  0.6745
  781MOL0     H 3031   4.440   7.953   6.098  2.2397  2.4677  1.8934
  781MOL0     H 3032   4.445   7.849   6.239 -1.1261 -0.7315 -0.8813
  781MOL0     H 3033   4.425   7.648   6.108 -3.8486  0.4303  0.8524
  781MOL0     H 3034   4.421   7.744   5.957  0.6478  0.4556  0.0911
  781MOL0     H 3035   4.229   7.773   6.193 -3.2024 -0.3036 -0.8048
  781MOL0     H 3036   4.204   7.845   6.036  2.7719  1.1486 -0.7153
  781MOL0     H 3037   4.187   7.608   5.936  0.1804  1.1518 -0.1470
  781MOL0     H 3038   4.059   7.652   6.053  0.6222  4.1150 -0.3681
  781MOL0     H 3039   4.212   7.526   6.228  3.0673 -0.6619 -0.4230
  781MOL0     H 3040   4.299   7.478   6.083  1.3165  2.8806 -0.4700
  781MOL0     H 3041   4.090   7.361   5.992 -0.6617  3.5075  0.3628
  781MOL0     H 3042   4.139   7.290   6.149 -0.7814  0.0871  0.8765
  781MOL0     H 3043   3.914   7.310   6.131 -0.9572  0.7740 -2.2711
  781MOL0     H 3044   3.916   7.487   6.090 -0.1854  0.3977  0.3784
  781MOL0     H 3045   4.002   7.269   6.399 -2.2219 -0.9223 -2.2800
  781MOL0     H 3046   3.965   7.331   6.694 -3.1746  0.5634  0.4647
  781MOL0     H 3047   3.895   7.478   6.711 -0.7488  1.9982 -3.4511
  781MOL0     H 3048   4.096   7.603   6.720  0.1876 -0.2810 -1.9514
  781MOL0     H 3049   4.186   7.492   6.628 -0.9133 -0.6905 -0.7272
  781MOL0     H 3050   4.093   7.475   6.909  0.1096 -1.6279  0.9445
  781MOL0     H 3051   4.148   7.326   6.827 -0.2325 -0.0532  0.0749
  781MOL0     H 3052   4.315   7.457   6.965 -0.4224  2.4274 -0.0439
  781MOL0     H 3053   4.317   7.578   6.836  0.8641 -0.4728  2.6452
  781MOL0     H 3054   4.532   7.596   6.795  1.6057  0.2715 -0.2042
  781MOL0     H 3055   4.766   7.594   6.865 -1.2388  0.5451 -0.7591
  781MOL0     H 3056   5.150   7.071   6.990 -2.6172  1.7241 -2.6414
  781MOL0     H 3057   5.379   7.034   6.958  1.0104 -2.4414 -3.2039
  781MOL0     H 3058   5.643   7.283   6.910  1.1199  0.0295  0.0496
  781MOL0     H 3059   5.620   7.359   6.750  0.6977 -0.2793 -0.0203
  781MOL0     H 3060   5.770   7.206   6.647 -0.0363  0.3992  0.0535
  781MOL0     H 3061   5.790   7.114   6.805  2.8705 -0.4343 -0.8642
  781MOL0     H 3062   5.878   7.319   6.907 -1.5142 -2.3639  0.8393
  781MOL0     H 3063   5.877   7.405   6.754  0.7615 -1.1671 -1.2663
  781MOL0     H 3064   6.030   7.137   6.799  2.7154 -0.2149 -0.0920
  781MOL0     H 3065   6.031   7.238   6.659  3.3616 -1.6360  0.3897
  781MOL0     H 3066   6.125   7.279   6.943  1.5269  0.8504  1.0816
  781MOL0     H 3067   6.114   7.425   6.843  1.0100  0.1001 -2.5814
  781MOL0     H 3068   6.273   7.320   6.662  0.1396  2.0197  0.1136
  781MOL0     H 3069   6.297   7.182   6.777 -0.9756  0.0394  3.5293
  781MOL0     H 3070   6.345   7.468   6.856 -0.5151 -0.5953  2.4381
  781MOL0     H 3071   6.408   7.310   6.925 -1.4979  0.4471  1.0274
  781MOL0     H 3072   6.466   7.449   6.659  1.3350  2.0833  1.4319
  781MOL0     H 3073   6.516   7.286   6.699 -2.1028 -0.5039  1.1818
  781MOL0     H 3074   5.389   7.353   6.681 -1.3043 -0.1012 -0.9254
  781MOL0     H 3075   5.152   7.401   6.717 -0.8350 -2.2121 -0.2013
  781MOL0     H 3076   4.755   7.167   6.888  0.0365  0.0165  1.1334
  781MOL0     H 3077   4.510   7.176   6.826  0.9685  0.2407 -1.5131
  781MOL0     H 3078   4.888   7.794   6.129 -0.3782  0.0343 -0.0049
  781MOL0     H 3079   5.106   7.812   6.249 -0.8593 -0.2046  0.5299
  781MOL0     H 3080   5.337   7.942   6.600 -0.7388  0.7987 -1.5398
  781MOL0     H 3081   5.563   7.964   6.714  0.4732  0.4678  0.8483
  781MOL0     H 3082   5.823   8.003   6.628  0.0813  0.5276 -0.8088
  781MOL0     H 3083   5.744   7.982   6.790 -1.7509  0.0011 -1.9394
  781MOL0     H 3084   5.938   8.112   6.899  0.1809  0.3865 -0.1703
  781MOL0     H 3085   5.993   7.990   6.786  1.2226  0.2529 -1.6908
  781MOL0     H 3086   5.971   8.270   6.730 -0.9250  0.1829 -0.9313
  781MOL0     H 3087   6.031   8.139   6.626 -0.1074 -1.1540  0.1382
  781MOL0     H 3088   6.185   8.197   6.882  2.5819 -1.8403  0.7725
  781MOL0     H 3089   6.222   8.083   6.758  1.6116  0.9224  0.5073
  781MOL0     H 3090   6.377   8.440   6.617  0.3373 -1.3121 -1.3806
  781MOL0     H 3091   5.613   8.345   6.541  1.2907 -0.4798  2.6994
  781MOL0     H 3092   5.425   8.320   6.426  0.2125  0.7008  1.4573
  782MOL0     O 3093   4.213   6.924   9.398 -0.0183 -0.3598  0.2231
  782MOL0     C 3094   4.263   6.854   9.308  0.3478 -0.9114  0.2285
  782MOL0     O 3095   4.191   6.820   9.186 -1.0770  0.1363 -0.3102
  782MOL0     C 3096   4.054   6.841   9.184 -0.0474 -0.2152  0.2594
  782MOL0     C 3097   3.967   6.774   9.273 -0.6163  0.0342 -0.3630
  782MOL0     C 3098   3.831   6.796   9.261  0.3455  0.1248  0.1633
  782MOL0     C 3099   3.782   6.883   9.170 -0.3028 -0.0314  1.6756
  782MOL0     O 3100   3.654   6.918   9.195 -0.0572  0.1108 -0.7127
  782MOL0     C 3101   3.630   7.057   9.226  0.3864  0.5634 -0.5292
  782MOL0     C 3102   3.479   7.071   9.268 -0.8373 -0.1060  0.4568
  782MOL0     C 3103   3.459   7.038   9.420 -0.0790 -0.5935  0.0146
  782MOL0     C 3104   3.317   7.000   9.463 -0.5051  0.0386  0.1400
  782MOL0     C 3105   3.299   6.989   9.616  0.3058  0.4238 -0.7641
  782MOL0     C 3106   3.155   6.948   9.640  0.3813 -0.8324 -0.4580
  782MOL0     C 3107   3.112   6.962   9.786  0.4211 -0.8235 -0.7391
  782MOL0     C 3108   2.998   6.855   9.825 -0.3620 -0.6174  0.1406
  782MOL0     N 3109   2.910   6.894   9.942 -0.0338  0.3086  0.0859
  782MOL0     C 3110   2.775   6.904   9.929  0.3597  0.2919 -0.4997
  782MOL0     C 3111   2.732   6.907  10.063 -0.1485  0.1210 -0.7303
  782MOL0     C 3112   2.588   6.922  10.102 -0.3308 -0.7632  0.6010
  782MOL0     C 3113   2.558   7.058  10.159 -1.0462  0.1602 -0.4299
  782MOL0     C 3114   2.634   7.109  10.276 -0.2096  1.3454 -0.4280
  782MOL0     C 3115   2.581   7.057  10.408 -0.2161  0.3363  0.1117
  782MOL0     O 3116   2.459   7.124  10.443 -0.3298 -0.5283  0.4523
  782MOL0     C 3117   2.403   7.096  10.564 -0.3133  0.9719  0.5851
  782MOL0     C 3118   2.308   7.182  10.612  0.1470  0.0960  0.4364
  782MOL0     C 3119   2.243   7.166  10.734  0.3358  0.6965  0.8270
  782MOL0     C 3120   2.257   7.042  10.808  0.2199  0.3122  0.1037
  782MOL0     C 3121   2.180   7.023  10.939 -0.3452  0.2368  0.0701
  782MOL0     O 3122   2.197   6.900  10.998  0.4348  0.5622  0.2169
  782MOL0     C 3123   2.135   6.864  11.117  0.0251 -0.0828  0.5080
  782MOL0     C 3124   2.084   6.730  11.119 -0.1928  0.3312  0.0411
  782MOL0     C 3125   2.020   6.693  11.232 -0.8389  0.1502 -0.1357
  782MOL0     C 3126   1.986   6.778  11.341 -0.0273 -0.5687  0.4492
  782MOL0     O 3127   1.912   6.727  11.437 -0.2990  0.9408  0.3700
  782MOL0     C 3128   1.903   6.780  11.567  0.3454  0.5515  0.0830
  782MOL0     C 3129   1.819   6.709  11.668 -0.3241  0.1877  0.2279
  782MOL0     C 3130   1.675   6.682  11.616  0.1380  0.7451  0.1091
  782MOL0     C 3131   1.594   6.625  11.729  0.6849  0.0405  0.8519
  782MOL0     C 3132   1.454   6.630  11.703 -0.0662 -0.0877  0.3246
  782MOL0     C 3133   1.386   6.527  11.796  0.5334 -0.4741 -0.2384
  782MOL0     C 3134   1.235   6.523  11.755  0.0314  0.0643  0.7480
  782MOL0     C 3135   1.174   6.411  11.832 -0.0756  0.1971 -0.2127
  782MOL0    Cl 3136   0.995   6.401  11.799 -0.4640 -0.5240  0.4401
  782MOL0     C 3137   2.037   6.903  11.337  0.7391  0.2665 -0.1557
  782MOL0     C 3138   2.119   6.944  11.229  0.5137  0.2565  0.0991
  782MOL0     O 3139   2.137   7.121  10.991  0.0300  0.2685 -0.5139
  782MOL0     C 3140   2.357   6.952  10.759 -0.0718 -0.1786 -0.0048
  782MOL0     C 3141   2.431   6.977  10.638  1.0047  0.2180  0.0256
  782MOL0     N 3142   2.843   6.906  10.145 -0.0018  0.7259  0.6635
  782MOL0     N 3143   2.955   6.905  10.071  0.2870 -0.0273 -0.9490
  782MOL0     C 3144   3.865   6.939   9.075  0.1352  0.3466  0.8628
  782MOL0     C 3145   4.007   6.919   9.076  0.4866 -0.4441 -0.5242
  782MOL0     C 3146   4.410   6.824   9.310 -0.2913  0.6125  0.5191
  782MOL0     C 3147   4.507   6.883   9.397 -0.5021  0.6145 -0.4554
  782MOL0     C 3148   4.644   6.851   9.383  1.0325 -0.8006  0.5901
  782MOL0     C 3149   4.686   6.753   9.287 -1.0275  0.0380 -2.0125
  782MOL0     O 3150   4.819   6.740   9.266 -0.0640  0.7875  0.1995
  782MOL0     C 3151   4.910   6.741   9.374 -0.2446 -0.3600 -0.4567
  782MOL0     C 3152   5.054   6.742   9.318 -0.9414  0.0598 -0.9457
  782MOL0     C 3153   5.089   6.880   9.258 -0.9221  1.4715  0.7621
  782MOL0     C 3154   5.244   6.888   9.237 -0.6439  0.6344  0.0227
  782MOL0     C 3155   5.307   6.907   9.370  0.2361  1.0665 -0.2037
  782MOL0     C 3156   5.378   6.902   9.473 -0.5006  0.4279  0.2848
  782MOL0     C 3157   4.596   6.685   9.213  0.5917 -0.3287  0.3006
  782MOL0     C 3158   4.458   6.723   9.227  0.6420  0.4505 -0.4018
  782MOL0     H 3159   4.022   6.727   9.354 -1.5058 -2.2952 -1.0172
  782MOL0     H 3160   3.749   6.746   9.312 -2.2647  0.0710 -3.6948
  782MOL0     H 3161   3.639   7.114   9.133 -0.3679  0.8323 -0.4438
  782MOL0     H 3162   3.702   7.097   9.298  0.9420  0.3652 -0.9710
  782MOL0     H 3163   3.428   7.003   9.200 -0.4865  2.1144 -2.1923
  782MOL0     H 3164   3.442   7.174   9.262  1.8711  0.9811  1.0662
  782MOL0     H 3165   3.498   7.127   9.473 -2.4752  0.4997  0.0594
  782MOL0     H 3166   3.526   6.965   9.467  3.2466  0.7525 -2.2229
  782MOL0     H 3167   3.243   7.063   9.413  0.2812 -1.8193 -3.6995
  782MOL0     H 3168   3.280   6.908   9.415 -0.1473 -0.7904  1.3973
  782MOL0     H 3169   3.328   7.082   9.667  1.2116 -1.2451  1.9448
  782MOL0     H 3170   3.371   6.915   9.652  2.8616  3.2387  0.4663
  782MOL0     H 3171   3.144   6.843   9.609  1.5764 -1.9969  2.6035
  782MOL0     H 3172   3.092   7.008   9.575  0.2821  0.1380  0.5133
  782MOL0     H 3173   3.201   6.960   9.850 -0.9526  1.8128  1.4710
  782MOL0     H 3174   3.077   7.064   9.809 -0.1261 -1.2713  0.5040
  782MOL0     H 3175   3.044   6.758   9.848  2.6752  0.0790 -2.2051
  782MOL0     H 3176   2.933   6.842   9.738 -0.7532 -1.8554  0.5968
  782MOL0     H 3177   2.716   6.925   9.840  0.6352  2.4277 -0.2292
  782MOL0     H 3178   2.568   6.854  10.185 -1.3050  0.9036  1.7837
  782MOL0     H 3179   2.519   6.906  10.019  1.5338  2.6902 -1.8756
  782MOL0     H 3180   2.454   7.064  10.193 -1.5333  0.1308 -1.8743
  782MOL0     H 3181   2.573   7.114  10.066  1.3728  2.9813  1.4703
  782MOL0     H 3182   2.738   7.073  10.277 -1.4834 -3.0150 -1.3008
  782MOL0     H 3183   2.625   7.218  10.270  1.3631  1.5697  0.6607
  782MOL0     H 3184   2.655   7.062  10.488 -0.5413 -2.4584  0.6811
  782MOL0     H 3185   2.577   6.948  10.399  1.1368  0.3054 -0.2560
  782MOL0     H 3186   2.290   7.273  10.557  1.6862  0.1428 -0.0419
  782MOL0     H 3187   2.183   7.243  10.781  0.3239  0.5075  1.1329
  782MOL0     H 3188   2.107   6.673  11.029  2.1752  3.3161 -1.4159
  782MOL0     H 3189   1.977   6.593  11.237  3.0825 -1.8147 -1.6601
  782MOL0     H 3190   1.851   6.876  11.566 -3.5116 -1.0137  5.6808
  782MOL0     H 3191   2.004   6.788  11.606 -0.6239  1.8248  2.5197
  782MOL0     H 3192   1.798   6.775  11.753 -2.9232  0.4909 -0.5564
  782MOL0     H 3193   1.867   6.616  11.700  0.8771  0.7602  0.1434
  782MOL0     H 3194   1.687   6.619  11.527 -0.2368 -0.1637  0.6857
  782MOL0     H 3195   1.629   6.778  11.592 -0.8376  0.4710  0.8341
  782MOL0     H 3196   1.628   6.521  11.741  2.1454  0.2267 -1.1472
  782MOL0     H 3197   1.612   6.674  11.825  1.5497 -2.5882  2.1435
  782MOL0     H 3198   1.433   6.601  11.599  0.8549 -0.5149  0.2458
  782MOL0     H 3199   1.423   6.734  11.705  1.7121  0.5156 -0.7698
  782MOL0     H 3200   1.401   6.565  11.897 -1.1088  4.4230 -1.5558
  782MOL0     H 3201   1.423   6.424  11.797 -1.8732 -1.3919  0.8317
  782MOL0     H 3202   1.187   6.617  11.781  1.5298  0.5329  2.0078
  782MOL0     H 3203   1.229   6.507  11.647  0.8472  2.0514  0.3667
  782MOL0     H 3204   1.180   6.432  11.939 -3.1355  3.2029 -0.4460
  782MOL0     H 3205   1.229   6.320  11.806  1.2628  0.6004  1.0935
  782MOL0     H 3206   2.015   6.968  11.421  2.8561  0.3204  0.4197
  782MOL0     H 3207   2.184   7.031  11.236  1.9928 -0.7715 -0.3549
  782MOL0     H 3208   2.383   6.863  10.814  3.2767  0.6327 -0.0268
  782MOL0     H 3209   2.500   6.904  10.597  1.5579 -0.6130  2.3056
  782MOL0     H 3210   3.826   7.009   9.002  0.3296 -1.4432 -1.0481
  782MOL0     H 3211   4.081   6.968   9.014  2.4905 -1.2554  1.0806
  782MOL0     H 3212   4.487   6.976   9.448  1.0016  2.1024 -2.3996
  782MOL0     H 3213   4.707   6.921   9.436 -0.7595  1.9210 -0.5981
  782MOL0     H 3214   4.886   6.656   9.439 -1.7924 -1.3370 -2.2316
  782MOL0     H 3215   4.908   6.831   9.437  0.7926 -0.5985 -0.0633
  782MOL0     H 3216   5.128   6.722   9.396 -1.1608  0.8823 -0.5217
  782MOL0     H 3217   5.082   6.656   9.256  1.5241 -0.5444  0.8128
  782MOL0     H 3218   5.053   6.964   9.318 -0.7795  0.5428  2.2050
  782MOL0     H 3219   5.040   6.895   9.162 -2.3788  0.7578  1.3562
  782MOL0     H 3220   5.289   6.799   9.193  1.1920  1.7010 -0.3617
  782MOL0     H 3221   5.263   6.973   9.170  0.9379  0.1775 -0.1605
  782MOL0     H 3222   5.426   6.887   9.567  1.7328  0.1371 -0.8493
  782MOL0     H 3223   4.633   6.604   9.150  0.6279  0.8516 -1.2589
  782MOL0     H 3224   4.386   6.657   9.179 -1.3025  1.6082  0.7654
  783MOL0     O 3225   5.044   5.158   3.642 -0.7668 -0.1241  0.0737
  783MOL0     C 3226   5.005   5.243   3.725 -0.1008 -0.3888 -0.4064
  783MOL0     O 3227   4.881   5.296   3.730 -0.1599 -0.4893 -0.5930
  783MOL0     C 3228   4.784   5.255   3.642  0.2051 -0.7073  0.1084
  783MOL0     C 3229   4.757   5.120   3.610  0.6335 -0.0775 -0.1039
  783MOL0     C 3230   4.644   5.075   3.539 -0.0466 -0.1457 -0.1986
  783MOL0     C 3231   4.551   5.163   3.489  0.0066 -1.2728 -0.3388
  783MOL0     O 3232   4.443   5.113   3.422 -0.9265 -0.1931 -0.0375
  783MOL0     C 3233   4.446   5.166   3.281 -0.6716  0.5142 -0.6971
  783MOL0     C 3234   4.314   5.126   3.216 -1.2047 -0.4624 -0.4577
  783MOL0     C 3235   4.291   5.183   3.076  0.8537  0.3272 -0.7747
  783MOL0     C 3236   4.149   5.155   3.029  0.1421  0.4169  1.0313
  783MOL0     C 3237   4.126   5.208   2.893 -0.8149 -0.7925  0.6798
  783MOL0     C 3238   4.003   5.132   2.828 -0.3677 -0.1441  0.3418
  783MOL0     C 3239   3.982   5.198   2.683  0.1229  0.6067  0.2006
  783MOL0     C 3240   3.841   5.157   2.627 -0.0850 -0.2816  0.2202
  783MOL0     N 3241   3.806   5.213   2.502 -0.1291 -0.2098  0.2139
  783MOL0     C 3242   3.738   5.329   2.479  0.4851 -0.2144  0.2670
  783MOL0     C 3243   3.709   5.324   2.343 -0.6834 -0.7062 -0.4578
  783MOL0     C 3244   3.622   5.420   2.256 -0.7035  0.0772  0.2226
  783MOL0     C 3245   3.468   5.409   2.296 -0.6542  0.4325 -0.2663
  783MOL0     C 3246   3.409   5.267   2.280 -0.0508 -0.6010  0.2735
  783MOL0     C 3247   3.271   5.264   2.333  0.0831 -0.1683  0.7181
  783MOL0     O 3248   3.171   5.347   2.271  0.5215 -0.5503  0.4034
  783MOL0     C 3249   3.036   5.327   2.293 -0.8393  0.1218  0.0871
  783MOL0     C 3250   2.984   5.288   2.417  0.3277  0.6633 -0.8296
  783MOL0     C 3251   2.838   5.265   2.421 -0.6041  0.6684  0.1386
  783MOL0     C 3252   2.753   5.275   2.310 -0.0818 -0.6848 -0.0163
  783MOL0     C 3253   2.603   5.251   2.317  0.1962 -0.1708 -0.2946
  783MOL0     O 3254   2.543   5.277   2.196 -0.2468 -0.6820 -0.2399
  783MOL0     C 3255   2.411   5.270   2.182  0.1025 -0.4127  0.6873
  783MOL0     C 3256   2.329   5.185   2.249 -0.2322  0.2987  0.1765
  783MOL0     C 3257   2.198   5.165   2.210  0.3099  0.0460  0.3080
  783MOL0     C 3258   2.134   5.248   2.118  0.5445 -1.0168 -0.3536
  783MOL0     O 3259   2.001   5.217   2.078 -0.6182 -0.0926 -0.4699
  783MOL0     C 3260   1.933   5.292   1.976  0.7362 -1.2280  0.0549
  783MOL0     C 3261   1.807   5.229   1.924 -0.2997 -0.2255 -0.8089
  783MOL0     C 3262   1.743   5.313   1.814  0.1728  0.3040  0.0366
  783MOL0     C 3263   1.618   5.249   1.770 -1.2277  0.5833  0.1165
  783MOL0     C 3264   1.489   5.254   1.850 -0.3722  0.4595  0.1694
  783MOL0     C 3265   1.403   5.382   1.853 -0.1599  0.8319  0.3032
  783MOL0     C 3266   1.433   5.473   1.970 -0.2805  0.0643 -0.5135
  783MOL0     C 3267   1.347   5.607   1.963 -0.1266 -0.8334  0.0771
  783MOL0    Cl 3268   1.174   5.568   1.959 -0.6120 -0.0198 -0.3255
  783MOL0     C 3269   2.215   5.344   2.046  0.2116  0.4864  0.3413
  783MOL0     C 3270   2.347   5.360   2.083 -0.0319  0.0929 -0.3631
  783MOL0     O 3271   2.553   5.216   2.424 -0.0322 -0.5076  0.0227
  783MOL0     C 3272   2.812   5.320   2.193 -0.4067 -1.4227  0.1621
  783MOL0     C 3273   2.952   5.352   2.184  0.0874 -0.3132  0.1671
  783MOL0     N 3274   3.744   5.199   2.298 -0.0428  0.1595  0.3410
  783MOL0     N 3275   3.806   5.136   2.385  0.5072 -0.4597  0.5778
  783MOL0     C 3276   4.585   5.303   3.521 -0.1118  0.3066  0.5024
  783MOL0     C 3277   4.691   5.346   3.606  0.0274 -0.9793 -0.7864
  783MOL0     C 3278   5.118   5.302   3.808 -0.0828  0.1447 -0.3565
  783MOL0     C 3279   5.252   5.292   3.776  0.2874  0.5044  0.4809
  783MOL0     C 3280   5.353   5.358   3.855 -0.4261  0.8066  0.0162
  783MOL0     C 3281   5.317   5.410   3.977  0.6153 -0.0812 -0.0879
  783MOL0     O 3282   5.401   5.483   4.062  0.2583 -0.2254 -0.5087
  783MOL0     C 3283   5.536   5.448   4.090 -0.2410 -0.3519  0.5669
  783MOL0     C 3284   5.622   5.573   4.042  0.1438  0.4118  0.3893
  783MOL0     C 3285   5.769   5.558   4.034  0.1975 -0.5601 -0.6262
  783MOL0     C 3286   5.842   5.494   4.154  0.0105 -0.4278  0.1978
  783MOL0     C 3287   5.984   5.539   4.168  0.2988  0.7674 -0.6060
  783MOL0     C 3288   6.099   5.575   4.191 -0.2759 -0.6146  0.3408
  783MOL0     C 3289   5.187   5.407   4.019  0.2533 -0.2606 -0.2504
  783MOL0     C 3290   5.085   5.365   3.927 -0.0692 -0.8693  0.6092
  783MOL0     H 3291   4.829   5.048   3.646  1.3195  0.8131  0.3342
  783MOL0     H 3292   4.628   4.969   3.524 -0.7016 -0.2677  1.1371
  783MOL0     H 3293   4.527   5.117   3.227  0.7254  2.0442 -0.0563
  783MOL0     H 3294   4.456   5.275   3.284  0.7891  0.4039 -1.1320
  783MOL0     H 3295   4.234   5.163   3.280  0.5649  3.9618 -0.4909
  783MOL0     H 3296   4.322   5.017   3.217 -1.0738 -0.4709  1.7567
  783MOL0     H 3297   4.363   5.159   2.997 -0.1822  0.9810 -1.9492
  783MOL0     H 3298   4.304   5.291   3.084  2.8275  0.1565 -1.0543
  783MOL0     H 3299   4.148   5.047   3.016  1.3508  0.6643 -1.7863
  783MOL0     H 3300   4.074   5.190   3.101  0.7006  0.5117  1.5814
  783MOL0     H 3301   4.207   5.188   2.822  0.4542  4.0132  0.4168
  783MOL0     H 3302   4.112   5.316   2.902 -2.6546 -1.0601  1.4405
  783MOL0     H 3303   3.926   5.164   2.898 -0.1821  0.5832  0.2263
  783MOL0     H 3304   4.007   5.023   2.824 -0.8717 -0.1400 -0.5526
  783MOL0     H 3305   3.998   5.306   2.691 -0.7699  0.7704 -0.1283
  783MOL0     H 3306   4.058   5.161   2.613 -1.9142  2.0977 -2.9977
  783MOL0     H 3307   3.761   5.193   2.692 -0.2429  1.9973 -1.1437
  783MOL0     H 3308   3.829   5.048   2.627  2.7633 -0.6795  1.6018
  783MOL0     H 3309   3.727   5.408   2.553  3.5546  0.6040  0.0087
  783MOL0     H 3310   3.642   5.416   2.148  1.5386  2.7237  0.4375
  783MOL0     H 3311   3.657   5.523   2.265  3.9622 -1.2040 -0.2851
  783MOL0     H 3312   3.418   5.471   2.222  2.7464 -0.2365 -3.4598
  783MOL0     H 3313   3.455   5.456   2.394  1.3443  0.1286  0.1883
  783MOL0     H 3314   3.413   5.244   2.173  3.0249  1.1884 -0.0997
  783MOL0     H 3315   3.466   5.189   2.330  2.1149  0.3432 -0.5905
  783MOL0     H 3316   3.271   5.282   2.441 -0.0767 -1.7414  1.0041
  783MOL0     H 3317   3.237   5.162   2.317  2.2730 -1.1628  1.9825
  783MOL0     H 3318   3.045   5.265   2.503  0.4282  3.8117  0.0875
  783MOL0     H 3319   2.804   5.227   2.517  0.9512 -2.4160 -0.3988
  783MOL0     H 3320   2.357   5.110   2.322  0.0602  0.3038  0.0697
  783MOL0     H 3321   2.134   5.089   2.253 -1.1111 -0.4080 -2.3756
  783MOL0     H 3322   1.993   5.332   1.895 -1.4085  0.7522 -0.6779
  783MOL0     H 3323   1.907   5.380   2.036  2.4938 -1.5980  1.4660
  783MOL0     H 3324   1.735   5.225   2.007  0.7052  2.0773  0.2417
  783MOL0     H 3325   1.836   5.130   1.888  0.2967 -0.1239 -0.6172
  783MOL0     H 3326   1.810   5.331   1.730 -0.2134  0.5384 -0.2205
  783MOL0     H 3327   1.718   5.413   1.850  0.2547  1.2418 -2.3849
  783MOL0     H 3328   1.588   5.274   1.668 -2.0640  2.2627  0.7404
  783MOL0     H 3329   1.638   5.141   1.763 -1.7659  0.5221 -0.6493
  783MOL0     H 3330   1.497   5.214   1.951  1.5751  0.9832  0.2655
  783MOL0     H 3331   1.429   5.184   1.791  1.9646 -0.1777 -1.6396
  783MOL0     H 3332   1.296   5.361   1.857  0.1379 -0.7539  0.4808
  783MOL0     H 3333   1.424   5.427   1.755 -2.1404  0.5799 -0.2711
  783MOL0     H 3334   1.420   5.423   2.066 -0.4779  0.8335 -0.1314
  783MOL0     H 3335   1.538   5.507   1.969 -0.5009  0.7752 -0.1402
  783MOL0     H 3336   1.369   5.664   1.872 -1.3701 -1.9651 -0.9740
  783MOL0     H 3337   1.382   5.665   2.049  5.4732 -0.8246 -1.8322
  783MOL0     H 3338   2.178   5.400   1.961  0.1134  2.3734  1.5669
  783MOL0     H 3339   2.409   5.432   2.031  0.8745 -1.3863 -1.4059
  783MOL0     H 3340   2.758   5.334   2.099 -0.6846 -0.6208  0.4285
  783MOL0     H 3341   2.993   5.392   2.092 -1.4542 -1.5939 -1.1176
  783MOL0     H 3342   4.513   5.375   3.483  0.0920  1.0826  1.5435
  783MOL0     H 3343   4.711   5.451   3.628 -0.9450 -0.3601 -2.6113
  783MOL0     H 3344   5.279   5.237   3.686 -1.2035  1.5493 -0.6644
  783MOL0     H 3345   5.454   5.367   3.817 -1.5955  0.0773 -3.6844
  783MOL0     H 3346   5.575   5.363   4.032  2.1966  2.4144 -2.2188
  783MOL0     H 3347   5.558   5.427   4.195 -0.2792 -2.0464  0.2783
  783MOL0     H 3348   5.595   5.589   3.937  2.0030 -1.7657 -0.4900
  783MOL0     H 3349   5.597   5.665   4.095  0.3206  2.5515 -2.8951
  783MOL0     H 3350   5.811   5.659   4.042  0.2481 -0.6894  1.0021
  783MOL0     H 3351   5.795   5.517   3.936 -3.2832 -0.0353 -1.8978
  783MOL0     H 3352   5.784   5.517   4.244  0.5948  0.7989  0.2796
  783MOL0     H 3353   5.825   5.386   4.143 -0.4564 -0.1054 -3.4121
  783MOL0     H 3354   6.202   5.604   4.188 -0.0682 -1.3944 -0.3106
  783MOL0     H 3355   5.166   5.466   4.109 -3.0213  0.6892 -1.4874
  783MOL0     H 3356   4.984   5.369   3.968  0.2964 -1.0910  1.5794
  784MOL0     O 3357   7.773   7.588   5.885  0.4218 -0.3676 -0.1486
  784MOL0     C 3358   7.817   7.474   5.861 -0.5389  0.4463  0.0355
  784MOL0     O 3359   7.739   7.361   5.864 -0.2184 -0.2993 -0.5010
  784MOL0     C 3360   7.611   7.379   5.816 -0.1323  0.3880  0.6247
  784MOL0     C 3361   7.584   7.299   5.714  0.0115 -0.1824  0.6438
  784MOL0     C 3362   7.454   7.287   5.668  0.2237 -0.1298 -0.8032
  784MOL0     C 3363   7.348   7.364   5.719 -1.4900  0.2528  0.2632
  784MOL0     O 3364   7.225   7.347   5.661  0.3423  0.5552 -0.2126
  784MOL0     C 3365   7.106   7.413   5.719 -0.4182  0.2644  0.1532
  784MOL0     C 3366   6.981   7.345   5.644 -0.9858  0.2491 -1.0226
  784MOL0     C 3367   6.950   7.421   5.513 -0.8874 -0.3230 -0.6925
  784MOL0     C 3368   6.832   7.371   5.436  0.3943  0.3110 -0.1899
  784MOL0     C 3369   6.700   7.439   5.476 -0.7669  0.5395  0.3482
  784MOL0     C 3370   6.590   7.348   5.410 -0.1963 -0.4215  0.1862
  784MOL0     C 3371   6.461   7.437   5.440  0.3873  0.1590  0.3313
  784MOL0     C 3372   6.331   7.381   5.378  0.0310  0.9137  0.9877
  784MOL0     N 3373   6.206   7.439   5.435  0.3387  0.3365  0.4466
  784MOL0     C 3374   6.183   7.569   5.472  0.3094 -0.0679  0.0435
  784MOL0     C 3375   6.056   7.566   5.519 -0.1679  0.8498 -0.2405
  784MOL0     C 3376   5.986   7.673   5.606  0.5464  1.3687  0.4563
  784MOL0     C 3377   5.845   7.711   5.550  0.4011  0.1689  0.6148
  784MOL0     C 3378   5.730   7.646   5.627  0.0674 -0.4041  0.1504
  784MOL0     C 3379   5.595   7.699   5.581  0.8650  0.2565  0.1360
  784MOL0     O 3380   5.503   7.647   5.682  0.4319 -0.3907  0.7950
  784MOL0     C 3381   5.387   7.708   5.688 -1.1987  0.2576 -0.1374
  784MOL0     C 3382   5.312   7.684   5.805 -0.2985  0.2523 -1.0059
  784MOL0     C 3383   5.184   7.724   5.810  0.2961  0.2956 -0.3494
  784MOL0     C 3384   5.123   7.796   5.698 -0.3241  0.1965 -0.1302
  784MOL0     C 3385   4.980   7.827   5.711 -0.4410 -0.2317 -0.2759
  784MOL0     O 3386   4.911   7.844   5.590 -1.0081 -0.8434  0.9242
  784MOL0     C 3387   4.779   7.867   5.584 -0.1785 -0.3857 -0.1481
  784MOL0     C 3388   4.716   7.859   5.456 -0.4797 -0.3988  0.6410
  784MOL0     C 3389   4.577   7.866   5.440  0.3719  0.7267  0.4306
  784MOL0     C 3390   4.498   7.902   5.546  0.0290  1.1698  0.3425
  784MOL0     O 3391   4.362   7.911   5.520 -0.0773  0.1583  0.0561
  784MOL0     C 3392   4.271   7.934   5.627  0.1696 -0.0798 -0.1760
  784MOL0     C 3393   4.127   7.902   5.586  0.1525  0.1119 -0.6237
  784MOL0     C 3394   4.014   7.989   5.648 -0.1292 -0.6197  0.1291
  784MOL0     C 3395   3.884   7.940   5.585 -0.2274 -0.1857  0.2598
  784MOL0     C 3396   3.774   7.940   5.695  0.1542 -0.1722 -0.2180
  784MOL0     C 3397   3.648   7.884   5.630 -0.5341  0.0654  0.1559
  784MOL0     C 3398   3.520   7.928   5.711 -0.6317 -0.1583 -1.0324
  784MOL0     C 3399   3.391   7.916   5.629 -0.3917 -0.3506  0.7687
  784MOL0    Cl 3400   3.249   7.958   5.728 -0.2044  0.2218  0.6664
  784MOL0     C 3401   4.558   7.930   5.669  0.8054 -0.1900 -0.0229
  784MOL0     C 3402   4.701   7.904   5.691  0.4964  0.2825 -0.2760
  784MOL0     O 3403   4.925   7.794   5.817  1.1895  0.8799 -0.6290
  784MOL0     C 3404   5.205   7.828   5.588 -0.9314  0.3427 -0.0817
  784MOL0     C 3405   5.339   7.783   5.580  0.9003 -0.2004  0.6580
  784MOL0     N 3406   6.005   7.439   5.501 -0.4835 -1.0638 -0.0462
  784MOL0     N 3407   6.095   7.365   5.454  1.2119  0.0349  0.5020
  784MOL0     C 3408   7.382   7.453   5.820  0.0105 -0.1227 -0.0139
  784MOL0     C 3409   7.512   7.457   5.872 -0.2277  0.2205  0.6929
  784MOL0     C 3410   7.962   7.447   5.854  0.9957 -0.7338 -0.0201
  784MOL0     C 3411   8.049   7.555   5.877 -0.3737  0.2056  0.3384
  784MOL0     C 3412   8.192   7.522   5.865 -0.4740 -0.1093 -0.6759
  784MOL0     C 3413   8.245   7.398   5.832 -0.2792 -0.0525 -0.1589
  784MOL0     O 3414   8.382   7.354   5.813 -0.5868  0.0340 -0.3230
  784MOL0     C 3415   8.471   7.471   5.808 -0.6181 -0.5111 -0.5168
  784MOL0     C 3416   8.605   7.419   5.766  0.1892  0.4102  0.1003
  784MOL0     C 3417   8.720   7.513   5.765 -0.0308  0.0011 -0.4588
  784MOL0     C 3418   8.855   7.452   5.720  1.2085  0.2636  0.6382
  784MOL0     C 3419   8.942   7.394   5.819 -0.1310 -0.1250 -1.1208
  784MOL0     C 3420   9.005   7.341   5.910 -0.1242  0.9333  0.5448
  784MOL0     C 3421   8.149   7.299   5.809 -0.3305  0.8175 -0.7356
  784MOL0     C 3422   8.012   7.321   5.818 -0.1257  0.2240 -0.1291
  784MOL0     H 3423   7.650   7.235   5.657  0.0068  1.2153 -1.0046
  784MOL0     H 3424   7.419   7.218   5.592 -6.4298  2.3478 -0.6904
  784MOL0     H 3425   7.107   7.519   5.695 -2.3457 -0.1596 -2.1423
  784MOL0     H 3426   7.096   7.409   5.828  2.0604  3.2686  0.6120
  784MOL0     H 3427   6.901   7.343   5.718  1.7518 -2.1320  2.2369
  784MOL0     H 3428   7.011   7.240   5.631 -1.9344 -0.2444  0.4631
  784MOL0     H 3429   7.035   7.399   5.448 -0.8918 -1.2283 -0.4153
  784MOL0     H 3430   6.949   7.529   5.528  0.5259 -0.6141  2.3438
  784MOL0     H 3431   6.850   7.389   5.330  3.0319  1.5711  0.3846
  784MOL0     H 3432   6.822   7.263   5.445 -0.6756  0.2406 -1.7901
  784MOL0     H 3433   6.699   7.542   5.439 -0.9363  0.1738 -0.7153
  784MOL0     H 3434   6.697   7.435   5.585  2.1908 -1.0860  0.4920
  784MOL0     H 3435   6.585   7.249   5.456 -0.3398 -0.4777  0.0462
  784MOL0     H 3436   6.615   7.347   5.304 -0.9344 -2.0658 -0.0099
  784MOL0     H 3437   6.446   7.444   5.548  2.0710  1.6118  0.5098
  784MOL0     H 3438   6.484   7.540   5.412  0.5833  0.3103  1.0184
  784MOL0     H 3439   6.331   7.272   5.391  3.0606  0.7757  0.5390
  784MOL0     H 3440   6.329   7.393   5.269  0.9920 -0.7506  0.7455
  784MOL0     H 3441   6.255   7.650   5.475  0.0380  0.1491  1.8424
  784MOL0     H 3442   6.035   7.771   5.604 -0.7299  2.0336  0.3929
  784MOL0     H 3443   5.959   7.655   5.711 -4.8613  1.1365 -0.6648
  784MOL0     H 3444   5.830   7.679   5.446  0.1160 -1.6966  1.1884
  784MOL0     H 3445   5.843   7.820   5.552 -0.8107  0.1726  0.1287
  784MOL0     H 3446   5.744   7.538   5.616 -1.4049 -0.5224 -0.8825
  784MOL0     H 3447   5.738   7.672   5.733 -2.6456  0.0458  0.3216
  784MOL0     H 3448   5.565   7.682   5.477 -2.3441  0.2732  0.9410
  784MOL0     H 3449   5.608   7.808   5.577  0.1687  0.3091 -3.1088
  784MOL0     H 3450   5.352   7.623   5.885 -1.4308 -0.3907 -0.9168
  784MOL0     H 3451   5.122   7.709   5.898  1.0461  0.5337  0.2286
  784MOL0     H 3452   4.777   7.830   5.371  1.3837 -1.2155  2.1875
  784MOL0     H 3453   4.521   7.858   5.347 -1.1069  1.1302  1.2512
  784MOL0     H 3454   4.279   8.037   5.662  2.5748 -0.2062 -0.2136
  784MOL0     H 3455   4.290   7.866   5.710  1.2258 -0.2158 -0.5150
  784MOL0     H 3456   4.103   7.797   5.606 -1.2305  0.7334  1.2748
  784MOL0     H 3457   4.112   7.917   5.479 -2.4784 -1.1941 -0.5262
  784MOL0     H 3458   4.043   8.090   5.619 -0.3632 -0.9287 -1.2207
  784MOL0     H 3459   4.002   7.989   5.757  0.1083 -0.2065  0.1569
  784MOL0     H 3460   3.869   8.001   5.495  2.7707 -1.5984 -1.3289
  784MOL0     H 3461   3.899   7.840   5.545 -2.4096 -1.2111  1.7929
  784MOL0     H 3462   3.764   8.040   5.738 -1.7435  0.1553 -1.3008
  784MOL0     H 3463   3.794   7.871   5.778  0.3165  2.1417  1.7881
  784MOL0     H 3464   3.655   7.776   5.614  0.6685 -0.0551  1.3643
  784MOL0     H 3465   3.642   7.939   5.536 -0.9986  0.2709  0.3039
  784MOL0     H 3466   3.496   7.852   5.786 -0.6718 -1.3381 -2.2074
  784MOL0     H 3467   3.532   8.021   5.767 -0.7832  1.3697 -3.3908
  784MOL0     H 3468   3.388   7.818   5.581  2.0590  1.0510 -2.6174
  784MOL0     H 3469   3.393   8.000   5.560  1.0261  1.3795  2.7666
  784MOL0     H 3470   4.514   7.983   5.753  0.0252  2.8396 -2.1423
  784MOL0     H 3471   4.743   7.922   5.789  1.9648 -2.3139 -0.3158
  784MOL0     H 3472   5.147   7.884   5.516 -1.0339 -3.8024 -3.6609
  784MOL0     H 3473   5.394   7.807   5.489  1.2846 -3.1522 -0.0026
  784MOL0     H 3474   7.304   7.513   5.867 -0.1115 -0.2772 -0.0164
  784MOL0     H 3475   7.541   7.518   5.957 -1.3046  0.5528  0.8353
  784MOL0     H 3476   8.026   7.660   5.892  0.8930  0.9281 -2.2425
  784MOL0     H 3477   8.260   7.602   5.894  0.6238 -1.3752  0.3380
  784MOL0     H 3478   8.483   7.527   5.901 -3.8837  0.7435 -0.7190
  784MOL0     H 3479   8.428   7.534   5.730  1.2477  0.4266 -0.8331
  784MOL0     H 3480   8.623   7.337   5.836 -1.1355  0.4447  0.4932
  784MOL0     H 3481   8.586   7.381   5.665 -2.2890 -0.0803  0.6824
  784MOL0     H 3482   8.738   7.548   5.867  0.3237  3.6323 -1.6110
  784MOL0     H 3483   8.695   7.603   5.707 -1.1624  0.1985  0.3114
  784MOL0     H 3484   8.837   7.373   5.646  0.2966  0.6445  0.4407
  784MOL0     H 3485   8.897   7.528   5.654 -0.6126 -0.8486 -1.9902
  784MOL0     H 3486   9.042   7.291   5.997  0.5504  2.3380  1.0947
  784MOL0     H 3487   8.183   7.198   5.790 -1.0610 -0.1760  2.5361
  784MOL0     H 3488   7.951   7.234   5.793  0.7293 -0.5609  0.4678
  785MOL0     O 3489   4.355   5.636   0.655  0.1220 -0.1013  1.2742
  785MOL0     C 3490   4.457   5.573   0.643 -0.7372 -0.4189  0.1811
  785MOL0     O 3491   4.469   5.443   0.620  0.2876  0.3200 -0.3178
  785MOL0     C 3492   4.374   5.369   0.580 -0.5722 -0.5021 -0.3579
  785MOL0     C 3493   4.273   5.407   0.493 -0.1767  0.6312  0.5516
  785MOL0     C 3494   4.178   5.310   0.456 -0.3699 -0.2327 -0.2906
  785MOL0     C 3495   4.184   5.174   0.495 -0.4227  0.1076  0.7752
  785MOL0     O 3496   4.104   5.079   0.440  0.3418 -0.1764 -0.3275
  785MOL0     C 3497   4.089   4.954   0.503 -0.9088  0.2007  0.0331
  785MOL0     C 3498   3.962   4.868   0.465  0.4001  0.1225 -0.6727
  785MOL0     C 3499   3.950   4.839   0.318 -0.2131 -0.4888 -1.5838
  785MOL0     C 3500   4.038   4.730   0.261 -0.4956  0.7305 -0.1936
  785MOL0     C 3501   4.023   4.729   0.108  0.2375 -0.2845 -0.5463
  785MOL0     C 3502   3.885   4.725   0.039 -0.0598  0.1868  0.5189
  785MOL0     C 3503   3.890   4.743  -0.113 -0.9248 -0.0287  0.3015
  785MOL0     C 3504   3.759   4.787  -0.184  1.0505  0.3213 -0.5484
  785MOL0     N 3505   3.663   4.672  -0.195 -0.3078  0.5621  0.1325
  785MOL0     C 3506   3.673   4.562  -0.277  0.6402  0.3524 -0.1940
  785MOL0     C 3507   3.549   4.506  -0.276  0.8277  0.5716 -0.6208
  785MOL0     C 3508   3.522   4.368  -0.317 -0.2425  0.1639  0.2395
  785MOL0     C 3509   3.509   4.353  -0.472 -0.1353 -0.0023 -0.3133
  785MOL0     C 3510   3.397   4.437  -0.541  0.1806  0.2313  0.3301
  785MOL0     C 3511   3.262   4.397  -0.499  0.6209 -0.2277 -0.5799
  785MOL0     O 3512   3.238   4.262  -0.548 -0.4876  0.5638  0.5152
  785MOL0     C 3513   3.129   4.240  -0.634  0.2993 -0.1318  0.0749
  785MOL0     C 3514   3.081   4.337  -0.721 -0.4947 -0.0414 -0.4305
  785MOL0     C 3515   2.971   4.305  -0.794 -0.0372 -0.0689 -0.1491
  785MOL0     C 3516   2.913   4.173  -0.785  1.0773  0.1835 -0.0501
  785MOL0     C 3517   2.789   4.137  -0.861 -0.9463  0.3485 -0.2578
  785MOL0     O 3518   2.708   4.049  -0.799 -0.1802 -0.7990 -0.3231
  785MOL0     C 3519   2.574   4.047  -0.808  0.0327 -0.3365  0.0787
  785MOL0     C 3520   2.506   3.930  -0.780 -0.0033  0.4435 -0.1891
  785MOL0     C 3521   2.371   3.919  -0.794  0.8441 -0.3532  0.0524
  785MOL0     C 3522   2.293   4.025  -0.849 -0.1785  0.0729  0.1908
  785MOL0     O 3523   2.166   3.991  -0.870  0.1613  0.6112  0.2006
  785MOL0     C 3524   2.080   4.094  -0.916  0.7157 -0.5393 -0.2739
  785MOL0     C 3525   1.940   4.043  -0.909 -0.1461 -0.2462  0.5985
  785MOL0     C 3526   1.842   4.151  -0.948 -0.5415  1.1135  0.5966
  785MOL0     C 3527   1.692   4.114  -0.957 -0.1910  0.0299  0.0751
  785MOL0     C 3528   1.677   3.984  -1.041 -0.2956 -0.2388 -0.8125
  785MOL0     C 3529   1.529   3.960  -1.082  0.9913  0.0382  0.2400
  785MOL0     C 3530   1.511   3.831  -1.153  0.1083 -0.1264  0.3612
  785MOL0     C 3531   1.387   3.756  -1.110 -0.0741  0.0872  0.0761
  785MOL0    Cl 3532   1.264   3.825  -1.212  0.7283 -0.2181 -0.0194
  785MOL0     C 3533   2.362   4.150  -0.866  0.1831 -0.2448  0.5987
  785MOL0     C 3534   2.500   4.158  -0.849 -0.2355  0.0790 -0.1843
  785MOL0     O 3535   2.773   4.177  -0.977  0.4153  0.1726 -0.7591
  785MOL0     C 3536   2.958   4.078  -0.687 -1.0082 -0.2824  0.0336
  785MOL0     C 3537   3.071   4.114  -0.619  0.0752 -0.7234  0.6711
  785MOL0     N 3538   3.465   4.580  -0.198  0.1699 -0.7452 -0.0058
  785MOL0     N 3539   3.539   4.673  -0.140  0.6995 -0.5045 -0.6807
  785MOL0     C 3540   4.277   5.142   0.601  0.6402 -0.8462 -0.2510
  785MOL0     C 3541   4.368   5.238   0.637 -0.7219 -0.8583 -1.1234
  785MOL0     C 3542   4.582   5.648   0.677 -0.8603  0.7391  1.0121
  785MOL0     C 3543   4.699   5.577   0.694 -0.3571 -0.1443 -0.2373
  785MOL0     C 3544   4.826   5.633   0.710  0.4029  0.7255 -0.5404
  785MOL0     C 3545   4.836   5.774   0.716  0.2086  0.1482 -0.0286
  785MOL0     O 3546   4.959   5.831   0.718 -0.7351 -0.0960 -0.0522
  785MOL0     C 3547   4.985   5.970   0.702 -0.1374 -0.2833  0.1855
  785MOL0     C 3548   5.131   5.995   0.744 -0.0962  0.1328  0.0650
  785MOL0     C 3549   5.154   6.156   0.736 -0.0108  0.4886  0.9044
  785MOL0     C 3550   5.290   6.179   0.784 -0.3120 -0.5656  0.7257
  785MOL0     C 3551   5.374   6.283   0.720 -0.1917 -0.0542  0.7668
  785MOL0     C 3552   5.428   6.385   0.694 -0.2618 -0.1275 -0.9617
  785MOL0     C 3553   4.717   5.843   0.712  0.1008 -0.0909  0.3087
  785MOL0     C 3554   4.590   5.784   0.694 -0.0771 -0.0590  0.2618
  785MOL0     H 3555   4.262   5.502   0.442  1.2179  0.2302 -0.5604
  785MOL0     H 3556   4.121   5.344   0.369 -2.4101 -2.6005 -0.0071
  785MOL0     H 3557   4.098   4.965   0.611  2.5411 -0.0242 -0.1393
  785MOL0     H 3558   4.175   4.900   0.463 -2.2489 -2.2780  0.3162
  785MOL0     H 3559   3.879   4.930   0.500  1.3352  1.0601 -0.0388
  785MOL0     H 3560   3.974   4.782   0.531  2.8317  1.5241  0.8902
  785MOL0     H 3561   3.969   4.933   0.265 -0.8770  0.1906 -0.6377
  785MOL0     H 3562   3.842   4.823   0.306 -1.1354  1.2523  2.6113
  785MOL0     H 3563   4.142   4.737   0.292 -1.1542  0.1169  2.4073
  785MOL0     H 3564   3.995   4.634   0.292  1.2379 -1.4566 -3.8563
  785MOL0     H 3565   4.077   4.640   0.076 -0.1001 -0.7407  0.1205
  785MOL0     H 3566   4.076   4.818   0.073 -0.4202  0.3644  0.0541
  785MOL0     H 3567   3.816   4.790   0.094 -0.9351  0.5877 -1.0074
  785MOL0     H 3568   3.850   4.621   0.047 -1.6122  0.2525 -3.3727
  785MOL0     H 3569   3.969   4.815  -0.138  1.3323 -1.9004  1.6764
  785MOL0     H 3570   3.932   4.654  -0.162  0.3810  1.9128 -2.3960
  785MOL0     H 3571   3.782   4.827  -0.283  0.4509 -0.6103 -1.0736
  785MOL0     H 3572   3.720   4.874  -0.130  3.0357  0.8982  0.0591
  785MOL0     H 3573   3.762   4.520  -0.322  0.3257 -0.9471  0.3585
  785MOL0     H 3574   3.429   4.337  -0.268 -1.8675  0.3907 -2.5085
  785MOL0     H 3575   3.605   4.299  -0.299 -1.0334 -1.0147 -0.4964
  785MOL0     H 3576   3.481   4.249  -0.491  1.5032 -0.5370  0.0271
  785MOL0     H 3577   3.603   4.378  -0.522 -1.5170  1.1206 -2.4865
  785MOL0     H 3578   3.423   4.543  -0.527 -0.5174  0.2223  1.8012
  785MOL0     H 3579   3.417   4.428  -0.648  4.0295  3.1669  0.5651
  785MOL0     H 3580   3.201   4.475  -0.546  1.0913 -0.5641 -1.8081
  785MOL0     H 3581   3.234   4.409  -0.394 -0.4780 -3.0435 -0.4645
  785MOL0     H 3582   3.140   4.427  -0.734 -1.7752  1.2770  2.1814
  785MOL0     H 3583   2.925   4.368  -0.869 -0.6791  1.8317  1.7526
  785MOL0     H 3584   2.557   3.841  -0.745 -0.6366  0.3891  0.6268
  785MOL0     H 3585   2.321   3.825  -0.774  0.7604  0.0203  1.7993
  785MOL0     H 3586   2.108   4.149  -1.007  0.0252  0.4535  0.0959
  785MOL0     H 3587   2.087   4.175  -0.842  2.7440 -1.1137  0.2385
  785MOL0     H 3588   1.932   4.020  -0.803  2.8826 -0.2963  0.8913
  785MOL0     H 3589   1.932   3.948  -0.963  1.1715  1.3406 -2.6380
  785MOL0     H 3590   1.877   4.190  -1.044  0.0423  4.3244  1.9723
  785MOL0     H 3591   1.852   4.228  -0.870  1.4068 -0.1535  1.6817
  785MOL0     H 3592   1.643   4.103  -0.860 -2.2543 -1.7639 -1.0667
  785MOL0     H 3593   1.647   4.191  -1.019  1.6922  1.1208  0.0062
  785MOL0     H 3594   1.716   3.899  -0.983 -5.2161 -0.3724  2.9283
  785MOL0     H 3595   1.741   3.997  -1.129 -0.2380 -0.8290 -0.8652
  785MOL0     H 3596   1.487   4.045  -1.136  0.2573 -0.3227  0.2321
  785MOL0     H 3597   1.463   3.960  -0.994  0.9125  2.0368  0.2291
  785MOL0     H 3598   1.503   3.848  -1.261 -1.5617  1.8508  0.7300
  785MOL0     H 3599   1.593   3.767  -1.120  0.8864  0.5994 -0.1141
  785MOL0     H 3600   1.358   3.760  -1.005  0.6814 -2.6216  0.4707
  785MOL0     H 3601   1.386   3.651  -1.142 -1.5391  0.4870 -1.3555
  785MOL0     H 3602   2.307   4.232  -0.912  2.6136  0.9169 -0.4268
  785MOL0     H 3603   2.546   4.253  -0.873 -1.7041  1.5506  2.3414
  785MOL0     H 3604   2.915   3.978  -0.685 -1.1923 -0.3740 -2.9772
  785MOL0     H 3605   3.136   4.054  -0.557  2.3938 -0.1966 -1.0997
  785MOL0     H 3606   4.295   5.052   0.659  1.4547  0.3107  1.3421
  785MOL0     H 3607   4.443   5.214   0.713 -1.0602 -1.0489 -0.8435
  785MOL0     H 3608   4.695   5.468   0.694 -0.4946 -0.1479  0.9212
  785MOL0     H 3609   4.918   5.578   0.725  1.0870  1.4333 -1.9646
  785MOL0     H 3610   4.911   6.029   0.757  0.2480 -1.7928  2.4518
  785MOL0     H 3611   4.985   5.997   0.596 -0.2425  0.0681  0.2724
  785MOL0     H 3612   5.153   5.970   0.848  1.5415  3.0161  0.4876
  785MOL0     H 3613   5.204   5.943   0.681  0.4137  0.7393  0.1500
  785MOL0     H 3614   5.080   6.208   0.798 -1.0897  1.7253 -1.2959
  785MOL0     H 3615   5.139   6.199   0.637  1.9348 -2.1753 -0.6826
  785MOL0     H 3616   5.290   6.203   0.891  3.0388  1.7506  0.3422
  785MOL0     H 3617   5.346   6.087   0.768  0.5784 -0.3259  2.3066
  785MOL0     H 3618   5.475   6.480   0.679  0.0437  0.1685  1.3939
  785MOL0     H 3619   4.723   5.951   0.716 -0.5908 -0.0443  0.1247
  785MOL0     H 3620   4.504   5.850   0.689  2.5397  4.1596  3.6700
  786MOL0     O 3621  10.623   7.139   0.698 -0.0958 -0.1800 -0.2928
  786MOL0     C 3622  10.628   7.071   0.598 -0.2331  0.4978 -0.2419
  786MOL0     O 3623  10.521   7.026   0.522  0.3410 -0.1430  0.7393
  786MOL0     C 3624  10.414   7.107   0.522  0.9064  0.6683 -0.5097
  786MOL0     C 3625  10.407   7.186   0.416  0.0831 -0.4548 -0.0431
  786MOL0     C 3626  10.293   7.260   0.389 -0.0527 -1.0784 -0.3706
  786MOL0     C 3627  10.175   7.247   0.468 -0.1928 -0.2430  0.5023
  786MOL0     O 3628  10.067   7.316   0.424 -0.2319  0.0939 -0.5086
  786MOL0     C 3629  10.053   7.435   0.505  0.0740 -0.2068 -1.0151
  786MOL0     C 3630   9.976   7.546   0.439 -0.6787  0.1435 -0.2202
  786MOL0     C 3631   9.827   7.530   0.409  0.0100 -0.2935 -0.3612
  786MOL0     C 3632   9.774   7.669   0.387 -0.5221 -0.3616  0.6839
  786MOL0     C 3633   9.621   7.678   0.396  0.3754 -0.0481  0.3632
  786MOL0     C 3634   9.554   7.612   0.274  0.4909  0.0557 -0.7976
  786MOL0     C 3635   9.405   7.625   0.281 -0.4258  0.4104 -0.3499
  786MOL0     C 3636   9.350   7.605   0.137  0.8064 -0.0526 -0.3860
  786MOL0     N 3637   9.201   7.568   0.132 -0.6921  0.1070 -0.5886
  786MOL0     C 3638   9.090   7.657   0.148 -1.0115 -0.3520  0.2311
  786MOL0     C 3639   8.973   7.591   0.104 -0.2755 -0.0406 -1.3863
  786MOL0     C 3640   8.838   7.641   0.124  0.6130 -0.0555  0.7474
  786MOL0     C 3641   8.819   7.765   0.037  1.4051  0.7767  0.0246
  786MOL0     C 3642   8.668   7.808   0.008  0.6937 -0.3778  0.0583
  786MOL0     C 3643   8.577   7.795   0.125  0.0164 -0.2741 -0.6023
  786MOL0     O 3644   8.451   7.856   0.090 -0.2524 -0.2316  0.1364
  786MOL0     C 3645   8.346   7.784   0.037  0.6066  0.9984  0.5400
  786MOL0     C 3646   8.230   7.863   0.012  0.9254  0.9096  0.7354
  786MOL0     C 3647   8.110   7.802  -0.036 -0.0242  0.0986 -1.0011
  786MOL0     C 3648   8.106   7.669  -0.065  0.5660 -0.6938  0.3883
  786MOL0     C 3649   7.977   7.608  -0.116  0.0561 -0.0186  0.0168
  786MOL0     O 3650   7.867   7.697  -0.127 -0.0954  0.2554  0.3397
  786MOL0     C 3651   7.747   7.659  -0.172  0.2443  0.2634 -1.3285
  786MOL0     C 3652   7.648   7.750  -0.129 -0.8916 -0.0715 -0.1231
  786MOL0     C 3653   7.510   7.722  -0.151 -0.8454  0.4604 -0.4758
  786MOL0     C 3654   7.471   7.599  -0.202 -0.1012  0.3706 -0.5282
  786MOL0     O 3655   7.348   7.560  -0.226  0.4711 -0.5755 -0.1099
  786MOL0     C 3656   7.236   7.650  -0.244 -0.0996 -0.0789  0.7357
  786MOL0     C 3657   7.125   7.574  -0.315 -0.0063 -0.5167  0.1428
  786MOL0     C 3658   7.005   7.664  -0.357  0.0906 -0.6666 -0.5625
  786MOL0     C 3659   6.879   7.579  -0.353  1.3363  0.6737  0.2475
  786MOL0     C 3660   6.764   7.664  -0.314 -0.2358 -0.1230 -0.3933
  786MOL0     C 3661   6.642   7.584  -0.254  0.0186 -0.0945  0.2359
  786MOL0     C 3662   6.587   7.490  -0.355 -0.0103  0.2451  0.2388
  786MOL0     C 3663   6.471   7.417  -0.301 -0.5516 -0.2036  0.0235
  786MOL0    Cl 3664   6.463   7.252  -0.382  0.2978 -0.8021  0.2439
  786MOL0     C 3665   7.569   7.513  -0.245 -0.6923  0.3699 -0.0238
  786MOL0     C 3666   7.712   7.539  -0.235  0.1905  0.7479 -0.7900
  786MOL0     O 3667   7.980   7.494  -0.163 -0.5475 -0.0866 -0.1159
  786MOL0     C 3668   8.217   7.596  -0.044  0.1335 -0.1982 -0.5865
  786MOL0     C 3669   8.333   7.648   0.021 -0.9250 -0.1893  0.1405
  786MOL0     N 3670   9.012   7.464   0.077 -0.9497 -0.0042 -0.6319
  786MOL0     N 3671   9.137   7.451   0.096 -0.0344  0.4744 -0.2718
  786MOL0     C 3672  10.177   7.155   0.571  0.0639  1.2390 -0.8851
  786MOL0     C 3673  10.293   7.087   0.610  0.1391 -0.8848 -0.2448
  786MOL0     C 3674  10.755   6.983   0.601 -0.3360 -0.3404 -0.2224
  786MOL0     C 3675  10.866   7.016   0.681  0.1570  0.3311 -1.6720
  786MOL0     C 3676  10.981   6.933   0.681 -0.2789 -0.0225  0.2505
  786MOL0     C 3677  10.995   6.820   0.606 -0.7295 -0.8198 -0.8095
  786MOL0     O 3678  11.104   6.739   0.593  0.3936  0.3140 -0.1368
  786MOL0     C 3679  11.232   6.769   0.646 -0.6981 -0.5086  0.1616
  786MOL0     C 3680  11.260   6.728   0.794 -0.6076  0.4898 -0.1021
  786MOL0     C 3681  11.304   6.579   0.795 -0.1477 -1.1562  0.0513
  786MOL0     C 3682  11.447   6.569   0.759  0.8368 -1.0415 -0.2398
  786MOL0     C 3683  11.482   6.435   0.722 -0.5576  0.6401 -0.5660
  786MOL0     C 3684  11.510   6.318   0.702 -0.6561  0.5716  0.4900
  786MOL0     C 3685  10.883   6.786   0.537  0.4996 -0.3950  0.6870
  786MOL0     C 3686  10.764   6.861   0.535  0.4082  1.1781 -0.3548
  786MOL0     H 3687  10.495   7.201   0.355  0.4605 -0.1764  0.5666
  786MOL0     H 3688  10.298   7.315   0.295  1.6590  0.4465  0.5473
  786MOL0     H 3689  10.147   7.473   0.544  0.3762  0.6719 -2.5005
  786MOL0     H 3690  10.004   7.400   0.596  0.6453  2.0351  0.2112
  786MOL0     H 3691  10.021   7.580   0.345 -0.9566 -1.6652 -1.0432
  786MOL0     H 3692   9.991   7.636   0.500  0.9234  1.2327 -2.1048
  786MOL0     H 3693   9.779   7.489   0.498  1.6523 -1.8595 -0.1282
  786MOL0     H 3694   9.806   7.464   0.324 -4.4044  1.8712 -1.2300
  786MOL0     H 3695   9.822   7.749   0.444  2.3772 -1.0619 -0.5771
  786MOL0     H 3696   9.802   7.687   0.282 -0.5919  1.3775  0.9352
  786MOL0     H 3697   9.589   7.783   0.390  2.1261  0.4363 -1.6147
  786MOL0     H 3698   9.586   7.629   0.488  1.5087 -1.7903 -0.0839
  786MOL0     H 3699   9.577   7.505   0.275 -0.6115 -0.1992  0.1427
  786MOL0     H 3700   9.589   7.652   0.179  3.2093 -0.8626 -0.2726
  786MOL0     H 3701   9.360   7.554   0.352  2.3316  0.9612  2.1453
  786MOL0     H 3702   9.372   7.723   0.318  0.6949  0.5259  0.3988
  786MOL0     H 3703   9.407   7.526   0.088  1.5208  1.4292 -2.0670
  786MOL0     H 3704   9.366   7.692   0.073 -0.1358 -0.5861 -1.3692
  786MOL0     H 3705   9.096   7.758   0.188  0.4683 -0.0952 -0.5574
  786MOL0     H 3706   8.817   7.662   0.230 -2.9999 -0.8460  0.2985
  786MOL0     H 3707   8.770   7.557   0.105 -0.4371  0.6456  1.3172
  786MOL0     H 3708   8.860   7.745  -0.063  1.4376  0.6121  0.0702
  786MOL0     H 3709   8.876   7.853   0.068  0.7115  1.0402  0.5739
  786MOL0     H 3710   8.667   7.912  -0.027 -0.0240 -0.9230 -1.6408
  786MOL0     H 3711   8.626   7.734  -0.061  0.9411  1.2744 -1.9578
  786MOL0     H 3712   8.622   7.835   0.216 -1.3719  2.5210 -1.0485
  786MOL0     H 3713   8.566   7.689   0.152  0.3517 -0.1967 -0.1666
  786MOL0     H 3714   8.241   7.966   0.046  2.1215  0.9387  0.3267
  786MOL0     H 3715   8.025   7.870  -0.044  0.5807  1.1321  0.8014
  786MOL0     H 3716   7.684   7.835  -0.072  1.8837 -0.6135 -0.9143
  786MOL0     H 3717   7.433   7.796  -0.136 -0.0172  1.6458 -1.7944
  786MOL0     H 3718   7.273   7.737  -0.299 -0.9439 -0.0664  0.1621
  786MOL0     H 3719   7.197   7.685  -0.148  0.7723 -0.8872  1.4048
  786MOL0     H 3720   7.107   7.493  -0.244 -1.3419 -0.0704  0.3307
  786MOL0     H 3721   7.160   7.524  -0.406 -1.8082 -2.8827  0.6714
  786MOL0     H 3722   7.019   7.706  -0.457  4.1755  2.9776  1.2118
  786MOL0     H 3723   7.007   7.748  -0.287 -3.0000  0.0430 -1.1752
  786MOL0     H 3724   6.863   7.522  -0.445  1.8183  3.1416 -1.4583
  786MOL0     H 3725   6.890   7.502  -0.277 -0.2928  1.6976  1.5793
  786MOL0     H 3726   6.744   7.722  -0.405 -2.8642 -0.5923 -0.1923
  786MOL0     H 3727   6.792   7.736  -0.237  0.2798  0.3424 -1.0072
  786MOL0     H 3728   6.566   7.657  -0.223 -0.9825 -1.6855  1.6926
  786MOL0     H 3729   6.672   7.527  -0.166 -3.1709 -1.8279  0.3490
  786MOL0     H 3730   6.565   7.539  -0.450  1.8361  0.9002  0.1087
  786MOL0     H 3731   6.661   7.415  -0.385 -0.2264  1.3115 -3.4551
  786MOL0     H 3732   6.383   7.480  -0.316  0.1362  0.4248 -1.6264
  786MOL0     H 3733   6.471   7.399  -0.193  4.5760  0.8540  0.4394
  786MOL0     H 3734   7.537   7.417  -0.283 -0.6237  0.3109  0.0657
  786MOL0     H 3735   7.775   7.452  -0.250  1.9131  2.0512 -1.5550
  786MOL0     H 3736   8.204   7.492  -0.070 -1.9108 -0.4119  1.0766
  786MOL0     H 3737   8.411   7.574   0.038 -0.5179  0.4329  1.0606
  786MOL0     H 3738  10.081   7.116   0.604  0.4958 -0.2068 -1.2319
  786MOL0     H 3739  10.289   7.017   0.693 -0.8614  2.6523  2.9436
  786MOL0     H 3740  10.859   7.094   0.756 -1.0602  0.2106 -1.6407
  786MOL0     H 3741  11.060   6.948   0.754  3.5288  0.5635 -3.5368
  786MOL0     H 3742  11.248   6.877   0.635 -2.5273 -0.4087 -2.5735
  786MOL0     H 3743  11.305   6.728   0.576  0.0662  1.1835 -0.0868
  786MOL0     H 3744  11.340   6.787   0.839 -1.1223  0.4533  0.8998
  786MOL0     H 3745  11.169   6.755   0.848 -0.5183  0.9312 -0.1641
  786MOL0     H 3746  11.240   6.521   0.727  0.3359 -1.5634 -0.0640
  786MOL0     H 3747  11.291   6.542   0.897 -1.0963 -1.4183 -0.1437
  786MOL0     H 3748  11.470   6.636   0.675 -0.2639 -0.0152  0.2522
  786MOL0     H 3749  11.499   6.595   0.852 -0.6258 -0.0082  0.3172
  786MOL0     H 3750  11.539   6.217   0.682  1.0129  1.7037 -4.2210
  786MOL0     H 3751  10.885   6.698   0.473  3.0940  0.9474 -1.2482
  786MOL0     H 3752  10.687   6.835   0.463  0.9573 -0.2251 -0.4541
  787MOL0     O 3753   5.832   0.876   1.263 -0.4137 -1.1077 -0.2523
  787MOL0     C 3754   5.903   0.919   1.173  0.2008  0.4583 -0.5501
  787MOL0     O 3755   5.867   0.913   1.039 -0.5507 -0.3281 -0.4259
  787MOL0     C 3756   5.724   0.923   1.021 -1.2188 -0.4173 -0.0906
  787MOL0     C 3757   5.666   1.048   1.035  0.6970  0.6428  1.6804
  787MOL0     C 3758   5.534   1.052   1.004  0.5988 -0.1355 -0.7056
  787MOL0     C 3759   5.456   0.942   0.961  0.8035 -0.3578 -0.2329
  787MOL0     O 3760   5.321   0.967   0.949 -0.1148 -0.2083 -0.3596
  787MOL0     C 3761   5.260   0.888   0.848  0.6832 -0.2138  0.4236
  787MOL0     C 3762   5.126   0.963   0.825 -1.1209  0.2389  0.4465
  787MOL0     C 3763   5.023   0.933   0.925  0.5439 -0.2514  0.3225
  787MOL0     C 3764   4.891   1.015   0.911  0.1665 -0.7519 -0.5719
  787MOL0     C 3765   4.782   0.968   1.005  0.3462 -0.1241  0.8613
  787MOL0     C 3766   4.677   1.079   1.022 -0.6536  0.2738 -0.5404
  787MOL0     C 3767   4.561   1.040   1.112 -0.7115 -0.2332 -0.1661
  787MOL0     C 3768   4.547   1.144   1.233 -0.4383  0.7471  0.1461
  787MOL0     N 3769   4.419   1.110   1.298 -0.1295 -0.5021  0.4765
  787MOL0     C 3770   4.297   1.139   1.245  0.6256  0.6549  0.3129
  787MOL0     C 3771   4.205   1.092   1.340 -0.3835  0.5328  0.8596
  787MOL0     C 3772   4.061   1.093   1.324  0.5545 -0.1648 -0.0740
  787MOL0     C 3773   4.015   1.245   1.333  0.1669 -0.5336  0.2659
  787MOL0     C 3774   3.861   1.253   1.336  0.1501 -0.6312  0.3902
  787MOL0     C 3775   3.821   1.255   1.488 -0.0999  0.3474 -0.0783
  787MOL0     O 3776   3.883   1.373   1.556  0.2975 -0.2549 -0.2645
  787MOL0     C 3777   3.793   1.477   1.582 -0.1529 -0.0140 -0.7281
  787MOL0     C 3778   3.750   1.572   1.490 -0.0633  0.2665  0.1560
  787MOL0     C 3779   3.662   1.670   1.524  0.2795  0.6719 -0.6406
  787MOL0     C 3780   3.620   1.676   1.659 -0.5955  0.2560  0.2108
  787MOL0     C 3781   3.532   1.784   1.696 -0.0279  0.6979  1.2973
  787MOL0     O 3782   3.494   1.872   1.589 -0.3967  0.3825  0.0297
  787MOL0     C 3783   3.444   1.991   1.636 -0.1132  0.0822 -0.1473
  787MOL0     C 3784   3.531   2.077   1.697  0.1447  0.3685 -0.4221
  787MOL0     C 3785   3.497   2.212   1.737  0.3227  0.2265 -0.1076
  787MOL0     C 3786   3.376   2.262   1.710  0.1566  0.1128  0.2686
  787MOL0     O 3787   3.360   2.391   1.725  0.1624  0.6902  0.4181
  787MOL0     C 3788   3.230   2.438   1.759 -0.2263  0.1708  0.0405
  787MOL0     C 3789   3.224   2.584   1.813 -0.1112 -0.8960  0.3779
  787MOL0     C 3790   3.075   2.628   1.827  0.9966 -0.0767 -0.1708
  787MOL0     C 3791   3.000   2.575   1.961 -1.1751 -0.5318  0.7380
  787MOL0     C 3792   2.853   2.577   1.946  0.8415 -0.0183 -0.0045
  787MOL0     C 3793   2.785   2.714   1.966 -0.7612  0.5476 -0.3212
  787MOL0     C 3794   2.633   2.725   1.930 -0.4034 -0.3598 -0.1687
  787MOL0     C 3795   2.549   2.648   2.036 -0.0514  0.7499 -0.1377
  787MOL0    Cl 3796   2.378   2.679   1.999 -0.1375  0.0671 -0.4629
  787MOL0     C 3797   3.286   2.176   1.644 -0.4033  0.2435 -0.1036
  787MOL0     C 3798   3.313   2.042   1.609 -0.2456 -0.1996 -0.3162
  787MOL0     O 3799   3.521   1.802   1.816  0.6992  0.6666 -0.6470
  787MOL0     C 3800   3.673   1.590   1.757 -0.3063  0.3638  0.7699
  787MOL0     C 3801   3.764   1.487   1.715  1.1292 -0.2152 -1.0004
  787MOL0     N 3802   4.282   1.015   1.432  0.6444  0.3307  0.0261
  787MOL0     N 3803   4.405   1.032   1.411  0.7119  0.0336 -0.3003
  787MOL0     C 3804   5.526   0.824   0.938  0.6315  0.0981 -0.3739
  787MOL0     C 3805   5.660   0.806   0.969 -0.2282  0.4177  0.4850
  787MOL0     C 3806   6.028   0.995   1.203  0.2673  0.2659  0.6304
  787MOL0     C 3807   6.049   1.053   1.334  0.0560 -0.2549  0.3274
  787MOL0     C 3808   6.161   1.127   1.363  0.4036 -0.0953 -0.1833
  787MOL0     C 3809   6.253   1.163   1.262 -0.3040  1.1593  0.2137
  787MOL0     O 3810   6.366   1.236   1.272  0.0303  0.0401 -0.0925
  787MOL0     C 3811   6.371   1.327   1.386  0.2736  0.0237  0.7174
  787MOL0     C 3812   6.505   1.399   1.397 -0.2629 -0.6722  0.6846
  787MOL0     C 3813   6.620   1.300   1.380 -0.1374 -0.5426 -0.4051
  787MOL0     C 3814   6.699   1.319   1.249 -0.1064  0.4285 -0.1250
  787MOL0     C 3815   6.832   1.259   1.266 -0.3833 -0.7763 -0.8998
  787MOL0     C 3816   6.941   1.210   1.274 -0.5077  0.4691 -0.6328
  787MOL0     C 3817   6.236   1.113   1.133 -0.2844 -0.3624 -0.5870
  787MOL0     C 3818   6.129   1.026   1.105 -0.4074  0.0392  0.1192
  787MOL0     H 3819   5.723   1.134   1.069  2.0018  1.4742 -2.0665
  787MOL0     H 3820   5.488   1.149   1.018 -0.7902 -0.8812  0.1840
  787MOL0     H 3821   5.248   0.782   0.872  0.7188 -0.2009  0.4990
  787MOL0     H 3822   5.323   0.893   0.759  2.2472 -2.2116  1.3521
  787MOL0     H 3823   5.083   0.925   0.732  0.8644  0.0070 -0.4214
  787MOL0     H 3824   5.152   1.069   0.811  2.2071 -0.7389 -2.4451
  787MOL0     H 3825   5.057   0.953   1.027 -2.0230 -1.8249  1.6025
  787MOL0     H 3826   5.016   0.824   0.929  1.7801 -0.3790 -0.4236
  787MOL0     H 3827   4.912   1.120   0.933 -3.1536 -0.0110 -0.3639
  787MOL0     H 3828   4.860   1.005   0.806  0.6934  0.3887 -0.8492
  787MOL0     H 3829   4.822   0.944   1.104 -0.8104  1.9707  1.9138
  787MOL0     H 3830   4.740   0.880   0.957 -0.3506  0.4079  0.4768
  787MOL0     H 3831   4.632   1.108   0.926 -1.2991  1.1348  0.0172
  787MOL0     H 3832   4.733   1.161   1.067 -1.2072 -1.1401  3.0493
  787MOL0     H 3833   4.470   1.040   1.050 -0.1493 -1.8026 -1.0461
  787MOL0     H 3834   4.583   0.943   1.157  0.4540 -0.7342 -1.7271
  787MOL0     H 3835   4.535   1.241   1.184  0.1281  0.9790  0.4494
  787MOL0     H 3836   4.631   1.134   1.303 -0.8953 -0.9891  0.4929
  787MOL0     H 3837   4.277   1.206   1.162  2.0606 -0.1542 -0.7217
  787MOL0     H 3838   4.007   1.027   1.393 -1.9402  0.1380 -1.6073
  787MOL0     H 3839   4.048   1.058   1.221 -2.6704  0.2759  0.0823
  787MOL0     H 3840   4.042   1.302   1.243 -0.2934 -3.0020 -1.5184
  787MOL0     H 3841   4.064   1.301   1.413  0.0032  1.3330 -0.8594
  787MOL0     H 3842   3.825   1.344   1.286 -0.6683 -1.3769 -0.4290
  787MOL0     H 3843   3.807   1.171   1.289 -0.4708  0.2432 -0.4731
  787MOL0     H 3844   3.862   1.164   1.531  0.3741 -1.0290 -3.1460
  787MOL0     H 3845   3.713   1.269   1.493  0.0828  1.3957  2.8148
  787MOL0     H 3846   3.779   1.559   1.387  1.3238 -2.9214  0.8199
  787MOL0     H 3847   3.623   1.741   1.452  0.7535 -0.1102 -1.7052
  787MOL0     H 3848   3.633   2.043   1.711  0.1809 -0.1201 -1.7276
  787MOL0     H 3849   3.581   2.274   1.768 -1.0902  2.4174 -0.4639
  787MOL0     H 3850   3.180   2.369   1.828  0.3612 -0.5406 -0.2367
  787MOL0     H 3851   3.171   2.433   1.667 -1.1052  0.3763  0.5859
  787MOL0     H 3852   3.273   2.656   1.747 -1.3040 -0.0584  0.3668
  787MOL0     H 3853   3.269   2.591   1.913 -0.8594 -0.0564  0.6713
  787MOL0     H 3854   3.017   2.606   1.737  1.0818  2.2893 -0.8740
  787MOL0     H 3855   3.069   2.738   1.832  1.3106  0.1717 -3.1203
  787MOL0     H 3856   3.033   2.474   1.988  0.4160 -0.0718  0.6338
  787MOL0     H 3857   3.038   2.635   2.044  0.6603 -1.5919  0.7346
  787MOL0     H 3858   2.824   2.519   2.033  2.5808 -1.1293 -0.1281
  787MOL0     H 3859   2.808   2.531   1.858 -0.1515  0.9532 -0.0269
  787MOL0     H 3860   2.843   2.781   1.901  0.1038 -0.8345 -1.0102
  787MOL0     H 3861   2.816   2.748   2.066 -2.3205  0.5697  0.1804
  787MOL0     H 3862   2.604   2.830   1.935 -0.4963 -0.4386  1.5571
  787MOL0     H 3863   2.630   2.692   1.825  1.0445  1.8581 -0.9806
  787MOL0     H 3864   2.574   2.686   2.135  2.6390  0.6245 -0.6909
  787MOL0     H 3865   2.572   2.542   2.022 -0.8505  0.6380 -0.6996
  787MOL0     H 3866   3.192   2.228   1.626  0.3990  3.0366  2.7159
  787MOL0     H 3867   3.240   1.989   1.548  0.0372 -2.4442  1.1801
  787MOL0     H 3868   3.643   1.588   1.862 -2.4781 -2.3360  0.1975
  787MOL0     H 3869   3.788   1.410   1.787 -3.6675 -1.9852 -0.8835
  787MOL0     H 3870   5.480   0.732   0.902  1.0447 -0.0656 -0.4930
  787MOL0     H 3871   5.715   0.713   0.960  0.2607  0.8702 -1.8516
  787MOL0     H 3872   5.976   1.036   1.412  0.3237 -0.3884  0.5499
  787MOL0     H 3873   6.158   1.161   1.466 -1.6487 -1.1690  0.1489
  787MOL0     H 3874   6.370   1.268   1.478 -1.5875 -1.1618 -0.0196
  787MOL0     H 3875   6.286   1.394   1.394  0.7692  0.5170  2.1499
  787MOL0     H 3876   6.500   1.474   1.318  1.0746 -2.2090 -0.9237
  787MOL0     H 3877   6.503   1.453   1.492  2.4999 -1.2590  1.1741
  787MOL0     H 3878   6.583   1.198   1.389 -3.0821  0.3681 -1.0389
  787MOL0     H 3879   6.689   1.318   1.463 -1.7752 -1.5752  1.2626
  787MOL0     H 3880   6.645   1.282   1.161  0.1554 -1.4045  0.4394
  787MOL0     H 3881   6.727   1.422   1.226  1.1468 -0.2106 -1.6833
  787MOL0     H 3882   7.039   1.164   1.274 -0.6608  0.1190 -1.5633
  787MOL0     H 3883   6.297   1.131   1.045 -0.8634  2.2707 -0.5221
  787MOL0     H 3884   6.120   0.985   1.004  2.2999  0.3901 -0.3236
  788MOL0     O 3885   5.491   5.441  10.282  0.0836  0.0780 -0.6569
  788MOL0     C 3886   5.529   5.559  10.295 -1.0731 -0.1726  1.1743
  788MOL0     O 3887   5.451   5.668  10.278 -0.3911 -0.0589 -0.5588
  788MOL0     C 3888   5.315   5.648  10.261  0.3083  0.7455  0.3788
  788MOL0     C 3889   5.226   5.639  10.375 -0.1024 -0.0999  0.1273
  788MOL0     C 3890   5.084   5.623  10.352 -0.5630 -0.1362  0.3195
  788MOL0     C 3891   5.031   5.597  10.225  0.0909  0.5762  0.2904
  788MOL0     O 3892   4.898   5.583  10.212  0.9394  0.1572 -0.1558
  788MOL0     C 3893   4.842   5.619  10.088 -0.2197 -0.0146 -0.6050
  788MOL0     C 3894   4.693   5.638  10.106  0.2481 -0.5538 -0.2248
  788MOL0     C 3895   4.625   5.661   9.980 -0.1084  0.6193  0.8005
  788MOL0     C 3896   4.473   5.638   9.991  0.3572  0.0129 -0.6241
  788MOL0     C 3897   4.406   5.724   9.886  0.1391  1.0130  0.2183
  788MOL0     C 3898   4.269   5.669   9.839  0.0314  1.0830 -0.2706
  788MOL0     C 3899   4.204   5.744   9.725 -0.6250 -0.5946  0.4538
  788MOL0     C 3900   4.077   5.690   9.669  0.1851 -0.6670  0.0561
  788MOL0     N 3901   4.041   5.760   9.539  0.1066  0.4733  0.2257
  788MOL0     C 3902   3.911   5.778   9.492  0.7367 -0.4837 -0.7389
  788MOL0     C 3903   3.919   5.816   9.368  0.2705 -0.6103  0.6956
  788MOL0     C 3904   3.799   5.856   9.285  0.8413 -0.0779  0.0628
  788MOL0     C 3905   3.842   5.877   9.138 -0.0386  0.5603  0.0734
  788MOL0     C 3906   3.728   5.919   9.055  0.4595 -1.5015  0.9589
  788MOL0     C 3907   3.772   5.934   8.914  0.2110  0.4392 -0.4597
  788MOL0     O 3908   3.662   5.922   8.827  0.0268  0.5859 -0.8960
  788MOL0     C 3909   3.578   6.028   8.807 -0.2406  0.2231 -1.1798
  788MOL0     C 3910   3.472   6.043   8.900  0.6070 -0.8000  1.2776
  788MOL0     C 3911   3.375   6.140   8.877 -0.1563 -0.4329 -0.0417
  788MOL0     C 3912   3.382   6.223   8.765 -0.5872 -0.3745 -0.0366
  788MOL0     C 3913   3.278   6.326   8.742  0.0531 -1.4115 -0.1484
  788MOL0     O 3914   3.169   6.329   8.826 -0.3098  0.6221 -0.7224
  788MOL0     C 3915   3.052   6.377   8.779  0.6233 -0.7563 -0.8433
  788MOL0     C 3916   2.992   6.478   8.862  0.6646 -0.6243  0.2251
  788MOL0     C 3917   2.877   6.549   8.828  0.0051 -0.6829  0.0186
  788MOL0     C 3918   2.832   6.519   8.699  0.9965  0.5466  0.2481
  788MOL0     O 3919   2.722   6.585   8.656  0.9033  0.5540 -0.2369
  788MOL0     C 3920   2.678   6.712   8.714  0.5916  0.1192 -1.2393
  788MOL0     C 3921   2.545   6.712   8.795  0.1410  0.3331  0.0234
  788MOL0     C 3922   2.452   6.829   8.759  0.0746  0.0723  0.0190
  788MOL0     C 3923   2.307   6.804   8.805 -0.1539  1.0696  0.7791
  788MOL0     C 3924   2.227   6.926   8.757  0.2510  0.6973 -1.4694
  788MOL0     C 3925   2.084   6.902   8.805  0.2285  0.5071 -0.4425
  788MOL0     C 3926   2.006   7.030   8.781 -0.4017  1.0216 -0.2993
  788MOL0     C 3927   1.857   7.004   8.758 -0.4273 -0.7326  0.1978
  788MOL0    Cl 3928   1.775   7.074   8.908  0.1012 -0.0281 -0.4801
  788MOL0     C 3929   2.882   6.421   8.619 -0.4482 -0.1086 -0.8142
  788MOL0     C 3930   2.996   6.344   8.658 -0.1758 -0.6226 -0.1371
  788MOL0     O 3931   3.295   6.415   8.656 -0.3308  0.1658  0.5213
  788MOL0     C 3932   3.495   6.208   8.673 -0.7506 -0.2122 -0.2703
  788MOL0     C 3933   3.581   6.107   8.700 -0.5955  0.0597 -0.5119
  788MOL0     N 3934   4.054   5.829   9.337  0.0542  0.6211  0.0907
  788MOL0     N 3935   4.121   5.798   9.443 -0.0745  0.1360 -0.0995
  788MOL0     C 3936   5.128   5.596  10.114 -0.5580  0.8704  0.3355
  788MOL0     C 3937   5.264   5.620  10.136 -0.1950  0.1530  0.4631
  788MOL0     C 3938   5.679   5.590  10.306  0.4801 -0.4266  0.1670
  788MOL0     C 3939   5.732   5.711  10.273  0.1430 -0.2076 -0.0326
  788MOL0     C 3940   5.863   5.734  10.297 -0.4267  0.4129 -0.6138
  788MOL0     C 3941   5.948   5.629  10.335  0.7953 -0.6795  0.0070
  788MOL0     O 3942   6.074   5.661  10.374  0.2636 -0.2114 -0.2961
  788MOL0     C 3943   6.145   5.756  10.296 -0.2420 -0.0562  0.0911
  788MOL0     C 3944   6.293   5.760  10.318 -0.4684  1.1919 -0.4641
  788MOL0     C 3945   6.333   5.778  10.465  0.1301  0.7151  0.5174
  788MOL0     C 3946   6.279   5.902  10.539  0.0095 -0.7022 -0.1541
  788MOL0     C 3947   6.348   5.927  10.669  0.2588  0.0841  0.0469
  788MOL0     C 3948   6.424   5.922  10.768 -0.9139  0.2052  0.1803
  788MOL0     C 3949   5.893   5.502  10.358 -0.6351 -0.2454 -0.5474
  788MOL0     C 3950   5.759   5.487  10.344  0.5217 -0.4605  0.4395
  788MOL0     H 3951   5.266   5.655  10.475  1.7845 -1.2814 -0.3928
  788MOL0     H 3952   5.010   5.619  10.432 -0.9455  2.1261  0.1477
  788MOL0     H 3953   4.865   5.538  10.018  1.2545 -1.2800  1.2187
  788MOL0     H 3954   4.882   5.717  10.059  2.0578 -0.9156 -0.7742
  788MOL0     H 3955   4.678   5.722  10.175  2.0940  1.1375 -1.7749
  788MOL0     H 3956   4.671   5.543  10.155  1.6615 -0.4878  0.5965
  788MOL0     H 3957   4.654   5.591   9.901 -3.0110 -2.7560  2.4358
  788MOL0     H 3958   4.658   5.760   9.949 -0.2026  0.3469 -0.2400
  788MOL0     H 3959   4.452   5.532   9.971  0.3291 -0.1167  0.0780
  788MOL0     H 3960   4.438   5.679  10.086 -0.5187  1.8659 -1.6719
  788MOL0     H 3961   4.472   5.727   9.799  0.6596 -0.0080  0.5658
  788MOL0     H 3962   4.380   5.819   9.933 -0.4897 -0.6240  3.4537
  788MOL0     H 3963   4.197   5.665   9.922  0.6796 -1.1154  0.2587
  788MOL0     H 3964   4.276   5.566   9.803  0.2337  0.8685  0.3699
  788MOL0     H 3965   4.187   5.849   9.752 -0.5601 -1.1415  2.8843
  788MOL0     H 3966   4.279   5.745   9.646  0.3414  1.5409  1.2917
  788MOL0     H 3967   3.999   5.712   9.742  1.2524  0.4373  0.9053
  788MOL0     H 3968   4.088   5.581   9.669  2.0034 -0.5571  2.2076
  788MOL0     H 3969   3.814   5.770   9.539  0.9175 -3.3004 -0.6672
  788MOL0     H 3970   3.755   5.945   9.331  0.6749 -0.2291  0.1985
  788MOL0     H 3971   3.727   5.774   9.296  0.9624 -0.1096  0.6644
  788MOL0     H 3972   3.886   5.783   9.103 -1.4689 -0.6500  1.4056
  788MOL0     H 3973   3.924   5.950   9.140  1.7254 -1.3411  0.3472
  788MOL0     H 3974   3.654   5.838   9.050 -1.0105 -0.1870  0.4536
  788MOL0     H 3975   3.695   6.018   9.089  4.1774  0.1661  0.2247
  788MOL0     H 3976   3.848   5.860   8.887  1.4357  1.9282 -1.2428
  788MOL0     H 3977   3.819   6.032   8.907 -2.9724  2.0817 -0.8171
  788MOL0     H 3978   3.470   5.980   8.989  0.7538 -2.4694  0.1487
  788MOL0     H 3979   3.306   6.164   8.957 -0.6078  1.5120 -0.9662
  788MOL0     H 3980   3.051   6.496   8.951  1.1346  1.9986 -0.5347
  788MOL0     H 3981   2.837   6.618   8.902  2.6045  0.0281  0.8758
  788MOL0     H 3982   2.669   6.788   8.636  2.8471  0.0260 -1.6375
  788MOL0     H 3983   2.754   6.760   8.777  0.7419 -2.0891  0.3838
  788MOL0     H 3984   2.566   6.717   8.903 -0.7588 -1.4404  0.3172
  788MOL0     H 3985   2.500   6.613   8.781  3.2780 -0.9154 -2.3139
  788MOL0     H 3986   2.435   6.832   8.651  0.5718  1.1837 -0.0400
  788MOL0     H 3987   2.487   6.925   8.799 -1.8163 -0.7818  4.3076
  788MOL0     H 3988   2.270   6.710   8.763 -2.5613  2.0202  0.5627
  788MOL0     H 3989   2.312   6.790   8.914  0.9573 -0.1914  0.5910
  788MOL0     H 3990   2.226   6.926   8.648  2.6902 -1.3082 -1.5780
  788MOL0     H 3991   2.267   7.019   8.799  2.7361 -1.2495  0.7899
  788MOL0     H 3992   2.059   6.876   8.908 -1.2040  1.9709 -0.3733
  788MOL0     H 3993   2.046   6.826   8.736  1.3499 -0.0390 -0.4745
  788MOL0     H 3994   2.014   7.108   8.857 -3.0283  0.9553  0.1651
  788MOL0     H 3995   2.054   7.086   8.701  1.2211  4.0791  2.5913
  788MOL0     H 3996   1.824   6.902   8.738 -1.5745 -0.3060 -0.2234
  788MOL0     H 3997   1.805   7.055   8.676  0.1391 -3.5234 -2.0439
  788MOL0     H 3998   2.830   6.401   8.526 -1.4060 -1.2281 -0.0557
  788MOL0     H 3999   3.033   6.275   8.583 -0.1156 -0.3489 -0.3609
  788MOL0     H 4000   3.509   6.275   8.589 -2.7946  3.8162  2.2459
  788MOL0     H 4001   3.663   6.091   8.630 -2.7433 -0.6881 -3.0482
  788MOL0     H 4002   5.082   5.591  10.016 -0.4918  1.1256  0.2900
  788MOL0     H 4003   5.323   5.630  10.046 -1.7650 -1.3978 -0.7933
  788MOL0     H 4004   5.677   5.801  10.244  0.0478 -0.6840 -1.4256
  788MOL0     H 4005   5.897   5.836  10.283 -0.0953 -0.0136 -3.3597
  788MOL0     H 4006   6.116   5.860  10.312 -1.0320 -0.1744 -0.4903
  788MOL0     H 4007   6.125   5.742  10.189 -0.1493 -1.8128  0.2801
  788MOL0     H 4008   6.333   5.664  10.286 -1.0949  0.7717 -0.0045
  788MOL0     H 4009   6.336   5.842  10.259  3.1704 -0.3534 -0.1908
  788MOL0     H 4010   6.442   5.785  10.461  0.1327  0.7702  0.7251
  788MOL0     H 4011   6.308   5.684  10.514 -0.6461  0.4968 -0.2686
  788MOL0     H 4012   6.295   5.994  10.481 -3.1025  0.3998  0.5303
  788MOL0     H 4013   6.174   5.887  10.565 -0.4712  2.4882  0.1344
  788MOL0     H 4014   6.489   5.932  10.852  0.0157 -2.4235 -0.1156
  788MOL0     H 4015   5.965   5.429  10.393  1.7885  0.7327 -3.1244
  788MOL0     H 4016   5.718   5.388  10.362  0.8359 -0.7571 -0.3953
  789MOL0     O 4017   3.766  11.123   9.060 -0.1905  0.4339 -0.8760
  789MOL0     C 4018   3.864  11.054   9.022  0.2757  0.0793 -0.5334
  789MOL0     O 4019   3.858  10.939   8.952  0.5776 -0.4204 -0.4664
  789MOL0     C 4020   3.742  10.865   8.953 -0.3515 -0.9489 -0.6924
  789MOL0     C 4021   3.757  10.740   9.011  0.6464 -0.0796  0.1645
  789MOL0     C 4022   3.650  10.651   9.038  0.5253  0.2193  0.2952
  789MOL0     C 4023   3.517  10.698   9.006 -0.7440 -0.0095 -0.2584
  789MOL0     O 4024   3.417  10.600   9.015 -1.1620 -0.9528 -0.0689
  789MOL0     C 4025   3.320  10.612   8.913  0.6266  0.8076 -0.6391
  789MOL0     C 4026   3.236  10.485   8.882  0.3769 -0.0183  0.2608
  789MOL0     C 4027   3.189  10.411   8.997  0.5158 -0.3275 -0.0318
  789MOL0     C 4028   3.100  10.288   8.963 -0.6043 -0.0575  0.6698
  789MOL0     C 4029   3.141  10.160   9.041  0.0394 -1.1105 -0.0888
  789MOL0     C 4030   3.075  10.028   9.002  0.2880  0.4419 -0.6926
  789MOL0     C 4031   2.934  10.023   9.054  0.4223  0.3428 -0.6318
  789MOL0     C 4032   2.864   9.891   9.045  0.2272  0.0126  0.4605
  789MOL0     N 4033   2.758   9.881   9.144  0.4219  0.7458 -0.6588
  789MOL0     C 4034   2.766   9.797   9.252 -0.1301 -0.3066 -0.3213
  789MOL0     C 4035   2.651   9.818   9.321  0.5369 -0.0935  0.4078
  789MOL0     C 4036   2.609   9.759   9.454  0.3610  0.2292 -0.2881
  789MOL0     C 4037   2.511   9.641   9.421  0.2007 -0.2836  0.0544
  789MOL0     C 4038   2.544   9.532   9.317  0.1924 -0.8130  0.1050
  789MOL0     C 4039   2.676   9.448   9.347  0.1416 -0.7817  0.4483
  789MOL0     O 4040   2.727   9.392   9.222  0.4426 -0.4762 -0.5590
  789MOL0     C 4041   2.858   9.350   9.223 -0.5050 -0.2674 -0.3485
  789MOL0     C 4042   2.939   9.346   9.342  0.0190 -0.1260 -0.0836
  789MOL0     C 4043   3.077   9.305   9.339 -0.1309  0.3734  0.5796
  789MOL0     C 4044   3.145   9.277   9.218 -0.0079 -0.1007  1.3123
  789MOL0     C 4045   3.281   9.242   9.224 -0.1847  0.8466 -1.2023
  789MOL0     O 4046   3.361   9.284   9.120  0.1708 -0.0820  0.7284
  789MOL0     C 4047   3.492   9.239   9.104 -0.1571  0.6648  1.2041
  789MOL0     C 4048   3.545   9.123   9.155  0.2202 -0.0287  0.2147
  789MOL0     C 4049   3.679   9.080   9.119 -0.3291  0.3356 -0.8271
  789MOL0     C 4050   3.746   9.149   9.021 -0.5188  0.5028 -0.1475
  789MOL0     O 4051   3.877   9.112   8.975 -0.3430 -0.1152 -0.7459
  789MOL0     C 4052   3.952   9.070   9.082 -0.8980 -1.1657 -0.0362
  789MOL0     C 4053   4.103   9.069   9.033 -0.1879 -1.0296  0.1806
  789MOL0     C 4054   4.194   9.014   9.143  0.9746 -0.4277 -0.5455
  789MOL0     C 4055   4.345   9.019   9.117  0.2744 -0.9714  0.1819
  789MOL0     C 4056   4.391   8.974   8.976 -0.3864  0.0339 -0.6921
  789MOL0     C 4057   4.426   9.102   8.896  0.2023 -0.1554 -0.5468
  789MOL0     C 4058   4.571   9.153   8.921  0.5472 -0.2163  0.5969
  789MOL0     C 4059   4.669   9.061   8.968  0.6948  0.9655 -0.8826
  789MOL0    Cl 4060   4.700   8.932   8.847 -0.3404 -0.1790  0.3456
  789MOL0     C 4061   3.690   9.259   8.962  0.5010  0.6604  0.0815
  789MOL0     C 4062   3.566   9.309   9.001 -0.1862 -1.0039  0.3640
  789MOL0     O 4063   3.323   9.182   9.325  0.8791  0.4914 -0.8476
  789MOL0     C 4064   3.062   9.279   9.100  0.1018  0.9216 -0.0633
  789MOL0     C 4065   2.924   9.314   9.104  0.6749 -1.2092 -0.5612
  789MOL0     N 4066   2.578   9.917   9.248 -0.1987  0.3505 -0.1546
  789MOL0     N 4067   2.640   9.954   9.152  0.1473  0.6396  0.2403
  789MOL0     C 4068   3.509  10.830   8.956  0.4513 -0.2056  0.2932
  789MOL0     C 4069   3.619  10.912   8.929  0.7874 -0.5868  0.8547
  789MOL0     C 4070   4.001  11.100   9.066  0.5338 -0.0240  0.3651
  789MOL0     C 4071   4.111  11.031   9.014 -0.7161 -0.4770 -0.8425
  789MOL0     C 4072   4.235  11.060   9.070  0.5896  0.7035  0.6212
  789MOL0     C 4073   4.258  11.168   9.160 -0.6057 -0.3709  0.1539
  789MOL0     O 4074   4.384  11.183   9.209  0.2910  1.0824  0.9580
  789MOL0     C 4075   4.413  11.296   9.288 -0.3150 -0.3579  0.3833
  789MOL0     C 4076   4.558  11.306   9.327 -0.3503  0.2632  0.2801
  789MOL0     C 4077   4.645  11.293   9.201 -0.8184 -0.1094  0.1328
  789MOL0     C 4078   4.798  11.309   9.230  0.5548  0.6001 -0.5859
  789MOL0     C 4079   4.852  11.197   9.317 -0.0256  0.3676 -0.0378
  789MOL0     C 4080   4.915  11.105   9.373 -0.3154  0.1615 -0.2160
  789MOL0     C 4081   4.152  11.243   9.207  0.0362  0.3986 -0.2333
  789MOL0     C 4082   4.021  11.202   9.162 -0.4904 -0.3219 -0.0555
  789MOL0     H 4083   3.851  10.688   9.022  0.4219 -0.7692 -1.0044
  789MOL0     H 4084   3.660  10.547   9.067 -1.4141 -0.3434 -0.8450
  789MOL0     H 4085   3.353  10.636   8.812  0.9453 -0.5975 -0.8927
  789MOL0     H 4086   3.246  10.682   8.952 -1.0551 -1.0865 -0.2613
  789MOL0     H 4087   3.302  10.420   8.824 -0.0559  0.1611 -0.4430
  789MOL0     H 4088   3.150  10.515   8.822 -0.7884 -1.7887  0.9532
  789MOL0     H 4089   3.128  10.475   9.061 -1.4530 -0.8080 -1.3296
  789MOL0     H 4090   3.272  10.383   9.063  0.1614  2.5848  1.8195
  789MOL0     H 4091   2.993  10.309   8.958 -0.5284  0.0984 -0.6443
  789MOL0     H 4092   3.124  10.264   8.859  0.1678  1.8365  0.3590
  789MOL0     H 4093   3.131  10.169   9.150  1.5043 -0.5572  0.0223
  789MOL0     H 4094   3.249  10.154   9.022  0.7060 -0.1125  2.8099
  789MOL0     H 4095   3.142   9.950   9.037 -1.2278  0.0861  1.6952
  789MOL0     H 4096   3.076  10.005   8.896 -0.8664 -3.0216 -0.0692
  789MOL0     H 4097   2.934  10.050   9.160 -0.1908 -2.2939  0.1142
  789MOL0     H 4098   2.871  10.090   8.995 -4.3345 -2.2825  0.8837
  789MOL0     H 4099   2.945   9.820   9.067 -1.0287 -1.2912  1.1202
  789MOL0     H 4100   2.823   9.872   8.946  0.8734  0.0641  0.1773
  789MOL0     H 4101   2.859   9.744   9.271  1.0419  2.1941  1.4912
  789MOL0     H 4102   2.564   9.841   9.512 -1.0228 -0.2224 -0.6693
  789MOL0     H 4103   2.690   9.710   9.508 -0.4362  0.3337  1.0565
  789MOL0     H 4104   2.415   9.686   9.393  0.1214  0.5230  1.5278
  789MOL0     H 4105   2.494   9.594   9.518  2.1411  3.1069  2.2197
  789MOL0     H 4106   2.459   9.464   9.301  1.8968 -2.9973 -0.1648
  789MOL0     H 4107   2.549   9.581   9.219 -4.1893 -1.9178 -0.8936
  789MOL0     H 4108   2.637   9.364   9.406 -0.0431 -0.0124  1.4570
  789MOL0     H 4109   2.747   9.509   9.404 -2.0417  2.5004 -0.0092
  789MOL0     H 4110   2.900   9.366   9.441  1.7034 -0.6238  0.7097
  789MOL0     H 4111   3.132   9.307   9.433 -2.0827  2.2439  1.7643
  789MOL0     H 4112   3.498   9.053   9.224  0.1411 -0.3176 -0.1286
  789MOL0     H 4113   3.712   8.987   9.165 -2.2655 -1.6920 -3.2188
  789MOL0     H 4114   3.934   8.972   9.128 -1.1923 -1.9748 -1.7849
  789MOL0     H 4115   3.957   9.139   9.167  0.5780 -3.2711  1.7065
  789MOL0     H 4116   4.133   9.172   9.009 -1.3623 -0.1262  2.2830
  789MOL0     H 4117   4.113   8.997   8.952 -1.4961 -2.7970  1.5060
  789MOL0     H 4118   4.173   8.909   9.165 -1.0717 -0.1880 -1.1511
  789MOL0     H 4119   4.178   9.068   9.237 -2.0550 -1.0536 -0.6031
  789MOL0     H 4120   4.370   9.125   9.131  0.3007 -0.5701 -2.4099
  789MOL0     H 4121   4.393   8.961   9.196  0.0326  0.3396  1.3316
  789MOL0     H 4122   4.316   8.930   8.910  0.1044  1.8224 -2.5214
  789MOL0     H 4123   4.468   8.896   8.981  0.7753  1.1686 -0.0475
  789MOL0     H 4124   4.358   9.184   8.923  2.1858  0.8720  1.6825
  789MOL0     H 4125   4.419   9.086   8.788 -4.6249  0.6872 -0.5918
  789MOL0     H 4126   4.607   9.188   8.824 -2.3132 -0.1487 -0.5180
  789MOL0     H 4127   4.577   9.232   8.997 -0.7763 -2.0646  2.7446
  789MOL0     H 4128   4.633   9.034   9.068  1.3317  2.1791 -0.2943
  789MOL0     H 4129   4.759   9.119   8.987  1.5576 -0.1046 -1.5670
  789MOL0     H 4130   3.750   9.307   8.885  3.8594 -0.9307  1.4962
  789MOL0     H 4131   3.529   9.394   8.944  0.8715 -0.6917  0.1119
  789MOL0     H 4132   3.106   9.267   9.001  0.5175  0.9252  0.1163
  789MOL0     H 4133   2.873   9.311   9.009  0.0408 -2.4411 -0.2101
  789MOL0     H 4134   3.411  10.874   8.937  0.8765 -0.0006 -1.6013
  789MOL0     H 4135   3.601  11.014   8.898 -2.8427 -1.3052  0.0985
  789MOL0     H 4136   4.095  10.949   8.945  0.8721 -2.6438  1.1844
  789MOL0     H 4137   4.312  10.989   9.042 -2.2870 -1.0995 -3.8885
  789MOL0     H 4138   4.352  11.297   9.378  2.7440 -1.6653  2.6705
  789MOL0     H 4139   4.377  11.380   9.228  0.2576  0.1818  0.7721
  789MOL0     H 4140   4.589  11.397   9.379  0.7067 -0.6054  1.1921
  789MOL0     H 4141   4.578  11.221   9.392 -1.0204 -0.9435 -1.0419
  789MOL0     H 4142   4.611  11.381   9.144 -2.0198 -0.5486  0.1507
  789MOL0     H 4143   4.635  11.196   9.153  2.8113 -1.0658  1.0175
  789MOL0     H 4144   4.844  11.313   9.131 -1.2285 -1.9779 -1.6480
  789MOL0     H 4145   4.813  11.405   9.280 -1.4939 -0.7056  2.8969
  789MOL0     H 4146   4.965  11.020   9.415 -3.9442 -2.5072 -0.7597
  789MOL0     H 4147   4.154  11.341   9.254 -0.6225  0.1794  0.2753
  789MOL0     H 4148   3.932  11.256   9.191  0.6617  0.8185  1.4834
  790MOL0     O 4149  10.248   1.874   7.208  0.4826  0.4798 -0.6136
  790MOL0     C 4150  10.288   1.797   7.302  0.8899 -0.7725  0.3494
  790MOL0     O 4151  10.223   1.776   7.424 -0.3430  0.1504  0.2575
  790MOL0     C 4152  10.117   1.849   7.447 -0.0425  0.1768  0.0340
  790MOL0     C 4153  10.123   1.936   7.555  0.7307 -0.0064 -0.3225
  790MOL0     C 4154  10.011   2.006   7.595 -0.5679 -0.7027 -0.3347
  790MOL0     C 4155   9.886   1.997   7.535  0.0872  0.2203 -0.1429
  790MOL0     O 4156   9.797   2.097   7.562 -0.4715  0.1587  0.0106
  790MOL0     C 4157   9.664   2.058   7.554 -0.0840  0.8148  0.4523
  790MOL0     C 4158   9.577   2.154   7.636 -0.0138  0.1112 -0.3454
  790MOL0     C 4159   9.428   2.107   7.621  0.0581 -0.6670 -0.2961
  790MOL0     C 4160   9.338   2.224   7.658 -0.1412  0.3445 -0.1564
  790MOL0     C 4161   9.187   2.194   7.638 -0.1536  0.3953 -0.6363
  790MOL0     C 4162   9.095   2.300   7.694 -0.0169 -0.6658  0.7031
  790MOL0     C 4163   8.956   2.290   7.641  0.5207  0.2173 -0.1344
  790MOL0     C 4164   8.847   2.356   7.715  1.1375 -0.1684  0.0414
  790MOL0     N 4165   8.713   2.308   7.672 -1.1363  0.3389  0.0673
  790MOL0     C 4166   8.636   2.215   7.740  0.8775 -0.6450  0.1450
  790MOL0     C 4167   8.520   2.216   7.668  0.4548 -0.1370  0.3978
  790MOL0     C 4168   8.402   2.129   7.709 -0.1832  0.1257 -0.6283
  790MOL0     C 4169   8.420   1.977   7.689 -0.1169 -0.7948 -0.6883
  790MOL0     C 4170   8.294   1.898   7.719 -0.5220  0.1645  0.0742
  790MOL0     C 4171   8.251   1.883   7.862 -0.5734 -0.5281 -0.1994
  790MOL0     O 4172   8.351   1.851   7.959  0.0849  0.4236  0.2044
  790MOL0     C 4173   8.388   1.721   7.972  0.3245  0.4014  0.8674
  790MOL0     C 4174   8.342   1.622   7.884  0.1736  0.9017  0.5434
  790MOL0     C 4175   8.390   1.489   7.892  0.1769  0.3748 -0.7709
  790MOL0     C 4176   8.458   1.448   8.004  0.4063  0.0631  0.1616
  790MOL0     C 4177   8.503   1.305   8.019 -0.5470  0.6328 -0.8006
  790MOL0     O 4178   8.456   1.221   7.919 -0.1141 -0.4385 -0.2775
  790MOL0     C 4179   8.445   1.093   7.945  0.3659 -0.4674  0.6355
  790MOL0     C 4180   8.558   1.016   7.959 -0.0077  0.1337 -0.1574
  790MOL0     C 4181   8.557   0.882   7.996  0.2785 -1.8008  0.3951
  790MOL0     C 4182   8.425   0.820   8.009  0.2244 -1.1592  0.1570
  790MOL0     O 4183   8.412   0.687   8.042  0.8970 -0.1973  0.3347
  790MOL0     C 4184   8.500   0.649   8.154 -0.5529  0.6143 -0.8160
  790MOL0     C 4185   8.480   0.735   8.283  0.0231 -0.2749 -0.0295
  790MOL0     C 4186   8.344   0.721   8.354  0.4812 -0.2677  0.4955
  790MOL0     C 4187   8.324   0.835   8.451  0.3791  0.3101 -0.0399
  790MOL0     C 4188   8.205   0.815   8.542 -0.4623  0.6972 -0.0383
  790MOL0     C 4189   8.080   0.771   8.461  0.0990 -0.7143 -0.0449
  790MOL0     C 4190   7.958   0.785   8.552  0.1361 -0.4631 -0.8763
  790MOL0     C 4191   7.899   0.926   8.573  0.0280  0.2049 -0.6584
  790MOL0    Cl 4192   7.798   0.965   8.427  0.0470  0.3419 -0.2403
  790MOL0     C 4193   8.308   0.899   7.998 -0.8599 -0.4048 -0.8089
  790MOL0     C 4194   8.323   1.040   7.979 -0.4145 -0.0119  0.0207
  790MOL0     O 4195   8.583   1.263   8.114 -0.2545 -0.0984 -0.0133
  790MOL0     C 4196   8.503   1.547   8.094  0.0394 -0.6997  0.4421
  790MOL0     C 4197   8.467   1.679   8.081  0.6771 -0.1774  0.0445
  790MOL0     N 4198   8.533   2.294   7.560  0.3168 -1.2574 -0.2423
  790MOL0     N 4199   8.644   2.362   7.572 -0.3106 -0.1552 -0.0325
  790MOL0     C 4200   9.878   1.900   7.423 -0.6894  0.2076  0.2960
  790MOL0     C 4201   9.993   1.827   7.380  0.4885  0.1332 -0.3301
  790MOL0     C 4202  10.407   1.720   7.274 -1.8252 -0.3878  0.2091
  790MOL0     C 4203  10.482   1.741   7.153  0.5957 -0.1766 -0.2472
  790MOL0     C 4204  10.592   1.663   7.125  0.3657 -0.9715  0.6545
  790MOL0     C 4205  10.641   1.570   7.218  0.5674 -0.2753 -0.2738
  790MOL0     O 4206  10.757   1.503   7.186 -0.2191  0.4261  0.4521
  790MOL0     C 4207  10.761   1.363   7.201 -0.3438  0.7495  0.4609
  790MOL0     C 4208  10.897   1.321   7.146 -0.3604  0.2390 -0.4307
  790MOL0     C 4209  10.923   1.176   7.160 -0.4457  0.0195 -0.8054
  790MOL0     C 4210  10.855   1.094   7.050 -0.7101  0.1591 -0.0338
  790MOL0     C 4211  10.893   0.950   7.070  0.7021 -1.1466 -0.2191
  790MOL0     C 4212  10.927   0.840   7.084  1.2002  0.5939  0.5357
  790MOL0     C 4213  10.572   1.544   7.337  0.8462 -0.0569  0.9049
  790MOL0     C 4214  10.460   1.624   7.366 -0.0305  0.6234 -0.3991
  790MOL0     H 4215  10.217   1.943   7.610  1.0303  1.8976 -0.9899
  790MOL0     H 4216  10.029   2.074   7.678 -1.3612  0.3137 -0.9829
  790MOL0     H 4217   9.642   1.955   7.582 -1.8090  0.6242 -1.3966
  790MOL0     H 4218   9.625   2.063   7.453 -1.7946  0.8161  1.0857
  790MOL0     H 4219   9.591   2.258   7.606  0.0397  0.0011 -0.7034
  790MOL0     H 4220   9.597   2.155   7.744 -2.5593 -0.4076  0.2034
  790MOL0     H 4221   9.404   2.024   7.687  2.6799 -1.7888 -0.6420
  790MOL0     H 4222   9.416   2.076   7.516 -0.4277 -0.7512 -0.2182
  790MOL0     H 4223   9.336   2.240   7.767 -1.7310 -1.6229  0.1486
  790MOL0     H 4224   9.362   2.313   7.600 -1.2385  0.8389  0.1169
  790MOL0     H 4225   9.164   2.096   7.680  1.6867 -0.5729 -1.7606
  790MOL0     H 4226   9.178   2.200   7.529  1.3767  1.6035 -0.7364
  790MOL0     H 4227   9.126   2.398   7.655 -2.7017  1.0557  2.5335
  790MOL0     H 4228   9.107   2.280   7.801  0.5735 -1.6204  0.4671
  790MOL0     H 4229   8.949   2.318   7.535  1.9177 -0.5712 -0.4535
  790MOL0     H 4230   8.938   2.183   7.659 -1.7560 -0.1040 -3.3072
  790MOL0     H 4231   8.860   2.464   7.712  1.9421 -0.2959 -2.2450
  790MOL0     H 4232   8.857   2.327   7.820 -0.1905  1.2519  0.6060
  790MOL0     H 4233   8.673   2.151   7.820  1.5103 -0.2401  0.1848
  790MOL0     H 4234   8.320   2.149   7.640  0.7314  2.2569 -1.1723
  790MOL0     H 4235   8.362   2.163   7.806 -0.0677 -1.1477 -0.1169
  790MOL0     H 4236   8.501   1.929   7.745  1.4421  2.0029 -0.3616
  790MOL0     H 4237   8.436   1.957   7.583  0.0338  0.4703 -0.9188
  790MOL0     H 4238   8.209   1.942   7.667 -0.7976 -0.0273  0.3561
  790MOL0     H 4239   8.309   1.800   7.672  1.7436  1.2192 -1.5686
  790MOL0     H 4240   8.162   1.819   7.865 -0.4215 -0.7884 -0.9806
  790MOL0     H 4241   8.206   1.977   7.898 -1.8192  0.9242 -4.7566
  790MOL0     H 4242   8.274   1.639   7.801 -1.1532  2.1445  1.8273
  790MOL0     H 4243   8.348   1.423   7.817 -2.7416  1.7415 -0.4925
  790MOL0     H 4244   8.651   1.069   7.941  1.1408 -1.5629  0.5853
  790MOL0     H 4245   8.656   0.839   8.006 -0.3048 -2.9605  1.3807
  790MOL0     H 4246   8.606   0.635   8.130  0.3658 -0.7418  3.1454
  790MOL0     H 4247   8.456   0.551   8.177  0.7570 -0.4316 -2.5126
  790MOL0     H 4248   8.505   0.835   8.247 -0.8228 -0.0181  0.0699
  790MOL0     H 4249   8.560   0.711   8.354  0.0134  2.0040  0.8425
  790MOL0     H 4250   8.345   0.623   8.404  0.6545 -0.0612  0.8997
  790MOL0     H 4251   8.263   0.720   8.281 -0.2205 -0.6401  1.2643
  790MOL0     H 4252   8.412   0.831   8.515 -0.2395  3.0595  1.1002
  790MOL0     H 4253   8.319   0.932   8.402  0.6220  1.7797  2.6669
  790MOL0     H 4254   8.187   0.905   8.601  1.1060 -0.6720  2.7545
  790MOL0     H 4255   8.233   0.735   8.611 -0.2930  1.6297  1.0105
  790MOL0     H 4256   8.091   0.670   8.420 -3.1846 -2.0825  1.9976
  790MOL0     H 4257   8.065   0.841   8.379  3.2249 -0.1400 -0.2500
  790MOL0     H 4258   7.881   0.717   8.516  0.5074 -1.8661  0.8303
  790MOL0     H 4259   7.980   0.744   8.651 -5.4342  1.4551  1.5479
  790MOL0     H 4260   7.982   0.993   8.597  1.8377 -2.3522  0.6668
  790MOL0     H 4261   7.842   0.922   8.667  0.7633 -1.5196 -0.2607
  790MOL0     H 4262   8.206   0.862   8.010 -0.8082 -0.5728 -0.8977
  790MOL0     H 4263   8.242   1.112   7.984  1.4033  2.0284  2.4798
  790MOL0     H 4264   8.566   1.538   8.182  0.8009 -0.9354 -0.1234
  790MOL0     H 4265   8.499   1.763   8.142 -0.7080  0.6122 -0.2622
  790MOL0     H 4266   9.780   1.891   7.377 -0.4306  0.7761 -0.4051
  790MOL0     H 4267   9.977   1.755   7.301  0.9177 -2.1307  1.5222
  790MOL0     H 4268  10.465   1.819   7.079 -0.0689 -0.7316 -0.7065
  790MOL0     H 4269  10.643   1.675   7.030 -0.1900 -1.6089  0.2696
  790MOL0     H 4270  10.679   1.303   7.159 -0.5727  0.6946  0.9679
  790MOL0     H 4271  10.758   1.335   7.307 -0.1788  3.5133  1.2767
  790MOL0     H 4272  10.894   1.356   7.043  0.6043  2.8467  0.3542
  790MOL0     H 4273  10.982   1.375   7.189  0.9574  0.8669 -3.5567
  790MOL0     H 4274  10.907   1.142   7.263  1.7358 -2.3162 -1.1498
  790MOL0     H 4275  11.027   1.146   7.146  0.1656  1.0459  1.1770
  790MOL0     H 4276  10.749   1.100   7.075 -0.3289  1.3124  1.5327
  790MOL0     H 4277  10.871   1.130   6.948  3.8817 -0.0697  0.3778
  790MOL0     H 4278  10.968   0.741   7.092 -0.5984 -0.4529 -2.0518
  790MOL0     H 4279  10.591   1.466   7.409  0.3114 -1.5332 -0.4864
  790MOL0     H 4280  10.403   1.607   7.457 -0.8961  0.3793 -0.9695
  791MOL0     O 4281   3.949   8.513   2.307  0.6900 -0.1039  0.7278
  791MOL0     C 4282   4.043   8.581   2.263  1.0310  0.0337 -0.0499
  791MOL0     O 4283   4.063   8.613   2.134 -0.0197 -0.0214 -0.7974
  791MOL0     C 4284   3.965   8.592   2.031  0.2024  0.5794 -0.1129
  791MOL0     C 4285   3.827   8.616   2.044  0.0443 -1.1824  0.5310
  791MOL0     C 4286   3.733   8.598   1.936 -0.5287  0.8407  0.3469
  791MOL0     C 4287   3.783   8.569   1.809  0.0774 -1.0786  0.7174
  791MOL0     O 4288   3.708   8.562   1.696 -0.2556  0.3655 -0.3274
  791MOL0     C 4289   3.563   8.558   1.701 -0.1061  0.6143 -0.1412
  791MOL0     C 4290   3.513   8.423   1.737  0.3782 -0.3123  0.0362
  791MOL0     C 4291   3.360   8.402   1.729  0.8557 -0.0556 -0.7490
  791MOL0     C 4292   3.287   8.405   1.592 -0.3565 -0.3362  0.5492
  791MOL0     C 4293   3.132   8.378   1.608 -0.6327 -0.3078 -0.1909
  791MOL0     C 4294   3.067   8.381   1.474  0.3465 -0.1398  0.5450
  791MOL0     C 4295   2.917   8.386   1.480  0.5668 -0.5521 -0.2989
  791MOL0     C 4296   2.841   8.357   1.355 -0.1341  0.2417  0.5065
  791MOL0     N 4297   2.690   8.366   1.379 -0.4869  0.5479 -0.2842
  791MOL0     C 4298   2.620   8.257   1.385 -0.2859  0.3309 -0.2380
  791MOL0     C 4299   2.494   8.299   1.422  0.7523 -0.2559 -0.4697
  791MOL0     C 4300   2.365   8.217   1.435  0.3214 -0.1372  0.0700
  791MOL0     C 4301   2.386   8.077   1.384 -0.3819 -0.1981  0.0695
  791MOL0     C 4302   2.259   8.012   1.345 -0.1003  0.1381  0.7458
  791MOL0     C 4303   2.142   7.981   1.434 -0.2765  0.5582 -0.6391
  791MOL0     O 4304   2.062   8.097   1.474 -0.7043  0.4119  0.1034
  791MOL0     C 4305   1.954   8.123   1.386  1.0807  0.0121 -0.4272
  791MOL0     C 4306   1.933   8.250   1.322  0.5372 -0.5033  0.3768
  791MOL0     C 4307   1.811   8.275   1.260 -0.3370 -0.8373 -0.4119
  791MOL0     C 4308   1.719   8.175   1.250  0.5861  0.2618  0.0181
  791MOL0     C 4309   1.589   8.199   1.182  0.5135 -0.1215 -0.2427
  791MOL0     O 4310   1.500   8.095   1.189 -0.3971 -0.4492  0.5358
  791MOL0     C 4311   1.372   8.102   1.140 -0.6216  0.5689 -0.5893
  791MOL0     C 4312   1.297   8.217   1.106  0.2973  0.1545  0.2718
  791MOL0     C 4313   1.171   8.205   1.050  0.6667  0.3672  0.1559
  791MOL0     C 4314   1.108   8.079   1.023 -0.1978 -0.6265 -0.2529
  791MOL0     O 4315   0.988   8.085   0.961  0.2448 -0.2744 -0.0871
  791MOL0     C 4316   0.939   7.960   0.903 -0.5094 -0.2297 -0.0807
  791MOL0     C 4317   0.822   7.996   0.818  0.1406 -0.7645 -0.3463
  791MOL0     C 4318   0.771   7.873   0.739  0.0733 -0.2238 -0.3618
  791MOL0     C 4319   0.641   7.897   0.671  0.3021  0.0879 -0.3778
  791MOL0     C 4320   0.607   7.766   0.599  0.3596  0.0724 -0.7209
  791MOL0     C 4321   0.459   7.752   0.571  0.1779 -0.4426  0.1689
  791MOL0     C 4322   0.401   7.864   0.477  0.1396  0.2432 -0.8107
  791MOL0     C 4323   0.268   7.836   0.438  0.2747 -0.2151 -0.3846
  791MOL0    Cl 4324   0.221   7.975   0.341 -0.1484  0.0882  0.4916
  791MOL0     C 4325   1.189   7.967   1.065  0.0906 -0.2489  0.7149
  791MOL0     C 4326   1.316   7.976   1.115  0.5364  0.3926  1.0862
  791MOL0     O 4327   1.571   8.311   1.135  0.5522  0.9223 -0.1860
  791MOL0     C 4328   1.749   8.051   1.304 -0.3011  0.3348 -0.1012
  791MOL0     C 4329   1.866   8.022   1.373 -0.2986  0.4521  0.5972
  791MOL0     N 4330   2.498   8.436   1.428  0.2426  0.5949  0.1060
  791MOL0     N 4331   2.615   8.474   1.405 -0.8463 -0.8215  0.8782
  791MOL0     C 4332   3.920   8.541   1.799  0.0749 -0.0503  0.2644
  791MOL0     C 4333   4.011   8.559   1.903  0.5806  0.1551 -0.0702
  791MOL0     C 4334   4.155   8.621   2.352 -0.5222 -0.8722 -0.1556
  791MOL0     C 4335   4.156   8.601   2.492 -0.1508 -0.0403 -0.1354
  791MOL0     C 4336   4.250   8.661   2.572 -0.9702  0.1367 -0.6018
  791MOL0     C 4337   4.342   8.752   2.519  0.2459  0.4038 -0.2738
  791MOL0     O 4338   4.423   8.814   2.609  0.5624  0.2584 -1.1334
  791MOL0     C 4339   4.545   8.889   2.565  0.7201  1.2231  0.3389
  791MOL0     C 4340   4.653   8.783   2.530 -0.0999  0.8640  0.0492
  791MOL0     C 4341   4.690   8.787   2.371  0.3364 -0.2574 -1.0204
  791MOL0     C 4342   4.830   8.733   2.338  0.3546 -0.6716 -0.4265
  791MOL0     C 4343   4.844   8.593   2.348  0.3497 -0.7142  0.2795
  791MOL0     C 4344   4.853   8.479   2.365 -0.7766  0.4880  0.3337
  791MOL0     C 4345   4.340   8.775   2.384  0.0882 -0.2006  0.9132
  791MOL0     C 4346   4.250   8.707   2.300 -0.2279  0.4786  0.5376
  791MOL0     H 4347   3.792   8.654   2.140 -1.0505  0.6429 -0.5200
  791MOL0     H 4348   3.626   8.618   1.945 -0.4627  3.0301 -2.4554
  791MOL0     H 4349   3.523   8.572   1.600 -1.4446 -5.7263 -0.8601
  791MOL0     H 4350   3.524   8.640   1.762 -0.6779  0.0117  0.3016
  791MOL0     H 4351   3.534   8.411   1.844  0.5163 -0.0460  0.0390
  791MOL0     H 4352   3.559   8.341   1.681  2.9568  1.1628 -0.1174
  791MOL0     H 4353   3.307   8.465   1.801 -0.7332 -3.4949  1.3556
  791MOL0     H 4354   3.340   8.306   1.777 -2.1012  1.1657  0.7633
  791MOL0     H 4355   3.314   8.498   1.540  1.6692 -1.9917 -1.5878
  791MOL0     H 4356   3.322   8.319   1.534 -2.0961 -1.6320  1.3381
  791MOL0     H 4357   3.100   8.458   1.676  1.0565 -0.3075  0.6822
  791MOL0     H 4358   3.118   8.278   1.651  0.7366 -0.1252  0.7812
  791MOL0     H 4359   3.096   8.287   1.425 -0.1535 -1.1562  2.1586
  791MOL0     H 4360   3.106   8.464   1.415  1.4127 -0.8598  0.1901
  791MOL0     H 4361   2.882   8.317   1.558  2.3657 -1.2791 -0.0961
  791MOL0     H 4362   2.896   8.490   1.507 -0.4337 -0.7290 -0.3572
  791MOL0     H 4363   2.865   8.255   1.323 -1.3978  0.2646 -0.6248
  791MOL0     H 4364   2.881   8.424   1.278  2.9109 -0.5878  1.2694
  791MOL0     H 4365   2.645   8.153   1.363  1.7665  0.5290  0.9196
  791MOL0     H 4366   2.279   8.268   1.393  0.0366  0.5500  1.4202
  791MOL0     H 4367   2.333   8.199   1.538 -1.6039  0.4306 -0.3982
  791MOL0     H 4368   2.429   8.016   1.464 -0.2099  1.3676  1.2164
  791MOL0     H 4369   2.453   8.074   1.298  0.9422 -0.8782  1.0834
  791MOL0     H 4370   2.224   8.076   1.263 -0.1673 -1.7674 -0.7890
  791MOL0     H 4371   2.279   7.912   1.304 -2.1906 -1.2444  2.8180
  791MOL0     H 4372   2.189   7.926   1.516 -3.1065 -0.7609  0.2366
  791MOL0     H 4373   2.084   7.907   1.377  0.5370 -1.0985  0.6123
  791MOL0     H 4374   2.003   8.333   1.328 -1.4056  1.1164  2.3005
  791MOL0     H 4375   1.796   8.368   1.206  1.3447 -1.4338 -1.9990
  791MOL0     H 4376   1.340   8.315   1.122  0.5966  0.2622 -1.1500
  791MOL0     H 4377   1.112   8.294   1.028  0.2807 -0.2042 -1.2935
  791MOL0     H 4378   0.890   7.899   0.980 -3.5283  1.0636 -0.8389
  791MOL0     H 4379   1.017   7.907   0.848 -0.6913  0.5818 -1.1492
  791MOL0     H 4380   0.839   8.083   0.753 -1.2484 -2.0222 -2.5328
  791MOL0     H 4381   0.747   8.030   0.890 -0.2504  1.7518 -1.7959
  791MOL0     H 4382   0.766   7.779   0.795  2.0293  0.8770  1.8378
  791MOL0     H 4383   0.854   7.864   0.668  1.2058  2.6902  0.4289
  791MOL0     H 4384   0.574   7.902   0.758  4.0888  0.0224  2.8541
  791MOL0     H 4385   0.636   7.990   0.614 -0.7792  0.1282 -0.2379
  791MOL0     H 4386   0.642   7.679   0.655  0.0270 -0.7334 -1.7311
  791MOL0     H 4387   0.671   7.773   0.510 -0.4143 -0.0046 -1.2988
  791MOL0     H 4388   0.408   7.755   0.668 -0.4511  1.0866 -0.1833
  791MOL0     H 4389   0.448   7.656   0.519 -0.7444  0.5047 -1.4666
  791MOL0     H 4390   0.406   7.962   0.526  0.3513 -0.7359  1.2352
  791MOL0     H 4391   0.465   7.866   0.389  1.7317  1.2553  0.3247
  791MOL0     H 4392   0.197   7.834   0.521  0.5525 -2.8870 -0.1296
  791MOL0     H 4393   0.260   7.757   0.363 -0.5368 -0.1055 -0.4238
  791MOL0     H 4394   1.138   7.873   1.053 -0.8885  0.5023 -1.8187
  791MOL0     H 4395   1.369   7.885   1.143 -1.5790 -1.4412 -0.5317
  791MOL0     H 4396   1.673   7.974   1.304  0.3439 -0.3532  1.7704
  791MOL0     H 4397   1.866   7.921   1.413 -2.0163  0.9388  1.9931
  791MOL0     H 4398   3.956   8.512   1.701  1.0138  1.0048  0.2721
  791MOL0     H 4399   4.118   8.545   1.892  0.5421  0.5326 -0.9917
  791MOL0     H 4400   4.081   8.553   2.554 -0.5078 -0.6535 -1.0096
  791MOL0     H 4401   4.239   8.647   2.679 -2.0566 -1.6637 -0.8963
  791MOL0     H 4402   4.577   8.947   2.652 -2.9395 -1.3525  3.7912
  791MOL0     H 4403   4.508   8.959   2.490  1.8098 -1.5023 -2.9949
  791MOL0     H 4404   4.738   8.804   2.595 -0.4619  0.9623  0.4948
  791MOL0     H 4405   4.624   8.681   2.558 -0.2198  0.9269  0.1533
  791MOL0     H 4406   4.685   8.890   2.332  0.3963  1.9303  4.0308
  791MOL0     H 4407   4.609   8.725   2.332 -2.0006 -0.4046  3.4669
  791MOL0     H 4408   4.860   8.764   2.237 -1.5407 -0.1116 -0.8503
  791MOL0     H 4409   4.910   8.778   2.397 -0.3659 -1.8792  1.5507
  791MOL0     H 4410   4.873   8.373   2.359  2.0478  1.0187 -1.8418
  791MOL0     H 4411   4.408   8.844   2.334  2.4957 -2.7821  0.3175
  791MOL0     H 4412   4.252   8.732   2.195  0.3459 -1.5126  0.0290
  792MOL0     O 4413   5.415   7.608   4.535 -0.1594  0.4468 -0.5005
  792MOL0     C 4414   5.411   7.716   4.597 -0.0101  0.5639  0.5411
  792MOL0     O 4415   5.298   7.791   4.620  0.0485  0.2148  0.0105
  792MOL0     C 4416   5.174   7.733   4.581 -0.3700  0.6175  1.0894
  792MOL0     C 4417   5.115   7.620   4.633  0.6978 -0.3836  0.4087
  792MOL0     C 4418   5.013   7.562   4.566  0.1748  0.7507  0.2741
  792MOL0     C 4419   4.956   7.616   4.447 -0.9620 -0.1928 -0.5006
  792MOL0     O 4420   4.871   7.529   4.379  0.3857 -0.1254 -0.2948
  792MOL0     C 4421   4.774   7.579   4.279 -0.6458  0.5437 -0.0755
  792MOL0     C 4422   4.643   7.498   4.303 -0.0579  0.6490 -0.3877
  792MOL0     C 4423   4.550   7.503   4.192  0.6240 -0.0516  0.6432
  792MOL0     C 4424   4.417   7.446   4.232  0.3300  0.0092  0.2857
  792MOL0     C 4425   4.334   7.430   4.110 -0.1899 -0.2970 -0.2140
  792MOL0     C 4426   4.183   7.446   4.149 -0.4614  0.6441 -0.6196
  792MOL0     C 4427   4.101   7.394   4.043  0.5651  0.1358  0.7378
  792MOL0     C 4428   4.093   7.243   4.032  0.2879 -0.2051 -1.2228
  792MOL0     N 4429   4.004   7.201   3.928  0.1888 -0.4030  0.7067
  792MOL0     C 4430   3.870   7.228   3.936  0.0009  0.0309 -0.3508
  792MOL0     C 4431   3.814   7.175   3.823 -0.1387 -0.4505  0.2894
  792MOL0     C 4432   3.675   7.178   3.788  0.3821 -0.8126  0.7347
  792MOL0     C 4433   3.596   7.078   3.872 -0.8350 -1.4588 -0.4113
  792MOL0     C 4434   3.634   6.942   3.839  0.2304 -0.1556 -1.3433
  792MOL0     C 4435   3.552   6.832   3.911  0.0040  0.8564  0.0168
  792MOL0     O 4436   3.402   6.846   3.888 -0.3336 -0.0755  0.0601
  792MOL0     C 4437   3.344   6.776   3.789 -0.6387  0.1287  0.3166
  792MOL0     C 4438   3.404   6.681   3.704 -0.8054 -0.2362 -0.0970
  792MOL0     C 4439   3.331   6.620   3.602  0.4347  0.1035 -0.5315
  792MOL0     C 4440   3.195   6.651   3.581  0.2808  0.7756  0.1483
  792MOL0     C 4441   3.132   6.592   3.465 -0.2359 -0.9700 -0.1360
  792MOL0     O 4442   3.008   6.636   3.433  0.1241 -0.4754 -0.4561
  792MOL0     C 4443   2.930   6.602   3.322  0.9087 -0.1250 -0.0943
  792MOL0     C 4444   2.844   6.703   3.271 -0.2442  0.7839 -0.6441
  792MOL0     C 4445   2.754   6.667   3.178 -0.3972 -0.1423  1.1663
  792MOL0     C 4446   2.751   6.536   3.115  0.0880 -0.2284 -1.0943
  792MOL0     O 4447   2.652   6.516   3.025  0.3496  0.3770  1.2964
  792MOL0     C 4448   2.620   6.380   2.994  0.4258 -0.3144 -0.1032
  792MOL0     C 4449   2.543   6.380   2.867  0.0144 -0.0213 -0.2390
  792MOL0     C 4450   2.394   6.415   2.884 -0.3796 -1.1746 -0.3281
  792MOL0     C 4451   2.306   6.409   2.755  0.2080  0.5577 -0.9993
  792MOL0     C 4452   2.168   6.462   2.791 -0.2007 -0.1732  0.3698
  792MOL0     C 4453   2.070   6.473   2.671  0.0779  0.6299  0.7245
  792MOL0     C 4454   1.934   6.511   2.717  0.4651 -0.3396 -0.0566
  792MOL0     C 4455   1.863   6.395   2.789  0.0457  0.0435  0.0102
  792MOL0    Cl 4456   1.693   6.463   2.824 -0.0108 -0.1797 -0.2196
  792MOL0     C 4457   2.839   6.442   3.162 -0.6757  0.5440 -0.1092
  792MOL0     C 4458   2.927   6.478   3.266  0.2288 -0.3562 -0.6223
  792MOL0     O 4459   3.196   6.505   3.409  0.5545 -0.8721  0.5191
  792MOL0     C 4460   3.138   6.751   3.663 -0.6637  0.4497  0.1675
  792MOL0     C 4461   3.212   6.809   3.761 -0.6562  1.0764 -0.1024
  792MOL0     N 4462   3.909   7.121   3.750 -0.4649 -0.0988  0.5451
  792MOL0     N 4463   4.028   7.140   3.807  0.2768  0.2617  0.1113
  792MOL0     C 4464   5.008   7.740   4.406  0.4119  0.3478  0.4481
  792MOL0     C 4465   5.116   7.791   4.467  0.2543  0.0418 -0.2891
  792MOL0     C 4466   5.537   7.763   4.663 -0.0334  0.9882  0.0268
  792MOL0     C 4467   5.657   7.677   4.665  0.0597 -0.2869  0.0287
  792MOL0     C 4468   5.772   7.725   4.729 -0.1049  0.3365 -0.1204
  792MOL0     C 4469   5.772   7.840   4.801 -0.5925  0.2187 -0.3524
  792MOL0     O 4470   5.896   7.873   4.860 -0.1942 -0.4259 -0.2472
  792MOL0     C 4471   5.900   8.022   4.890 -0.1804  0.4587 -0.9215
  792MOL0     C 4472   6.036   8.055   4.945  0.4123 -0.2886 -0.7000
  792MOL0     C 4473   6.060   8.205   4.952  0.2985 -0.5679 -0.2994
  792MOL0     C 4474   6.198   8.244   5.004 -0.4575  0.5542  0.9558
  792MOL0     C 4475   6.311   8.202   4.921 -0.7418  0.3559 -0.0382
  792MOL0     C 4476   6.407   8.152   4.861  1.3127  0.4957  0.1841
  792MOL0     C 4477   5.658   7.919   4.794  0.4199 -1.0193  0.9257
  792MOL0     C 4478   5.545   7.886   4.725  0.4194 -0.1321 -0.3508
  792MOL0     H 4479   5.152   7.583   4.728 -0.6451  1.0961  1.5700
  792MOL0     H 4480   4.976   7.472   4.613  1.0702  0.8277  1.1422
  792MOL0     H 4481   4.817   7.560   4.180  0.5231 -1.1964  0.7203
  792MOL0     H 4482   4.751   7.684   4.296 -2.2757  0.1188  0.5936
  792MOL0     H 4483   4.597   7.531   4.396  1.7488  0.2937  0.6818
  792MOL0     H 4484   4.662   7.391   4.315 -0.4975  0.7242  1.2437
  792MOL0     H 4485   4.593   7.450   4.106  1.9131  1.9844 -0.0560
  792MOL0     H 4486   4.547   7.607   4.156  0.6687 -0.5509 -0.8699
  792MOL0     H 4487   4.426   7.349   4.281  0.1315  1.0684  2.5430
  792MOL0     H 4488   4.357   7.502   4.304 -2.3470 -0.9011 -1.0927
  792MOL0     H 4489   4.354   7.331   4.067 -0.3412 -0.4979  0.1748
  792MOL0     H 4490   4.351   7.513   4.040  0.4325 -1.1977 -1.1643
  792MOL0     H 4491   4.166   7.550   4.180  1.8861  0.9747 -0.2376
  792MOL0     H 4492   4.170   7.394   4.245  1.2394  1.4227  0.0674
  792MOL0     H 4493   4.001   7.434   4.061  0.6729  0.9347 -0.3421
  792MOL0     H 4494   4.141   7.445   3.955 -0.3814 -0.4289 -0.0417
  792MOL0     H 4495   4.051   7.201   4.124 -1.4174 -0.8533 -2.2373
  792MOL0     H 4496   4.191   7.194   4.034  1.3415  1.6178  2.8825
  792MOL0     H 4497   3.826   7.285   4.017 -0.5928  1.8352 -1.8821
  792MOL0     H 4498   3.667   7.176   3.679  2.6801 -1.1182  0.5237
  792MOL0     H 4499   3.627   7.271   3.820 -0.7625 -0.8226 -0.8380
  792MOL0     H 4500   3.492   7.086   3.840 -0.8006 -0.9925 -0.4159
  792MOL0     H 4501   3.611   7.107   3.976 -0.0399  0.8756 -1.1073
  792MOL0     H 4502   3.620   6.921   3.733  0.9962 -0.0882 -1.4623
  792MOL0     H 4503   3.740   6.928   3.862  0.3245 -1.8187 -2.5853
  792MOL0     H 4504   3.578   6.839   4.017 -1.0777  1.2735  0.2767
  792MOL0     H 4505   3.601   6.743   3.871  0.5711  1.4952 -0.7156
  792MOL0     H 4506   3.504   6.642   3.723 -0.9754 -0.5997  0.0626
  792MOL0     H 4507   3.394   6.545   3.556 -0.2830  0.5158 -2.2478
  792MOL0     H 4508   2.850   6.807   3.302  0.0317  0.4342  0.5091
  792MOL0     H 4509   2.682   6.741   3.142  0.0296 -0.2906 -0.0334
  792MOL0     H 4510   2.562   6.342   3.079  0.7086  1.6866  1.0495
  792MOL0     H 4511   2.698   6.305   2.980 -1.0281 -2.4117  2.0657
  792MOL0     H 4512   2.556   6.280   2.824 -1.1925 -0.3748  0.1807
  792MOL0     H 4513   2.584   6.450   2.793  1.3950 -1.0872 -0.5191
  792MOL0     H 4514   2.388   6.512   2.935 -2.0804 -2.3678  1.9265
  792MOL0     H 4515   2.338   6.346   2.948 -1.5380  0.2202  0.2315
  792MOL0     H 4516   2.342   6.460   2.665  2.5797 -1.2989 -1.2105
  792MOL0     H 4517   2.304   6.305   2.720 -3.2488  0.6496 -1.3683
  792MOL0     H 4518   2.185   6.564   2.827 -2.3738  0.7153 -0.9355
  792MOL0     H 4519   2.134   6.398   2.872  1.4165  1.3374  2.3537
  792MOL0     H 4520   2.071   6.368   2.640  1.0065 -0.4495  3.9535
  792MOL0     H 4521   2.106   6.532   2.586  1.3078  0.3674  1.0367
  792MOL0     H 4522   1.936   6.608   2.766  1.2206  0.4427 -1.5715
  792MOL0     H 4523   1.873   6.514   2.626  0.7547 -0.5164 -0.2579
  792MOL0     H 4524   1.905   6.372   2.887 -2.3995 -3.2535  0.4500
  792MOL0     H 4525   1.842   6.311   2.724 -3.4982  0.5336  0.3144
  792MOL0     H 4526   2.837   6.339   3.129  3.1769  0.4905 -0.6938
  792MOL0     H 4527   2.994   6.413   3.322  0.2763  2.9188  3.5901
  792MOL0     H 4528   3.038   6.783   3.636 -0.8358  0.9398  1.3038
  792MOL0     H 4529   3.168   6.893   3.814 -0.7850  0.2770  1.0866
  792MOL0     H 4530   4.969   7.781   4.314  2.1436 -1.2788 -1.0978
  792MOL0     H 4531   5.159   7.886   4.438  0.8565  0.6544  2.3374
  792MOL0     H 4532   5.669   7.585   4.609 -0.0901 -2.2998  3.0812
  792MOL0     H 4533   5.864   7.668   4.716  0.5148  1.3797 -0.4269
  792MOL0     H 4534   5.820   8.057   4.955 -1.0136  0.8890 -2.1405
  792MOL0     H 4535   5.887   8.084   4.801  1.2243  0.8389 -0.8974
  792MOL0     H 4536   6.039   8.012   5.046 -2.8033  0.9174  0.0119
  792MOL0     H 4537   6.105   8.000   4.880 -1.2735 -1.5229 -1.4990
  792MOL0     H 4538   5.984   8.258   5.011 -1.3697 -3.2831  0.1712
  792MOL0     H 4539   6.063   8.240   4.848  1.0954  0.9908  0.2315
  792MOL0     H 4540   6.204   8.353   5.005 -0.2382  0.5470  0.6693
  792MOL0     H 4541   6.221   8.206   5.104 -0.0733 -0.5688  0.4588
  792MOL0     H 4542   6.494   8.109   4.815  1.1101  1.6090 -1.3270
  792MOL0     H 4543   5.653   8.018   4.840  1.0161 -0.5011 -0.0934
  792MOL0     H 4544   5.453   7.945   4.726  0.8826  0.6446 -1.1510
  793MOL0     O 4545   0.001   0.902   9.826 -0.4066 -0.2259  0.0903
  793MOL0     C 4546  -0.113   0.941   9.782 -0.1424 -0.5475  0.1776
  793MOL0     O 4547  -0.135   1.069   9.736  0.1717  0.1860  0.5224
  793MOL0     C 4548  -0.034   1.159   9.710  0.1114 -0.5353  0.0930
  793MOL0     C 4549   0.084   1.170   9.786  0.1719 -1.1081  0.3673
  793MOL0     C 4550   0.187   1.258   9.758 -0.1019 -0.2263  0.6879
  793MOL0     C 4551   0.183   1.335   9.645 -0.1614 -0.1882  0.4359
  793MOL0     O 4552   0.287   1.417   9.603 -0.3255  0.0299 -0.4605
  793MOL0     C 4553   0.404   1.434   9.685  0.2996  0.6067 -0.6165
  793MOL0     C 4554   0.487   1.561   9.658  0.4817  0.4108  0.7506
  793MOL0     C 4555   0.518   1.569   9.507 -0.1856  0.0271  0.2050
  793MOL0     C 4556   0.610   1.686   9.472 -0.4923 -0.1798  0.7662
  793MOL0     C 4557   0.638   1.704   9.320  0.1602  0.3865 -0.4377
  793MOL0     C 4558   0.736   1.816   9.290  0.4341 -0.3989  0.2104
  793MOL0     C 4559   0.685   1.958   9.297 -0.1729  0.0083 -0.1502
  793MOL0     C 4560   0.624   2.018   9.177  0.2495 -0.2344 -0.2022
  793MOL0     N 4561   0.561   2.150   9.204 -0.3016  0.3739 -0.1712
  793MOL0     C 4562   0.617   2.276   9.179  0.0906 -0.4358  0.3196
  793MOL0     C 4563   0.518   2.364   9.221  0.0637 -0.7550 -0.2645
  793MOL0     C 4564   0.547   2.521   9.204 -0.7047 -0.1893 -0.5689
  793MOL0     C 4565   0.451   2.609   9.284 -0.5945 -0.5576 -0.3194
  793MOL0     C 4566   0.305   2.583   9.253 -0.6252 -0.0625  0.0770
  793MOL0     C 4567   0.223   2.686   9.333 -1.6530 -0.0614  0.0825
  793MOL0     O 4568   0.093   2.660   9.285  0.3203 -0.3450  0.0318
  793MOL0     C 4569  -0.009   2.664   9.378 -0.4273  1.0433  0.3017
  793MOL0     C 4570  -0.018   2.731   9.504  0.0984  0.6601 -0.2010
  793MOL0     C 4571  -0.141   2.723   9.570  0.2209  0.2449 -1.8962
  793MOL0     C 4572  -0.254   2.654   9.535 -0.0733 -0.8763 -1.3105
  793MOL0     C 4573  -0.374   2.643   9.618  0.1200  0.1474  0.1027
  793MOL0     O 4574  -0.399   2.735   9.721 -0.5474  0.0001 -0.5633
  793MOL0     C 4575  -0.479   2.697   9.825 -0.2649  0.4000 -0.5340
  793MOL0     C 4576  -0.447   2.594   9.915 -0.8053 -0.6261 -0.5015
  793MOL0     C 4577  -0.520   2.561  10.025  0.0739 -0.3307 -0.6265
  793MOL0     C 4578  -0.631   2.646  10.057 -0.3260  0.6847 -0.0014
  793MOL0     O 4579  -0.708   2.646  10.167  0.1325 -0.2566 -0.4276
  793MOL0     C 4580  -0.654   2.565  10.283 -0.1889  0.1364 -0.2042
  793MOL0     C 4581  -0.754   2.581  10.398  0.0339 -0.1541  0.1567
  793MOL0     C 4582  -0.875   2.502  10.348 -0.0269  0.7788  0.4408
  793MOL0     C 4583  -0.984   2.511  10.460 -0.1959 -0.2442 -0.6414
  793MOL0     C 4584  -1.052   2.648  10.455 -0.2826 -0.2658  0.6241
  793MOL0     C 4585  -1.172   2.673  10.549  1.0634 -0.4255 -0.2146
  793MOL0     C 4586  -1.228   2.825  10.540  0.1351 -0.6098 -1.0451
  793MOL0     C 4587  -1.367   2.820  10.609 -0.8447  0.0639  0.1915
  793MOL0    Cl 4588  -1.495   2.819  10.480 -0.4585  0.1782  0.1057
  793MOL0     C 4589  -0.658   2.746   9.967  0.1814 -1.1996 -0.5032
  793MOL0     C 4590  -0.586   2.772   9.855 -0.1579  0.1837 -0.0653
  793MOL0     O 4591  -0.449   2.550   9.591 -0.0466  0.2145  0.0059
  793MOL0     C 4592  -0.243   2.602   9.410 -0.0768  0.2436 -0.0794
  793MOL0     C 4593  -0.121   2.602   9.336 -0.3597  0.5355 -0.2220
  793MOL0     N 4594   0.411   2.293   9.280 -0.2297  0.4259  0.1732
  793MOL0     N 4595   0.440   2.171   9.269  0.1917  0.0018 -0.1994
  793MOL0     C 4596   0.063   1.336   9.574 -0.1846 -0.5266  0.2487
  793MOL0     C 4597  -0.041   1.246   9.602  0.4905 -0.1294 -0.3855
  793MOL0     C 4598  -0.226   0.837   9.775 -0.1014 -0.0191 -0.5158
  793MOL0     C 4599  -0.203   0.704   9.808 -0.2376  0.0232  0.6952
  793MOL0     C 4600  -0.304   0.613   9.781  0.0490 -0.1814 -0.0266
  793MOL0     C 4601  -0.429   0.640   9.728 -0.5806 -1.4171  0.0025
  793MOL0     O 4602  -0.530   0.553   9.716  0.0094 -0.2213  0.5074
  793MOL0     C 4603  -0.520   0.417   9.770 -0.2864 -0.3408 -0.5270
  793MOL0     C 4604  -0.530   0.308   9.665 -0.4697 -0.6744 -0.4393
  793MOL0     C 4605  -0.396   0.286   9.585  0.9688 -0.4130 -0.1751
  793MOL0     C 4606  -0.409   0.163   9.493  1.1243  0.3579 -1.0640
  793MOL0     C 4607  -0.299   0.141   9.399  0.1788 -0.3406  0.2078
  793MOL0     C 4608  -0.218   0.134   9.305 -0.2537 -0.1047  0.6532
  793MOL0     C 4609  -0.451   0.778   9.702 -0.1450 -0.6153 -0.0256
  793MOL0     C 4610  -0.353   0.874   9.719 -0.7891 -0.2647  0.4295
  793MOL0     H 4611   0.095   1.117   9.880  2.8137  0.2151  0.9032
  793MOL0     H 4612   0.270   1.245   9.827 -0.8493 -1.9700  1.3110
  793MOL0     H 4613   0.467   1.345   9.672 -0.4670 -0.2096  1.0107
  793MOL0     H 4614   0.383   1.449   9.791  3.1229 -0.0858  0.1201
  793MOL0     H 4615   0.580   1.561   9.717  0.6635 -0.3682  0.4777
  793MOL0     H 4616   0.427   1.644   9.695 -0.2910  0.0182  0.4073
  793MOL0     H 4617   0.430   1.576   9.442 -1.2843  0.8891  1.7000
  793MOL0     H 4618   0.575   1.482   9.474 -0.9425 -0.0770 -0.8688
  793MOL0     H 4619   0.568   1.778   9.514  3.9028  0.7570  3.8344
  793MOL0     H 4620   0.705   1.674   9.525 -1.2923 -0.4851  2.1760
  793MOL0     H 4621   0.548   1.715   9.259 -0.8278  0.6936  1.0254
  793MOL0     H 4622   0.683   1.610   9.286  1.2922  0.7371  0.0271
  793MOL0     H 4623   0.774   1.801   9.188 -0.3831  1.7311 -0.4775
  793MOL0     H 4624   0.822   1.811   9.357  0.2896  0.8783  0.5227
  793MOL0     H 4625   0.605   1.957   9.372 -0.2503 -0.5241 -0.2303
  793MOL0     H 4626   0.773   2.014   9.328  1.3026 -1.2173 -1.8847
  793MOL0     H 4627   0.554   1.948   9.130  0.8906 -1.0475  0.0191
  793MOL0     H 4628   0.694   2.041   9.096 -1.0113 -4.0535 -2.6474
  793MOL0     H 4629   0.713   2.293   9.132  0.2861 -1.5862  0.2544
  793MOL0     H 4630   0.532   2.551   9.100  0.8581  1.9222 -0.2631
  793MOL0     H 4631   0.653   2.541   9.223 -0.7830 -0.1852 -0.1284
  793MOL0     H 4632   0.467   2.713   9.256 -1.7458 -0.6191 -1.2800
  793MOL0     H 4633   0.475   2.594   9.390 -1.5772 -3.2466 -0.3902
  793MOL0     H 4634   0.293   2.585   9.144  1.0415 -2.2606 -0.2192
  793MOL0     H 4635   0.274   2.482   9.282 -1.4748 -0.6212 -2.4798
  793MOL0     H 4636   0.237   2.791   9.308 -1.8196  0.2397  1.1868
  793MOL0     H 4637   0.242   2.679   9.441 -0.9853 -1.2602 -0.0924
  793MOL0     H 4638   0.071   2.784   9.537  0.9897  0.9497 -2.8330
  793MOL0     H 4639  -0.140   2.772   9.667  2.3575 -0.2287 -1.6183
  793MOL0     H 4640  -0.351   2.543   9.909  0.0081  1.0017 -1.8737
  793MOL0     H 4641  -0.495   2.493  10.105  1.3001  1.4120  0.5474
  793MOL0     H 4642  -0.556   2.611  10.296  1.2538 -2.0955 -2.3268
  793MOL0     H 4643  -0.646   2.458  10.263 -0.1236 -0.1491  1.2234
  793MOL0     H 4644  -0.777   2.687  10.408 -2.0164 -0.5146 -0.2170
  793MOL0     H 4645  -0.719   2.542  10.494 -1.4256  1.2599  1.3262
  793MOL0     H 4646  -0.840   2.399  10.343 -0.7411  0.5554 -0.0379
  793MOL0     H 4647  -0.913   2.527  10.248 -0.9314 -1.0149  0.3001
  793MOL0     H 4648  -1.056   2.430  10.444  0.7471 -0.6853 -3.0517
  793MOL0     H 4649  -0.931   2.494  10.554  0.4837  3.8571 -0.1245
  793MOL0     H 4650  -1.085   2.650  10.350  1.3465  2.0043  0.1007
  793MOL0     H 4651  -0.978   2.727  10.464  1.1178 -1.5969  1.3222
  793MOL0     H 4652  -1.141   2.643  10.650 -1.6656 -0.6043  0.6567
  793MOL0     H 4653  -1.263   2.613  10.540  0.3595  0.5218  0.2859
  793MOL0     H 4654  -1.151   2.887  10.586  0.7308  0.6107 -3.5108
  793MOL0     H 4655  -1.238   2.856  10.436  0.4683 -0.4526 -1.0292
  793MOL0     H 4656  -1.390   2.908  10.670 -0.9094  1.7656 -2.1408
  793MOL0     H 4657  -1.391   2.726  10.660 -3.1217 -1.4418 -3.2397
  793MOL0     H 4658  -0.740   2.811   9.995  1.0717 -0.6950  1.0670
  793MOL0     H 4659  -0.611   2.852   9.786  0.8468 -0.2915 -0.9978
  793MOL0     H 4660  -0.326   2.564   9.351  0.0071  4.1323 -3.1109
  793MOL0     H 4661  -0.113   2.560   9.236 -1.1088 -1.1349  0.3809
  793MOL0     H 4662   0.032   1.414   9.504 -1.8820 -0.2679  1.2315
  793MOL0     H 4663  -0.126   1.254   9.535  1.4050  2.3679 -1.3541
  793MOL0     H 4664  -0.107   0.661   9.837  0.2932  0.7169  0.0095
  793MOL0     H 4665  -0.281   0.509   9.800  2.0110  0.0155 -1.0831
  793MOL0     H 4666  -0.603   0.411   9.842 -0.7334  2.7771 -0.6316
  793MOL0     H 4667  -0.433   0.398   9.833  0.0296 -0.6475 -1.0497
  793MOL0     H 4668  -0.564   0.209   9.696 -1.0326 -0.7989 -1.4125
  793MOL0     H 4669  -0.592   0.346   9.583  1.5462  1.9061 -0.8939
  793MOL0     H 4670  -0.311   0.264   9.651  1.6796 -2.9175 -1.8073
  793MOL0     H 4671  -0.371   0.371   9.522  2.5821  0.3167  1.3412
  793MOL0     H 4672  -0.425   0.075   9.555 -0.4564  1.4120  0.1128
  793MOL0     H 4673  -0.500   0.171   9.432 -1.1956  2.4040  2.2839
  793MOL0     H 4674  -0.170   0.126   9.209 -2.3304  0.1454 -0.4761
  793MOL0     H 4675  -0.550   0.810   9.671 -0.3481 -0.3623  0.8539
  793MOL0     H 4676  -0.371   0.980   9.707 -0.5631 -0.3572 -0.8975
  794MOL0     O 4677   9.624   8.814   3.722  0.1513 -0.2901 -0.1140
  794MOL0     C 4678   9.614   8.694   3.731 -0.1195  0.4614  0.1102
  794MOL0     O 4679   9.499   8.624   3.765  0.5572 -0.4705 -0.7750
  794MOL0     C 4680   9.378   8.684   3.770  0.1434  0.4464 -0.0977
  794MOL0     C 4681   9.329   8.809   3.701  0.3030  0.1247 -0.4584
  794MOL0     C 4682   9.197   8.836   3.692 -0.0045 -0.6721 -0.1791
  794MOL0     C 4683   9.097   8.759   3.755 -0.1339 -0.5447  0.2200
  794MOL0     O 4684   8.966   8.799   3.752  0.2504 -0.1859 -0.5937
  794MOL0     C 4685   8.877   8.696   3.717 -0.1409  0.2411  0.3124
  794MOL0     C 4686   8.738   8.752   3.754 -0.7013  0.5173  0.3692
  794MOL0     C 4687   8.627   8.648   3.724 -0.6073  0.4741 -0.2555
  794MOL0     C 4688   8.490   8.708   3.763  0.3551 -0.5229 -0.2497
  794MOL0     C 4689   8.380   8.606   3.721 -0.1781 -0.7290  0.7884
  794MOL0     C 4690   8.247   8.627   3.790 -0.2084 -0.6756  0.1501
  794MOL0     C 4691   8.133   8.591   3.700 -0.7644  0.0574  0.7129
  794MOL0     C 4692   8.001   8.620   3.769  0.6186 -0.1515  0.9426
  794MOL0     N 4693   7.890   8.534   3.722 -0.1042  0.1348  0.2691
  794MOL0     C 4694   7.854   8.520   3.588  0.8827 -0.0309  0.1545
  794MOL0     C 4695   7.754   8.430   3.591  0.1867 -0.0611 -0.2456
  794MOL0     C 4696   7.672   8.421   3.469 -0.1191  0.4065 -0.5598
  794MOL0     C 4697   7.600   8.290   3.439 -0.2458  0.3078  0.1081
  794MOL0     C 4698   7.509   8.325   3.320  0.4414  0.0230  0.2603
  794MOL0     C 4699   7.392   8.233   3.285  0.2457  0.2624  0.1832
  794MOL0     O 4700   7.326   8.198   3.416  0.1221 -0.0732  0.5625
  794MOL0     C 4701   7.207   8.123   3.404 -0.4044  0.0526  0.2956
  794MOL0     C 4702   7.128   8.111   3.514 -1.0307  0.2777 -0.8932
  794MOL0     C 4703   7.023   8.028   3.512 -0.7460  0.0379 -0.0670
  794MOL0     C 4704   6.987   7.946   3.400  0.8272 -1.2440 -0.6955
  794MOL0     C 4705   6.857   7.871   3.386  0.0792 -0.2773 -0.6065
  794MOL0     O 4706   6.792   7.838   3.505 -0.2321 -0.0229 -0.3027
  794MOL0     C 4707   6.670   7.771   3.509 -0.0844  0.7003  0.9528
  794MOL0     C 4708   6.567   7.816   3.589  0.7150 -0.2232  0.6229
  794MOL0     C 4709   6.437   7.767   3.569  0.3779 -0.4394 -0.3054
  794MOL0     C 4710   6.409   7.656   3.482 -0.4063  0.3836 -0.1265
  794MOL0     O 4711   6.289   7.607   3.454  0.6481 -0.2221  0.8992
  794MOL0     C 4712   6.169   7.646   3.525 -0.0916 -0.6812 -1.1765
  794MOL0     C 4713   6.063   7.532   3.525 -0.3770 -0.1446  0.1691
  794MOL0     C 4714   5.975   7.515   3.400 -0.5290 -0.4744 -0.3686
  794MOL0     C 4715   5.862   7.413   3.437 -0.3627 -0.9116 -0.1499
  794MOL0     C 4716   5.779   7.380   3.319 -1.0794 -0.3928  0.8529
  794MOL0     C 4717   5.681   7.266   3.345  0.0732 -0.1463 -0.3900
  794MOL0     C 4718   5.609   7.220   3.212  0.1341  0.0265 -0.2386
  794MOL0     C 4719   5.512   7.112   3.246  0.0419  0.2472  0.1595
  794MOL0    Cl 4720   5.458   7.038   3.090  0.3379 -0.3417 -0.4727
  794MOL0     C 4721   6.512   7.610   3.406 -0.2734 -0.0792 -0.2271
  794MOL0     C 4722   6.638   7.669   3.416  0.1007  0.4099 -1.1712
  794MOL0     O 4723   6.814   7.854   3.273  0.2090  0.0811  0.1666
  794MOL0     C 4724   7.072   7.946   3.294 -0.4774  0.9047  0.0923
  794MOL0     C 4725   7.172   8.047   3.289  0.9418  0.1308  0.4496
  794MOL0     N 4726   7.734   8.394   3.725  0.7120  0.3044  0.1925
  794MOL0     N 4727   7.815   8.452   3.801 -0.4067 -0.0199  0.7122
  794MOL0     C 4728   9.145   8.646   3.827  0.0179 -0.1301  0.5624
  794MOL0     C 4729   9.278   8.604   3.830  0.0489 -1.1320  0.9313
  794MOL0     C 4730   9.736   8.600   3.706 -0.1167 -0.5378  0.6966
  794MOL0     C 4731   9.718   8.456   3.713 -0.0644  0.6842  0.4869
  794MOL0     C 4732   9.825   8.368   3.694 -0.2347  0.3453 -0.5491
  794MOL0     C 4733   9.948   8.422   3.650 -0.0689  0.0824  0.5732
  794MOL0     O 4734  10.060   8.351   3.647 -0.1380  0.9866  0.7020
  794MOL0     C 4735  10.069   8.216   3.580  0.8406  0.6831  0.7538
  794MOL0     C 4736  10.019   8.219   3.435  0.1031  0.2665  0.8483
  794MOL0     C 4737  10.060   8.082   3.373 -0.0266  0.2456  0.4035
  794MOL0     C 4738   9.958   8.031   3.268  1.6506  0.2190  0.1788
  794MOL0     C 4739   9.828   8.006   3.334 -0.1643 -0.4526 -0.2826
  794MOL0     C 4740   9.728   7.963   3.369 -0.4910  0.5127 -0.1652
  794MOL0     C 4741   9.971   8.559   3.646 -0.0493 -1.2944  0.4411
  794MOL0     C 4742   9.868   8.654   3.687 -0.3571  0.8040 -0.2078
  794MOL0     H 4743   9.399   8.874   3.650  1.0494 -0.4287 -0.1619
  794MOL0     H 4744   9.165   8.908   3.618 -0.9938 -0.4923  0.4078
  794MOL0     H 4745   8.894   8.599   3.764 -1.0686 -0.8736 -1.4969
  794MOL0     H 4746   8.871   8.677   3.609  0.8516  4.0090 -0.5573
  794MOL0     H 4747   8.712   8.844   3.701 -2.3508 -0.6841 -1.0051
  794MOL0     H 4748   8.747   8.776   3.860  1.6191  2.1731 -0.1286
  794MOL0     H 4749   8.660   8.567   3.791 -1.2385  1.3994  1.2346
  794MOL0     H 4750   8.623   8.623   3.618  1.0945 -0.9316 -0.0383
  794MOL0     H 4751   8.496   8.726   3.870  0.6581  2.8147 -0.7481
  794MOL0     H 4752   8.471   8.802   3.710 -4.7002 -1.1932 -0.1347
  794MOL0     H 4753   8.421   8.505   3.737  3.0953 -0.1442 -2.4087
  794MOL0     H 4754   8.362   8.621   3.614 -0.1594 -0.2329  0.8545
  794MOL0     H 4755   8.236   8.732   3.821 -1.2307 -1.0780  1.2691
  794MOL0     H 4756   8.242   8.574   3.886  0.2898  0.3453  0.7517
  794MOL0     H 4757   8.132   8.657   3.613 -1.3443 -0.0534  0.6321
  794MOL0     H 4758   8.134   8.488   3.661 -0.4746  1.1337 -2.3915
  794MOL0     H 4759   7.978   8.726   3.756  0.9557 -0.3982 -2.4796
  794MOL0     H 4760   8.006   8.599   3.876 -1.6195 -0.2185  1.0849
  794MOL0     H 4761   7.898   8.566   3.500  1.6797  0.3092  0.7185
  794MOL0     H 4762   7.737   8.434   3.382  0.8164 -0.1700  0.0269
  794MOL0     H 4763   7.602   8.504   3.469  0.4461  0.9119  0.7039
  794MOL0     H 4764   7.542   8.252   3.524 -1.5029 -1.6415 -1.5289
  794MOL0     H 4765   7.673   8.211   3.421 -2.0590 -1.2663 -0.7392
  794MOL0     H 4766   7.461   8.421   3.344 -0.2460 -0.7316  2.1049
  794MOL0     H 4767   7.576   8.346   3.237 -0.3111  3.6800  0.3746
  794MOL0     H 4768   7.421   8.140   3.234 -2.4106 -0.6011  0.0675
  794MOL0     H 4769   7.322   8.288   3.221  0.1199  1.3491  1.2109
  794MOL0     H 4770   7.162   8.161   3.605  1.7470  1.3542 -2.4043
  794MOL0     H 4771   6.973   8.039   3.608  1.0145  0.2518  0.8689
  794MOL0     H 4772   6.594   7.899   3.653 -1.1456  0.4324  0.6000
  794MOL0     H 4773   6.366   7.818   3.633  1.3873 -0.4996  0.9200
  794MOL0     H 4774   6.127   7.737   3.483 -2.5088 -0.4530  1.4086
  794MOL0     H 4775   6.193   7.668   3.630  1.1902 -2.6289 -0.9952
  794MOL0     H 4776   5.995   7.550   3.609 -1.1792  0.0242 -0.4978
  794MOL0     H 4777   6.113   7.439   3.552 -1.0670 -1.0665 -1.5275
  794MOL0     H 4778   6.044   7.482   3.321  1.6585 -0.0280  1.2571
  794MOL0     H 4779   5.932   7.612   3.374 -2.4994 -0.8768  1.1804
  794MOL0     H 4780   5.921   7.338   3.490  1.7138  0.8566  0.1527
  794MOL0     H 4781   5.794   7.461   3.508 -1.0950 -2.1693  0.0499
  794MOL0     H 4782   5.841   7.354   3.234  1.0942  3.4696  1.0460
  794MOL0     H 4783   5.722   7.470   3.293  0.6906  0.1740 -1.3522
  794MOL0     H 4784   5.609   7.303   3.419 -0.5585 -0.8856 -0.6140
  794MOL0     H 4785   5.730   7.183   3.396  2.6998  1.9865  0.7504
  794MOL0     H 4786   5.572   7.311   3.165 -0.1054 -0.5003 -1.0991
  794MOL0     H 4787   5.678   7.185   3.135 -1.9440  0.2327 -2.2995
  794MOL0     H 4788   5.426   7.152   3.300 -1.8902  1.9900 -3.7983
  794MOL0     H 4789   5.557   7.030   3.302 -2.2487 -2.1161 -1.2219
  794MOL0     H 4790   6.494   7.527   3.339  0.7678 -0.4964 -0.0077
  794MOL0     H 4791   6.717   7.650   3.344  0.3796 -0.2773 -0.6905
  794MOL0     H 4792   7.058   7.885   3.206 -2.9121  2.5769 -0.7924
  794MOL0     H 4793   7.232   8.057   3.199  1.1168  1.0430  0.6618
  794MOL0     H 4794   9.065   8.589   3.873  0.3187  0.3956  1.7699
  794MOL0     H 4795   9.310   8.516   3.885 -0.8107 -2.2211 -0.2459
  794MOL0     H 4796   9.627   8.409   3.750  0.7041 -0.8182  0.5689
  794MOL0     H 4797   9.809   8.263   3.715  3.1308 -0.7952 -2.8779
  794MOL0     H 4798  10.001   8.147   3.631 -0.6615 -1.1031 -3.2300
  794MOL0     H 4799  10.166   8.165   3.575 -1.2672 -3.9923  1.6484
  794MOL0     H 4800   9.911   8.235   3.442  0.0708 -0.0550  1.1567
  794MOL0     H 4801  10.066   8.303   3.384 -0.1733  0.0559  0.2436
  794MOL0     H 4802  10.074   7.999   3.443  2.1881  2.0425  2.2664
  794MOL0     H 4803  10.158   8.093   3.324 -1.8326 -2.9490 -4.7195
  794MOL0     H 4804   9.943   8.112   3.196  0.1139 -1.6871 -1.7906
  794MOL0     H 4805   9.986   7.939   3.216 -1.9322 -0.4160 -0.9482
  794MOL0     H 4806   9.633   7.925   3.401 -0.7197 -0.5624 -2.0290
  794MOL0     H 4807  10.071   8.593   3.622  0.0432 -1.1587  1.0084
  794MOL0     H 4808   9.881   8.760   3.702 -0.5143  0.9663 -1.1505
  795MOL0     O 4809   0.125   7.389   5.934 -0.2705  0.1730 -0.5536
  795MOL0     C 4810   0.125   7.279   5.994 -0.8382 -0.3383 -0.0188
  795MOL0     O 4811   0.021   7.196   6.015 -0.0364  0.2355 -0.1392
  795MOL0     C 4812  -0.104   7.226   5.978  0.6368  0.8812  0.0026
  795MOL0     C 4813  -0.139   7.296   5.862 -0.2070  0.4817  0.3229
  795MOL0     C 4814  -0.275   7.312   5.829  0.4544  0.4357  0.0397
  795MOL0     C 4815  -0.377   7.257   5.904 -0.0214  0.2120 -0.2870
  795MOL0     O 4816  -0.508   7.283   5.901 -0.4918 -0.0622 -0.3756
  795MOL0     C 4817  -0.571   7.326   5.775 -0.1030 -0.0981 -0.6980
  795MOL0     C 4818  -0.729   7.323   5.773 -0.1480 -0.5687  0.0703
  795MOL0     C 4819  -0.792   7.448   5.826 -0.2261 -0.3811 -0.1864
  795MOL0     C 4820  -0.940   7.431   5.860 -0.2602  0.8998 -0.7552
  795MOL0     C 4821  -0.997   7.560   5.927 -0.6219  0.0213 -0.1330
  795MOL0     C 4822  -1.154   7.562   5.919 -0.0255 -0.1238  0.5023
  795MOL0     C 4823  -1.212   7.703   5.938  0.1368  0.1091 -0.4183
  795MOL0     C 4824  -1.166   7.768   6.072  0.2245 -0.5911 -0.1043
  795MOL0     N 4825  -1.287   7.786   6.150  0.2441  0.2588  0.8128
  795MOL0     C 4826  -1.346   7.909   6.168 -0.2736  0.3804 -0.4916
  795MOL0     C 4827  -1.448   7.885   6.255  0.4149 -0.5442  0.6554
  795MOL0     C 4828  -1.552   7.984   6.301 -0.5313  0.5862 -0.1817
  795MOL0     C 4829  -1.695   7.934   6.285  0.1077 -0.7932  0.9645
  795MOL0     C 4830  -1.776   8.058   6.330 -0.3876 -0.0980  0.5991
  795MOL0     C 4831  -1.906   8.059   6.260 -0.3376 -0.3794 -0.2951
  795MOL0     O 4832  -1.985   8.154   6.329  0.3882  0.3373 -0.2818
  795MOL0     C 4833  -2.121   8.140   6.315  0.0163 -0.1846  0.3362
  795MOL0     C 4834  -2.197   8.071   6.222 -0.8651  0.0613  0.1046
  795MOL0     C 4835  -2.332   8.092   6.212 -0.2959 -1.2044  0.2660
  795MOL0     C 4836  -2.403   8.169   6.305 -0.3006  0.8205 -0.6496
  795MOL0     C 4837  -2.550   8.189   6.302 -0.5479 -0.2247  0.0951
  795MOL0     O 4838  -2.603   8.287   6.377  0.9143 -0.3791 -0.3001
  795MOL0     C 4839  -2.727   8.276   6.447  0.1068  0.1462  0.3266
  795MOL0     C 4840  -2.851   8.237   6.384  0.3439  0.1561  0.5611
  795MOL0     C 4841  -2.968   8.233   6.459  0.1959  0.2657 -0.6285
  795MOL0     C 4842  -2.968   8.278   6.590  0.4069 -0.2523  0.5475
  795MOL0     O 4843  -3.081   8.263   6.666 -0.3262 -0.3082 -0.0044
  795MOL0     C 4844  -3.093   8.320   6.798  1.1309 -0.7112 -0.3863
  795MOL0     C 4845  -3.238   8.314   6.854 -0.5256 -0.3348 -0.0126
  795MOL0     C 4846  -3.283   8.169   6.848  0.1500  0.3590  0.3388
  795MOL0     C 4847  -3.435   8.156   6.857 -0.4335  0.3573  0.1220
  795MOL0     C 4848  -3.472   8.011   6.847 -0.1693  0.4050 -0.1426
  795MOL0     C 4849  -3.616   7.988   6.869  0.1139  0.1259  0.6189
  795MOL0     C 4850  -3.643   7.836   6.852  0.2267 -0.3562 -0.6111
  795MOL0     C 4851  -3.785   7.797   6.782  0.8948  0.0017 -0.1966
  795MOL0    Cl 4852  -3.928   7.855   6.874  0.0604 -0.7331 -0.5810
  795MOL0     C 4853  -2.845   8.318   6.647  0.3212 -0.0082  0.3938
  795MOL0     C 4854  -2.724   8.322   6.573 -0.1442  0.1679 -0.2095
  795MOL0     O 4855  -2.613   8.107   6.238  0.9179 -0.2461 -0.3118
  795MOL0     C 4856  -2.325   8.247   6.395 -0.8722  0.3555  0.0248
  795MOL0     C 4857  -2.180   8.234   6.396  0.5707 -0.1762 -0.3986
  795MOL0     N 4858  -1.444   7.754   6.297  0.1246  0.6459 -0.2636
  795MOL0     N 4859  -1.347   7.699   6.229  0.7041  0.2576 -0.0347
  795MOL0     C 4860  -0.346   7.185   6.021  0.2662 -0.3592  1.0294
  795MOL0     C 4861  -0.204   7.158   6.055  0.3740 -0.1718 -0.1716
  795MOL0     C 4862   0.252   7.225   6.055 -0.4062 -0.3645 -0.1419
  795MOL0     C 4863   0.374   7.272   6.009  0.1938  0.4363 -0.4944
  795MOL0     C 4864   0.490   7.221   6.053 -1.4150 -0.0735  0.0960
  795MOL0     C 4865   0.494   7.127   6.151 -0.0922  0.8689 -0.5768
  795MOL0     O 4866   0.618   7.070   6.170  0.3263 -0.5671  0.3691
  795MOL0     C 4867   0.613   6.939   6.224  0.3670 -0.0870  0.5258
  795MOL0     C 4868   0.732   6.853   6.181 -0.1951 -0.6854 -0.3410
  795MOL0     C 4869   0.761   6.734   6.281 -0.5418 -0.6778 -0.8549
  795MOL0     C 4870   0.656   6.624   6.280 -0.2936 -0.7140 -0.0300
  795MOL0     C 4871   0.615   6.592   6.150  0.4241  1.1406  0.4869
  795MOL0     C 4872   0.605   6.560   6.034 -0.6276  0.3114 -0.3094
  795MOL0     C 4873   0.374   7.076   6.201 -0.1926  0.7074  0.2132
  795MOL0     C 4874   0.258   7.127   6.160  0.3808  0.5517 -0.3687
  795MOL0     H 4875  -0.071   7.347   5.795  0.5070  0.3602  0.9464
  795MOL0     H 4876  -0.292   7.377   5.744  0.3901 -0.1774 -0.4257
  795MOL0     H 4877  -0.543   7.268   5.687  0.2153  2.9779 -2.7734
  795MOL0     H 4878  -0.530   7.426   5.758 -0.0212  0.6452  3.1273
  795MOL0     H 4879  -0.759   7.228   5.820  0.6524 -2.2027 -2.5295
  795MOL0     H 4880  -0.767   7.306   5.672 -1.3526  0.0422  0.3992
  795MOL0     H 4881  -0.773   7.521   5.747  2.5458 -2.9413 -2.0852
  795MOL0     H 4882  -0.734   7.482   5.912 -2.6805  3.0467  0.3509
  795MOL0     H 4883  -0.989   7.398   5.768  1.4791 -1.1620 -1.0198
  795MOL0     H 4884  -0.956   7.347   5.928 -1.6640  2.5436  1.0865
  795MOL0     H 4885  -0.953   7.646   5.876  0.1323 -0.8111 -0.9439
  795MOL0     H 4886  -0.967   7.552   6.032 -1.7815  1.6912  0.3504
  795MOL0     H 4887  -1.207   7.493   5.986 -1.5618  2.7813  2.5167
  795MOL0     H 4888  -1.182   7.531   5.818  0.4712  0.7901  0.0686
  795MOL0     H 4889  -1.170   7.770   5.862  0.1448  1.0462  0.3954
  795MOL0     H 4890  -1.319   7.707   5.918  0.0853 -0.3255 -0.2395
  795MOL0     H 4891  -1.113   7.861   6.050  0.1765 -0.9395 -1.8238
  795MOL0     H 4892  -1.090   7.699   6.110  0.1412 -2.6689 -3.3141
  795MOL0     H 4893  -1.327   7.994   6.104  0.7764  1.0104  0.6044
  795MOL0     H 4894  -1.531   8.082   6.256  0.1700  0.7760  0.5308
  795MOL0     H 4895  -1.525   8.001   6.406  0.6785 -0.2127 -0.3468
  795MOL0     H 4896  -1.712   7.845   6.345 -1.1353 -0.4120  1.2027
  795MOL0     H 4897  -1.716   7.911   6.180 -0.2717 -0.5078  0.9754
  795MOL0     H 4898  -1.794   8.054   6.438 -0.6183  0.3446  0.5758
  795MOL0     H 4899  -1.730   8.155   6.310 -2.0568  0.6238  0.1121
  795MOL0     H 4900  -1.955   7.961   6.267 -0.2273 -0.3549  1.1726
  795MOL0     H 4901  -1.890   8.085   6.155 -0.1758 -0.6704 -0.3449
  795MOL0     H 4902  -2.152   8.000   6.153 -1.7146 -0.2196 -0.1760
  795MOL0     H 4903  -2.391   8.053   6.129 -0.6591  3.2332 -1.8188
  795MOL0     H 4904  -2.865   8.185   6.289 -0.4215 -2.1610  1.8554
  795MOL0     H 4905  -3.050   8.174   6.421 -0.2700 -0.7774  1.7945
  795MOL0     H 4906  -3.066   8.426   6.796  2.4234 -0.9498  1.7825
  795MOL0     H 4907  -3.020   8.272   6.863  0.6707 -0.5013  0.3002
  795MOL0     H 4908  -3.312   8.375   6.802 -0.5867  0.5667  1.0996
  795MOL0     H 4909  -3.238   8.350   6.957 -0.1492 -1.5050  0.4114
  795MOL0     H 4910  -3.239   8.121   6.936 -0.6690 -1.7474 -0.3277
  795MOL0     H 4911  -3.242   8.119   6.759  3.2740  1.0922  1.2480
  795MOL0     H 4912  -3.459   8.204   6.953  2.0835  0.2227  0.8974
  795MOL0     H 4913  -3.478   8.215   6.776  0.5092  1.3249  0.2986
  795MOL0     H 4914  -3.413   7.962   6.925  1.4720  0.9603 -1.0104
  795MOL0     H 4915  -3.452   7.976   6.745 -1.2052  3.1567 -1.3717
  795MOL0     H 4916  -3.673   8.042   6.792 -0.7059 -2.3655 -0.6051
  795MOL0     H 4917  -3.645   8.023   6.968 -1.4680 -0.8005  0.5127
  795MOL0     H 4918  -3.577   7.793   6.776  1.0442  0.4470 -0.3771
  795MOL0     H 4919  -3.626   7.789   6.949  1.4622  2.1510  0.4664
  795MOL0     H 4920  -3.790   7.688   6.771  0.4986 -0.2949  2.3617
  795MOL0     H 4921  -3.786   7.852   6.688  5.2541  0.7321 -0.0209
  795MOL0     H 4922  -2.833   8.340   6.752 -0.0264 -1.0863  0.6699
  795MOL0     H 4923  -2.630   8.364   6.607 -0.9315  0.6485  1.5237
  795MOL0     H 4924  -2.389   8.317   6.448 -1.2376 -0.5779  0.8396
  795MOL0     H 4925  -2.121   8.313   6.441 -0.9845  0.8092 -0.0218
  795MOL0     H 4926  -0.427   7.161   6.089 -2.6412  2.2882 -1.1639
  795MOL0     H 4927  -0.178   7.092   6.137  0.4323 -1.1155 -0.9268
  795MOL0     H 4928   0.388   7.358   5.943  0.2574  2.1885  1.6854
  795MOL0     H 4929   0.585   7.257   6.015 -1.7531  2.4749  1.4371
  795MOL0     H 4930   0.524   6.885   6.189 -1.0862  1.3186  1.8650
  795MOL0     H 4931   0.598   6.953   6.331 -1.6415 -4.8642  1.1209
  795MOL0     H 4932   0.715   6.819   6.078 -2.0196  1.6146 -0.8669
  795MOL0     H 4933   0.818   6.919   6.193 -2.5484  2.2404  2.0762
  795MOL0     H 4934   0.747   6.772   6.383 -1.0449 -0.8034 -0.8774
  795MOL0     H 4935   0.868   6.712   6.272 -0.4454 -0.6714  0.1410
  795MOL0     H 4936   0.704   6.531   6.311  3.0373  0.6466 -0.6785
  795MOL0     H 4937   0.568   6.660   6.334  0.7431  0.8880  0.6697
  795MOL0     H 4938   0.581   6.527   5.935  0.3459  2.0996 -1.1942
  795MOL0     H 4939   0.384   7.013   6.290 -1.2161  0.4861  0.1822
  795MOL0     H 4940   0.167   7.082   6.200 -0.0944  0.3047 -1.6777
  796MOL0     O 4941   2.071   5.096   1.723 -0.1620 -0.5058  0.0406
  796MOL0     C 4942   2.134   5.122   1.618  0.5644 -0.8152 -0.2722
  796MOL0     O 4943   2.098   5.088   1.494  0.4406 -0.7809 -0.3776
  796MOL0     C 4944   1.959   5.074   1.469 -0.8880 -0.2423  1.4896
  796MOL0     C 4945   1.883   4.971   1.528  0.3618  0.1406  0.4265
  796MOL0     C 4946   1.749   4.969   1.510  0.5283  0.2896 -0.1551
  796MOL0     C 4947   1.671   5.067   1.443 -0.0198 -0.3535  0.5077
  796MOL0     O 4948   1.536   5.066   1.425  0.2505  0.2183 -0.1160
  796MOL0     C 4949   1.458   5.178   1.379  0.6076 -0.5006  0.7589
  796MOL0     C 4950   1.323   5.158   1.445 -0.0763  0.4994  0.0133
  796MOL0     C 4951   1.228   5.279   1.417  0.4532 -0.7862 -0.3977
  796MOL0     C 4952   1.100   5.251   1.491 -0.2040  0.4235  0.0609
  796MOL0     C 4953   1.002   5.362   1.457 -0.1018  0.9822  0.2085
  796MOL0     C 4954   0.862   5.330   1.511  0.1828  0.0065  0.8928
  796MOL0     C 4955   0.776   5.224   1.427 -1.0741 -0.3695 -0.3204
  796MOL0     C 4956   0.753   5.267   1.281 -0.8093 -0.7415  0.4735
  796MOL0     N 4957   0.709   5.406   1.279  0.2763 -0.7853 -0.8317
  796MOL0     C 4958   0.597   5.459   1.324 -0.3687 -0.3670 -0.3030
  796MOL0     C 4959   0.610   5.589   1.314  0.9513 -0.0609  1.0283
  796MOL0     C 4960   0.506   5.679   1.375 -0.7231  0.2697  0.3215
  796MOL0     C 4961   0.576   5.810   1.378 -1.2468  0.2783 -0.8124
  796MOL0     C 4962   0.487   5.913   1.439  0.1153  0.1793 -0.2015
  796MOL0     C 4963   0.442   5.908   1.591 -0.3826 -0.2092  0.4492
  796MOL0     O 4964   0.390   6.036   1.621  0.6450  0.0035  0.3206
  796MOL0     C 4965   0.259   6.076   1.596  0.1883  0.4889 -0.0406
  796MOL0     C 4966   0.247   6.207   1.539 -0.4663 -0.1418  0.0794
  796MOL0     C 4967   0.121   6.258   1.518  0.1048 -0.3662  0.6156
  796MOL0     C 4968   0.008   6.189   1.559 -0.2340 -0.1197  0.2358
  796MOL0     C 4969  -0.134   6.246   1.554 -0.6494 -0.0412  0.1345
  796MOL0     O 4970  -0.150   6.368   1.495  1.6355 -0.0334 -0.3387
  796MOL0     C 4971  -0.282   6.416   1.488  0.2217  0.3540  0.6590
  796MOL0     C 4972  -0.333   6.473   1.602  0.8106 -0.4721  0.3502
  796MOL0     C 4973  -0.472   6.497   1.605 -0.0108  0.3571  1.1272
  796MOL0     C 4974  -0.557   6.473   1.494  0.7135 -1.3432 -0.0520
  796MOL0     O 4975  -0.685   6.515   1.487 -0.3259  0.2444  0.1302
  796MOL0     C 4976  -0.784   6.440   1.561 -0.4977 -0.6149  0.1112
  796MOL0     C 4977  -0.915   6.501   1.551 -0.0724 -0.2540 -0.1792
  796MOL0     C 4978  -1.018   6.425   1.642  0.2622  0.2522  0.2496
  796MOL0     C 4979  -1.163   6.478   1.619  0.1216  0.3924 -0.2217
  796MOL0     C 4980  -1.261   6.389   1.699 -0.2116 -0.5872  0.7780
  796MOL0     C 4981  -1.411   6.422   1.677 -0.4594 -0.3236 -0.2958
  796MOL0     C 4982  -1.509   6.346   1.771 -0.4270 -0.1937 -0.1811
  796MOL0     C 4983  -1.518   6.192   1.742  0.4517 -0.3799 -0.3249
  796MOL0    Cl 4984  -1.603   6.184   1.582 -0.1013 -0.0402 -0.5138
  796MOL0     C 4985  -0.495   6.422   1.379  0.2318 -0.6698  0.0605
  796MOL0     C 4986  -0.364   6.390   1.378 -0.7146 -0.1341 -0.9019
  796MOL0     O 4987  -0.220   6.172   1.598  0.8216 -0.2707  0.6234
  796MOL0     C 4988   0.020   6.056   1.588  0.2313  0.0088 -0.0130
  796MOL0     C 4989   0.147   6.000   1.617 -0.4215 -0.1608 -0.3027
  796MOL0     N 4990   0.723   5.620   1.252 -0.0135  0.0082 -0.1922
  796MOL0     N 4991   0.788   5.511   1.229  0.2086 -0.1795 -0.6012
  796MOL0     C 4992   1.755   5.172   1.395 -0.1298 -0.4334  0.0194
  796MOL0     C 4993   1.890   5.177   1.400 -0.3847  0.6064 -0.3569
  796MOL0     C 4994   2.266   5.181   1.638 -0.7365  0.1075  0.8488
  796MOL0     C 4995   2.346   5.213   1.527 -0.6003  0.3180 -0.7938
  796MOL0     C 4996   2.481   5.259   1.546 -0.2108 -0.5919  0.4946
  796MOL0     C 4997   2.537   5.278   1.671  0.1036 -0.1154  0.4805
  796MOL0     O 4998   2.658   5.323   1.693 -0.1163 -0.5205 -0.1447
  796MOL0     C 4999   2.749   5.351   1.586 -0.2284 -0.5521  0.2973
  796MOL0     C 5000   2.884   5.407   1.640  0.1851  0.5130  0.6059
  796MOL0     C 5001   3.004   5.412   1.542  0.2714 -0.2597  0.0879
  796MOL0     C 5002   3.009   5.547   1.460  0.2444  0.4620  0.0766
  796MOL0     C 5003   3.043   5.661   1.546 -0.6147 -0.7970 -0.0923
  796MOL0     C 5004   3.074   5.757   1.609  0.3643  0.2268  0.1421
  796MOL0     C 5005   2.455   5.257   1.782  0.3786 -0.0571  0.0021
  796MOL0     C 5006   2.332   5.193   1.763  0.4763  0.0297  0.1839
  796MOL0     H 5007   1.942   4.902   1.588  1.9254  1.3160  0.3193
  796MOL0     H 5008   1.696   4.886   1.554 -0.0294  0.0548 -1.2554
  796MOL0     H 5009   1.451   5.182   1.269 -2.7895 -2.2509  0.7557
  796MOL0     H 5010   1.489   5.279   1.406 -2.4669  0.7164  0.1522
  796MOL0     H 5011   1.331   5.151   1.553  0.1608  1.5943  0.0813
  796MOL0     H 5012   1.279   5.068   1.403 -0.7090  0.2901  1.1006
  796MOL0     H 5013   1.192   5.284   1.314 -0.2058  1.5820 -0.1133
  796MOL0     H 5014   1.267   5.374   1.454 -2.0193  0.2248 -0.1926
  796MOL0     H 5015   1.063   5.157   1.449  0.1721 -0.5089  1.7001
  796MOL0     H 5016   1.109   5.224   1.597 -2.2596 -0.9393 -0.0430
  796MOL0     H 5017   0.997   5.382   1.350  2.6263  0.3778 -0.0942
  796MOL0     H 5018   1.040   5.454   1.504  0.8890  0.9735 -0.5588
  796MOL0     H 5019   0.811   5.426   1.523 -0.3192 -0.4047  2.2009
  796MOL0     H 5020   0.869   5.295   1.614  2.7145 -0.9934  0.4566
  796MOL0     H 5021   0.832   5.130   1.420 -0.6919 -0.1862  0.2247
  796MOL0     H 5022   0.681   5.202   1.475 -1.7497  1.7981 -0.5764
  796MOL0     H 5023   0.684   5.203   1.224 -1.7153  0.1064  0.5967
  796MOL0     H 5024   0.846   5.284   1.225  0.1696  0.3736  2.3426
  796MOL0     H 5025   0.512   5.412   1.371 -0.0458  0.0436  0.7132
  796MOL0     H 5026   0.477   5.649   1.476  0.5784  0.3003  0.7216
  796MOL0     H 5027   0.422   5.671   1.305  0.2870 -1.7618 -0.7562
  796MOL0     H 5028   0.610   5.836   1.277 -1.0845  0.7141 -0.6455
  796MOL0     H 5029   0.667   5.804   1.437  0.2222  1.6015 -2.8038
  796MOL0     H 5030   0.552   5.999   1.455  2.2135 -1.7902  3.1244
  796MOL0     H 5031   0.402   5.924   1.372  2.1163 -1.4995 -3.2712
  796MOL0     H 5032   0.530   5.886   1.654  0.4003 -0.4845 -0.7174
  796MOL0     H 5033   0.372   5.830   1.623 -0.2985 -0.9745 -1.1687
  796MOL0     H 5034   0.338   6.253   1.502  0.2287  0.4905  2.3701
  796MOL0     H 5035   0.110   6.361   1.485 -1.6268 -0.5588  0.5057
  796MOL0     H 5036  -0.263   6.489   1.684  2.3535  1.8211 -1.3019
  796MOL0     H 5037  -0.518   6.547   1.690 -2.1435 -0.0821  0.2988
  796MOL0     H 5038  -0.742   6.437   1.662 -0.0673  2.0897  0.0866
  796MOL0     H 5039  -0.789   6.339   1.518  1.1756 -0.4226 -0.6015
  796MOL0     H 5040  -0.935   6.499   1.444  1.7629  2.8386 -0.7257
  796MOL0     H 5041  -0.919   6.609   1.570  2.7363 -0.1348  0.2596
  796MOL0     H 5042  -0.985   6.449   1.744 -0.0998  1.6584  0.0624
  796MOL0     H 5043  -1.020   6.322   1.605 -2.2149  1.0756 -2.2814
  796MOL0     H 5044  -1.178   6.583   1.647 -2.5845  0.2424 -0.8499
  796MOL0     H 5045  -1.200   6.468   1.517  0.7892 -0.3770 -0.3982
  796MOL0     H 5046  -1.240   6.397   1.806  1.5653  1.1409  0.3573
  796MOL0     H 5047  -1.251   6.282   1.679 -3.4122 -1.2417  2.1046
  796MOL0     H 5048  -1.440   6.422   1.572 -1.9357  2.7731 -0.0192
  796MOL0     H 5049  -1.432   6.523   1.715 -2.7429 -1.5410  1.9861
  796MOL0     H 5050  -1.474   6.346   1.874  0.8892  2.9299 -0.4997
  796MOL0     H 5051  -1.600   6.404   1.792  0.6926  0.0421  5.2145
  796MOL0     H 5052  -1.581   6.131   1.807 -1.7971  0.3031 -1.7249
  796MOL0     H 5053  -1.418   6.149   1.746 -0.2002 -1.8329  1.4652
  796MOL0     H 5054  -0.558   6.409   1.291 -1.0954 -0.4343  0.9463
  796MOL0     H 5055  -0.311   6.336   1.300 -0.6026 -2.0549  0.4282
  796MOL0     H 5056  -0.073   6.002   1.604 -0.7310  1.4100 -0.6924
  796MOL0     H 5057   0.157   5.897   1.650  0.5946  0.5241  1.7111
  796MOL0     H 5058   1.709   5.260   1.350 -1.5301 -1.1211  0.0282
  796MOL0     H 5059   1.944   5.270   1.381 -2.7116  2.8249  2.7832
  796MOL0     H 5060   2.307   5.207   1.426 -0.4934  1.2454 -0.9030
  796MOL0     H 5061   2.534   5.280   1.454  0.3793 -2.0285  0.4808
  796MOL0     H 5062   2.711   5.433   1.525 -1.0371  0.3782  2.0119
  796MOL0     H 5063   2.764   5.266   1.518 -0.7332 -0.2279 -0.2229
  796MOL0     H 5064   2.862   5.506   1.683  3.3523  2.8578 -2.6137
  796MOL0     H 5065   2.916   5.347   1.726  0.2630  0.0280  0.2419
  796MOL0     H 5066   3.009   5.328   1.473 -1.2097 -1.7517  1.6837
  796MOL0     H 5067   3.098   5.404   1.597  0.5425 -0.6109 -0.4232
  796MOL0     H 5068   3.099   5.539   1.398  0.9596  0.8570  1.0275
  796MOL0     H 5069   2.920   5.571   1.401 -0.7033 -1.4029  0.6739
  796MOL0     H 5070   3.107   5.837   1.672 -0.9466  0.4508  0.5808
  796MOL0     H 5071   2.493   5.278   1.881 -0.3618  0.8141  0.1197
  796MOL0     H 5072   2.274   5.162   1.850 -1.4772  0.3053 -0.9711
  797MOL0     O 5073   6.256   8.742   6.901 -0.3645  0.4285  0.5698
  797MOL0     C 5074   6.286   8.653   6.972 -0.9908  0.6524 -0.4135
  797MOL0     O 5075   6.200   8.562   7.038  0.3069  0.4303  0.3034
  797MOL0     C 5076   6.068   8.565   7.004 -0.6553 -0.4731  0.4249
  797MOL0     C 5077   6.014   8.454   6.943  0.0542  0.0170 -0.1264
  797MOL0     C 5078   5.876   8.451   6.903  0.0029 -0.9675  0.2938
  797MOL0     C 5079   5.804   8.568   6.919  1.1942 -0.2999  0.5452
  797MOL0     O 5080   5.674   8.562   6.870 -0.4118 -0.3231 -0.7295
  797MOL0     C 5081   5.610   8.679   6.841  0.5461 -1.2523 -0.5466
  797MOL0     C 5082   5.510   8.661   6.726 -0.2415  0.1065 -0.0334
  797MOL0     C 5083   5.389   8.574   6.761  0.4146  0.0570 -0.0174
  797MOL0     C 5084   5.304   8.541   6.638  0.0986  0.5858 -0.2122
  797MOL0     C 5085   5.155   8.555   6.666  0.0210 -0.2354 -0.3060
  797MOL0     C 5086   5.067   8.499   6.551  0.4179 -0.0263 -0.6100
  797MOL0     C 5087   5.095   8.576   6.415  0.6141  0.3175 -0.4612
  797MOL0     C 5088   5.037   8.498   6.296 -0.7520 -0.4648  0.3038
  797MOL0     N 5089   4.893   8.491   6.283 -0.5489 -0.4304 -0.8197
  797MOL0     C 5090   4.807   8.433   6.379  0.3000  0.0649 -0.0541
  797MOL0     C 5091   4.680   8.436   6.323 -0.8011 -0.5340  0.0096
  797MOL0     C 5092   4.561   8.366   6.388  0.3570  0.1401  0.0403
  797MOL0     C 5093   4.486   8.273   6.296 -0.4612  0.7721 -1.3222
  797MOL0     C 5094   4.378   8.360   6.221 -0.2335  0.6014 -0.4808
  797MOL0     C 5095   4.289   8.278   6.128  1.3269 -1.3662 -0.3291
  797MOL0     O 5096   4.223   8.182   6.214 -0.3239 -0.0248  0.1047
  797MOL0     C 5097   4.104   8.126   6.179  0.8362 -0.6149 -0.5144
  797MOL0     C 5098   4.030   8.067   6.287  0.7117 -0.1809 -0.0269
  797MOL0     C 5099   3.906   8.014   6.257 -0.5548  0.8009  0.7880
  797MOL0     C 5100   3.851   8.012   6.128 -0.4477  0.2117  0.4526
  797MOL0     C 5101   3.718   7.950   6.109  0.2639 -0.1953  0.2024
  797MOL0     O 5102   3.675   7.865   6.208  0.4606  0.2950  0.6658
  797MOL0     C 5103   3.539   7.847   6.226  1.1026 -0.0842  0.3414
  797MOL0     C 5104   3.490   7.718   6.249 -0.3661  0.0183 -0.5826
  797MOL0     C 5105   3.355   7.692   6.266  0.3503 -0.2409  0.1522
  797MOL0     C 5106   3.258   7.794   6.261  0.6147  0.5411  0.0907
  797MOL0     O 5107   3.128   7.752   6.291  0.0195  0.1822 -0.3382
  797MOL0     C 5108   3.028   7.842   6.292  0.3132  0.6096 -0.1218
  797MOL0     C 5109   2.903   7.754   6.285 -0.1611  0.2519 -1.6228
  797MOL0     C 5110   2.789   7.843   6.270  0.3090 -0.3953 -0.0638
  797MOL0     C 5111   2.655   7.769   6.259 -0.6012 -0.7693  0.3815
  797MOL0     C 5112   2.542   7.849   6.204 -0.0660  0.1747 -0.1356
  797MOL0     C 5113   2.400   7.774   6.194 -0.1857  0.4944  0.3533
  797MOL0     C 5114   2.323   7.846   6.088  0.8753  0.0098 -0.3125
  797MOL0     C 5115   2.185   7.771   6.055 -0.2963 -0.1779  0.5554
  797MOL0    Cl 5116   2.082   7.765   6.201 -0.4790 -0.6708 -0.0552
  797MOL0     C 5117   3.303   7.925   6.239  1.0597 -0.1413 -0.0015
  797MOL0     C 5118   3.439   7.952   6.211 -0.0398  0.7887 -0.3035
  797MOL0     O 5119   3.655   7.992   6.009  0.1699 -0.4036  0.3089
  797MOL0     C 5120   3.925   8.071   6.026  0.2007 -0.0212 -0.0084
  797MOL0     C 5121   4.049   8.129   6.049  0.2216  0.0634  0.0608
  797MOL0     N 5122   4.691   8.493   6.197  0.5171 -0.4340  0.3572
  797MOL0     N 5123   4.812   8.528   6.172  0.0269 -0.9225  0.2418
  797MOL0     C 5124   5.856   8.679   6.990  0.3327  0.0630  0.8306
  797MOL0     C 5125   5.990   8.679   7.034 -0.4596  0.2762 -0.0557
  797MOL0     C 5126   6.429   8.625   7.006  0.2673 -0.5441 -0.0224
  797MOL0     C 5127   6.517   8.729   7.044  0.4457  0.5813  0.1115
  797MOL0     C 5128   6.648   8.711   7.082  0.9046  0.5313 -0.3737
  797MOL0     C 5129   6.695   8.582   7.106  0.8845 -0.9166 -0.1443
  797MOL0     O 5130   6.826   8.558   7.144 -0.3439  0.2148 -0.5589
  797MOL0     C 5131   6.881   8.646   7.250 -0.0404  0.3455 -0.5223
  797MOL0     C 5132   6.990   8.584   7.341 -0.3654  0.3849  0.1196
  797MOL0     C 5133   6.929   8.485   7.446  0.3054  0.0339 -0.3940
  797MOL0     C 5134   7.024   8.467   7.571  0.2003 -1.3101 -0.6958
  797MOL0     C 5135   7.140   8.383   7.527 -0.2522 -0.2982 -0.6931
  797MOL0     C 5136   7.239   8.322   7.504  0.0474 -0.9898  0.3448
  797MOL0     C 5137   6.616   8.466   7.073 -0.1953 -0.8009  0.1024
  797MOL0     C 5138   6.484   8.495   7.018 -0.9160 -0.9634 -0.4032
  797MOL0     H 5139   6.078   8.367   6.941 -1.6136 -1.2842  0.4147
  797MOL0     H 5140   5.837   8.376   6.836 -1.0523  2.3860 -3.2561
  797MOL0     H 5141   5.678   8.759   6.811  0.7607 -0.4619  1.9017
  797MOL0     H 5142   5.550   8.711   6.926 -1.2748 -4.4298 -0.4858
  797MOL0     H 5143   5.571   8.623   6.643  1.9489  1.4006  0.9055
  797MOL0     H 5144   5.473   8.753   6.680 -1.3648  0.0465  0.7230
  797MOL0     H 5145   5.328   8.612   6.844 -0.9410 -0.6234 -0.6730
  797MOL0     H 5146   5.426   8.482   6.808 -0.9157 -0.5543 -0.1278
  797MOL0     H 5147   5.334   8.605   6.554 -1.3628  1.7468  0.1121
  797MOL0     H 5148   5.329   8.438   6.612  1.3480  0.4716  1.3075
  797MOL0     H 5149   5.124   8.654   6.702 -1.3760 -0.9468  0.5339
  797MOL0     H 5150   5.134   8.494   6.754 -0.2707 -0.5520 -0.5941
  797MOL0     H 5151   4.963   8.525   6.574 -0.7030 -0.4721 -4.4544
  797MOL0     H 5152   5.083   8.393   6.528 -1.1127 -0.7601  1.4413
  797MOL0     H 5153   5.069   8.682   6.419  0.3499  0.3466 -2.0132
  797MOL0     H 5154   5.201   8.582   6.387  0.9021  0.1152  0.5521
  797MOL0     H 5155   5.082   8.398   6.301  3.9762  1.2064 -2.3134
  797MOL0     H 5156   5.076   8.540   6.203  1.1531 -2.5995  0.0658
  797MOL0     H 5157   4.836   8.388   6.473  2.0878 -2.0705 -1.5177
  797MOL0     H 5158   4.492   8.445   6.419 -0.8721 -0.0026 -2.1146
  797MOL0     H 5159   4.600   8.314   6.476 -2.4087 -0.5692  0.9530
  797MOL0     H 5160   4.428   8.203   6.355  0.5628  0.7786 -0.2621
  797MOL0     H 5161   4.552   8.210   6.235 -0.4886 -2.3259  1.6017
  797MOL0     H 5162   4.316   8.404   6.299  2.0237 -0.6814  2.2249
  797MOL0     H 5163   4.429   8.442   6.171  3.2447 -0.7113  0.5952
  797MOL0     H 5164   4.350   8.229   6.051 -1.8675 -1.0947 -3.2430
  797MOL0     H 5165   4.211   8.341   6.086  1.4589 -1.8938 -1.3757
  797MOL0     H 5166   4.076   8.048   6.383 -0.1913 -2.5475  0.0038
  797MOL0     H 5167   3.868   7.958   6.341  1.8035 -1.4238  0.4807
  797MOL0     H 5168   3.563   7.638   6.242 -0.0401  0.4562 -4.5942
  797MOL0     H 5169   3.311   7.595   6.287 -0.0239 -0.1392 -0.1482
  797MOL0     H 5170   3.040   7.906   6.205 -1.2179  1.3600  0.1830
  797MOL0     H 5171   3.027   7.908   6.380 -3.5276  0.6386 -0.0436
  797MOL0     H 5172   2.894   7.712   6.385  0.8032  3.0427 -0.2432
  797MOL0     H 5173   2.905   7.673   6.211  2.6350  0.4782 -1.9197
  797MOL0     H 5174   2.797   7.893   6.172  0.9130  0.5576  0.4536
  797MOL0     H 5175   2.785   7.929   6.338  0.4264  2.2511 -3.1500
  797MOL0     H 5176   2.660   7.682   6.192 -2.5985  0.2748 -1.2508
  797MOL0     H 5177   2.632   7.728   6.358 -0.6424 -2.0259 -0.1279
  797MOL0     H 5178   2.571   7.896   6.110  1.5620  1.7795  1.0977
  797MOL0     H 5179   2.521   7.937   6.265  1.2314  1.0475 -0.8880
  797MOL0     H 5180   2.346   7.781   6.289  0.3689  0.3200  0.6898
  797MOL0     H 5181   2.408   7.669   6.165 -2.2019 -0.0339  1.5023
  797MOL0     H 5182   2.299   7.949   6.118  1.6089  0.1718 -0.2784
  797MOL0     H 5183   2.376   7.847   5.993 -0.0771  0.9880 -0.8552
  797MOL0     H 5184   2.195   7.671   6.012  2.2081 -0.5290  1.7527
  797MOL0     H 5185   2.135   7.818   5.971 -0.6683  0.1061  0.9304
  797MOL0     H 5186   3.229   8.004   6.241  0.0144 -0.9464 -2.8144
  797MOL0     H 5187   3.459   8.054   6.180  2.0020  0.2626 -0.8352
  797MOL0     H 5188   3.882   8.078   5.927  1.2696 -0.8447 -0.5615
  797MOL0     H 5189   4.091   8.171   5.959  0.6878  0.0852  0.2852
  797MOL0     H 5190   5.792   8.763   7.016 -1.4096 -1.6289  2.3455
  797MOL0     H 5191   6.019   8.768   7.088 -3.4393  1.5988 -0.4005
  797MOL0     H 5192   6.474   8.829   7.047 -0.7609  0.0599  1.2819
  797MOL0     H 5193   6.716   8.793   7.103  1.8511 -0.1249 -0.7977
  797MOL0     H 5194   6.795   8.665   7.315  0.7602 -0.4046  0.7760
  797MOL0     H 5195   6.915   8.743   7.213 -1.2308  1.5120  1.3048
  797MOL0     H 5196   7.069   8.542   7.278 -0.8756  1.6465 -1.4183
  797MOL0     H 5197   7.045   8.662   7.394 -0.0554 -0.7717  1.5660
  797MOL0     H 5198   6.928   8.385   7.401  0.0917  0.4332 -1.2947
  797MOL0     H 5199   6.830   8.506   7.488  0.0325 -4.5633  1.8292
  797MOL0     H 5200   7.071   8.559   7.606 -1.2075 -1.1399  0.8528
  797MOL0     H 5201   6.969   8.415   7.650  0.8831  1.2834  1.6393
  797MOL0     H 5202   7.330   8.273   7.478  1.0379  0.5432  0.7789
  797MOL0     H 5203   6.649   8.367   7.103 -1.6140 -1.5122 -0.5638
  797MOL0     H 5204   6.433   8.403   6.988 -2.0995  0.0904 -1.7665
  798MOL0     O 5205   4.197  10.248   6.891 -0.4255  0.2387 -0.2068
  798MOL0     C 5206   4.206  10.285   7.010 -0.3911  0.4238  0.1792
  798MOL0     O 5207   4.099  10.324   7.074  0.5475  0.0435 -0.0321
  798MOL0     C 5208   3.976  10.283   7.035  0.7250 -0.5598 -0.0909
  798MOL0     C 5209   3.930  10.158   7.078  0.0966  0.3734  0.9602
  798MOL0     C 5210   3.804  10.105   7.030 -0.2838 -0.0781 -0.5041
  798MOL0     C 5211   3.714  10.187   6.965  0.0273 -0.3992  0.4178
  798MOL0     O 5212   3.590  10.125   6.932 -0.2435 -0.1576  0.1803
  798MOL0     C 5213   3.484  10.197   6.866 -1.0600  0.4115 -0.5178
  798MOL0     C 5214   3.352  10.150   6.911 -0.3102 -0.6779 -0.8535
  798MOL0     C 5215   3.335  10.185   7.065  0.0133  0.6173 -0.4071
  798MOL0     C 5216   3.189  10.216   7.093  1.1188 -0.4708 -0.2017
  798MOL0     C 5217   3.093  10.103   7.060 -0.3637  0.1168 -0.7694
  798MOL0     C 5218   2.955  10.127   7.127  0.0423  0.3504  0.0703
  798MOL0     C 5219   2.848  10.018   7.070  0.5103 -0.5887 -0.6850
  798MOL0     C 5220   2.829   9.882   7.157 -0.6086 -0.0753 -0.3602
  798MOL0     N 5221   2.764   9.923   7.281  0.4809  1.1343  0.7274
  798MOL0     C 5222   2.635   9.961   7.287 -0.0336  1.2023  0.4672
  798MOL0     C 5223   2.609   9.993   7.417  0.2410 -0.2660 -0.2138
  798MOL0     C 5224   2.481  10.038   7.480  0.3852  0.5929 -0.5098
  798MOL0     C 5225   2.364  10.015   7.390  0.7963  0.8290  0.3631
  798MOL0     C 5226   2.236  10.076   7.459  0.2205 -0.5979  0.0067
  798MOL0     C 5227   2.122  10.102   7.361  0.3815 -0.4887 -0.1005
  798MOL0     O 5228   2.090   9.980   7.294 -0.0470 -0.2240  0.6816
  798MOL0     C 5229   1.957   9.944   7.283 -0.6426  0.8032 -0.0872
  798MOL0     C 5230   1.855  10.037   7.280  0.3746 -0.1620 -0.1421
  798MOL0     C 5231   1.725   9.991   7.264  0.0594  0.7610 -1.0255
  798MOL0     C 5232   1.694   9.854   7.261 -0.1809 -0.3424  0.1246
  798MOL0     C 5233   1.557   9.803   7.266  0.5548  0.3541  0.2764
  798MOL0     O 5234   1.470   9.900   7.300 -0.2479  0.2242  0.0419
  798MOL0     C 5235   1.342   9.866   7.312 -0.0583  0.8602 -0.7767
  798MOL0     C 5236   1.284   9.835   7.437 -0.7622 -0.1123 -0.1419
  798MOL0     C 5237   1.150   9.812   7.453 -0.0917  0.0114 -0.3203
  798MOL0     C 5238   1.067   9.816   7.342  0.6437  0.3212 -0.4044
  798MOL0     O 5239   0.930   9.804   7.348  0.2008 -0.1757  0.6368
  798MOL0     C 5240   0.863   9.849   7.464 -0.6963  0.3308 -0.0759
  798MOL0     C 5241   0.715   9.859   7.436  0.6668  0.2444 -1.2772
  798MOL0     C 5242   0.657   9.721   7.421 -0.2618  0.7030 -0.4703
  798MOL0     C 5243   0.503   9.714   7.402  0.4510 -0.9778  0.2601
  798MOL0     C 5244   0.427   9.578   7.421 -0.9414 -0.3828  1.1104
  798MOL0     C 5245   0.285   9.605   7.372 -0.0073  0.5641 -0.0356
  798MOL0     C 5246   0.206   9.471   7.363  0.1337 -0.1592 -0.6878
  798MOL0     C 5247   0.057   9.503   7.316 -0.0636  0.2847 -0.8382
  798MOL0    Cl 5248  -0.036   9.359   7.323 -0.5216  0.2286  0.2765
  798MOL0     C 5249   1.120   9.836   7.216 -0.5229  0.3644  0.6524
  798MOL0     C 5250   1.255   9.871   7.197  0.4040  0.2493  0.8108
  798MOL0     O 5251   1.516   9.689   7.237  0.3224  0.8548  0.2295
  798MOL0     C 5252   1.805   9.767   7.257 -0.0175  0.1371  0.5261
  798MOL0     C 5253   1.937   9.812   7.271 -0.0154 -0.6836  0.7718
  798MOL0     N 5254   2.735   9.987   7.470  0.0850 -0.5319 -0.3311
  798MOL0     N 5255   2.827   9.931   7.396 -0.1727  0.3451  1.1929
  798MOL0     C 5256   3.752  10.321   6.946  0.1684 -0.2307  0.6604
  798MOL0     C 5257   3.883  10.363   6.964  0.4764 -0.3815 -0.5612
  798MOL0     C 5258   4.330  10.311   7.072 -1.0497  0.4718  1.8398
  798MOL0     C 5259   4.450  10.274   7.015  0.5980 -0.3180  0.4740
  798MOL0     C 5260   4.572  10.280   7.088  0.6388 -0.0109 -1.3798
  798MOL0     C 5261   4.576  10.339   7.214  0.4631  0.0208 -0.5461
  798MOL0     O 5262   4.698  10.363   7.274 -0.4718 -0.2114  0.4707
  798MOL0     C 5263   4.772  10.475   7.221 -0.0921  1.2216 -0.2854
  798MOL0     C 5264   4.928  10.440   7.233 -0.9320 -0.3552  0.1914
  798MOL0     C 5265   5.025  10.555   7.222 -0.1166 -0.1736 -0.2097
  798MOL0     C 5266   5.171  10.501   7.183 -0.1274 -0.3364  0.4936
  798MOL0     C 5267   5.247  10.455   7.300 -0.4355  0.4866  0.5724
  798MOL0     C 5268   5.310  10.394   7.383 -0.5433  0.8810  1.3651
  798MOL0     C 5269   4.455  10.385   7.271 -0.4699  0.9998  0.3000
  798MOL0     C 5270   4.332  10.362   7.202  1.1231 -0.9126 -0.7374
  798MOL0     H 5271   3.992  10.096   7.142 -0.4728 -0.9736  0.2499
  798MOL0     H 5272   3.778  10.001   7.049  0.1588 -0.0405  0.3361
  798MOL0     H 5273   3.495  10.197   6.757 -0.7474 -0.5718 -0.4862
  798MOL0     H 5274   3.491  10.305   6.882 -0.6761  0.2905  0.1701
  798MOL0     H 5275   3.355  10.041   6.904  0.8399 -0.7341  0.1487
  798MOL0     H 5276   3.269  10.191   6.852  1.1083  2.0001 -1.1643
  798MOL0     H 5277   3.401  10.270   7.086 -0.1898  0.5170  0.6434
  798MOL0     H 5278   3.364  10.094   7.118 -1.0259  0.4930 -0.0228
  798MOL0     H 5279   3.185  10.238   7.200  2.3540  2.2154 -0.6181
  798MOL0     H 5280   3.166  10.310   7.041  0.1784 -0.9603 -0.6959
  798MOL0     H 5281   3.133  10.013   7.107 -0.9827  1.9315  3.7316
  798MOL0     H 5282   3.090  10.089   6.952  1.6811 -2.8625 -0.5431
  798MOL0     H 5283   2.923  10.227   7.098  0.4745  0.4098 -0.2129
  798MOL0     H 5284   2.958  10.136   7.236  1.2051 -0.1058  0.0958
  798MOL0     H 5285   2.750  10.065   7.061  0.8789  0.3158 -0.0877
  798MOL0     H 5286   2.879   9.987   6.970  1.3251 -1.2614 -0.2301
  798MOL0     H 5287   2.920   9.822   7.165 -1.6402 -1.7099 -0.3157
  798MOL0     H 5288   2.764   9.817   7.098 -0.0995  1.0687 -2.2869
  798MOL0     H 5289   2.561   9.953   7.208 -1.5368 -3.4591  1.9942
  798MOL0     H 5290   2.471  10.144   7.507 -4.0222 -0.1683  1.7393
  798MOL0     H 5291   2.464   9.988   7.576 -0.3574 -0.0952 -0.9898
  798MOL0     H 5292   2.364   9.909   7.363 -0.3419  0.4785  1.6461
  798MOL0     H 5293   2.377  10.079   7.302  0.2269  0.3334 -0.0945
  798MOL0     H 5294   2.210  10.004   7.537  0.9273  1.1106  1.9072
  798MOL0     H 5295   2.252  10.171   7.510  3.8906 -1.0228 -0.1098
  798MOL0     H 5296   2.159  10.167   7.281  2.3754 -1.1549  0.2172
  798MOL0     H 5297   2.042  10.150   7.417  2.4154  3.3045 -0.1335
  798MOL0     H 5298   1.876  10.143   7.286 -0.2232 -0.0811  0.7813
  798MOL0     H 5299   1.655  10.075   7.267 -0.3174  0.4506  1.8680
  798MOL0     H 5300   1.354   9.844   7.519 -2.0401 -1.8510  1.2096
  798MOL0     H 5301   1.110   9.780   7.548  0.8465  1.1704  0.4848
  798MOL0     H 5302   0.896   9.948   7.494 -0.6843  0.4236 -0.3910
  798MOL0     H 5303   0.888   9.786   7.550  0.0992  1.0036  0.1925
  798MOL0     H 5304   0.704   9.903   7.336  4.2036 -0.2597 -2.0121
  798MOL0     H 5305   0.666   9.922   7.510  0.1072 -0.3767 -1.1099
  798MOL0     H 5306   0.676   9.654   7.505 -0.4629 -1.3911 -2.0143
  798MOL0     H 5307   0.724   9.677   7.347  2.1472  2.8554  0.2829
  798MOL0     H 5308   0.461   9.790   7.469  1.1801 -0.7515  0.4726
  798MOL0     H 5309   0.480   9.737   7.298 -3.5612 -3.9848  0.2733
  798MOL0     H 5310   0.438   9.539   7.522 -0.6210 -3.5543 -0.0394
  798MOL0     H 5311   0.471   9.502   7.356 -0.8301 -0.6009  1.4386
  798MOL0     H 5312   0.294   9.649   7.272 -1.3691  0.7627 -0.0839
  798MOL0     H 5313   0.247   9.684   7.437  1.2421  0.8424  0.3798
  798MOL0     H 5314   0.251   9.390   7.306  0.5938 -0.3163 -0.1231
  798MOL0     H 5315   0.191   9.432   7.465 -1.9166  1.3704 -0.3412
  798MOL0     H 5316   0.060   9.552   7.218 -1.8987  2.1364 -0.0564
  798MOL0     H 5317   0.013   9.577   7.383  0.6659  1.2833 -1.4301
  798MOL0     H 5318   1.060   9.838   7.126  1.8786  0.6116 -1.0335
  798MOL0     H 5319   1.289   9.898   7.097 -3.3106  1.1227 -0.3892
  798MOL0     H 5320   1.801   9.658   7.249 -2.9476  0.2856 -1.8006
  798MOL0     H 5321   2.011   9.736   7.291  1.5512  0.6800  0.3468
  798MOL0     H 5322   3.676  10.392   6.913 -0.4203 -1.2487 -0.2336
  798MOL0     H 5323   3.910  10.466   6.940 -3.1212 -0.0061 -3.9187
  798MOL0     H 5324   4.458  10.250   6.910  1.3150 -2.5687  0.9942
  798MOL0     H 5325   4.658  10.243   7.035  2.5859 -0.3356  1.7253
  798MOL0     H 5326   4.742  10.569   7.267 -0.0745  0.2187  1.9248
  798MOL0     H 5327   4.749  10.482   7.114 -0.2428  2.6782 -0.1764
  798MOL0     H 5328   4.950  10.397   7.332  0.9758  0.4001  0.1246
  798MOL0     H 5329   4.952  10.379   7.146  1.9219  3.5259 -2.0201
  798MOL0     H 5330   5.035  10.603   7.320  1.8824  4.4176 -2.3293
  798MOL0     H 5331   4.987  10.635   7.158 -1.2969 -0.0502  0.6108
  798MOL0     H 5332   5.166  10.425   7.104 -0.4525  0.0413  0.1496
  798MOL0     H 5333   5.234  10.574   7.130 -1.8131  0.0057 -1.1514
  798MOL0     H 5334   5.366  10.345   7.461  1.3569  1.8440  0.6762
  798MOL0     H 5335   4.453  10.431   7.370  1.0935  2.1228 -0.1572
  798MOL0     H 5336   4.245  10.385   7.263  1.2647 -2.0806 -0.0563
  799MOL0     O 5337   0.803   3.253   3.467  0.3593  0.3939 -0.3799
  799MOL0     C 5338   0.839   3.163   3.384 -1.1452 -0.4747 -0.4083
  799MOL0     O 5339   0.749   3.101   3.299  0.5151  0.3006  0.3689
  799MOL0     C 5340   0.617   3.138   3.286  0.9306  0.1112 -0.1886
  799MOL0     C 5341   0.569   3.266   3.244 -0.3326 -0.4308  0.4177
  799MOL0     C 5342   0.432   3.289   3.234  0.6905  0.8892 -0.8936
  799MOL0     C 5343   0.342   3.185   3.255 -0.1514  0.6177 -0.7550
  799MOL0     O 5344   0.209   3.203   3.271 -0.6305 -0.2477  0.5886
  799MOL0     C 5345   0.159   3.338   3.265  0.1165  0.5023 -0.4296
  799MOL0     C 5346   0.005   3.334   3.283  0.7211 -1.2150  0.0725
  799MOL0     C 5347  -0.041   3.479   3.317  0.3010  0.4933  0.7199
  799MOL0     C 5348  -0.191   3.471   3.355 -0.4600 -0.6590 -0.2272
  799MOL0     C 5349  -0.257   3.614   3.364  0.3101  0.2461  0.1117
  799MOL0     C 5350  -0.403   3.607   3.417 -0.1836 -0.2047  0.1046
  799MOL0     C 5351  -0.497   3.552   3.313 -0.0415 -0.7839 -0.1691
  799MOL0     C 5352  -0.649   3.547   3.350  0.7333 -0.1911  0.2193
  799MOL0     N 5353  -0.713   3.683   3.341 -0.1441 -1.2706  0.4510
  799MOL0     C 5354  -0.731   3.782   3.443 -0.0021  0.6069 -0.2061
  799MOL0     C 5355  -0.768   3.883   3.376  0.1640 -0.1487 -0.1511
  799MOL0     C 5356  -0.815   4.007   3.440  0.3574  0.5454  0.4606
  799MOL0     C 5357  -0.960   4.008   3.474 -0.1538  0.2153  0.6599
  799MOL0     C 5358  -1.044   4.084   3.369 -0.0957 -0.6565 -0.2578
  799MOL0     C 5359  -1.187   4.123   3.411  0.4908 -0.7651  0.2462
  799MOL0     O 5360  -1.237   4.223   3.325  0.6064 -0.3397 -0.2121
  799MOL0     C 5361  -1.360   4.287   3.347 -0.4905 -0.1724  0.2456
  799MOL0     C 5362  -1.454   4.238   3.428  0.2079  1.1555  0.2371
  799MOL0     C 5363  -1.584   4.295   3.435 -0.3637  0.3820 -0.5744
  799MOL0     C 5364  -1.625   4.409   3.355 -0.7032 -0.3098 -0.0980
  799MOL0     C 5365  -1.753   4.473   3.365 -0.1848 -0.3939 -0.4169
  799MOL0     O 5366  -1.758   4.601   3.328  0.1804 -0.5729  0.5978
  799MOL0     C 5367  -1.872   4.677   3.346  0.1511  0.4254 -0.0907
  799MOL0     C 5368  -1.855   4.801   3.406 -0.6147 -0.1432 -0.1847
  799MOL0     C 5369  -1.963   4.883   3.446 -0.1010  0.2505  0.7980
  799MOL0     C 5370  -2.096   4.844   3.418 -0.5623 -0.6086 -0.5596
  799MOL0     O 5371  -2.202   4.922   3.465 -0.4337 -0.1149  0.1047
  799MOL0     C 5372  -2.326   4.850   3.483  0.5333  0.1406 -0.6542
  799MOL0     C 5373  -2.324   4.761   3.601 -0.1504 -0.2222  0.5029
  799MOL0     C 5374  -2.449   4.687   3.636 -0.1034  0.1241  0.1263
  799MOL0     C 5375  -2.571   4.776   3.654 -0.4349 -0.1485 -0.3013
  799MOL0     C 5376  -2.693   4.709   3.714 -0.6547 -0.3122 -0.3833
  799MOL0     C 5377  -2.817   4.793   3.706 -0.0410 -0.2784 -0.0442
  799MOL0     C 5378  -2.933   4.731   3.782 -0.5246  0.4086 -0.1091
  799MOL0     C 5379  -3.064   4.819   3.760  0.0277  0.6637 -0.1407
  799MOL0    Cl 5380  -3.201   4.779   3.873  0.0855  0.2788 -0.0079
  799MOL0     C 5381  -2.115   4.713   3.352  0.1934 -0.8412 -0.0703
  799MOL0     C 5382  -1.997   4.639   3.313  0.1152  0.4989  0.9667
  799MOL0     O 5383  -1.848   4.414   3.413  0.3498  0.9866  0.3187
  799MOL0     C 5384  -1.523   4.459   3.276 -0.3867  0.2991  0.1085
  799MOL0     C 5385  -1.391   4.393   3.271 -0.0200  0.2786  0.8606
  799MOL0     N 5386  -0.763   3.860   3.239 -0.1066 -0.5683 -0.3884
  799MOL0     N 5387  -0.735   3.738   3.217 -0.5894  0.4770  0.5932
  799MOL0     C 5388   0.388   3.061   3.301  0.7049  0.1986  1.3514
  799MOL0     C 5389   0.523   3.037   3.317 -0.5419 -0.2189 -0.1948
  799MOL0     C 5390   0.990   3.114   3.393 -0.3749 -0.3111  0.5136
  799MOL0     C 5391   1.085   3.171   3.475  0.0663 -0.2646 -0.2005
  799MOL0     C 5392   1.216   3.123   3.478  0.1646  0.5387  0.0108
  799MOL0     C 5393   1.261   3.026   3.382 -0.7059  0.8180 -0.5988
  799MOL0     O 5394   1.391   2.980   3.383  0.2125  0.3516  0.6687
  799MOL0     C 5395   1.488   3.035   3.472 -0.1188 -0.6006  0.3070
  799MOL0     C 5396   1.623   2.992   3.424  0.1805  1.1028 -0.0117
  799MOL0     C 5397   1.722   3.059   3.522 -0.0596  0.0466  0.0483
  799MOL0     C 5398   1.872   3.035   3.503  1.2147 -0.0634  0.2493
  799MOL0     C 5399   1.914   3.116   3.383  0.4785  0.3304  0.0962
  799MOL0     C 5400   1.933   3.166   3.282 -0.4910  0.4393  0.8353
  799MOL0     C 5401   1.168   2.975   3.291 -0.3672 -0.3057  0.3620
  799MOL0     C 5402   1.032   3.019   3.293  0.3203  0.2060 -0.3200
  799MOL0     H 5403   0.631   3.352   3.224 -0.5897 -0.3012  0.1573
  799MOL0     H 5404   0.399   3.390   3.213 -4.5176 -0.2561  0.4795
  799MOL0     H 5405   0.181   3.382   3.167  0.3536  0.6262 -0.3223
  799MOL0     H 5406   0.195   3.404   3.344  0.2571 -0.7891  0.6326
  799MOL0     H 5407  -0.019   3.271   3.369 -1.6808 -0.0332  0.3278
  799MOL0     H 5408  -0.040   3.293   3.192 -3.3160 -2.7865  2.5505
  799MOL0     H 5409  -0.018   3.554   3.241 -1.4758 -0.8081 -1.1961
  799MOL0     H 5410   0.017   3.518   3.402  2.9690 -0.4194 -0.5609
  799MOL0     H 5411  -0.248   3.426   3.273 -1.3719  0.0300  0.0075
  799MOL0     H 5412  -0.191   3.416   3.450 -1.6954 -0.7363 -0.2548
  799MOL0     H 5413  -0.261   3.662   3.266  1.3453  1.6234  0.7080
  799MOL0     H 5414  -0.200   3.679   3.431 -0.7757  2.8350 -1.3250
  799MOL0     H 5415  -0.422   3.713   3.431  1.5242  0.6876 -3.2188
  799MOL0     H 5416  -0.423   3.552   3.509 -0.1185  1.2961  1.0440
  799MOL0     H 5417  -0.471   3.597   3.217 -2.9614 -0.8538 -1.0806
  799MOL0     H 5418  -0.469   3.448   3.295  2.3169  0.2170 -3.0556
  799MOL0     H 5419  -0.662   3.494   3.445  2.4763 -0.5366  0.2833
  799MOL0     H 5420  -0.693   3.487   3.270  1.8137 -1.8760  0.8408
  799MOL0     H 5421  -0.703   3.774   3.548  2.8781  1.3665 -0.8244
  799MOL0     H 5422  -0.783   4.086   3.371  3.4939 -1.3939 -0.5130
  799MOL0     H 5423  -0.760   4.029   3.532  0.2081  1.1259  0.4162
  799MOL0     H 5424  -0.972   4.057   3.571  1.3438 -1.0019  1.5113
  799MOL0     H 5425  -0.991   3.903   3.480 -0.5296  0.3872  2.0912
  799MOL0     H 5426  -0.983   4.165   3.327  0.0896 -0.0418  1.1276
  799MOL0     H 5427  -1.054   4.019   3.282 -0.5421 -0.6217 -0.2351
  799MOL0     H 5428  -1.189   4.163   3.513 -0.4534  2.3893 -0.8909
  799MOL0     H 5429  -1.245   4.031   3.404  0.6290 -0.7866 -0.9273
  799MOL0     H 5430  -1.443   4.150   3.490 -0.8078 -0.1463 -1.3664
  799MOL0     H 5431  -1.655   4.248   3.502 -0.3042 -1.5885 -1.8075
  799MOL0     H 5432  -1.757   4.838   3.436 -0.3591 -1.9981  1.4584
  799MOL0     H 5433  -1.936   4.977   3.494 -0.3480  0.1569  1.1253
  799MOL0     H 5434  -2.352   4.803   3.388  2.0418 -4.6173  0.9597
  799MOL0     H 5435  -2.392   4.931   3.514 -0.3730 -0.9368  0.3318
  799MOL0     H 5436  -2.294   4.822   3.686  1.7825 -2.4426  1.5506
  799MOL0     H 5437  -2.244   4.688   3.584 -0.3830 -0.1456 -1.1183
  799MOL0     H 5438  -2.438   4.639   3.733 -0.7416 -3.6633 -1.4835
  799MOL0     H 5439  -2.472   4.613   3.558 -0.6389  0.9773 -0.5407
  799MOL0     H 5440  -2.542   4.863   3.715 -0.6887  0.3585 -0.8844
  799MOL0     H 5441  -2.592   4.818   3.555 -1.3316 -2.2920 -1.0767
  799MOL0     H 5442  -2.680   4.679   3.818 -4.2454 -1.3118 -0.0799
  799MOL0     H 5443  -2.712   4.619   3.655  3.5670 -2.4003  1.0473
  799MOL0     H 5444  -2.856   4.801   3.604 -1.0959 -0.5012  0.3345
  799MOL0     H 5445  -2.794   4.886   3.758  4.0209  0.0859 -2.0465
  799MOL0     H 5446  -2.943   4.628   3.746  0.8943  0.0463  0.4535
  799MOL0     H 5447  -2.922   4.721   3.890  2.6380  1.1355 -0.2765
  799MOL0     H 5448  -3.093   4.799   3.657  2.2817  0.7937 -0.8459
  799MOL0     H 5449  -3.047   4.927   3.763 -2.9304  1.2034  2.1439
  799MOL0     H 5450  -2.203   4.673   3.303 -1.3022  1.3813  0.6433
  799MOL0     H 5451  -2.012   4.560   3.241 -1.6746  2.4746 -0.9686
  799MOL0     H 5452  -1.538   4.546   3.213 -0.4915  1.5591  1.7848
  799MOL0     H 5453  -1.316   4.417   3.197 -2.7003 -1.4484 -2.7183
  799MOL0     H 5454   0.305   2.993   3.319 -0.0602  1.0749  1.2134
  799MOL0     H 5455   0.571   2.942   3.342  1.8732  0.7346 -0.9058
  799MOL0     H 5456   1.050   3.257   3.530  2.3578  0.3816  0.3501
  799MOL0     H 5457   1.277   3.175   3.552  0.2198  0.7657 -0.1925
  799MOL0     H 5458   1.470   3.001   3.575 -3.4048  0.9540  0.3939
  799MOL0     H 5459   1.479   3.143   3.460 -0.0562 -0.8415 -2.7137
  799MOL0     H 5460   1.631   2.883   3.422 -2.4673  0.8557 -0.8680
  799MOL0     H 5461   1.652   3.035   3.327  2.3548 -1.2776 -0.5161
  799MOL0     H 5462   1.697   3.035   3.626  1.1888 -0.6388  0.2123
  799MOL0     H 5463   1.719   3.168   3.517 -1.6798  0.0399  0.4602
  799MOL0     H 5464   1.931   3.079   3.583  1.1882 -1.2233  0.9312
  799MOL0     H 5465   1.898   2.930   3.486 -2.1381 -1.3482  2.1031
  799MOL0     H 5466   1.956   3.203   3.184 -0.8554 -0.8619  0.2382
  799MOL0     H 5467   1.199   2.903   3.216  2.4632  0.3660  0.7671
  799MOL0     H 5468   0.958   2.980   3.224 -1.6635 -0.1800  1.8973
  800MOL0     O 5469   9.733   9.722   3.635 -0.8341 -0.5781 -0.4068
  800MOL0     C 5470   9.673   9.701   3.534 -0.0720  0.3297  0.4755
  800MOL0     O 5471   9.533   9.697   3.514 -0.2922  0.3091  0.6757
  800MOL0     C 5472   9.450   9.760   3.604  0.3059 -0.2577 -0.1867
  800MOL0     C 5473   9.323   9.718   3.619  0.7173  0.2489 -0.8202
  800MOL0     C 5474   9.218   9.782   3.691  0.5596  0.3387  0.2545
  800MOL0     C 5475   9.247   9.897   3.766  1.0319 -0.2079  0.4797
  800MOL0     O 5476   9.160   9.950   3.859  0.1164 -0.1750  0.3131
  800MOL0     C 5477   9.024   9.904   3.856  0.2168  0.3616  0.6914
  800MOL0     C 5478   8.954   9.975   3.965 -0.0637  0.3910  0.0859
  800MOL0     C 5479   8.796   9.949   3.972 -0.1236  1.1753  0.1818
  800MOL0     C 5480   8.734  10.000   4.105 -0.9226  0.7552 -1.0256
  800MOL0     C 5481   8.583   9.997   4.130 -0.0361 -0.1687  0.3677
  800MOL0     C 5482   8.502  10.074   4.020 -0.3559  0.0595  0.7298
  800MOL0     C 5483   8.357  10.109   4.071 -0.5204  0.3389 -0.1644
  800MOL0     C 5484   8.261   9.985   4.068 -1.0693 -0.2898  0.0578
  800MOL0     N 5485   8.124  10.023   4.090 -0.0987  0.0801  0.7526
  800MOL0     C 5486   8.025  10.034   3.995  0.1060  0.4127  0.1731
  800MOL0     C 5487   7.908  10.048   4.054 -0.3520  0.2280 -0.9757
  800MOL0     C 5488   7.776  10.073   3.985 -0.6828 -0.3113  0.0469
  800MOL0     C 5489   7.688   9.952   3.996 -0.4518 -0.1694  0.0279
  800MOL0     C 5490   7.544   9.996   3.999 -0.1307  0.3137  0.9349
  800MOL0     C 5491   7.443   9.879   3.983  0.9210  0.0112 -0.7783
  800MOL0     O 5492   7.311   9.917   3.995 -0.1801 -1.1847  0.1931
  800MOL0     C 5493   7.216   9.902   3.894  0.0461  0.0427  0.4571
  800MOL0     C 5494   7.083   9.895   3.933  0.4148 -0.7670 -0.9834
  800MOL0     C 5495   6.986   9.886   3.835 -0.3547 -0.4181 -1.1363
  800MOL0     C 5496   7.015   9.884   3.699 -0.3229 -1.0843 -0.9336
  800MOL0     C 5497   6.915   9.835   3.596 -1.1074  0.3940 -0.3382
  800MOL0     O 5498   6.784   9.830   3.633 -0.0143  0.2235  0.1215
  800MOL0     C 5499   6.696   9.745   3.570  0.5338  0.3886  0.8366
  800MOL0     C 5500   6.737   9.615   3.521 -0.0179  0.9383 -0.2733
  800MOL0     C 5501   6.641   9.528   3.462  0.0380  0.3030  0.1944
  800MOL0     C 5502   6.510   9.561   3.461 -0.1129 -0.8618  0.7931
  800MOL0     O 5503   6.420   9.463   3.419 -0.0664 -0.0474  0.6616
  800MOL0     C 5504   6.408   9.368   3.524 -0.8072  0.4202  0.2302
  800MOL0     C 5505   6.294   9.271   3.498 -0.5017  0.6686  0.3507
  800MOL0     C 5506   6.154   9.324   3.521  0.2585  0.1179 -0.1900
  800MOL0     C 5507   6.045   9.235   3.463 -0.7903  0.4955  0.2901
  800MOL0     C 5508   5.903   9.284   3.498  0.8144 -0.2912  0.3447
  800MOL0     C 5509   5.804   9.186   3.432  0.1564  0.5331  0.5529
  800MOL0     C 5510   5.651   9.217   3.453 -1.6362 -0.1220  0.2857
  800MOL0     C 5511   5.566   9.117   3.386  0.5347  0.2081 -0.2275
  800MOL0    Cl 5512   5.613   9.083   3.217 -0.1372 -0.0905  0.4760
  800MOL0     C 5513   6.473   9.689   3.512 -0.6192  0.3340  0.1031
  800MOL0     C 5514   6.561   9.780   3.566  1.2356  0.6970  0.3864
  800MOL0     O 5515   6.970   9.797   3.489 -0.2385 -0.1427 -0.6975
  800MOL0     C 5516   7.147   9.907   3.665 -1.2143 -0.3734 -0.2479
  800MOL0     C 5517   7.251   9.927   3.760 -0.3739  0.0826 -0.9498
  800MOL0     N 5518   7.930  10.042   4.195  0.5102 -0.9754  0.7018
  800MOL0     N 5519   8.057  10.027   4.206 -0.2894  1.3306 -0.5527
  800MOL0     C 5520   9.384   9.937   3.752  0.7551  0.4839 -0.1624
  800MOL0     C 5521   9.485   9.874   3.671  0.4065  0.2983 -0.6834
  800MOL0     C 5522   9.745   9.625   3.423  0.0875 -0.4467 -0.0420
  800MOL0     C 5523   9.865   9.564   3.456 -0.2105  0.3394 -0.5364
  800MOL0     C 5524   9.948   9.507   3.354  0.9128 -0.6451 -0.9394
  800MOL0     C 5525   9.897   9.502   3.222 -0.0770  0.1849 -0.8458
  800MOL0     O 5526   9.961   9.427   3.126 -0.9083  0.6331  0.3343
  800MOL0     C 5527  10.107   9.400   3.143  1.2255 -0.4316  0.2584
  800MOL0     C 5528  10.159   9.327   3.023  0.9949  0.1733  0.8543
  800MOL0     C 5529  10.148   9.410   2.895 -0.0439  0.0340  0.0439
  800MOL0     C 5530  10.229   9.379   2.774 -0.4224 -0.5727 -0.3894
  800MOL0     C 5531  10.366   9.349   2.820 -0.4022 -0.1212 -0.0502
  800MOL0     C 5532  10.477   9.325   2.862  0.1561 -0.5004  0.2531
  800MOL0     C 5533   9.773   9.547   3.195  0.6753  0.4643  0.7301
  800MOL0     C 5534   9.696   9.614   3.285 -0.8461 -0.8834 -0.2408
  800MOL0     H 5535   9.299   9.622   3.574 -0.6306  0.7783 -1.2864
  800MOL0     H 5536   9.117   9.742   3.689  0.9981 -0.8137  0.7242
  800MOL0     H 5537   9.014   9.799   3.886  0.6614  0.2095  0.3167
  800MOL0     H 5538   8.979   9.927   3.759  0.7217  1.1606  0.6297
  800MOL0     H 5539   8.973  10.081   3.947  0.0774 -0.0551 -2.8919
  800MOL0     H 5540   8.998   9.935   4.056 -0.0867 -2.7427 -1.1723
  800MOL0     H 5541   8.784   9.841   3.963  0.8831  1.2109 -2.4527
  800MOL0     H 5542   8.752   9.999   3.886 -1.6805  0.1859  0.3685
  800MOL0     H 5543   8.781   9.941   4.183 -0.4979  0.9118 -1.1600
  800MOL0     H 5544   8.757  10.107   4.115 -1.7004  1.0199 -1.8406
  800MOL0     H 5545   8.563  10.041   4.228 -2.0974 -1.8131  0.7865
  800MOL0     H 5546   8.563   9.889   4.127  0.0591 -0.1990  0.8057
  800MOL0     H 5547   8.486  10.013   3.931 -0.1150 -3.2564  2.7857
  800MOL0     H 5548   8.541  10.174   3.998 -1.2858  0.4597  0.8429
  800MOL0     H 5549   8.356  10.148   4.172  3.4617  0.7627 -0.1377
  800MOL0     H 5550   8.320  10.188   4.005 -1.9340  0.5448  0.8406
  800MOL0     H 5551   8.290   9.922   4.153 -3.8067  0.4420  1.6594
  800MOL0     H 5552   8.266   9.943   3.967  0.7326  0.8874 -0.3727
  800MOL0     H 5553   8.043  10.029   3.888 -3.4041 -2.3155 -0.4747
  800MOL0     H 5554   7.791  10.101   3.880  2.7190  1.9028  0.9542
  800MOL0     H 5555   7.729  10.161   4.027  2.7504  2.8764 -2.1531
  800MOL0     H 5556   7.715   9.888   4.081 -1.9424  1.9997  2.2722
  800MOL0     H 5557   7.699   9.898   3.902  1.2108 -0.8018  0.5435
  800MOL0     H 5558   7.531  10.042   4.097  0.3474  2.4930  0.0347
  800MOL0     H 5559   7.545  10.074   3.923  2.6971 -0.0963  0.4200
  800MOL0     H 5560   7.458   9.802   4.059  1.7668  0.6826 -0.2511
  800MOL0     H 5561   7.453   9.835   3.884 -2.4543  1.6993 -2.0161
  800MOL0     H 5562   7.066   9.860   4.034  1.4697 -0.2437 -0.6160
  800MOL0     H 5563   6.893   9.874   3.891  0.1067  1.5731  0.1956
  800MOL0     H 5564   6.842   9.593   3.540 -0.0354  0.5192 -0.6489
  800MOL0     H 5565   6.675   9.430   3.430  1.1606  0.8089 -0.2013
  800MOL0     H 5566   6.397   9.416   3.622 -0.2161  2.4941 -0.6643
  800MOL0     H 5567   6.506   9.320   3.530 -0.3117  1.2269 -1.1532
  800MOL0     H 5568   6.312   9.187   3.566  3.7706  0.6037 -0.5469
  800MOL0     H 5569   6.316   9.237   3.396 -0.9902  2.2894 -0.3211
  800MOL0     H 5570   6.148   9.422   3.474  1.5680  0.7278  0.8678
  800MOL0     H 5571   6.148   9.352   3.627  1.0872  2.8649 -0.7916
  800MOL0     H 5572   6.065   9.214   3.358  1.8020 -0.7732  0.9495
  800MOL0     H 5573   6.052   9.137   3.511  1.4589  1.2070  1.5433
  800MOL0     H 5574   5.887   9.384   3.457 -0.6455 -0.2351  0.9905
  800MOL0     H 5575   5.885   9.273   3.605  0.1806 -3.4431  0.0149
  800MOL0     H 5576   5.835   9.085   3.462  0.1042 -0.5242 -2.5664
  800MOL0     H 5577   5.823   9.183   3.324 -0.3657 -1.3183  0.4664
  800MOL0     H 5578   5.620   9.212   3.558 -2.6644 -1.9941 -0.0562
  800MOL0     H 5579   5.633   9.317   3.412  2.1495  0.7453  0.4256
  800MOL0     H 5580   5.459   9.137   3.400  0.1194 -0.0448 -2.6880
  800MOL0     H 5581   5.592   9.028   3.444  0.1109  0.1920 -0.0544
  800MOL0     H 5582   6.369   9.720   3.521 -0.6324  1.1380 -2.1803
  800MOL0     H 5583   6.509   9.868   3.601  0.1469  0.2201  0.0067
  800MOL0     H 5584   7.173   9.925   3.562 -0.1019 -0.0773  0.0706
  800MOL0     H 5585   7.357   9.938   3.741  0.4546 -1.4257  2.2180
  800MOL0     H 5586   9.389  10.032   3.804 -2.5259 -0.8409  2.9650
  800MOL0     H 5587   9.581   9.922   3.658  0.4048  0.8609  1.0662
  800MOL0     H 5588   9.901   9.564   3.559 -0.4990 -1.1693 -0.4071
  800MOL0     H 5589  10.050   9.481   3.382  1.3950  2.7202  1.0201
  800MOL0     H 5590  10.124   9.337   3.230 -2.5457  0.4466  1.8258
  800MOL0     H 5591  10.151   9.499   3.153  1.9021 -0.4852 -1.6176
  800MOL0     H 5592  10.260   9.290   3.042  1.3990  0.3600 -0.7588
  800MOL0     H 5593  10.092   9.243   3.001  0.7126  0.2371  1.4717
  800MOL0     H 5594  10.164   9.516   2.921 -0.1956  0.0806 -0.0528
  800MOL0     H 5595  10.044   9.411   2.862  0.1526  0.0568 -0.5836
  800MOL0     H 5596  10.177   9.297   2.724 -0.5354 -0.1500 -0.9859
  800MOL0     H 5597  10.237   9.464   2.705  0.6035 -0.4373 -0.1117
  800MOL0     H 5598  10.576   9.319   2.902  1.3809  3.2619 -1.7400
  800MOL0     H 5599   9.743   9.554   3.091 -1.6206  0.0715  1.3048
  800MOL0     H 5600   9.614   9.681   3.261  0.0561  0.5906  0.6068
  801MOL0     O 5601   5.019   9.926   5.991 -0.1562 -0.1623  0.2257
  801MOL0     C 5602   5.045   9.953   5.873 -0.4932  0.8337  0.4313
  801MOL0     O 5603   4.957   9.966   5.774  0.5206  0.5746  0.1783
  801MOL0     C 5604   4.817   9.937   5.788 -0.4771  0.4537 -0.2100
  801MOL0     C 5605   4.745   9.963   5.672 -0.1292  1.2927  0.0511
  801MOL0     C 5606   4.610   9.938   5.660  0.5736 -0.2543 -0.3945
  801MOL0     C 5607   4.535   9.873   5.758  0.6063 -0.2189  0.3619
  801MOL0     O 5608   4.403   9.854   5.742  0.6043  0.1255  0.3862
  801MOL0     C 5609   4.338   9.777   5.847 -0.4583  0.4904  0.0403
  801MOL0     C 5610   4.202   9.724   5.804  1.4429  0.6178  0.3275
  801MOL0     C 5611   4.110   9.673   5.914 -0.1063 -0.1191 -0.3621
  801MOL0     C 5612   3.970   9.657   5.868  1.1090  0.3402 -0.6419
  801MOL0     C 5613   3.886   9.580   5.965  0.2840  0.1049  0.6868
  801MOL0     C 5614   3.735   9.604   5.911  0.0055  0.2278  0.1494
  801MOL0     C 5615   3.604   9.538   5.965 -0.8252 -0.2486 -0.4347
  801MOL0     C 5616   3.482   9.556   5.872  0.0362 -0.0794 -0.8416
  801MOL0     N 5617   3.357   9.502   5.930 -0.2363 -0.4177  0.6828
  801MOL0     C 5618   3.322   9.368   5.929  0.2067 -0.2859  0.4630
  801MOL0     C 5619   3.194   9.366   5.979 -0.1403 -0.7693  0.0798
  801MOL0     C 5620   3.131   9.232   5.985 -0.3641  0.2236 -0.1761
  801MOL0     C 5621   2.995   9.237   6.042 -0.4621  0.5645  0.3903
  801MOL0     C 5622   2.946   9.084   6.043 -0.8936 -0.1476 -0.9114
  801MOL0     C 5623   2.807   9.045   6.071  0.8734 -0.0012  0.1161
  801MOL0     O 5624   2.730   9.075   5.960 -0.0824 -0.2154  0.3158
  801MOL0     C 5625   2.604   9.017   5.940 -0.0068 -0.7967 -0.4565
  801MOL0     C 5626   2.543   8.947   6.045 -0.8641  0.6816  0.6650
  801MOL0     C 5627   2.419   8.882   6.026  0.6869 -0.0516  0.4284
  801MOL0     C 5628   2.350   8.909   5.907  0.0446  0.1939  0.3416
  801MOL0     C 5629   2.213   8.849   5.889 -0.3475  0.3460  0.3086
  801MOL0     O 5630   2.176   8.766   5.993 -0.4171 -0.4726 -0.8703
  801MOL0     C 5631   2.053   8.705   5.984 -0.0558 -0.0663 -0.2711
  801MOL0     C 5632   2.041   8.563   5.973 -0.9552  0.0129 -0.5666
  801MOL0     C 5633   1.911   8.508   5.979  0.4311 -0.4919 -0.2051
  801MOL0     C 5634   1.796   8.587   5.974 -0.8272 -0.0805  0.3662
  801MOL0     O 5635   1.679   8.515   5.967  0.1858  0.0693  0.2560
  801MOL0     C 5636   1.558   8.592   5.957  0.7541 -0.0500  0.3492
  801MOL0     C 5637   1.460   8.504   6.034 -0.6631  1.1735 -0.2147
  801MOL0     C 5638   1.313   8.551   6.030 -0.3215 -0.0312  0.4264
  801MOL0     C 5639   1.215   8.449   6.089 -0.7915 -0.9145 -1.0738
  801MOL0     C 5640   1.069   8.487   6.067 -0.4450  1.0019  0.4357
  801MOL0     C 5641   1.029   8.593   6.174  0.3273 -0.5021 -0.3870
  801MOL0     C 5642   0.887   8.653   6.166  0.8546 -0.1079  0.2131
  801MOL0     C 5643   0.786   8.534   6.160 -0.3004 -0.6333 -0.3998
  801MOL0    Cl 5644   0.623   8.608   6.149  0.2922  0.4270  0.5120
  801MOL0     C 5645   1.813   8.725   5.975 -0.5868 -1.0894  1.1038
  801MOL0     C 5646   1.941   8.779   5.983  0.5110  0.6506  0.3442
  801MOL0     O 5647   2.143   8.876   5.794 -0.0644 -0.0351 -0.3386
  801MOL0     C 5648   2.414   8.988   5.808  0.5118 -0.4688  0.1624
  801MOL0     C 5649   2.537   9.042   5.824  0.6880 -0.6186 -0.0173
  801MOL0     N 5650   3.152   9.495   6.015  0.0429  0.3196 -0.7579
  801MOL0     N 5651   3.256   9.574   5.989  1.1285  0.5647 -0.6020
  801MOL0     C 5652   4.611   9.839   5.877  0.2804  0.4884 -0.2210
  801MOL0     C 5653   4.744   9.882   5.891 -0.0921  0.5469  0.9222
  801MOL0     C 5654   5.191   9.956   5.828 -0.6512  0.1495 -0.3641
  801MOL0     C 5655   5.290   9.926   5.927  0.2194  0.6503 -0.7361
  801MOL0     C 5656   5.431   9.939   5.891  0.2401  0.4398 -0.5052
  801MOL0     C 5657   5.470   9.990   5.763  0.2415  0.0414 -0.3049
  801MOL0     O 5658   5.604  10.001   5.748 -0.3290  0.0867 -0.5306
  801MOL0     C 5659   5.669  10.046   5.630  0.2166  1.3813  0.2026
  801MOL0     C 5660   5.769  10.147   5.673  0.1014  0.1075 -0.7809
  801MOL0     C 5661   5.712  10.262   5.752  0.6913 -0.0938 -0.3210
  801MOL0     C 5662   5.623  10.343   5.663 -0.0734  0.3250  0.0540
  801MOL0     C 5663   5.608  10.479   5.710 -0.2925 -0.6346  0.4753
  801MOL0     C 5664   5.592  10.594   5.746  0.1111  0.3516 -0.0325
  801MOL0     C 5665   5.374  10.012   5.662  0.1922 -0.7270  0.2720
  801MOL0     C 5666   5.233   9.997   5.697 -0.0549  0.0629  0.1428
  801MOL0     H 5667   4.789  10.022   5.592 -2.0098  1.6135 -0.7934
  801MOL0     H 5668   4.560   9.967   5.568 -2.9804 -3.3521  0.3091
  801MOL0     H 5669   4.318   9.853   5.924  0.7016  0.8639 -0.0092
  801MOL0     H 5670   4.396   9.697   5.893  1.6551  0.2218 -2.7923
  801MOL0     H 5671   4.215   9.641   5.734 -0.6182  0.6484 -0.1330
  801MOL0     H 5672   4.152   9.799   5.742 -0.3520 -0.9948 -0.2555
  801MOL0     H 5673   4.104   9.750   5.991 -0.6250  0.2574 -0.7791
  801MOL0     H 5674   4.148   9.581   5.961 -1.3147 -0.7622 -0.5859
  801MOL0     H 5675   3.931   9.759   5.863 -1.6096 -0.6206 -0.8958
  801MOL0     H 5676   3.965   9.616   5.766  2.3660 -1.8864  0.1196
  801MOL0     H 5677   3.894   9.606   6.071 -2.8254  0.1488  1.0192
  801MOL0     H 5678   3.914   9.474   5.966 -2.2137 -0.6884 -1.2076
  801MOL0     H 5679   3.743   9.574   5.807  1.3226  1.5693 -0.1641
  801MOL0     H 5680   3.709   9.709   5.898 -0.0130  0.0859 -1.0508
  801MOL0     H 5681   3.623   9.430   5.971  1.3685 -0.1981 -3.6390
  801MOL0     H 5682   3.588   9.578   6.066  0.8843 -0.6143  0.0292
  801MOL0     H 5683   3.494   9.517   5.770 -2.2866  0.1395 -1.2344
  801MOL0     H 5684   3.462   9.662   5.859 -0.2832  0.3616  2.4113
  801MOL0     H 5685   3.380   9.279   5.905 -1.3210 -0.5695 -2.6960
  801MOL0     H 5686   3.183   9.170   6.058  2.2690  3.1016  0.6198
  801MOL0     H 5687   3.143   9.193   5.884  2.1349  2.9627 -1.0929
  801MOL0     H 5688   2.922   9.298   5.987 -2.4094 -4.0928 -2.8773
  801MOL0     H 5689   2.992   9.272   6.146  3.2874  1.2174  0.4060
  801MOL0     H 5690   2.989   9.039   5.953  0.3840 -1.1097  0.1465
  801MOL0     H 5691   2.992   9.046   6.134 -1.0094  0.5985 -0.5323
  801MOL0     H 5692   2.758   9.096   6.154 -1.4772 -5.1288  2.3003
  801MOL0     H 5693   2.809   8.937   6.087  2.0599  0.2644  1.9958
  801MOL0     H 5694   2.592   8.955   6.142  1.5078  0.4150 -0.4406
  801MOL0     H 5695   2.363   8.831   6.104 -0.2104 -0.5585 -0.5145
  801MOL0     H 5696   2.124   8.494   5.957  0.3609  1.7305 -1.4441
  801MOL0     H 5697   1.902   8.401   5.963 -0.8853  0.0606 -4.5769
  801MOL0     H 5698   1.535   8.615   5.853 -0.8516  1.9618  1.0938
  801MOL0     H 5699   1.562   8.687   6.010 -1.5186  0.8050 -0.8951
  801MOL0     H 5700   1.503   8.491   6.134  1.1988 -3.7135 -1.3777
  801MOL0     H 5701   1.474   8.402   5.998 -1.5764  0.2067  1.9923
  801MOL0     H 5702   1.272   8.568   5.930 -0.1905  4.4611  0.9561
  801MOL0     H 5703   1.311   8.649   6.078  0.5123  0.5394 -0.6529
  801MOL0     H 5704   1.240   8.352   6.046 -0.4373 -0.9143 -0.8774
  801MOL0     H 5705   1.245   8.437   6.194  2.5417 -0.3953 -1.8378
  801MOL0     H 5706   1.020   8.391   6.083  0.0851  0.9287  1.7350
  801MOL0     H 5707   1.052   8.512   5.962  0.4101 -1.2797 -0.3138
  801MOL0     H 5708   1.091   8.683   6.182 -0.9069  0.4141 -0.8362
  801MOL0     H 5709   1.037   8.557   6.277 -1.2867  1.3006  0.4374
  801MOL0     H 5710   0.870   8.720   6.251  2.1639  0.1587  0.2876
  801MOL0     H 5711   0.879   8.700   6.068 -0.2063 -0.7952 -0.0479
  801MOL0     H 5712   0.790   8.482   6.257  1.0018  5.1621  3.1191
  801MOL0     H 5713   0.803   8.463   6.078 -1.7375 -1.9605  0.3764
  801MOL0     H 5714   1.735   8.799   5.987  0.6664  0.1146  2.2844
  801MOL0     H 5715   1.947   8.886   6.001 -2.5794  0.6976  1.9627
  801MOL0     H 5716   2.372   9.031   5.717 -0.5522 -2.1856 -0.1938
  801MOL0     H 5717   2.573   9.118   5.756 -1.7084  1.9191  1.3239
  801MOL0     H 5718   4.559   9.800   5.963 -2.3340  1.5481 -1.2043
  801MOL0     H 5719   4.784   9.868   5.991  0.3786 -0.0510  0.6536
  801MOL0     H 5720   5.267   9.879   6.022 -0.8021 -0.4699 -1.5028
  801MOL0     H 5721   5.504   9.899   5.962  0.5329 -3.3333 -2.6472
  801MOL0     H 5722   5.600  10.078   5.551 -0.3904  1.6745  0.8309
  801MOL0     H 5723   5.718   9.960   5.584  3.8255  1.9093  2.6619
  801MOL0     H 5724   5.834  10.099   5.747 -3.5303  0.5687  3.1543
  801MOL0     H 5725   5.821  10.189   5.587  0.7199  1.5278  0.2395
  801MOL0     H 5726   5.793  10.330   5.783  0.1978 -0.7569  2.6669
  801MOL0     H 5727   5.655  10.234   5.841 -0.5162 -0.6162 -1.2367
  801MOL0     H 5728   5.664  10.342   5.561  1.0479  0.9293  0.4830
  801MOL0     H 5729   5.524  10.296   5.662  0.1472 -0.1433  0.1186
  801MOL0     H 5730   5.582  10.698   5.769 -0.4437  0.5362 -1.0827
  801MOL0     H 5731   5.403  10.048   5.564  1.1258 -4.6176 -1.0692
  801MOL0     H 5732   5.161  10.007   5.617  0.5203 -0.2098 -0.4113
  802MOL0     O 5733   6.485   6.606   2.979  0.1044 -0.0971 -0.9271
  802MOL0     C 5734   6.596   6.543   2.993  0.3965  0.5697  0.9759
  802MOL0     O 5735   6.604   6.420   3.037  1.0319  0.6081 -0.1099
  802MOL0     C 5736   6.491   6.344   3.052 -0.9590  0.3792  0.1162
  802MOL0     C 5737   6.458   6.278   3.164 -0.4448  0.4980  0.3176
  802MOL0     C 5738   6.345   6.198   3.175 -0.4900  0.3567  0.1114
  802MOL0     C 5739   6.257   6.187   3.069  0.4777 -0.5143  0.8469
  802MOL0     O 5740   6.147   6.107   3.089 -0.4898  0.0625  0.2295
  802MOL0     C 5741   6.027   6.136   3.017  0.1493 -0.1909  0.5030
  802MOL0     C 5742   5.908   6.075   3.087 -0.4032 -0.6038  0.3005
  802MOL0     C 5743   5.907   5.919   3.085 -0.0548  0.1632 -1.0689
  802MOL0     C 5744   5.780   5.868   3.174  0.0615  0.7463 -0.2491
  802MOL0     C 5745   5.649   5.860   3.102 -0.0315  0.0152 -0.2049
  802MOL0     C 5746   5.539   5.830   3.216 -0.0513 -0.2721  1.0694
  802MOL0     C 5747   5.402   5.829   3.151 -0.5309  0.2786  0.4784
  802MOL0     C 5748   5.371   5.696   3.079 -1.0293 -0.0594 -0.0175
  802MOL0     N 5749   5.325   5.609   3.186 -0.2705  0.0592 -0.2115
  802MOL0     C 5750   5.192   5.594   3.214 -0.2803 -0.8641 -0.5472
  802MOL0     C 5751   5.187   5.522   3.329  0.3638 -0.1789  0.1220
  802MOL0     C 5752   5.061   5.484   3.396 -0.0140 -0.8456 -0.7311
  802MOL0     C 5753   4.992   5.377   3.325 -0.3343  0.3369 -0.6038
  802MOL0     C 5754   5.075   5.256   3.261  0.5345  0.4119 -0.5125
  802MOL0     C 5755   4.970   5.150   3.212  0.3939  0.0964  0.1878
  802MOL0     O 5756   4.842   5.202   3.167  0.3013 -0.0985  0.3754
  802MOL0     C 5757   4.814   5.223   3.033 -0.0687  0.1878  0.0102
  802MOL0     C 5758   4.912   5.229   2.935  0.1392  0.5799 -0.4371
  802MOL0     C 5759   4.878   5.238   2.799  0.5504  1.2628 -0.0451
  802MOL0     C 5760   4.741   5.255   2.760 -0.2008  1.1316 -0.8545
  802MOL0     C 5761   4.709   5.273   2.616 -0.9403  0.3229  0.1569
  802MOL0     O 5762   4.817   5.282   2.529 -0.0438 -0.0536  0.0076
  802MOL0     C 5763   4.790   5.319   2.404 -0.6582 -1.2615  1.0355
  802MOL0     C 5764   4.859   5.250   2.305 -0.3535  0.1110  0.1229
  802MOL0     C 5765   4.859   5.297   2.173  0.2046  0.1931  0.3262
  802MOL0     C 5766   4.769   5.403   2.143  0.6408 -0.4266 -0.5086
  802MOL0     O 5767   4.741   5.446   2.011 -0.5474 -0.1854  0.3883
  802MOL0     C 5768   4.601   5.477   1.983  0.1648 -0.4152 -0.1080
  802MOL0     C 5769   4.599   5.590   1.879 -1.4494 -0.5375 -0.0506
  802MOL0     C 5770   4.477   5.644   1.814  0.4222 -0.1504 -0.0985
  802MOL0     C 5771   4.368   5.640   1.917  0.1952 -0.0519 -0.5983
  802MOL0     C 5772   4.229   5.669   1.863  0.6437 -0.0920  0.2409
  802MOL0     C 5773   4.122   5.687   1.971  0.1443 -0.5423 -0.0082
  802MOL0     C 5774   4.121   5.574   2.081  0.1807  0.8914  0.3970
  802MOL0     C 5775   4.076   5.433   2.027  0.5862 -0.1188  0.0491
  802MOL0    Cl 5776   4.196   5.352   1.920 -0.1883 -0.0057  0.4329
  802MOL0     C 5777   4.717   5.483   2.250  0.7239  0.2559 -0.6083
  802MOL0     C 5778   4.734   5.443   2.378  0.2733 -0.4599 -0.3907
  802MOL0     O 5779   4.594   5.284   2.584  0.2842 -0.6888 -0.2610
  802MOL0     C 5780   4.648   5.255   2.865 -0.2918 -1.3262  1.0462
  802MOL0     C 5781   4.685   5.238   2.992  0.1917  0.7145 -0.2843
  802MOL0     N 5782   5.314   5.486   3.361  0.0093  0.4943  0.0156
  802MOL0     N 5783   5.393   5.520   3.263  0.2420  0.5049  0.1719
  802MOL0     C 5784   6.290   6.249   2.941  0.3666 -0.5157 -0.0937
  802MOL0     C 5785   6.415   6.318   2.941  0.7019 -0.6257 -0.5144
  802MOL0     C 5786   6.725   6.603   2.957  0.1531  0.9950  0.0714
  802MOL0     C 5787   6.738   6.710   2.860 -0.1946 -0.1496  0.6148
  802MOL0     C 5788   6.871   6.750   2.831 -0.1145 -0.4402 -0.4004
  802MOL0     C 5789   6.983   6.699   2.884  0.3999 -0.0046 -0.4942
  802MOL0     O 5790   7.112   6.743   2.845  1.1387 -0.0780  0.7523
  802MOL0     C 5791   7.236   6.664   2.873  0.2807 -0.3279  1.2117
  802MOL0     C 5792   7.220   6.530   2.799  0.2566  0.3953 -0.1959
  802MOL0     C 5793   7.191   6.561   2.653  0.0440 -0.2774 -0.1226
  802MOL0     C 5794   7.224   6.445   2.565  0.3502  0.3232  0.9359
  802MOL0     C 5795   7.154   6.470   2.433 -0.0194 -0.4371  0.6646
  802MOL0     C 5796   7.103   6.493   2.326  0.8387  0.4638  0.0126
  802MOL0     C 5797   6.969   6.603   2.989 -0.2733  0.9024  0.4377
  802MOL0     C 5798   6.842   6.554   3.024 -0.1131  0.2278  0.3675
  802MOL0     H 5799   6.522   6.294   3.251 -0.1507 -2.6039  0.7980
  802MOL0     H 5800   6.325   6.142   3.266 -0.1822 -0.4623 -0.3115
  802MOL0     H 5801   6.030   6.098   2.914 -0.1526 -2.1881  1.1828
  802MOL0     H 5802   6.007   6.243   3.013  1.5157  0.0650 -0.1791
  802MOL0     H 5803   5.815   6.107   3.039 -0.4578  0.4348  1.0536
  802MOL0     H 5804   5.911   6.110   3.191 -2.4339 -1.8752  0.8570
  802MOL0     H 5805   6.001   5.892   3.133 -1.4370 -0.2343  1.5472
  802MOL0     H 5806   5.902   5.875   2.985 -0.2885 -1.0010 -0.5505
  802MOL0     H 5807   5.805   5.771   3.217  0.8605  1.6546  1.4548
  802MOL0     H 5808   5.755   5.926   3.263 -0.6860  0.2813 -0.1497
  802MOL0     H 5809   5.656   5.777   3.032  0.1331  0.4222 -0.6793
  802MOL0     H 5810   5.625   5.950   3.044  0.2599  0.7524  0.7901
  802MOL0     H 5811   5.539   5.912   3.288 -0.6074  1.6549 -1.0197
  802MOL0     H 5812   5.545   5.729   3.257 -0.7743 -0.7046  0.1440
  802MOL0     H 5813   5.326   5.853   3.226 -1.7363 -1.0265 -0.2735
  802MOL0     H 5814   5.403   5.910   3.077 -0.7102  1.0493  1.3068
  802MOL0     H 5815   5.454   5.651   3.023 -1.4157 -1.5742  0.5953
  802MOL0     H 5816   5.298   5.713   2.999 -2.2892 -0.4827  1.0179
  802MOL0     H 5817   5.111   5.635   3.155  0.5205  0.0051 -1.0726
  802MOL0     H 5818   5.004   5.577   3.395  1.8951  0.3711 -1.4341
  802MOL0     H 5819   5.079   5.467   3.503 -2.3761  2.2666  0.3301
  802MOL0     H 5820   4.941   5.437   3.249  1.5720  2.0701 -0.6092
  802MOL0     H 5821   4.916   5.336   3.393  1.0912 -0.2801  0.6810
  802MOL0     H 5822   5.128   5.296   3.174 -0.4601  0.5981 -1.0615
  802MOL0     H 5823   5.135   5.211   3.340 -0.8803 -1.2133 -0.3162
  802MOL0     H 5824   4.955   5.084   3.298  4.4443 -0.1782  0.8911
  802MOL0     H 5825   5.010   5.094   3.127  0.0187  1.5252 -0.9648
  802MOL0     H 5826   5.016   5.205   2.957 -0.5005 -1.7635  0.3557
  802MOL0     H 5827   4.955   5.213   2.727 -0.5870 -0.6263 -0.6758
  802MOL0     H 5828   4.929   5.177   2.342  0.9995  0.6631 -1.2373
  802MOL0     H 5829   4.907   5.238   2.096  1.0437  1.6231 -0.2890
  802MOL0     H 5830   4.530   5.482   2.066 -2.7496 -0.3311 -2.4139
  802MOL0     H 5831   4.556   5.391   1.932 -1.2550  1.2209 -1.7313
  802MOL0     H 5832   4.670   5.567   1.799 -3.2595  0.4193 -2.0400
  802MOL0     H 5833   4.640   5.677   1.931 -0.4340 -1.2417  0.3585
  802MOL0     H 5834   4.448   5.580   1.731 -1.8532  0.3426  0.2455
  802MOL0     H 5835   4.498   5.742   1.770  2.0831 -0.0959  0.7281
  802MOL0     H 5836   4.367   5.540   1.962  0.0259  1.0667  2.0672
  802MOL0     H 5837   4.375   5.711   2.000 -2.7532 -3.0978  2.5856
  802MOL0     H 5838   4.206   5.585   1.797 -0.0351 -1.9390  2.6684
  802MOL0     H 5839   4.236   5.765   1.810  0.9397  0.3315  1.0224
  802MOL0     H 5840   4.024   5.683   1.922  0.6502  0.4939 -1.1603
  802MOL0     H 5841   4.118   5.786   2.018  0.4789 -0.6706  0.2998
  802MOL0     H 5842   4.213   5.570   2.140  0.1604 -0.4856  0.3805
  802MOL0     H 5843   4.038   5.603   2.146  1.4536 -0.4444  2.7759
  802MOL0     H 5844   3.978   5.448   1.981 -0.1492  1.5412  1.9831
  802MOL0     H 5845   4.053   5.370   2.114  3.5325 -0.6082  0.5556
  802MOL0     H 5846   4.658   5.573   2.234 -0.1357 -0.4198 -1.2633
  802MOL0     H 5847   4.690   5.502   2.457  1.1069  1.3753 -1.2472
  802MOL0     H 5848   4.553   5.297   2.835  0.6427 -1.1672 -1.9776
  802MOL0     H 5849   4.604   5.242   3.064  0.8176 -0.7187  0.5275
  802MOL0     H 5850   6.228   6.242   2.852 -1.3462  2.4015  0.7480
  802MOL0     H 5851   6.450   6.359   2.847 -2.0333  0.3043 -1.2091
  802MOL0     H 5852   6.648   6.749   2.814  0.1435  0.3627  0.3806
  802MOL0     H 5853   6.884   6.832   2.761 -0.7109  0.3903  0.4339
  802MOL0     H 5854   7.242   6.646   2.981  1.5135  0.1612  1.2446
  802MOL0     H 5855   7.322   6.725   2.844 -0.3677  0.6178  1.2126
  802MOL0     H 5856   7.313   6.477   2.819  2.4211  3.2995 -1.7976
  802MOL0     H 5857   7.138   6.471   2.842  1.4286 -0.3775  1.0510
  802MOL0     H 5858   7.260   6.640   2.623 -0.1016 -0.4640 -0.9977
  802MOL0     H 5859   7.090   6.595   2.628 -0.9917 -0.6438  3.1553
  802MOL0     H 5860   7.331   6.446   2.544  0.6012 -2.4995  1.5775
  802MOL0     H 5861   7.200   6.356   2.624  0.7574 -0.3657  0.0945
  802MOL0     H 5862   7.048   6.516   2.236  1.6989  3.4028  0.1476
  802MOL0     H 5863   7.055   6.554   3.034  0.6900  2.9823  1.0107
  802MOL0     H 5864   6.838   6.485   3.107 -1.7685 -3.2294 -2.2809
  803MOL0     O 5865   7.359   1.177   9.330 -0.2028 -0.5730  1.0973
  803MOL0     C 5866   7.374   1.067   9.283  0.4592  0.7709  0.5864
  803MOL0     O 5867   7.273   0.973   9.250 -1.0262  0.2080 -1.3065
  803MOL0     C 5868   7.149   1.014   9.219  0.0295 -0.1081  0.2928
  803MOL0     C 5869   7.125   1.133   9.147 -0.3583  0.7978 -0.3212
  803MOL0     C 5870   6.999   1.173   9.109  0.2223 -0.1106 -0.2845
  803MOL0     C 5871   6.885   1.093   9.128 -0.3761  0.2020  0.1471
  803MOL0     O 5872   6.759   1.112   9.080 -0.2135  0.9615 -0.0235
  803MOL0     C 5873   6.698   1.235   9.054 -0.2683 -0.2144 -0.4138
  803MOL0     C 5874   6.581   1.214   8.950 -0.0565 -0.4208  0.1349
  803MOL0     C 5875   6.542   1.354   8.895  0.0301 -0.7152  0.8753
  803MOL0     C 5876   6.511   1.455   8.997  0.1661  0.1758  0.2604
  803MOL0     C 5877   6.435   1.571   8.928 -0.2221 -0.1843 -0.0298
  803MOL0     C 5878   6.391   1.685   9.023  0.0058 -0.1673  0.0030
  803MOL0     C 5879   6.301   1.627   9.135 -0.2721 -0.3096 -1.1869
  803MOL0     C 5880   6.275   1.753   9.234 -0.1388  0.1845  0.0312
  803MOL0     N 5881   6.229   1.687   9.356 -0.2606 -0.3760 -0.3961
  803MOL0     C 5882   6.128   1.593   9.365 -0.0494  0.4939  0.4641
  803MOL0     C 5883   6.115   1.570   9.496  0.1894  0.0755 -0.6473
  803MOL0     C 5884   6.030   1.473   9.568 -0.5285  0.2599  0.5356
  803MOL0     C 5885   6.090   1.393   9.679 -0.7853  0.6166  0.6671
  803MOL0     C 5886   5.994   1.275   9.715 -0.1454 -1.1207 -0.2974
  803MOL0     C 5887   5.873   1.307   9.806  0.6508 -0.3014  0.5096
  803MOL0     O 5888   5.782   1.376   9.714  0.2853 -0.0868 -0.0487
  803MOL0     C 5889   5.656   1.385   9.756  0.6805  0.5056 -0.0150
  803MOL0     C 5890   5.587   1.273   9.804 -0.6571  0.1442 -1.0825
  803MOL0     C 5891   5.460   1.284   9.863 -1.1348 -0.4620  0.6543
  803MOL0     C 5892   5.388   1.409   9.835 -0.9539 -0.2638  0.5363
  803MOL0     C 5893   5.247   1.414   9.873 -0.0026 -0.1247  0.3315
  803MOL0     O 5894   5.173   1.296   9.873  0.5828 -0.5826 -0.2394
  803MOL0     C 5895   5.036   1.316   9.908  0.0126 -0.4201 -0.3787
  803MOL0     C 5896   4.934   1.302   9.813 -0.1181  0.2330  0.1342
  803MOL0     C 5897   4.799   1.318   9.843  0.0851  0.2836 -0.0620
  803MOL0     C 5898   4.757   1.353   9.975  0.1851 -0.2753 -0.5919
  803MOL0     O 5899   4.626   1.379  10.019 -0.3789 -0.1573  0.6095
  803MOL0     C 5900   4.543   1.423   9.911 -0.0381  0.2916  0.0918
  803MOL0     C 5901   4.414   1.475   9.963 -1.0307 -0.7420 -0.0777
  803MOL0     C 5902   4.335   1.392  10.076  0.1239 -0.2848 -0.4665
  803MOL0     C 5903   4.328   1.243  10.033 -0.1934  0.2362  1.1544
  803MOL0     C 5904   4.235   1.194   9.919 -0.4362 -0.2432  0.2690
  803MOL0     C 5905   4.097   1.188   9.979  0.5702 -0.4642 -0.5885
  803MOL0     C 5906   4.004   1.130   9.879 -0.0834  1.1033  0.1992
  803MOL0     C 5907   3.887   1.216   9.845 -0.0119  0.5768  0.0941
  803MOL0    Cl 5908   3.775   1.198   9.972  0.3149 -0.1843  0.0571
  803MOL0     C 5909   4.862   1.384  10.068 -0.2247  0.4281  0.1656
  803MOL0     C 5910   4.991   1.354  10.036 -0.0064 -0.2836 -0.4447
  803MOL0     O 5911   5.200   1.526   9.904 -0.9289  0.8364 -0.3839
  803MOL0     C 5912   5.458   1.520   9.781  0.0374 -0.4924 -0.6396
  803MOL0     C 5913   5.590   1.503   9.738 -0.4757  0.1441  0.6209
  803MOL0     N 5914   6.187   1.671   9.560  0.0041 -0.3882 -0.8592
  803MOL0     N 5915   6.243   1.744   9.478 -0.2712 -0.6099  0.5470
  803MOL0     C 5916   6.900   0.985   9.210 -0.5495 -0.0571  0.2933
  803MOL0     C 5917   7.027   0.946   9.251 -0.2337  0.2814 -0.0833
  803MOL0     C 5918   7.512   1.021   9.256  0.2149 -0.7194  0.2328
  803MOL0     C 5919   7.617   1.108   9.229 -0.2678  0.3291  0.4099
  803MOL0     C 5920   7.742   1.050   9.196  0.5687 -0.1834 -0.7681
  803MOL0     C 5921   7.755   0.918   9.161 -1.0916 -0.1232 -0.0547
  803MOL0     O 5922   7.871   0.867   9.101 -0.0326  0.3236  0.7707
  803MOL0     C 5923   7.964   0.957   9.038 -0.3655  0.4513  0.2810
  803MOL0     C 5924   8.080   0.894   8.950  0.6492 -0.2784  0.5721
  803MOL0     C 5925   8.141   0.771   9.025 -0.0209  0.5275  0.8073
  803MOL0     C 5926   8.221   0.677   8.940  0.4211 -0.3565 -0.0756
  803MOL0     C 5927   8.350   0.728   8.902 -0.3510  0.4237 -0.7810
  803MOL0     C 5928   8.455   0.771   8.850 -0.1680 -0.2793 -0.2987
  803MOL0     C 5929   7.653   0.838   9.190  0.4385  0.0665 -0.0169
  803MOL0     C 5930   7.538   0.887   9.242  0.6041 -0.2932  0.7458
  803MOL0     H 5931   7.205   1.200   9.117 -1.8975  1.9955 -1.9814
  803MOL0     H 5932   6.994   1.252   9.034  3.4860 -0.8096 -1.4239
  803MOL0     H 5933   6.770   1.305   9.010 -0.4528  1.3602  1.6356
  803MOL0     H 5934   6.648   1.274   9.143 -1.1568 -4.5633  1.2330
  803MOL0     H 5935   6.492   1.169   8.995 -0.4400  0.9801  0.8547
  803MOL0     H 5936   6.608   1.162   8.858  2.4199  1.0214 -0.0468
  803MOL0     H 5937   6.470   1.342   8.814 -0.8214  1.4384  1.2273
  803MOL0     H 5938   6.635   1.383   8.845 -0.2633 -0.9637  0.1734
  803MOL0     H 5939   6.450   1.393   9.064  1.1890  1.0632  2.0979
  803MOL0     H 5940   6.597   1.493   9.054 -0.6133  2.2933  0.1138
  803MOL0     H 5941   6.345   1.539   8.873 -2.0458  2.5377  1.1508
  803MOL0     H 5942   6.496   1.621   8.852 -1.6965 -0.1179 -1.2265
  803MOL0     H 5943   6.338   1.766   8.973 -0.2487  0.5552  1.4015
  803MOL0     H 5944   6.479   1.723   9.075 -0.2224 -0.0117  0.2789
  803MOL0     H 5945   6.217   1.571   9.095 -0.2429 -0.8786 -0.4776
  803MOL0     H 5946   6.356   1.561   9.204 -1.6742 -1.3360 -1.0191
  803MOL0     H 5947   6.201   1.827   9.203  1.6161  2.8051  1.7623
  803MOL0     H 5948   6.361   1.808   9.272 -0.4405 -1.3048  3.1602
  803MOL0     H 5949   6.089   1.537   9.281  1.0167  0.5469 -0.0855
  803MOL0     H 5950   5.971   1.409   9.501 -1.4667 -0.3127  1.8650
  803MOL0     H 5951   5.954   1.533   9.620 -1.1664 -2.0234  2.3921
  803MOL0     H 5952   6.117   1.451   9.768  1.2992 -0.0436  0.5174
  803MOL0     H 5953   6.186   1.350   9.648 -0.8063  0.8907  0.2190
  803MOL0     H 5954   5.957   1.239   9.619 -0.2086 -2.4426  0.1955
  803MOL0     H 5955   6.054   1.201   9.769  2.8676  0.8114 -0.7503
  803MOL0     H 5956   5.913   1.374   9.883  0.3577 -0.1010  0.4890
  803MOL0     H 5957   5.828   1.221   9.857  0.1245 -0.9750 -1.0023
  803MOL0     H 5958   5.634   1.175   9.811 -0.2183  0.3795 -0.7375
  803MOL0     H 5959   5.423   1.196   9.914  1.6544 -1.1288  1.6813
  803MOL0     H 5960   4.965   1.278   9.711  0.0736  1.3118 -0.0691
  803MOL0     H 5961   4.730   1.301   9.761  1.1627 -1.2722 -0.6881
  803MOL0     H 5962   4.534   1.345   9.835  0.1035  1.4648 -1.1721
  803MOL0     H 5963   4.597   1.503   9.859  1.2802 -0.7409 -0.1802
  803MOL0     H 5964   4.351   1.477   9.874 -0.8042 -1.9019 -0.2731
  803MOL0     H 5965   4.435   1.572  10.010  0.0605 -1.6965  1.5119
  803MOL0     H 5966   4.237   1.439  10.095  0.6259  1.0215 -0.9639
  803MOL0     H 5967   4.399   1.407  10.163 -1.0308  1.3660  0.1701
  803MOL0     H 5968   4.432   1.210  10.019 -0.2594  0.5924 -0.3503
  803MOL0     H 5969   4.292   1.186  10.118  0.6502 -0.6177  0.9617
  803MOL0     H 5970   4.270   1.100   9.876 -0.0906  0.7960 -1.8311
  803MOL0     H 5971   4.230   1.260   9.832 -1.4180  1.4162  1.5118
  803MOL0     H 5972   4.056   1.285  10.008 -0.5367 -1.4245  1.2272
  803MOL0     H 5973   4.085   1.128  10.069 -0.0017 -0.6480 -0.7832
  803MOL0     H 5974   4.060   1.099   9.790  2.2768 -2.3363  2.6246
  803MOL0     H 5975   3.959   1.036   9.913  0.8039 -0.3816 -2.4272
  803MOL0     H 5976   3.858   1.175   9.748  4.4132  0.8167 -1.5648
  803MOL0     H 5977   3.916   1.320   9.828 -0.4535  0.9997  1.8181
  803MOL0     H 5978   4.834   1.418  10.167  0.5820  1.1151  0.1615
  803MOL0     H 5979   5.059   1.364  10.120 -2.7504  0.8343  1.8301
  803MOL0     H 5980   5.407   1.615   9.770 -2.0423 -1.6676 -1.6485
  803MOL0     H 5981   5.645   1.590   9.703  1.5106 -0.5180  1.9305
  803MOL0     H 5982   6.816   0.927   9.247 -0.9511 -0.4905 -1.1866
  803MOL0     H 5983   7.050   0.850   9.296 -0.9251  0.3388  0.4012
  803MOL0     H 5984   7.622   1.214   9.248  4.5003  0.5030 -0.4122
  803MOL0     H 5985   7.823   1.120   9.182 -2.9151  4.2034 -1.5692
  803MOL0     H 5986   8.016   1.005   9.121 -1.2749  0.2626  0.9678
  803MOL0     H 5987   7.920   1.035   8.976 -1.0101 -0.1253 -0.0014
  803MOL0     H 5988   8.032   0.868   8.855 -2.9551 -2.8127  2.8188
  803MOL0     H 5989   8.155   0.971   8.928 -0.1956 -0.0305 -1.6467
  803MOL0     H 5990   8.054   0.705   9.034  1.3101 -1.6609 -1.2617
  803MOL0     H 5991   8.185   0.791   9.124  0.6109  1.6189  0.3210
  803MOL0     H 5992   8.236   0.587   9.001  0.9946  0.4262  0.9682
  803MOL0     H 5993   8.173   0.664   8.843  0.4445  1.0620 -0.2913
  803MOL0     H 5994   8.543   0.791   8.793 -2.7654  1.5714 -4.1354
  803MOL0     H 5995   7.672   0.735   9.160  1.5002  0.5281 -0.9804
  803MOL0     H 5996   7.460   0.815   9.263 -0.2917 -0.2180 -1.8867
  804MOL0     O 5997  10.905   4.867   1.516  0.1077  0.8267  0.0020
  804MOL0     C 5998  10.943   4.982   1.503  0.3444  0.0709  0.9064
  804MOL0     O 5999  10.873   5.102   1.537  0.1983  0.4982 -0.0729
  804MOL0     C 6000  10.752   5.095   1.603  0.6259  0.5133 -0.2715
  804MOL0     C 6001  10.636   5.129   1.532 -0.1059 -0.0801  0.7203
  804MOL0     C 6002  10.517   5.106   1.604 -0.9089  0.0185 -0.1857
  804MOL0     C 6003  10.513   5.073   1.742  0.0564  1.0106 -0.2850
  804MOL0     O 6004  10.390   5.077   1.807 -0.3364 -0.3990  0.4864
  804MOL0     C 6005  10.377   5.036   1.941 -0.0169 -0.5595 -0.5795
  804MOL0     C 6006  10.231   5.046   1.981 -0.4866 -0.0166  0.0433
  804MOL0     C 6007  10.191   5.195   2.012  0.3458  0.4610  0.7424
  804MOL0     C 6008  10.042   5.197   2.070  0.2258  0.3449  0.8662
  804MOL0     C 6009   9.991   5.330   2.127  0.5445  0.4289 -0.1675
  804MOL0     C 6010   9.856   5.307   2.210 -0.1370 -0.3046  0.0764
  804MOL0     C 6011   9.753   5.202   2.151  0.5188 -0.0824 -0.0232
  804MOL0     C 6012   9.628   5.201   2.233 -0.0265 -0.4746 -0.9754
  804MOL0     N 6013   9.527   5.283   2.166  0.2311  0.5975 -0.1294
  804MOL0     C 6014   9.404   5.225   2.127  0.2621  0.1939 -0.1317
  804MOL0     C 6015   9.317   5.327   2.126 -0.1410 -0.2296  0.7161
  804MOL0     C 6016   9.163   5.313   2.116  0.0110  0.1188  0.1950
  804MOL0     C 6017   9.097   5.328   2.257  0.1587 -0.7160 -0.0830
  804MOL0     C 6018   9.001   5.453   2.269  0.2087 -0.8531 -1.0779
  804MOL0     C 6019   8.970   5.495   2.417 -0.1166 -0.1026  0.4399
  804MOL0     O 6020   8.870   5.598   2.407  0.3278 -0.2117 -0.1322
  804MOL0     C 6021   8.741   5.558   2.399 -0.6659 -0.7430 -0.2851
  804MOL0     C 6022   8.690   5.430   2.375  0.0637 -0.4823 -0.2469
  804MOL0     C 6023   8.555   5.414   2.374  0.1006  1.0122 -0.8246
  804MOL0     C 6024   8.461   5.523   2.381 -0.6707  1.1601  0.3874
  804MOL0     C 6025   8.318   5.500   2.367  0.7049 -0.1011  0.2448
  804MOL0     O 6026   8.236   5.612   2.391  0.9008  0.7620 -0.3970
  804MOL0     C 6027   8.097   5.603   2.384  0.4248 -0.7286  0.5954
  804MOL0     C 6028   8.005   5.616   2.500  0.1538  0.0634 -0.5610
  804MOL0     C 6029   7.868   5.607   2.475  0.1102  0.6350  0.2802
  804MOL0     C 6030   7.813   5.569   2.350  0.5338 -0.4899  0.1242
  804MOL0     O 6031   7.677   5.540   2.343 -0.3546 -0.0147 -0.3427
  804MOL0     C 6032   7.608   5.619   2.245  0.7220  0.2564  0.8214
  804MOL0     C 6033   7.459   5.619   2.268  0.2449  0.4325 -0.3879
  804MOL0     C 6034   7.392   5.486   2.239  0.1127 -0.0507 -0.4949
  804MOL0     C 6035   7.244   5.483   2.266 -0.6779 -0.8727  0.0199
  804MOL0     C 6036   7.192   5.349   2.281 -0.5747  1.1170  0.4380
  804MOL0     C 6037   7.063   5.348   2.360 -0.3101  0.4300  0.0528
  804MOL0     C 6038   7.024   5.196   2.372  0.2110 -0.3801  0.4513
  804MOL0     C 6039   6.877   5.180   2.362 -0.3109 -0.7345  0.5460
  804MOL0    Cl 6040   6.812   5.180   2.190  0.4134 -0.0544  0.6784
  804MOL0     C 6041   7.903   5.564   2.243 -0.9612  0.6953 -0.4879
  804MOL0     C 6042   8.037   5.575   2.257 -0.5228 -0.6565 -0.5841
  804MOL0     O 6043   8.280   5.392   2.330  0.6144  0.6268  0.1050
  804MOL0     C 6044   8.508   5.648   2.412  0.1640 -0.5270  0.4518
  804MOL0     C 6045   8.649   5.666   2.423  0.2879  0.3228 -0.6461
  804MOL0     N 6046   9.379   5.450   2.163 -1.0134  0.0781  0.5918
  804MOL0     N 6047   9.502   5.414   2.191 -0.4264 -0.5879 -0.6039
  804MOL0     C 6048  10.634   5.048   1.807  0.3214 -0.3217 -0.5839
  804MOL0     C 6049  10.757   5.059   1.742  0.4335  0.1181  0.0313
  804MOL0     C 6050  11.067   5.003   1.418  0.3454  0.1511 -1.3125
  804MOL0     C 6051  11.164   4.912   1.387 -0.5428  0.4785 -0.6658
  804MOL0     C 6052  11.285   4.947   1.320  0.9869 -0.1272 -0.5589
  804MOL0     C 6053  11.306   5.076   1.277 -0.0091  0.4547 -0.7826
  804MOL0     O 6054  11.423   5.106   1.207  0.0775  0.2108  0.8580
  804MOL0     C 6055  11.524   5.188   1.268 -0.0727  0.2622 -0.7373
  804MOL0     C 6056  11.657   5.118   1.280 -0.0839 -0.3023  0.7692
  804MOL0     C 6057  11.705   5.070   1.145 -0.3803 -0.2371 -0.7591
  804MOL0     C 6058  11.715   5.184   1.042  1.2877 -0.0288 -0.2354
  804MOL0     C 6059  11.779   5.142   0.921  0.0995 -0.8036  0.7908
  804MOL0     C 6060  11.833   5.104   0.815  1.2289 -0.6694  0.0322
  804MOL0     C 6061  11.202   5.166   1.286 -0.4847  0.2224  0.1892
  804MOL0     C 6062  11.085   5.133   1.357  0.0616  0.4729 -0.3823
  804MOL0     H 6063  10.636   5.153   1.427  1.9743 -2.1641  0.1707
  804MOL0     H 6064  10.420   5.116   1.557 -0.4545 -0.8115 -1.3221
  804MOL0     H 6065  10.440   5.100   2.003  1.3056 -0.6021 -1.8246
  804MOL0     H 6066  10.411   4.932   1.945  0.1245 -0.5113 -0.5349
  804MOL0     H 6067  10.209   4.990   2.072 -0.3991  0.4071  0.3248
  804MOL0     H 6068  10.165   4.994   1.910 -1.5501  0.6088  0.5494
  804MOL0     H 6069  10.197   5.256   1.922  2.0970 -0.6093  0.0822
  804MOL0     H 6070  10.252   5.240   2.092 -0.2027 -0.5868  1.7882
  804MOL0     H 6071   9.969   5.153   2.002  2.3281  0.6771 -1.7944
  804MOL0     H 6072  10.029   5.130   2.156 -3.0660 -0.2946  0.0053
  804MOL0     H 6073   9.960   5.398   2.046  0.2606 -1.0959 -1.3928
  804MOL0     H 6074  10.062   5.383   2.191 -0.1213  0.5770  0.4651
  804MOL0     H 6075   9.804   5.402   2.223  3.0359  1.6886 -0.7069
  804MOL0     H 6076   9.885   5.271   2.309 -1.0126  0.7837  0.7451
  804MOL0     H 6077   9.727   5.207   2.045  2.7589  3.2019 -0.5634
  804MOL0     H 6078   9.809   5.108   2.158  1.8050  0.4765 -2.0409
  804MOL0     H 6079   9.655   5.234   2.334 -0.2524  2.0018 -1.6460
  804MOL0     H 6080   9.591   5.098   2.240 -0.4421 -0.4049 -1.9487
  804MOL0     H 6081   9.378   5.123   2.098  1.6194 -0.5327  1.0603
  804MOL0     H 6082   9.140   5.209   2.090  0.9564 -0.2352  0.7285
  804MOL0     H 6083   9.123   5.383   2.042  0.3983 -1.5152 -1.6196
  804MOL0     H 6084   9.182   5.353   2.320  0.4553  1.2409 -1.1680
  804MOL0     H 6085   9.038   5.241   2.287 -1.6794  0.9010  1.2513
  804MOL0     H 6086   9.052   5.540   2.227  0.1471  0.2394  0.9711
  804MOL0     H 6087   8.909   5.442   2.211 -1.8108 -0.3528  1.7547
  804MOL0     H 6088   9.060   5.529   2.469 -1.4082  2.5067  1.1668
  804MOL0     H 6089   8.934   5.409   2.474  1.1809 -2.4173 -2.0419
  804MOL0     H 6090   8.762   5.348   2.372  0.8259  0.1840 -0.3782
  804MOL0     H 6091   8.526   5.310   2.369  0.0008  1.0001 -0.0513
  804MOL0     H 6092   8.042   5.626   2.601 -0.2590 -0.6797 -0.3342
  804MOL0     H 6093   7.791   5.612   2.552  0.6805 -0.3533  0.9300
  804MOL0     H 6094   7.631   5.571   2.149  0.4053  0.8129  0.4623
  804MOL0     H 6095   7.637   5.724   2.238 -0.8695  0.8409  2.3442
  804MOL0     H 6096   7.406   5.690   2.203 -1.7921  0.3624  1.1139
  804MOL0     H 6097   7.445   5.647   2.372  1.6100 -0.1553 -0.0155
  804MOL0     H 6098   7.436   5.411   2.305  2.5175 -0.5958 -2.5809
  804MOL0     H 6099   7.427   5.450   2.142 -1.4171 -2.4469 -0.2417
  804MOL0     H 6100   7.237   5.538   2.360  0.4124 -0.5021 -0.1033
  804MOL0     H 6101   7.188   5.536   2.188  1.1345  1.7836  0.3850
  804MOL0     H 6102   7.272   5.285   2.320  0.9453  1.1244 -2.4523
  804MOL0     H 6103   7.181   5.299   2.185 -0.5104 -1.6941  1.7813
  804MOL0     H 6104   6.989   5.409   2.309  0.1186 -1.6716 -3.4220
  804MOL0     H 6105   7.094   5.381   2.460 -0.6990  0.2679  0.2258
  804MOL0     H 6106   7.066   5.134   2.291  1.0236  1.7744 -0.8714
  804MOL0     H 6107   7.062   5.170   2.471  2.1658 -2.9145 -0.8224
  804MOL0     H 6108   6.825   5.254   2.423  1.2451 -2.2994  4.0856
  804MOL0     H 6109   6.852   5.080   2.399  0.0758 -2.0580 -2.4745
  804MOL0     H 6110   7.855   5.546   2.148 -2.2906 -2.1238  0.6236
  804MOL0     H 6111   8.098   5.572   2.168  2.7113 -2.3819  1.4870
  804MOL0     H 6112   8.439   5.730   2.429  0.7617 -0.2313  1.5884
  804MOL0     H 6113   8.685   5.764   2.454 -1.6665  0.6301  0.8976
  804MOL0     H 6114  10.636   5.013   1.910 -2.0610 -0.9912 -0.6903
  804MOL0     H 6115  10.848   5.034   1.795  1.8431 -1.7889 -3.0004
  804MOL0     H 6116  11.159   4.807   1.414  1.6332  0.5580  0.1961
  804MOL0     H 6117  11.359   4.871   1.299  0.2500 -0.4071 -2.3137
  804MOL0     H 6118  11.494   5.218   1.369 -0.9971  0.3001 -1.0113
  804MOL0     H 6119  11.533   5.285   1.218  3.5516  0.7604  0.5857
  804MOL0     H 6120  11.724   5.190   1.326  1.0693  0.6406 -2.1176
  804MOL0     H 6121  11.651   5.036   1.352  1.4093  0.3923  1.7137
  804MOL0     H 6122  11.645   4.985   1.112 -3.7095  0.7148  2.2418
  804MOL0     H 6123  11.806   5.033   1.165 -1.0792 -2.0009 -0.3232
  804MOL0     H 6124  11.615   5.219   1.016  1.4466 -0.3249 -1.3042
  804MOL0     H 6125  11.782   5.262   1.078  2.3203 -1.0390  0.0972
  804MOL0     H 6126  11.882   5.089   0.721  0.5473  3.4595 -1.2141
  804MOL0     H 6127  11.219   5.264   1.243  0.1094 -0.5484 -1.4046
  804MOL0     H 6128  11.007   5.208   1.367 -0.2811  0.0775 -0.0113
  805MOL0     O 6129   3.134   6.086   6.498  0.6797  0.0629  0.4557
  805MOL0     C 6130   3.123   6.174   6.414  0.5900 -0.4738 -0.6524
  805MOL0     O 6131   2.998   6.233   6.386  0.1739 -1.1017  0.3151
  805MOL0     C 6132   2.895   6.225   6.472  0.0943  0.8912 -0.9517
  805MOL0     C 6133   2.911   6.255   6.609  0.1560  0.9655  1.3520
  805MOL0     C 6134   2.801   6.235   6.692  0.2093  1.0553 -0.2434
  805MOL0     C 6135   2.676   6.199   6.648 -0.6568 -0.5333 -0.1506
  805MOL0     O 6136   2.574   6.191   6.743  0.4152 -0.4148 -0.4355
  805MOL0     C 6137   2.448   6.130   6.702 -0.1614  0.3888  0.0378
  805MOL0     C 6138   2.347   6.158   6.812  0.5505 -0.5926 -1.1977
  805MOL0     C 6139   2.328   6.305   6.845 -0.7497 -0.2721  0.2570
  805MOL0     C 6140   2.296   6.405   6.729 -0.1244  0.0071 -0.3971
  805MOL0     C 6141   2.153   6.387   6.674 -0.0677  0.2963 -0.5176
  805MOL0     C 6142   2.135   6.483   6.557  0.0774 -0.5200  0.2082
  805MOL0     C 6143   1.986   6.500   6.508 -0.1852  0.1734  0.1023
  805MOL0     C 6144   1.971   6.584   6.381 -0.2596 -0.1564  2.0086
  805MOL0     N 6145   1.840   6.578   6.310  0.2475 -0.0110 -0.0664
  805MOL0     C 6146   1.835   6.549   6.174 -0.7068  0.5313  0.4288
  805MOL0     C 6147   1.702   6.564   6.145  0.3396  0.1940  0.6905
  805MOL0     C 6148   1.635   6.539   6.009  0.6005 -0.6619  0.8907
  805MOL0     C 6149   1.516   6.434   6.012  0.3393 -0.0078 -0.4004
  805MOL0     C 6150   1.494   6.391   5.865  0.0457  0.3459  0.1454
  805MOL0     C 6151   1.499   6.507   5.764  0.8881  0.0078  0.5365
  805MOL0     O 6152   1.460   6.451   5.637 -0.2074  0.1918 -0.5001
  805MOL0     C 6153   1.400   6.533   5.549  0.5626 -0.7277  0.0992
  805MOL0     C 6154   1.356   6.458   5.434  0.1035 -0.3136  0.1050
  805MOL0     C 6155   1.286   6.518   5.332 -0.0404 -0.8922 -0.8439
  805MOL0     C 6156   1.249   6.656   5.341 -0.1363  0.0234 -0.3490
  805MOL0     C 6157   1.144   6.710   5.246 -0.4969  0.0499  0.5286
  805MOL0     O 6158   1.081   6.622   5.161  0.1965 -0.1384  0.2157
  805MOL0     C 6159   0.976   6.664   5.083 -0.3434  0.6882 -0.1090
  805MOL0     C 6160   0.956   6.618   4.950 -0.2222  0.5966 -0.3021
  805MOL0     C 6161   0.839   6.636   4.878 -0.0155  0.0245 -1.2617
  805MOL0     C 6162   0.736   6.718   4.930 -0.6290 -0.0307  0.3460
  805MOL0     O 6163   0.617   6.737   4.866 -0.1812 -0.5612  0.7910
  805MOL0     C 6164   0.532   6.634   4.901  0.6315  0.3803 -0.0799
  805MOL0     C 6165   0.392   6.685   4.890  0.1467 -0.1020 -0.5773
  805MOL0     C 6166   0.333   6.706   4.751 -0.1756 -0.8125 -0.3663
  805MOL0     C 6167   0.180   6.741   4.767 -0.7354  0.1748  0.5630
  805MOL0     C 6168   0.112   6.746   4.630 -0.3111  0.3150  0.0593
  805MOL0     C 6169  -0.031   6.791   4.640 -0.8029 -0.4266  0.6458
  805MOL0     C 6170  -0.091   6.802   4.495  0.8843 -0.3921  0.5089
  805MOL0     C 6171  -0.241   6.822   4.503 -0.1168  0.0197  0.4721
  805MOL0    Cl 6172  -0.315   6.782   4.337  0.3450 -0.6721  0.1400
  805MOL0     C 6173   0.752   6.768   5.059 -0.0972  0.8169  0.0306
  805MOL0     C 6174   0.868   6.743   5.135 -0.6202  0.0799  0.9205
  805MOL0     O 6175   1.124   6.827   5.246  0.2439  0.2081  0.1143
  805MOL0     C 6176   1.297   6.732   5.451 -0.3148  0.1719  0.7462
  805MOL0     C 6177   1.375   6.676   5.551  0.1223 -0.3825 -0.1570
  805MOL0     N 6178   1.635   6.614   6.253  0.3294  0.6745 -0.1865
  805MOL0     N 6179   1.718   6.618   6.351  0.0243  0.2931  0.7322
  805MOL0     C 6180   2.673   6.166   6.509 -0.3262  1.7022 -0.2441
  805MOL0     C 6181   2.779   6.171   6.421 -0.7971 -0.0986 -0.1090
  805MOL0     C 6182   3.239   6.228   6.346 -0.3240  0.2805 -0.2357
  805MOL0     C 6183   3.366   6.162   6.357  0.5456 -0.6041  0.4322
  805MOL0     C 6184   3.478   6.216   6.288 -0.6073  0.1350  0.2419
  805MOL0     C 6185   3.463   6.342   6.222 -0.1667 -0.7769 -0.1816
  805MOL0     O 6186   3.550   6.418   6.152  0.0557  0.3018  0.0514
  805MOL0     C 6187   3.677   6.365   6.147  0.5116 -0.0080 -0.0944
  805MOL0     C 6188   3.763   6.449   6.063 -0.2964 -0.5587  0.0034
  805MOL0     C 6189   3.859   6.530   6.143  0.0920 -0.0535 -0.1093
  805MOL0     C 6190   3.933   6.633   6.051  0.3085  0.3140  0.4820
  805MOL0     C 6191   4.025   6.564   5.956  0.1917  0.3351 -0.0433
  805MOL0     C 6192   4.107   6.496   5.896 -0.5418 -0.2198 -0.0590
  805MOL0     C 6193   3.332   6.397   6.200  0.2655 -0.3266 -1.2646
  805MOL0     C 6194   3.223   6.340   6.262 -0.6190 -0.1440 -0.8406
  805MOL0     H 6195   3.005   6.279   6.657  2.0501 -1.2838 -0.9329
  805MOL0     H 6196   2.823   6.234   6.798  0.9269 -1.2271 -0.3587
  805MOL0     H 6197   2.456   6.023   6.683 -2.6468  0.3310 -1.0858
  805MOL0     H 6198   2.406   6.174   6.611 -0.1111 -0.3956 -0.3707
  805MOL0     H 6199   2.376   6.101   6.901 -2.6835  1.6134  1.4948
  805MOL0     H 6200   2.253   6.114   6.779 -0.0248  0.4095 -0.9305
  805MOL0     H 6201   2.418   6.333   6.900 -0.5037 -0.3434 -0.1071
  805MOL0     H 6202   2.243   6.317   6.913  0.0762 -0.0203  1.2674
  805MOL0     H 6203   2.304   6.509   6.763  0.6032  0.1875 -1.0821
  805MOL0     H 6204   2.371   6.397   6.649 -0.6571  0.0770 -0.9068
  805MOL0     H 6205   2.080   6.396   6.755  0.6010 -1.1006  0.2818
  805MOL0     H 6206   2.128   6.288   6.633 -3.4402  0.5554  0.5929
  805MOL0     H 6207   2.200   6.454   6.474 -2.1279  1.7173 -2.5208
  805MOL0     H 6208   2.172   6.583   6.583  1.5551  0.5047 -4.7306
  805MOL0     H 6209   1.934   6.406   6.486 -0.1305  0.5858 -2.0785
  805MOL0     H 6210   1.929   6.552   6.585 -1.4524  0.9380 -1.2863
  805MOL0     H 6211   2.043   6.552   6.305 -1.9303  0.9444 -0.1483
  805MOL0     H 6212   1.985   6.689   6.407 -2.1510  0.1204  2.0750
  805MOL0     H 6213   1.913   6.515   6.107 -0.2365 -1.5140  1.8995
  805MOL0     H 6214   1.711   6.496   5.943 -1.7225 -2.2866 -0.8808
  805MOL0     H 6215   1.605   6.636   5.970 -1.7069 -1.9728 -0.8245
  805MOL0     H 6216   1.430   6.488   6.051 -0.1404 -0.5421 -0.7086
  805MOL0     H 6217   1.538   6.347   6.074 -3.0961 -1.3916 -0.9061
  805MOL0     H 6218   1.572   6.318   5.840  1.0904  0.3562  2.9925
  805MOL0     H 6219   1.402   6.334   5.853 -0.7189  1.4735  0.5005
  805MOL0     H 6220   1.600   6.549   5.755  0.0414  1.7885 -1.3624
  805MOL0     H 6221   1.427   6.586   5.788 -0.6269 -1.2813  0.3340
  805MOL0     H 6222   1.377   6.352   5.437 -1.8662 -0.7464  0.2296
  805MOL0     H 6223   1.250   6.459   5.249  0.4977  0.2956 -1.9491
  805MOL0     H 6224   1.022   6.552   4.894 -2.3968 -1.1305 -0.9398
  805MOL0     H 6225   0.830   6.604   4.774  0.4187  0.0648 -1.3145
  805MOL0     H 6226   0.558   6.599   5.001  2.6408 -0.3159 -0.8032
  805MOL0     H 6227   0.537   6.552   4.828  0.8918  1.1158 -0.9049
  805MOL0     H 6228   0.382   6.779   4.945 -1.6455 -2.0693  2.8152
  805MOL0     H 6229   0.334   6.609   4.943  1.8863 -0.0410  1.5584
  805MOL0     H 6230   0.363   6.623   4.686  2.0872 -0.6509  0.3553
  805MOL0     H 6231   0.384   6.788   4.700  0.0058 -2.2822 -2.6862
  805MOL0     H 6232   0.125   6.677   4.836 -0.7771 -2.7170 -1.9342
  805MOL0     H 6233   0.174   6.840   4.812 -0.1244  0.2166  0.5653
  805MOL0     H 6234   0.133   6.653   4.575  1.8354  1.0635 -0.4981
  805MOL0     H 6235   0.158   6.828   4.574 -0.4347  1.2562  1.2917
  805MOL0     H 6236  -0.046   6.884   4.695 -4.3268  0.3660 -1.3766
  805MOL0     H 6237  -0.080   6.708   4.692 -2.1141 -1.3604 -1.9081
  805MOL0     H 6238  -0.049   6.894   4.454  3.4009 -1.4584  0.5261
  805MOL0     H 6239  -0.065   6.718   4.431  1.3897  0.9170 -1.0878
  805MOL0     H 6240  -0.259   6.927   4.526 -0.9400  0.0450 -0.2294
  805MOL0     H 6241  -0.277   6.745   4.572 -4.3834 -0.1974 -1.7078
  805MOL0     H 6242   0.673   6.831   5.099  0.1656  0.5250  1.0429
  805MOL0     H 6243   0.876   6.791   5.232 -1.3606  0.6922  0.6907
  805MOL0     H 6244   1.274   6.838   5.448  0.3991  0.3107 -0.0529
  805MOL0     H 6245   1.421   6.728   5.635  0.1011  0.7516 -0.8297
  805MOL0     H 6246   2.585   6.124   6.461 -0.7611  1.2948  0.8848
  805MOL0     H 6247   2.781   6.150   6.315 -0.4051 -1.5606  0.1718
  805MOL0     H 6248   3.364   6.071   6.415  1.3017 -1.6621 -1.1250
  805MOL0     H 6249   3.574   6.164   6.290 -0.1604  0.9529  0.6494
  805MOL0     H 6250   3.659   6.267   6.100 -1.9467  1.4717 -2.5517
  805MOL0     H 6251   3.721   6.355   6.246  1.9673 -0.4094 -0.7413
  805MOL0     H 6252   3.827   6.387   5.999  0.0449 -1.5426  1.2501
  805MOL0     H 6253   3.698   6.514   6.004  1.0085  0.1298 -0.7340
  805MOL0     H 6254   3.936   6.473   6.196  0.5733  0.3275 -0.3912
  805MOL0     H 6255   3.806   6.582   6.223  1.7353  0.0220  0.9714
  805MOL0     H 6256   3.866   6.696   5.993  1.7651  0.8891 -0.6258
  805MOL0     H 6257   3.997   6.704   6.104 -0.5146  0.3002  1.5415
  805MOL0     H 6258   4.152   6.420   5.836 -0.5114  0.0659 -0.4000
  805MOL0     H 6259   3.328   6.492   6.149  0.4050  0.0744 -0.5542
  805MOL0     H 6260   3.127   6.389   6.254 -1.3154 -0.4959  3.0982
  806MOL0     O 6261   7.995   7.457   2.286  0.3980  0.3795  0.1783
  806MOL0     C 6262   8.039   7.570   2.296 -0.2417 -1.0027 -0.6501
  806MOL0     O 6263   8.170   7.610   2.315  0.4088  0.2454  0.1995
  806MOL0     C 6264   8.278   7.523   2.304 -1.0596 -0.2891 -0.0015
  806MOL0     C 6265   8.285   7.393   2.257 -0.0986 -0.2078  0.4372
  806MOL0     C 6266   8.406   7.318   2.256  0.0554  0.7348  0.0232
  806MOL0     C 6267   8.523   7.378   2.304  0.3315 -0.8833 -0.2792
  806MOL0     O 6268   8.646   7.311   2.308  0.1775  0.3160 -0.0475
  806MOL0     C 6269   8.750   7.367   2.224  0.2092  0.5261  0.9519
  806MOL0     C 6270   8.857   7.262   2.179 -0.3871 -0.2481 -0.2606
  806MOL0     C 6271   8.983   7.351   2.137  0.0097  0.2401  0.2992
  806MOL0     C 6272   9.083   7.266   2.063 -0.1291  0.4515  0.3039
  806MOL0     C 6273   9.154   7.168   2.163 -0.2570  0.6999 -1.2876
  806MOL0     C 6274   9.286   7.106   2.114 -0.0680  0.5039  0.7864
  806MOL0     C 6275   9.276   6.964   2.064  0.1288 -0.1109  0.5695
  806MOL0     C 6276   9.410   6.913   2.030  0.5822  0.2176  0.1252
  806MOL0     N 6277   9.413   6.790   1.963  0.2046  0.3615 -0.2874
  806MOL0     C 6278   9.319   6.690   1.961  0.3261 -1.2257  0.3795
  806MOL0     C 6279   9.364   6.607   1.870 -0.4679  0.6760  0.3249
  806MOL0     C 6280   9.310   6.475   1.830  0.7628 -0.0012 -0.0486
  806MOL0     C 6281   9.341   6.342   1.910 -0.0185  0.6062 -0.6534
  806MOL0     C 6282   9.297   6.207   1.850  0.5011  0.2791  0.3764
  806MOL0     C 6283   9.143   6.199   1.820 -0.0577  0.1536  0.0923
  806MOL0     O 6284   9.127   6.074   1.746 -0.8462 -0.0427 -0.0747
  806MOL0     C 6285   9.004   6.051   1.686  0.5768  0.4241 -0.2091
  806MOL0     C 6286   8.890   6.137   1.694  0.6301 -0.4425 -0.3635
  806MOL0     C 6287   8.763   6.104   1.646  0.1109 -0.1327  0.6769
  806MOL0     C 6288   8.750   5.979   1.577 -0.4177 -0.4091 -0.0257
  806MOL0     C 6289   8.611   5.945   1.541 -0.3824  0.5305 -0.8528
  806MOL0     O 6290   8.509   6.028   1.580  0.3060 -1.1061  1.2583
  806MOL0     C 6291   8.382   6.026   1.527 -1.1328  0.3899 -0.1823
  806MOL0     C 6292   8.353   6.130   1.441  0.3501  0.1323 -0.1058
  806MOL0     C 6293   8.221   6.142   1.387 -0.2421  0.6309 -0.2303
  806MOL0     C 6294   8.119   6.046   1.427 -0.4124 -0.0815  0.0711
  806MOL0     O 6295   8.008   6.056   1.347  0.3930  0.3776  0.3821
  806MOL0     C 6296   7.887   5.971   1.364  0.1246  0.4077 -0.7605
  806MOL0     C 6297   7.769   6.046   1.412 -0.4342  0.3962 -0.3764
  806MOL0     C 6298   7.657   6.075   1.311  0.5876 -0.7197  0.0604
  806MOL0     C 6299   7.582   5.951   1.255 -0.0004  0.0843  0.7712
  806MOL0     C 6300   7.441   5.997   1.187  0.6897 -0.2526  0.5335
  806MOL0     C 6301   7.323   5.949   1.270 -0.2094  0.1337 -0.4036
  806MOL0     C 6302   7.199   5.988   1.185 -0.5611  0.6386  0.2755
  806MOL0     C 6303   7.062   6.004   1.256  0.8673  0.8942  0.2025
  806MOL0    Cl 6304   6.957   5.863   1.223 -0.2491 -0.4976 -0.2031
  806MOL0     C 6305   8.155   5.944   1.519  0.8628 -0.2542 -0.3328
  806MOL0     C 6306   8.285   5.938   1.570  0.7242  0.8868 -0.5956
  806MOL0     O 6307   8.598   5.845   1.477 -0.4116 -0.3971  0.3557
  806MOL0     C 6308   8.862   5.898   1.547 -0.1515 -0.0556 -0.0860
  806MOL0     C 6309   8.991   5.940   1.600  0.1115  0.9613  0.7057
  806MOL0     N 6310   9.489   6.652   1.824  0.4678 -0.0468 -0.2458
  806MOL0     N 6311   9.517   6.764   1.873  0.1568 -0.0750  0.2414
  806MOL0     C 6312   8.514   7.516   2.339 -1.1872  0.1916 -0.2375
  806MOL0     C 6313   8.396   7.590   2.335  0.0482  0.1214  0.0462
  806MOL0     C 6314   7.929   7.668   2.313  0.3613  0.1251  0.9753
  806MOL0     C 6315   7.796   7.647   2.272  0.1126 -0.2657  0.0237
  806MOL0     C 6316   7.703   7.749   2.278  0.1890  0.5267  0.0415
  806MOL0     C 6317   7.732   7.875   2.319 -0.3728 -0.2433 -0.3896
  806MOL0     O 6318   7.620   7.959   2.333 -0.2830  0.5263  0.6328
  806MOL0     C 6319   7.654   8.088   2.377 -0.4099 -0.8842 -0.8909
  806MOL0     C 6320   7.532   8.166   2.400  0.7371  0.0233 -0.3598
  806MOL0     C 6321   7.550   8.305   2.475  0.1214  0.4528  0.1157
  806MOL0     C 6322   7.414   8.372   2.497 -0.1519  0.3797 -0.1903
  806MOL0     C 6323   7.444   8.509   2.528  0.0591  0.5522 -0.5539
  806MOL0     C 6324   7.448   8.619   2.570 -0.2765  0.1957 -0.2384
  806MOL0     C 6325   7.870   7.907   2.349 -0.0498  0.2219 -0.3894
  806MOL0     C 6326   7.963   7.802   2.342  0.4126  0.5797 -0.4622
  806MOL0     H 6327   8.198   7.344   2.214 -0.1899  0.1595  0.2067
  806MOL0     H 6328   8.405   7.214   2.224 -0.5026  1.4536 -2.5319
  806MOL0     H 6329   8.811   7.443   2.275  0.6461  1.6656 -1.1621
  806MOL0     H 6330   8.716   7.416   2.132 -3.2209  0.8719  2.2316
  806MOL0     H 6331   8.833   7.206   2.088 -1.1398  1.7426 -1.3647
  806MOL0     H 6332   8.886   7.200   2.263  0.7838  1.0324  0.3209
  806MOL0     H 6333   9.036   7.391   2.224 -0.0064  1.9457 -0.4238
  806MOL0     H 6334   8.955   7.430   2.066 -0.5833 -0.7481 -0.5875
  806MOL0     H 6335   9.034   7.208   1.984  2.6165 -2.4448  0.5438
  806MOL0     H 6336   9.160   7.328   2.016  0.7453 -2.2927 -2.2088
  806MOL0     H 6337   9.094   7.084   2.198  1.8094 -0.4623 -0.2990
  806MOL0     H 6338   9.172   7.227   2.253 -0.3430  1.0339 -1.4874
  806MOL0     H 6339   9.360   7.097   2.195  1.6530 -0.2193 -0.8029
  806MOL0     H 6340   9.324   7.173   2.036 -0.1058 -0.4967 -0.1049
  806MOL0     H 6341   9.229   6.898   2.138  3.2937 -0.8763  2.0748
  806MOL0     H 6342   9.211   6.963   1.976 -1.5656 -1.1607  1.7818
  806MOL0     H 6343   9.459   6.908   2.128  0.0596 -1.2896  0.3344
  806MOL0     H 6344   9.471   6.988   1.979  2.6968  2.8186  5.6560
  806MOL0     H 6345   9.238   6.686   2.033 -2.0544  3.6749 -1.6166
  806MOL0     H 6346   9.334   6.458   1.725  3.3149 -1.0383  0.6341
  806MOL0     H 6347   9.203   6.497   1.832  0.6396 -0.1871  4.0760
  806MOL0     H 6348   9.293   6.351   2.007 -1.7283  0.8319 -1.4811
  806MOL0     H 6349   9.449   6.342   1.930 -0.2111  0.3301  0.4567
  806MOL0     H 6350   9.347   6.197   1.753 -0.6488 -0.0294 -0.2051
  806MOL0     H 6351   9.317   6.119   1.913 -3.3626 -1.4721 -0.5397
  806MOL0     H 6352   9.093   6.286   1.778 -1.1750 -0.8201 -0.6670
  806MOL0     H 6353   9.092   6.181   1.915 -2.0707 -0.2095 -1.0184
  806MOL0     H 6354   8.896   6.230   1.751  1.6268  0.4713 -1.8930
  806MOL0     H 6355   8.680   6.172   1.662 -0.1988 -0.1719 -0.6671
  806MOL0     H 6356   8.437   6.192   1.410  2.0646 -0.4471  3.0117
  806MOL0     H 6357   8.184   6.199   1.303 -1.7224 -0.5741 -0.4573
  806MOL0     H 6358   7.901   5.883   1.427 -0.8356 -1.2384 -2.7523
  806MOL0     H 6359   7.869   5.933   1.263  0.6897  0.7437 -0.9954
  806MOL0     H 6360   7.805   6.138   1.459 -0.9935  2.1884 -3.1835
  806MOL0     H 6361   7.727   5.988   1.494  0.4142 -2.1536 -1.6474
  806MOL0     H 6362   7.699   6.135   1.229 -0.4594 -0.9594 -0.6684
  806MOL0     H 6363   7.585   6.136   1.365  1.8597 -0.5043  1.5682
  806MOL0     H 6364   7.639   5.909   1.172  1.5422  1.5253  1.0409
  806MOL0     H 6365   7.558   5.876   1.332 -2.6722  1.4142  1.3609
  806MOL0     H 6366   7.429   5.955   1.086 -0.1343 -2.0206  1.3126
  806MOL0     H 6367   7.437   6.105   1.175 -0.3636 -0.1554  1.5930
  806MOL0     H 6368   7.316   5.996   1.369 -1.2500 -0.3142 -0.2526
  806MOL0     H 6369   7.314   5.840   1.273  3.0275 -0.2265  0.5397
  806MOL0     H 6370   7.226   6.083   1.138  2.1524  0.6297  1.5691
  806MOL0     H 6371   7.187   5.916   1.103  2.1100 -0.7281  0.9306
  806MOL0     H 6372   6.999   6.088   1.224 -1.5742 -1.2742 -1.0796
  806MOL0     H 6373   7.087   6.014   1.362  0.1852  2.5002  0.2453
  806MOL0     H 6374   8.075   5.874   1.541 -1.3884  1.3645 -2.7270
  806MOL0     H 6375   8.325   5.853   1.623 -2.1814  0.0016  0.3126
  806MOL0     H 6376   8.875   5.812   1.482  2.1897  2.6605 -3.6274
  806MOL0     H 6377   9.071   5.868   1.586 -2.0215 -1.6311  0.9465
  806MOL0     H 6378   8.609   7.562   2.363  0.1848 -2.4090 -0.3135
  806MOL0     H 6379   8.394   7.696   2.357  4.2745  0.7431 -1.6065
  806MOL0     H 6380   7.765   7.554   2.226  1.7207 -0.2532 -1.1871
  806MOL0     H 6381   7.600   7.734   2.247  0.6255 -0.3341 -1.0676
  806MOL0     H 6382   7.712   8.140   2.300 -1.9137  1.4629 -0.5430
  806MOL0     H 6383   7.706   8.080   2.473  0.3552  1.2947 -1.0668
  806MOL0     H 6384   7.478   8.173   2.305  0.6434  2.0940 -0.2155
  806MOL0     H 6385   7.464   8.108   2.463  1.7546  3.0512  4.0691
  806MOL0     H 6386   7.616   8.369   2.415 -0.2134 -1.1111 -2.0432
  806MOL0     H 6387   7.588   8.280   2.574 -1.9590 -0.4124  0.7528
  806MOL0     H 6388   7.357   8.371   2.404  1.2720  0.2103 -1.0973
  806MOL0     H 6389   7.362   8.325   2.581 -0.5906  4.9277  2.4639
  806MOL0     H 6390   7.454   8.719   2.608 -3.8396  0.8353 -0.9859
  806MOL0     H 6391   7.903   8.009   2.367  0.0631 -0.1433  1.7449
  806MOL0     H 6392   8.067   7.827   2.361  0.4229 -0.2800  0.7151
  807MOL0     O 6393   0.468   5.284  10.389 -0.1140 -0.0676  0.4848
  807MOL0     C 6394   0.501   5.176  10.335 -0.5795 -0.8536  0.4594
  807MOL0     O 6395   0.421   5.100  10.253  0.1786  0.3113 -0.3355
  807MOL0     C 6396   0.296   5.148  10.221 -0.4991 -0.2536 -0.6830
  807MOL0     C 6397   0.186   5.067  10.252 -0.4766  0.5617 -0.0101
  807MOL0     C 6398   0.063   5.118  10.216  0.5293  0.2367  0.7531
  807MOL0     C 6399   0.033   5.243  10.167 -0.2635 -0.7505  0.7801
  807MOL0     O 6400  -0.082   5.309  10.151 -0.3289 -0.4144  1.0930
  807MOL0     C 6401  -0.208   5.246  10.188 -0.6962 -0.5694 -0.6402
  807MOL0     C 6402  -0.316   5.354  10.174  0.6398  0.0377  0.1031
  807MOL0     C 6403  -0.322   5.455  10.289 -0.9176  0.1271 -0.4723
  807MOL0     C 6404  -0.397   5.591  10.272 -0.1737 -0.1974 -0.6853
  807MOL0     C 6405  -0.550   5.584  10.271  0.1420  0.6913  1.2953
  807MOL0     C 6406  -0.623   5.714  10.295  0.2801 -0.0801  0.8132
  807MOL0     C 6407  -0.763   5.725  10.245  0.4904 -0.1473  0.1217
  807MOL0     C 6408  -0.861   5.663  10.335 -0.1272  0.2474  0.8362
  807MOL0     N 6409  -0.991   5.626  10.280 -0.7459 -0.5314 -0.0459
  807MOL0     C 6410  -1.089   5.557  10.345 -1.3273  0.4257  1.1736
  807MOL0     C 6411  -1.190   5.566  10.254  0.3081  0.1099  0.5220
  807MOL0     C 6412  -1.316   5.491  10.280  0.0462  0.2674  0.5459
  807MOL0     C 6413  -1.410   5.567  10.373  0.1558 -0.4082 -0.4045
  807MOL0     C 6414  -1.540   5.487  10.388  0.2969 -0.4447  0.4642
  807MOL0     C 6415  -1.618   5.567  10.488 -0.2642  0.1539 -0.3318
  807MOL0     O 6416  -1.746   5.509  10.504  0.3699 -0.1093  0.2351
  807MOL0     C 6417  -1.857   5.568  10.445 -0.5990  0.6694  0.6159
  807MOL0     C 6418  -1.981   5.533  10.502  0.8320 -0.1448  0.5466
  807MOL0     C 6419  -2.097   5.579  10.439  0.6044 -0.3752  0.0925
  807MOL0     C 6420  -2.087   5.670  10.320 -0.3588  0.0178 -0.7977
  807MOL0     C 6421  -2.208   5.707  10.243  0.6726 -0.0089  0.2144
  807MOL0     O 6422  -2.208   5.775  10.125 -0.3336  0.3508 -0.0114
  807MOL0     C 6423  -2.318   5.782  10.053 -0.0575 -0.3908  0.6002
  807MOL0     C 6424  -2.411   5.885  10.069  1.0024  0.4215  0.2905
  807MOL0     C 6425  -2.536   5.882  10.000 -0.8834 -0.2847 -0.2180
  807MOL0     C 6426  -2.565   5.795   9.898  0.1972 -1.0271 -0.3476
  807MOL0     O 6427  -2.695   5.801   9.859 -0.3223  0.7409 -0.8193
  807MOL0     C 6428  -2.731   5.729   9.741  0.5031  0.1309  1.0368
  807MOL0     C 6429  -2.851   5.800   9.683  0.3628 -0.2766 -0.3049
  807MOL0     C 6430  -2.930   5.721   9.581  0.1436 -1.0545 -0.6419
  807MOL0     C 6431  -2.867   5.697   9.442 -0.4051  0.1121  0.1356
  807MOL0     C 6432  -2.880   5.825   9.353  0.0238 -0.3407 -0.1691
  807MOL0     C 6433  -2.802   5.819   9.217  0.0477  0.4484 -0.2795
  807MOL0     C 6434  -2.868   5.737   9.109 -0.4221 -0.5327  0.3657
  807MOL0     C 6435  -2.985   5.811   9.049 -0.2752 -0.0401  0.1893
  807MOL0    Cl 6436  -3.067   5.709   8.931 -0.1052  0.1573 -0.4598
  807MOL0     C 6437  -2.472   5.703   9.867  0.3933  0.3477 -0.0169
  807MOL0     C 6438  -2.348   5.699   9.940 -1.2488 -1.0793  0.2878
  807MOL0     O 6439  -2.307   5.680  10.312 -0.2068  0.1857 -0.1649
  807MOL0     C 6440  -1.958   5.700  10.270 -0.4780  0.7776 -0.6041
  807MOL0     C 6441  -1.846   5.649  10.332  0.2697 -0.2462  0.3310
  807MOL0     N 6442  -1.155   5.635  10.139 -0.7764  0.1266 -0.1483
  807MOL0     N 6443  -1.033   5.676  10.162 -0.7376  0.1052  1.2604
  807MOL0     C 6444   0.144   5.311  10.116  0.8076 -0.2183  0.3341
  807MOL0     C 6445   0.274   5.266  10.147  0.7882  0.7844 -0.6362
  807MOL0     C 6446   0.637   5.135  10.378  0.8660  0.9375 -0.1937
  807MOL0     C 6447   0.705   5.217  10.474  0.4086 -0.7082 -0.2664
  807MOL0     C 6448   0.846   5.200  10.499 -0.4474 -0.4947  0.6353
  807MOL0     C 6449   0.926   5.104  10.430 -0.0423  1.1515  0.7417
  807MOL0     O 6450   1.061   5.094  10.458  0.6256  0.7187 -0.1075
  807MOL0     C 6451   1.157   5.090  10.352 -0.8535  0.7162  0.4592
  807MOL0     C 6452   1.300   5.099  10.414  0.0621 -0.2010  0.7529
  807MOL0     C 6453   1.336   4.975  10.488 -0.0138  0.2424  0.1395
  807MOL0     C 6454   1.483   4.997  10.533 -0.1470 -0.3178 -0.0804
  807MOL0     C 6455   1.537   4.881  10.608 -0.5962  0.2375 -0.4114
  807MOL0     C 6456   1.584   4.794  10.683  0.0031 -0.5275  0.2707
  807MOL0     C 6457   0.846   5.020  10.339 -0.3297 -0.5973 -0.4809
  807MOL0     C 6458   0.709   5.038  10.311  0.1336  0.4745  0.4717
  807MOL0     H 6459   0.195   4.970  10.300  2.4285  0.0193 -1.4374
  807MOL0     H 6460  -0.032   5.066  10.229 -0.5767  1.5898 -1.2781
  807MOL0     H 6461  -0.198   5.218  10.293  1.8091  0.1305 -0.6312
  807MOL0     H 6462  -0.232   5.160  10.124 -1.6541 -1.3750  0.7377
  807MOL0     H 6463  -0.413   5.303  10.171  0.7133 -0.0580 -1.4142
  807MOL0     H 6464  -0.301   5.402  10.077  0.0379 -0.0350 -0.0294
  807MOL0     H 6465  -0.215   5.473  10.301 -0.8568 -0.3169 -0.3378
  807MOL0     H 6466  -0.358   5.408  10.381 -0.5471 -1.5546 -1.1543
  807MOL0     H 6467  -0.361   5.655  10.353 -2.9778 -1.6600  1.8944
  807MOL0     H 6468  -0.366   5.639  10.178 -0.0519  0.4135 -0.3423
  807MOL0     H 6469  -0.593   5.509  10.338 -0.3123 -1.0992 -0.8827
  807MOL0     H 6470  -0.574   5.540  10.174 -1.5469 -0.8295  2.3349
  807MOL0     H 6471  -0.561   5.786  10.242 -0.0190 -0.6603 -0.3763
  807MOL0     H 6472  -0.621   5.741  10.401  1.4099 -0.8555  1.0114
  807MOL0     H 6473  -0.786   5.830  10.222  2.0205  0.1421 -0.1891
  807MOL0     H 6474  -0.759   5.671  10.150 -0.8664 -0.6328  0.3111
  807MOL0     H 6475  -0.877   5.738  10.413 -3.2525 -1.1803  1.6919
  807MOL0     H 6476  -0.815   5.571  10.373  1.1779  0.1566 -0.8407
  807MOL0     H 6477  -1.083   5.501  10.438  0.4583 -0.5303  0.5424
  807MOL0     H 6478  -1.285   5.398  10.328 -1.2545  0.3004  1.5064
  807MOL0     H 6479  -1.375   5.464  10.193 -0.6607  3.9566 -0.2942
  807MOL0     H 6480  -1.435   5.666  10.336  0.8908  0.9707  2.5338
  807MOL0     H 6481  -1.361   5.592  10.467 -0.4838  2.1981 -0.6857
  807MOL0     H 6482  -1.584   5.468  10.290 -1.1632 -0.7894  1.1619
  807MOL0     H 6483  -1.524   5.389  10.434 -2.8642 -1.8204 -1.0802
  807MOL0     H 6484  -1.616   5.675  10.474  2.2219  0.0551 -1.2755
  807MOL0     H 6485  -1.570   5.556  10.585  0.0463  1.2455 -0.3470
  807MOL0     H 6486  -1.981   5.487  10.600 -0.3594  2.0807  1.6724
  807MOL0     H 6487  -2.195   5.561  10.483 -0.0831 -0.2130 -1.3357
  807MOL0     H 6488  -2.386   5.956  10.148  0.3500 -2.4928  3.3532
  807MOL0     H 6489  -2.609   5.957  10.028  1.0412  1.4679  0.3212
  807MOL0     H 6490  -2.744   5.624   9.770  1.4768  0.5038  3.0090
  807MOL0     H 6491  -2.653   5.736   9.664 -1.5459 -3.4741 -1.6774
  807MOL0     H 6492  -2.816   5.900   9.656  1.4051 -0.8895 -1.2972
  807MOL0     H 6493  -2.916   5.820   9.769  0.2977 -1.1092 -0.1554
  807MOL0     H 6494  -3.026   5.766   9.555 -0.4475 -2.1151 -0.3374
  807MOL0     H 6495  -2.948   5.619   9.615 -0.9281 -0.6723 -0.0207
  807MOL0     H 6496  -2.763   5.669   9.460  0.1686  3.3899  2.9407
  807MOL0     H 6497  -2.922   5.614   9.396 -0.8969  0.5679 -0.1024
  807MOL0     H 6498  -2.817   5.895   9.409  0.5014  1.0850 -2.3673
  807MOL0     H 6499  -2.981   5.864   9.340 -0.0445 -1.0477 -1.9399
  807MOL0     H 6500  -2.701   5.778   9.227 -0.0745  0.2414  0.1400
  807MOL0     H 6501  -2.795   5.921   9.179  0.5203  0.1257 -1.0927
  807MOL0     H 6502  -2.785   5.729   9.038  0.3208  0.2571  1.1311
  807MOL0     H 6503  -2.888   5.634   9.142  1.3878  0.1747  4.0804
  807MOL0     H 6504  -2.952   5.893   8.985 -0.4551  0.1780  0.3772
  807MOL0     H 6505  -3.056   5.849   9.122  1.9204 -0.6310  2.7889
  807MOL0     H 6506  -2.490   5.614   9.807  1.9325  0.6202 -0.9470
  807MOL0     H 6507  -2.287   5.612   9.917 -0.2450  0.1315 -2.0006
  807MOL0     H 6508  -1.944   5.764  10.183 -1.4929 -0.1293 -1.4639
  807MOL0     H 6509  -1.753   5.677  10.285 -0.3719 -0.2064 -0.9321
  807MOL0     H 6510   0.121   5.400  10.058 -1.5699 -1.0886 -0.1971
  807MOL0     H 6511   0.362   5.322  10.117  2.2025 -0.0977  1.5514
  807MOL0     H 6512   0.654   5.295  10.530 -1.0332 -0.6359 -1.6117
  807MOL0     H 6513   0.892   5.270  10.569 -1.9110 -0.3943  1.5370
  807MOL0     H 6514   1.136   5.174  10.285 -1.2117 -1.1566 -1.9421
  807MOL0     H 6515   1.142   4.998  10.294 -0.1746 -0.1119  1.5583
  807MOL0     H 6516   1.372   5.115  10.334 -0.6050  0.8794  0.3349
  807MOL0     H 6517   1.303   5.179  10.489 -0.0118 -0.1733  0.7271
  807MOL0     H 6518   1.330   4.884  10.428  0.3524 -0.2331  0.8121
  807MOL0     H 6519   1.269   4.962  10.573  0.3767  1.3750  0.6460
  807MOL0     H 6520   1.555   5.013  10.453  1.1944  0.6874  1.2763
  807MOL0     H 6521   1.493   5.083  10.600  3.8638  0.1647 -1.0754
  807MOL0     H 6522   1.642   4.722  10.737 -1.1883 -3.8473 -2.5058
  807MOL0     H 6523   0.911   4.952  10.285  2.7575  0.8248  1.2048
  807MOL0     H 6524   0.657   4.970  10.244 -1.0848 -1.7558  3.4162
  808MOL0     O 6525   3.707   5.591   9.713 -1.1154 -0.0243 -0.5524
  808MOL0     C 6526   3.785   5.491   9.719 -0.3582 -0.3251 -0.9577
  808MOL0     O 6527   3.778   5.384   9.633  0.0865  0.1064  0.4137
  808MOL0     C 6528   3.689   5.395   9.527 -1.2550 -0.0475  0.6004
  808MOL0     C 6529   3.551   5.408   9.549  0.3424 -0.1054  1.1322
  808MOL0     C 6530   3.472   5.439   9.438 -0.4159  0.4735 -0.1480
  808MOL0     C 6531   3.519   5.443   9.302 -0.5859 -0.2592  0.2123
  808MOL0     O 6532   3.422   5.435   9.208  0.7479  0.3734 -0.3796
  808MOL0     C 6533   3.449   5.486   9.076  0.5521  0.3849 -0.5700
  808MOL0     C 6534   3.325   5.494   8.990  0.3127 -0.5612  0.0430
  808MOL0     C 6535   3.279   5.353   8.959  0.3894  0.5236 -1.0137
  808MOL0     C 6536   3.152   5.358   8.857 -1.3052 -0.0159  0.0786
  808MOL0     C 6537   3.108   5.209   8.833 -0.2232 -0.9770  0.1412
  808MOL0     C 6538   3.055   5.144   8.959  0.5238  0.4379  0.6923
  808MOL0     C 6539   3.033   4.994   8.925 -0.3509 -0.0046 -0.9937
  808MOL0     C 6540   2.990   4.911   9.050 -0.0691 -0.1582  0.2238
  808MOL0     N 6541   2.863   4.953   9.108 -0.7065  0.6126 -0.1856
  808MOL0     C 6542   2.742   4.883   9.085  0.0503 -0.5201 -0.5093
  808MOL0     C 6543   2.648   4.958   9.151  0.2605  0.2585  0.4260
  808MOL0     C 6544   2.504   4.930   9.160 -0.0418 -0.2380  0.7284
  808MOL0     C 6545   2.462   4.786   9.175 -1.0594 -0.2365 -0.1543
  808MOL0     C 6546   2.511   4.734   9.305 -1.1508  0.1156  0.0403
  808MOL0     C 6547   2.453   4.592   9.324  0.5077 -0.0585 -0.6070
  808MOL0     O 6548   2.554   4.510   9.390 -0.3605  0.8580 -0.0877
  808MOL0     C 6549   2.588   4.527   9.517 -0.6598 -0.1357 -0.3809
  808MOL0     C 6550   2.711   4.490   9.567 -0.1650  0.6498 -0.2872
  808MOL0     C 6551   2.743   4.504   9.706  0.1361 -0.1494 -0.4877
  808MOL0     C 6552   2.657   4.568   9.800  0.6020 -0.9122  0.4293
  808MOL0     C 6553   2.689   4.591   9.942  0.1383 -0.9100  0.5646
  808MOL0     O 6554   2.619   4.680  10.014  0.7588 -0.4072  0.2664
  808MOL0     C 6555   2.642   4.694  10.147 -0.3208 -0.0335  0.0813
  808MOL0     C 6556   2.667   4.828  10.183 -0.3524 -0.6398 -0.6124
  808MOL0     C 6557   2.701   4.863  10.313 -0.5211  0.2024 -0.0667
  808MOL0     C 6558   2.716   4.766  10.410  0.7404  0.0961  0.6485
  808MOL0     O 6559   2.754   4.784  10.540  0.1462  0.7590  0.0347
  808MOL0     C 6560   2.690   4.884  10.616 -0.0075 -0.6316  0.7464
  808MOL0     C 6561   2.754   5.020  10.609  0.2974 -0.2223 -0.2802
  808MOL0     C 6562   2.806   5.072  10.739  0.1768 -0.0536 -0.5266
  808MOL0     C 6563   2.941   5.146  10.709 -0.3128 -0.3339 -0.2681
  808MOL0     C 6564   2.982   5.245  10.824 -0.6835 -0.0750  0.8618
  808MOL0     C 6565   3.118   5.312  10.785 -0.5129  0.6612 -0.8419
  808MOL0     C 6566   3.161   5.403  10.899 -0.6964  1.0523 -0.6003
  808MOL0     C 6567   3.290   5.474  10.861  0.2578  0.6424  0.1214
  808MOL0    Cl 6568   3.342   5.566  11.003  0.4038 -0.0212  0.4934
  808MOL0     C 6569   2.688   4.623  10.375 -0.4236 -0.3915 -0.0710
  808MOL0     C 6570   2.653   4.590  10.239  0.4252  0.2985 -0.0363
  808MOL0     O 6571   2.796   4.537   9.978  0.7530 -0.7394 -0.3838
  808MOL0     C 6572   2.543   4.624   9.737  0.4212  0.4465 -0.0247
  808MOL0     C 6573   2.502   4.603   9.605 -0.3153  0.2836  0.2169
  808MOL0     N 6574   2.710   5.069   9.209  0.5997 -0.2507  0.5521
  808MOL0     N 6575   2.832   5.063   9.181 -0.2664  0.4676  0.1167
  808MOL0     C 6576   3.658   5.418   9.277  0.5257  0.2012  0.5079
  808MOL0     C 6577   3.740   5.396   9.392  0.2197 -0.2688 -0.2203
  808MOL0     C 6578   3.877   5.487   9.835 -0.1138 -0.4662  0.2519
  808MOL0     C 6579   3.974   5.384   9.847 -0.1164 -0.0957  0.0521
  808MOL0     C 6580   4.062   5.379   9.957  0.2889 -0.3569  0.6384
  808MOL0     C 6581   4.058   5.478  10.061 -0.1457  0.0730  0.8082
  808MOL0     O 6582   4.149   5.488  10.165  0.3751 -0.6162 -0.0199
  808MOL0     C 6583   4.260   5.395  10.174 -0.2618  0.0665 -0.2183
  808MOL0     C 6584   4.365   5.433  10.281  0.2678  0.3243  0.8541
  808MOL0     C 6585   4.377   5.318  10.380  0.7136 -0.1193  0.7622
  808MOL0     C 6586   4.462   5.357  10.503 -0.7621 -1.0025 -0.5623
  808MOL0     C 6587   4.598   5.389  10.468  1.0669 -0.0312 -0.4127
  808MOL0     C 6588   4.708   5.418  10.448  0.0734 -0.4894 -0.1976
  808MOL0     C 6589   3.960   5.574  10.048  0.1122 -0.4262 -0.4265
  808MOL0     C 6590   3.867   5.574   9.943  0.0675  0.3457 -0.3400
  808MOL0     H 6591   3.504   5.400   9.647 -2.8343  1.0239 -0.1950
  808MOL0     H 6592   3.366   5.440   9.458 -0.3763 -1.3271  0.2812
  808MOL0     H 6593   3.525   5.425   9.027 -0.1554 -1.7537  0.8696
  808MOL0     H 6594   3.484   5.588   9.093 -2.1729  1.2537  0.4567
  808MOL0     H 6595   3.358   5.541   8.896 -0.4660 -2.6604 -1.3565
  808MOL0     H 6596   3.251   5.555   9.041  0.5344  0.1644 -0.4844
  808MOL0     H 6597   3.253   5.302   9.053 -2.6864  1.2656 -1.3339
  808MOL0     H 6598   3.358   5.292   8.914 -0.6826 -1.6785 -0.0833
  808MOL0     H 6599   3.065   5.414   8.893 -0.9154  0.4849  0.2620
  808MOL0     H 6600   3.193   5.389   8.760  0.8775 -3.6054 -0.3163
  808MOL0     H 6601   3.196   5.158   8.792  0.4958  0.7185 -0.5180
  808MOL0     H 6602   3.034   5.218   8.752  1.1731  0.9147 -1.0099
  808MOL0     H 6603   2.961   5.194   8.984 -0.5950 -1.6918  1.0241
  808MOL0     H 6604   3.132   5.140   9.036  1.3508 -1.8284 -0.1696
  808MOL0     H 6605   2.958   4.979   8.846 -0.0358 -0.1990 -1.2559
  808MOL0     H 6606   3.127   4.958   8.884  0.1983  0.1697  0.0704
  808MOL0     H 6607   3.067   4.893   9.126 -0.0047 -0.6656  0.0381
  808MOL0     H 6608   2.983   4.811   9.007  2.2835 -0.6674  0.8828
  808MOL0     H 6609   2.728   4.790   9.030  1.4620 -0.2513 -1.3529
  808MOL0     H 6610   2.463   4.982   9.074  0.0129 -0.9434  0.2638
  808MOL0     H 6611   2.462   4.995   9.237 -0.2587  1.7891 -1.0349
  808MOL0     H 6612   2.503   4.732   9.089  6.4314  2.5667  0.9347
  808MOL0     H 6613   2.353   4.782   9.175 -1.1959  1.8655 -0.8187
  808MOL0     H 6614   2.619   4.721   9.302 -0.9716  1.6145 -1.0404
  808MOL0     H 6615   2.473   4.798   9.386 -1.6172  0.4859 -0.4609
  808MOL0     H 6616   2.442   4.537   9.230 -0.4177  0.8418 -1.0377
  808MOL0     H 6617   2.359   4.583   9.380  1.8137 -0.4037  1.6536
  808MOL0     H 6618   2.781   4.450   9.494  1.5111 -1.4622  2.2988
  808MOL0     H 6619   2.848   4.482   9.723 -0.3468 -1.1362  1.6046
  808MOL0     H 6620   2.658   4.901  10.104  1.9186 -0.1404 -0.4690
  808MOL0     H 6621   2.704   4.970  10.335  0.7732  0.3011 -0.6316
  808MOL0     H 6622   2.703   4.850  10.719 -2.2531 -2.8778  0.3736
  808MOL0     H 6623   2.583   4.891  10.596  0.0411  0.0526  0.7098
  808MOL0     H 6624   2.691   5.098  10.565  3.1887  3.1601  1.0410
  808MOL0     H 6625   2.839   5.016  10.541  1.7535  1.5993  1.3019
  808MOL0     H 6626   2.837   4.992  10.808 -0.0828 -1.7311 -2.2624
  808MOL0     H 6627   2.726   5.135  10.778  0.6933  3.3393 -4.3137
  808MOL0     H 6628   3.019   5.080  10.670 -0.2004 -0.1966 -0.2766
  808MOL0     H 6629   2.927   5.214  10.625 -1.1455 -2.3467 -1.8376
  808MOL0     H 6630   2.989   5.192  10.920 -2.0706  1.9410  2.1518
  808MOL0     H 6631   2.905   5.317  10.851  0.9965  1.5043  1.6482
  808MOL0     H 6632   3.106   5.370  10.694 -1.2304  1.3564 -0.3201
  808MOL0     H 6633   3.204   5.245  10.772 -1.7663 -1.9244  2.5352
  808MOL0     H 6634   3.084   5.474  10.932 -0.8291  0.0221  1.4831
  808MOL0     H 6635   3.183   5.328  10.975 -2.9938 -0.1597 -1.0260
  808MOL0     H 6636   3.280   5.534  10.770  1.0831  0.8260  0.1449
  808MOL0     H 6637   3.373   5.406  10.839 -0.2065 -0.1614  0.8242
  808MOL0     H 6638   2.684   4.551  10.456  0.2185 -1.6759 -1.1446
  808MOL0     H 6639   2.620   4.490  10.212 -0.3601 -0.3716  2.9903
  808MOL0     H 6640   2.477   4.669   9.811  0.9609 -1.6238  1.8222
  808MOL0     H 6641   2.403   4.628   9.569 -0.0588  0.4149 -0.4214
  808MOL0     H 6642   3.702   5.421   9.178  0.9598 -3.1108  0.4678
  808MOL0     H 6643   3.846   5.384   9.375  0.1886  1.2237 -1.7441
  808MOL0     H 6644   3.978   5.309   9.769 -3.2564  0.2081 -0.5189
  808MOL0     H 6645   4.137   5.301   9.950  0.7573  0.1229  0.2237
  808MOL0     H 6646   4.301   5.380  10.073 -1.3795 -3.0519 -0.2989
  808MOL0     H 6647   4.224   5.296  10.202  2.0441 -0.0553  2.8185
  808MOL0     H 6648   4.465   5.445  10.239  0.7770  1.6711  2.3901
  808MOL0     H 6649   4.323   5.526  10.319 -2.2147 -0.3122 -0.1398
  808MOL0     H 6650   4.431   5.244  10.319  1.5322  2.1767 -1.4930
  808MOL0     H 6651   4.277   5.283  10.406  0.1642  1.1216  0.3978
  808MOL0     H 6652   4.425   5.444  10.558  0.3363 -0.6507 -0.3510
  808MOL0     H 6653   4.472   5.288  10.588  5.1473 -1.7169 -1.3815
  808MOL0     H 6654   4.807   5.450  10.423  1.0480 -0.6551  2.9979
  808MOL0     H 6655   3.937   5.628  10.139 -1.0870 -1.6271  0.0078
  808MOL0     H 6656   3.787   5.646   9.953  2.2559  2.8051  0.6677
  809MOL0     O 6657  10.673   5.082  10.206 -0.4516  0.2054 -0.6610
  809MOL0     C 6658  10.679   5.156  10.308  0.6420  0.2799 -0.6454
  809MOL0     O 6659  10.570   5.235  10.348 -0.2654 -0.0940  0.1250
  809MOL0     C 6660  10.468   5.249  10.266  0.5702  1.1617 -0.4303
  809MOL0     C 6661  10.340   5.219  10.303 -0.2108 -1.0931 -0.4331
  809MOL0     C 6662  10.229   5.250  10.219  1.0027 -0.0778  0.1971
  809MOL0     C 6663  10.253   5.317  10.088  1.3511  0.5180 -0.3380
  809MOL0     O 6664  10.137   5.342  10.009  0.3000  0.3396 -0.3414
  809MOL0     C 6665  10.160   5.397   9.875  0.5220 -0.8472 -0.1839
  809MOL0     C 6666  10.021   5.400   9.797  0.2607  0.4614  0.7798
  809MOL0     C 6667   9.924   5.517   9.814 -0.6879 -0.3648 -0.2148
  809MOL0     C 6668   9.769   5.481   9.810 -0.1192  0.7161 -0.3454
  809MOL0     C 6669   9.690   5.585   9.881 -0.0649 -0.1222  0.2155
  809MOL0     C 6670   9.559   5.606   9.818  0.5328 -0.4033  0.2295
  809MOL0     C 6671   9.475   5.711   9.897  0.1148 -0.0859 -0.1537
  809MOL0     C 6672   9.328   5.723   9.850  0.4956  0.0804 -0.0419
  809MOL0     N 6673   9.328   5.808   9.725 -0.5106 -0.3047  0.1052
  809MOL0     C 6674   9.343   5.942   9.719  0.3039 -0.1026 -0.9756
  809MOL0     C 6675   9.322   5.970   9.589  0.4362  0.2545 -0.0876
  809MOL0     C 6676   9.304   6.087   9.508 -0.4317 -0.4362 -0.1562
  809MOL0     C 6677   9.176   6.168   9.537 -0.3908  0.3764 -0.0280
  809MOL0     C 6678   9.181   6.268   9.651 -0.4582 -0.2097 -1.1344
  809MOL0     C 6679   9.058   6.361   9.657 -1.2674 -0.3149 -0.2700
  809MOL0     O 6680   8.947   6.291   9.711 -0.1762  0.7003  0.1680
  809MOL0     C 6681   8.829   6.359   9.726 -0.2344 -0.7491  0.5002
  809MOL0     C 6682   8.813   6.500   9.713 -0.3013 -0.4103 -0.8175
  809MOL0     C 6683   8.687   6.554   9.727  0.0680  0.4521  0.1254
  809MOL0     C 6684   8.575   6.478   9.751  0.8174 -0.3208 -0.2958
  809MOL0     C 6685   8.436   6.536   9.764 -0.2679 -0.2469 -0.2719
  809MOL0     O 6686   8.431   6.667   9.733 -0.0374 -0.5594 -0.4144
  809MOL0     C 6687   8.320   6.743   9.755 -0.0553 -0.7316 -0.8158
  809MOL0     C 6688   8.190   6.697   9.730  0.0793 -0.0599 -0.8377
  809MOL0     C 6689   8.086   6.792   9.726 -0.2359  0.8795 -0.7284
  809MOL0     C 6690   8.113   6.923   9.770  0.3145 -0.6575  0.8782
  809MOL0     O 6691   8.029   7.029   9.770 -0.2963 -0.2088 -0.1877
  809MOL0     C 6692   7.891   7.004   9.767 -0.4435  0.4361  0.6451
  809MOL0     C 6693   7.819   7.139   9.800  0.4267  0.2928 -0.9323
  809MOL0     C 6694   7.839   7.187   9.941  0.6830 -0.3720  0.8684
  809MOL0     C 6695   7.763   7.324   9.974 -0.7681 -0.2946  1.0738
  809MOL0     C 6696   7.787   7.381  10.121  0.8096 -0.2100  0.2684
  809MOL0     C 6697   7.730   7.516  10.144 -0.0424 -1.2242 -0.3422
  809MOL0     C 6698   7.569   7.532  10.153 -0.5638 -0.1072  0.4128
  809MOL0     C 6699   7.546   7.676  10.192 -0.4029 -0.2424 -0.2325
  809MOL0    Cl 6700   7.539   7.749  10.035  0.2770 -0.3070  0.3369
  809MOL0     C 6701   8.240   6.969   9.785 -0.4436  0.4896  1.2917
  809MOL0     C 6702   8.347   6.875   9.779 -0.2821  0.4035 -0.2111
  809MOL0     O 6703   8.343   6.470   9.818  0.0088  0.6437  0.1779
  809MOL0     C 6704   8.596   6.346   9.778  0.3541  0.8060 -0.1287
  809MOL0     C 6705   8.725   6.280   9.768 -0.0540  0.7491  0.3116
  809MOL0     N 6706   9.309   5.852   9.521  0.6862 -0.1097 -0.2004
  809MOL0     N 6707   9.301   5.752   9.607 -0.6608  0.2555  0.0430
  809MOL0     C 6708  10.384   5.348  10.054 -0.4230  0.2309 -0.4472
  809MOL0     C 6709  10.486   5.315  10.144  0.0442  0.4683 -0.7252
  809MOL0     C 6710  10.786   5.141  10.414 -0.3128  0.7925 -0.4607
  809MOL0     C 6711  10.785   5.203  10.540  0.2921  0.0502 -0.1833
  809MOL0     C 6712  10.900   5.188  10.637  0.2619  0.2462 -0.9418
  809MOL0     C 6713  11.006   5.111  10.603  1.1664  0.4300 -0.3764
  809MOL0     O 6714  11.111   5.107  10.691 -0.1329  0.5133  0.3752
  809MOL0     C 6715  11.215   5.013  10.664  0.0015  0.4399 -0.0084
  809MOL0     C 6716  11.311   5.011  10.778 -0.5421  0.1974  0.4987
  809MOL0     C 6717  11.397   4.883  10.779 -0.0458  0.0263  0.2105
  809MOL0     C 6718  11.500   4.892  10.662  0.1068  0.7093 -0.1152
  809MOL0     C 6719  11.580   5.015  10.665 -0.3319 -0.0531  0.0131
  809MOL0     C 6720  11.641   5.121  10.673  0.1809 -0.0186 -0.4459
  809MOL0     C 6721  11.007   5.045  10.478 -0.5020 -0.0036 -0.4693
  809MOL0     C 6722  10.901   5.060  10.389  0.5174 -0.4152  0.3018
  809MOL0     H 6723  10.324   5.181  10.403  0.2925  2.4220  1.1082
  809MOL0     H 6724  10.131   5.232  10.262  0.9536  1.7136  0.9185
  809MOL0     H 6725  10.232   5.338   9.818  0.5475 -0.7259 -0.2784
  809MOL0     H 6726  10.189   5.503   9.879 -3.3819  0.6475 -3.7646
  809MOL0     H 6727   9.962   5.310   9.818 -4.2163  3.2776  1.5848
  809MOL0     H 6728  10.053   5.399   9.692 -0.7532  1.2293  0.4550
  809MOL0     H 6729   9.957   5.588   9.738  2.2973 -0.1312  1.1587
  809MOL0     H 6730   9.939   5.564   9.912  0.3107  1.0871 -1.0264
  809MOL0     H 6731   9.747   5.482   9.703 -0.4519 -0.5101 -0.3046
  809MOL0     H 6732   9.754   5.381   9.851  0.3931 -0.7134 -3.3677
  809MOL0     H 6733   9.745   5.679   9.869  0.3760 -0.6222 -2.0970
  809MOL0     H 6734   9.697   5.556   9.986  0.4360  1.9277  0.7883
  809MOL0     H 6735   9.502   5.513   9.814  0.6839 -0.6787  2.7934
  809MOL0     H 6736   9.577   5.636   9.714 -0.7744 -1.6684 -0.4073
  809MOL0     H 6737   9.469   5.676  10.000  0.4614 -2.9103 -0.9987
  809MOL0     H 6738   9.529   5.805   9.883 -0.9561  0.1707 -3.6023
  809MOL0     H 6739   9.269   5.765   9.932 -0.5023  1.0667 -1.2224
  809MOL0     H 6740   9.289   5.622   9.836 -0.8492  0.6518 -0.5963
  809MOL0     H 6741   9.347   6.022   9.791  1.8276 -0.2263 -0.8804
  809MOL0     H 6742   9.291   6.059   9.403  3.4121  1.0176 -1.1946
  809MOL0     H 6743   9.394   6.148   9.524  0.0753 -0.5893 -2.1125
  809MOL0     H 6744   9.105   6.094   9.575 -0.1252  0.4865  0.7054
  809MOL0     H 6745   9.136   6.211   9.445 -0.1253  1.3874  0.3129
  809MOL0     H 6746   9.186   6.206   9.740 -0.2909 -1.0848 -1.7390
  809MOL0     H 6747   9.270   6.332   9.646 -0.1268 -0.6183 -0.5759
  809MOL0     H 6748   9.042   6.404   9.558  1.0888  2.7681  0.5095
  809MOL0     H 6749   9.072   6.451   9.718 -2.9746 -0.0399 -0.2466
  809MOL0     H 6750   8.905   6.557   9.705 -1.0158  1.0367  0.6707
  809MOL0     H 6751   8.677   6.661   9.716  0.0954  0.5119  0.6650
  809MOL0     H 6752   8.179   6.594   9.698 -0.8401  0.2950 -1.7101
  809MOL0     H 6753   7.984   6.759   9.712 -0.2524 -0.7237  2.2763
  809MOL0     H 6754   7.858   6.923   9.832  0.5300 -1.4418 -1.1066
  809MOL0     H 6755   7.863   6.981   9.664  1.0983 -2.4860  0.7767
  809MOL0     H 6756   7.714   7.131   9.771 -0.0524  2.7486 -0.1282
  809MOL0     H 6757   7.845   7.215   9.726 -0.0886 -1.5557 -3.1271
  809MOL0     H 6758   7.946   7.201   9.958  0.8593  0.0759 -0.5134
  809MOL0     H 6759   7.801   7.115  10.016  3.1809 -0.2540  2.3411
  809MOL0     H 6760   7.805   7.406   9.915  0.3531  1.8998  4.6061
  809MOL0     H 6761   7.656   7.321   9.952 -0.9203  2.4854  1.0675
  809MOL0     H 6762   7.895   7.390  10.132  0.5938  1.7040  1.2581
  809MOL0     H 6763   7.749   7.304  10.189  2.0520 -3.3634 -2.3554
  809MOL0     H 6764   7.757   7.586  10.064 -3.0243 -1.7116 -1.9365
  809MOL0     H 6765   7.773   7.550  10.239  3.2186 -3.1461 -1.0083
  809MOL0     H 6766   7.527   7.498  10.058  2.7051 -1.9319 -0.5285
  809MOL0     H 6767   7.532   7.469  10.234  1.5164 -3.0387 -0.7687
  809MOL0     H 6768   7.628   7.714  10.254 -0.1973 -0.7493 -0.1925
  809MOL0     H 6769   7.448   7.677  10.242 -1.8717 -0.3252 -2.9406
  809MOL0     H 6770   8.279   7.065   9.818 -2.6037  0.8902  2.8838
  809MOL0     H 6771   8.445   6.912   9.807 -0.9059  3.3905 -1.5466
  809MOL0     H 6772   8.516   6.277   9.803  1.7720 -1.2249 -0.9365
  809MOL0     H 6773   8.729   6.178   9.805  2.4665  1.4156  2.1307
  809MOL0     H 6774  10.403   5.397   9.959  0.9565  1.1000  0.2428
  809MOL0     H 6775  10.588   5.350  10.132  0.0789  0.6417 -0.0020
  809MOL0     H 6776  10.711   5.274  10.576  1.1364  0.9896 -0.2241
  809MOL0     H 6777  10.906   5.227  10.738 -1.1844 -1.8636  0.0370
  809MOL0     H 6778  11.265   5.027  10.568 -1.5290 -0.6084 -0.9916
  809MOL0     H 6779  11.162   4.918  10.660  1.4034 -0.5632  2.6179
  809MOL0     H 6780  11.358   5.109  10.771 -1.9120  0.7611 -1.8971
  809MOL0     H 6781  11.253   5.007  10.871  1.7829  1.4034  2.0905
  809MOL0     H 6782  11.353   4.783  10.773 -0.3609 -0.0341  2.4443
  809MOL0     H 6783  11.449   4.880  10.875 -0.3688  0.8736  0.4241
  809MOL0     H 6784  11.572   4.811  10.681 -1.6807 -0.8070  0.4679
  809MOL0     H 6785  11.454   4.880  10.563  0.9691  0.8846 -0.5479
  809MOL0     H 6786  11.707   5.205  10.671  1.4946 -1.0425 -0.8215
  809MOL0     H 6787  11.097   4.994  10.445  0.4952  2.2234 -1.3632
  809MOL0     H 6788  10.887   5.004  10.296 -4.0996  0.7816 -0.0012
  810MOL0     O 6789   3.614   9.071   7.666 -0.2848 -0.5906 -0.8004
  810MOL0     C 6790   3.551   9.096   7.763 -0.0024 -0.6950 -1.0711
  810MOL0     O 6791   3.419   9.064   7.789 -0.0928  0.0328  0.3682
  810MOL0     C 6792   3.346   8.983   7.696 -0.1407 -0.2190 -0.0525
  810MOL0     C 6793   3.395   8.893   7.589  0.4997 -0.4376 -0.1405
  810MOL0     C 6794   3.299   8.828   7.504  0.5955 -0.4152 -0.8539
  810MOL0     C 6795   3.167   8.850   7.518 -0.3631  0.1913 -0.7132
  810MOL0     O 6796   3.086   8.802   7.420 -0.1701  0.3350 -0.2362
  810MOL0     C 6797   2.954   8.860   7.394 -0.0660 -0.7905 -0.6743
  810MOL0     C 6798   2.916   8.780   7.270  0.0789  0.7162  0.3692
  810MOL0     C 6799   2.799   8.848   7.178 -0.2797  0.5233 -0.7826
  810MOL0     C 6800   2.789   8.800   7.032  0.9865  0.4431 -0.9093
  810MOL0     C 6801   2.677   8.872   6.961  0.2043 -0.4132  0.4422
  810MOL0     C 6802   2.537   8.889   7.033  0.1849 -0.0330 -0.3664
  810MOL0     C 6803   2.463   8.767   7.076  0.4762 -0.3186 -0.0898
  810MOL0     C 6804   2.392   8.685   6.977  1.1947  0.7331  0.0749
  810MOL0     N 6805   2.285   8.764   6.916  1.1916 -0.3431  0.2109
  810MOL0     C 6806   2.160   8.768   6.975 -0.5700 -0.9237 -0.0088
  810MOL0     C 6807   2.086   8.857   6.905  0.1643 -0.9192 -0.8292
  810MOL0     C 6808   1.956   8.907   6.943  0.7059 -0.1824 -0.2416
  810MOL0     C 6809   1.865   8.907   6.818 -0.0863 -0.4145 -0.7753
  810MOL0     C 6810   1.708   8.903   6.855  0.0377 -0.6687  0.2170
  810MOL0     C 6811   1.619   8.920   6.735  0.8832  0.0199  0.9827
  810MOL0     O 6812   1.493   8.951   6.803  0.0461  0.6679 -0.4487
  810MOL0     C 6813   1.368   8.896   6.765  1.2148  0.1432  0.4240
  810MOL0     C 6814   1.341   8.844   6.632 -0.1082  0.2064 -0.6897
  810MOL0     C 6815   1.217   8.787   6.602 -0.1841 -0.8180  0.0785
  810MOL0     C 6816   1.107   8.790   6.694 -0.8286  0.0253  0.0890
  810MOL0     C 6817   0.981   8.730   6.668 -0.1593  0.2109  0.4263
  810MOL0     O 6818   0.876   8.780   6.735  0.2359  1.1897 -0.1835
  810MOL0     C 6819   0.751   8.726   6.725 -0.1639  0.3582 -0.9696
  810MOL0     C 6820   0.691   8.708   6.598  0.1549 -0.2015 -0.1236
  810MOL0     C 6821   0.555   8.668   6.595 -0.2355  0.2338  0.0216
  810MOL0     C 6822   0.482   8.624   6.710 -0.1340 -0.5111 -0.7687
  810MOL0     O 6823   0.356   8.565   6.716 -0.3911 -0.2524  0.2978
  810MOL0     C 6824   0.294   8.546   6.590  0.8696  0.2397 -0.0730
  810MOL0     C 6825   0.163   8.477   6.625 -0.0758 -0.0984 -0.7211
  810MOL0     C 6826   0.072   8.466   6.505  0.3740 -0.7512  0.3794
  810MOL0     C 6827  -0.058   8.559   6.496  0.7687 -0.5859 -0.0406
  810MOL0     C 6828  -0.120   8.540   6.359  0.0320  1.1062 -0.3583
  810MOL0     C 6829  -0.067   8.637   6.261  0.7405 -0.9278  0.5575
  810MOL0     C 6830  -0.134   8.618   6.126 -0.9789 -0.0519 -0.1054
  810MOL0     C 6831  -0.101   8.736   6.039 -0.4050 -0.6461  0.6930
  810MOL0    Cl 6832   0.076   8.759   6.015 -0.4415 -0.2476  0.1317
  810MOL0     C 6833   0.547   8.636   6.835  0.6236 -0.5745  0.2871
  810MOL0     C 6834   0.672   8.708   6.841 -0.6879  0.3697  0.2108
  810MOL0     O 6835   0.981   8.639   6.584  0.0470  0.4895 -0.7665
  810MOL0     C 6836   1.129   8.848   6.818 -0.0241  0.5753 -0.3742
  810MOL0     C 6837   1.257   8.892   6.857 -0.0917  0.0308  0.8456
  810MOL0     N 6838   2.168   8.891   6.797  0.3312 -0.0969 -0.4454
  810MOL0     N 6839   2.283   8.829   6.806 -0.2452 -0.6539  0.2262
  810MOL0     C 6840   3.129   8.925   7.632  1.1724 -0.3900 -0.3605
  810MOL0     C 6841   3.217   8.977   7.721 -0.3639 -0.7145 -0.2092
  810MOL0     C 6842   3.628   9.187   7.861 -0.3310 -0.5200 -0.0034
  810MOL0     C 6843   3.555   9.226   7.972 -0.3396 -0.4091 -0.1310
  810MOL0     C 6844   3.611   9.312   8.070  0.2373 -0.7385  0.2845
  810MOL0     C 6845   3.743   9.355   8.057 -0.9116 -0.9348  0.2246
  810MOL0     O 6846   3.785   9.444   8.155  0.1992 -0.5806  0.7215
  810MOL0     C 6847   3.913   9.498   8.149  0.3725 -0.3735 -0.1482
  810MOL0     C 6848   4.005   9.403   8.214 -1.3429  0.9412 -0.0558
  810MOL0     C 6849   4.147   9.441   8.185 -0.0851 -0.0210  0.0753
  810MOL0     C 6850   4.197   9.429   8.034  0.0773  0.2429 -0.4667
  810MOL0     C 6851   4.274   9.309   8.028 -0.3320  0.2399  0.2544
  810MOL0     C 6852   4.338   9.207   8.033 -0.3147 -0.3643  0.4425
  810MOL0     C 6853   3.812   9.325   7.934  0.4981 -0.3021 -0.3279
  810MOL0     C 6854   3.754   9.248   7.838  0.5566  0.2940 -0.4811
  810MOL0     H 6855   3.500   8.884   7.562  0.1056 -1.2152 -1.5045
  810MOL0     H 6856   3.331   8.781   7.411  0.6225 -1.2917 -0.4136
  810MOL0     H 6857   2.971   8.968   7.382 -1.5390 -0.0529  2.7350
  810MOL0     H 6858   2.878   8.856   7.472 -1.0938  2.6053 -1.3423
  810MOL0     H 6859   2.879   8.679   7.288  2.2492 -0.2359 -0.2129
  810MOL0     H 6860   3.003   8.773   7.204 -1.5260  3.2699 -2.2827
  810MOL0     H 6861   2.803   8.957   7.183 -2.2499  0.5820  2.2677
  810MOL0     H 6862   2.708   8.818   7.231  1.1538 -0.3088  1.3889
  810MOL0     H 6863   2.883   8.807   6.977  2.5178 -4.7118  0.4662
  810MOL0     H 6864   2.765   8.693   7.031 -1.8226  0.9953 -0.3449
  810MOL0     H 6865   2.656   8.823   6.866  2.0135  0.5908 -0.5373
  810MOL0     H 6866   2.707   8.971   6.923 -0.7334 -0.4350 -0.4017
  810MOL0     H 6867   2.477   8.943   6.959  1.7519  1.6865 -0.4429
  810MOL0     H 6868   2.550   8.955   7.119 -1.7820 -1.0356  0.7761
  810MOL0     H 6869   2.539   8.702   7.119  0.0209  0.2620  1.6875
  810MOL0     H 6870   2.386   8.800   7.147 -0.3940  2.7419 -2.2672
  810MOL0     H 6871   2.349   8.598   7.029  0.5457 -0.1083 -1.7890
  810MOL0     H 6872   2.458   8.653   6.896 -0.3796 -0.6649 -0.7221
  810MOL0     H 6873   2.117   8.717   7.062 -1.6270  1.3325  0.8598
  810MOL0     H 6874   1.961   9.011   6.977 -1.1552  0.3867 -1.5600
  810MOL0     H 6875   1.914   8.850   7.026  2.2995 -0.0560  0.6840
  810MOL0     H 6876   1.881   8.816   6.760 -1.7809 -0.4700 -1.2153
  810MOL0     H 6877   1.902   8.982   6.747  3.2492 -2.1926 -1.0746
  810MOL0     H 6878   1.698   8.808   6.909  2.3629 -1.2874 -0.3446
  810MOL0     H 6879   1.690   8.985   6.926 -1.2512  0.9675 -1.8881
  810MOL0     H 6880   1.606   8.833   6.671 -1.4930  0.6617  0.4765
  810MOL0     H 6881   1.642   9.006   6.671 -0.1107  1.1280  2.0392
  810MOL0     H 6882   1.414   8.844   6.551  0.7121 -2.0878 -0.0189
  810MOL0     H 6883   1.199   8.743   6.504 -1.2988  2.7970 -1.5044
  810MOL0     H 6884   0.743   8.711   6.503 -0.8595  1.2616 -0.6678
  810MOL0     H 6885   0.518   8.655   6.494  0.8785 -0.5157 -0.3118
  810MOL0     H 6886   0.351   8.483   6.520  0.8473 -0.3391  0.4159
  810MOL0     H 6887   0.278   8.644   6.546 -0.8114  0.4266  0.8904
  810MOL0     H 6888   0.122   8.539   6.706  0.1722 -1.0930  0.1938
  810MOL0     H 6889   0.181   8.376   6.663 -0.5654  0.2569  0.5219
  810MOL0     H 6890   0.047   8.360   6.496 -0.0219 -0.5538 -1.2186
  810MOL0     H 6891   0.126   8.492   6.413  1.1980  0.1509  1.0938
  810MOL0     H 6892  -0.129   8.533   6.575  0.6248 -0.6212 -0.1798
  810MOL0     H 6893  -0.035   8.664   6.516 -1.1543 -0.5294  2.1966
  810MOL0     H 6894  -0.229   8.552   6.361  0.0384  1.4707 -1.6013
  810MOL0     H 6895  -0.105   8.435   6.332  0.0478  1.2762 -1.0147
  810MOL0     H 6896   0.041   8.621   6.259  1.4287  2.9066  0.3774
  810MOL0     H 6897  -0.081   8.739   6.298 -2.2491 -1.2326  0.5419
  810MOL0     H 6898  -0.101   8.527   6.076 -0.5575  0.3167 -0.4983
  810MOL0     H 6899  -0.244   8.625   6.125 -0.9203  1.1589  0.2174
  810MOL0     H 6900  -0.130   8.825   6.095  0.2112 -0.5437  0.8560
  810MOL0     H 6901  -0.138   8.730   5.936  1.7155  0.1762 -0.1834
  810MOL0     H 6902   0.504   8.587   6.922  1.1643 -3.0990 -0.7862
  810MOL0     H 6903   0.708   8.732   6.940 -1.4578  0.0705  0.5806
  810MOL0     H 6904   1.040   8.855   6.880 -0.8235  1.0730 -1.5402
  810MOL0     H 6905   1.267   8.947   6.950 -2.0695 -0.5734  1.4823
  810MOL0     H 6906   3.025   8.942   7.659  1.7027  0.6729  1.1627
  810MOL0     H 6907   3.167   9.032   7.801  0.7265 -1.5156  1.0545
  810MOL0     H 6908   3.457   9.184   7.990 -0.7885 -0.3965 -2.2591
  810MOL0     H 6909   3.548   9.354   8.148  2.0847  1.7316  0.6028
  810MOL0     H 6910   3.925   9.591   8.205 -1.2290  1.5868 -2.8397
  810MOL0     H 6911   3.943   9.540   8.053 -1.8380  2.2835  0.2061
  810MOL0     H 6912   3.990   9.396   8.322 -1.0487 -2.1602 -0.1060
  810MOL0     H 6913   3.989   9.303   8.173  3.1456 -0.4758  1.0591
  810MOL0     H 6914   4.211   9.385   8.254 -0.4013 -0.4847 -0.0009
  810MOL0     H 6915   4.145   9.548   8.207 -0.4444 -0.2722  1.3492
  810MOL0     H 6916   4.115   9.435   7.962  0.1045  2.1351 -0.3986
  810MOL0     H 6917   4.260   9.519   8.030 -0.9198  0.9825  0.0451
  810MOL0     H 6918   4.390   9.115   8.043  0.1981 -0.0011  1.1924
  810MOL0     H 6919   3.917   9.353   7.932  1.7285 -3.2335  4.9179
  810MOL0     H 6920   3.818   9.223   7.754  0.4480 -1.7354 -0.0191
  811MOL0     O 6921   7.665   2.972   3.464  0.0553 -0.4134  0.9277
  811MOL0     C 6922   7.600   2.987   3.357  0.2419 -0.1141  0.4269
  811MOL0     O 6923   7.465   3.016   3.365  1.2521  0.5669  0.3459
  811MOL0     C 6924   7.380   2.974   3.466 -0.3960  0.3938 -0.3429
  811MOL0     C 6925   7.402   2.853   3.534  0.8921 -0.1812 -0.9507
  811MOL0     C 6926   7.318   2.818   3.644 -0.2282  0.2911  0.3976
  811MOL0     C 6927   7.221   2.909   3.688 -0.1940 -0.3662 -0.0049
  811MOL0     O 6928   7.139   2.889   3.797 -0.1118  0.2039 -0.0687
  811MOL0     C 6929   6.991   2.903   3.799 -0.2645  0.5923  0.0481
  811MOL0     C 6930   6.917   2.814   3.698  0.1318 -0.9990  0.2694
  811MOL0     C 6931   6.759   2.836   3.711 -0.4278 -0.0803  0.5607
  811MOL0     C 6932   6.690   2.813   3.844  0.4492 -0.7008 -0.0350
  811MOL0     C 6933   6.538   2.826   3.839 -0.4699  1.2970 -0.5158
  811MOL0     C 6934   6.483   2.798   3.981 -0.6544  1.2045 -0.8126
  811MOL0     C 6935   6.345   2.721   3.989  0.1958  0.2658  0.9076
  811MOL0     C 6936   6.215   2.816   4.001  0.6014 -0.0473 -1.1068
  811MOL0     N 6937   6.104   2.717   4.011  0.4085  0.5343 -0.1726
  811MOL0     C 6938   6.091   2.604   4.087  1.1912  0.0407 -0.5955
  811MOL0     C 6939   5.969   2.552   4.054 -0.0754  1.0347 -0.1432
  811MOL0     C 6940   5.898   2.430   4.112  0.6254 -0.3402 -0.2834
  811MOL0     C 6941   5.744   2.444   4.137  0.9064 -0.1032 -0.4191
  811MOL0     C 6942   5.710   2.567   4.226 -0.3697  0.3055  0.1951
  811MOL0     C 6943   5.758   2.568   4.366 -0.1842 -0.2869 -0.2098
  811MOL0     O 6944   5.692   2.678   4.441 -0.0862  0.1135  0.4355
  811MOL0     C 6945   5.570   2.656   4.500  0.5617 -0.3737 -0.2764
  811MOL0     C 6946   5.514   2.763   4.576  0.1022  0.2329  0.4151
  811MOL0     C 6947   5.381   2.765   4.620 -0.2208 -1.0499  0.3101
  811MOL0     C 6948   5.301   2.647   4.598 -0.2306  0.1655 -0.0695
  811MOL0     C 6949   5.156   2.644   4.655 -0.1637 -0.5364  0.2546
  811MOL0     O 6950   5.090   2.527   4.618  0.1388  0.5233 -0.3276
  811MOL0     C 6951   4.958   2.523   4.646 -1.4902 -0.1825 -0.1737
  811MOL0     C 6952   4.861   2.612   4.608  0.0629  0.6964  0.2200
  811MOL0     C 6953   4.729   2.579   4.643  0.5812  1.0307  0.5515
  811MOL0     C 6954   4.693   2.459   4.716  0.0162  0.4403 -0.0937
  811MOL0     O 6955   4.569   2.422   4.769 -0.7285  0.3328  0.1957
  811MOL0     C 6956   4.452   2.497   4.741  0.3996  0.1536  0.5642
  811MOL0     C 6957   4.340   2.465   4.835  0.5233  0.1554  0.2284
  811MOL0     C 6958   4.208   2.534   4.799 -0.1412  0.1691  0.4557
  811MOL0     C 6959   4.104   2.512   4.907  0.2891  0.7787  0.0275
  811MOL0     C 6960   3.968   2.562   4.849 -1.0141 -0.6937 -0.3795
  811MOL0     C 6961   3.861   2.544   4.965 -0.7389 -0.5972  0.7129
  811MOL0     C 6962   3.725   2.611   4.933 -0.4248  0.0050  0.2682
  811MOL0     C 6963   3.623   2.587   5.039  0.0964 -0.6631 -0.8724
  811MOL0    Cl 6964   3.469   2.631   4.979 -0.0551 -0.3098 -0.3276
  811MOL0     C 6965   4.799   2.372   4.751  0.0133 -0.1792  0.2765
  811MOL0     C 6966   4.929   2.415   4.718  0.5899  0.4035  0.3090
  811MOL0     O 6967   5.113   2.734   4.717  0.2057 -0.3112 -0.1025
  811MOL0     C 6968   5.364   2.544   4.516  0.5217  0.3493 -0.4465
  811MOL0     C 6969   5.491   2.550   4.469 -0.7049 -0.1965 -0.5422
  811MOL0     N 6970   5.918   2.620   3.952  0.7415 -0.5593  0.2522
  811MOL0     N 6971   6.005   2.710   3.926  0.3892 -0.8012  0.3033
  811MOL0     C 6972   7.206   3.038   3.623 -0.6862 -0.2900  0.0689
  811MOL0     C 6973   7.279   3.058   3.509 -0.1276  0.1632  0.4594
  811MOL0     C 6974   7.671   2.984   3.223  0.6302  0.9595 -0.5293
  811MOL0     C 6975   7.590   2.963   3.106  0.6909 -0.4405 -0.3689
  811MOL0     C 6976   7.654   2.962   2.978  0.3509 -0.5418  0.2698
  811MOL0     C 6977   7.795   2.979   2.970  0.6717 -0.8899  0.4562
  811MOL0     O 6978   7.864   2.994   2.844  0.7262 -0.3542 -0.0995
  811MOL0     C 6979   7.881   2.872   2.768  0.1254 -0.5329  0.0068
  811MOL0     C 6980   7.985   2.777   2.827  0.2703  0.2784 -0.0793
  811MOL0     C 6981   8.122   2.775   2.764 -0.1552  0.4414 -0.5944
  811MOL0     C 6982   8.209   2.670   2.826  0.6588  0.3995 -0.5621
  811MOL0     C 6983   8.345   2.680   2.763 -0.5725  0.0825  0.5710
  811MOL0     C 6984   8.456   2.700   2.709 -0.0234 -0.3441 -0.0867
  811MOL0     C 6985   7.865   2.997   3.089 -0.6867  0.7822  0.1092
  811MOL0     C 6986   7.808   2.994   3.212  0.2481 -1.1220 -0.2868
  811MOL0     H 6987   7.473   2.782   3.495  1.0624 -1.9770  2.2677
  811MOL0     H 6988   7.322   2.721   3.691 -3.2979 -0.3149 -0.3718
  811MOL0     H 6989   6.957   3.003   3.770 -2.5458 -0.7002 -2.1738
  811MOL0     H 6990   6.961   2.875   3.901 -1.8630 -1.6695 -0.9627
  811MOL0     H 6991   6.933   2.709   3.725 -2.5564 -1.4818  0.2923
  811MOL0     H 6992   6.941   2.846   3.596 -0.9036 -3.0313 -0.6757
  811MOL0     H 6993   6.719   2.762   3.642  1.0577  0.9326 -1.4814
  811MOL0     H 6994   6.738   2.940   3.686 -0.0813 -0.1918 -0.2184
  811MOL0     H 6995   6.702   2.714   3.888 -1.4653  0.1415  2.6539
  811MOL0     H 6996   6.731   2.895   3.904  1.4223  0.3226 -1.9848
  811MOL0     H 6997   6.492   2.756   3.768 -1.8575  0.7547  0.8373
  811MOL0     H 6998   6.505   2.924   3.803 -2.1930  0.5296 -1.1527
  811MOL0     H 6999   6.467   2.893   4.032  0.6377  1.0072  0.0050
  811MOL0     H 7000   6.561   2.745   4.037  0.3314 -0.6488 -3.7276
  811MOL0     H 7001   6.343   2.645   3.911  0.8368  0.0685  1.0776
  811MOL0     H 7002   6.345   2.674   4.088 -2.5583 -1.9556 -0.0389
  811MOL0     H 7003   6.205   2.879   3.912  2.2143  1.9445  0.0411
  811MOL0     H 7004   6.217   2.880   4.089  3.0806 -0.3943 -0.8400
  811MOL0     H 7005   6.172   2.562   4.146 -1.4808 -2.3701  1.7371
  811MOL0     H 7006   5.952   2.403   4.203 -0.4201 -0.8061  0.2152
  811MOL0     H 7007   5.902   2.352   4.036 -0.1562 -0.3422 -0.3334
  811MOL0     H 7008   5.696   2.356   4.181 -0.8603 -0.1250 -2.2529
  811MOL0     H 7009   5.687   2.459   4.045 -1.1386 -2.4474  0.3534
  811MOL0     H 7010   5.728   2.658   4.168  3.7507 -0.6863 -0.4034
  811MOL0     H 7011   5.601   2.568   4.231 -0.4766 -0.6126 -1.4989
  811MOL0     H 7012   5.864   2.596   4.365 -0.5204  1.0728 -0.2653
  811MOL0     H 7013   5.743   2.476   4.423 -3.8196  0.0997 -0.3358
  811MOL0     H 7014   5.569   2.856   4.589  0.5116 -0.1111  1.2525
  811MOL0     H 7015   5.327   2.844   4.671 -1.0216  1.5413 -4.0116
  811MOL0     H 7016   4.873   2.701   4.547 -1.4517  1.6394  1.1880
  811MOL0     H 7017   4.641   2.633   4.610 -1.0503 -2.5024 -1.5533
  811MOL0     H 7018   4.427   2.466   4.639 -0.7403  1.4051  0.4388
  811MOL0     H 7019   4.463   2.606   4.738 -0.6295  0.2444 -0.3875
  811MOL0     H 7020   4.364   2.503   4.935  3.9515  1.0660 -0.8005
  811MOL0     H 7021   4.334   2.356   4.841 -2.8786  0.1440 -1.1774
  811MOL0     H 7022   4.158   2.491   4.713  1.2141  0.3299 -0.4411
  811MOL0     H 7023   4.218   2.642   4.783 -1.2120  0.5831  2.2733
  811MOL0     H 7024   4.093   2.404   4.916 -1.3794  0.7659 -1.5305
  811MOL0     H 7025   4.143   2.565   4.994 -1.3190 -0.0442  1.2971
  811MOL0     H 7026   3.931   2.522   4.754 -2.0209 -1.9925  0.5145
  811MOL0     H 7027   3.984   2.668   4.831  2.9376 -1.4053 -1.9648
  811MOL0     H 7028   3.915   2.580   5.053  1.9751  2.8237 -2.0624
  811MOL0     H 7029   3.845   2.436   4.978 -0.2655 -0.4088  3.3913
  811MOL0     H 7030   3.722   2.717   4.906 -1.5705  0.0870  0.6702
  811MOL0     H 7031   3.685   2.577   4.837 -0.3317 -1.5072  0.7472
  811MOL0     H 7032   3.644   2.637   5.133 -3.1667 -0.6384 -0.0170
  811MOL0     H 7033   3.614   2.481   5.064  2.5891 -0.1168  3.1284
  811MOL0     H 7034   4.774   2.280   4.804 -1.9951 -1.6602 -2.9168
  811MOL0     H 7035   5.014   2.356   4.754  1.0415  0.6317 -0.3712
  811MOL0     H 7036   5.303   2.460   4.484  1.8563 -0.4580 -0.9643
  811MOL0     H 7037   5.532   2.465   4.416  1.9503  2.4489 -3.1074
  811MOL0     H 7038   7.125   3.104   3.654  1.0110  1.6905  0.5187
  811MOL0     H 7039   7.259   3.144   3.446  2.2637 -1.4053 -2.7072
  811MOL0     H 7040   7.482   2.963   3.120  0.8277  1.2800  1.0105
  811MOL0     H 7041   7.586   2.946   2.895 -1.2593 -4.9461  2.1010
  811MOL0     H 7042   7.894   2.913   2.667 -0.5262  1.6788  0.7601
  811MOL0     H 7043   7.790   2.812   2.761  0.3569 -1.1223  1.6061
  811MOL0     H 7044   7.998   2.811   2.930 -0.1808 -1.3913  0.5606
  811MOL0     H 7045   7.952   2.673   2.830  1.2454 -0.1080 -1.6198
  811MOL0     H 7046   8.153   2.878   2.779 -0.1975  0.3582  0.0917
  811MOL0     H 7047   8.099   2.754   2.659 -2.5723  2.0531 -0.4644
  811MOL0     H 7048   8.211   2.674   2.935  1.3599 -1.6653 -0.4604
  811MOL0     H 7049   8.157   2.578   2.798 -3.1743  2.0053  0.5469
  811MOL0     H 7050   8.550   2.709   2.659 -0.2849  0.1813 -0.4981
  811MOL0     H 7051   7.973   2.994   3.075 -0.7513 -1.4531 -0.3902
  811MOL0     H 7052   7.866   3.010   3.303 -0.7784 -0.6400  0.3071
  812MOL0     O 7053   8.493  10.774   1.807  0.3714 -0.9306 -0.5846
  812MOL0     C 7054   8.403  10.760   1.716 -0.4833 -0.9575  0.0025
  812MOL0     O 7055   8.412  10.670   1.610  0.0777  0.2401 -0.4554
  812MOL0     C 7056   8.532  10.610   1.591 -0.2650 -0.3919  0.0279
  812MOL0     C 7057   8.538  10.479   1.614  0.0877 -0.0548  0.0264
  812MOL0     C 7058   8.645  10.400   1.563 -0.4164 -0.0909 -0.5128
  812MOL0     C 7059   8.752  10.461   1.496 -0.4801 -0.3379  0.4459
  812MOL0     O 7060   8.851  10.378   1.451 -1.7511 -0.5397  1.0718
  812MOL0     C 7061   8.963  10.432   1.372 -0.1392 -0.0423 -0.7664
  812MOL0     C 7062   9.065  10.328   1.329  0.2276  0.1506 -0.3162
  812MOL0     C 7063   9.155  10.282   1.449  0.1159 -0.3105 -0.3663
  812MOL0     C 7064   9.289  10.224   1.394  0.3193  0.6129 -0.3171
  812MOL0     C 7065   9.397  10.204   1.506 -0.5658 -0.0524  0.3243
  812MOL0     C 7066   9.547  10.176   1.471 -0.1033 -0.1181  0.0660
  812MOL0     C 7067   9.643  10.191   1.595 -0.1704 -0.1198  0.0744
  812MOL0     C 7068   9.695  10.333   1.624 -0.4727  0.2872  0.5635
  812MOL0     N 7069   9.717  10.352   1.768 -0.1128 -0.2390 -0.5590
  812MOL0     C 7070   9.826  10.311   1.842 -0.0949 -0.6074  0.0615
  812MOL0     C 7071   9.793  10.320   1.968  0.6081 -0.5358  0.3192
  812MOL0     C 7072   9.891  10.284   2.077 -0.1153  0.1741 -0.1412
  812MOL0     C 7073   9.957  10.391   2.171  0.8933 -0.3252 -0.2830
  812MOL0     C 7074   9.870  10.463   2.272  0.8608  0.1836  0.1692
  812MOL0     C 7075   9.794  10.361   2.357 -0.4677  0.1907  0.1275
  812MOL0     O 7076   9.663  10.330   2.316 -0.4842  0.0181 -0.2807
  812MOL0     C 7077   9.557  10.416   2.322 -0.3863  0.4577  0.8304
  812MOL0     C 7078   9.434  10.362   2.286  0.4721 -0.2659 -0.4762
  812MOL0     C 7079   9.319  10.433   2.299  0.4735 -1.2634  0.3753
  812MOL0     C 7080   9.321  10.569   2.339  0.1285  0.3950  0.2791
  812MOL0     C 7081   9.200  10.652   2.360 -0.1580  0.4780  0.3785
  812MOL0     O 7082   9.082  10.575   2.360  0.0089 -0.7241  0.9308
  812MOL0     C 7083   8.961  10.641   2.369 -1.0703  0.2100  0.2470
  812MOL0     C 7084   8.864  10.588   2.280  0.4450 -0.2386 -0.4332
  812MOL0     C 7085   8.740  10.658   2.276 -0.1776  0.1195 -0.0314
  812MOL0     C 7086   8.706  10.763   2.363  1.1163 -0.2487 -0.0054
  812MOL0     O 7087   8.585  10.825   2.355 -0.6222 -0.0082  0.0324
  812MOL0     C 7088   8.471  10.770   2.302  0.4176 -0.5211 -0.6230
  812MOL0     C 7089   8.358  10.856   2.348  0.1049  0.6400 -0.8240
  812MOL0     C 7090   8.323  10.833   2.497  0.5609  0.4098 -0.3075
  812MOL0     C 7091   8.241  10.703   2.519 -0.7280  0.2147 -0.5976
  812MOL0     C 7092   8.307  10.601   2.613 -0.6070 -0.0143  0.4293
  812MOL0     C 7093   8.225  10.476   2.647  0.6121 -0.7272 -0.0208
  812MOL0     C 7094   8.107  10.501   2.736  0.3035 -0.8380 -0.0067
  812MOL0     C 7095   8.055  10.376   2.799 -0.7748 -0.9510 -0.9796
  812MOL0    Cl 7096   7.927  10.400   2.929 -0.2360 -0.1963 -0.1480
  812MOL0     C 7097   8.805  10.811   2.457  0.1514  0.0364  0.8276
  812MOL0     C 7098   8.940  10.759   2.448  0.5395  0.1582 -0.8920
  812MOL0     O 7099   9.205  10.769   2.369  0.0344 -0.2524  0.4138
  812MOL0     C 7100   9.442  10.627   2.366 -0.3838 -0.4484 -0.2492
  812MOL0     C 7101   9.564  10.554   2.369 -0.3720 -0.9784  0.1284
  812MOL0     N 7102   9.663  10.375   1.977 -0.2064  0.1074 -1.0324
  812MOL0     N 7103   9.623  10.387   1.858 -0.1670  0.4035  0.3181
  812MOL0     C 7104   8.747  10.603   1.479 -0.2122  0.8224 -0.0832
  812MOL0     C 7105   8.639  10.673   1.523 -0.0695 -0.3034  0.3442
  812MOL0     C 7106   8.277  10.833   1.751 -0.5210 -0.0759  1.0643
  812MOL0     C 7107   8.269  10.898   1.879  0.4627 -0.7941 -0.5944
  812MOL0     C 7108   8.149  10.945   1.916  0.7994 -0.2201 -0.6662
  812MOL0     C 7109   8.039  10.939   1.833  0.1014 -0.4329 -0.0776
  812MOL0     O 7110   7.919  10.985   1.893  0.6019 -0.7275  1.0905
  812MOL0     C 7111   7.799  10.993   1.812 -0.3884 -0.0096  0.0131
  812MOL0     C 7112   7.696  11.074   1.895  0.0985  0.7372 -0.4136
  812MOL0     C 7113   7.657  11.000   2.024  0.0701  0.8022  0.6624
  812MOL0     C 7114   7.594  11.099   2.124  0.2101 -0.1214  0.4829
  812MOL0     C 7115   7.475  11.163   2.071  0.6445  0.3367  0.2181
  812MOL0     C 7116   7.358  11.189   2.037  0.3006 -1.5113 -0.3565
  812MOL0     C 7117   8.055  10.881   1.710  0.1446 -0.9230  0.5752
  812MOL0     C 7118   8.172  10.824   1.661 -0.0289  0.2109  0.2374
  812MOL0     H 7119   8.450  10.435   1.661  0.1315 -0.8564 -0.6235
  812MOL0     H 7120   8.641  10.296   1.592  0.9230  0.7938  3.3853
  812MOL0     H 7121   9.015  10.510   1.430  1.0749 -0.2596 -1.5393
  812MOL0     H 7122   8.913  10.470   1.282 -3.4025 -1.4401  0.3276
  812MOL0     H 7123   9.127  10.376   1.253 -0.0253 -3.2971 -2.9380
  812MOL0     H 7124   9.018  10.238   1.288 -0.6504  1.6836 -2.9337
  812MOL0     H 7125   9.112  10.198   1.503  2.9347 -1.2947  0.5168
  812MOL0     H 7126   9.174  10.369   1.513 -0.2027  1.3249 -2.3566
  812MOL0     H 7127   9.263  10.124   1.357 -2.3560  1.0903  0.1062
  812MOL0     H 7128   9.327  10.279   1.307 -3.3966  0.7014 -2.0969
  812MOL0     H 7129   9.363  10.133   1.583  0.4001 -1.1617 -0.2467
  812MOL0     H 7130   9.399  10.302   1.554  4.4479  0.3720 -0.2532
  812MOL0     H 7131   9.577  10.220   1.376 -1.8902  1.5054  0.1916
  812MOL0     H 7132   9.546  10.068   1.456 -2.6821 -0.2820  0.8171
  812MOL0     H 7133   9.592  10.149   1.682 -0.3553 -0.1033 -0.0242
  812MOL0     H 7134   9.726  10.121   1.580  0.1079  0.2368 -0.0429
  812MOL0     H 7135   9.621  10.405   1.589 -1.0284  0.1338  1.3773
  812MOL0     H 7136   9.788  10.351   1.569 -1.9147 -0.2231 -2.1542
  812MOL0     H 7137   9.915  10.271   1.796 -0.9065  1.5766 -3.9847
  812MOL0     H 7138   9.982  10.238   2.040 -0.4176 -0.8873  0.3970
  812MOL0     H 7139   9.837  10.212   2.140 -0.9241  1.3964  0.6232
  812MOL0     H 7140  10.006  10.457   2.098 -0.3523 -0.8393 -1.6525
  812MOL0     H 7141  10.030  10.345   2.238  0.6615 -1.2685 -0.6661
  812MOL0     H 7142   9.929  10.530   2.334  2.1216 -0.4921 -0.2677
  812MOL0     H 7143   9.801  10.526   2.216  2.2539 -0.3207 -2.2671
  812MOL0     H 7144   9.784  10.406   2.456 -0.5302  2.3061 -0.7711
  812MOL0     H 7145   9.857  10.272   2.365  2.1149  1.7404 -1.2917
  812MOL0     H 7146   9.415  10.260   2.253  1.6336 -0.2367 -1.2744
  812MOL0     H 7147   9.225  10.385   2.272 -1.0409  1.7112  0.0118
  812MOL0     H 7148   8.893  10.515   2.205 -1.6065 -1.5906  0.0024
  812MOL0     H 7149   8.665  10.614   2.212  1.2718 -0.3110 -1.5145
  812MOL0     H 7150   8.444  10.671   2.341  0.7673 -0.3937 -0.0361
  812MOL0     H 7151   8.471  10.762   2.193 -2.9768  0.4553 -0.8075
  812MOL0     H 7152   8.267  10.835   2.291 -2.9825  2.2542  2.9902
  812MOL0     H 7153   8.389  10.961   2.337  1.2080  0.2059 -2.1567
  812MOL0     H 7154   8.258  10.913   2.533  0.7927  0.4334  0.0615
  812MOL0     H 7155   8.408  10.839   2.564 -1.5498 -2.5142  3.0143
  812MOL0     H 7156   8.147  10.741   2.560 -0.4177  1.6231 -1.1248
  812MOL0     H 7157   8.229  10.655   2.422 -0.1216  1.2847 -1.2208
  812MOL0     H 7158   8.345  10.641   2.707  1.2053 -2.0692  0.6681
  812MOL0     H 7159   8.392  10.561   2.557 -2.7013 -0.7558 -2.4701
  812MOL0     H 7160   8.289  10.395   2.682  0.7481 -0.7660 -0.3596
  812MOL0     H 7161   8.194  10.439   2.548 -0.7951 -1.8735  0.8064
  812MOL0     H 7162   8.143  10.565   2.817 -0.0443  2.4018 -2.2486
  812MOL0     H 7163   8.026  10.554   2.686 -0.4442 -3.2511 -1.5291
  812MOL0     H 7164   8.146  10.336   2.846  1.9066  2.9445 -2.3105
  812MOL0     H 7165   8.009  10.309   2.726 -0.7737 -1.9857 -0.0555
  812MOL0     H 7166   8.776  10.879   2.536  0.3394 -0.1923  1.1000
  812MOL0     H 7167   9.024  10.804   2.501  1.2273  0.1217 -1.9217
  812MOL0     H 7168   9.448  10.733   2.387  0.4474 -0.4010 -0.6489
  812MOL0     H 7169   9.657  10.603   2.396 -0.6180 -1.0647  1.1727
  812MOL0     H 7170   8.826  10.649   1.422  1.0346 -3.1025 -1.8540
  812MOL0     H 7171   8.621  10.779   1.506 -3.4151 -1.1178 -2.0826
  812MOL0     H 7172   8.355  10.913   1.943  0.5301  0.6584 -0.9931
  812MOL0     H 7173   8.133  10.989   2.014 -3.1092  0.2264 -1.3398
  812MOL0     H 7174   7.763  10.894   1.785  0.2882 -0.1427 -0.4427
  812MOL0     H 7175   7.819  11.038   1.714  0.7022 -0.3485  0.0613
  812MOL0     H 7176   7.745  11.166   1.928  0.2043 -0.0013  1.6403
  812MOL0     H 7177   7.606  11.095   1.837 -0.8497 -2.0993 -0.1360
  812MOL0     H 7178   7.745  10.975   2.084 -0.7567 -0.4707  1.3676
  812MOL0     H 7179   7.594  10.911   2.017  0.3250  0.6980 -0.7205
  812MOL0     H 7180   7.572  11.051   2.220  1.8539 -2.6212 -0.2852
  812MOL0     H 7181   7.671  11.174   2.143 -1.3299  1.8559 -0.6943
  812MOL0     H 7182   7.256  11.203   2.007  0.9573  0.2453 -1.9661
  812MOL0     H 7183   7.964  10.875   1.652  1.2127  0.7360 -1.4026
  812MOL0     H 7184   8.193  10.781   1.563  1.8311  2.4958 -0.4471
  813MOL0     O 7185   5.282   6.426  10.959 -0.0012 -0.2354 -0.0702
  813MOL0     C 7186   5.346   6.375  10.871 -0.5907  0.1962 -0.1684
  813MOL0     O 7187   5.294   6.299  10.771  0.3435  0.4995 -0.0946
  813MOL0     C 7188   5.161   6.271  10.764 -0.4611  1.0127 -0.0194
  813MOL0     C 7189   5.108   6.162  10.820  0.4828  0.2866  0.1637
  813MOL0     C 7190   4.971   6.132  10.804 -0.6271 -0.1091  0.1699
  813MOL0     C 7191   4.881   6.227  10.750  0.2201 -0.4411 -0.1775
  813MOL0     O 7192   4.753   6.186  10.763  0.2450 -0.0055  0.0624
  813MOL0     C 7193   4.649   6.277  10.749  0.1956 -0.8901  0.0524
  813MOL0     C 7194   4.539   6.232  10.854  0.3080  0.0854 -0.3729
  813MOL0     C 7195   4.396   6.269  10.811  0.3085  0.1176 -0.3408
  813MOL0     C 7196   4.284   6.234  10.912  0.4240 -0.2598  0.4806
  813MOL0     C 7197   4.143   6.285  10.872  0.3515 -0.6508  0.0547
  813MOL0     C 7198   4.038   6.290  10.984 -0.1573  0.3779  0.2608
  813MOL0     C 7199   3.922   6.376  10.938 -0.6266 -0.7412 -0.4726
  813MOL0     C 7200   3.827   6.397  11.056 -0.2426  0.3809  0.4686
  813MOL0     N 7201   3.711   6.486  11.032 -0.2425 -0.8983  0.3294
  813MOL0     C 7202   3.602   6.450  10.953  0.2622 -0.5138  0.0066
  813MOL0     C 7203   3.527   6.558  10.951  0.8185  0.4755 -0.1263
  813MOL0     C 7204   3.389   6.582  10.886 -0.0732  0.3555 -0.3938
  813MOL0     C 7205   3.402   6.572  10.740  0.1007 -0.1992 -0.1306
  813MOL0     C 7206   3.272   6.577  10.663  0.1482 -0.3508  0.4355
  813MOL0     C 7207   3.290   6.544  10.510  0.0594 -0.3389 -0.1304
  813MOL0     O 7208   3.295   6.668  10.444 -0.2505 -0.0599  0.3127
  813MOL0     C 7209   3.329   6.666  10.312 -0.6878  0.3234  0.0995
  813MOL0     C 7210   3.236   6.713  10.212 -0.5812  0.0624  0.1288
  813MOL0     C 7211   3.264   6.692  10.074 -0.2054 -0.6808 -0.8740
  813MOL0     C 7212   3.393   6.643  10.039  0.2072  0.0688 -0.2382
  813MOL0     C 7213   3.421   6.651   9.892  0.6122  0.5119 -0.4269
  813MOL0     O 7214   3.534   6.600   9.845 -0.0024  0.4504  0.3542
  813MOL0     C 7215   3.570   6.572   9.715 -0.3801  0.1900 -0.7302
  813MOL0     C 7216   3.709   6.553   9.685  0.8401  0.0102  0.4733
  813MOL0     C 7217   3.753   6.520   9.566 -0.3475 -0.0093  0.1750
  813MOL0     C 7218   3.670   6.502   9.460  0.0514 -0.6702  0.1718
  813MOL0     O 7219   3.744   6.488   9.344  0.9049  0.0352  0.2552
  813MOL0     C 7220   3.720   6.362   9.285  0.1667  0.7769 -0.0159
  813MOL0     C 7221   3.815   6.268   9.352 -0.7473 -0.4728  0.6920
  813MOL0     C 7222   3.961   6.291   9.320 -1.5349  0.1109 -0.4405
  813MOL0     C 7223   4.058   6.177   9.364 -0.5064 -1.1249  0.4152
  813MOL0     C 7224   4.202   6.221   9.395 -0.0774  0.1010  0.0122
  813MOL0     C 7225   4.305   6.111   9.383  0.1072 -1.0757 -0.4394
  813MOL0     C 7226   4.452   6.151   9.387  0.1841 -0.9508 -0.2909
  813MOL0     C 7227   4.503   6.148   9.528  0.7373  0.1996 -1.1102
  813MOL0    Cl 7228   4.672   6.195   9.537 -0.2509 -0.0998  0.5759
  813MOL0     C 7229   3.535   6.514   9.481  0.8694  0.1026  0.4950
  813MOL0     C 7230   3.484   6.555   9.612  0.0007  0.5517 -0.0985
  813MOL0     O 7231   3.337   6.710   9.823  0.1477  0.5013  0.6778
  813MOL0     C 7232   3.486   6.597  10.138  0.1806 -0.7337  0.5091
  813MOL0     C 7233   3.453   6.608  10.273  0.0363 -0.1097  0.0949
  813MOL0     N 7234   3.588   6.654  11.027  0.4704  0.0870  0.4872
  813MOL0     N 7235   3.699   6.613  11.070 -0.6287 -0.1498 -0.8883
  813MOL0     C 7236   4.932   6.346  10.709 -0.3416  0.1919 -0.1008
  813MOL0     C 7237   5.072   6.370  10.712 -0.3823  0.7481 -0.1606
  813MOL0     C 7238   5.496   6.377  10.869 -0.4272  0.0300 -0.9617
  813MOL0     C 7239   5.571   6.395  10.992  0.0446  0.0210  0.4641
  813MOL0     C 7240   5.709   6.377  10.986  0.1973 -0.2904  0.0882
  813MOL0     C 7241   5.777   6.350  10.866  0.3347  0.4690 -0.8219
  813MOL0     O 7242   5.909   6.337  10.873 -0.1802 -0.0791 -0.3248
  813MOL0     C 7243   5.997   6.272  10.776  0.0790 -0.2098 -1.2575
  813MOL0     C 7244   6.144   6.314  10.809 -0.6040 -0.1286  0.1566
  813MOL0     C 7245   6.244   6.271  10.705 -0.3893 -0.0963 -0.0123
  813MOL0     C 7246   6.392   6.302  10.761  0.4992 -0.5733 -0.8789
  813MOL0     C 7247   6.499   6.289  10.659  0.9096 -0.4135  0.2318
  813MOL0     C 7248   6.599   6.275  10.587  0.0547  0.1489 -0.2135
  813MOL0     C 7249   5.708   6.336  10.743 -0.4602 -0.5693 -0.1406
  813MOL0     C 7250   5.566   6.347  10.748  0.4158  0.4149  0.2942
  813MOL0     H 7251   5.166   6.090  10.876 -1.5465 -0.9859  0.7558
  813MOL0     H 7252   4.931   6.038  10.840  0.2958 -0.8969 -0.8027
  813MOL0     H 7253   4.609   6.273  10.647  1.5806  3.1961 -0.8468
  813MOL0     H 7254   4.674   6.380  10.776  0.0247 -0.8206 -0.0594
  813MOL0     H 7255   4.550   6.288  10.947 -1.4741  0.3141 -0.2686
  813MOL0     H 7256   4.547   6.127  10.885 -0.0114 -0.0139 -0.6094
  813MOL0     H 7257   4.363   6.223  10.718 -3.0776  1.6739 -0.0670
  813MOL0     H 7258   4.377   6.375  10.791 -2.2412 -0.2750 -0.3801
  813MOL0     H 7259   4.278   6.127  10.937 -1.0593  0.2208  2.3499
  813MOL0     H 7260   4.315   6.284  11.004  0.4069  0.9222 -0.1453
  813MOL0     H 7261   4.114   6.237  10.778  1.5535 -0.5175 -0.4027
  813MOL0     H 7262   4.148   6.389  10.840 -1.3397 -0.7066 -0.4526
  813MOL0     H 7263   4.085   6.333  11.072 -0.4600  0.8117  0.2164
  813MOL0     H 7264   4.012   6.185  10.999  0.2927  0.2832  0.3871
  813MOL0     H 7265   3.962   6.473  10.906 -0.2002 -0.7771 -0.0673
  813MOL0     H 7266   3.872   6.334  10.850 -0.5118 -1.4171 -0.2206
  813MOL0     H 7267   3.882   6.463  11.124 -0.0398 -0.1995  0.8797
  813MOL0     H 7268   3.785   6.305  11.098  1.1834  0.5402  2.3788
  813MOL0     H 7269   3.584   6.352  10.908 -0.8465 -0.3967  0.1587
  813MOL0     H 7270   3.351   6.683  10.905 -3.8763 -1.2324  1.3743
  813MOL0     H 7271   3.304   6.517  10.907  0.4307  0.1028  0.8979
  813MOL0     H 7272   3.450   6.475  10.724 -1.7042 -0.8595 -1.9266
  813MOL0     H 7273   3.469   6.647  10.698 -1.6300  1.9842  0.7946
  813MOL0     H 7274   3.206   6.496  10.696  1.2426 -1.1895  0.6097
  813MOL0     H 7275   3.228   6.677  10.670 -1.0704 -0.7841 -0.6195
  813MOL0     H 7276   3.209   6.481  10.473 -1.7951  1.4018  0.7433
  813MOL0     H 7277   3.384   6.488  10.506  0.6229  0.5713 -0.0055
  813MOL0     H 7278   3.136   6.744  10.240 -2.3768 -0.5576 -4.7491
  813MOL0     H 7279   3.181   6.730  10.015 -0.7473 -2.7426 -1.5341
  813MOL0     H 7280   3.788   6.551   9.760  0.3858 -1.0063  0.9519
  813MOL0     H 7281   3.861   6.513   9.559 -0.4971 -2.2115 -0.8879
  813MOL0     H 7282   3.741   6.347   9.179 -1.4455 -4.5359  0.1572
  813MOL0     H 7283   3.614   6.334   9.287 -0.0846  1.5152 -1.3806
  813MOL0     H 7284   3.788   6.170   9.312 -0.0976 -1.4285  2.4542
  813MOL0     H 7285   3.811   6.249   9.460 -0.4355 -2.1520  0.4496
  813MOL0     H 7286   4.002   6.379   9.371  3.5760 -0.9698 -2.1163
  813MOL0     H 7287   3.974   6.302   9.212 -0.3533  0.5430 -0.2746
  813MOL0     H 7288   4.019   6.126   9.452  0.8533  0.3834  1.9668
  813MOL0     H 7289   4.064   6.100   9.287 -1.0972 -0.6539 -0.1234
  813MOL0     H 7290   4.220   6.272   9.491 -0.6299 -1.0456  0.7457
  813MOL0     H 7291   4.220   6.302   9.324 -1.1723  0.1831 -0.1813
  813MOL0     H 7292   4.275   6.071   9.285 -1.9273  0.9092 -0.7048
  813MOL0     H 7293   4.280   6.037   9.460  3.3828 -1.9101 -0.0035
  813MOL0     H 7294   4.519   6.084   9.332  0.3174 -0.8886 -0.2039
  813MOL0     H 7295   4.462   6.253   9.350 -0.0301  0.9034  4.1918
  813MOL0     H 7296   4.503   6.042   9.554  1.9322  0.4950  0.2311
  813MOL0     H 7297   4.430   6.205   9.587 -0.6370  1.0430 -3.4859
  813MOL0     H 7298   3.471   6.496   9.395  0.3859 -0.0920  0.8915
  813MOL0     H 7299   3.379   6.567   9.635 -0.0160 -1.6594  1.1717
  813MOL0     H 7300   3.586   6.559  10.115  0.3540  0.1403 -0.2443
  813MOL0     H 7301   3.522   6.573  10.349 -0.9395 -2.2694  0.0498
  813MOL0     H 7302   4.873   6.427  10.669 -1.8915 -1.3777 -1.1672
  813MOL0     H 7303   5.123   6.456  10.671  1.9804  0.3944  1.7978
  813MOL0     H 7304   5.521   6.418  11.086 -2.9139  1.4333 -1.2772
  813MOL0     H 7305   5.768   6.385  11.077  1.9724 -1.6845 -0.8677
  813MOL0     H 7306   5.967   6.291  10.672 -1.4242 -2.1265 -1.2288
  813MOL0     H 7307   6.004   6.164  10.791  2.8303  0.2815  2.7210
  813MOL0     H 7308   6.151   6.422  10.826 -1.6348 -0.4995  3.8116
  813MOL0     H 7309   6.161   6.269  10.907  3.0894  0.5287 -0.0601
  813MOL0     H 7310   6.223   6.338  10.622 -1.4616  0.0671  0.3845
  813MOL0     H 7311   6.232   6.165  10.681  1.7853 -1.0372  2.5308
  813MOL0     H 7312   6.385   6.408  10.787  0.7056 -0.1697 -2.3663
  813MOL0     H 7313   6.410   6.239  10.849 -1.1575 -3.6630 -2.5892
  813MOL0     H 7314   6.688   6.259  10.530  0.0825 -0.9427  0.1010
  813MOL0     H 7315   5.761   6.321  10.649  1.3955  0.5586  0.6817
  813MOL0     H 7316   5.506   6.335  10.659  0.6046  0.7502  0.1214
  814MOL0     O 7317  10.126   7.304   2.620  0.5024  0.2798 -0.6327
  814MOL0     C 7318  10.194   7.346   2.717 -0.1253 -0.9488  0.4515
  814MOL0     O 7319  10.137   7.394   2.828 -0.2089 -0.2457 -0.0321
  814MOL0     C 7320  10.001   7.435   2.837  0.0234  0.8919 -0.8817
  814MOL0     C 7321   9.913   7.453   2.735 -0.3126 -0.3594 -0.3264
  814MOL0     C 7322   9.782   7.494   2.756 -0.7793  0.1448  0.3743
  814MOL0     C 7323   9.737   7.503   2.883 -0.7635 -0.0919 -0.3874
  814MOL0     O 7324   9.608   7.534   2.887  0.3426 -0.7007  0.2516
  814MOL0     C 7325   9.538   7.501   3.010 -1.0894 -0.7118 -0.1152
  814MOL0     C 7326   9.393   7.559   2.998 -0.1389  0.3181  0.5477
  814MOL0     C 7327   9.330   7.554   3.133 -0.6211 -0.3620 -0.2628
  814MOL0     C 7328   9.177   7.573   3.149 -0.2467 -0.3783  0.1544
  814MOL0     C 7329   9.096   7.522   3.033  0.3982 -0.2484  0.0941
  814MOL0     C 7330   8.953   7.473   3.068  0.4437  1.2985 -0.3433
  814MOL0     C 7331   8.877   7.595   3.120  0.9902 -0.1351 -0.7307
  814MOL0     C 7332   8.729   7.567   3.160 -0.5500  0.1014 -0.4025
  814MOL0     N 7333   8.664   7.692   3.199 -0.6749 -0.4940  0.4761
  814MOL0     C 7334   8.549   7.731   3.132  0.6926 -0.0133  0.1466
  814MOL0     C 7335   8.521   7.854   3.179  0.2801  0.0567  0.6437
  814MOL0     C 7336   8.396   7.940   3.145  0.2079 -0.0698 -0.1499
  814MOL0     C 7337   8.454   8.068   3.078 -0.4678 -0.8492 -0.3768
  814MOL0     C 7338   8.341   8.166   3.026  0.8384 -0.2370  0.5680
  814MOL0     C 7339   8.243   8.105   2.920  0.6162 -0.5771  0.0938
  814MOL0     O 7340   8.173   8.200   2.842  0.6577 -0.3872  0.4522
  814MOL0     C 7341   8.040   8.193   2.854 -0.2696  0.2231 -0.2784
  814MOL0     C 7342   7.959   8.075   2.820 -1.1406  0.3705 -0.1314
  814MOL0     C 7343   7.821   8.074   2.840  0.6559 -0.0801  0.8414
  814MOL0     C 7344   7.748   8.181   2.911  0.9886 -0.3942  0.3575
  814MOL0     C 7345   7.612   8.170   2.930 -0.4377  0.6938  0.1432
  814MOL0     O 7346   7.542   8.064   2.866 -0.9313  0.6093 -0.5945
  814MOL0     C 7347   7.402   8.056   2.871  0.3332  0.0426  0.2884
  814MOL0     C 7348   7.316   8.170   2.867 -0.4083  0.4529 -0.4231
  814MOL0     C 7349   7.175   8.153   2.869 -1.6291 -0.2324 -0.5692
  814MOL0     C 7350   7.120   8.021   2.875 -0.9428 -1.1125 -0.4795
  814MOL0     O 7351   6.983   8.016   2.862  0.4990 -0.4640  0.0678
  814MOL0     C 7352   6.919   7.887   2.833  0.0459  0.2973  0.3639
  814MOL0     C 7353   6.783   7.888   2.897  0.6769  0.4317  1.1207
  814MOL0     C 7354   6.735   7.743   2.938  0.3174 -0.2209  0.5082
  814MOL0     C 7355   6.601   7.740   3.018  0.5810  0.2640 -0.0129
  814MOL0     C 7356   6.559   7.591   3.037  0.0503 -1.2369  0.2719
  814MOL0     C 7357   6.409   7.587   3.050  0.1545  0.2441  0.6324
  814MOL0     C 7358   6.378   7.440   3.093  0.0226 -0.0230  0.3930
  814MOL0     C 7359   6.241   7.445   3.161  0.3746 -0.1252  0.7411
  814MOL0    Cl 7360   6.108   7.474   3.047  0.1587 -0.0907  0.3296
  814MOL0     C 7361   7.209   7.917   2.895  0.0005 -0.0808  0.1057
  814MOL0     C 7362   7.344   7.938   2.886 -0.1788 -0.2957  0.0635
  814MOL0     O 7363   7.559   8.251   3.007  0.3201  0.1310 -0.1262
  814MOL0     C 7364   7.832   8.285   2.948 -0.1710 -0.2313 -0.5993
  814MOL0     C 7365   7.974   8.293   2.917  0.5167 -0.3361  0.0678
  814MOL0     N 7366   8.621   7.883   3.278 -0.3359 -0.8366 -0.3162
  814MOL0     N 7367   8.712   7.794   3.270 -0.9625  0.2560  0.2156
  814MOL0     C 7368   9.827   7.478   2.990 -1.1592  0.0623 -0.2111
  814MOL0     C 7369   9.955   7.454   2.968  0.1316  0.0628  0.6328
  814MOL0     C 7370  10.346   7.342   2.703 -0.0899  0.8557  0.2865
  814MOL0     C 7371  10.413   7.276   2.595 -0.2332  0.7106  0.7194
  814MOL0     C 7372  10.548   7.282   2.591 -0.4176 -0.3948  1.0098
  814MOL0     C 7373  10.622   7.367   2.678 -0.1661  0.3930 -0.0245
  814MOL0     O 7374  10.762   7.380   2.674  0.1296 -0.1937  0.0422
  814MOL0     C 7375  10.817   7.378   2.549  0.8638 -0.1500 -0.1838
  814MOL0     C 7376  10.934   7.470   2.557 -0.7672 -0.5174 -0.7533
  814MOL0     C 7377  11.070   7.399   2.596  1.0538  0.0273 -0.2914
  814MOL0     C 7378  11.186   7.487   2.639 -0.1282  0.2360 -0.5869
  814MOL0     C 7379  11.277   7.389   2.695 -0.2625  0.0918 -0.8108
  814MOL0     C 7380  11.359   7.307   2.728  0.9355  0.0089 -0.7576
  814MOL0     C 7381  10.561   7.426   2.785 -0.8839 -0.4387  0.1576
  814MOL0     C 7382  10.425   7.410   2.797  0.2244  0.4812 -0.6699
  814MOL0     H 7383   9.944   7.441   2.632  1.2053 -1.5684  0.2430
  814MOL0     H 7384   9.710   7.510   2.676  1.5756  1.4599 -1.6180
  814MOL0     H 7385   9.589   7.550   3.094  0.0664  1.2110 -1.8359
  814MOL0     H 7386   9.547   7.394   3.030  2.0828 -0.6004 -0.3448
  814MOL0     H 7387   9.338   7.487   2.937  0.6656  0.0078  0.1770
  814MOL0     H 7388   9.381   7.660   2.959  1.5059  0.4381  0.3109
  814MOL0     H 7389   9.389   7.629   3.187 -1.9112  0.4616  0.0440
  814MOL0     H 7390   9.356   7.455   3.172 -0.0821  0.1370  0.6885
  814MOL0     H 7391   9.147   7.527   3.244  1.9443 -1.0834  0.5528
  814MOL0     H 7392   9.157   7.680   3.161 -1.3478 -0.6594  0.9209
  814MOL0     H 7393   9.142   7.435   2.986  1.8876 -0.1418  1.2867
  814MOL0     H 7394   9.096   7.597   2.953  0.8874 -1.9143 -1.5399
  814MOL0     H 7395   8.959   7.396   3.146  0.8297  0.8972 -0.7592
  814MOL0     H 7396   8.903   7.421   2.986 -1.1396 -2.0008  2.4126
  814MOL0     H 7397   8.925   7.635   3.210 -1.8208  1.6362  0.1095
  814MOL0     H 7398   8.866   7.681   3.054 -2.8972  0.3519  0.3194
  814MOL0     H 7399   8.722   7.500   3.246 -0.8068  1.5189  0.7258
  814MOL0     H 7400   8.685   7.523   3.070  1.5140 -1.5905 -0.6520
  814MOL0     H 7401   8.493   7.667   3.064 -0.2569 -0.6811  1.5182
  814MOL0     H 7402   8.340   7.971   3.233  1.1120  2.2937 -0.3512
  814MOL0     H 7403   8.343   7.885   3.066 -0.1909 -0.4721  0.3899
  814MOL0     H 7404   8.502   8.035   2.985  1.4196  0.7953 -0.0631
  814MOL0     H 7405   8.531   8.127   3.128 -0.9019  2.2016 -2.9017
  814MOL0     H 7406   8.284   8.190   3.116  1.8683 -0.6647  1.3546
  814MOL0     H 7407   8.395   8.257   3.000 -0.6572  1.3225  2.6335
  814MOL0     H 7408   8.170   8.032   2.958  0.5712 -1.0525 -0.8745
  814MOL0     H 7409   8.291   8.047   2.841  1.4332 -0.1097  0.2410
  814MOL0     H 7410   8.007   7.991   2.770  0.3642  0.9323  0.3163
  814MOL0     H 7411   7.760   7.994   2.801  0.7902  1.0225 -1.7945
  814MOL0     H 7412   7.364   8.267   2.854  1.6492 -0.4935 -0.2312
  814MOL0     H 7413   7.120   8.246   2.878 -0.7337  0.0758  3.2557
  814MOL0     H 7414   6.973   7.797   2.865  1.9677  1.4711  0.5953
  814MOL0     H 7415   6.914   7.875   2.725 -0.3636 -5.2738  0.7280
  814MOL0     H 7416   6.714   7.924   2.821 -1.7054 -0.8168  2.5387
  814MOL0     H 7417   6.777   7.967   2.973 -0.9002  1.9705 -0.5039
  814MOL0     H 7418   6.810   7.693   3.001  2.3402  0.5323 -1.1964
  814MOL0     H 7419   6.714   7.687   2.846  0.9601 -2.6970  1.7529
  814MOL0     H 7420   6.617   7.779   3.119 -1.6808  1.4224 -0.0447
  814MOL0     H 7421   6.524   7.801   2.971 -0.2208 -0.1081  0.7873
  814MOL0     H 7422   6.607   7.546   3.124  0.8877  0.9235  1.0034
  814MOL0     H 7423   6.589   7.540   2.945  2.3978  0.2405  0.1328
  814MOL0     H 7424   6.364   7.606   2.952 -0.7294 -0.2360  0.9279
  814MOL0     H 7425   6.375   7.663   3.120 -0.1705  0.2473  0.4751
  814MOL0     H 7426   6.375   7.376   3.004 -1.1593  1.2429 -0.5308
  814MOL0     H 7427   6.457   7.398   3.154  0.7058 -1.1369 -1.1873
  814MOL0     H 7428   6.235   7.518   3.243 -4.3235 -0.3755  0.8511
  814MOL0     H 7429   6.227   7.343   3.199  2.2346 -1.0260 -0.8006
  814MOL0     H 7430   7.177   7.817   2.922 -1.4855  0.8545  2.1497
  814MOL0     H 7431   7.396   7.842   2.885 -0.0628 -0.4268 -4.4773
  814MOL0     H 7432   7.780   8.373   2.987 -1.7425 -2.0604  1.6787
  814MOL0     H 7433   8.028   8.380   2.954 -1.3898  1.3631 -0.9232
  814MOL0     H 7434   9.788   7.477   3.092 -1.4752 -0.8470 -0.3343
  814MOL0     H 7435  10.017   7.432   3.054 -1.8943 -0.5205  2.0028
  814MOL0     H 7436  10.363   7.230   2.511  0.2349  1.4763 -0.0006
  814MOL0     H 7437  10.597   7.229   2.510 -0.2703  0.4366  0.5552
  814MOL0     H 7438  10.741   7.418   2.481 -1.6015 -0.1070  2.4229
  814MOL0     H 7439  10.848   7.276   2.522 -1.4254 -1.2921  1.2171
  814MOL0     H 7440  10.960   7.502   2.456 -2.2759  0.6966 -0.7903
  814MOL0     H 7441  10.926   7.554   2.627  1.3270 -1.0523  0.2060
  814MOL0     H 7442  11.102   7.336   2.513 -0.0630  0.7737 -1.3195
  814MOL0     H 7443  11.048   7.327   2.675  1.3758 -0.1952 -0.4054
  814MOL0     H 7444  11.237   7.539   2.557  0.0350  0.4151 -0.3743
  814MOL0     H 7445  11.153   7.555   2.717  1.5026  0.4460 -0.0426
  814MOL0     H 7446  11.416   7.218   2.742  1.2419 -0.2889 -3.4208
  814MOL0     H 7447  10.616   7.479   2.862 -4.1963  0.0141  2.4326
  814MOL0     H 7448  10.386   7.444   2.892  1.8691 -1.3741  0.7521
  815MOL0     O 7449   1.737   4.230   3.057 -0.7774 -0.0285  1.2777
  815MOL0     C 7450   1.765   4.169   3.161  0.1289 -0.1641  0.3315
  815MOL0     O 7451   1.687   4.166   3.273  0.0903 -0.1560 -0.4367
  815MOL0     C 7452   1.595   4.266   3.307 -0.3880 -0.7289  0.7959
  815MOL0     C 7453   1.477   4.235   3.362  0.9796 -0.0235 -0.0644
  815MOL0     C 7454   1.379   4.332   3.378 -0.7518 -0.4505 -0.0771
  815MOL0     C 7455   1.399   4.465   3.333  0.8281  0.1237 -0.0777
  815MOL0     O 7456   1.297   4.562   3.332  0.7133 -0.0454 -0.0784
  815MOL0     C 7457   1.328   4.700   3.370  1.0332 -1.0363  0.2235
  815MOL0     C 7458   1.342   4.790   3.245  0.2421  0.1504  0.0139
  815MOL0     C 7459   1.210   4.791   3.154 -0.9357  1.1303  0.1066
  815MOL0     C 7460   1.114   4.908   3.200 -0.0896  0.5545  0.1463
  815MOL0     C 7461   0.983   4.910   3.113  0.0824 -0.1539  0.0379
  815MOL0     C 7462   0.886   4.993   3.195  0.1394  0.4381 -0.4497
  815MOL0     C 7463   0.743   5.005   3.135  0.0650 -1.4259  0.1922
  815MOL0     C 7464   0.740   5.091   3.015  0.0854 -0.8568 -0.4453
  815MOL0     N 7465   0.595   5.141   2.989 -0.0882 -0.0337  0.0411
  815MOL0     C 7466   0.478   5.071   3.006 -1.0929  0.0957  0.1732
  815MOL0     C 7467   0.386   5.158   2.955 -0.2769  0.0866 -0.3484
  815MOL0     C 7468   0.238   5.131   2.923  1.4588  1.0214 -0.2596
  815MOL0     C 7469   0.156   5.071   3.042 -0.3777  0.4492  0.5429
  815MOL0     C 7470   0.001   5.043   3.020 -0.1452  0.7288  0.2173
  815MOL0     C 7471  -0.077   5.165   3.071 -0.2958  0.6155  0.1378
  815MOL0     O 7472  -0.205   5.158   3.015  0.5482  0.2037  0.1614
  815MOL0     C 7473  -0.291   5.264   3.041  0.5187 -0.2150 -0.7732
  815MOL0     C 7474  -0.257   5.390   3.092 -0.0875  0.6987  0.4299
  815MOL0     C 7475  -0.362   5.485   3.105  0.4730  0.0725 -0.7497
  815MOL0     C 7476  -0.493   5.450   3.072 -0.5229  0.2341  0.1288
  815MOL0     C 7477  -0.596   5.549   3.071  0.3988  0.7112  0.4255
  815MOL0     O 7478  -0.564   5.666   3.132  0.2986  0.1119  0.3663
  815MOL0     C 7479  -0.656   5.773   3.136 -0.5568  0.0076 -0.0773
  815MOL0     C 7480  -0.657   5.862   3.247  0.2271 -0.0146 -0.7566
  815MOL0     C 7481  -0.744   5.969   3.248  0.0685  0.4701 -0.1038
  815MOL0     C 7482  -0.823   5.995   3.135 -0.3404  0.6328 -0.2137
  815MOL0     O 7483  -0.912   6.099   3.139 -0.1374  0.4963  0.5783
  815MOL0     C 7484  -1.028   6.076   3.222 -0.2296  0.3194 -0.0483
  815MOL0     C 7485  -1.069   6.192   3.315  0.3287  0.8002 -0.5502
  815MOL0     C 7486  -1.167   6.151   3.420 -0.0950 -0.7186  0.8065
  815MOL0     C 7487  -1.296   6.094   3.376  0.2391  0.4489  0.3043
  815MOL0     C 7488  -1.414   6.115   3.473  0.6399  0.6762  0.0559
  815MOL0     C 7489  -1.536   6.051   3.406  0.9678  0.4567  0.3884
  815MOL0     C 7490  -1.670   6.083   3.479  0.0568 -0.3439 -0.1717
  815MOL0     C 7491  -1.792   6.026   3.405 -0.3754  0.8355  1.2528
  815MOL0    Cl 7492  -1.827   6.107   3.244  0.0212 -0.4175 -0.1909
  815MOL0     C 7493  -0.824   5.914   3.025 -0.3396 -0.4021 -0.0535
  815MOL0     C 7494  -0.732   5.807   3.018 -0.5390 -0.6696 -0.5626
  815MOL0     O 7495  -0.711   5.514   3.027  0.2832 -0.6519 -0.9933
  815MOL0     C 7496  -0.523   5.324   3.035  0.4498 -0.1099  0.3013
  815MOL0     C 7497  -0.427   5.233   3.028  0.1526  0.8334  1.0020
  815MOL0     N 7498   0.455   5.281   2.923 -0.3602 -0.5529 -0.4417
  815MOL0     N 7499   0.581   5.271   2.953 -0.3691 -0.6495  0.0702
  815MOL0     C 7500   1.528   4.503   3.292  0.3651 -0.2145  0.5550
  815MOL0     C 7501   1.619   4.397   3.271  0.1607 -0.7457  0.1059
  815MOL0     C 7502   1.883   4.081   3.157 -0.1858  0.0168 -0.1209
  815MOL0     C 7503   1.901   3.984   3.256 -0.1125  0.0627  0.4334
  815MOL0     C 7504   2.008   3.909   3.258  0.3842 -0.3108 -0.8322
  815MOL0     C 7505   2.105   3.913   3.159  0.5249  0.4769 -0.1002
  815MOL0     O 7506   2.216   3.825   3.181  0.2914  0.3015 -0.6907
  815MOL0     C 7507   2.323   3.838   3.088  0.7169 -0.5113  0.2351
  815MOL0     C 7508   2.292   3.759   2.955 -0.3629  0.2812  0.6085
  815MOL0     C 7509   2.376   3.797   2.830 -0.2333 -0.0211 -0.7681
  815MOL0     C 7510   2.529   3.781   2.855 -0.6466  0.5026  0.3471
  815MOL0     C 7511   2.600   3.848   2.749  0.1484  0.3549 -1.0790
  815MOL0     C 7512   2.637   3.913   2.653  0.2236  0.4854  0.2781
  815MOL0     C 7513   2.083   4.006   3.050  0.1535 -0.1813 -0.5940
  815MOL0     C 7514   1.973   4.090   3.052 -0.5029 -0.0723 -0.4873
  815MOL0     H 7515   1.462   4.128   3.364  4.4090 -0.7877 -3.0631
  815MOL0     H 7516   1.290   4.282   3.414  0.1056 -1.2573  1.0128
  815MOL0     H 7517   1.422   4.706   3.426 -0.0449 -0.4893  2.0391
  815MOL0     H 7518   1.247   4.746   3.426  0.8171 -0.9013 -0.1921
  815MOL0     H 7519   1.426   4.749   3.189  1.3470  0.9740  1.0060
  815MOL0     H 7520   1.384   4.888   3.271  1.2664 -0.9021  2.6329
  815MOL0     H 7521   1.160   4.693   3.157  0.5457  0.3600  0.7173
  815MOL0     H 7522   1.239   4.811   3.050  0.4325 -1.1861 -0.0342
  815MOL0     H 7523   1.099   4.892   3.307  1.5781 -0.2190  0.2869
  815MOL0     H 7524   1.167   5.004   3.189  0.0131  0.2727 -2.3243
  815MOL0     H 7525   0.944   4.808   3.109 -1.7739  0.5651 -2.2024
  815MOL0     H 7526   0.990   4.942   3.008  0.3441 -2.0449 -0.5566
  815MOL0     H 7527   0.925   5.087   3.234 -0.5147 -0.1598  1.8002
  815MOL0     H 7528   0.866   4.938   3.287 -1.2983  0.5623 -0.6685
  815MOL0     H 7529   0.709   4.905   3.110  0.4809 -1.2029 -1.3715
  815MOL0     H 7530   0.668   5.058   3.195 -1.8600 -2.5513 -1.1197
  815MOL0     H 7531   0.780   5.037   2.929  0.9846  2.5850 -2.3763
  815MOL0     H 7532   0.800   5.179   3.042 -0.5394 -0.5591  0.0040
  815MOL0     H 7533   0.457   4.967   3.026  1.6221 -0.1372  2.3295
  815MOL0     H 7534   0.243   5.058   2.841 -0.2885  0.2017  0.3246
  815MOL0     H 7535   0.194   5.223   2.882  1.0784 -0.0689 -2.4686
  815MOL0     H 7536   0.173   5.137   3.127  2.9844  1.3533 -0.6548
  815MOL0     H 7537   0.198   4.975   3.073 -1.4226 -0.4024 -0.5599
  815MOL0     H 7538  -0.034   5.023   2.919 -0.5220  0.3151  0.4230
  815MOL0     H 7539  -0.035   4.961   3.084  2.6071 -0.8118 -0.0551
  815MOL0     H 7540  -0.022   5.254   3.040  0.8382  0.1738  0.8457
  815MOL0     H 7541  -0.085   5.166   3.180  0.7190 -2.9101  0.3739
  815MOL0     H 7542  -0.159   5.420   3.128  0.7351 -0.6205 -0.5750
  815MOL0     H 7543  -0.338   5.585   3.141 -3.3521  0.8050  0.2389
  815MOL0     H 7544  -0.599   5.833   3.334 -1.6881 -1.7031  0.0584
  815MOL0     H 7545  -0.749   6.027   3.340  2.2816  0.0252  0.3679
  815MOL0     H 7546  -1.019   5.983   3.279  0.2430  1.0638  1.0979
  815MOL0     H 7547  -1.111   6.053   3.154  0.4968 -3.1761  0.0390
  815MOL0     H 7548  -1.113   6.268   3.250  0.6008  2.2039  0.8485
  815MOL0     H 7549  -0.987   6.237   3.372  2.7189 -3.4354 -0.2732
  815MOL0     H 7550  -1.192   6.249   3.462 -0.3523  1.3441 -3.6356
  815MOL0     H 7551  -1.118   6.085   3.492  1.2945  1.4616  1.9540
  815MOL0     H 7552  -1.330   6.140   3.284 -0.7301 -0.8806 -0.0339
  815MOL0     H 7553  -1.271   5.990   3.351  0.6879  0.6389 -0.0457
  815MOL0     H 7554  -1.424   6.224   3.479  0.5161  0.7411 -1.0341
  815MOL0     H 7555  -1.399   6.071   3.572  1.1485  1.5184  0.3580
  815MOL0     H 7556  -1.519   5.943   3.407 -1.0173 -0.0298 -2.8960
  815MOL0     H 7557  -1.540   6.084   3.302 -3.8199 -0.7369 -0.0638
  815MOL0     H 7558  -1.666   6.038   3.579 -2.7331  2.8473  1.5975
  815MOL0     H 7559  -1.683   6.189   3.503  2.6792  0.7545 -3.0584
  815MOL0     H 7560  -1.874   6.033   3.477  1.2426 -0.8092  3.4063
  815MOL0     H 7561  -1.768   5.923   3.377 -2.1149  1.1279 -1.7381
  815MOL0     H 7562  -0.880   5.945   2.938  0.7966  0.0741 -0.6431
  815MOL0     H 7563  -0.723   5.751   2.925  1.0333  0.2255 -0.9848
  815MOL0     H 7564  -0.621   5.289   3.004  0.6911  0.7848 -1.6704
  815MOL0     H 7565  -0.463   5.135   3.001  3.2115  0.4168 -2.2700
  815MOL0     H 7566   1.560   4.601   3.260 -1.2129 -0.7806 -3.3200
  815MOL0     H 7567   1.704   4.422   3.210 -1.2469  0.9048 -1.2648
  815MOL0     H 7568   1.828   3.977   3.337 -2.4326 -0.3369 -1.5520
  815MOL0     H 7569   2.009   3.840   3.342 -1.6161  1.1096  0.4529
  815MOL0     H 7570   2.415   3.793   3.127  1.0626  1.3551  1.6616
  815MOL0     H 7571   2.346   3.940   3.057  2.0261 -1.0938 -0.8744
  815MOL0     H 7572   2.292   3.655   2.989 -4.1845  0.6277  2.2723
  815MOL0     H 7573   2.184   3.763   2.935 -0.5102  0.2003  1.3194
  815MOL0     H 7574   2.349   3.901   2.807  2.9243  0.7300 -1.6904
  815MOL0     H 7575   2.356   3.737   2.740  1.5524 -1.1318 -0.4886
  815MOL0     H 7576   2.561   3.834   2.945 -0.1325 -1.7094  1.5211
  815MOL0     H 7577   2.555   3.675   2.858 -3.3530 -0.3533 -1.7760
  815MOL0     H 7578   2.675   3.962   2.566 -0.2134 -1.8039 -1.2987
  815MOL0     H 7579   2.162   3.996   2.975  1.5122 -2.2243  0.9674
  815MOL0     H 7580   1.951   4.165   2.977  1.9673  1.9274  0.6166
  816MOL0     O 7581  10.310   8.508   9.277  0.3043  0.5424  0.3580
  816MOL0     C 7582  10.351   8.480   9.162 -0.0857  0.2428 -0.2871
  816MOL0     O 7583  10.273   8.439   9.058  0.3194 -0.9809 -0.0282
  816MOL0     C 7584  10.145   8.409   9.081 -0.3888  0.0413  0.0338
  816MOL0     C 7585  10.037   8.499   9.062  0.2163  0.2569 -0.0458
  816MOL0     C 7586   9.906   8.460   9.099 -0.5267  0.9499  0.8317
  816MOL0     C 7587   9.883   8.329   9.143 -0.6879 -0.3995  0.7699
  816MOL0     O 7588   9.760   8.282   9.171  0.4215  0.1953 -0.2383
  816MOL0     C 7589   9.641   8.353   9.105  0.4970  0.3389  0.0412
  816MOL0     C 7590   9.528   8.246   9.065 -0.5005 -0.2421 -0.6957
  816MOL0     C 7591   9.408   8.313   9.004  1.3312  0.1066 -0.3030
  816MOL0     C 7592   9.307   8.207   8.936  0.3979 -0.4636 -0.4901
  816MOL0     C 7593   9.157   8.240   8.903 -0.5114  0.1610 -0.1066
  816MOL0     C 7594   9.070   8.133   8.846 -0.5002 -0.1624  0.3820
  816MOL0     C 7595   9.095   8.115   8.701 -0.3982 -0.3059 -0.2881
  816MOL0     C 7596   9.008   8.015   8.630  0.1096 -0.3942  0.0200
  816MOL0     N 7597   8.867   8.030   8.681 -0.4387 -0.2372  0.4565
  816MOL0     C 7598   8.820   7.944   8.777  0.3099 -0.2973  0.4945
  816MOL0     C 7599   8.689   7.977   8.798 -0.2560 -0.2616  0.7589
  816MOL0     C 7600   8.599   7.915   8.905 -0.0662 -0.6221 -0.1279
  816MOL0     C 7601   8.461   7.883   8.855  0.2375 -0.1149 -0.6772
  816MOL0     C 7602   8.379   7.825   8.967 -0.6430  0.7190  0.5852
  816MOL0     C 7603   8.234   7.801   8.912  1.0062 -0.2126 -0.8183
  816MOL0     O 7604   8.156   7.707   8.986 -0.2427  0.3479  0.1908
  816MOL0     C 7605   8.032   7.661   8.943  0.3149 -0.1928 -0.3317
  816MOL0     C 7606   7.972   7.559   9.021 -0.6072 -0.0297  0.6371
  816MOL0     C 7607   7.832   7.518   9.002 -0.6980  0.1950 -0.5968
  816MOL0     C 7608   7.754   7.588   8.913 -0.3230  1.3739 -0.6377
  816MOL0     C 7609   7.612   7.570   8.903  0.5052  0.4916 -0.5126
  816MOL0     O 7610   7.549   7.667   8.837  0.4707  0.7987  0.0873
  816MOL0     C 7611   7.414   7.667   8.826  0.1103 -0.5529 -0.3413
  816MOL0     C 7612   7.314   7.635   8.919 -0.4940  0.2243 -0.2476
  816MOL0     C 7613   7.180   7.664   8.887 -0.0471  0.3489  0.1450
  816MOL0     C 7614   7.148   7.734   8.770 -0.0519 -0.6867 -0.1936
  816MOL0     O 7615   7.013   7.762   8.737 -0.5528  0.4059  0.1877
  816MOL0     C 7616   6.916   7.812   8.827 -0.6195  0.0305  0.5472
  816MOL0     C 7617   6.816   7.897   8.747  0.3892 -0.6806  0.3252
  816MOL0     C 7618   6.724   7.977   8.841 -1.1888  0.5406  0.7225
  816MOL0     C 7619   6.638   8.075   8.755  0.1893 -0.4436  0.1195
  816MOL0     C 7620   6.573   8.176   8.848  0.1843 -0.0720 -0.2900
  816MOL0     C 7621   6.533   8.299   8.763  0.3900  0.3443 -0.4166
  816MOL0     C 7622   6.454   8.396   8.847 -0.3052 -0.7492 -0.0416
  816MOL0     C 7623   6.401   8.505   8.755 -0.1338  0.6013 -0.4046
  816MOL0    Cl 7624   6.384   8.646   8.860 -0.0584 -0.4901  0.4789
  816MOL0     C 7625   7.245   7.756   8.679 -0.7397 -0.7283 -0.8344
  816MOL0     C 7626   7.375   7.733   8.708  0.5292  0.0305  0.4888
  816MOL0     O 7627   7.555   7.465   8.950  0.2975  0.1714 -0.0651
  816MOL0     C 7628   7.819   7.694   8.843 -0.2801  0.0059  0.1115
  816MOL0     C 7629   7.950   7.725   8.857  0.6793 -0.4889 -0.0187
  816MOL0     N 7630   8.658   8.084   8.710  0.2956  0.4486  0.8561
  816MOL0     N 7631   8.762   8.110   8.641 -0.0747 -0.2375  0.2085
  816MOL0     C 7632   9.991   8.246   9.173  0.1606  0.5118 -1.1166
  816MOL0     C 7633  10.124   8.281   9.144  0.2018 -0.4564  0.1374
  816MOL0     C 7634  10.499   8.495   9.131 -0.3458 -0.4109  0.5977
  816MOL0     C 7635  10.566   8.413   9.042 -0.8547 -0.3199 -0.7861
  816MOL0     C 7636  10.704   8.435   9.019  0.3960 -0.0149 -0.1742
  816MOL0     C 7637  10.771   8.543   9.077  0.1797 -0.5216 -0.0840
  816MOL0     O 7638  10.893   8.580   9.034  0.0028 -0.1029 -0.6276
  816MOL0     C 7639  10.984   8.481   9.018  0.4289  0.3446  0.8411
  816MOL0     C 7640  11.119   8.548   9.044  0.1946 -0.3880  0.3159
  816MOL0     C 7641  11.237   8.449   9.066  0.7181 -0.2038  0.7636
  816MOL0     C 7642  11.368   8.522   9.041 -0.4555 -0.8884 -0.2352
  816MOL0     C 7643  11.417   8.504   8.902  0.2412  0.2234  0.3728
  816MOL0     C 7644  11.463   8.497   8.783 -0.3417  0.4991 -0.2978
  816MOL0     C 7645  10.706   8.625   9.172 -0.6610 -0.5399  0.3198
  816MOL0     C 7646  10.570   8.596   9.198 -0.6426  0.6941  0.2060
  816MOL0     H 7647  10.052   8.601   9.030 -2.4173  0.7154 -0.0684
  816MOL0     H 7648   9.821   8.525   9.083 -1.5774 -0.2771  1.2444
  816MOL0     H 7649   9.663   8.402   9.010 -0.1138 -1.6926 -1.2174
  816MOL0     H 7650   9.602   8.420   9.183  1.7949  0.5942  0.4965
  816MOL0     H 7651   9.502   8.202   9.162  0.9493  0.0123 -0.1799
  816MOL0     H 7652   9.558   8.172   8.990 -0.7737  1.0635 -2.1529
  816MOL0     H 7653   9.430   8.384   8.924  1.1284  0.9058  0.3304
  816MOL0     H 7654   9.352   8.373   9.077  0.5320  1.9548 -2.3393
  816MOL0     H 7655   9.353   8.180   8.841 -0.0679  0.1151 -0.8839
  816MOL0     H 7656   9.313   8.125   9.009 -0.5934  1.5238  1.9759
  816MOL0     H 7657   9.159   8.316   8.824  0.4243 -0.7802 -1.0213
  816MOL0     H 7658   9.096   8.277   8.986 -0.4579  0.2513 -0.1073
  816MOL0     H 7659   8.963   8.154   8.855 -1.7876 -3.9480 -3.1167
  816MOL0     H 7660   9.080   8.039   8.901 -0.0255 -0.8566 -0.8700
  816MOL0     H 7661   9.095   8.206   8.641 -3.2038 -1.2140 -1.8620
  816MOL0     H 7662   9.199   8.083   8.689 -0.1343  0.9784 -1.7267
  816MOL0     H 7663   9.050   7.918   8.659  0.4516 -0.6016 -1.1201
  816MOL0     H 7664   9.016   8.026   8.522  2.1557 -1.1114  0.0706
  816MOL0     H 7665   8.877   7.874   8.837 -1.8179 -1.8234  0.8807
  816MOL0     H 7666   8.577   7.992   8.979  1.2003 -0.6431  0.3099
  816MOL0     H 7667   8.659   7.835   8.952  0.0860  0.2255  1.1671
  816MOL0     H 7668   8.478   7.815   8.770  0.6701 -0.1096 -0.5986
  816MOL0     H 7669   8.401   7.969   8.826 -2.3987 -1.9719 -1.1209
  816MOL0     H 7670   8.428   7.732   8.998 -1.1592  0.2135 -0.0986
  816MOL0     H 7671   8.368   7.893   9.052 -0.3999  1.5372 -0.0326
  816MOL0     H 7672   8.253   7.756   8.814  3.5905  0.0018 -0.4900
  816MOL0     H 7673   8.181   7.897   8.918  0.2804 -0.6797  2.6748
  816MOL0     H 7674   8.032   7.505   9.093 -0.4174  0.6035  0.9550
  816MOL0     H 7675   7.782   7.445   9.065  2.6804 -2.6833 -0.9491
  816MOL0     H 7676   7.333   7.583   9.013 -0.1849 -0.0664 -0.4720
  816MOL0     H 7677   7.100   7.639   8.955 -0.1267 -1.4582 -0.5545
  816MOL0     H 7678   6.968   7.871   8.902 -1.2466  0.2141  0.8489
  816MOL0     H 7679   6.856   7.736   8.878 -0.2968 -1.5427 -1.2900
  816MOL0     H 7680   6.752   7.828   8.691 -0.1910 -0.2539  0.4626
  816MOL0     H 7681   6.872   7.950   8.669  0.3355 -2.0077 -0.6557
  816MOL0     H 7682   6.788   8.034   8.910 -1.5344  0.3295  1.2285
  816MOL0     H 7683   6.658   7.920   8.907 -2.0007 -2.5117 -2.4574
  816MOL0     H 7684   6.708   8.127   8.690 -2.3871  0.7931 -1.8241
  816MOL0     H 7685   6.568   8.007   8.705  0.4075 -2.0038  1.8251
  816MOL0     H 7686   6.655   8.203   8.916 -0.7686 -0.2499  0.9540
  816MOL0     H 7687   6.487   8.139   8.905 -0.2323  1.8083  0.3908
  816MOL0     H 7688   6.467   8.260   8.685 -1.1680  2.0870 -0.0559
  816MOL0     H 7689   6.611   8.353   8.709  0.0502  2.2545  0.8893
  816MOL0     H 7690   6.380   8.370   8.923 -1.7082  1.4643 -0.5642
  816MOL0     H 7691   6.527   8.436   8.918  1.8802 -2.5890 -1.0898
  816MOL0     H 7692   6.298   8.481   8.727 -0.9890 -1.4027  3.6795
  816MOL0     H 7693   6.474   8.525   8.676  1.4828 -0.4284  0.7828
  816MOL0     H 7694   7.229   7.802   8.582  0.5758 -0.1970 -0.8302
  816MOL0     H 7695   7.450   7.763   8.636 -1.3124  0.9048 -1.1594
  816MOL0     H 7696   7.766   7.767   8.783 -1.0093 -0.8885 -0.3647
  816MOL0     H 7697   7.989   7.811   8.803 -0.9389  0.3560  0.1156
  816MOL0     H 7698   9.969   8.150   9.220  1.8348  0.5517 -0.1719
  816MOL0     H 7699  10.196   8.201   9.155  0.5857 -0.5534 -2.4375
  816MOL0     H 7700  10.517   8.331   8.990 -0.4782 -0.9424 -0.1846
  816MOL0     H 7701  10.749   8.374   8.941 -1.8105 -0.5542 -1.0825
  816MOL0     H 7702  10.975   8.446   8.915  1.2788 -1.7062  1.4309
  816MOL0     H 7703  10.967   8.402   9.092  1.4265  0.5003  1.2476
  816MOL0     H 7704  11.142   8.618   8.963 -3.0430  1.2250  0.6044
  816MOL0     H 7705  11.107   8.608   9.135  1.6995  1.7453 -0.8222
  816MOL0     H 7706  11.230   8.360   9.002 -1.5377  0.9147 -0.6504
  816MOL0     H 7707  11.234   8.414   9.170 -2.1992 -1.9304  0.2042
  816MOL0     H 7708  11.376   8.627   9.069  3.6280 -1.4253  1.3732
  816MOL0     H 7709  11.443   8.475   9.106  1.5942  3.7588  1.2048
  816MOL0     H 7710  11.487   8.503   8.678 -1.8460 -1.4444 -0.8138
  816MOL0     H 7711  10.746   8.717   9.214  0.9985  0.4640 -3.1177
  816MOL0     H 7712  10.521   8.665   9.267  2.7622  1.2685  2.2753
  817MOL0     O 7713   3.729   6.823   2.913  0.8410 -0.2796  0.4009
  817MOL0     C 7714   3.666   6.866   2.809 -0.3373  0.8869 -0.7402
  817MOL0     O 7715   3.723   6.921   2.697  0.3040  0.5697  0.0680
  817MOL0     C 7716   3.852   6.939   2.669  0.2795  0.0451 -0.3845
  817MOL0     C 7717   3.962   6.936   2.753  0.4184 -0.0332 -1.1186
  817MOL0     C 7718   4.090   6.934   2.699 -0.0178 -0.7571  0.3290
  817MOL0     C 7719   4.117   6.945   2.566 -0.1296 -0.0303 -0.0084
  817MOL0     O 7720   4.247   6.968   2.518  0.3951 -0.2479 -0.0384
  817MOL0     C 7721   4.349   6.868   2.549  0.0760 -0.4411  0.2731
  817MOL0     C 7722   4.480   6.911   2.496  0.4962 -0.2375 -0.2021
  817MOL0     C 7723   4.593   6.815   2.515 -0.1212  1.1059  0.6520
  817MOL0     C 7724   4.734   6.866   2.464 -0.2071  0.5242 -0.6040
  817MOL0     C 7725   4.854   6.769   2.441  0.7573 -0.6061 -0.3812
  817MOL0     C 7726   4.866   6.662   2.545  0.1345 -0.4471 -0.3297
  817MOL0     C 7727   4.947   6.541   2.496  1.2923  0.9108 -0.0189
  817MOL0     C 7728   4.862   6.457   2.393  0.4579 -0.3090 -0.5670
  817MOL0     N 7729   4.727   6.420   2.434 -0.4802  0.7811 -0.2722
  817MOL0     C 7730   4.693   6.355   2.555 -0.2510  0.9478 -0.5040
  817MOL0     C 7731   4.563   6.331   2.545 -0.1492 -0.1945 -0.6204
  817MOL0     C 7732   4.492   6.255   2.646 -0.0755 -0.2267 -0.6462
  817MOL0     C 7733   4.345   6.296   2.666 -0.0173 -0.0283  0.2243
  817MOL0     C 7734   4.326   6.397   2.778 -0.5681 -0.1399  0.2292
  817MOL0     C 7735   4.197   6.447   2.797  0.2843  0.9401  0.2088
  817MOL0     O 7736   4.174   6.545   2.690 -0.2412 -0.0063 -0.6762
  817MOL0     C 7737   4.050   6.569   2.641  0.4588  0.1148  1.2895
  817MOL0     C 7738   3.939   6.548   2.724  0.6176  0.1628 -0.8271
  817MOL0     C 7739   3.803   6.558   2.672  0.0930 -0.1625 -0.6332
  817MOL0     C 7740   3.790   6.593   2.537  0.2711 -0.4231  0.6117
  817MOL0     C 7741   3.653   6.595   2.476 -0.0152  0.7453  0.3804
  817MOL0     O 7742   3.557   6.620   2.568  0.1586  0.0384 -0.8758
  817MOL0     C 7743   3.428   6.646   2.535 -0.4085  0.3938  0.3135
  817MOL0     C 7744   3.395   6.737   2.436  0.1939  0.1799  0.2419
  817MOL0     C 7745   3.260   6.741   2.406  0.2386 -0.0475  0.0155
  817MOL0     C 7746   3.159   6.671   2.476  0.5907  0.0026 -0.1771
  817MOL0     O 7747   3.028   6.667   2.451 -0.3630 -0.0344  0.2065
  817MOL0     C 7748   2.976   6.742   2.346 -0.4771  0.2178  0.5666
  817MOL0     C 7749   2.834   6.699   2.344 -0.3895 -0.6840 -0.1099
  817MOL0     C 7750   2.745   6.778   2.253 -0.6419 -0.1387  0.7490
  817MOL0     C 7751   2.602   6.721   2.250  0.8682 -0.1719 -0.8243
  817MOL0     C 7752   2.518   6.792   2.151 -0.1678  0.6579 -0.7464
  817MOL0     C 7753   2.380   6.729   2.136  0.0413 -0.1732  0.0321
  817MOL0     C 7754   2.310   6.769   2.012  0.1779 -1.2060  1.0424
  817MOL0     C 7755   2.159   6.778   2.038  0.2925  0.0837  0.2436
  817MOL0    Cl 7756   2.058   6.868   1.909  0.6240  0.2128 -0.5180
  817MOL0     C 7757   3.202   6.590   2.585  1.1369 -0.3051  1.2200
  817MOL0     C 7758   3.342   6.575   2.613  0.5223 -0.6671  0.2788
  817MOL0     O 7759   3.633   6.581   2.357  0.0302 -0.3088  0.8479
  817MOL0     C 7760   3.900   6.614   2.451 -0.1807  0.4494  0.0908
  817MOL0     C 7761   4.033   6.591   2.506  0.5534  0.0533  0.7158
  817MOL0     N 7762   4.519   6.372   2.422  0.1649  0.3330 -0.1158
  817MOL0     N 7763   4.616   6.418   2.361 -1.0332 -0.0947  0.8424
  817MOL0     C 7764   4.009   6.956   2.476 -0.4947  0.5493  1.2917
  817MOL0     C 7765   3.880   6.944   2.529  0.2137  0.2160 -1.1097
  817MOL0     C 7766   3.519   6.862   2.817 -0.1392  0.5069 -0.0363
  817MOL0     C 7767   3.449   6.814   2.932  0.6266  0.7085 -0.3244
  817MOL0     C 7768   3.308   6.812   2.937 -0.2944  0.4282  0.5597
  817MOL0     C 7769   3.232   6.866   2.833  1.1514  0.4842 -0.5001
  817MOL0     O 7770   3.094   6.888   2.859  0.3476 -0.0669 -0.2964
  817MOL0     C 7771   3.008   6.837   2.752 -0.2468 -0.2105 -0.5220
  817MOL0     C 7772   2.862   6.815   2.803 -0.6389 -0.1284 -0.1870
  817MOL0     C 7773   2.760   6.782   2.704  0.6855 -0.1010  0.3470
  817MOL0     C 7774   2.631   6.798   2.773  0.5919  0.9748  0.4061
  817MOL0     C 7775   2.516   6.746   2.688 -0.5940 -0.6563  0.2477
  817MOL0     C 7776   2.432   6.701   2.619 -0.6497  0.0537  1.3536
  817MOL0     C 7777   3.301   6.929   2.723 -0.1844 -0.1974 -0.0178
  817MOL0     C 7778   3.437   6.930   2.721  0.4445  0.0829 -0.8132
  817MOL0     H 7779   3.952   6.934   2.861 -1.6982 -2.2002 -1.2922
  817MOL0     H 7780   4.160   6.919   2.781 -2.3014 -2.3855  2.1450
  817MOL0     H 7781   4.306   6.784   2.492 -2.1798 -0.2105  1.5003
  817MOL0     H 7782   4.347   6.841   2.655 -0.3079  0.6851  0.5624
  817MOL0     H 7783   4.506   7.007   2.542  0.2698 -1.4949  2.7007
  817MOL0     H 7784   4.464   6.930   2.389  0.3756  0.4799 -0.0652
  817MOL0     H 7785   4.574   6.730   2.448  0.2225  0.2739  1.5929
  817MOL0     H 7786   4.605   6.787   2.620  0.3755  3.4363  1.2739
  817MOL0     H 7787   4.737   6.945   2.389  1.0130 -1.7146 -3.1040
  817MOL0     H 7788   4.761   6.925   2.552 -0.6016  0.3964 -0.3940
  817MOL0     H 7789   4.938   6.837   2.455 -1.5075  1.9727  1.9201
  817MOL0     H 7790   4.852   6.726   2.340 -3.8745 -1.1624 -0.2552
  817MOL0     H 7791   4.769   6.640   2.591  0.1560  2.6458  1.5071
  817MOL0     H 7792   4.922   6.700   2.631 -1.3996  0.9788  0.0978
  817MOL0     H 7793   5.048   6.568   2.462  2.2899 -2.1939  0.0890
  817MOL0     H 7794   4.963   6.483   2.588 -2.2628 -1.8422 -0.9231
  817MOL0     H 7795   4.917   6.364   2.373  0.0041 -0.7085  0.0056
  817MOL0     H 7796   4.860   6.513   2.299  0.0704  1.5908  0.5357
  817MOL0     H 7797   4.760   6.341   2.639 -2.0735  0.3437  0.9324
  817MOL0     H 7798   4.541   6.284   2.739 -1.3825 -2.5855  0.8729
  817MOL0     H 7799   4.505   6.149   2.624  0.1977 -0.0427 -1.3984
  817MOL0     H 7800   4.293   6.203   2.690 -1.6029  0.6129 -0.5988
  817MOL0     H 7801   4.292   6.333   2.578 -0.5028  1.1671  0.9993
  817MOL0     H 7802   4.376   6.360   2.867 -1.0375  1.0648  1.0189
  817MOL0     H 7803   4.396   6.480   2.766  0.2903 -0.7562  0.8917
  817MOL0     H 7804   4.180   6.494   2.894  3.5644  1.8213  0.4607
  817MOL0     H 7805   4.122   6.372   2.770 -0.5480  1.2587  1.5042
  817MOL0     H 7806   3.946   6.517   2.828 -2.1335  1.9085 -0.0056
  817MOL0     H 7807   3.718   6.538   2.736 -0.3135 -3.1328 -1.9716
  817MOL0     H 7808   3.477   6.794   2.394  0.6403 -1.9297 -1.9531
  817MOL0     H 7809   3.228   6.802   2.322 -1.8387  2.2608  2.2858
  817MOL0     H 7810   3.018   6.716   2.248 -0.2776  1.8101  0.2093
  817MOL0     H 7811   2.980   6.850   2.364 -2.6886  0.0334  2.6525
  817MOL0     H 7812   2.789   6.697   2.444  0.6937  1.8338  0.5021
  817MOL0     H 7813   2.838   6.596   2.307 -0.4394 -1.7660  2.6550
  817MOL0     H 7814   2.795   6.761   2.157 -3.7584 -1.3504 -0.7826
  817MOL0     H 7815   2.747   6.886   2.273  0.6884 -0.2022  1.0400
  817MOL0     H 7816   2.615   6.618   2.216  1.5172 -0.5547  0.5231
  817MOL0     H 7817   2.562   6.724   2.352  0.3642 -0.0118 -1.0223
  817MOL0     H 7818   2.570   6.775   2.057  0.2901  1.9363 -0.7521
  817MOL0     H 7819   2.519   6.901   2.166  2.3000  0.7800 -1.4140
  817MOL0     H 7820   2.316   6.759   2.219  0.3462  2.0420 -0.4918
  817MOL0     H 7821   2.391   6.620   2.128 -0.0612 -0.4131  2.4060
  817MOL0     H 7822   2.343   6.869   1.982 -3.5441 -0.3515 -0.6769
  817MOL0     H 7823   2.332   6.697   1.933 -0.5383  0.5206 -0.8255
  817MOL0     H 7824   2.126   6.809   2.138 -3.9241  0.6085 -1.1511
  817MOL0     H 7825   2.125   6.674   2.037 -2.3803  0.9073 -0.3321
  817MOL0     H 7826   3.126   6.546   2.649 -2.0464  2.0102 -0.6520
  817MOL0     H 7827   3.368   6.513   2.699  1.8210 -0.0011  0.3946
  817MOL0     H 7828   3.890   6.623   2.344  0.1862 -1.1161 -0.0926
  817MOL0     H 7829   4.115   6.579   2.436 -1.8661 -1.1575 -2.1022
  817MOL0     H 7830   4.022   6.960   2.368 -2.8638  0.6810  0.9645
  817MOL0     H 7831   3.801   6.933   2.455 -0.4826 -2.3172 -0.0978
  817MOL0     H 7832   3.505   6.774   3.016 -0.4945 -0.4687 -0.1045
  817MOL0     H 7833   3.255   6.768   3.020  0.6077 -1.5486  0.1566
  817MOL0     H 7834   3.044   6.738   2.721  3.4109 -0.0084  2.3319
  817MOL0     H 7835   3.017   6.904   2.666 -1.5896 -2.9046 -2.9167
  817MOL0     H 7836   2.863   6.727   2.868  2.2564  0.4471  0.6924
  817MOL0     H 7837   2.829   6.908   2.850 -2.0344  0.2935 -1.8967
  817MOL0     H 7838   2.783   6.682   2.667 -0.7427 -0.7115  1.0400
  817MOL0     H 7839   2.763   6.844   2.614  0.8987 -0.9878 -0.2633
  817MOL0     H 7840   2.628   6.739   2.866  0.6523  1.1863  0.5424
  817MOL0     H 7841   2.606   6.904   2.785 -1.8074  0.6355 -0.9788
  817MOL0     H 7842   2.359   6.655   2.555 -0.4539  0.8363  0.5438
  817MOL0     H 7843   3.243   6.978   2.645  1.6135 -0.2064 -1.4305
  817MOL0     H 7844   3.489   6.990   2.646  2.4108  1.8581  1.7736
  818MOL0     O 7845   7.543   0.505   8.529  0.1295  0.3616 -0.9133
  818MOL0     C 7846   7.592   0.405   8.475  0.1019  0.5721  0.3469
  818MOL0     O 7847   7.517   0.291   8.455 -0.0022  0.5711  0.0875
  818MOL0     C 7848   7.408   0.268   8.532  0.4454 -0.7951  0.2268
  818MOL0     C 7849   7.274   0.295   8.488  0.2949 -0.0753  0.7576
  818MOL0     C 7850   7.168   0.247   8.556  1.0617  0.5012  0.4556
  818MOL0     C 7851   7.188   0.191   8.685 -0.3489  0.5058  0.1209
  818MOL0     O 7852   7.087   0.148   8.763  0.2450 -0.0029 -0.5815
  818MOL0     C 7853   6.993   0.047   8.710 -0.4485  0.0282  0.4492
  818MOL0     C 7854   6.855   0.109   8.740  0.0145 -0.7861 -0.9935
  818MOL0     C 7855   6.744   0.040   8.669  0.0006 -0.2251 -0.7310
  818MOL0     C 7856   6.611   0.124   8.653 -0.3763 -0.1223  0.2395
  818MOL0     C 7857   6.553   0.175   8.784  0.7107 -0.4474  0.0745
  818MOL0     C 7858   6.401   0.172   8.806 -0.2478  0.9507  0.0374
  818MOL0     C 7859   6.349   0.031   8.818 -0.4468 -0.3895 -0.6579
  818MOL0     C 7860   6.193   0.021   8.813  0.1992 -0.2021  0.0980
  818MOL0     N 7861   6.153  -0.116   8.865 -0.2772  0.5133  0.0549
  818MOL0     C 7862   6.046  -0.129   8.948  0.0383  0.2855  0.2543
  818MOL0     C 7863   6.021  -0.263   8.954 -0.3055 -0.0767 -0.4030
  818MOL0     C 7864   5.938  -0.346   9.034  0.5620 -1.0989 -0.0467
  818MOL0     C 7865   5.789  -0.328   8.990  0.1927  0.3469 -0.1514
  818MOL0     C 7866   5.698  -0.418   9.078 -0.6193  0.8107 -0.0700
  818MOL0     C 7867   5.549  -0.444   9.047  0.2681 -0.5138 -0.5933
  818MOL0     O 7868   5.479  -0.330   9.083  0.7007  0.5516 -0.3478
  818MOL0     C 7869   5.343  -0.333   9.076  0.3434  1.3897  0.4364
  818MOL0     C 7870   5.261  -0.401   9.171  0.0406  0.4301  0.0479
  818MOL0     C 7871   5.119  -0.401   9.168 -0.3309 -0.1407  0.5037
  818MOL0     C 7872   5.052  -0.346   9.054 -0.2443  0.4758  0.4921
  818MOL0     C 7873   4.901  -0.354   9.058  0.3710 -0.3450 -0.6140
  818MOL0     O 7874   4.837  -0.410   9.166  0.5609 -0.1184 -0.0580
  818MOL0     C 7875   4.711  -0.446   9.153 -0.0883 -0.0433  0.8502
  818MOL0     C 7876   4.616  -0.379   9.220 -0.2701 -0.3421 -0.1000
  818MOL0     C 7877   4.473  -0.415   9.214 -0.7617 -0.2167 -0.3530
  818MOL0     C 7878   4.433  -0.521   9.130  0.4178  0.2454  0.3571
  818MOL0     O 7879   4.305  -0.574   9.115  0.7188  0.1706 -0.1023
  818MOL0     C 7880   4.215  -0.535   9.222  0.4183  0.6375 -0.0731
  818MOL0     C 7881   4.106  -0.648   9.231 -0.0663 -0.2106  0.4180
  818MOL0     C 7882   4.015  -0.626   9.346  1.2174 -0.7877  0.2606
  818MOL0     C 7883   3.885  -0.716   9.341  0.4803 -0.5151 -0.0298
  818MOL0     C 7884   3.799  -0.702   9.468 -0.5935  0.0312 -1.0135
  818MOL0     C 7885   3.705  -0.818   9.491 -0.1309 -0.1478 -0.3597
  818MOL0     C 7886   3.604  -0.796   9.604  0.8047  0.6969 -0.3925
  818MOL0     C 7887   3.502  -0.679   9.599 -0.0396  0.0263 -0.5783
  818MOL0    Cl 7888   3.436  -0.659   9.438  0.1301  0.0382  0.2537
  818MOL0     C 7889   4.536  -0.577   9.054  0.6665  0.1626  0.2886
  818MOL0     C 7890   4.667  -0.535   9.058 -0.0836 -0.6757  0.3795
  818MOL0     O 7891   4.850  -0.301   8.961  0.2421 -0.1045 -0.0172
  818MOL0     C 7892   5.132  -0.288   8.949  0.3275 -0.6457 -0.3788
  818MOL0     C 7893   5.275  -0.283   8.968  0.5895  0.4832 -0.0875
  818MOL0     N 7894   6.124  -0.319   8.883 -0.2820 -0.0420  0.5680
  818MOL0     N 7895   6.196  -0.238   8.818  0.1228 -0.1049 -0.2302
  818MOL0     C 7896   7.311   0.179   8.743 -0.7383 -0.0968 -0.5102
  818MOL0     C 7897   7.419   0.216   8.663  0.1071  0.1562  0.4648
  818MOL0     C 7898   7.725   0.419   8.422 -0.1629  0.1971  0.0106
  818MOL0     C 7899   7.777   0.543   8.363  0.9087 -0.0237  0.1500
  818MOL0     C 7900   7.894   0.540   8.290  0.2005 -0.1123 -0.0844
  818MOL0     C 7901   7.978   0.429   8.286  1.0443 -0.0933  0.5922
  818MOL0     O 7902   8.095   0.423   8.222 -0.5513 -0.2803 -0.4484
  818MOL0     C 7903   8.142   0.516   8.127  0.5504  0.0140  0.5252
  818MOL0     C 7904   8.075   0.486   7.989 -0.4472 -0.4960 -0.0247
  818MOL0     C 7905   8.130   0.582   7.892  0.0624 -0.3475 -0.2539
  818MOL0     C 7906   8.068   0.550   7.747  0.2057 -0.5782  0.7295
  818MOL0     C 7907   8.134   0.634   7.641  0.0561 -0.0469  0.7598
  818MOL0     C 7908   8.188   0.709   7.559 -0.4726 -0.2046 -0.1346
  818MOL0     C 7909   7.932   0.314   8.349  1.0428 -0.2658  0.3574
  818MOL0     C 7910   7.801   0.307   8.399  0.3525 -0.0598  0.1082
  818MOL0     H 7911   7.261   0.338   8.389  0.4925  2.3990  1.7334
  818MOL0     H 7912   7.070   0.258   8.509  2.1180  0.5874 -1.8681
  818MOL0     H 7913   7.003  -0.055   8.749  0.9376 -1.0792 -2.5213
  818MOL0     H 7914   7.013   0.025   8.605  1.8176 -0.9409  1.0310
  818MOL0     H 7915   6.861   0.206   8.691 -0.1269 -0.7473 -0.9338
  818MOL0     H 7916   6.838   0.110   8.848  0.0193  1.0227 -0.9927
  818MOL0     H 7917   6.724  -0.052   8.724 -1.5497  0.9352  0.7507
  818MOL0     H 7918   6.787   0.019   8.570  3.8131  0.5427  0.5977
  818MOL0     H 7919   6.627   0.212   8.590 -3.2627  1.2403  1.2050
  818MOL0     H 7920   6.542   0.067   8.591 -0.1479  0.1797 -0.2957
  818MOL0     H 7921   6.569   0.281   8.807 -0.6539 -0.4992  1.3837
  818MOL0     H 7922   6.598   0.115   8.863 -2.6571 -0.9725  1.7627
  818MOL0     H 7923   6.357   0.224   8.721 -1.0765  2.0268  1.0975
  818MOL0     H 7924   6.376   0.231   8.894  0.6008  3.1451 -1.1204
  818MOL0     H 7925   6.375  -0.035   8.734 -0.4037  0.4058 -1.2882
  818MOL0     H 7926   6.382  -0.009   8.914  0.0637 -1.7044 -1.3502
  818MOL0     H 7927   6.153   0.048   8.715 -1.2203 -1.4010  0.2990
  818MOL0     H 7928   6.157   0.089   8.892  1.6587  0.3241  0.3370
  818MOL0     H 7929   5.997  -0.051   9.005 -3.2118 -1.2584 -0.2124
  818MOL0     H 7930   5.948  -0.309   9.137 -1.3366 -0.2620 -0.1215
  818MOL0     H 7931   5.973  -0.449   9.029  2.2983 -0.5341 -0.2390
  818MOL0     H 7932   5.785  -0.374   8.891 -2.4044 -4.7341  1.9877
  818MOL0     H 7933   5.751  -0.226   9.000  0.2053  0.1928  1.9647
  818MOL0     H 7934   5.750  -0.514   9.083 -2.3856 -0.4481 -3.0205
  818MOL0     H 7935   5.692  -0.371   9.176 -2.3165  1.6863 -0.5479
  818MOL0     H 7936   5.519  -0.527   9.112 -1.0055 -0.3174 -0.9094
  818MOL0     H 7937   5.540  -0.475   8.943  1.8702 -2.5878 -0.1782
  818MOL0     H 7938   5.314  -0.434   9.260 -0.3824  3.5859  1.5922
  818MOL0     H 7939   5.060  -0.442   9.249 -0.8080 -2.6876 -1.0174
  818MOL0     H 7940   4.663  -0.314   9.293  3.2736 -1.5495 -1.0941
  818MOL0     H 7941   4.402  -0.376   9.286 -1.3625 -3.1910  0.8225
  818MOL0     H 7942   4.165  -0.441   9.197 -2.5753 -1.3712 -2.5119
  818MOL0     H 7943   4.263  -0.529   9.320  0.3348  1.5644 -0.0859
  818MOL0     H 7944   4.161  -0.742   9.240  3.1922  1.6162  1.2232
  818MOL0     H 7945   4.049  -0.652   9.138 -0.1068 -3.1571  0.4856
  818MOL0     H 7946   3.985  -0.522   9.336  1.3434 -0.6484  1.2110
  818MOL0     H 7947   4.057  -0.649   9.444  2.7416  0.7506  0.0063
  818MOL0     H 7948   3.827  -0.681   9.256 -1.6525  0.1343  1.6026
  818MOL0     H 7949   3.902  -0.824   9.340 -0.2392 -0.6315 -0.8902
  818MOL0     H 7950   3.746  -0.608   9.486  0.1690 -0.0705  2.4549
  818MOL0     H 7951   3.866  -0.711   9.554 -0.0067  1.5108 -1.2931
  818MOL0     H 7952   3.758  -0.910   9.516  0.1090  0.5610  1.9844
  818MOL0     H 7953   3.656  -0.824   9.393  0.5498  1.1719 -0.8116
  818MOL0     H 7954   3.544  -0.887   9.615  0.7190  0.8699  0.7237
  818MOL0     H 7955   3.648  -0.776   9.702  0.7178  0.0037 -0.2051
  818MOL0     H 7956   3.558  -0.588   9.619 -1.8112  0.8263  0.9975
  818MOL0     H 7957   3.422  -0.691   9.673 -0.3983  1.7211 -0.6460
  818MOL0     H 7958   4.511  -0.658   8.987  0.8627  0.5276 -0.2338
  818MOL0     H 7959   4.736  -0.580   8.987  0.2644 -0.6343  0.6890
  818MOL0     H 7960   5.087  -0.247   8.860 -0.0512 -1.4382 -0.5630
  818MOL0     H 7961   5.345  -0.235   8.901 -1.5473  3.1627 -0.6158
  818MOL0     H 7962   7.330   0.148   8.846 -1.7993  2.8226  0.6605
  818MOL0     H 7963   7.519   0.212   8.705  0.9981  2.1708 -1.2646
  818MOL0     H 7964   7.715   0.631   8.354  1.5570  0.4329  0.0560
  818MOL0     H 7965   7.924   0.628   8.233 -0.8940  0.1104 -0.3347
  818MOL0     H 7966   8.251   0.512   8.116  0.3516 -0.3086 -1.7682
  818MOL0     H 7967   8.122   0.619   8.159  0.1787  0.0820  0.0821
  818MOL0     H 7968   8.105   0.384   7.963  0.1016 -0.3522  0.0397
  818MOL0     H 7969   7.966   0.499   7.983 -0.0447  4.1574 -0.8232
  818MOL0     H 7970   8.235   0.553   7.895 -0.4172 -2.2134 -0.0038
  818MOL0     H 7971   8.110   0.684   7.928  0.0414 -1.4749  3.3847
  818MOL0     H 7972   8.090   0.444   7.727 -1.1205 -1.1157  1.9159
  818MOL0     H 7973   7.961   0.571   7.747  0.3999  0.4880  1.1067
  818MOL0     H 7974   8.224   0.773   7.481 -1.0664 -1.2400 -1.2878
  818MOL0     H 7975   8.007   0.235   8.351  0.4869 -0.8037  0.2191
  818MOL0     H 7976   7.775   0.204   8.420  2.8545 -1.0422 -1.2676
  819MOL0     O 7977   3.650   9.114   8.593  0.4686 -0.4309  0.1316
  819MOL0     C 7978   3.702   9.012   8.626 -0.3861 -0.2153  0.3263
  819MOL0     O 7979   3.637   8.907   8.677 -0.5723 -0.0783 -0.0059
  819MOL0     C 7980   3.505   8.907   8.693 -0.4843 -0.9831 -0.9866
  819MOL0     C 7981   3.437   9.003   8.764  0.8985 -0.1186 -0.3676
  819MOL0     C 7982   3.298   8.987   8.788 -1.0423 -0.0754  0.1050
  819MOL0     C 7983   3.228   8.880   8.727  0.2136  0.1034  0.3204
  819MOL0     O 7984   3.090   8.870   8.733 -0.5586 -0.4234 -0.3828
  819MOL0     C 7985   3.007   8.977   8.782 -0.0464  0.3070  0.1901
  819MOL0     C 7986   2.861   8.943   8.790  0.2282 -0.9914  0.7601
  819MOL0     C 7987   2.789   9.052   8.874 -0.0689  0.3523 -0.1914
  819MOL0     C 7988   2.635   9.028   8.869 -0.0296 -0.4052 -0.9301
  819MOL0     C 7989   2.562   9.103   8.982 -0.8295  0.4827  0.1218
  819MOL0     C 7990   2.412   9.092   8.969  0.2378  0.7295  0.6422
  819MOL0     C 7991   2.354   9.183   9.077  0.9222 -0.7554  0.3407
  819MOL0     C 7992   2.203   9.162   9.096 -0.0937  0.2953  0.0603
  819MOL0     N 7993   2.178   9.221   9.226  0.9920 -1.2297  0.4800
  819MOL0     C 7994   2.208   9.156   9.344 -0.8336  0.2004  0.4810
  819MOL0     C 7995   2.189   9.246   9.436 -0.0192  0.4018  0.4907
  819MOL0     C 7996   2.207   9.211   9.576  0.6591 -0.1033 -0.7400
  819MOL0     C 7997   2.067   9.190   9.629  0.7559 -0.6766  0.8537
  819MOL0     C 7998   2.023   9.048   9.606 -0.0399  0.6295  0.5400
  819MOL0     C 7999   1.892   9.012   9.693 -0.3637  0.4067  0.9724
  819MOL0     O 8000   1.783   9.058   9.608 -0.4216 -0.3950 -0.4319
  819MOL0     C 8001   1.669   9.033   9.667  0.4500  0.0742  0.8992
  819MOL0     C 8002   1.615   9.095   9.769 -0.7987  0.7077  0.3931
  819MOL0     C 8003   1.490   9.057   9.822 -0.0890  0.1903  0.0758
  819MOL0     C 8004   1.405   8.971   9.753 -0.1558  0.9399  0.3251
  819MOL0     C 8005   1.268   8.937   9.789  0.8467 -0.3872  0.3748
  819MOL0     O 8006   1.233   8.956   9.917  0.0274  0.3036  0.0170
  819MOL0     C 8007   1.098   8.945   9.950 -0.1251  0.4032 -0.5119
  819MOL0     C 8008   1.052   8.834  10.017  1.3393 -0.0146 -0.0443
  819MOL0     C 8009   0.904   8.825  10.030 -0.5135 -1.2301  0.7064
  819MOL0     C 8010   0.817   8.917   9.978  0.0031 -0.1386  0.7920
  819MOL0     O 8011   0.688   8.883  10.004  0.0104 -0.5431 -0.1469
  819MOL0     C 8012   0.585   8.987  10.011  0.6022 -0.5168  0.5154
  819MOL0     C 8013   0.463   8.924  10.084 -0.1526  0.3754 -0.6337
  819MOL0     C 8014   0.320   9.002  10.081 -0.3895 -1.5948 -0.1799
  819MOL0     C 8015   0.209   8.927  10.151  0.3477  0.6179 -0.0810
  819MOL0     C 8016   0.095   9.019  10.191 -0.2754  0.0257  0.2804
  819MOL0     C 8017  -0.017   8.943  10.257  0.5995  0.1788  0.7088
  819MOL0     C 8018  -0.137   9.031  10.271  0.7058 -0.5581 -0.0959
  819MOL0     C 8019  -0.260   8.940  10.296  0.0039 -0.3893 -0.1508
  819MOL0    Cl 8020  -0.432   9.013  10.279  0.0115  0.4455  0.1572
  819MOL0     C 8021   0.865   9.022   9.903 -0.8189  0.0301  0.5656
  819MOL0     C 8022   1.007   9.035   9.893 -0.1676  0.6326  0.1175
  819MOL0     O 8023   1.197   8.909   9.696  0.1553 -0.6290  0.1992
  819MOL0     C 8024   1.465   8.898   9.654  0.4671 -0.0504  0.0184
  819MOL0     C 8025   1.596   8.922   9.611 -1.1468 -0.7626  0.4980
  819MOL0     N 8026   2.152   9.368   9.377 -0.1700  0.2787  0.2051
  819MOL0     N 8027   2.150   9.352   9.252  0.8985  0.4399 -0.8436
  819MOL0     C 8028   3.295   8.787   8.648 -0.5148 -0.2870  0.3494
  819MOL0     C 8029   3.433   8.800   8.646 -0.4349 -0.6634  0.8976
  819MOL0     C 8030   3.849   8.989   8.603  0.3359  0.1080  0.4799
  819MOL0     C 8031   3.935   9.082   8.534  0.2249  0.0323  1.3124
  819MOL0     C 8032   4.061   9.048   8.499  0.4379  0.6503  0.0887
  819MOL0     C 8033   4.124   8.933   8.540  0.8765 -0.3732 -1.1211
  819MOL0     O 8034   4.258   8.917   8.505 -0.2796  0.4108  0.1599
  819MOL0     C 8035   4.320   8.793   8.533 -0.2200  0.4994 -0.4958
  819MOL0     C 8036   4.474   8.806   8.544 -0.0213 -0.4333 -0.5487
  819MOL0     C 8037   4.540   8.854   8.416  0.0541  0.3759 -0.7505
  819MOL0     C 8038   4.556   9.012   8.419  0.4885 -0.3345  0.3775
  819MOL0     C 8039   4.603   9.075   8.298  0.2132  0.6972 -0.1118
  819MOL0     C 8040   4.630   9.142   8.200 -1.0437 -0.5609  0.3580
  819MOL0     C 8041   4.048   8.845   8.604  1.0696  0.3030  0.2729
  819MOL0     C 8042   3.909   8.866   8.632  0.1491 -0.1959  0.5264
  819MOL0     H 8043   3.483   9.092   8.804 -0.9170  0.4875  0.5159
  819MOL0     H 8044   3.248   9.058   8.854 -0.2492 -0.3667  1.0486
  819MOL0     H 8045   3.039   9.057   8.715 -1.2621 -1.0130 -2.0652
  819MOL0     H 8046   3.033   9.006   8.885  0.8481 -1.0196  0.3586
  819MOL0     H 8047   2.852   8.839   8.824  1.8991 -1.4612 -0.0951
  819MOL0     H 8048   2.826   8.949   8.686  0.2558  3.0841  0.8352
  819MOL0     H 8049   2.807   9.155   8.841  2.0257 -0.4185 -1.6213
  819MOL0     H 8050   2.820   9.044   8.979 -0.3896 -0.2563 -0.1394
  819MOL0     H 8051   2.604   9.064   8.771 -1.6128 -3.4199 -1.6596
  819MOL0     H 8052   2.603   8.924   8.873  0.7529 -0.6188  0.3131
  819MOL0     H 8053   2.584   9.210   8.971 -0.1008  0.1696 -1.8253
  819MOL0     H 8054   2.595   9.074   9.083 -0.1062  2.3311  0.4586
  819MOL0     H 8055   2.380   8.988   8.985 -1.7010  1.6508  3.3893
  819MOL0     H 8056   2.373   9.128   8.873 -0.1881  0.9243  0.8874
  819MOL0     H 8057   2.406   9.158   9.170 -1.1881  0.0811  1.8204
  819MOL0     H 8058   2.370   9.289   9.055  1.1206 -0.7937  0.2910
  819MOL0     H 8059   2.181   9.055   9.094 -0.0046  0.1081  3.7194
  819MOL0     H 8060   2.156   9.214   9.012  2.2644 -2.9691 -3.6592
  819MOL0     H 8061   2.251   9.058   9.363 -1.7797 -0.2670  0.2831
  819MOL0     H 8062   2.254   9.294   9.630 -0.9389  0.3118  0.0883
  819MOL0     H 8063   2.271   9.126   9.601  0.2801  0.2587  1.7872
  819MOL0     H 8064   1.993   9.256   9.584 -0.5823 -2.2014  0.7341
  819MOL0     H 8065   2.059   9.213   9.736 -3.6430  1.0557  0.3227
  819MOL0     H 8066   2.004   9.013   9.504 -1.0123 -0.8841  1.1942
  819MOL0     H 8067   2.099   8.976   9.638 -0.2546 -1.2743 -2.7169
  819MOL0     H 8068   1.887   9.068   9.786 -2.4696  2.2723 -0.1595
  819MOL0     H 8069   1.901   8.904   9.705 -0.3552  0.0877 -1.3739
  819MOL0     H 8070   1.687   9.166   9.809 -0.3670 -1.2434  3.4386
  819MOL0     H 8071   1.463   9.111   9.912 -0.3098 -0.1171  0.1978
  819MOL0     H 8072   1.123   8.757  10.045 -1.1689 -3.6654 -2.8083
  819MOL0     H 8073   0.856   8.736  10.068 -2.8843 -1.6467 -2.8317
  819MOL0     H 8074   0.553   9.020   9.912  0.0948 -0.2050  0.7787
  819MOL0     H 8075   0.610   9.077  10.068 -2.3941 -0.3462  1.7530
  819MOL0     H 8076   0.488   8.912  10.190  0.0155 -0.8450 -0.7949
  819MOL0     H 8077   0.442   8.823  10.047 -0.4993 -0.0431  0.6492
  819MOL0     H 8078   0.300   9.014   9.974  3.2566 -0.7574 -0.9192
  819MOL0     H 8079   0.316   9.104  10.121  1.1172 -1.0043 -1.4136
  819MOL0     H 8080   0.181   8.844  10.086  0.0987  0.9127 -0.3526
  819MOL0     H 8081   0.253   8.877  10.238  0.7350 -2.6306 -1.9919
  819MOL0     H 8082   0.053   9.051  10.095 -0.9887 -2.1261 -0.1872
  819MOL0     H 8083   0.136   9.096  10.256 -0.5832 -0.5747  1.2071
  819MOL0     H 8084   0.018   8.909  10.355  0.8391 -0.8245  0.2949
  819MOL0     H 8085  -0.037   8.860  10.189 -0.1954  1.6816 -0.9658
  819MOL0     H 8086  -0.130   9.097  10.358  0.4081 -2.0745  1.1303
  819MOL0     H 8087  -0.154   9.089  10.180  0.5527 -3.6231 -2.1683
  819MOL0     H 8088  -0.253   8.914  10.402 -1.4979  0.3666  0.1654
  819MOL0     H 8089  -0.260   8.846  10.239 -0.8299 -0.6932  0.3237
  819MOL0     H 8090   0.813   9.094   9.841 -0.5078  0.6539  1.0132
  819MOL0     H 8091   1.043   9.114   9.829 -1.2092  1.7964  0.9261
  819MOL0     H 8092   1.416   8.815   9.603  0.9610  0.5500 -1.4889
  819MOL0     H 8093   1.632   8.870   9.523  3.3540  2.6515 -0.0067
  819MOL0     H 8094   3.233   8.704   8.615 -1.4763 -0.0917  1.5882
  819MOL0     H 8095   3.502   8.729   8.601  0.9828  0.0525  1.8905
  819MOL0     H 8096   3.882   9.171   8.501 -1.3164 -1.0420  0.8218
  819MOL0     H 8097   4.129   9.117   8.451 -1.0196  0.3301 -2.6606
  819MOL0     H 8098   4.307   8.716   8.457 -1.7579 -2.6412  2.6799
  819MOL0     H 8099   4.294   8.760   8.634  2.3401  1.5127  0.5986
  819MOL0     H 8100   4.495   8.879   8.623  0.3860 -3.3234  2.2197
  819MOL0     H 8101   4.519   8.713   8.579 -1.7965 -1.6670 -1.4166
  819MOL0     H 8102   4.487   8.823   8.326 -1.4089 -0.7789  0.4590
  819MOL0     H 8103   4.640   8.808   8.416  1.1627  2.1761  3.5643
  819MOL0     H 8104   4.458   9.053   8.446  0.6301 -2.0334  4.0966
  819MOL0     H 8105   4.632   9.027   8.496 -0.9572 -1.6461  2.1389
  819MOL0     H 8106   4.635   9.186   8.103  0.3381  1.2870  1.2060
  819MOL0     H 8107   4.080   8.741   8.607 -1.5134 -0.6453 -1.4960
  819MOL0     H 8108   3.847   8.787   8.672 -1.9638 -0.6999 -3.3238
  820MOL0     O 8109   5.956   7.614   9.634  0.1442  0.4009 -0.2564
  820MOL0     C 8110   6.018   7.610   9.533 -0.8739 -0.0407  0.1885
  820MOL0     O 8111   5.985   7.670   9.417  0.4290 -0.4427  0.6094
  820MOL0     C 8112   5.856   7.733   9.412 -0.8037 -0.4302 -0.2120
  820MOL0     C 8113   5.782   7.710   9.299  0.6382 -0.9539 -0.1694
  820MOL0     C 8114   5.664   7.788   9.277 -0.0896 -0.8678 -0.0194
  820MOL0     C 8115   5.621   7.884   9.370  0.5951  0.4746 -1.0061
  820MOL0     O 8116   5.518   7.966   9.370  0.5219  0.4537  0.4596
  820MOL0     C 8117   5.431   7.954   9.255  0.0778 -0.1366 -0.8513
  820MOL0     C 8118   5.323   8.060   9.269 -0.3865  0.0942 -0.5899
  820MOL0     C 8119   5.212   8.010   9.358  0.9495 -0.2049  0.6223
  820MOL0     C 8120   5.113   8.123   9.404 -0.1065 -0.2225 -0.3232
  820MOL0     C 8121   5.017   8.162   9.289 -0.0549 -0.5945  0.0389
  820MOL0     C 8122   4.914   8.262   9.331  0.0201  0.5140 -0.2394
  820MOL0     C 8123   4.792   8.201   9.397 -0.1918  0.4623  0.2436
  820MOL0     C 8124   4.672   8.299   9.396  0.8880 -0.1764  0.7738
  820MOL0     N 8125   4.544   8.239   9.442 -0.2882 -0.2815  0.1442
  820MOL0     C 8126   4.524   8.178   9.564  0.1168 -0.9744  0.3312
  820MOL0     C 8127   4.387   8.195   9.581 -0.0751  0.2161  0.0432
  820MOL0     C 8128   4.310   8.158   9.709  0.4673  0.4778 -0.5495
  820MOL0     C 8129   4.156   8.188   9.708  0.3946 -0.6154 -0.0857
  820MOL0     C 8130   4.088   8.099   9.817 -0.0440 -0.3325  0.1661
  820MOL0     C 8131   3.936   8.095   9.810 -0.4811 -0.2153 -0.1606
  820MOL0     O 8132   3.883   8.031   9.927 -0.6190  0.3821  0.8008
  820MOL0     C 8133   3.757   8.063   9.974  0.4491 -1.0982 -0.8287
  820MOL0     C 8134   3.663   8.137   9.910  0.3986 -0.3657  0.3210
  820MOL0     C 8135   3.536   8.161   9.960 -0.3963 -0.1320  0.7625
  820MOL0     C 8136   3.526   8.142  10.104  0.9988 -0.2608 -1.1124
  820MOL0     C 8137   3.399   8.197  10.174  0.5932  0.4245 -0.4221
  820MOL0     O 8138   3.304   8.254  10.093  0.2996 -0.3734 -0.0555
  820MOL0     C 8139   3.180   8.292  10.129  0.0643 -0.6216 -0.8290
  820MOL0     C 8140   3.108   8.231  10.229  0.1912 -0.7501 -0.1127
  820MOL0     C 8141   2.974   8.254  10.250 -0.6083  0.2422  0.0872
  820MOL0     C 8142   2.913   8.352  10.172 -0.4259 -0.5298  0.6942
  820MOL0     O 8143   2.776   8.386  10.194 -0.1849 -0.3399  0.3682
  820MOL0     C 8144   2.745   8.524  10.216  0.0831  0.8602 -0.3493
  820MOL0     C 8145   2.603   8.536  10.250  0.4978 -0.2856  0.7241
  820MOL0     C 8146   2.568   8.678  10.300 -0.9481 -0.5497  0.4403
  820MOL0     C 8147   2.421   8.701  10.341  0.0620 -0.0899  0.1966
  820MOL0     C 8148   2.317   8.686  10.224  0.1594 -0.8077  0.8781
  820MOL0     C 8149   2.237   8.555  10.228 -0.0565 -0.0309  0.2737
  820MOL0     C 8150   2.119   8.551  10.331 -0.0295 -0.3986 -0.3728
  820MOL0     C 8151   2.040   8.422  10.313  0.2060  0.5570 -0.2118
  820MOL0    Cl 8152   1.907   8.417  10.421 -0.2031  0.2342  0.3528
  820MOL0     C 8153   2.982   8.423  10.079  0.0664 -0.3021 -0.1947
  820MOL0     C 8154   3.114   8.392  10.051 -0.0028  0.2658  0.8561
  820MOL0     O 8155   3.394   8.194  10.298  0.3142  0.0033  0.0364
  820MOL0     C 8156   3.626   8.072  10.175 -0.3015 -0.9537 -0.6852
  820MOL0     C 8157   3.737   8.026  10.105 -0.0674 -0.9077 -0.3658
  820MOL0     N 8158   4.334   8.263   9.472  0.3641  0.2468  0.1653
  820MOL0     N 8159   4.430   8.283   9.389 -0.6548 -0.0803  0.0547
  820MOL0     C 8160   5.700   7.896   9.485 -0.2839  0.0095  0.4954
  820MOL0     C 8161   5.812   7.825   9.506 -0.4699  0.6957  0.6601
  820MOL0     C 8162   6.154   7.569   9.543  0.0611 -0.7654 -1.3225
  820MOL0     C 8163   6.210   7.546   9.675  0.1393  0.2757 -0.7183
  820MOL0     C 8164   6.329   7.477   9.693  0.6803  0.4151  0.8297
  820MOL0     C 8165   6.419   7.462   9.588 -0.3782  0.2382  0.7139
  820MOL0     O 8166   6.540   7.395   9.579 -0.2514  0.2936  1.0717
  820MOL0     C 8167   6.574   7.313   9.688 -0.0608  0.0041  0.6213
  820MOL0     C 8168   6.713   7.246   9.652 -0.2913  0.3015  0.0550
  820MOL0     C 8169   6.827   7.341   9.658  0.0980 -1.0250  0.1886
  820MOL0     C 8170   6.880   7.391   9.523 -0.4082  0.7274  0.0005
  820MOL0     C 8171   6.954   7.513   9.542 -0.3727 -0.0663 -0.1456
  820MOL0     C 8172   7.017   7.617   9.558  0.6760 -0.0738  0.3956
  820MOL0     C 8173   6.372   7.508   9.465  0.9982 -0.2114 -0.4727
  820MOL0     C 8174   6.244   7.558   9.433 -0.3311 -0.5968  0.6029
  820MOL0     H 8175   5.821   7.648   9.219  4.0682  0.5949  0.1497
  820MOL0     H 8176   5.616   7.771   9.181  5.2893 -2.8436 -2.8161
  820MOL0     H 8177   5.376   7.860   9.245 -0.3679  0.2569 -2.4117
  820MOL0     H 8178   5.493   7.979   9.169  1.0525 -1.9611 -0.7383
  820MOL0     H 8179   5.271   8.088   9.177 -1.2876  0.8728  0.1316
  820MOL0     H 8180   5.369   8.150   9.311  1.7905 -0.4208 -1.7240
  820MOL0     H 8181   5.261   7.961   9.443  1.4338 -0.9018 -0.0472
  820MOL0     H 8182   5.158   7.933   9.302  2.4540 -0.8085 -0.0424
  820MOL0     H 8183   5.052   8.078   9.483  0.2326 -0.1555 -0.0208
  820MOL0     H 8184   5.158   8.211   9.451  0.7316  0.2803 -1.9964
  820MOL0     H 8185   4.972   8.075   9.241 -1.3969  1.0081 -1.7771
  820MOL0     H 8186   5.081   8.217   9.219  0.5442 -0.8560  0.3674
  820MOL0     H 8187   4.890   8.302   9.232  0.5614 -1.0361 -1.0288
  820MOL0     H 8188   4.957   8.335   9.400 -0.8134 -0.2544  1.1528
  820MOL0     H 8189   4.756   8.110   9.347 -0.7217  0.9332 -0.2375
  820MOL0     H 8190   4.809   8.185   9.504 -0.0743 -1.6626 -0.0384
  820MOL0     H 8191   4.659   8.334   9.294  4.8759  0.5292  0.3285
  820MOL0     H 8192   4.697   8.381   9.464  0.1042 -1.9371  3.3759
  820MOL0     H 8193   4.599   8.133   9.627  2.0661  1.1247 -0.3471
  820MOL0     H 8194   4.360   8.199   9.796  1.8355  0.7519 -1.4350
  820MOL0     H 8195   4.313   8.050   9.724 -0.6484  0.6391  1.1749
  820MOL0     H 8196   4.115   8.161   9.610 -6.0116  0.2751  1.8882
  820MOL0     H 8197   4.142   8.297   9.707 -1.5101 -0.8220 -0.6306
  820MOL0     H 8198   4.126   7.996   9.815 -0.9411 -0.6604 -0.6457
  820MOL0     H 8199   4.124   8.133   9.915 -0.0241  0.2096 -0.0275
  820MOL0     H 8200   3.901   8.032   9.728  1.4674 -2.0099  0.2819
  820MOL0     H 8201   3.901   8.198   9.803 -1.8658 -0.4216  2.4929
  820MOL0     H 8202   3.666   8.163   9.805 -3.8906 -2.1748 -0.4324
  820MOL0     H 8203   3.451   8.206   9.911  0.4201  0.4704 -0.1264
  820MOL0     H 8204   3.148   8.151  10.291 -2.9818 -2.0937  0.3718
  820MOL0     H 8205   2.910   8.200  10.319 -1.4048 -1.7353 -2.0672
  820MOL0     H 8206   2.767   8.581  10.125  0.6967  0.2869 -0.5696
  820MOL0     H 8207   2.807   8.562  10.298 -0.0113  0.8216 -0.2611
  820MOL0     H 8208   2.578   8.459  10.324 -3.5021  1.5797  1.5918
  820MOL0     H 8209   2.540   8.511  10.164  1.8676 -2.5839  0.3056
  820MOL0     H 8210   2.588   8.749  10.219  1.7127  0.2059  1.6515
  820MOL0     H 8211   2.628   8.700  10.388 -0.5056  0.1347 -0.0127
  820MOL0     H 8212   2.402   8.636  10.427 -2.3244 -0.4742 -0.5239
  820MOL0     H 8213   2.428   8.801  10.384  2.7001  0.9290 -2.3049
  820MOL0     H 8214   2.364   8.689  10.125 -0.2355  0.7593  0.7070
  820MOL0     H 8215   2.251   8.773  10.226 -0.5762 -1.3649  1.2260
  820MOL0     H 8216   2.300   8.468  10.248 -0.2553  0.1770  1.9520
  820MOL0     H 8217   2.185   8.546  10.132 -1.6520 -0.3359  1.1261
  820MOL0     H 8218   2.159   8.558  10.433  1.4434  2.2276 -1.0324
  820MOL0     H 8219   2.050   8.635  10.318  0.4956  0.3996  1.6994
  820MOL0     H 8220   2.101   8.334  10.335  0.1171  0.6699  0.5169
  820MOL0     H 8221   2.009   8.415  10.208  2.9921 -0.3497 -1.0668
  820MOL0     H 8222   2.916   8.486  10.020 -0.2894  0.2514  0.7655
  820MOL0     H 8223   3.160   8.445   9.968  1.4219 -1.6877  0.3317
  820MOL0     H 8224   3.623   8.045  10.280  2.6902 -1.9196 -0.7374
  820MOL0     H 8225   3.808   7.967  10.162 -1.3864 -2.0949  0.1094
  820MOL0     H 8226   5.687   7.978   9.555 -0.6807 -1.3613  2.0884
  820MOL0     H 8227   5.880   7.839   9.590  0.1960 -0.0382  0.2588
  820MOL0     H 8228   6.141   7.563   9.757  1.4336 -1.4752  0.8098
  820MOL0     H 8229   6.331   7.436   9.793 -1.9258 -3.1935 -0.3531
  820MOL0     H 8230   6.491   7.241   9.693 -1.3448  1.4261  0.6764
  820MOL0     H 8231   6.583   7.364   9.784 -1.6055 -3.5958  2.8867
  820MOL0     H 8232   6.731   7.171   9.730  0.8255 -0.0868 -0.5539
  820MOL0     H 8233   6.713   7.197   9.554  2.7777 -1.6609  0.9082
  820MOL0     H 8234   6.905   7.291   9.717 -1.1880 -3.6032 -0.1556
  820MOL0     H 8235   6.801   7.431   9.715  3.5664  0.1186  0.2411
  820MOL0     H 8236   6.945   7.315   9.480 -2.4715 -1.6978  0.8832
  820MOL0     H 8237   6.797   7.405   9.453  0.3443 -0.1471 -1.0794
  820MOL0     H 8238   7.094   7.685   9.587 -0.2554  0.1594  2.4419
  820MOL0     H 8239   6.441   7.494   9.382  0.7566 -1.4735 -0.4823
  820MOL0     H 8240   6.211   7.576   9.331 -1.1572 -2.5434  0.4832
  821MOL0     O 8241   7.677   8.568   6.846  0.1112  0.2546  0.2756
  821MOL0     C 8242   7.731   8.563   6.731  0.7231  0.2321  0.0650
  821MOL0     O 8243   7.675   8.505   6.619  0.8841  0.1902  0.2317
  821MOL0     C 8244   7.543   8.489   6.636  0.6102  0.1711 -0.1352
  821MOL0     C 8245   7.449   8.588   6.612  0.0358 -0.2121  0.0546
  821MOL0     C 8246   7.313   8.566   6.632  0.6536  0.1295 -0.7785
  821MOL0     C 8247   7.263   8.433   6.666  0.3782  0.3043 -0.5922
  821MOL0     O 8248   7.127   8.389   6.677  0.0877 -0.1718 -0.6222
  821MOL0     C 8249   7.022   8.482   6.650 -0.1431  0.5791 -0.6093
  821MOL0     C 8250   6.886   8.408   6.647 -0.5222  0.6743  0.7464
  821MOL0     C 8251   6.778   8.507   6.704  0.3619 -0.5877 -0.1933
  821MOL0     C 8252   6.786   8.656   6.642  0.1275  0.0806 -0.3721
  821MOL0     C 8253   6.677   8.734   6.701  0.2096 -0.1431 -0.0354
  821MOL0     C 8254   6.669   8.872   6.645 -0.2043 -0.2772 -0.5633
  821MOL0     C 8255   6.539   8.936   6.706 -0.1075 -1.5816  0.0919
  821MOL0     C 8256   6.558   9.084   6.732 -1.1524  0.3203  0.3356
  821MOL0     N 8257   6.603   9.153   6.605  0.0537  0.6013  0.6677
  821MOL0     C 8258   6.533   9.169   6.491  0.6794 -0.1801 -0.4582
  821MOL0     C 8259   6.614   9.221   6.394 -0.1674  0.1283 -0.0243
  821MOL0     C 8260   6.589   9.272   6.261  0.2965 -0.6055 -0.9211
  821MOL0     C 8261   6.475   9.381   6.248  0.2711  0.5321 -0.8160
  821MOL0     C 8262   6.515   9.504   6.328 -0.3739  0.1411 -0.2873
  821MOL0     C 8263   6.402   9.602   6.344  0.3011  0.1485 -0.3009
  821MOL0     O 8264   6.285   9.521   6.357 -0.1764 -0.0044 -0.0639
  821MOL0     C 8265   6.168   9.579   6.384 -0.1061  0.2234 -0.2509
  821MOL0     C 8266   6.061   9.497   6.430 -0.4196  0.0044 -0.2497
  821MOL0     C 8267   5.932   9.541   6.442  0.5279  0.7562  0.6604
  821MOL0     C 8268   5.897   9.674   6.410 -0.4228  1.0210  1.3581
  821MOL0     C 8269   5.757   9.717   6.420  0.6851 -0.6983 -1.0368
  821MOL0     O 8270   5.730   9.836   6.352  0.5324  0.2404 -0.4607
  821MOL0     C 8271   5.609   9.891   6.365 -0.1179  0.3426 -0.3286
  821MOL0     C 8272   5.516   9.881   6.472 -0.1058 -0.2380 -0.3189
  821MOL0     C 8273   5.398   9.954   6.465 -0.0953 -0.7365  0.7771
  821MOL0     C 8274   5.369  10.050   6.362 -0.1502 -0.0535  1.0685
  821MOL0     O 8275   5.248  10.117   6.375  0.4045  0.3747 -0.0442
  821MOL0     C 8276   5.143  10.063   6.291 -0.7878 -0.5128 -0.5121
  821MOL0     C 8277   5.005  10.083   6.361 -0.9419 -0.0155 -0.4474
  821MOL0     C 8278   4.887  10.027   6.272  0.1322 -0.3229  0.2286
  821MOL0     C 8279   4.755  10.054   6.352 -0.0184 -0.2184  0.4922
  821MOL0     C 8280   4.625  10.006   6.297  0.1442 -0.7559 -0.5544
  821MOL0     C 8281   4.632   9.856   6.266 -0.2306 -0.1708  0.6746
  821MOL0     C 8282   4.492   9.798   6.258 -0.9703 -0.0231 -0.2679
  821MOL0     C 8283   4.502   9.646   6.224  1.0602  0.4001 -0.4033
  821MOL0    Cl 8284   4.341   9.562   6.220  0.1186 -0.2805  0.4341
  821MOL0     C 8285   5.460  10.058   6.259 -0.0529 -0.4374 -0.2852
  821MOL0     C 8286   5.579   9.983   6.257  0.4702  0.2274  0.1227
  821MOL0     O 8287   5.684   9.651   6.494  0.1935 -0.3045  0.4050
  821MOL0     C 8288   6.010   9.761   6.374 -0.7384 -0.5310  0.0053
  821MOL0     C 8289   6.138   9.707   6.349  0.3993  0.2038 -0.4584
  821MOL0     N 8290   6.741   9.230   6.447  0.2784  0.6062  0.1544
  821MOL0     N 8291   6.733   9.188   6.571 -0.5970 -0.0967 -0.2908
  821MOL0     C 8292   7.355   8.338   6.701 -0.6593  1.0056  0.7582
  821MOL0     C 8293   7.495   8.362   6.677 -1.4051 -0.3634  0.6472
  821MOL0     C 8294   7.863   8.637   6.710 -0.0425  0.2114 -0.1128
  821MOL0     C 8295   7.959   8.661   6.813 -1.2536 -0.6569  0.3389
  821MOL0     C 8296   8.099   8.687   6.788  0.7603  0.4915  1.2263
  821MOL0     C 8297   8.133   8.706   6.647  0.0536  0.2870  0.0912
  821MOL0     O 8298   8.266   8.727   6.601  0.0353  0.3030 -0.1079
  821MOL0     C 8299   8.316   8.618   6.520 -0.3024  0.0059  0.1319
  821MOL0     C 8300   8.443   8.655   6.444  0.0991 -0.2193 -0.7201
  821MOL0     C 8301   8.421   8.765   6.341 -0.3848  0.6999 -0.1930
  821MOL0     C 8302   8.381   8.729   6.197 -0.2311 -0.6938 -0.2833
  821MOL0     C 8303   8.241   8.696   6.177  1.4912  0.3028 -0.4381
  821MOL0     C 8304   8.122   8.672   6.170 -0.5574  0.7813  0.7910
  821MOL0     C 8305   8.027   8.682   6.551  0.2620  0.3920  0.1343
  821MOL0     C 8306   7.898   8.655   6.582 -0.2154 -0.2658 -0.4030
  821MOL0     H 8307   7.489   8.682   6.575  3.4318 -2.0889 -1.5156
  821MOL0     H 8308   7.239   8.644   6.627 -0.1312 -0.6082 -0.8758
  821MOL0     H 8309   7.034   8.521   6.549  2.0552 -0.7313 -0.9283
  821MOL0     H 8310   7.029   8.559   6.728  1.8017 -1.6420  1.5931
  821MOL0     H 8311   6.883   8.313   6.701  0.9788  1.6671  2.7475
  821MOL0     H 8312   6.858   8.388   6.543 -0.5598  0.9084  0.7103
  821MOL0     H 8313   6.791   8.518   6.812  2.3033  0.9645 -0.5402
  821MOL0     H 8314   6.683   8.457   6.679  0.4147 -2.0448  2.1920
  821MOL0     H 8315   6.883   8.703   6.660  0.2062  0.1513 -0.9541
  821MOL0     H 8316   6.779   8.646   6.533 -0.5603  1.7177 -0.5110
  821MOL0     H 8317   6.696   8.742   6.809 -0.4382  0.9543  0.0166
  821MOL0     H 8318   6.582   8.680   6.693  0.8122 -1.3238  0.4902
  821MOL0     H 8319   6.660   8.871   6.536  2.2287  1.4197 -0.8456
  821MOL0     H 8320   6.758   8.933   6.662  0.0005 -1.0862  1.5402
  821MOL0     H 8321   6.457   8.921   6.637  1.1491 -1.3308 -1.5101
  821MOL0     H 8322   6.516   8.896   6.805  3.2950 -0.4968  1.4848
  821MOL0     H 8323   6.631   9.106   6.810 -1.6728  0.8003  0.6981
  821MOL0     H 8324   6.470   9.132   6.776 -1.6232 -0.6010  0.4184
  821MOL0     H 8325   6.427   9.151   6.476  1.0789 -1.1034 -2.6294
  821MOL0     H 8326   6.562   9.187   6.198  0.2076 -1.2730 -0.0013
  821MOL0     H 8327   6.679   9.317   6.218 -0.5271 -0.0218 -2.0870
  821MOL0     H 8328   6.382   9.333   6.280 -0.5383  0.3730 -3.2356
  821MOL0     H 8329   6.470   9.414   6.144 -0.5446 -0.3002 -1.0460
  821MOL0     H 8330   6.558   9.476   6.425  0.4255 -0.2799 -0.7531
  821MOL0     H 8331   6.584   9.571   6.276  0.3216  1.1146  1.7896
  821MOL0     H 8332   6.391   9.664   6.255  0.0257  1.3823  0.5668
  821MOL0     H 8333   6.419   9.676   6.422  0.1303  0.3031 -0.4101
  821MOL0     H 8334   6.085   9.392   6.439  2.6478  0.6499  0.2779
  821MOL0     H 8335   5.851   9.473   6.468  1.6384 -0.0035  2.2453
  821MOL0     H 8336   5.523   9.820   6.561 -1.3059  0.2452  0.1228
  821MOL0     H 8337   5.325   9.938   6.544 -1.2222 -0.9532 -0.2715
  821MOL0     H 8338   5.152   9.955   6.276  0.3635 -0.4099 -0.6572
  821MOL0     H 8339   5.138  10.112   6.193  0.7100  0.2544 -0.2300
  821MOL0     H 8340   4.986  10.190   6.374 -0.5819  0.2413 -1.9038
  821MOL0     H 8341   5.008  10.043   6.463  1.0109 -0.9140 -0.8138
  821MOL0     H 8342   4.908   9.920   6.261 -2.6800 -0.9047 -0.1643
  821MOL0     H 8343   4.889  10.071   6.172  1.6883  0.9919  0.7887
  821MOL0     H 8344   4.766   9.997   6.445 -3.2802 -1.0775  0.4417
  821MOL0     H 8345   4.758  10.160   6.381 -1.8469  0.9009 -2.8900
  821MOL0     H 8346   4.604  10.067   6.209  0.8288 -1.9801 -1.5915
  821MOL0     H 8347   4.548  10.031   6.371 -0.5887  1.4609 -1.9637
  821MOL0     H 8348   4.697   9.805   6.338  0.3843 -0.2676  0.0635
  821MOL0     H 8349   4.672   9.831   6.167 -1.1495  2.2318 -0.3633
  821MOL0     H 8350   4.439   9.819   6.352 -0.8130  2.2144 -0.6228
  821MOL0     H 8351   4.448   9.855   6.176  3.2890 -0.7212 -3.3536
  821MOL0     H 8352   4.562   9.601   6.303 -1.9353  0.0168  1.8374
  821MOL0     H 8353   4.556   9.632   6.130  0.4523 -2.2945 -0.4200
  821MOL0     H 8354   5.437  10.122   6.174  1.5582  1.3568  0.5566
  821MOL0     H 8355   5.658   9.988   6.183  0.0872  0.1141 -0.2976
  821MOL0     H 8356   5.990   9.866   6.355  0.5220  0.0816  1.8392
  821MOL0     H 8357   6.211   9.783   6.323 -0.3928  1.1725  0.0895
  821MOL0     H 8358   7.322   8.244   6.745  0.3129 -0.0764 -0.7293
  821MOL0     H 8359   7.577   8.293   6.693 -1.6987 -0.2599  2.9033
  821MOL0     H 8360   7.926   8.654   6.916 -1.2119 -3.3449  0.2543
  821MOL0     H 8361   8.168   8.688   6.871  1.3953 -3.5631  0.9412
  821MOL0     H 8362   8.238   8.579   6.454 -1.8953  2.5452  0.3742
  821MOL0     H 8363   8.347   8.547   6.598 -0.2833 -1.7633 -1.4076
  821MOL0     H 8364   8.514   8.696   6.517  0.0805 -0.6816 -0.4341
  821MOL0     H 8365   8.497   8.569   6.403  0.0315  0.7855 -3.0574
  821MOL0     H 8366   8.516   8.816   6.324 -0.4475  0.7235 -0.4805
  821MOL0     H 8367   8.359   8.845   6.382 -0.3956  1.6322 -1.9091
  821MOL0     H 8368   8.405   8.819   6.140  2.6370  0.0167  1.8153
  821MOL0     H 8369   8.441   8.641   6.171 -0.2594 -1.0242  0.7240
  821MOL0     H 8370   8.022   8.641   6.149 -0.5384  1.3557 -0.2016
  821MOL0     H 8371   8.051   8.703   6.447  4.0796  1.4036  1.0686
  821MOL0     H 8372   7.830   8.634   6.499 -0.9992  0.9307 -0.0877
  822MOL0     O 8373   7.218   4.111   5.117  0.5773  0.6006  0.0469
  822MOL0     C 8374   7.326   4.053   5.136 -0.1450 -0.8467  0.0751
  822MOL0     O 8375   7.368   3.987   5.242 -0.5190  0.1980 -0.1742
  822MOL0     C 8376   7.282   3.961   5.345  0.5580 -0.1284 -0.4854
  822MOL0     C 8377   7.196   3.851   5.340  0.1754 -0.1990 -0.1334
  822MOL0     C 8378   7.091   3.824   5.431  0.0040  0.4632 -0.1499
  822MOL0     C 8379   7.069   3.917   5.531  0.6469 -0.4734  0.1876
  822MOL0     O 8380   6.968   3.892   5.615 -0.6133  0.4835 -0.5375
  822MOL0     C 8381   6.947   3.976   5.735  0.2938 -0.2857  0.4172
  822MOL0     C 8382   6.813   3.952   5.790  0.3424 -0.5100  0.9868
  822MOL0     C 8383   6.712   4.020   5.694 -0.0211  0.3068  0.0205
  822MOL0     C 8384   6.576   4.048   5.778  0.4417  0.5200  0.0675
  822MOL0     C 8385   6.478   4.122   5.676 -0.3228  0.3124 -0.1398
  822MOL0     C 8386   6.365   4.195   5.740  0.6170 -0.3909 -0.0661
  822MOL0     C 8387   6.254   4.102   5.804  0.3942  0.3760 -0.1602
  822MOL0     C 8388   6.116   4.171   5.804  0.2452  0.3388  0.4024
  822MOL0     N 8389   6.021   4.073   5.858  0.4047  0.3374 -0.0778
  822MOL0     C 8390   5.953   3.973   5.788  0.3734  0.1694  0.2126
  822MOL0     C 8391   5.881   3.906   5.885  0.0525 -0.8735 -0.8032
  822MOL0     C 8392   5.799   3.791   5.836 -0.1287 -0.2049  0.6510
  822MOL0     C 8393   5.652   3.822   5.802 -0.4174  0.6365 -0.1942
  822MOL0     C 8394   5.588   3.922   5.884 -0.1073 -0.3415 -0.1078
  822MOL0     C 8395   5.437   3.923   5.873 -0.3406 -0.8664 -0.5857
  822MOL0     O 8396   5.398   3.808   5.954 -0.3444  0.5356  0.6433
  822MOL0     C 8397   5.268   3.766   5.971  0.5051 -1.2316  0.2031
  822MOL0     C 8398   5.245   3.651   6.049 -0.8472 -0.8650 -0.0515
  822MOL0     C 8399   5.109   3.612   6.079 -0.6615 -0.5500 -0.2367
  822MOL0     C 8400   5.007   3.699   6.039 -0.6789 -0.2248 -0.1459
  822MOL0     C 8401   4.874   3.663   6.086 -0.4021  0.3014 -0.5755
  822MOL0     O 8402   4.837   3.528   6.069 -0.6660 -0.6941 -0.3802
  822MOL0     C 8403   4.715   3.501   6.117  0.4056  0.3629 -0.3878
  822MOL0     C 8404   4.612   3.464   6.029  0.4182  0.4655 -0.1813
  822MOL0     C 8405   4.481   3.443   6.078  0.9490 -0.4309 -0.2424
  822MOL0     C 8406   4.452   3.451   6.220  0.3189  0.3749 -0.8901
  822MOL0     O 8407   4.317   3.422   6.257 -0.8386  0.4568  0.6077
  822MOL0     C 8408   4.275   3.424   6.398  0.5786 -0.2129 -0.2473
  822MOL0     C 8409   4.126   3.386   6.410 -0.3106  0.6446  0.7541
  822MOL0     C 8410   4.041   3.500   6.381  0.4929  0.5373  0.4047
  822MOL0     C 8411   3.888   3.465   6.381  0.1507 -0.6586  0.2565
  822MOL0     C 8412   3.807   3.586   6.335  0.3024  0.7215 -0.3070
  822MOL0     C 8413   3.654   3.553   6.369  0.5619 -0.4314 -0.1515
  822MOL0     C 8414   3.559   3.679   6.337 -1.2228  0.4287  0.6026
  822MOL0     C 8415   3.423   3.663   6.394 -0.2217  0.9100  1.2123
  822MOL0    Cl 8416   3.432   3.670   6.571 -0.1920  0.1163 -0.1505
  822MOL0     C 8417   4.556   3.476   6.309  1.1337  0.2396 -0.8077
  822MOL0     C 8418   4.681   3.509   6.253 -0.1056  0.1707  0.8281
  822MOL0     O 8419   4.805   3.750   6.140  0.2397  0.2940 -0.4560
  822MOL0     C 8420   5.032   3.812   5.958  1.2573  0.4973  0.6752
  822MOL0     C 8421   5.159   3.840   5.925  0.8676 -0.4917 -0.7975
  822MOL0     N 8422   5.906   3.965   6.009 -0.5293 -0.3286  0.6375
  822MOL0     N 8423   5.989   4.062   5.988 -0.0499  0.7010 -0.4592
  822MOL0     C 8424   7.161   4.027   5.539 -0.2648 -0.1879 -0.0165
  822MOL0     C 8425   7.263   4.054   5.447  0.0370  0.8455 -0.3243
  822MOL0     C 8426   7.418   4.047   5.018 -0.9265  0.2570 -1.4378
  822MOL0     C 8427   7.543   3.984   5.030 -0.4844  1.0072  0.3204
  822MOL0     C 8428   7.633   3.986   4.920 -0.9100  0.0797 -0.1241
  822MOL0     C 8429   7.600   4.031   4.788  0.0804  0.7330 -0.7906
  822MOL0     O 8430   7.682   4.022   4.682 -0.2599 -0.0311 -0.1545
  822MOL0     C 8431   7.808   3.960   4.685  0.7008 -0.1794 -0.8983
  822MOL0     C 8432   7.870   3.960   4.549  0.3924  0.2765  0.1139
  822MOL0     C 8433   7.788   3.893   4.434  0.1399  0.1258 -0.6539
  822MOL0     C 8434   7.721   3.762   4.473  0.2175 -0.4597  0.8493
  822MOL0     C 8435   7.821   3.661   4.503 -0.0191  0.1406 -0.9826
  822MOL0     C 8436   7.884   3.564   4.551 -0.1508  0.8668  0.6518
  822MOL0     C 8437   7.472   4.093   4.781 -0.0491 -0.5903 -0.4914
  822MOL0     C 8438   7.383   4.096   4.890  0.4173 -0.3641 -0.1761
  822MOL0     H 8439   7.219   3.773   5.268  2.9813 -0.3349  0.8160
  822MOL0     H 8440   7.039   3.728   5.437  0.0197  0.4637 -0.0013
  822MOL0     H 8441   6.964   4.082   5.715 -0.6323 -0.3977 -1.0846
  822MOL0     H 8442   7.015   3.944   5.815  0.5838  2.0687  1.1911
  822MOL0     H 8443   6.802   4.004   5.885 -3.2523  1.5920 -0.4029
  822MOL0     H 8444   6.794   3.844   5.796 -1.9007 -0.3328 -1.2752
  822MOL0     H 8445   6.691   3.955   5.609  0.4306 -1.6631  1.3463
  822MOL0     H 8446   6.734   4.119   5.654 -5.2048  1.6154 -0.3367
  822MOL0     H 8447   6.533   3.954   5.812  2.9165 -1.1031 -1.0076
  822MOL0     H 8448   6.583   4.112   5.867  2.3113  1.1654 -0.4983
  822MOL0     H 8449   6.450   4.046   5.602  0.3111 -1.4329  1.3438
  822MOL0     H 8450   6.525   4.201   5.616 -2.4297  1.4424 -0.3693
  822MOL0     H 8451   6.304   4.253   5.670 -2.5222 -0.1187  2.6164
  822MOL0     H 8452   6.398   4.269   5.813  0.9268 -2.9844  2.6178
  822MOL0     H 8453   6.246   4.004   5.755 -0.8735  0.8839 -1.0280
  822MOL0     H 8454   6.283   4.093   5.909  0.8915 -1.2663 -0.3968
  822MOL0     H 8455   6.087   4.192   5.701 -0.9155  0.9942  0.8396
  822MOL0     H 8456   6.112   4.263   5.863  0.3878  0.2775  0.5103
  822MOL0     H 8457   5.941   3.960   5.681 -1.0064 -2.5609  0.6153
  822MOL0     H 8458   5.811   3.709   5.907  0.1288 -0.3316  0.4632
  822MOL0     H 8459   5.848   3.758   5.744 -0.9557 -0.3633  0.2490
  822MOL0     H 8460   5.593   3.730   5.803  0.9084 -0.2329  0.5978
  822MOL0     H 8461   5.673   3.870   5.706  1.7588  0.5720  0.2041
  822MOL0     H 8462   5.621   3.905   5.987  1.9378 -1.9284 -0.9396
  822MOL0     H 8463   5.620   4.023   5.857 -2.5810 -0.1711 -2.8987
  822MOL0     H 8464   5.395   3.912   5.772 -2.3845 -0.2824  0.1485
  822MOL0     H 8465   5.395   4.013   5.919  1.2285 -0.5815  0.3441
  822MOL0     H 8466   5.326   3.598   6.099  0.9704 -1.0849 -2.9963
  822MOL0     H 8467   5.074   3.528   6.138 -1.3539 -1.2134 -1.5509
  822MOL0     H 8468   4.628   3.454   5.922 -0.6610 -1.1705 -0.2359
  822MOL0     H 8469   4.401   3.408   6.013  2.2157  0.9304 -2.6654
  822MOL0     H 8470   4.290   3.522   6.445  2.8036 -0.5320 -0.1749
  822MOL0     H 8471   4.342   3.363   6.457 -0.3456  0.7458  1.8998
  822MOL0     H 8472   4.103   3.360   6.514  2.6590 -2.9043  0.7295
  822MOL0     H 8473   4.102   3.301   6.346  1.0234  0.9180 -0.1522
  822MOL0     H 8474   4.072   3.529   6.280 -1.2876 -0.6397 -0.5303
  822MOL0     H 8475   4.063   3.582   6.451 -0.2989  1.0396  0.0705
  822MOL0     H 8476   3.869   3.377   6.318  0.1514  1.4041 -2.8391
  822MOL0     H 8477   3.862   3.452   6.486 -2.7909  2.1407  0.0373
  822MOL0     H 8478   3.823   3.599   6.228  0.6116 -0.9317 -0.4768
  822MOL0     H 8479   3.830   3.683   6.382  0.3308  1.2088 -1.3047
  822MOL0     H 8480   3.650   3.531   6.476  1.0414  0.9599  0.1734
  822MOL0     H 8481   3.614   3.471   6.308 -0.2029  0.7453 -1.2870
  822MOL0     H 8482   3.604   3.769   6.381 -3.3900  0.8557  2.1424
  822MOL0     H 8483   3.552   3.700   6.230 -1.3623 -1.7885  0.1402
  822MOL0     H 8484   3.382   3.568   6.358 -2.5024  2.5757 -0.9498
  822MOL0     H 8485   3.358   3.742   6.355  0.0048  0.3691 -0.3727
  822MOL0     H 8486   4.541   3.474   6.416  0.0160 -2.0309 -0.9321
  822MOL0     H 8487   4.751   3.540   6.331  0.9048  0.4431 -0.1557
  822MOL0     H 8488   4.955   3.875   5.916  2.1795 -1.1292 -4.0569
  822MOL0     H 8489   5.176   3.937   5.878  0.3717  0.4040  0.7785
  822MOL0     H 8490   7.155   4.095   5.624  0.3860 -2.5867  2.0978
  822MOL0     H 8491   7.334   4.136   5.446  0.6965  0.4177  2.2015
  822MOL0     H 8492   7.577   3.935   5.121 -0.4884 -1.1648 -0.7697
  822MOL0     H 8493   7.735   3.950   4.932 -0.6220  1.0944  0.6024
  822MOL0     H 8494   7.793   3.860   4.726  0.8062  0.4983  0.9074
  822MOL0     H 8495   7.876   4.001   4.761  2.5348 -2.0422 -1.4247
  822MOL0     H 8496   7.889   4.063   4.517 -1.6705  0.3504 -1.0687
  822MOL0     H 8497   7.960   3.900   4.562  0.6862  0.7130  0.1056
  822MOL0     H 8498   7.848   3.881   4.344  0.7339  1.9561 -0.5498
  822MOL0     H 8499   7.699   3.949   4.402  0.0679  0.1044 -0.4961
  822MOL0     H 8500   7.653   3.785   4.556 -1.4314  1.0232 -0.8261
  822MOL0     H 8501   7.656   3.731   4.390  0.3895  1.6971 -0.1395
  822MOL0     H 8502   7.944   3.478   4.574 -3.2952 -1.3835  1.0271
  822MOL0     H 8503   7.419   4.122   4.690 -1.0693 -3.1939 -0.8166
  822MOL0     H 8504   7.290   4.145   4.862  1.3137  0.1010 -2.5826
  823MOL0     O 8505   8.460   0.804   4.941 -0.1181 -0.1533 -0.0534
  823MOL0     C 8506   8.506   0.896   5.005 -0.1318  0.2315 -0.5627
  823MOL0     O 8507   8.436   1.001   5.058 -0.1411 -1.0505 -0.4093
  823MOL0     C 8508   8.301   1.020   5.049  0.7362  1.2663  0.2978
  823MOL0     C 8509   8.204   0.917   5.065 -0.1935 -0.3427 -0.3325
  823MOL0     C 8510   8.066   0.950   5.061  0.2594 -0.1287 -0.3450
  823MOL0     C 8511   8.026   1.088   5.042 -0.1290 -0.1531  0.1487
  823MOL0     O 8512   7.895   1.125   5.025 -0.3897 -0.7988  0.1711
  823MOL0     C 8513   7.815   1.097   5.137  0.6481  0.5306  0.8264
  823MOL0     C 8514   7.677   1.166   5.102 -0.6444 -0.3226  0.6043
  823MOL0     C 8515   7.563   1.123   5.209 -0.0181 -0.4463 -0.8054
  823MOL0     C 8516   7.450   1.233   5.205  0.1121  0.8222 -0.2283
  823MOL0     C 8517   7.323   1.194   5.274  0.5010 -0.4197 -0.7272
  823MOL0     C 8518   7.204   1.290   5.237  0.1663  1.1378  0.5858
  823MOL0     C 8519   7.070   1.240   5.287  0.0969 -0.3709  0.5879
  823MOL0     C 8520   7.010   1.114   5.214 -0.9285  0.5058  0.2937
  823MOL0     N 8521   6.874   1.097   5.251 -0.2284 -0.3021 -0.0177
  823MOL0     C 8522   6.819   1.005   5.339  0.1827  0.0512 -0.1801
  823MOL0     C 8523   6.687   1.009   5.315  0.2735 -0.0684  0.5086
  823MOL0     C 8524   6.580   0.920   5.378 -0.2869 -0.2057 -0.8791
  823MOL0     C 8525   6.544   0.805   5.280  0.5908 -0.1900  0.5092
  823MOL0     C 8526   6.492   0.848   5.146  0.0669  0.5277 -0.4610
  823MOL0     C 8527   6.388   0.952   5.128  0.7319  0.6509  0.1156
  823MOL0     O 8528   6.260   0.901   5.173  0.2841  0.4814 -0.9014
  823MOL0     C 8529   6.139   0.946   5.121  0.3516 -0.4892 -1.2945
  823MOL0     C 8530   6.121   1.073   5.059  0.3431 -0.4417 -0.0236
  823MOL0     C 8531   5.994   1.108   5.008 -0.8620 -0.0083 -0.9340
  823MOL0     C 8532   5.883   1.025   5.017 -0.4163 -0.3051  0.0346
  823MOL0     C 8533   5.751   1.066   4.968 -0.2171 -1.1023  0.3829
  823MOL0     O 8534   5.761   1.127   4.840  0.1295  0.2095 -0.6204
  823MOL0     C 8535   5.639   1.136   4.781 -0.0669  0.3575 -0.1594
  823MOL0     C 8536   5.579   1.022   4.721 -0.9787 -0.5574 -0.4466
  823MOL0     C 8537   5.465   1.047   4.642  0.1909  0.3710 -0.1115
  823MOL0     C 8538   5.397   1.170   4.642  1.4941 -0.4377  0.2822
  823MOL0     O 8539   5.271   1.178   4.588 -0.7601  0.1802 -0.0221
  823MOL0     C 8540   5.163   1.131   4.675 -1.0156 -0.2286 -0.7951
  823MOL0     C 8541   5.034   1.116   4.595 -0.0905 -0.2015  0.4978
  823MOL0     C 8542   4.920   1.055   4.680  0.1664 -0.4757  0.0092
  823MOL0     C 8543   4.850   1.152   4.784  0.2308 -0.2221 -0.2052
  823MOL0     C 8544   4.728   1.075   4.845 -0.2898 -0.4812  0.4144
  823MOL0     C 8545   4.651   1.168   4.940  0.4011 -0.5407 -0.1234
  823MOL0     C 8546   4.542   1.098   5.015  0.4172  0.1409 -0.0608
  823MOL0     C 8547   4.434   1.032   4.921 -0.5622 -0.0898  0.4702
  823MOL0    Cl 8548   4.346   1.171   4.854 -0.0129  0.0549 -0.0985
  823MOL0     C 8549   5.453   1.281   4.709 -1.1231 -0.3070 -0.1091
  823MOL0     C 8550   5.577   1.263   4.778  0.0567 -0.2246  0.3952
  823MOL0     O 8551   5.651   1.024   5.032 -0.0466  0.3372  0.3895
  823MOL0     C 8552   5.893   0.906   5.092 -0.1230 -0.0134  0.1333
  823MOL0     C 8553   6.021   0.864   5.132  0.2094  0.2394 -0.0145
  823MOL0     N 8554   6.656   1.109   5.220  0.7809  0.1264  0.0601
  823MOL0     N 8555   6.770   1.140   5.175  0.2229 -0.4166 -0.5051
  823MOL0     C 8556   8.120   1.188   5.048  0.5430  0.1511  0.4330
  823MOL0     C 8557   8.258   1.157   5.054 -0.5329 -0.1538  0.4817
  823MOL0     C 8558   8.653   0.905   5.025  0.2693 -0.8337  1.0644
  823MOL0     C 8559   8.716   1.017   5.076 -0.6255 -0.1618  0.6012
  823MOL0     C 8560   8.853   1.027   5.080 -0.3104 -0.3133  0.0872
  823MOL0     C 8561   8.928   0.918   5.042 -0.3783 -0.4297 -0.5590
  823MOL0     O 8562   9.057   0.952   5.057  0.6609 -0.6120 -0.2933
  823MOL0     C 8563   9.159   0.860   5.040 -0.2655  0.1818  0.0428
  823MOL0     C 8564   9.182   0.849   4.889 -0.1614  0.1840 -0.4144
  823MOL0     C 8565   9.209   0.965   4.799 -0.1839 -0.4788  0.2461
  823MOL0     C 8566   9.201   0.921   4.654 -0.1491 -0.2874  0.3418
  823MOL0     C 8567   9.206   1.030   4.565  0.3155 -0.2639 -0.2556
  823MOL0     C 8568   9.220   1.113   4.474  0.7758 -0.4524  0.0226
  823MOL0     C 8569   8.869   0.802   4.998 -0.2448 -0.2902  0.6137
  823MOL0     C 8570   8.734   0.799   4.978  0.6694  0.8671 -0.5096
  823MOL0     H 8571   8.236   0.813   5.065 -1.4321 -0.7919  1.8852
  823MOL0     H 8572   8.002   0.863   5.067  0.1786 -0.0767 -0.4542
  823MOL0     H 8573   7.855   1.142   5.228 -1.1134  0.4652  1.6822
  823MOL0     H 8574   7.813   0.989   5.151 -0.3478  0.6395  1.6606
  823MOL0     H 8575   7.647   1.156   4.998 -0.6686 -1.1815  0.6878
  823MOL0     H 8576   7.690   1.274   5.116  0.7482 -0.1157 -1.7726
  823MOL0     H 8577   7.596   1.120   5.313 -0.9737 -1.9659 -0.5196
  823MOL0     H 8578   7.526   1.021   5.193 -1.1033 -0.2969  0.5821
  823MOL0     H 8579   7.500   1.320   5.249  0.9059  0.9620 -1.3436
  823MOL0     H 8580   7.423   1.248   5.100  0.2966 -1.2362 -0.6190
  823MOL0     H 8581   7.342   1.206   5.381  1.8882  1.9696 -1.1737
  823MOL0     H 8582   7.307   1.091   5.241 -1.4516  0.2347 -1.9541
  823MOL0     H 8583   7.203   1.312   5.130 -0.0889  0.7995  0.5158
  823MOL0     H 8584   7.217   1.387   5.285 -1.5403  0.6474  2.1786
  823MOL0     H 8585   7.085   1.221   5.393  2.0091  2.2450  0.8851
  823MOL0     H 8586   6.998   1.319   5.267 -0.2477 -0.9190 -0.4038
  823MOL0     H 8587   7.078   1.035   5.245 -0.9608  0.4435  0.2062
  823MOL0     H 8588   7.015   1.128   5.105  0.2849 -1.0424  0.1264
  823MOL0     H 8589   6.870   0.941   5.410  2.1927  2.3951  0.6413
  823MOL0     H 8590   6.492   0.975   5.410 -0.8279 -1.7903  0.4577
  823MOL0     H 8591   6.617   0.870   5.468 -0.7725 -0.9547 -1.0863
  823MOL0     H 8592   6.467   0.746   5.331  1.6123 -0.2704  2.0115
  823MOL0     H 8593   6.628   0.736   5.269  1.1312  0.2944  1.4973
  823MOL0     H 8594   6.577   0.874   5.082 -0.3452  0.8747 -0.8834
  823MOL0     H 8595   6.441   0.764   5.098 -3.7749  1.4376  1.5773
  823MOL0     H 8596   6.384   0.978   5.021 -0.7234  2.3958  0.5379
  823MOL0     H 8597   6.418   1.040   5.186 -1.9008  1.4582  0.3976
  823MOL0     H 8598   6.203   1.141   5.041 -0.0463 -0.2987 -1.3792
  823MOL0     H 8599   5.980   1.211   4.977  2.8563  1.0375  0.2991
  823MOL0     H 8600   5.642   0.937   4.744  1.6073  1.8341  2.2521
  823MOL0     H 8601   5.429   0.957   4.593  1.8182 -0.0914 -0.4981
  823MOL0     H 8602   5.144   1.208   4.751 -0.7021 -0.0378 -0.9101
  823MOL0     H 8603   5.184   1.039   4.730  0.1130 -0.2287 -1.2074
  823MOL0     H 8604   5.057   1.055   4.507  2.9225  3.2748 -1.4428
  823MOL0     H 8605   5.002   1.211   4.551 -3.1150 -1.6651 -0.6692
  823MOL0     H 8606   4.960   0.976   4.744  2.2190  0.6995  0.2668
  823MOL0     H 8607   4.843   1.013   4.614 -0.3926  0.7741 -0.1553
  823MOL0     H 8608   4.917   1.186   4.863 -0.5329 -0.5499  0.6078
  823MOL0     H 8609   4.808   1.240   4.733 -3.4173 -2.5038 -1.5459
  823MOL0     H 8610   4.763   0.989   4.902 -1.8971 -0.6691  1.1918
  823MOL0     H 8611   4.674   1.037   4.757  2.2728 -1.4253 -0.8558
  823MOL0     H 8612   4.597   1.249   4.891 -0.0662  0.0356  1.2816
  823MOL0     H 8613   4.722   1.220   5.006  0.4254 -1.2447  0.4217
  823MOL0     H 8614   4.596   1.026   5.077  0.3011  1.8409  2.1450
  823MOL0     H 8615   4.488   1.176   5.069  0.4472  0.7709 -0.9167
  823MOL0     H 8616   4.368   0.963   4.974 -1.4903 -0.3016 -0.9187
  823MOL0     H 8617   4.483   0.972   4.844 -1.1751 -0.9705  0.7527
  823MOL0     H 8618   5.407   1.380   4.703 -2.3749 -0.7151  1.8159
  823MOL0     H 8619   5.624   1.352   4.816 -0.9815 -0.7683  3.1436
  823MOL0     H 8620   5.801   0.849   5.103  0.0737 -0.0285  1.9910
  823MOL0     H 8621   6.032   0.780   5.199  0.1044  2.3396  2.8078
  823MOL0     H 8622   8.096   1.293   5.053  3.0293  0.9011 -1.2201
  823MOL0     H 8623   8.331   1.238   5.053  0.5245 -1.0611  1.7497
  823MOL0     H 8624   8.668   1.110   5.106  1.5128  1.1356  0.1857
  823MOL0     H 8625   8.908   1.113   5.117 -1.1960 -0.1097  0.9764
  823MOL0     H 8626   9.134   0.764   5.085 -1.7403  0.9113  0.8653
  823MOL0     H 8627   9.254   0.891   5.086  1.1843 -3.7031  0.0058
  823MOL0     H 8628   9.265   0.778   4.879 -2.2023 -2.2373 -0.9718
  823MOL0     H 8629   9.096   0.794   4.850 -1.2076  0.3792  1.4994
  823MOL0     H 8630   9.308   1.006   4.819  1.4882 -3.0105 -2.1161
  823MOL0     H 8631   9.136   1.044   4.821  0.8227  0.4848  0.2372
  823MOL0     H 8632   9.281   0.852   4.625 -0.5761 -0.8055  0.3699
  823MOL0     H 8633   9.120   0.849   4.639  0.0394 -0.6367  0.9170
  823MOL0     H 8634   9.246   1.191   4.406  0.8855  1.5795  2.2416
  823MOL0     H 8635   8.926   0.717   4.964  2.3834  0.6432  2.3304
  823MOL0     H 8636   8.684   0.712   4.937 -1.4220  2.2755 -1.1131
  824MOL0     O 8637   7.588   3.681   7.226  0.4636  0.1708  0.3020
  824MOL0     C 8638   7.632   3.599   7.306  0.9446  0.4606  0.5442
  824MOL0     O 8639   7.765   3.588   7.332  0.2647 -0.0077 -0.1608
  824MOL0     C 8640   7.856   3.675   7.276  0.2219  0.2882  1.0354
  824MOL0     C 8641   7.837   3.816   7.289  0.6334 -0.6700  0.6687
  824MOL0     C 8642   7.921   3.908   7.218 -0.1189  1.3657 -0.3753
  824MOL0     C 8643   8.032   3.859   7.145 -0.7421 -0.9756  0.8240
  824MOL0     O 8644   8.120   3.941   7.070 -0.0997 -0.3252 -0.3237
  824MOL0     C 8645   8.080   4.082   7.053  0.1806  0.5429  0.1575
  824MOL0     C 8646   8.150   4.163   7.161  0.5809  0.3305  0.5122
  824MOL0     C 8647   8.151   4.307   7.128 -1.6739 -0.1905  0.0610
  824MOL0     C 8648   8.021   4.377   7.177  0.4958  0.6206 -0.1846
  824MOL0     C 8649   8.001   4.517   7.109  0.7256 -0.1763 -0.4115
  824MOL0     C 8650   7.849   4.561   7.113 -0.2305  0.5177  0.5114
  824MOL0     C 8651   7.787   4.557   7.256  0.3335 -0.4863  0.8696
  824MOL0     C 8652   7.688   4.675   7.282 -0.4453 -0.4062  0.0418
  824MOL0     N 8653   7.563   4.646   7.220  0.2121  0.4425 -0.1550
  824MOL0     C 8654   7.469   4.561   7.286 -0.1597 -0.1552  1.3670
  824MOL0     C 8655   7.374   4.542   7.189  0.4728 -0.7647  0.9346
  824MOL0     C 8656   7.244   4.467   7.178 -0.3233 -0.3935  0.0386
  824MOL0     C 8657   7.121   4.556   7.158  0.2799 -0.2557  0.1644
  824MOL0     C 8658   6.995   4.488   7.207  0.6392  0.7749 -0.0921
  824MOL0     C 8659   6.867   4.565   7.190 -0.5589 -0.1422 -0.0308
  824MOL0     O 8660   6.773   4.501   7.094  0.3353  0.4900 -0.1079
  824MOL0     C 8661   6.638   4.542   7.104 -0.6526  0.3123  0.0990
  824MOL0     C 8662   6.567   4.552   7.224  0.5562 -0.2358 -0.1216
  824MOL0     C 8663   6.442   4.602   7.223  1.0549  0.7937  0.3909
  824MOL0     C 8664   6.376   4.644   7.108  0.0900  0.0877 -0.0383
  824MOL0     C 8665   6.227   4.678   7.109 -0.4609 -0.8967  0.2903
  824MOL0     O 8666   6.163   4.655   7.223  0.9768  0.2290 -0.0068
  824MOL0     C 8667   6.024   4.656   7.228 -1.1260 -0.9326  0.0804
  824MOL0     C 8668   5.948   4.541   7.199 -0.7482 -0.1859  0.4179
  824MOL0     C 8669   5.803   4.543   7.193 -0.2261 -0.0028 -0.5056
  824MOL0     C 8670   5.731   4.662   7.235 -0.7899 -0.9829  0.3169
  824MOL0     O 8671   5.597   4.664   7.230 -0.2161  0.1062  0.0327
  824MOL0     C 8672   5.527   4.748   7.323  0.6358  0.3683  0.5548
  824MOL0     C 8673   5.378   4.695   7.329 -0.0390  0.0763 -1.1789
  824MOL0     C 8674   5.285   4.790   7.417 -1.0779  0.7481  0.8613
  824MOL0     C 8675   5.147   4.742   7.383 -0.5496  0.0450  0.2856
  824MOL0     C 8676   5.042   4.812   7.468  0.2533 -0.5359  0.8954
  824MOL0     C 8677   5.023   4.959   7.421 -0.9817  0.7545  0.0596
  824MOL0     C 8678   4.935   5.043   7.507 -0.0630 -0.7518  0.6426
  824MOL0     C 8679   4.786   5.001   7.506  0.0116 -0.6316 -0.4785
  824MOL0    Cl 8680   4.681   5.142   7.469  0.0769 -0.0449  0.0017
  824MOL0     C 8681   5.812   4.779   7.268 -0.2810  0.5165 -0.1333
  824MOL0     C 8682   5.957   4.779   7.257  0.6657  0.2087 -0.3891
  824MOL0     O 8683   6.178   4.730   7.010 -0.3230  0.9653  0.1253
  824MOL0     C 8684   6.450   4.638   6.986 -0.1539 -0.4407 -0.3103
  824MOL0     C 8685   6.581   4.590   6.984 -0.0741  0.4161 -0.6216
  824MOL0     N 8686   7.419   4.611   7.072 -0.2842  0.6181 -0.4850
  824MOL0     N 8687   7.534   4.671   7.088  0.0789 -0.2946 -0.3922
  824MOL0     C 8688   8.059   3.721   7.149  0.4590 -0.2682 -0.3076
  824MOL0     C 8689   7.970   3.632   7.212 -0.0382  0.2742 -0.9711
  824MOL0     C 8690   7.544   3.491   7.358  0.1318 -0.9973 -0.0500
  824MOL0     C 8691   7.589   3.394   7.441 -0.1556 -0.6801 -0.0137
  824MOL0     C 8692   7.497   3.320   7.512 -0.0276 -0.0733 -0.0231
  824MOL0     C 8693   7.363   3.321   7.483  0.4464 -0.0226 -1.0703
  824MOL0     O 8694   7.293   3.227   7.552 -0.2351  0.4240  0.2231
  824MOL0     C 8695   7.277   3.268   7.688  0.2940  0.8162  0.1566
  824MOL0     C 8696   7.145   3.351   7.696 -0.1608  0.2006 -0.6857
  824MOL0     C 8697   7.025   3.261   7.641 -0.8359 -0.3219 -0.0296
  824MOL0     C 8698   6.900   3.345   7.629 -0.1725 -0.0859  0.3645
  824MOL0     C 8699   6.846   3.400   7.753  0.1437 -0.9566 -0.1640
  824MOL0     C 8700   6.805   3.463   7.841  0.0709 -1.5271 -0.3028
  824MOL0     C 8701   7.310   3.404   7.378  0.5729  0.5602 -0.3637
  824MOL0     C 8702   7.406   3.487   7.312 -0.1777  0.8922 -1.2237
  824MOL0     H 8703   7.746   3.862   7.327 -0.0891 -1.0327 -0.5625
  824MOL0     H 8704   7.907   4.016   7.216 -1.6843  1.1750 -1.1986
  824MOL0     H 8705   7.972   4.099   7.052 -0.1735 -0.6307  3.6015
  824MOL0     H 8706   8.129   4.122   6.964  2.3848 -1.7256  0.2343
  824MOL0     H 8707   8.251   4.124   7.167  0.6667  0.1154 -1.4892
  824MOL0     H 8708   8.095   4.145   7.254  0.5496  0.6022  0.5480
  824MOL0     H 8709   8.176   4.336   7.026  1.4251 -0.4433  0.6496
  824MOL0     H 8710   8.223   4.356   7.194  0.5687 -2.8264 -0.2145
  824MOL0     H 8711   7.936   4.312   7.154 -0.1269  1.6807 -0.9298
  824MOL0     H 8712   8.015   4.394   7.285  0.2654 -0.1048 -0.0741
  824MOL0     H 8713   8.031   4.511   7.004  1.7840  2.2081 -0.3142
  824MOL0     H 8714   8.068   4.592   7.152 -1.5648  1.8384 -0.1531
  824MOL0     H 8715   7.795   4.488   7.053  0.7329 -1.4610  1.9255
  824MOL0     H 8716   7.834   4.662   7.073  1.9731  1.3596  1.6253
  824MOL0     H 8717   7.743   4.461   7.285 -1.2487 -0.1722 -0.3889
  824MOL0     H 8718   7.875   4.597   7.308  0.1000  2.2854 -0.6698
  824MOL0     H 8719   7.728   4.765   7.234  4.8516 -2.8230 -0.7835
  824MOL0     H 8720   7.668   4.692   7.388 -0.0590 -0.3883  0.1117
  824MOL0     H 8721   7.465   4.534   7.391 -1.1251 -1.4282  1.0293
  824MOL0     H 8722   7.230   4.392   7.257 -1.2672  1.7168  1.9866
  824MOL0     H 8723   7.257   4.414   7.084 -2.1125  0.8255 -0.9498
  824MOL0     H 8724   7.121   4.555   7.048  0.8443 -1.9410  0.1585
  824MOL0     H 8725   7.131   4.655   7.203 -0.8678 -0.5404  1.0664
  824MOL0     H 8726   6.985   4.392   7.156 -1.5441  0.5492  0.6879
  824MOL0     H 8727   7.017   4.462   7.310 -1.5143  1.2711  0.5452
  824MOL0     H 8728   6.876   4.670   7.162  0.8720 -0.2066  0.1095
  824MOL0     H 8729   6.819   4.567   7.288 -1.4741 -1.3093 -0.4323
  824MOL0     H 8730   6.613   4.512   7.313 -3.1349 -4.4434  0.2470
  824MOL0     H 8731   6.382   4.592   7.313  1.8268 -0.5431  0.7891
  824MOL0     H 8732   6.002   4.450   7.175  0.5707  0.3504  1.2557
  824MOL0     H 8733   5.737   4.463   7.160  0.8828 -1.3644  0.4417
  824MOL0     H 8734   5.526   4.851   7.287  0.2247  0.9122  2.0307
  824MOL0     H 8735   5.587   4.740   7.414  3.9496 -1.0662 -1.5448
  824MOL0     H 8736   5.369   4.597   7.376 -0.5674  1.3837  1.6524
  824MOL0     H 8737   5.351   4.697   7.222  2.4744  1.7543 -1.8655
  824MOL0     H 8738   5.300   4.891   7.379 -0.7431  0.0856 -0.8701
  824MOL0     H 8739   5.320   4.799   7.520  2.3787  0.7125 -0.2059
  824MOL0     H 8740   5.124   4.759   7.277  1.7045  2.6227  0.0824
  824MOL0     H 8741   5.145   4.634   7.397 -0.6982 -0.0625 -0.5275
  824MOL0     H 8742   5.073   4.837   7.570  1.2518  1.9874  0.0661
  824MOL0     H 8743   4.952   4.750   7.468  1.7883 -2.9542 -1.1612
  824MOL0     H 8744   4.990   4.948   7.317  1.3219  0.3714 -0.6775
  824MOL0     H 8745   5.116   5.016   7.426 -2.7015  3.7830  0.5570
  824MOL0     H 8746   4.967   5.050   7.612  0.9265 -0.7532  0.3553
  824MOL0     H 8747   4.942   5.143   7.464  2.5036 -1.0650  0.1324
  824MOL0     H 8748   4.753   4.944   7.593 -0.1732 -0.8083 -0.6675
  824MOL0     H 8749   4.777   4.926   7.427  2.6477 -1.3962 -0.1652
  824MOL0     H 8750   5.758   4.872   7.281 -1.7841 -0.3564  0.0840
  824MOL0     H 8751   6.011   4.872   7.274  0.2206  0.9212 -2.5142
  824MOL0     H 8752   6.406   4.685   6.899 -1.8559 -2.4436 -0.6051
  824MOL0     H 8753   6.629   4.577   6.887 -2.0960  2.2143 -1.9314
  824MOL0     H 8754   8.140   3.685   7.086  0.6688  0.4149 -0.4357
  824MOL0     H 8755   8.004   3.529   7.207  0.0649  0.3089 -0.9824
  824MOL0     H 8756   7.688   3.379   7.482 -1.5002 -2.6901  2.8129
  824MOL0     H 8757   7.537   3.248   7.583 -1.1382  0.2377  0.9417
  824MOL0     H 8758   7.359   3.323   7.735  1.6415 -0.9471  0.0014
  824MOL0     H 8759   7.261   3.176   7.745  2.2610 -0.2671 -0.9297
  824MOL0     H 8760   7.128   3.371   7.802 -0.3732 -3.6049  0.1535
  824MOL0     H 8761   7.159   3.442   7.637  0.2365  1.0269  0.6342
  824MOL0     H 8762   7.003   3.169   7.697 -4.2554 -0.3677 -1.1615
  824MOL0     H 8763   7.043   3.230   7.538  1.2331  1.1783 -0.1681
  824MOL0     H 8764   6.921   3.430   7.564 -0.1983 -0.0388  0.4186
  824MOL0     H 8765   6.827   3.275   7.586  1.4476 -0.8225 -1.3341
  824MOL0     H 8766   6.752   3.505   7.924 -3.2269 -1.8688 -2.0536
  824MOL0     H 8767   7.203   3.410   7.358  1.2607  2.4660 -4.2592
  824MOL0     H 8768   7.373   3.567   7.246 -2.4397  1.8246  0.8679
  825MOL0     O 8769   9.989   1.754   1.080 -0.4836 -0.7466  0.7167
  825MOL0     C 8770  10.035   1.764   1.192 -0.1213 -0.5874  0.0905
  825MOL0     O 8771   9.970   1.733   1.304 -0.4584 -0.4927 -0.0340
  825MOL0     C 8772   9.836   1.761   1.305 -0.0965 -0.3822  0.7167
  825MOL0     C 8773   9.739   1.682   1.237  0.3534 -0.2020 -0.6297
  825MOL0     C 8774   9.603   1.711   1.257  0.8362 -0.2430 -0.7549
  825MOL0     C 8775   9.564   1.820   1.338 -0.9376  0.2543  0.5045
  825MOL0     O 8776   9.432   1.853   1.353  0.4813 -0.4149  0.8266
  825MOL0     C 8777   9.324   1.785   1.278 -0.1372  0.5083 -0.0314
  825MOL0     C 8778   9.181   1.845   1.304  0.5035  0.6476  0.5864
  825MOL0     C 8779   9.148   1.987   1.244 -0.0235  0.3770 -1.0090
  825MOL0     C 8780   8.998   2.023   1.281  0.0680  0.2862 -0.7995
  825MOL0     C 8781   8.973   2.172   1.239  0.9665  0.7710  0.1423
  825MOL0     C 8782   8.822   2.197   1.254 -0.2467 -0.2967 -0.8154
  825MOL0     C 8783   8.741   2.189   1.124 -0.0860  0.2954  0.0997
  825MOL0     C 8784   8.607   2.267   1.136 -0.4031 -0.7960 -0.2922
  825MOL0     N 8785   8.537   2.266   1.262  0.4314  0.0555 -0.9686
  825MOL0     C 8786   8.461   2.378   1.311 -0.0440  0.5380  0.2032
  825MOL0     C 8787   8.394   2.330   1.421 -0.1861  0.8010  0.5688
  825MOL0     C 8788   8.304   2.401   1.516  0.0681 -0.5330  0.1526
  825MOL0     C 8789   8.156   2.354   1.503 -0.0676 -0.6846  0.6545
  825MOL0     C 8790   8.063   2.428   1.595  0.6917  0.7693 -0.4505
  825MOL0     C 8791   7.924   2.401   1.564 -0.0432  0.2116 -0.2864
  825MOL0     O 8792   7.837   2.477   1.653 -0.7361 -0.3421  0.2915
  825MOL0     C 8793   7.707   2.437   1.661  0.5480 -0.5951  0.9110
  825MOL0     C 8794   7.657   2.324   1.601  0.8071  0.4544  0.0487
  825MOL0     C 8795   7.518   2.298   1.601  0.3643 -0.2771 -0.6929
  825MOL0     C 8796   7.428   2.380   1.666 -0.7695 -0.2692 -0.4964
  825MOL0     C 8797   7.294   2.338   1.688  0.1751 -0.1358 -0.8338
  825MOL0     O 8798   7.219   2.410   1.782 -0.3358  0.0793  0.1094
  825MOL0     C 8799   7.096   2.370   1.828 -0.3398 -0.0945  0.8256
  825MOL0     C 8800   7.035   2.248   1.816 -0.2072  0.3854 -0.5674
  825MOL0     C 8801   6.905   2.226   1.871  0.5953  0.5127  1.2789
  825MOL0     C 8802   6.828   2.337   1.921  0.6705 -0.6719  1.0638
  825MOL0     O 8803   6.696   2.312   1.956 -0.3888  0.0226 -0.3009
  825MOL0     C 8804   6.612   2.421   1.991 -0.7211  0.5157 -0.3584
  825MOL0     C 8805   6.464   2.370   2.001  0.6197  0.2254 -0.2885
  825MOL0     C 8806   6.450   2.283   2.123  0.0794 -0.1640 -0.6018
  825MOL0     C 8807   6.322   2.202   2.124  0.0734 -0.2415  0.1622
  825MOL0     C 8808   6.273   2.171   2.271 -0.2213 -0.4370  0.2495
  825MOL0     C 8809   6.123   2.123   2.294 -0.0637  0.4616 -0.2449
  825MOL0     C 8810   6.115   1.983   2.235 -0.9686  0.2426  0.8293
  825MOL0     C 8811   5.992   1.903   2.277  0.3654 -0.8796 -0.7262
  825MOL0    Cl 8812   5.993   1.862   2.451  0.0361  0.3237 -0.0544
  825MOL0     C 8813   6.901   2.453   1.938 -0.6310 -0.2454  0.3943
  825MOL0     C 8814   7.032   2.466   1.895  0.9289 -0.1783 -0.3183
  825MOL0     O 8815   7.245   2.251   1.620 -0.0980 -0.0607  0.5367
  825MOL0     C 8816   7.483   2.506   1.718 -0.2884  0.7481 -0.6459
  825MOL0     C 8817   7.616   2.536   1.706 -0.0509  0.6580  0.1522
  825MOL0     N 8818   8.422   2.190   1.432  0.1187 -1.3646 -0.2153
  825MOL0     N 8819   8.510   2.158   1.342 -0.3225 -0.6111  0.1034
  825MOL0     C 8820   9.659   1.900   1.401 -0.2575 -0.5538  0.1294
  825MOL0     C 8821   9.791   1.865   1.384  0.5085 -0.9820  1.2546
  825MOL0     C 8822  10.177   1.797   1.200  0.4556  1.0258 -0.3549
  825MOL0     C 8823  10.247   1.852   1.090 -0.4106  0.2389 -0.7683
  825MOL0     C 8824  10.382   1.876   1.089 -0.6419 -0.6733 -0.7844
  825MOL0     C 8825  10.458   1.844   1.208  0.1950  0.5873 -0.7146
  825MOL0     O 8826  10.588   1.870   1.225 -0.0333  0.4288 -0.0769
  825MOL0     C 8827  10.665   1.924   1.117  0.4043  0.0824 -0.1167
  825MOL0     C 8828  10.813   1.920   1.160  0.5805 -0.1071  0.7176
  825MOL0     C 8829  10.905   1.965   1.041 -0.2783 -1.0750  0.0304
  825MOL0     C 8830  10.948   2.112   1.060  0.2656  0.0641 -0.5953
  825MOL0     C 8831  11.034   2.131   1.175 -0.5065  0.5706  0.0913
  825MOL0     C 8832  11.106   2.137   1.268  0.2482  0.6708 -0.4659
  825MOL0     C 8833  10.390   1.801   1.319  0.1963  0.2319 -0.0012
  825MOL0     C 8834  10.254   1.771   1.316  0.3862  0.4494  0.3957
  825MOL0     H 8835   9.767   1.598   1.174  0.1979 -0.4854 -0.3290
  825MOL0     H 8836   9.522   1.659   1.207 -0.4322  0.9904 -0.0805
  825MOL0     H 8837   9.320   1.678   1.300  0.8394  0.0309 -1.9345
  825MOL0     H 8838   9.345   1.798   1.171  0.4785  0.4781  0.0791
  825MOL0     H 8839   9.174   1.849   1.413 -1.3154  3.2895  0.4759
  825MOL0     H 8840   9.109   1.774   1.261 -1.3402  4.1388 -2.7592
  825MOL0     H 8841   9.183   1.987   1.141 -0.0969 -1.7881 -1.0802
  825MOL0     H 8842   9.210   2.050   1.309 -3.0691  1.3506  1.1724
  825MOL0     H 8843   8.924   1.959   1.232  0.7176 -1.6315  0.5938
  825MOL0     H 8844   8.977   2.025   1.389 -1.1708 -0.7571 -0.9985
  825MOL0     H 8845   9.002   2.190   1.135  0.4830  1.7026  0.1550
  825MOL0     H 8846   9.032   2.236   1.305  0.5851 -1.3211  2.6496
  825MOL0     H 8847   8.808   2.301   1.286 -0.5404 -0.4629 -0.3871
  825MOL0     H 8848   8.775   2.136   1.332  1.6017 -0.6202  0.1158
  825MOL0     H 8849   8.792   2.235   1.039 -1.8937  2.5045  0.0993
  825MOL0     H 8850   8.713   2.084   1.110  2.8322 -0.4002 -1.2903
  825MOL0     H 8851   8.534   2.238   1.059 -2.1824  1.2216  0.5391
  825MOL0     H 8852   8.637   2.371   1.125 -0.5626 -0.2638  3.3262
  825MOL0     H 8853   8.465   2.482   1.278 -0.7069  1.6399  3.2999
  825MOL0     H 8854   8.307   2.507   1.492 -1.5961 -0.9086 -2.0562
  825MOL0     H 8855   8.342   2.392   1.618  0.5630 -0.0485  0.0171
  825MOL0     H 8856   8.152   2.248   1.531 -2.5937 -0.7179  0.3515
  825MOL0     H 8857   8.107   2.372   1.406  0.8698  0.4384  0.3611
  825MOL0     H 8858   8.077   2.393   1.698 -2.1026  0.4266 -0.1025
  825MOL0     H 8859   8.082   2.535   1.590  0.0989  0.8066 -2.9564
  825MOL0     H 8860   7.911   2.293   1.574 -0.1581  0.1610 -0.9155
  825MOL0     H 8861   7.902   2.426   1.460  0.6154  3.5390  0.2654
  825MOL0     H 8862   7.719   2.250   1.550 -0.9620 -1.6061  0.7182
  825MOL0     H 8863   7.487   2.199   1.570 -1.0497 -0.0279 -0.1368
  825MOL0     H 8864   7.093   2.159   1.793 -1.9947 -1.5960  2.0343
  825MOL0     H 8865   6.851   2.132   1.864 -2.6214  2.3450 -2.5636
  825MOL0     H 8866   6.626   2.508   1.926 -1.7895  0.1607 -1.0738
  825MOL0     H 8867   6.632   2.463   2.091 -2.2125  2.5899 -0.8541
  825MOL0     H 8868   6.415   2.330   1.912 -1.1996  0.9121  0.3406
  825MOL0     H 8869   6.406   2.460   2.025 -1.5568 -1.3411  0.6485
  825MOL0     H 8870   6.460   2.351   2.208 -0.7002  2.5565 -2.5276
  825MOL0     H 8871   6.526   2.205   2.114 -0.1833 -0.3925 -0.8551
  825MOL0     H 8872   6.238   2.249   2.072 -0.7366 -0.9959  0.7671
  825MOL0     H 8873   6.341   2.112   2.064  3.5332  0.1523  0.4432
  825MOL0     H 8874   6.282   2.268   2.321 -0.4590  0.6868 -1.7641
  825MOL0     H 8875   6.345   2.096   2.304 -1.4656 -0.9461  1.9480
  825MOL0     H 8876   6.056   2.192   2.243 -1.9511 -2.8898 -2.7473
  825MOL0     H 8877   6.108   2.127   2.402 -1.2412 -0.0049 -0.3748
  825MOL0     H 8878   6.108   2.003   2.128 -0.3243  2.4066  1.1473
  825MOL0     H 8879   6.206   1.925   2.251  0.0794  0.3044 -3.7245
  825MOL0     H 8880   5.988   1.816   2.210 -1.9929  1.0251 -3.3565
  825MOL0     H 8881   5.908   1.970   2.255  1.7663  0.9302 -0.7731
  825MOL0     H 8882   6.852   2.533   1.992 -0.3052  0.3725 -0.2139
  825MOL0     H 8883   7.089   2.557   1.913  0.0475  0.5290 -0.9533
  825MOL0     H 8884   7.410   2.579   1.750 -1.1552  0.0215 -0.9183
  825MOL0     H 8885   7.659   2.625   1.753  1.9489  0.1941 -0.6853
  825MOL0     H 8886   9.631   1.985   1.462 -1.4188 -0.3240 -0.6881
  825MOL0     H 8887   9.873   1.925   1.422  1.0850  1.6036 -3.3436
  825MOL0     H 8888  10.193   1.862   0.997  1.4641  2.0207 -1.7329
  825MOL0     H 8889  10.431   1.905   0.996  0.0884  0.4094 -0.0849
  825MOL0     H 8890  10.628   2.024   1.094 -1.7027 -0.7576 -0.6336
  825MOL0     H 8891  10.648   1.859   1.030  0.3821 -0.8385  0.5598
  825MOL0     H 8892  10.826   1.979   1.252 -1.5917 -0.1319  1.0925
  825MOL0     H 8893  10.838   1.816   1.181  1.1093  0.1240  1.2782
  825MOL0     H 8894  10.856   1.942   0.946  4.1919  0.9095 -3.0610
  825MOL0     H 8895  10.998   1.908   1.038  1.1659  1.2088 -2.0288
  825MOL0     H 8896  11.007   2.135   0.970  3.0142 -1.5479  0.6781
  825MOL0     H 8897  10.861   2.176   1.072  0.1033 -0.0030 -1.3532
  825MOL0     H 8898  11.169   2.170   1.347  1.7984  1.8997 -2.1206
  825MOL0     H 8899  10.454   1.782   1.404  2.3172  2.4232 -1.0049
  825MOL0     H 8900  10.197   1.730   1.399 -3.1140 -1.3472 -2.6037
  826MOL0     O 8901   2.278   8.406   8.906 -0.3342  0.6623 -0.0461
  826MOL0     C 8902   2.276   8.385   8.783  0.3414  0.0721  0.2534
  826MOL0     O 8903   2.175   8.408   8.701  0.3154 -0.1948  0.3020
  826MOL0     C 8904   2.062   8.475   8.742  0.1014 -0.9631  1.4348
  826MOL0     C 8905   1.997   8.483   8.865 -0.2473  0.4219 -0.0889
  826MOL0     C 8906   1.880   8.555   8.896 -0.3408 -0.3402 -1.0955
  826MOL0     C 8907   1.807   8.618   8.787 -1.3880 -0.6267  0.3174
  826MOL0     O 8908   1.690   8.684   8.797  0.0052  0.0679 -0.6994
  826MOL0     C 8909   1.626   8.683   8.932 -0.7174  0.1220  0.0531
  826MOL0     C 8910   1.515   8.790   8.919 -0.3559 -0.3085 -0.4069
  826MOL0     C 8911   1.415   8.770   8.789 -0.8343 -0.3855 -0.6332
  826MOL0     C 8912   1.302   8.868   8.787 -0.4567  0.0031 -0.5142
  826MOL0     C 8913   1.216   8.850   8.662  0.2899  0.0398  0.2052
  826MOL0     C 8914   1.135   8.975   8.633 -1.2167  0.4718 -0.4775
  826MOL0     C 8915   1.043   8.955   8.520  0.5644  0.1580 -0.3596
  826MOL0     C 8916   0.942   9.070   8.494 -0.3167  0.4264  0.1051
  826MOL0     N 8917   0.855   9.082   8.610  0.2924 -0.3501  0.6168
  826MOL0     C 8918   0.846   9.189   8.689  0.4385 -0.2727 -0.4364
  826MOL0     C 8919   0.726   9.169   8.756 -0.5574  0.2376  0.3914
  826MOL0     C 8920   0.684   9.254   8.861  0.0268 -0.4443 -0.2167
  826MOL0     C 8921   0.661   9.161   8.987  0.1678  0.3654  0.4652
  826MOL0     C 8922   0.571   9.232   9.096  0.1084  0.4427  0.8186
  826MOL0     C 8923   0.565   9.148   9.221  0.0084  0.0698 -0.9268
  826MOL0     O 8924   0.513   9.206   9.340 -0.2612  0.2636  0.9105
  826MOL0     C 8925   0.385   9.249   9.368  0.4791  0.4861 -0.0568
  826MOL0     C 8926   0.362   9.333   9.479  0.2749 -0.0517  0.1953
  826MOL0     C 8927   0.237   9.378   9.505 -0.0399 -0.8011  0.3486
  826MOL0     C 8928   0.131   9.356   9.423 -0.0066 -0.0516  0.8510
  826MOL0     C 8929  -0.002   9.412   9.463 -0.2728  0.1540 -0.8172
  826MOL0     O 8930  -0.108   9.332   9.434  0.0045  0.4734  0.0946
  826MOL0     C 8931  -0.231   9.382   9.419  0.1030  0.6231  0.6617
  826MOL0     C 8932  -0.274   9.503   9.343  0.0682  0.5137 -0.4428
  826MOL0     C 8933  -0.414   9.532   9.340  0.3654 -0.0740  0.1798
  826MOL0     C 8934  -0.518   9.453   9.397 -0.4451  0.7325 -0.4502
  826MOL0     O 8935  -0.654   9.471   9.408  0.1068 -0.1491 -0.2401
  826MOL0     C 8936  -0.696   9.605   9.387  0.1442  1.3260 -1.2638
  826MOL0     C 8937  -0.854   9.589   9.396  0.1635 -0.4558  0.0006
  826MOL0     C 8938  -0.945   9.713   9.371  0.1085  0.1673 -0.4008
  826MOL0     C 8939  -1.095   9.676   9.385 -0.0654  0.2620  0.3935
  826MOL0     C 8940  -1.174   9.807   9.395  0.7274  0.0272 -0.3520
  826MOL0     C 8941  -1.321   9.790   9.378  0.0688  0.5034  0.0060
  826MOL0     C 8942  -1.394   9.847   9.507  0.4303 -0.6460  1.7169
  826MOL0     C 8943  -1.549   9.868   9.487 -0.1862  0.5037  0.3604
  826MOL0    Cl 8944  -1.578  10.015   9.396  0.2327  0.2459  0.3376
  826MOL0     C 8945  -0.469   9.335   9.458 -0.2683  0.2970  1.7044
  826MOL0     C 8946  -0.333   9.305   9.473 -0.3359 -0.6715  0.7417
  826MOL0     O 8947  -0.001   9.530   9.508 -0.1327  0.1657 -0.1561
  826MOL0     C 8948   0.150   9.278   9.314 -0.2380  0.0374  0.0621
  826MOL0     C 8949   0.275   9.220   9.283 -0.6271 -0.2341  0.4659
  826MOL0     N 8950   0.669   9.056   8.712 -0.5937 -0.4574 -0.7544
  826MOL0     N 8951   0.752   8.990   8.635  0.3253 -0.3680 -0.5279
  826MOL0     C 8952   1.867   8.611   8.657 -0.5107 -0.5139  0.2854
  826MOL0     C 8953   1.993   8.543   8.631 -0.3832  0.0489 -1.4155
  826MOL0     C 8954   2.399   8.322   8.727  0.6991  0.9474  1.0047
  826MOL0     C 8955   2.458   8.369   8.601  0.1550 -0.2712 -0.4422
  826MOL0     C 8956   2.570   8.311   8.555 -0.5445  0.3760 -0.5080
  826MOL0     C 8957   2.639   8.209   8.625 -0.0570  0.2227 -1.5151
  826MOL0     O 8958   2.747   8.136   8.573  0.4556  0.0696 -0.6130
  826MOL0     C 8959   2.792   8.181   8.448  0.9219 -0.5480  0.7878
  826MOL0     C 8960   2.897   8.085   8.390  0.0164  0.3147 -0.4616
  826MOL0     C 8961   3.036   8.083   8.468  0.4082 -0.1520  0.7182
  826MOL0     C 8962   3.153   8.020   8.408 -0.5391 -0.4275 -0.1968
  826MOL0     C 8963   3.180   8.054   8.267  0.0868  0.2101 -0.3859
  826MOL0     C 8964   3.208   8.076   8.149 -0.6295 -0.4079  0.9569
  826MOL0     C 8965   2.584   8.164   8.741 -0.4908  0.6048  0.9865
  826MOL0     C 8966   2.466   8.216   8.792 -0.2914 -0.0694 -0.0362
  826MOL0     H 8967   2.051   8.428   8.942  0.3060  1.4365  0.2744
  826MOL0     H 8968   1.839   8.550   8.996  0.9393  0.0324 -0.5237
  826MOL0     H 8969   1.693   8.709   9.014 -0.2347 -3.6481  1.0135
  826MOL0     H 8970   1.584   8.586   8.961  2.5104 -0.5491  3.2152
  826MOL0     H 8971   1.564   8.887   8.912 -0.2708 -0.2385  0.8499
  826MOL0     H 8972   1.465   8.799   9.016  3.1995  0.6676  1.4905
  826MOL0     H 8973   1.357   8.677   8.793 -0.2549 -0.7308  2.1557
  826MOL0     H 8974   1.475   8.767   8.698  1.9024 -0.0985  1.0225
  826MOL0     H 8975   1.233   8.849   8.870  1.2458  2.0978  1.5130
  826MOL0     H 8976   1.343   8.968   8.803 -2.4967  0.7451  0.4495
  826MOL0     H 8977   1.143   8.771   8.682 -1.1378  1.5643  1.2718
  826MOL0     H 8978   1.281   8.824   8.578  1.1318  0.0904  0.8190
  826MOL0     H 8979   1.206   9.055   8.611 -0.3907 -0.6540 -2.0543
  826MOL0     H 8980   1.081   9.013   8.720 -4.8771 -1.2123 -1.7863
  826MOL0     H 8981   1.098   8.938   8.427  0.9705 -0.8042  0.0395
  826MOL0     H 8982   0.991   8.858   8.527  2.0487 -0.7935 -1.7285
  826MOL0     H 8983   0.878   9.042   8.410  0.0658  0.7982 -0.3113
  826MOL0     H 8984   1.001   9.161   8.479  1.3941 -0.0773  2.9810
  826MOL0     H 8985   0.910   9.277   8.690 -1.5624  1.2571  0.0169
  826MOL0     H 8986   0.597   9.304   8.816  0.3191  0.4511  0.1896
  826MOL0     H 8987   0.769   9.320   8.878 -0.2377 -0.4538  1.3548
  826MOL0     H 8988   0.760   9.136   9.025 -0.5255 -2.5767  0.5171
  826MOL0     H 8989   0.614   9.067   8.958 -0.2978  0.2926  1.4102
  826MOL0     H 8990   0.624   9.323   9.124  0.8070  0.2176  0.2545
  826MOL0     H 8991   0.471   9.249   9.055  1.0975  2.8498 -0.8083
  826MOL0     H 8992   0.662   9.110   9.255  1.1518  3.4609 -0.0398
  826MOL0     H 8993   0.506   9.056   9.215  1.8298 -1.1238 -1.9486
  826MOL0     H 8994   0.440   9.367   9.547 -0.5710  1.3132  0.5200
  826MOL0     H 8995   0.232   9.443   9.592  1.5245 -2.5840  1.8636
  826MOL0     H 8996  -0.206   9.558   9.278 -0.9228  4.0062  1.1908
  826MOL0     H 8997  -0.454   9.618   9.287 -2.9964 -2.0218 -0.7345
  826MOL0     H 8998  -0.668   9.643   9.289  2.3486 -0.3778 -1.3519
  826MOL0     H 8999  -0.658   9.680   9.457 -0.6794 -0.7408  1.5695
  826MOL0     H 9000  -0.862   9.546   9.496 -1.1935 -1.5323 -0.5361
  826MOL0     H 9001  -0.874   9.520   9.313  0.1991 -0.2514 -0.1800
  826MOL0     H 9002  -0.928   9.753   9.270  2.8371  0.5687  0.1264
  826MOL0     H 9003  -0.919   9.787   9.447 -3.2501 -0.4738  1.5673
  826MOL0     H 9004  -1.137   9.618   9.302 -1.5942  2.0563 -0.1511
  826MOL0     H 9005  -1.108   9.611   9.472  0.1396  1.5371  1.4035
  826MOL0     H 9006  -1.138   9.881   9.322  0.2522 -0.4861 -1.1206
  826MOL0     H 9007  -1.155   9.854   9.492  1.1199  0.8544 -0.8211
  826MOL0     H 9008  -1.345   9.684   9.370  0.0107  0.4839  0.4236
  826MOL0     H 9009  -1.362   9.835   9.287 -1.5884  0.0659  0.5035
  826MOL0     H 9010  -1.385   9.769   9.584 -2.0037 -2.4436  0.3596
  826MOL0     H 9011  -1.349   9.941   9.538 -0.3965  0.6011 -0.6391
  826MOL0     H 9012  -1.600   9.875   9.583 -2.3272 -1.4168 -0.5460
  826MOL0     H 9013  -1.597   9.785   9.435  0.0802  0.6969 -0.2001
  826MOL0     H 9014  -0.557   9.274   9.478 -1.3802 -0.0715 -3.0614
  826MOL0     H 9015  -0.295   9.210   9.509  1.3816  0.1472  1.1672
  826MOL0     H 9016   0.070   9.248   9.248  1.6637 -0.3555 -2.1863
  826MOL0     H 9017   0.297   9.155   9.199 -0.2803 -0.1604  0.4954
  826MOL0     H 9018   1.802   8.667   8.591 -1.8483 -0.4569  1.6061
  826MOL0     H 9019   2.043   8.544   8.535  1.7357 -2.5882 -0.4788
  826MOL0     H 9020   2.418   8.460   8.558  1.0022 -0.2756 -1.2667
  826MOL0     H 9021   2.603   8.344   8.458 -1.8692  0.6508 -0.8862
  826MOL0     H 9022   2.830   8.282   8.432 -1.1759  0.1806  0.1018
  826MOL0     H 9023   2.705   8.170   8.382  0.9701  0.0741  0.6152
  826MOL0     H 9024   2.848   7.988   8.377 -0.3502  0.5454 -0.8347
  826MOL0     H 9025   2.925   8.113   8.288 -1.3888 -0.0676 -0.9769
  826MOL0     H 9026   3.036   8.057   8.574 -0.6270 -1.3888  0.4411
  826MOL0     H 9027   3.062   8.190   8.473 -1.1222  0.2213  1.0764
  826MOL0     H 9028   3.243   8.042   8.467 -1.8616 -1.0291  2.1938
  826MOL0     H 9029   3.134   7.912   8.407 -0.2642 -0.4733 -1.1828
  826MOL0     H 9030   3.230   8.088   8.044  0.0974  1.8313  1.3146
  826MOL0     H 9031   2.620   8.078   8.796 -3.9519 -0.2558  2.1238
  826MOL0     H 9032   2.432   8.178   8.888  0.2376  0.4088  0.3501
  827MOL0     O 9033   1.984   1.439   8.254 -0.1268  0.4741  0.0064
  827MOL0     C 9034   1.964   1.313   8.233 -0.5767  0.1002  0.5587
  827MOL0     O 9035   1.894   1.230   8.317  0.2058 -0.2171  0.2874
  827MOL0     C 9036   1.840   1.284   8.428 -0.7034 -0.2799 -0.2083
  827MOL0     C 9037   1.911   1.291   8.545  0.4647 -0.0080  0.3167
  827MOL0     C 9038   1.843   1.345   8.657 -0.4567  0.2073  0.0442
  827MOL0     C 9039   1.710   1.377   8.652  0.2731 -1.1839  0.1562
  827MOL0     O 9040   1.638   1.410   8.758  0.2307  0.1140  0.0792
  827MOL0     C 9041   1.671   1.531   8.823  0.0306  0.5444  0.1181
  827MOL0     C 9042   1.583   1.561   8.946  0.7890 -0.3925  0.0688
  827MOL0     C 9043   1.453   1.630   8.907  0.3458 -0.1230 -0.3940
  827MOL0     C 9044   1.366   1.675   9.025  0.2745  0.2252 -0.3085
  827MOL0     C 9045   1.216   1.693   8.988 -0.1462 -0.6188 -0.6573
  827MOL0     C 9046   1.137   1.752   9.098  0.2769 -0.4771  0.1886
  827MOL0     C 9047   1.155   1.899   9.115  0.5757 -1.3013  0.4310
  827MOL0     C 9048   1.019   1.956   9.177  0.3407 -0.2153  0.9009
  827MOL0     N 9049   1.002   2.099   9.161  0.7984 -0.1442  0.6614
  827MOL0     C 9050   1.053   2.192   9.250 -0.6809 -0.8272 -0.3283
  827MOL0     C 9051   1.017   2.309   9.195  0.0833 -0.4434  0.1914
  827MOL0     C 9052   1.065   2.448   9.235  0.6467 -0.2642  0.4881
  827MOL0     C 9053   0.968   2.504   9.344  0.0924  0.3359 -0.0028
  827MOL0     C 9054   1.037   2.579   9.457 -0.6931  0.4948  0.1270
  827MOL0     C 9055   0.933   2.617   9.571 -0.1097  0.4978  0.1332
  827MOL0     O 9056   0.844   2.716   9.524  0.1443 -0.8044  0.0154
  827MOL0     C 9057   0.723   2.756   9.581  0.0180  1.1669  0.0201
  827MOL0     C 9058   0.617   2.807   9.501 -0.3641 -0.4052  0.2638
  827MOL0     C 9059   0.490   2.835   9.552  0.5247 -0.2832 -0.2452
  827MOL0     C 9060   0.462   2.818   9.686 -0.2086 -0.0317  0.3247
  827MOL0     C 9061   0.335   2.863   9.732 -0.1228 -0.3076 -0.0016
  827MOL0     O 9062   0.294   2.801   9.846  0.0256 -0.4378  0.1053
  827MOL0     C 9063   0.173   2.833   9.898  0.2954  0.7724  0.2400
  827MOL0     C 9064   0.064   2.750   9.885 -0.5152 -0.5892 -0.3900
  827MOL0     C 9065  -0.057   2.791   9.942  1.2853  1.1371 -0.9295
  827MOL0     C 9066  -0.066   2.917  10.006 -0.0668  1.0173  0.0308
  827MOL0     O 9067  -0.175   2.966  10.072  0.0438 -0.3458 -0.1745
  827MOL0     C 9068  -0.301   2.901  10.080 -0.4856  0.0993  0.5559
  827MOL0     C 9069  -0.377   2.986  10.185  0.5963 -0.4100 -0.5944
  827MOL0     C 9070  -0.526   2.930  10.197 -0.3095  0.6909 -0.8757
  827MOL0     C 9071  -0.615   3.003  10.309 -0.0756 -0.1098  0.1293
  827MOL0     C 9072  -0.758   2.988  10.261  0.7279  0.1551  0.4308
  827MOL0     C 9073  -0.851   3.060  10.366 -0.5082  0.8762  0.3605
  827MOL0     C 9074  -0.980   3.101  10.297 -0.1567 -0.4716  1.2673
  827MOL0     C 9075  -1.064   3.182  10.402 -0.0192  0.8537  0.0593
  827MOL0    Cl 9076  -1.023   3.350  10.394 -0.1401 -0.1328  0.0622
  827MOL0     C 9077   0.054   3.001  10.008  0.2499 -0.1495  0.3877
  827MOL0     C 9078   0.168   2.958   9.957 -0.9551  0.7893  1.4085
  827MOL0     O 9079   0.278   2.950   9.672 -0.5403 -0.2698  0.9584
  827MOL0     C 9080   0.568   2.769   9.766  0.5236 -0.9518 -0.4018
  827MOL0     C 9081   0.696   2.742   9.718 -0.8213 -0.3584  0.5292
  827MOL0     N 9082   0.940   2.285   9.080  1.0496 -0.0049 -0.1306
  827MOL0     N 9083   0.925   2.159   9.065  0.5757 -0.4009  0.3664
  827MOL0     C 9084   1.637   1.369   8.533 -0.2184  0.6432 -1.0883
  827MOL0     C 9085   1.706   1.314   8.421  0.2217  0.2799  0.3703
  827MOL0     C 9086   2.061   1.253   8.139 -0.1196  0.6779 -0.4226
  827MOL0     C 9087   2.183   1.310   8.101  0.6010 -0.8930 -0.0876
  827MOL0     C 9088   2.276   1.245   8.022  0.0730 -0.2830  1.4090
  827MOL0     C 9089   2.250   1.111   7.982 -1.0669  0.1455 -0.5461
  827MOL0     O 9090   2.351   1.048   7.917  0.2641  1.0143 -0.3445
  827MOL0     C 9091   2.429   0.950   8.003 -0.0145 -0.5046  1.1353
  827MOL0     C 9092   2.532   1.021   8.093  0.3426  0.3120  0.4818
  827MOL0     C 9093   2.648   1.096   8.017 -0.0766  0.4799 -0.3815
  827MOL0     C 9094   2.720   1.020   7.906  0.1249 -0.5724  0.2903
  827MOL0     C 9095   2.774   0.894   7.933  0.8706  0.1812 -0.7344
  827MOL0     C 9096   2.817   0.779   7.957  0.1105  0.8958  0.1873
  827MOL0     C 9097   2.134   1.051   8.026 -0.3380  0.8226 -0.1173
  827MOL0     C 9098   2.040   1.118   8.112 -0.5874  0.2638  0.4162
  827MOL0     H 9099   2.018   1.271   8.548  0.2569 -1.0860  1.9660
  827MOL0     H 9100   1.898   1.334   8.750  1.2725 -4.7415 -1.2575
  827MOL0     H 9101   1.683   1.619   8.759  1.1331 -0.2533 -0.8261
  827MOL0     H 9102   1.774   1.530   8.861 -0.0696  0.3314  0.3900
  827MOL0     H 9103   1.634   1.629   9.015  0.9061 -0.0030 -0.3975
  827MOL0     H 9104   1.562   1.469   9.002 -0.3710 -1.3714 -1.8653
  827MOL0     H 9105   1.401   1.556   8.846  1.6719  0.9404 -2.9691
  827MOL0     H 9106   1.475   1.719   8.847  0.9142 -1.0683 -1.6187
  827MOL0     H 9107   1.383   1.603   9.105  2.2509 -1.0118 -1.7573
  827MOL0     H 9108   1.407   1.769   9.063  1.2831 -0.8531  1.3768
  827MOL0     H 9109   1.185   1.593   8.956 -0.1758 -1.1397  0.9417
  827MOL0     H 9110   1.207   1.755   8.898 -0.2300 -0.1481 -0.3324
  827MOL0     H 9111   1.157   1.707   9.196  1.6606  3.7643  2.0548
  827MOL0     H 9112   1.034   1.734   9.068  0.6503 -0.0024 -1.4354
  827MOL0     H 9113   1.241   1.919   9.180  2.4381 -0.0093 -2.2317
  827MOL0     H 9114   1.174   1.949   9.020 -0.3864  2.3899  1.9902
  827MOL0     H 9115   1.016   1.939   9.285  0.8301 -3.8540  0.4683
  827MOL0     H 9116   0.928   1.921   9.128 -0.7274  1.8517  1.2681
  827MOL0     H 9117   1.115   2.178   9.339 -0.6643 -0.4504 -0.2763
  827MOL0     H 9118   1.079   2.510   9.146  3.3917 -1.3774  0.0324
  827MOL0     H 9119   1.160   2.434   9.288 -0.8203  0.5211  3.5424
  827MOL0     H 9120   0.900   2.422   9.368 -0.0717  0.5088  0.1261
  827MOL0     H 9121   0.905   2.581   9.297  0.4967  0.6483 -0.0420
  827MOL0     H 9122   1.125   2.520   9.484 -0.0688  2.3998  2.5718
  827MOL0     H 9123   1.078   2.676   9.426  0.2610  1.4889  3.9518
  827MOL0     H 9124   0.977   2.651   9.665 -0.6644 -0.4899  0.7688
  827MOL0     H 9125   0.876   2.528   9.599  1.1230  0.2554  1.9890
  827MOL0     H 9126   0.640   2.828   9.397  0.0163  1.2665  0.6403
  827MOL0     H 9127   0.416   2.855   9.474  2.1530  1.2028 -1.4818
  827MOL0     H 9128   0.079   2.661   9.824  3.1033 -0.3538 -0.0972
  827MOL0     H 9129  -0.140   2.723   9.926  1.5118  0.2434  1.3351
  827MOL0     H 9130  -0.285   2.796  10.104  1.4581 -0.2192 -1.7138
  827MOL0     H 9131  -0.355   2.902   9.985 -1.7365 -0.2081  1.2435
  827MOL0     H 9132  -0.374   3.094  10.168  3.0844  0.0546  2.0711
  827MOL0     H 9133  -0.329   2.975  10.282 -0.5043  3.2437  0.5430
  827MOL0     H 9134  -0.531   2.821  10.197 -0.5085  0.6959 -0.1590
  827MOL0     H 9135  -0.567   2.955  10.098  0.7027  1.6886 -1.0732
  827MOL0     H 9136  -0.604   2.967  10.411 -1.8604 -2.6499 -0.4703
  827MOL0     H 9137  -0.584   3.107  10.304  0.3693 -0.2126  0.6650
  827MOL0     H 9138  -0.780   2.881  10.252  2.1431 -0.0308 -1.4420
  827MOL0     H 9139  -0.783   3.026  10.162 -2.8466 -1.2883  0.6083
  827MOL0     H 9140  -0.803   3.155  10.394  0.8136  0.7212 -1.2287
  827MOL0     H 9141  -0.880   3.002  10.454 -0.5703  0.9001  0.3553
  827MOL0     H 9142  -0.958   3.165  10.212  1.2916 -0.0137  1.9502
  827MOL0     H 9143  -1.048   3.020  10.270  0.4415 -0.0925 -1.6167
  827MOL0     H 9144  -1.043   3.145  10.503 -1.2358  0.6736  0.2657
  827MOL0     H 9145  -1.170   3.178  10.375  0.7371 -1.6750 -3.2526
  827MOL0     H 9146   0.050   3.100  10.053  2.3138  0.2339 -0.1641
  827MOL0     H 9147   0.261   3.013   9.960 -0.2959 -0.3227  2.8674
  827MOL0     H 9148   0.537   2.769   9.870 -1.8590  2.3940 -0.9594
  827MOL0     H 9149   0.762   2.705   9.795  1.8392 -0.0320 -1.4628
  827MOL0     H 9150   1.532   1.398   8.536 -1.4305 -3.3588  0.1364
  827MOL0     H 9151   1.650   1.305   8.329  2.7390  1.6991 -1.3975
  827MOL0     H 9152   2.213   1.409   8.136 -0.1025 -1.6772  3.0425
  827MOL0     H 9153   2.379   1.275   8.006 -0.2395 -0.2357 -0.8528
  827MOL0     H 9154   2.469   0.879   7.929  2.5731 -0.5520  2.4624
  827MOL0     H 9155   2.378   0.883   8.073  3.1227 -0.9461  3.1926
  827MOL0     H 9156   2.484   1.090   8.164  2.8051  2.9819 -0.2872
  827MOL0     H 9157   2.563   0.941   8.160  0.6040  0.8170  0.9729
  827MOL0     H 9158   2.718   1.121   8.097  2.2503  1.3807 -2.5675
  827MOL0     H 9159   2.607   1.185   7.969  1.5926  1.3322 -0.3036
  827MOL0     H 9160   2.655   1.014   7.818 -0.1544  2.7456  0.1390
  827MOL0     H 9161   2.803   1.082   7.871 -1.7902  0.0060 -3.9436
  827MOL0     H 9162   2.842   0.677   7.981  2.0002  1.6860  1.9385
  827MOL0     H 9163   2.121   0.947   7.995  2.6345  0.0472  0.9092
  827MOL0     H 9164   1.950   1.068   8.147 -0.5336 -1.0383 -1.2001
  828MOL0     O 9165   9.943   4.378   7.509 -0.3695 -0.3724  0.1850
  828MOL0     C 9166   9.999   4.329   7.417 -0.3289  0.2325  0.4145
  828MOL0     O 9167   9.944   4.223   7.340 -0.2257 -0.1836  0.2193
  828MOL0     C 9168   9.830   4.167   7.385  0.4494  1.0198 -0.0938
  828MOL0     C 9169   9.834   4.074   7.494  0.5816  0.3124  0.3405
  828MOL0     C 9170   9.707   4.039   7.550  0.8840 -0.3986  0.8262
  828MOL0     C 9171   9.590   4.083   7.499  0.4922 -0.1501 -0.2066
  828MOL0     O 9172   9.475   4.057   7.571  1.1991 -1.6096 -0.3829
  828MOL0     C 9173   9.342   4.041   7.512  0.3533 -1.2863  0.2038
  828MOL0     C 9174   9.276   3.910   7.556  0.3575 -0.2131 -0.1836
  828MOL0     C 9175   9.296   3.877   7.703 -0.2642  0.5541  0.3927
  828MOL0     C 9176   9.409   3.789   7.743  0.0068 -0.2295 -0.1875
  828MOL0     C 9177   9.396   3.737   7.891  0.4596 -0.4229 -0.4447
  828MOL0     C 9178   9.522   3.675   7.956 -0.0367 -0.6240  0.0986
  828MOL0     C 9179   9.657   3.751   7.941 -0.0063 -0.2447  0.0298
  828MOL0     C 9180   9.659   3.876   8.028 -0.0203 -0.6538  0.1118
  828MOL0     N 9181   9.774   3.956   8.007 -0.6971  0.3691 -0.2914
  828MOL0     C 9182   9.796   4.052   7.921  0.0432  0.2115  0.2026
  828MOL0     C 9183   9.922   4.091   7.942 -0.0324 -0.9863 -0.0471
  828MOL0     C 9184  10.004   4.188   7.857 -0.5201  0.0734  0.0325
  828MOL0     C 9185  10.004   4.324   7.922 -0.4637  0.3942 -1.0610
  828MOL0     C 9186   9.945   4.441   7.837 -0.8379  0.5225 -1.1801
  828MOL0     C 9187   9.798   4.431   7.812 -0.6082 -0.1346  1.1436
  828MOL0     O 9188   9.719   4.484   7.922 -0.0601 -0.1682  0.4164
  828MOL0     C 9189   9.612   4.409   7.951 -0.2673  0.2419  0.6422
  828MOL0     C 9190   9.541   4.434   8.074 -0.4553  0.9452 -0.0830
  828MOL0     C 9191   9.437   4.346   8.109 -0.6129 -0.4693 -0.6601
  828MOL0     C 9192   9.377   4.262   8.019 -0.5956  0.1397  0.7831
  828MOL0     C 9193   9.270   4.179   8.070  1.1075  1.0471  0.6269
  828MOL0     O 9194   9.200   4.221   8.182  0.8856 -0.0248  0.6763
  828MOL0     C 9195   9.092   4.141   8.219 -0.0403 -0.3172  0.6434
  828MOL0     C 9196   9.107   4.063   8.329 -0.1856  0.9157  0.4394
  828MOL0     C 9197   9.002   3.982   8.375  0.5535  0.5009 -0.2103
  828MOL0     C 9198   8.883   3.975   8.309  0.1799  0.3223 -0.0496
  828MOL0     O 9199   8.787   3.894   8.374 -0.0336 -0.4880  0.4385
  828MOL0     C 9200   8.659   3.861   8.309  0.6447 -0.8102 -0.0841
  828MOL0     C 9201   8.541   3.877   8.404 -1.0324  1.1884 -0.2124
  828MOL0     C 9202   8.518   4.025   8.433 -0.4298  0.1248 -1.2661
  828MOL0     C 9203   8.406   4.060   8.538 -0.6046  0.1902  1.6114
  828MOL0     C 9204   8.364   4.211   8.519  0.1742  0.1342  0.1182
  828MOL0     C 9205   8.478   4.316   8.529  0.8453 -0.1439 -0.8512
  828MOL0     C 9206   8.421   4.454   8.514  0.1924 -0.8084  0.9073
  828MOL0     C 9207   8.400   4.498   8.367 -0.2259 -0.1645  0.3505
  828MOL0    Cl 9208   8.384   4.677   8.371  0.0979 -0.0674  0.1731
  828MOL0     C 9209   8.864   4.049   8.197  1.0463 -0.9445  0.2823
  828MOL0     C 9210   8.965   4.131   8.152  0.0328  0.3428 -0.8034
  828MOL0     O 9211   9.256   4.071   8.011 -0.1473  0.1319 -0.1074
  828MOL0     C 9212   9.440   4.247   7.901  0.1802 -0.5194 -0.2868
  828MOL0     C 9213   9.554   4.322   7.867 -0.6558  0.2012  0.2591
  828MOL0     N 9214   9.977   4.016   8.041 -0.0413  1.1390 -0.3708
  828MOL0     N 9215   9.884   3.927   8.077  0.0680 -0.1704 -0.6446
  828MOL0     C 9216   9.591   4.164   7.378 -0.4180  0.3814 -0.1692
  828MOL0     C 9217   9.709   4.207   7.328  0.7034 -0.3203 -0.2361
  828MOL0     C 9218  10.132   4.376   7.379  0.1545 -0.4111 -0.3204
  828MOL0     C 9219  10.219   4.317   7.276  0.7219 -0.2359 -0.9616
  828MOL0     C 9220  10.345   4.359   7.255  0.2755 -0.6300 -0.2342
  828MOL0     C 9221  10.386   4.475   7.322 -0.6833 -0.4535 -0.3247
  828MOL0     O 9222  10.508   4.516   7.285  0.2645 -0.4003  0.4016
  828MOL0     C 9223  10.614   4.484   7.378 -0.1878 -0.2116 -0.7647
  828MOL0     C 9224  10.706   4.393   7.297  0.3685  0.4565  0.0979
  828MOL0     C 9225  10.811   4.335   7.391  0.1850 -0.7270  0.6715
  828MOL0     C 9226  10.882   4.210   7.337 -0.0629 -0.4405 -0.2153
  828MOL0     C 9227  10.941   4.217   7.201  0.4814  0.1483 -0.4199
  828MOL0     C 9228  10.997   4.220   7.097 -0.3111 -0.5086 -0.0034
  828MOL0     C 9229  10.302   4.546   7.405  0.6344 -0.2317 -0.3806
  828MOL0     C 9230  10.175   4.498   7.432 -0.8104  1.1307 -0.1499
  828MOL0     H 9231   9.936   4.054   7.526  0.5959  0.6120  0.4875
  828MOL0     H 9232   9.699   3.982   7.641 -2.1975  2.2707  2.4073
  828MOL0     H 9233   9.348   4.045   7.403 -1.4327  0.3714  0.1222
  828MOL0     H 9234   9.281   4.126   7.544  2.9744  0.9827 -0.4441
  828MOL0     H 9235   9.317   3.833   7.490 -0.3658 -2.1436  1.5263
  828MOL0     H 9236   9.168   3.910   7.542  0.5383 -0.9175 -1.7695
  828MOL0     H 9237   9.205   3.837   7.748  0.1234 -0.4648  0.2831
  828MOL0     H 9238   9.310   3.966   7.766  0.1825 -0.3889  1.6612
  828MOL0     H 9239   9.406   3.695   7.686  1.6966 -0.4668  0.0868
  828MOL0     H 9240   9.500   3.841   7.714  1.5167 -1.4684  2.0357
  828MOL0     H 9241   9.318   3.661   7.902  0.4342 -0.2316  0.9091
  828MOL0     H 9242   9.363   3.819   7.956 -1.2693 -2.2194  1.0698
  828MOL0     H 9243   9.540   3.584   7.898 -1.5025 -0.9124  0.0497
  828MOL0     H 9244   9.511   3.647   8.061 -0.3299  0.2942  0.3229
  828MOL0     H 9245   9.731   3.678   7.977 -2.0006 -1.9454  0.8688
  828MOL0     H 9246   9.674   3.782   7.837 -1.1414  0.5311  0.0603
  828MOL0     H 9247   9.655   3.848   8.133  0.2345  2.2652  0.9956
  828MOL0     H 9248   9.578   3.943   7.999  1.8778  2.6792  1.9245
  828MOL0     H 9249   9.734   4.089   7.840  0.5712  0.3174 -0.1580
  828MOL0     H 9250   9.966   4.201   7.755 -1.9024  2.2408  0.7745
  828MOL0     H 9251  10.104   4.143   7.848 -1.2186 -1.1444 -2.7664
  828MOL0     H 9252  10.109   4.345   7.946 -0.7561  1.8422 -0.9051
  828MOL0     H 9253   9.951   4.313   8.017  0.6494  0.4509 -0.4100
  828MOL0     H 9254   9.953   4.524   7.907 -1.8319  0.2206 -0.6902
  828MOL0     H 9255  10.006   4.457   7.747  2.9986  1.8660  1.4169
  828MOL0     H 9256   9.790   4.331   7.768  1.6353  0.5046 -0.9086
  828MOL0     H 9257   9.784   4.503   7.730  1.8423  1.0603  1.6947
  828MOL0     H 9258   9.590   4.512   8.133  2.2226  0.2392 -1.2004
  828MOL0     H 9259   9.397   4.368   8.207 -1.1956  1.1460 -1.2239
  828MOL0     H 9260   9.201   4.068   8.383  1.0650 -1.1359 -1.4125
  828MOL0     H 9261   9.008   3.917   8.462  1.8692 -0.3572 -0.8965
  828MOL0     H 9262   8.666   3.757   8.278  3.0074 -0.9869  0.7869
  828MOL0     H 9263   8.647   3.923   8.220 -2.0015  1.0599  1.4207
  828MOL0     H 9264   8.563   3.808   8.486 -2.6388  0.2286 -0.5642
  828MOL0     H 9265   8.449   3.836   8.363 -0.1976 -1.1718  0.1144
  828MOL0     H 9266   8.508   4.077   8.338 -1.3145 -0.1398 -1.3341
  828MOL0     H 9267   8.612   4.061   8.474 -2.1536  3.2120  0.3277
  828MOL0     H 9268   8.322   3.993   8.517  1.3743 -2.1516  0.7182
  828MOL0     H 9269   8.444   4.046   8.639 -5.4205 -0.2917  3.6268
  828MOL0     H 9270   8.288   4.241   8.592  2.0516  2.3204  1.2967
  828MOL0     H 9271   8.317   4.228   8.422  0.4803 -0.8138 -0.2058
  828MOL0     H 9272   8.553   4.296   8.451  2.7429  2.4028  0.1926
  828MOL0     H 9273   8.524   4.305   8.627 -1.7270  1.9022  0.7255
  828MOL0     H 9274   8.332   4.465   8.576  1.4515  2.5690  2.3234
  828MOL0     H 9275   8.485   4.533   8.553 -1.2551  0.8533  0.0645
  828MOL0     H 9276   8.307   4.458   8.327  1.5131 -0.9641 -3.3723
  828MOL0     H 9277   8.474   4.453   8.299 -0.2124 -2.7773  1.9347
  828MOL0     H 9278   8.772   4.048   8.139  1.1871  1.0465 -0.0230
  828MOL0     H 9279   8.947   4.187   8.061  0.5068  0.8543 -0.5858
  828MOL0     H 9280   9.399   4.178   7.827 -0.8084 -1.5024  1.1198
  828MOL0     H 9281   9.589   4.295   7.768 -0.5807  2.6215 -0.4470
  828MOL0     H 9282   9.493   4.200   7.350 -0.6926 -0.2460 -0.0404
  828MOL0     H 9283   9.703   4.281   7.249 -2.3101  0.0246  0.2007
  828MOL0     H 9284  10.173   4.236   7.220 -1.6199 -1.7257  2.7293
  828MOL0     H 9285  10.411   4.313   7.181  0.0430 -0.2616 -0.6792
  828MOL0     H 9286  10.591   4.424   7.467  1.2279  1.0591  0.5113
  828MOL0     H 9287  10.660   4.574   7.420  3.7950 -3.2320  2.1761
  828MOL0     H 9288  10.646   4.309   7.261  2.1046 -1.0543  0.5745
  828MOL0     H 9289  10.753   4.445   7.214 -1.0611  1.8035  0.0694
  828MOL0     H 9290  10.765   4.306   7.486 -1.6419 -1.1174 -0.2727
  828MOL0     H 9291  10.890   4.404   7.418  1.5316 -1.2648 -1.5955
  828MOL0     H 9292  10.966   4.183   7.401 -0.9244 -1.8543  0.3464
  828MOL0     H 9293  10.813   4.126   7.344 -1.5418  0.8709  2.7242
  828MOL0     H 9294  11.061   4.215   7.010  0.4150  0.1874  0.4799
  828MOL0     H 9295  10.328   4.636   7.460  0.2680  0.3889 -1.2064
  828MOL0     H 9296  10.115   4.549   7.505 -1.0737 -1.2021  1.3789
  829MOL0     O 9297   0.671  11.016  10.903 -0.1426  0.2786  0.6056
  829MOL0     C 9298   0.719  10.995  10.786  0.0886 -0.0539 -0.6070
  829MOL0     O 9299   0.650  10.991  10.663 -0.6119 -0.0883 -0.3045
  829MOL0     C 9300   0.518  11.022  10.675  0.5357 -0.2196  0.0737
  829MOL0     C 9301   0.419  10.954  10.752 -0.5132  0.2361 -0.2456
  829MOL0     C 9302   0.284  10.986  10.752 -0.2703 -0.5256 -0.6820
  829MOL0     C 9303   0.251  11.100  10.673  0.8686  0.1459  0.1763
  829MOL0     O 9304   0.125  11.163  10.666 -0.1922  0.6437  0.3383
  829MOL0     C 9305   0.008  11.082  10.701 -0.1776 -0.0096 -0.2703
  829MOL0     C 9306  -0.120  11.164  10.668 -0.5765  1.5006 -0.3785
  829MOL0     C 9307  -0.257  11.087  10.671 -0.0533  0.1402 -0.0919
  829MOL0     C 9308  -0.274  11.021  10.532  0.2015 -0.2026  0.2287
  829MOL0     C 9309  -0.390  10.932  10.515 -0.6135 -0.1444 -0.3789
  829MOL0     C 9310  -0.404  10.867  10.373 -0.1170 -0.0084 -0.2718
  829MOL0     C 9311  -0.541  10.782  10.365 -0.0917 -0.3199  0.2856
  829MOL0     C 9312  -0.530  10.649  10.455 -0.3070 -0.6094 -0.3277
  829MOL0     N 9313  -0.648  10.568  10.462  0.3804  0.0923  0.1156
  829MOL0     C 9314  -0.656  10.449  10.395  0.1200 -0.0487 -0.1356
  829MOL0     C 9315  -0.757  10.381  10.450 -0.0830  0.2820  0.1909
  829MOL0     C 9316  -0.782  10.239  10.419 -0.0513 -0.2427 -0.2540
  829MOL0     C 9317  -0.706  10.145  10.516 -0.2445 -0.8769  0.6748
  829MOL0     C 9318  -0.737  10.154  10.669 -0.1458 -0.5952  0.1468
  829MOL0     C 9319  -0.886  10.136  10.689  0.1856 -0.3390  0.4758
  829MOL0     O 9320  -0.912  10.009  10.631 -0.5207 -0.4459  0.0622
  829MOL0     C 9321  -1.045   9.987  10.610  0.0529  0.2426 -0.2255
  829MOL0     C 9322  -1.077   9.864  10.561 -0.1845  0.0560  0.0375
  829MOL0     C 9323  -1.204   9.819  10.543  0.4791 -0.2247 -0.2313
  829MOL0     C 9324  -1.310   9.917  10.564 -0.7004  0.8060 -0.7191
  829MOL0     C 9325  -1.447   9.877  10.535  0.5183  0.4346 -0.8194
  829MOL0     O 9326  -1.542   9.967  10.544 -0.1583 -0.6331 -0.7719
  829MOL0     C 9327  -1.678   9.929  10.531  0.0326  0.3325  0.2289
  829MOL0     C 9328  -1.733   9.824  10.603 -0.5546  0.5348 -0.2308
  829MOL0     C 9329  -1.870   9.787  10.605  0.5580  0.4247 -0.1398
  829MOL0     C 9330  -1.961   9.860  10.532 -0.3461  0.3390  0.6116
  829MOL0     O 9331  -2.096   9.835  10.536  0.0545  0.3628  0.3054
  829MOL0     C 9332  -2.167   9.840  10.662  0.4526 -0.3899  0.0616
  829MOL0     C 9333  -2.307   9.795  10.638  0.6722  0.4873 -0.5200
  829MOL0     C 9334  -2.405   9.874  10.554 -0.4067 -0.1140  0.1264
  829MOL0     C 9335  -2.546   9.810  10.560 -0.2541 -0.9045 -0.0156
  829MOL0     C 9336  -2.646   9.883  10.469 -0.1424 -0.5143 -0.0202
  829MOL0     C 9337  -2.784   9.846  10.509 -0.9277 -0.1052 -0.3234
  829MOL0     C 9338  -2.901   9.868  10.409 -0.5108 -1.0021 -0.0791
  829MOL0     C 9339  -2.892   9.807  10.274 -0.2375  0.3563 -0.1137
  829MOL0    Cl 9340  -3.038   9.854  10.174 -0.0443 -0.0923  0.2255
  829MOL0     C 9341  -1.906   9.973  10.465 -0.0833 -0.1160  0.1981
  829MOL0     C 9342  -1.765  10.006  10.464  0.0339 -0.3107 -0.3237
  829MOL0     O 9343  -1.465   9.758  10.511 -0.4521 -0.2576 -0.4413
  829MOL0     C 9344  -1.281  10.048  10.607 -0.7454  1.0218 -0.7134
  829MOL0     C 9345  -1.147  10.081  10.632  0.1086 -0.9484  0.1811
  829MOL0     N 9346  -0.804  10.458  10.563 -0.2277  0.3324 -0.0674
  829MOL0     N 9347  -0.743  10.570  10.567  0.1884  0.7543  0.2462
  829MOL0     C 9348   0.345  11.163  10.602  0.2805  0.0302  0.7215
  829MOL0     C 9349   0.480  11.126  10.589 -0.0756  0.2315 -0.4264
  829MOL0     C 9350   0.863  10.957  10.771  0.2710  0.1802  0.4145
  829MOL0     C 9351   0.915  10.900  10.652  0.8403  0.8118 -0.0808
  829MOL0     C 9352   1.050  10.863  10.638 -0.2855 -0.4115 -0.3136
  829MOL0     C 9353   1.139  10.886  10.745  1.5098 -0.1175  0.7158
  829MOL0     O 9354   1.262  10.843  10.739 -0.1925 -0.2734  0.0864
  829MOL0     C 9355   1.285  10.712  10.768  0.1989  0.0907 -0.3115
  829MOL0     C 9356   1.424  10.693  10.823 -0.3931 -0.2808 -0.5576
  829MOL0     C 9357   1.469  10.790  10.926  0.1218 -1.0878 -0.7445
  829MOL0     C 9358   1.533  10.912  10.868  0.2255 -0.2817 -0.0442
  829MOL0     C 9359   1.668  10.887  10.821 -0.1704  0.3119 -0.6795
  829MOL0     C 9360   1.777  10.870  10.774  0.1518 -0.7845  0.1235
  829MOL0     C 9361   1.085  10.938  10.865 -0.2369 -0.9070 -0.1114
  829MOL0     C 9362   0.950  10.983  10.872 -0.3371 -0.6350  0.1526
  829MOL0     H 9363   0.452  10.863  10.802  1.1980  0.9162 -0.0710
  829MOL0     H 9364   0.215  10.929  10.814 -1.4591  3.1793  1.7550
  829MOL0     H 9365   0.017  11.066  10.809  0.5008 -1.1913 -0.4805
  829MOL0     H 9366   0.002  10.985  10.650  0.5372 -0.6758  0.8550
  829MOL0     H 9367  -0.119  11.201  10.565 -3.1717  1.8694 -0.3417
  829MOL0     H 9368  -0.131  11.242  10.744  1.8287  0.5307  1.0910
  829MOL0     H 9369  -0.342  11.155  10.681 -0.8510 -0.4006 -2.6194
  829MOL0     H 9370  -0.253  11.014  10.753  0.5763  1.3643  1.0167
  829MOL0     H 9371  -0.271  11.091  10.448  2.1169 -3.0450 -2.2975
  829MOL0     H 9372  -0.187  10.956  10.519 -0.0115 -0.1259 -1.9440
  829MOL0     H 9373  -0.485  10.985  10.527 -0.4992  0.4982 -2.0499
  829MOL0     H 9374  -0.371  10.851  10.587  0.3061  0.8026  0.4817
  829MOL0     H 9375  -0.318  10.806  10.347 -1.3988 -1.9182 -0.2408
  829MOL0     H 9376  -0.419  10.947  10.299 -1.3054 -0.0980 -0.1562
  829MOL0     H 9377  -0.624  10.845  10.399  0.6021  0.7060  0.1000
  829MOL0     H 9378  -0.569  10.758  10.262  1.0596  0.1836 -0.1560
  829MOL0     H 9379  -0.498  10.682  10.554  0.8399  4.5790 -2.0882
  829MOL0     H 9380  -0.451  10.589  10.410 -0.1469 -0.4835 -0.2174
  829MOL0     H 9381  -0.585  10.413  10.321  3.4309  0.7074  2.4038
  829MOL0     H 9382  -0.744  10.211  10.320 -0.3161 -0.0849 -0.4016
  829MOL0     H 9383  -0.889  10.216  10.426  0.5254 -2.5552  3.3915
  829MOL0     H 9384  -0.598  10.156  10.500 -0.0983  0.5722  2.3148
  829MOL0     H 9385  -0.732  10.041  10.493  0.3165 -0.5074 -1.9103
  829MOL0     H 9386  -0.692  10.074  10.729  0.2352 -0.4207  0.0982
  829MOL0     H 9387  -0.708  10.248  10.718  1.4636 -1.4951  1.0297
  829MOL0     H 9388  -0.929  10.214  10.625 -1.4356 -1.3499  0.2893
  829MOL0     H 9389  -0.912  10.152  10.794 -1.0080 -2.8863  0.6383
  829MOL0     H 9390  -0.997   9.795  10.538  0.6888  0.0808  2.6531
  829MOL0     H 9391  -1.227   9.721  10.503  2.3618 -0.3234 -1.1794
  829MOL0     H 9392  -1.667   9.775  10.673 -0.5571  0.7090 -0.1068
  829MOL0     H 9393  -1.907   9.700  10.659 -1.2308 -0.5691 -2.7468
  829MOL0     H 9394  -2.156   9.944  10.694 -1.1005 -1.0482  3.1826
  829MOL0     H 9395  -2.115   9.777  10.735  0.3963  1.6301  1.9748
  829MOL0     H 9396  -2.354   9.774  10.734  1.5906 -2.9055 -0.6720
  829MOL0     H 9397  -2.285   9.699  10.590  3.4147  0.7753  0.0161
  829MOL0     H 9398  -2.360   9.885  10.455  1.2521 -0.4647  0.8078
  829MOL0     H 9399  -2.414   9.977  10.589  2.5328  0.2035  0.1394
  829MOL0     H 9400  -2.547   9.708  10.521  0.2054 -0.7080 -0.5384
  829MOL0     H 9401  -2.574   9.813  10.666  2.5296 -1.6108  0.8329
  829MOL0     H 9402  -2.625   9.847  10.368 -1.1295 -3.0131  0.5947
  829MOL0     H 9403  -2.640   9.993  10.472  3.2320 -0.6112  0.3439
  829MOL0     H 9404  -2.820   9.895  10.600 -3.5344 -0.9998 -0.8123
  829MOL0     H 9405  -2.785   9.739  10.534 -0.3024 -0.0510 -0.0384
  829MOL0     H 9406  -2.984   9.812  10.452  1.2092 -2.5066  1.4939
  829MOL0     H 9407  -2.933   9.973  10.405 -0.4023 -0.9761 -0.2958
  829MOL0     H 9408  -2.879   9.698  10.282 -1.2884 -0.3950 -4.9527
  829MOL0     H 9409  -2.801   9.842  10.225 -0.3862  0.5231 -0.2728
  829MOL0     H 9410  -1.980  10.033  10.413  0.6144  1.0420  0.5109
  829MOL0     H 9411  -1.731  10.094  10.410  0.6624  0.2421  0.9177
  829MOL0     H 9412  -1.361  10.120  10.619 -1.6641 -0.3188  2.1613
  829MOL0     H 9413  -1.121  10.176  10.677  1.3167 -1.1540 -0.0339
  829MOL0     H 9414   0.309  11.239  10.534 -3.0662 -2.2218 -0.2651
  829MOL0     H 9415   0.555  11.185  10.537  0.8128 -1.7799 -1.5337
  829MOL0     H 9416   0.845  10.862  10.578  1.8129 -1.5024  0.0803
  829MOL0     H 9417   1.093  10.823  10.546  0.3426  0.4352 -0.4075
  829MOL0     H 9418   1.268  10.659  10.673 -2.2137 -0.2970  0.2821
  829MOL0     H 9419   1.208  10.686  10.840 -0.9577  3.6740 -0.0755
  829MOL0     H 9420   1.418  10.596  10.873 -0.7573  0.7235  1.4557
  829MOL0     H 9421   1.496  10.688  10.741  0.9693 -0.9698  0.6341
  829MOL0     H 9422   1.541  10.741  10.992  1.5459  0.2812 -1.2040
  829MOL0     H 9423   1.385  10.822  10.988  0.7260 -0.6191 -0.1507
  829MOL0     H 9424   1.473  10.957  10.789 -0.7596 -2.1249 -0.4077
  829MOL0     H 9425   1.531  10.984  10.950  0.6249 -1.6453  1.1972
  829MOL0     H 9426   1.864  10.829  10.728 -0.0805 -0.7175 -0.3831
  829MOL0     H 9427   1.148  10.947  10.953 -4.6402  0.5193  3.2535
  829MOL0     H 9428   0.924  11.028  10.967  0.1004 -4.3391  2.2251
  830MOL0     O 9429   6.179   2.806   1.201 -0.6114  1.0502  0.0801
  830MOL0     C 9430   6.175   2.877   1.099  0.0395 -0.1739 -0.3930
  830MOL0     O 9431   6.071   2.941   1.043 -0.3738  0.4140  0.1147
  830MOL0     C 9432   5.942   2.928   1.089  1.2169  0.4266  0.6958
  830MOL0     C 9433   5.906   2.908   1.220 -0.7536 -0.2400  0.2028
  830MOL0     C 9434   5.767   2.908   1.256  0.4380 -0.1293  0.2841
  830MOL0     C 9435   5.666   2.909   1.155  0.0664  0.2509 -0.1222
  830MOL0     O 9436   5.532   2.916   1.199 -0.0719  0.0435  0.5055
  830MOL0     C 9437   5.426   2.888   1.114  1.0857  0.0139  0.2755
  830MOL0     C 9438   5.292   2.908   1.205 -1.1547 -0.4309  0.3052
  830MOL0     C 9439   5.160   2.849   1.143  0.1772 -0.1787  0.0895
  830MOL0     C 9440   5.148   2.712   1.195  0.0650  0.0914  0.2803
  830MOL0     C 9441   5.041   2.625   1.120 -0.1731 -0.2805  0.3674
  830MOL0     C 9442   5.012   2.497   1.196  0.4876 -0.6143 -0.2005
  830MOL0     C 9443   4.903   2.422   1.124  0.2339  1.0294  0.3673
  830MOL0     C 9444   4.901   2.280   1.173 -0.2602  0.4979  0.9390
  830MOL0     N 9445   4.784   2.207   1.116  0.6458 -1.0950 -0.2895
  830MOL0     C 9446   4.663   2.197   1.182 -0.0077 -0.0083  0.1605
  830MOL0     C 9447   4.585   2.109   1.112  0.4773  0.3202  0.1134
  830MOL0     C 9448   4.442   2.070   1.148 -0.2730 -1.5490  0.2736
  830MOL0     C 9449   4.357   2.132   1.038  0.5788  0.5853 -0.4591
  830MOL0     C 9450   4.207   2.128   1.083 -0.2193  0.3805  0.2986
  830MOL0     C 9451   4.114   2.087   0.966  0.4905  0.6406 -0.2377
  830MOL0     O 9452   3.976   2.120   0.983 -0.0051 -0.2615 -0.5690
  830MOL0     C 9453   3.887   2.079   0.888  0.2320  0.5704  0.1721
  830MOL0     C 9454   3.917   2.049   0.752  0.2782  0.9902  0.9091
  830MOL0     C 9455   3.808   2.015   0.666 -0.3426 -1.0525 -0.3164
  830MOL0     C 9456   3.679   2.018   0.706 -0.0594  0.0592  0.9515
  830MOL0     C 9457   3.565   1.998   0.616 -0.9372 -0.2565 -0.0311
  830MOL0     O 9458   3.446   2.007   0.676 -0.3981  0.1992  0.4658
  830MOL0     C 9459   3.329   1.987   0.607 -0.3067 -0.6602  0.2752
  830MOL0     C 9460   3.305   1.938   0.478  0.8906  0.4092  0.1176
  830MOL0     C 9461   3.182   1.914   0.428  0.3965  0.4344 -0.1484
  830MOL0     C 9462   3.077   1.955   0.507 -0.2863 -1.0914 -0.4733
  830MOL0     O 9463   2.957   1.935   0.455 -0.1190 -0.2133 -0.5218
  830MOL0     C 9464   2.881   2.053   0.425 -0.0566  0.1792  0.4336
  830MOL0     C 9465   2.749   2.001   0.361 -0.6432  1.0364 -0.8440
  830MOL0     C 9466   2.635   2.104   0.382  0.7078  0.7188  0.6278
  830MOL0     C 9467   2.497   2.046   0.346 -0.8795 -0.4349 -0.4801
  830MOL0     C 9468   2.395   2.145   0.393  0.7500 -0.8549 -0.0810
  830MOL0     C 9469   2.253   2.087   0.401  0.0447 -0.5066  0.7285
  830MOL0     C 9470   2.159   2.197   0.446  0.2007 -0.4707  0.8896
  830MOL0     C 9471   2.015   2.157   0.450  0.3162  0.4391 -0.5533
  830MOL0    Cl 9472   1.988   2.044   0.581  0.1301  0.0055 -0.2502
  830MOL0     C 9473   3.096   2.018   0.635  0.3692  0.5043  0.2412
  830MOL0     C 9474   3.220   2.033   0.680  0.9514  0.2592 -0.0664
  830MOL0     O 9475   3.587   1.984   0.494 -0.8712 -0.1098  0.4740
  830MOL0     C 9476   3.650   2.036   0.846 -0.4984 -0.2541 -0.2455
  830MOL0     C 9477   3.752   2.069   0.934 -0.5694 -1.1323 -0.5124
  830MOL0     N 9478   4.666   2.070   1.012  0.1150  0.1977 -0.1568
  830MOL0     N 9479   4.780   2.140   1.006  0.2438  0.2041  0.6908
  830MOL0     C 9480   5.707   2.912   1.020 -0.8487  0.6483  0.8982
  830MOL0     C 9481   5.847   2.916   0.991 -0.2322 -0.3093  0.1179
  830MOL0     C 9482   6.306   2.898   1.036 -0.6236  0.7750  0.3827
  830MOL0     C 9483   6.426   2.843   1.091 -0.2654  0.1975 -0.6148
  830MOL0     C 9484   6.545   2.881   1.038 -0.2963  0.9267  0.1043
  830MOL0     C 9485   6.554   2.956   0.924 -0.3067 -0.3742 -0.3680
  830MOL0     O 9486   6.686   3.004   0.894  0.9462 -0.3215  0.3080
  830MOL0     C 9487   6.703   3.081   0.777  0.0088 -0.1154  0.0514
  830MOL0     C 9488   6.849   3.113   0.763  0.6311  0.5281 -0.2268
  830MOL0     C 9489   6.935   2.996   0.696 -0.2274  0.2199  0.1457
  830MOL0     C 9490   7.065   3.043   0.629  0.9294 -0.3520 -0.1319
  830MOL0     C 9491   7.154   2.925   0.619  0.0150  0.1437 -0.4460
  830MOL0     C 9492   7.221   2.826   0.639  0.0345 -0.5999  0.2954
  830MOL0     C 9493   6.436   2.997   0.862 -0.4878  0.6048  0.9860
  830MOL0     C 9494   6.309   2.963   0.913  0.1575  0.4762 -0.0184
  830MOL0     H 9495   5.981   2.905   1.298  1.2344  0.5508 -1.6062
  830MOL0     H 9496   5.747   2.891   1.361 -0.0009 -2.1585 -0.0959
  830MOL0     H 9497   5.434   2.781   1.092  1.4458 -0.3295  1.9389
  830MOL0     H 9498   5.427   2.946   1.021 -1.1529 -0.1972  0.0623
  830MOL0     H 9499   5.287   3.017   1.195 -1.2794 -0.5321 -0.8731
  830MOL0     H 9500   5.312   2.876   1.307  0.6689 -1.4266 -0.3222
  830MOL0     H 9501   5.169   2.848   1.034 -0.4043  1.6687  0.0003
  830MOL0     H 9502   5.069   2.906   1.163  1.2186  1.0592  1.5334
  830MOL0     H 9503   5.244   2.662   1.176  0.2334  0.1724  0.9053
  830MOL0     H 9504   5.125   2.716   1.301  2.2159 -3.8511  1.1017
  830MOL0     H 9505   5.088   2.599   1.025 -0.9177  2.8412 -0.9885
  830MOL0     H 9506   4.948   2.678   1.095 -0.0061  0.8524  1.9938
  830MOL0     H 9507   4.981   2.525   1.297  2.5744  2.0100 -0.1849
  830MOL0     H 9508   5.096   2.428   1.207  0.1988 -1.1916 -1.3802
  830MOL0     H 9509   4.807   2.473   1.142 -0.1655  0.4410 -0.0453
  830MOL0     H 9510   4.907   2.416   1.015  0.9667  1.3184  0.3768
  830MOL0     H 9511   4.884   2.276   1.281 -2.4417 -0.6948  0.6096
  830MOL0     H 9512   4.993   2.225   1.150 -2.1338 -2.5822  0.3179
  830MOL0     H 9513   4.634   2.254   1.270  0.2998  1.1688 -0.4761
  830MOL0     H 9514   4.408   2.108   1.244 -1.0447 -0.2916 -0.4725
  830MOL0     H 9515   4.430   1.961   1.154  2.7681 -1.9561  0.6747
  830MOL0     H 9516   4.385   2.078   0.948  0.5235 -1.0257  0.4505
  830MOL0     H 9517   4.384   2.235   1.014  0.5826  0.7024  0.0324
  830MOL0     H 9518   4.190   2.063   1.169  0.5143  0.9973  0.9321
  830MOL0     H 9519   4.175   2.229   1.112 -1.2444  0.0769  0.2559
  830MOL0     H 9520   4.130   1.978   0.962  1.4477  0.5833  2.4470
  830MOL0     H 9521   4.154   2.133   0.876 -2.0647  2.6811 -0.4298
  830MOL0     H 9522   4.018   2.045   0.712 -0.1897 -4.0218 -0.4616
  830MOL0     H 9523   3.837   2.003   0.562 -3.0565  2.0207 -1.6008
  830MOL0     H 9524   3.383   1.889   0.421  1.3144  2.0087 -0.7388
  830MOL0     H 9525   3.170   1.861   0.334 -1.5580 -0.2686  0.4500
  830MOL0     H 9526   2.937   2.106   0.347 -2.0172 -0.2494 -1.3515
  830MOL0     H 9527   2.872   2.110   0.518  0.0766  2.7172 -1.0198
  830MOL0     H 9528   2.709   1.905   0.395 -0.9616  0.5875 -2.3980
  830MOL0     H 9529   2.767   1.990   0.254 -1.6112 -1.6958 -0.7962
  830MOL0     H 9530   2.648   2.185   0.310  0.2215  0.0070 -0.2793
  830MOL0     H 9531   2.645   2.136   0.486 -0.3757 -1.1801  1.3696
  830MOL0     H 9532   2.494   2.041   0.237  2.6449  1.8818 -0.8458
  830MOL0     H 9533   2.479   1.956   0.406  0.5013  0.0134  0.6761
  830MOL0     H 9534   2.398   2.230   0.324 -1.4396 -1.3747 -0.8996
  830MOL0     H 9535   2.424   2.184   0.491 -0.0178  1.2840 -0.6609
  830MOL0     H 9536   2.255   2.012   0.480  1.5649  0.4352  1.6328
  830MOL0     H 9537   2.222   2.046   0.304  0.0599  0.0618  0.4769
  830MOL0     H 9538   2.184   2.239   0.544 -1.7374  2.2872  0.3260
  830MOL0     H 9539   2.163   2.271   0.365 -2.1500 -1.9600 -0.6941
  830MOL0     H 9540   1.991   2.104   0.358  0.9295 -3.2277  1.2042
  830MOL0     H 9541   1.947   2.241   0.468  0.6832  0.3244  1.6877
  830MOL0     H 9542   3.008   2.033   0.697 -0.8585 -2.9871 -0.4168
  830MOL0     H 9543   3.231   2.094   0.769  0.4304  0.8455 -0.3878
  830MOL0     H 9544   3.551   2.016   0.885 -0.0915  0.8454  1.4780
  830MOL0     H 9545   3.748   2.078   1.042  3.1078 -1.6107 -0.2026
  830MOL0     H 9546   5.632   2.891   0.945  0.0983 -1.1880  0.4008
  830MOL0     H 9547   5.875   2.911   0.886  0.9363 -0.0880  0.4028
  830MOL0     H 9548   6.417   2.777   1.177  0.1443 -2.2446 -2.3337
  830MOL0     H 9549   6.639   2.844   1.077  0.0796  1.5422 -0.2002
  830MOL0     H 9550   6.644   3.173   0.782 -0.6231 -0.4399 -1.0467
  830MOL0     H 9551   6.665   3.032   0.687  2.8167  1.0336 -1.9108
  830MOL0     H 9552   6.859   3.204   0.702 -0.1156  1.0084  0.3490
  830MOL0     H 9553   6.884   3.123   0.866  0.2858 -2.9195  0.3378
  830MOL0     H 9554   6.882   2.931   0.626  0.5113  0.6109 -0.7988
  830MOL0     H 9555   6.964   2.938   0.784  1.7863  1.0957  0.1058
  830MOL0     H 9556   7.049   3.079   0.527 -2.0239 -2.4949 -0.5619
  830MOL0     H 9557   7.098   3.128   0.689  1.9161 -1.3191  0.7501
  830MOL0     H 9558   7.277   2.739   0.666  1.1745 -0.1974 -0.6756
  830MOL0     H 9559   6.447   3.052   0.769  0.5681  1.3738  1.5459
  830MOL0     H 9560   6.215   3.001   0.873 -0.5658  0.3943  1.5183
  831MOL0     O 9561  10.775   9.132   2.381  0.6508  0.3223 -0.0052
  831MOL0     C 9562  10.838   9.131   2.483  0.7758 -0.2545 -1.3045
  831MOL0     O 9563  10.786   9.093   2.603  0.3098 -0.3288 -0.3349
  831MOL0     C 9564  10.657   9.049   2.621  0.1372  0.1112  0.1829
  831MOL0     C 9565  10.544   9.081   2.547 -1.2711 -0.4227 -0.2783
  831MOL0     C 9566  10.419   9.040   2.580  0.3697  0.2403  1.0057
  831MOL0     C 9567  10.401   8.968   2.694  0.2638 -0.0761 -0.1787
  831MOL0     O 9568  10.276   8.909   2.723  0.2128  0.0849  0.6850
  831MOL0     C 9569  10.223   8.916   2.857 -0.3283  0.7357  0.1702
  831MOL0     C 9570  10.082   8.968   2.844 -0.3994 -0.4983 -0.2198
  831MOL0     C 9571  10.007   8.974   2.974 -0.0530 -0.3943 -0.1295
  831MOL0     C 9572   9.940   8.845   3.010  0.1122  0.4102 -0.3082
  831MOL0     C 9573   9.898   8.842   3.162  1.8596 -0.0476 -0.2319
  831MOL0     C 9574   9.784   8.945   3.192  1.1367 -0.3551 -0.6056
  831MOL0     C 9575   9.773   8.960   3.342  0.7011 -0.4107 -0.0131
  831MOL0     C 9576   9.891   9.039   3.405  0.1235  0.4208 -0.1354
  831MOL0     N 9577   9.844   9.117   3.517 -0.3694 -0.1092  0.6084
  831MOL0     C 9578   9.810   9.064   3.638 -0.3188  0.1766 -0.3307
  831MOL0     C 9579   9.762   9.168   3.707  0.9118 -1.7045  0.9402
  831MOL0     C 9580   9.704   9.165   3.845 -0.2225  0.2557 -0.4963
  831MOL0     C 9581   9.557   9.130   3.835  0.5939  0.5735 -0.0563
  831MOL0     C 9582   9.464   9.224   3.744  0.5396  0.1253 -0.8149
  831MOL0     C 9583   9.445   9.372   3.788 -0.1392  0.2756 -0.2025
  831MOL0     O 9584   9.321   9.416   3.752  0.6995  0.1045  0.1833
  831MOL0     C 9585   9.245   9.455   3.857 -0.3835  0.4674  0.1142
  831MOL0     C 9586   9.124   9.384   3.875  0.7811 -0.2218 -0.9998
  831MOL0     C 9587   9.035   9.424   3.974 -0.7270 -0.6243 -0.0898
  831MOL0     C 9588   9.072   9.541   4.055 -0.2155 -0.1107 -1.6151
  831MOL0     C 9589   8.973   9.594   4.149  1.1188 -0.1823  0.5577
  831MOL0     O 9590   8.855   9.529   4.163  0.0921  0.0892 -0.0607
  831MOL0     C 9591   8.750   9.578   4.242 -0.2730 -0.1819 -0.1298
  831MOL0     C 9592   8.749   9.698   4.315 -0.6130  0.0649 -0.4543
  831MOL0     C 9593   8.636   9.732   4.382 -0.3179 -0.2963  0.8403
  831MOL0     C 9594   8.517   9.667   4.370  0.5959  1.0140 -0.6115
  831MOL0     O 9595   8.402   9.713   4.437  0.1052 -0.1881 -0.0334
  831MOL0     C 9596   8.270   9.684   4.389 -1.0644 -0.1377  0.5145
  831MOL0     C 9597   8.165   9.743   4.481  0.1708  0.1956  0.7350
  831MOL0     C 9598   8.021   9.694   4.449 -0.8027  0.9024 -0.3384
  831MOL0     C 9599   7.907   9.793   4.468  0.2099 -0.0640  0.5090
  831MOL0     C 9600   7.780   9.731   4.391 -0.1405  0.1333 -0.4906
  831MOL0     C 9601   7.664   9.835   4.389 -0.8550 -0.6056 -0.5202
  831MOL0     C 9602   7.540   9.758   4.337 -0.2452  0.6490 -0.0531
  831MOL0     C 9603   7.413   9.846   4.357  0.1752  0.1803 -0.8120
  831MOL0    Cl 9604   7.275   9.758   4.281  0.2922 -0.0234  0.1171
  831MOL0     C 9605   8.515   9.544   4.294 -0.3059 -0.2875  0.1814
  831MOL0     C 9606   8.637   9.494   4.240 -0.6982  0.4506  0.0259
  831MOL0     O 9607   9.015   9.692   4.211 -0.8898 -0.3979  1.0080
  831MOL0     C 9608   9.196   9.602   4.043 -0.4779  0.3173 -0.6959
  831MOL0     C 9609   9.279   9.563   3.936  1.2354  0.8402 -0.1139
  831MOL0     N 9610   9.783   9.281   3.629 -0.8718  0.0345  1.0086
  831MOL0     N 9611   9.842   9.259   3.520  0.8711  0.0708 -0.9032
  831MOL0     C 9612  10.510   8.930   2.767 -0.1407 -0.7913 -0.0790
  831MOL0     C 9613  10.641   8.971   2.730 -0.6621  0.1452 -0.2157
  831MOL0     C 9614  10.967   9.202   2.479  0.7937 -0.1319  0.2360
  831MOL0     C 9615  11.044   9.220   2.593 -0.1497  0.1411 -0.0144
  831MOL0     C 9616  11.172   9.285   2.585 -0.5649 -0.4520 -0.2213
  831MOL0     C 9617  11.222   9.319   2.465 -0.0817  0.4442 -0.2085
  831MOL0     O 9618  11.346   9.380   2.462 -0.2283  0.4725 -0.4647
  831MOL0     C 9619  11.419   9.402   2.334  0.9129 -0.1964 -0.2364
  831MOL0     C 9620  11.567   9.427   2.360 -0.3193  0.7547 -0.3411
  831MOL0     C 9621  11.645   9.292   2.357 -0.1715  0.1832  0.5410
  831MOL0     C 9622  11.797   9.299   2.371 -0.2173 -1.2966  0.9165
  831MOL0     C 9623  11.874   9.176   2.331  0.4672  0.0045  0.1779
  831MOL0     C 9624  11.912   9.063   2.297  0.8972 -0.2908 -0.3732
  831MOL0     C 9625  11.146   9.314   2.350  0.4522 -0.0051 -0.5590
  831MOL0     C 9626  11.021   9.254   2.355  0.4048 -0.5445 -0.5860
  831MOL0     H 9627  10.556   9.136   2.454 -0.8452 -1.2666 -0.7322
  831MOL0     H 9628  10.329   9.071   2.530 -1.2108 -4.0720  0.7763
  831MOL0     H 9629  10.272   8.990   2.921 -0.3150 -0.0751  1.1321
  831MOL0     H 9630  10.233   8.815   2.899  1.3421  0.5344 -0.6277
  831MOL0     H 9631  10.025   8.912   2.769  1.7171 -4.5827  0.9218
  831MOL0     H 9632  10.095   9.067   2.799  1.2168 -0.5174  0.1603
  831MOL0     H 9633   9.927   9.047   2.955  0.7502 -0.0394 -2.4397
  831MOL0     H 9634  10.075   9.017   3.049 -1.1656  2.4866 -0.6406
  831MOL0     H 9635   9.857   8.810   2.948  2.1598 -1.4215 -2.1983
  831MOL0     H 9636  10.019   8.770   2.997  0.4906  0.1554  2.6110
  831MOL0     H 9637   9.984   8.873   3.222  2.2356 -0.2341 -0.6683
  831MOL0     H 9638   9.854   8.746   3.190  1.0454  0.7149  1.2392
  831MOL0     H 9639   9.686   8.908   3.159  0.2500 -0.0570  1.5341
  831MOL0     H 9640   9.788   9.035   3.130 -0.9451 -1.5734 -2.6992
  831MOL0     H 9641   9.678   9.004   3.373  1.5567  1.5648 -0.0353
  831MOL0     H 9642   9.772   8.864   3.393  0.3398  0.0223  0.8084
  831MOL0     H 9643   9.936   9.103   3.329  1.3151 -0.5545 -0.2909
  831MOL0     H 9644   9.969   8.968   3.436 -0.2462 -0.3570 -0.9717
  831MOL0     H 9645   9.825   8.962   3.672 -1.5939  0.7389  2.1835
  831MOL0     H 9646   9.715   9.266   3.887 -0.5532  0.5295 -1.0530
  831MOL0     H 9647   9.752   9.095   3.914  0.4319  0.7948 -0.3885
  831MOL0     H 9648   9.506   9.143   3.931 -2.3328  0.4485 -1.4819
  831MOL0     H 9649   9.545   9.026   3.805 -1.1992 -0.2312  2.9764
  831MOL0     H 9650   9.486   9.218   3.637  2.8530  2.0882 -0.5325
  831MOL0     H 9651   9.359   9.193   3.748  0.4993  0.1419 -1.6572
  831MOL0     H 9652   9.513   9.440   3.735 -1.4522  1.1123 -0.8683
  831MOL0     H 9653   9.466   9.386   3.895 -1.2261  2.3124 -0.1953
  831MOL0     H 9654   9.094   9.299   3.814 -0.0161 -1.5188  1.1056
  831MOL0     H 9655   8.949   9.360   3.992 -0.5821 -0.5155  1.0429
  831MOL0     H 9656   8.830   9.769   4.325  1.6437 -2.0737 -2.1449
  831MOL0     H 9657   8.625   9.829   4.429  1.6219  0.6747 -0.5395
  831MOL0     H 9658   8.242   9.578   4.380 -0.4137 -0.1926 -1.1161
  831MOL0     H 9659   8.260   9.718   4.285  1.8331  1.4478  0.6491
  831MOL0     H 9660   8.169   9.852   4.476  0.4235  0.2499  1.8609
  831MOL0     H 9661   8.197   9.716   4.583  0.8512 -1.4921  0.1058
  831MOL0     H 9662   8.004   9.611   4.518 -1.4437  0.3070 -1.1766
  831MOL0     H 9663   8.033   9.654   4.347 -0.3536 -1.1335  0.4700
  831MOL0     H 9664   7.882   9.804   4.574 -2.3254  0.4296 -0.0546
  831MOL0     H 9665   7.931   9.891   4.424  1.9727 -0.9627 -0.6341
  831MOL0     H 9666   7.755   9.630   4.426  0.1308 -0.4017 -1.7746
  831MOL0     H 9667   7.818   9.719   4.289  0.9167 -1.3352  0.0315
  831MOL0     H 9668   7.687   9.929   4.337  1.3377  1.5240  3.7964
  831MOL0     H 9669   7.637   9.870   4.489  1.0520 -0.8493  0.1067
  831MOL0     H 9670   7.549   9.736   4.230 -0.7284  1.7107 -0.3208
  831MOL0     H 9671   7.511   9.667   4.389 -0.2831  0.9087  0.3795
  831MOL0     H 9672   7.431   9.943   4.311  3.9334  0.6641  1.3112
  831MOL0     H 9673   7.403   9.864   4.464 -2.4515 -1.2936 -0.7228
  831MOL0     H 9674   8.420   9.494   4.282  0.4659 -1.3111 -2.2018
  831MOL0     H 9675   8.642   9.400   4.184 -1.1445  2.3271 -3.4639
  831MOL0     H 9676   9.250   9.676   4.101 -0.2230  0.2162 -0.8067
  831MOL0     H 9677   9.374   9.615   3.930  3.2898 -2.4068  1.5189
  831MOL0     H 9678  10.486   8.858   2.844 -2.5672 -0.1369 -0.1345
  831MOL0     H 9679  10.724   8.933   2.789  1.6580  0.5303 -3.0250
  831MOL0     H 9680  11.010   9.170   2.683 -2.9175  1.6911 -0.0755
  831MOL0     H 9681  11.237   9.292   2.672  0.7699  2.1812 -1.3063
  831MOL0     H 9682  11.380   9.500   2.307  1.7417 -0.0499 -0.9536
  831MOL0     H 9683  11.399   9.321   2.263 -0.4169  0.6829 -0.9136
  831MOL0     H 9684  11.612   9.483   2.278 -0.5211 -0.8908 -1.6178
  831MOL0     H 9685  11.579   9.492   2.448 -0.1100 -0.1919  0.3559
  831MOL0     H 9686  11.632   9.239   2.262  2.5831 -0.0595  0.2096
  831MOL0     H 9687  11.604   9.241   2.445  2.5213  2.7763  3.5580
  831MOL0     H 9688  11.838   9.374   2.303 -0.9147 -3.8724 -2.6313
  831MOL0     H 9689  11.829   9.326   2.472  1.0180  1.9212 -0.1866
  831MOL0     H 9690  11.953   8.966   2.278 -1.3627 -1.5050  0.6502
  831MOL0     H 9691  11.185   9.352   2.257  1.4024 -0.6357 -0.4353
  831MOL0     H 9692  10.958   9.262   2.267  0.9847  3.4141 -0.7855
  832MOL0     O 9693   0.489   8.173   1.064  0.8765  0.3002 -0.7274
  832MOL0     C 9694   0.448   8.286   1.018 -0.9682  0.6677  0.3927
  832MOL0     O 9695   0.326   8.335   1.026 -0.4483  0.2136  0.0092
  832MOL0     C 9696   0.245   8.272   1.113  0.5911  0.4444 -0.1363
  832MOL0     C 9697   0.276   8.215   1.239 -0.3612  0.6987  0.3467
  832MOL0     C 9698   0.181   8.153   1.320  1.1494 -0.1398  0.3551
  832MOL0     C 9699   0.040   8.174   1.289 -1.1222  0.9034 -0.0682
  832MOL0     O 9700  -0.049   8.136   1.386  0.8562  0.6728  0.2442
  832MOL0     C 9701  -0.184   8.188   1.377  1.4027 -0.0996  0.1198
  832MOL0     C 9702  -0.272   8.163   1.501  0.2990 -0.4388 -0.0368
  832MOL0     C 9703  -0.413   8.238   1.489 -0.4765  1.7070 -0.8827
  832MOL0     C 9704  -0.487   8.236   1.627  0.5931  0.8428  0.0815
  832MOL0     C 9705  -0.634   8.293   1.606  0.0479  0.2871 -0.8907
  832MOL0     C 9706  -0.705   8.348   1.724 -0.5253  0.2573 -0.6602
  832MOL0     C 9707  -0.803   8.236   1.767 -0.0607  0.5689  0.0573
  832MOL0     C 9708  -0.874   8.267   1.900  0.1527 -0.2927  0.8617
  832MOL0     N 9709  -0.979   8.365   1.892  0.1335  0.3465 -0.0759
  832MOL0     C 9710  -1.113   8.330   1.879 -0.6133 -0.6060 -0.4538
  832MOL0     C 9711  -1.184   8.445   1.910 -0.3380  0.6656  0.5844
  832MOL0     C 9712  -1.327   8.472   1.899  0.6288 -0.2341 -0.0834
  832MOL0     C 9713  -1.388   8.560   2.010  0.1385  0.7094  0.3667
  832MOL0     C 9714  -1.538   8.557   1.987  0.1503  0.2084  0.6803
  832MOL0     C 9715  -1.608   8.678   2.051  0.6112  0.1798 -0.1751
  832MOL0     O 9716  -1.587   8.687   2.189 -0.1704 -0.5898 -0.1954
  832MOL0     C 9717  -1.673   8.779   2.249  0.7444 -0.0522 -0.2320
  832MOL0     C 9718  -1.791   8.725   2.310 -0.4092 -0.0441  0.5258
  832MOL0     C 9719  -1.886   8.814   2.377  0.4642  0.0660  0.3194
  832MOL0     C 9720  -1.857   8.951   2.387  0.0010  0.1171 -0.3472
  832MOL0     C 9721  -1.956   9.048   2.448 -0.0360 -0.2964 -0.4920
  832MOL0     O 9722  -2.041   8.982   2.532  0.7351 -0.4260  0.2257
  832MOL0     C 9723  -2.112   9.056   2.622  0.0290  1.4925 -0.0296
  832MOL0     C 9724  -2.063   9.163   2.694 -0.2181  0.6716  0.1070
  832MOL0     C 9725  -2.126   9.222   2.805 -0.6124 -0.0468  0.6234
  832MOL0     C 9726  -2.235   9.159   2.860  0.9143 -0.1284  0.1325
  832MOL0     O 9727  -2.287   9.169   2.981 -0.4147 -0.1835  0.1483
  832MOL0     C 9728  -2.276   9.282   3.068  0.1626 -0.6930  0.0089
  832MOL0     C 9729  -2.403   9.378   3.051 -0.2781  0.1358 -0.3019
  832MOL0     C 9730  -2.433   9.406   2.901  0.7180 -0.5317  0.3745
  832MOL0     C 9731  -2.537   9.515   2.879  0.3813 -0.4266 -0.0215
  832MOL0     C 9732  -2.688   9.484   2.899  0.0145  0.4279 -0.5376
  832MOL0     C 9733  -2.777   9.607   2.902  0.3004 -0.9478 -0.2191
  832MOL0     C 9734  -2.880   9.605   3.017 -0.2503 -0.9466 -0.2940
  832MOL0     C 9735  -2.963   9.722   3.012 -0.1185 -0.5786  0.3743
  832MOL0    Cl 9736  -3.100   9.720   3.126 -0.0343  0.3608  0.5191
  832MOL0     C 9737  -2.291   9.056   2.785 -0.8898  0.5856 -0.5797
  832MOL0     C 9738  -2.233   9.001   2.663 -0.2707 -0.7517  0.1527
  832MOL0     O 9739  -1.958   9.165   2.422  0.1673 -0.7998  0.2457
  832MOL0     C 9740  -1.738   9.001   2.330  0.0309  0.6008 -0.3767
  832MOL0     C 9741  -1.645   8.915   2.268  0.5809  0.0107 -1.2776
  832MOL0     N 9742  -1.091   8.543   1.937 -0.6042  0.4464 -1.0577
  832MOL0     N 9743  -0.971   8.491   1.930 -0.1535 -0.4454 -0.7289
  832MOL0     C 9744   0.009   8.228   1.164  0.1970  0.0132  0.3220
  832MOL0     C 9745   0.113   8.275   1.080 -0.1884  0.3015 -0.7066
  832MOL0     C 9746   0.536   8.352   0.923 -0.2534  0.2767  0.5366
  832MOL0     C 9747   0.675   8.360   0.948 -0.6268  0.3760  0.2993
  832MOL0     C 9748   0.754   8.455   0.877  0.9740 -0.1503 -0.1631
  832MOL0     C 9749   0.698   8.537   0.780 -0.5503 -0.4839 -1.1957
  832MOL0     O 9750   0.790   8.635   0.734  0.7416 -0.3082  0.2064
  832MOL0     C 9751   0.743   8.768   0.692  0.1796 -0.1131  0.5691
  832MOL0     C 9752   0.860   8.872   0.672 -0.0991 -0.7421 -0.6238
  832MOL0     C 9753   0.818   9.013   0.681 -0.8155  0.1928  0.0709
  832MOL0     C 9754   0.932   9.123   0.661 -0.6510 -0.5368  0.6512
  832MOL0     C 9755   0.980   9.139   0.522  0.7977 -0.1142 -0.5783
  832MOL0     C 9756   1.027   9.145   0.415 -0.5568  0.1018 -0.5273
  832MOL0     C 9757   0.566   8.519   0.753  0.2612 -0.5428 -0.3447
  832MOL0     C 9758   0.483   8.425   0.816 -0.4264  0.1579  0.3671
  832MOL0     H 9759   0.374   8.220   1.285 -1.2281 -1.1572  2.5600
  832MOL0     H 9760   0.218   8.124   1.418 -2.4035  2.9754  2.9186
  832MOL0     H 9761  -0.237   8.145   1.291 -2.1203  0.1281  1.9949
  832MOL0     H 9762  -0.176   8.296   1.370 -1.9444  0.5180  3.0307
  832MOL0     H 9763  -0.220   8.201   1.589  0.2168  2.7273 -1.2351
  832MOL0     H 9764  -0.286   8.059   1.531  0.2892 -0.5754 -0.5024
  832MOL0     H 9765  -0.476   8.187   1.416 -0.6025  1.7649 -0.8153
  832MOL0     H 9766  -0.391   8.337   1.446  0.3945  0.2355 -4.1356
  832MOL0     H 9767  -0.502   8.133   1.661 -0.8244  1.2391  0.7154
  832MOL0     H 9768  -0.440   8.294   1.707 -2.5107 -0.0544  2.7708
  832MOL0     H 9769  -0.705   8.226   1.557 -1.0178  0.5511  0.2474
  832MOL0     H 9770  -0.621   8.382   1.544  1.6706  0.0823 -0.8906
  832MOL0     H 9771  -0.760   8.439   1.702 -1.6937 -0.3384 -0.2704
  832MOL0     H 9772  -0.642   8.366   1.812  0.7237 -4.9349 -0.1081
  832MOL0     H 9773  -0.881   8.220   1.692 -0.6416 -1.2544  0.9723
  832MOL0     H 9774  -0.748   8.142   1.772  1.2515  1.2548 -0.9492
  832MOL0     H 9775  -0.796   8.298   1.970  1.7093 -0.5307 -0.7072
  832MOL0     H 9776  -0.924   8.181   1.946 -0.6472  0.4141  1.3599
  832MOL0     H 9777  -1.146   8.240   1.828  0.0252 -2.4476  2.1870
  832MOL0     H 9778  -1.367   8.371   1.909  1.8300 -0.8007 -0.8014
  832MOL0     H 9779  -1.355   8.509   1.800 -3.3543 -0.6310  0.7239
  832MOL0     H 9780  -1.343   8.657   2.030  2.3745 -0.6882  2.5900
  832MOL0     H 9781  -1.372   8.518   2.109  1.9496  2.0505  0.6887
  832MOL0     H 9782  -1.550   8.559   1.878 -1.9227 -4.9148  0.5699
  832MOL0     H 9783  -1.592   8.468   2.021  2.1001 -2.2663 -2.1720
  832MOL0     H 9784  -1.714   8.680   2.024 -0.0017 -4.0538  1.2234
  832MOL0     H 9785  -1.567   8.768   2.002  2.5118 -0.5480  0.0047
  832MOL0     H 9786  -1.806   8.617   2.307 -0.1398 -0.0727  0.1515
  832MOL0     H 9787  -1.972   8.784   2.436  0.9844 -1.2454  0.4534
  832MOL0     H 9788  -1.969   9.204   2.657 -0.2945  1.6723  0.9780
  832MOL0     H 9789  -2.070   9.300   2.855  1.6316 -0.5793 -0.8808
  832MOL0     H 9790  -2.185   9.340   3.049  0.2782 -1.1494 -0.8587
  832MOL0     H 9791  -2.279   9.251   3.173 -1.7029 -1.2103 -0.1541
  832MOL0     H 9792  -2.385   9.466   3.114 -1.8937  1.1781 -1.2081
  832MOL0     H 9793  -2.497   9.337   3.090 -1.5213  5.2873  3.1811
  832MOL0     H 9794  -2.475   9.316   2.854 -3.9752  1.6899 -0.2312
  832MOL0     H 9795  -2.344   9.431   2.843  0.0850 -3.1147 -1.9302
  832MOL0     H 9796  -2.513   9.601   2.942 -0.0290  1.6153 -2.4956
  832MOL0     H 9797  -2.527   9.549   2.775 -0.3822  2.8944  0.8778
  832MOL0     H 9798  -2.701   9.434   2.996 -2.8178  0.6506 -0.7191
  832MOL0     H 9799  -2.718   9.411   2.824  0.0865 -0.4284  0.2521
  832MOL0     H 9800  -2.826   9.603   2.804  0.2614 -4.5178 -0.2069
  832MOL0     H 9801  -2.720   9.700   2.902 -2.0219  0.6939 -3.7556
  832MOL0     H 9802  -2.936   9.512   3.011 -1.8149  0.0401 -2.4596
  832MOL0     H 9803  -2.826   9.601   3.112  0.7766 -0.0512 -0.8097
  832MOL0     H 9804  -3.010   9.723   2.913  0.8176 -0.9975 -0.0939
  832MOL0     H 9805  -2.906   9.815   3.026  0.7478 -0.3646 -3.3542
  832MOL0     H 9806  -2.377   9.014   2.836 -0.9227  1.1825 -0.1279
  832MOL0     H 9807  -2.278   8.916   2.613 -0.8521 -0.8292  0.7815
  832MOL0     H 9808  -1.723   9.105   2.356 -3.0192  0.9587  0.3841
  832MOL0     H 9809  -1.554   8.955   2.225  1.1917 -0.1887 -0.2074
  832MOL0     H 9810  -0.095   8.226   1.132  0.4964 -0.5413 -0.6249
  832MOL0     H 9811   0.093   8.312   0.979  0.6708 -0.2696 -1.1003
  832MOL0     H 9812   0.728   8.312   1.030  1.4616  1.8504 -0.0998
  832MOL0     H 9813   0.857   8.464   0.912  0.9503 -2.4293  0.6169
  832MOL0     H 9814   0.664   8.798   0.761  0.3087 -0.7011  0.9844
  832MOL0     H 9815   0.680   8.761   0.602 -1.2546  1.3706  1.4131
  832MOL0     H 9816   0.927   8.857   0.757  2.2317 -1.9802 -2.5407
  832MOL0     H 9817   0.916   8.850   0.580  1.7460 -2.2749  0.7890
  832MOL0     H 9818   0.762   9.043   0.771 -2.9510  2.1597 -1.7929
  832MOL0     H 9819   0.741   9.026   0.604 -2.3068  0.6022  1.5643
  832MOL0     H 9820   0.900   9.222   0.696 -1.4171  0.1692 -1.8168
  832MOL0     H 9821   1.013   9.091   0.726 -1.1325 -0.9944  1.0320
  832MOL0     H 9822   1.079   9.141   0.321  0.8846  0.0057  0.2492
  832MOL0     H 9823   0.518   8.585   0.682 -1.2230 -0.3289  0.7825
  832MOL0     H 9824   0.379   8.417   0.788 -0.6443 -2.8778  1.6506
  833MOL0     O 9825   1.444   2.607  11.097 -0.0387  1.1395  0.4544
  833MOL0     C 9826   1.507   2.543  11.013  0.2446 -0.0222 -0.2407
  833MOL0     O 9827   1.477   2.534  10.882 -0.2202  0.1170  0.3870
  833MOL0     C 9828   1.367   2.594  10.831 -0.0183 -0.7986  0.6057
  833MOL0     C 9829   1.238   2.555  10.870 -0.0316  0.4755 -0.4300
  833MOL0     C 9830   1.121   2.602  10.809  0.5463  0.1019  0.0892
  833MOL0     C 9831   1.132   2.706  10.713 -0.0760  0.4049  0.2904
  833MOL0     O 9832   1.028   2.753  10.633 -0.5835 -0.0255  1.1608
  833MOL0     C 9833   0.894   2.729  10.680 -0.0773 -0.4429  0.7276
  833MOL0     C 9834   0.800   2.830  10.613  0.3717 -0.1381  0.1861
  833MOL0     C 9835   0.659   2.836  10.680  0.1382 -0.3509  0.1964
  833MOL0     C 9836   0.551   2.897  10.590  0.3385  0.4319  0.0466
  833MOL0     C 9837   0.409   2.911  10.653 -0.3873  0.6133  0.6595
  833MOL0     C 9838   0.402   3.015  10.758  0.7976  0.1060  0.1090
  833MOL0     C 9839   0.264   3.009  10.833  0.0482 -0.2627 -0.1408
  833MOL0     C 9840   0.145   3.033  10.732 -0.2862  0.0693  0.2699
  833MOL0     N 9841   0.022   3.053  10.799 -0.3609 -0.1059  0.8907
  833MOL0     C 9842  -0.041   3.174  10.825 -0.6129  0.2912  0.2861
  833MOL0     C 9843  -0.155   3.143  10.893 -0.4182  0.0405  0.0692
  833MOL0     C 9844  -0.252   3.248  10.933  0.3160  0.4244  1.0484
  833MOL0     C 9845  -0.322   3.217  11.064  0.7741 -0.5219  0.5023
  833MOL0     C 9846  -0.402   3.339  11.112  0.2691 -0.4159 -0.1042
  833MOL0     C 9847  -0.414   3.329  11.261  0.1358 -0.9043  0.1127
  833MOL0     O 9848  -0.498   3.428  11.308 -1.0773  0.2849 -0.3357
  833MOL0     C 9849  -0.583   3.409  11.415  0.2421  0.0567  0.0945
  833MOL0     C 9850  -0.680   3.505  11.429  0.0857  0.0046  0.6256
  833MOL0     C 9851  -0.775   3.492  11.532  0.7158  0.0464  0.3827
  833MOL0     C 9852  -0.781   3.376  11.611  0.1013  0.0151 -0.0476
  833MOL0     C 9853  -0.884   3.370  11.716 -0.5896 -1.1638 -1.7947
  833MOL0     O 9854  -0.991   3.453  11.697 -0.0250  0.3757  0.1527
  833MOL0     C 9855  -1.078   3.478  11.792 -0.2729 -0.2825 -0.5254
  833MOL0     C 9856  -1.212   3.454  11.754 -0.6913 -0.9598 -0.3610
  833MOL0     C 9857  -1.307   3.476  11.853  0.4865 -0.5804 -0.7148
  833MOL0     C 9858  -1.275   3.509  11.988 -0.2804  0.3051 -0.0200
  833MOL0     O 9859  -1.371   3.528  12.086  0.5523  0.0138 -0.2726
  833MOL0     C 9860  -1.479   3.609  12.043 -0.1467  0.1487 -0.1080
  833MOL0     C 9861  -1.526   3.685  12.160 -0.1968  0.2546  0.1612
  833MOL0     C 9862  -1.561   3.587  12.280  0.0608  0.0839 -0.6006
  833MOL0     C 9863  -1.620   3.655  12.403 -0.8536  0.4963 -0.1111
  833MOL0     C 9864  -1.756   3.692  12.380  0.4452  0.1486 -0.1725
  833MOL0     C 9865  -1.815   3.752  12.505 -0.5959  0.0538 -0.3609
  833MOL0     C 9866  -1.967   3.731  12.502  0.5429  1.0232 -0.5336
  833MOL0     C 9867  -2.025   3.738  12.638 -0.3777  0.4119 -0.2238
  833MOL0    Cl 9868  -2.046   3.907  12.684  0.2359  0.4123  0.1824
  833MOL0     C 9869  -1.141   3.522  12.025  0.2648 -0.1762  0.7359
  833MOL0     C 9870  -1.041   3.514  11.924  0.0108  0.4622 -0.0570
  833MOL0     O 9871  -0.856   3.301  11.816  0.7042 -0.3769 -0.5079
  833MOL0     C 9872  -0.680   3.284  11.600 -0.4306 -0.8734  0.5447
  833MOL0     C 9873  -0.581   3.297  11.506 -0.7316  0.0611 -0.2559
  833MOL0     N 9874  -0.167   3.010  10.891 -0.7809  0.2746 -0.4036
  833MOL0     N 9875  -0.067   2.953  10.829 -0.8983 -0.0387  0.3337
  833MOL0     C 9876   1.258   2.751  10.679  1.0022 -1.0992 -0.1948
  833MOL0     C 9877   1.377   2.691  10.733  0.4720 -0.6538 -0.3265
  833MOL0     C 9878   1.636   2.487  11.053  0.1217  0.0240 -0.3721
  833MOL0     C 9879   1.664   2.461  11.186 -0.3630 -0.9265 -0.4442
  833MOL0     C 9880   1.788   2.393  11.210  0.5102  0.3031  0.4423
  833MOL0     C 9881   1.880   2.365  11.114 -0.3518 -0.5267  0.1948
  833MOL0     O 9882   2.001   2.296  11.153  0.2327 -0.2018 -0.4492
  833MOL0     C 9883   2.041   2.198  11.053 -0.3466  0.8802  0.7171
  833MOL0     C 9884   2.144   2.103  11.118 -0.6937 -0.2457  0.6044
  833MOL0     C 9885   2.284   2.168  11.138 -0.0896  0.7449 -0.0670
  833MOL0     C 9886   2.325   2.266  11.261 -0.4798 -0.3973 -0.0019
  833MOL0     C 9887   2.474   2.265  11.262 -0.3580 -0.4425 -0.4884
  833MOL0     C 9888   2.594   2.270  11.292 -0.1329 -0.1963 -0.5475
  833MOL0     C 9889   1.857   2.407  10.983 -1.2121 -0.9984 -0.2456
  833MOL0     C 9890   1.731   2.458  10.959 -0.7012 -0.1560 -0.1063
  833MOL0     H 9891   1.230   2.487  10.954 -1.9473  2.4516  1.0782
  833MOL0     H 9892   1.026   2.567  10.847 -1.4127  1.2077 -3.3571
  833MOL0     H 9893   0.889   2.736  10.789  1.1426 -2.0138  0.9050
  833MOL0     H 9894   0.857   2.629  10.653 -1.3606  0.2866 -0.3718
  833MOL0     H 9895   0.788   2.801  10.508 -3.1845 -0.6948  0.6084
  833MOL0     H 9896   0.844   2.930  10.612  0.3047 -0.1043 -0.8084
  833MOL0     H 9897   0.671   2.883  10.777  2.1420 -3.6382  1.7053
  833MOL0     H 9898   0.639   2.730  10.701  0.4028 -0.2246  1.1050
  833MOL0     H 9899   0.574   2.996  10.550  0.2820  0.8665  1.0544
  833MOL0     H 9900   0.549   2.830  10.503 -2.4483 -3.6790  2.9025
  833MOL0     H 9901   0.378   2.811  10.685  0.1770 -0.3433 -1.5829
  833MOL0     H 9902   0.343   2.944  10.572  0.1799 -0.2012 -0.1611
  833MOL0     H 9903   0.412   3.117  10.720 -4.2550  1.0863  0.6949
  833MOL0     H 9904   0.471   3.005  10.841  0.1608 -2.0262  0.4504
  833MOL0     H 9905   0.256   2.917  10.891 -0.7859  0.2065  0.5063
  833MOL0     H 9906   0.261   3.087  10.910  2.0442  0.9606 -1.2143
  833MOL0     H 9907   0.134   2.951  10.660 -0.3080  1.0733 -0.9207
  833MOL0     H 9908   0.166   3.119  10.667  2.2151 -0.3935  0.3717
  833MOL0     H 9909   0.017   3.266  10.816  1.2403 -0.4932  3.0987
  833MOL0     H 9910  -0.322   3.266  10.851 -1.5248 -2.3326  1.8528
  833MOL0     H 9911  -0.203   3.345  10.934 -1.2183  1.4082 -2.6253
  833MOL0     H 9912  -0.234   3.198  11.126  1.7664 -1.7046 -1.1709
  833MOL0     H 9913  -0.385   3.127  11.058  0.5079 -0.3445  0.6188
  833MOL0     H 9914  -0.360   3.433  11.076  0.3137 -1.0531 -1.7950
  833MOL0     H 9915  -0.501   3.329  11.068 -0.9063  0.7142  2.0852
  833MOL0     H 9916  -0.318   3.334  11.314 -0.6710 -1.8320  1.7408
  833MOL0     H 9917  -0.453   3.229  11.280 -1.0099 -0.7102 -1.1026
  833MOL0     H 9918  -0.674   3.593  11.365  2.3639 -1.0455 -0.7317
  833MOL0     H 9919  -0.843   3.576  11.550 -0.1701 -1.1547  3.2047
  833MOL0     H 9920  -1.230   3.429  11.650 -0.0321  1.9070 -1.2644
  833MOL0     H 9921  -1.410   3.454  11.829 -0.7287 -0.8335  3.8560
  833MOL0     H 9922  -1.556   3.539  12.011  1.7128 -0.8991 -2.6256
  833MOL0     H 9923  -1.466   3.678  11.959 -2.0500 -1.0990 -1.4961
  833MOL0     H 9924  -1.615   3.731  12.117  1.7435  3.4274 -0.8148
  833MOL0     H 9925  -1.470   3.775  12.188  0.9016 -0.9354  2.0431
  833MOL0     H 9926  -1.470   3.535  12.312 -2.3521 -2.3487  2.9918
  833MOL0     H 9927  -1.626   3.506  12.245  1.9815 -0.4027 -3.4484
  833MOL0     H 9928  -1.617   3.586  12.487 -1.9350  0.7684  0.1680
  833MOL0     H 9929  -1.563   3.746  12.426  1.0997 -0.8008  0.4236
  833MOL0     H 9930  -1.820   3.608  12.351 -0.0727  0.5951 -0.3504
  833MOL0     H 9931  -1.759   3.765  12.298 -0.5111 -0.4716 -0.7078
  833MOL0     H 9932  -1.796   3.859  12.510 -2.4564  0.3783  1.2550
  833MOL0     H 9933  -1.779   3.695  12.591 -0.0278 -0.4087 -0.8959
  833MOL0     H 9934  -2.020   3.798  12.435 -0.5791 -0.1362 -0.8551
  833MOL0     H 9935  -2.000   3.631  12.472  1.6449  0.1771  0.8905
  833MOL0     H 9936  -1.975   3.696  12.725 -3.7887  2.2056  2.8956
  833MOL0     H 9937  -2.120   3.683  12.644  0.8034 -1.5274  3.0603
  833MOL0     H 9938  -1.133   3.556  12.127 -3.7746 -1.7774  1.7940
  833MOL0     H 9939  -0.937   3.533  11.948 -0.6490  1.0362  2.7273
  833MOL0     H 9940  -0.680   3.198  11.666  1.3883 -2.7537 -1.7146
  833MOL0     H 9941  -0.500   3.226  11.511 -0.4404  0.4406  4.3825
  833MOL0     H 9942   1.263   2.832  10.607 -2.7662  0.6337  1.2780
  833MOL0     H 9943   1.478   2.720  10.709  1.2053 -1.1613  1.9058
  833MOL0     H 9944   1.597   2.472  11.271 -1.0609  0.7010 -1.1700
  833MOL0     H 9945   1.809   2.372  11.315  1.1150  1.4219  0.5589
  833MOL0     H 9946   2.089   2.253  10.971  2.0928 -1.2904  0.5406
  833MOL0     H 9947   1.959   2.135  11.019  0.1071 -0.1486  1.4858
  833MOL0     H 9948   2.113   2.064  11.216 -0.7217 -1.9715 -0.0589
  833MOL0     H 9949   2.156   2.020  11.049  0.4413  0.6059 -0.2561
  833MOL0     H 9950   2.301   2.228  11.048 -0.1289  0.3944 -0.3084
  833MOL0     H 9951   2.349   2.080  11.136 -2.2784 -0.9548 -0.4817
  833MOL0     H 9952   2.291   2.367  11.237 -0.4812 -0.5325 -0.5913
  833MOL0     H 9953   2.281   2.226  11.352 -0.5651  2.6247  1.3961
  833MOL0     H 9954   2.699   2.275  11.315 -0.1148 -1.8424 -0.1417
  833MOL0     H 9955   1.935   2.395  10.907 -2.2580 -1.1286 -1.3266
  833MOL0     H 9956   1.714   2.487  10.856  2.8653 -0.0877 -0.8164
  834MOL0     O 9957   6.963   9.693   4.672 -0.1584  0.0506 -0.4947
  834MOL0     C 9958   7.012   9.588   4.627 -0.0109  0.5960  0.4868
  834MOL0     O 9959   6.944   9.479   4.566 -0.4507 -0.8048 -1.0348
  834MOL0     C 9960   6.811   9.465   4.560 -0.3084  0.4092  0.2789
  834MOL0     C 9961   6.714   9.526   4.638  0.9070 -0.4050  0.8987
  834MOL0     C 9962   6.574   9.506   4.610  0.1924 -0.6625  0.2512
  834MOL0     C 9963   6.539   9.420   4.506 -0.8878  0.3523  0.3339
  834MOL0     O 9964   6.415   9.389   4.482 -0.3144 -0.7716 -0.0211
  834MOL0     C 9965   6.306   9.440   4.555 -0.3615 -0.7335  0.2444
  834MOL0     C 9966   6.172   9.383   4.512  0.2516 -0.2267  0.9277
  834MOL0     C 9967   6.063   9.391   4.618 -0.4268 -0.0145  0.8741
  834MOL0     C 9968   5.939   9.309   4.572  0.0373 -0.5322 -0.8894
  834MOL0     C 9969   5.807   9.378   4.626 -0.4277  0.7729 -0.6508
  834MOL0     C 9970   5.684   9.287   4.583 -0.1012 -0.3359  0.0402
  834MOL0     C 9971   5.559   9.361   4.605  0.5615 -0.4834  0.1758
  834MOL0     C 9972   5.465   9.323   4.498  1.4210  0.8853  0.2400
  834MOL0     N 9973   5.434   9.182   4.486  0.1442  0.4515 -0.8675
  834MOL0     C 9974   5.454   9.106   4.379 -0.0484 -0.2187 -0.1840
  834MOL0     C 9975   5.428   8.978   4.424 -0.6285 -0.1050  0.4437
  834MOL0     C 9976   5.439   8.859   4.335  0.9564 -0.5660 -0.0268
  834MOL0     C 9977   5.311   8.838   4.260  0.3320  0.0029  0.5701
  834MOL0     C 9978   5.312   8.735   4.151 -0.4643 -0.8073 -0.6605
  834MOL0     C 9979   5.177   8.699   4.095  0.2419 -0.0865  0.4123
  834MOL0     O 9980   5.115   8.827   4.060 -0.1869 -0.0942  0.0601
  834MOL0     C 9981   5.004   8.835   3.976  0.5581 -0.5034 -1.3946
  834MOL0     C 9982   4.915   8.723   3.975 -0.6753  0.0935  1.3681
  834MOL0     C 9983   4.804   8.732   3.901  0.1226  0.6490  0.3734
  834MOL0     C 9984   4.777   8.832   3.809 -0.4365  1.1872 -0.0349
  834MOL0     C 9985   4.657   8.839   3.736  0.6607 -0.7083 -0.1384
  834MOL0     O 9986   4.563   8.734   3.746  0.3174  0.0955 -0.1993
  834MOL0     C 9987   4.455   8.740   3.661 -0.6524  0.8752  0.3122
  834MOL0     C 9988   4.479   8.708   3.526  0.1025  0.3659  0.2713
  834MOL0     C 9989   4.372   8.705   3.436  0.2313  0.6143  0.3096
  834MOL0     C 9990   4.245   8.737   3.476  0.1227  0.0606 -0.1918
  834MOL0     O 9991   4.136   8.724   3.397  0.1853  0.6850 -0.3137
  834MOL0     C 9992   4.149   8.636   3.285  0.7118 -0.4782 -0.4413
  834MOL0     C 9993   4.016   8.644   3.210  0.1822 -0.3121  0.4284
  834MOL0     C 9994   3.891   8.612   3.294  0.1657  0.7503  0.1064
  834MOL0     C 9995   3.772   8.626   3.199  0.1729 -0.1747 -0.3370
  834MOL0     C 9996   3.755   8.506   3.099  0.6364 -0.0858  0.9955
  834MOL0     C 9997   3.601   8.500   3.059  0.1642  1.1038  0.2977
  834MOL0     C 9998   3.587   8.410   2.933  0.3610 -0.4838 -0.4730
  834MOL0     C 9999   3.447   8.352   2.911 -0.4515  1.1112 -0.1993
  834MOL0    Cl10000   3.431   8.277   2.743 -0.0961 -0.4543  0.2757
  834MOL0     C10001   4.229   8.779   3.606  0.4529  0.6811  0.2394
  834MOL0     C10002   4.331   8.772   3.700  0.0409  0.3502  0.1687
  834MOL0     O10003   4.636   8.943   3.665 -0.0317  0.0116 -0.7035
  834MOL0     C10004   4.871   8.932   3.801 -0.5901  0.1380 -0.6425
  834MOL0     C10005   4.978   8.942   3.890 -1.1205  0.2242  0.5827
  834MOL0     N10006   5.384   8.983   4.554  0.5402 -0.2394  0.1840
  834MOL0     N10007   5.387   9.106   4.592  0.3065 -0.2697 -0.3185
  834MOL0     C10008   6.640   9.362   4.434  0.1493  0.7566 -0.0989
  834MOL0     C10009   6.775   9.370   4.465 -0.3094 -1.2363  0.8011
  834MOL0     C10010   7.159   9.572   4.630  0.2317 -0.4644 -0.1823
  834MOL0     C10011   7.231   9.456   4.597 -0.0841  0.3433 -0.9708
  834MOL0     C10012   7.371   9.440   4.610  0.0575 -0.1043 -0.4817
  834MOL0     C10013   7.440   9.556   4.643 -0.4040  0.9194  0.5478
  834MOL0     O10014   7.576   9.524   4.656 -0.1129  0.4353  0.0484
  834MOL0     C10015   7.661   9.624   4.723  0.3935 -0.1186 -0.3023
  834MOL0     C10016   7.801   9.572   4.757  0.1422  0.0968  0.5602
  834MOL0     C10017   7.797   9.449   4.853  0.1733  1.3249  0.8399
  834MOL0     C10018   7.926   9.409   4.920  0.1141 -0.3236  0.2958
  834MOL0     C10019   8.035   9.413   4.821 -0.6669 -0.6300  0.4672
  834MOL0     C10020   8.128   9.405   4.735  1.2149 -0.6527  0.3360
  834MOL0     C10021   7.379   9.669   4.671  0.6639 -0.0057  0.4650
  834MOL0     C10022   7.239   9.682   4.675  0.3709  0.4177 -0.6689
  834MOL0     H10023   6.750   9.597   4.712  5.4894 -1.2856 -0.1847
  834MOL0     H10024   6.501   9.559   4.670 -1.1884 -2.7359  0.4873
  834MOL0     H10025   6.293   9.548   4.543 -2.0350 -1.0080 -0.8330
  834MOL0     H10026   6.318   9.415   4.661 -1.2221  0.2658  0.5982
  834MOL0     H10027   6.184   9.276   4.492 -0.6398 -0.6031  2.2715
  834MOL0     H10028   6.140   9.425   4.417 -0.5700  0.0044  1.2975
  834MOL0     H10029   6.037   9.497   4.614 -2.6658 -0.5663 -1.8822
  834MOL0     H10030   6.093   9.354   4.717 -2.0805 -0.5662  1.1920
  834MOL0     H10031   5.917   9.316   4.466  0.4880 -2.3552 -1.1423
  834MOL0     H10032   5.949   9.205   4.606 -0.5688  0.0876  1.3722
  834MOL0     H10033   5.796   9.475   4.576 -2.8431  0.9292  0.0869
  834MOL0     H10034   5.828   9.383   4.733  2.2276  0.1456 -1.0581
  834MOL0     H10035   5.673   9.195   4.642 -0.4864 -0.1041  0.3295
  834MOL0     H10036   5.706   9.261   4.479 -2.5119 -0.0752 -0.5845
  834MOL0     H10037   5.517   9.340   4.704 -2.2885  0.8438 -0.6212
  834MOL0     H10038   5.569   9.470   4.596  1.1163 -0.7163 -2.7517
  834MOL0     H10039   5.493   9.373   4.405 -2.7795  0.9684 -1.1919
  834MOL0     H10040   5.367   9.369   4.514 -0.0245 -0.9129 -2.6049
  834MOL0     H10041   5.494   9.140   4.285  1.6575  2.2169  1.3065
  834MOL0     H10042   5.482   8.772   4.385  3.2108 -0.9087 -2.3701
  834MOL0     H10043   5.518   8.874   4.262  1.7395 -0.6206  0.7923
  834MOL0     H10044   5.284   8.932   4.210 -1.4962 -1.9504 -2.4016
  834MOL0     H10045   5.230   8.813   4.328  1.4351 -5.6727  0.2353
  834MOL0     H10046   5.368   8.775   4.067 -0.0601  1.7034  0.7192
  834MOL0     H10047   5.366   8.649   4.194 -0.2937 -0.0586  0.6745
  834MOL0     H10048   5.123   8.646   4.173 -0.5387  2.3423  1.6256
  834MOL0     H10049   5.166   8.632   4.009  0.2880 -0.2873  0.5614
  834MOL0     H10050   4.931   8.640   4.043 -1.8066 -1.3047 -0.0003
  834MOL0     H10051   4.738   8.646   3.909 -0.6625  1.0246 -1.4587
  834MOL0     H10052   4.582   8.692   3.499 -0.3204  1.3821 -2.1680
  834MOL0     H10053   4.397   8.665   3.339  1.0156 -1.4916  1.3273
  834MOL0     H10054   4.173   8.535   3.318 -2.4413 -0.1809  3.5856
  834MOL0     H10055   4.224   8.662   3.209  2.3718  1.8532  1.8186
  834MOL0     H10056   4.024   8.575   3.125 -1.7985  1.0778 -0.9829
  834MOL0     H10057   4.013   8.744   3.166  1.0793 -0.3598  0.2288
  834MOL0     H10058   3.869   8.699   3.355  0.5125  0.3206  0.8537
  834MOL0     H10059   3.898   8.516   3.346 -2.1514 -0.1957 -1.1657
  834MOL0     H10060   3.683   8.630   3.263  0.8434  1.2553  0.5589
  834MOL0     H10061   3.783   8.723   3.149 -1.1729  0.3320  0.2992
  834MOL0     H10062   3.783   8.412   3.146  3.8086 -0.3011 -1.0784
  834MOL0     H10063   3.825   8.531   3.019  0.8393  1.7185  1.6911
  834MOL0     H10064   3.557   8.597   3.038 -0.2307  0.7857 -0.3537
  834MOL0     H10065   3.547   8.445   3.137 -1.0299 -3.4931 -3.3059
  834MOL0     H10066   3.612   8.476   2.849  1.1288 -1.1084 -0.7546
  834MOL0     H10067   3.660   8.328   2.928 -0.1176 -0.8518 -1.9236
  834MOL0     H10068   3.364   8.424   2.915  0.5430  2.3281 -0.7393
  834MOL0     H10069   3.433   8.275   2.988  0.1829  0.8671 -0.3277
  834MOL0     H10070   4.127   8.809   3.629 -0.1498 -0.4733 -0.7776
  834MOL0     H10071   4.315   8.798   3.804 -2.0438 -0.2391  0.0343
  834MOL0     H10072   4.857   9.000   3.718  0.4569  0.0918 -0.8737
  834MOL0     H10073   5.056   9.018   3.892  2.2444 -3.0004  1.9945
  834MOL0     H10074   6.611   9.300   4.349  3.0560 -0.0232 -0.6446
  834MOL0     H10075   6.849   9.326   4.398 -0.9908  1.8515 -2.2706
  834MOL0     H10076   7.168   9.378   4.556  1.7714 -0.4897 -2.3636
  834MOL0     H10077   7.407   9.341   4.585  2.8872  1.1356 -1.7613
  834MOL0     H10078   7.605   9.672   4.803 -0.5034  1.3386 -1.7311
  834MOL0     H10079   7.671   9.702   4.647  0.8139  2.0328  1.8620
  834MOL0     H10080   7.849   9.542   4.663 -0.7630  2.5669 -0.7757
  834MOL0     H10081   7.859   9.660   4.785 -1.1014  1.8193 -1.8620
  834MOL0     H10082   7.765   9.365   4.790 -1.3560  1.5401  1.2659
  834MOL0     H10083   7.714   9.449   4.925 -1.5665 -1.2401 -0.9477
  834MOL0     H10084   7.944   9.482   4.999 -2.2251  0.8950 -0.2260
  834MOL0     H10085   7.928   9.310   4.966  1.3969 -0.0068  0.9858
  834MOL0     H10086   8.204   9.402   4.660  1.5760 -1.4970  0.7289
  834MOL0     H10087   7.433   9.755   4.708  1.8667 -0.0085 -1.1777
  834MOL0     H10088   7.191   9.778   4.692 -0.9814 -0.3548 -0.0114
  835MOL0     O10089   3.186   4.250   6.949 -0.4923 -0.1637 -1.0676
  835MOL0     C10090   3.183   4.344   6.868 -0.4438  0.4071  0.0414
  835MOL0     O10091   3.076   4.386   6.804 -0.3017 -0.3434  0.5469
  835MOL0     C10092   2.957   4.330   6.838 -0.2237 -1.1384  0.0858
  835MOL0     C10093   2.903   4.226   6.768  0.4758 -0.1261 -0.2066
  835MOL0     C10094   2.784   4.165   6.815  0.3359  0.0249  1.5654
  835MOL0     C10095   2.712   4.207   6.925 -0.2674 -0.7635  0.6037
  835MOL0     O10096   2.604   4.133   6.956 -0.8605 -0.6059  0.2626
  835MOL0     C10097   2.536   4.136   7.088 -0.2835  0.4688  0.3729
  835MOL0     C10098   2.439   4.019   7.073 -0.3313  0.3433  0.2766
  835MOL0     C10099   2.347   4.007   7.194 -0.5956 -0.4754  0.1694
  835MOL0     C10100   2.228   3.912   7.157 -0.7997 -0.3568 -0.7510
  835MOL0     C10101   2.130   3.907   7.273 -0.1352  0.7344  0.9124
  835MOL0     C10102   1.990   3.867   7.218 -0.7578 -0.2268 -0.4099
  835MOL0     C10103   1.879   3.875   7.321 -0.0368 -0.1930  0.2031
  835MOL0     C10104   1.753   3.808   7.274  0.0335  0.3427 -0.0783
  835MOL0     N10105   1.663   3.793   7.391 -0.5438 -0.0150  0.0959
  835MOL0     C10106   1.641   3.892   7.481  0.7514  0.1342  0.9710
  835MOL0     C10107   1.572   3.831   7.582  0.3497  0.3091  0.3409
  835MOL0     C10108   1.533   3.910   7.704 -0.7134  0.2344  0.0965
  835MOL0     C10109   1.401   3.974   7.674 -0.5221  0.3151  0.1445
  835MOL0     C10110   1.353   4.069   7.786 -0.3248  0.5879  0.2530
  835MOL0     C10111   1.234   4.158   7.732 -0.1429 -0.0265  0.4951
  835MOL0     O10112   1.120   4.085   7.720  0.2632  0.0737  0.4668
  835MOL0     C10113   0.996   4.148   7.704  0.4457  0.0968  0.3880
  835MOL0     C10114   0.983   4.286   7.663  0.3651  0.3901 -1.3955
  835MOL0     C10115   0.857   4.345   7.639 -0.6694 -0.5018 -0.9628
  835MOL0     C10116   0.746   4.271   7.626  0.4955  0.1353  0.0274
  835MOL0     C10117   0.617   4.328   7.559 -0.1493  0.5463  0.5653
  835MOL0     O10118   0.514   4.245   7.572 -0.1431  0.2081 -0.7410
  835MOL0     C10119   0.386   4.295   7.597 -1.0179  1.0936  0.0077
  835MOL0     C10120   0.281   4.229   7.544 -0.9140  0.4700 -0.0943
  835MOL0     C10121   0.155   4.293   7.555 -0.1230  0.0563 -0.7089
  835MOL0     C10122   0.130   4.400   7.641 -0.1922 -0.8610 -0.0920
  835MOL0     O10123   0.004   4.442   7.649  0.5954  0.4652  0.5339
  835MOL0     C10124  -0.050   4.486   7.768  0.4155 -0.1839  0.5944
  835MOL0     C10125  -0.200   4.452   7.761 -0.1985 -0.3709 -0.4327
  835MOL0     C10126  -0.280   4.512   7.881  0.3897 -0.1629 -1.0438
  835MOL0     C10127  -0.432   4.488   7.857  0.2512 -0.0628  0.7907
  835MOL0     C10128  -0.517   4.564   7.948  0.9969  0.0519  0.2338
  835MOL0     C10129  -0.665   4.519   7.926 -0.2203  0.7811 -0.4453
  835MOL0     C10130  -0.756   4.607   7.840 -0.7701  0.0555 -0.5151
  835MOL0     C10131  -0.877   4.540   7.803  0.9444  0.3957  0.4131
  835MOL0    Cl10132  -1.012   4.653   7.750  0.1230  0.0788  0.3029
  835MOL0     C10133   0.238   4.478   7.689 -0.4455  0.3700  0.7614
  835MOL0     C10134   0.366   4.418   7.661  0.3214  0.0270  0.0167
  835MOL0     O10135   0.614   4.445   7.511  0.2730 -0.0186 -1.1224
  835MOL0     C10136   0.757   4.132   7.660  0.0050 -0.4865  0.4733
  835MOL0     C10137   0.871   4.077   7.712 -0.5701 -0.7155 -0.1436
  835MOL0     N10138   1.548   3.693   7.550  0.3977 -0.5051  0.2049
  835MOL0     N10139   1.605   3.677   7.432  0.6506 -0.3885 -0.5652
  835MOL0     C10140   2.761   4.321   6.991  0.5387  0.6622  0.7129
  835MOL0     C10141   2.879   4.381   6.951 -0.3190 -0.1881  0.8260
  835MOL0     C10142   3.318   4.410   6.852  0.1783  0.2272  0.1325
  835MOL0     C10143   3.335   4.532   6.778 -0.4144  0.2116  1.1797
  835MOL0     C10144   3.466   4.590   6.767 -0.5756 -0.2623  0.2791
  835MOL0     C10145   3.578   4.531   6.823  0.3551 -0.8655 -0.1413
  835MOL0     O10146   3.702   4.581   6.779  0.0298  0.8371 -0.0411
  835MOL0     C10147   3.810   4.486   6.780 -0.0371  0.4945  0.7063
  835MOL0     C10148   3.930   4.542   6.706 -0.2324  0.3328 -0.0578
  835MOL0     C10149   3.996   4.651   6.791 -0.4510  0.3524  0.0215
  835MOL0     C10150   4.128   4.680   6.714  0.3912  0.3607  0.1034
  835MOL0     C10151   4.219   4.743   6.803  0.4376  0.0942  0.3329
  835MOL0     C10152   4.302   4.797   6.867  1.4389 -0.8543 -0.8823
  835MOL0     C10153   3.559   4.425   6.902  0.6977 -0.0253 -0.2581
  835MOL0     C10154   3.433   4.369   6.922  0.0375  0.2275  0.2092
  835MOL0     H10155   2.952   4.192   6.677  0.2688  1.0722 -0.7841
  835MOL0     H10156   2.748   4.072   6.772  1.7440 -0.4979  1.4549
  835MOL0     H10157   2.485   4.232   7.095  1.8171  1.8091 -1.1489
  835MOL0     H10158   2.609   4.109   7.165  2.4369  0.0784 -2.1233
  835MOL0     H10159   2.496   3.927   7.061 -2.9434 -1.1413 -1.9127
  835MOL0     H10160   2.386   4.029   6.978  1.0150 -2.7633 -0.9232
  835MOL0     H10161   2.300   4.104   7.211 -1.6081 -1.1069  1.1364
  835MOL0     H10162   2.400   3.981   7.286 -0.1400 -0.9246 -0.2118
  835MOL0     H10163   2.177   3.937   7.064 -1.6114  1.1484  0.0633
  835MOL0     H10164   2.269   3.810   7.156 -1.0076 -0.4578  0.1116
  835MOL0     H10165   2.109   4.001   7.324  0.1161 -0.5097  3.4428
  835MOL0     H10166   2.173   3.841   7.349  3.5812  2.3199  0.4019
  835MOL0     H10167   1.983   3.767   7.175 -1.7866  0.7690 -2.7640
  835MOL0     H10168   1.958   3.943   7.146 -0.1355  1.9243  1.4774
  835MOL0     H10169   1.918   3.820   7.408  0.2755 -1.7663 -0.8806
  835MOL0     H10170   1.860   3.982   7.331 -0.8374 -0.2942 -0.1695
  835MOL0     H10171   1.783   3.714   7.228  1.3744  1.2171 -1.0785
  835MOL0     H10172   1.712   3.871   7.195  1.6083  0.5182 -0.8046
  835MOL0     H10173   1.688   3.990   7.476  0.5259  0.1950 -0.1271
  835MOL0     H10174   1.604   3.991   7.723  0.4879 -0.0873 -2.5551
  835MOL0     H10175   1.533   3.846   7.793 -0.6351  1.5079  1.0288
  835MOL0     H10176   1.323   3.898   7.665  0.8992 -1.0026 -1.9374
  835MOL0     H10177   1.398   4.035   7.583  1.3111  1.1853  0.6007
  835MOL0     H10178   1.325   4.005   7.870 -0.6448 -1.5505 -1.4014
  835MOL0     H10179   1.442   4.129   7.810  1.2322 -1.1229 -1.0013
  835MOL0     H10180   1.249   4.208   7.636 -0.8477  0.7820  0.7908
  835MOL0     H10181   1.224   4.243   7.799 -0.5088  2.5042 -2.5437
  835MOL0     H10182   1.078   4.340   7.664  1.8565 -2.0754 -0.6886
  835MOL0     H10183   0.857   4.452   7.621  2.3047  0.1774  1.9690
  835MOL0     H10184   0.304   4.135   7.495 -0.0009 -0.0373  1.2345
  835MOL0     H10185   0.067   4.258   7.502 -0.5425  0.2007 -0.1184
  835MOL0     H10186  -0.036   4.594   7.781 -0.8090  0.0341  0.1987
  835MOL0     H10187  -0.002   4.432   7.850  0.5696 -0.3787  0.3798
  835MOL0     H10188  -0.211   4.344   7.759 -4.3957 -0.1142  0.5128
  835MOL0     H10189  -0.237   4.485   7.663  1.1038  3.5375  0.1982
  835MOL0     H10190  -0.265   4.620   7.886 -1.1971  0.0264  0.6796
  835MOL0     H10191  -0.238   4.476   7.975  3.8021  3.3368 -0.9718
  835MOL0     H10192  -0.468   4.525   7.761  0.6236 -1.5889  0.0309
  835MOL0     H10193  -0.441   4.380   7.870  0.8105 -0.2183 -0.0274
  835MOL0     H10194  -0.526   4.671   7.930 -1.5741  0.0068  0.8407
  835MOL0     H10195  -0.484   4.541   8.050  0.2578  3.5423  1.3941
  835MOL0     H10196  -0.708   4.517   8.026 -0.2879 -2.5754 -0.4313
  835MOL0     H10197  -0.669   4.416   7.891  0.3533  0.6392 -0.1010
  835MOL0     H10198  -0.774   4.691   7.908  2.2387 -0.4246  1.0593
  835MOL0     H10199  -0.684   4.624   7.760  4.8721 -0.7178  3.7308
  835MOL0     H10200  -0.916   4.480   7.885  4.0639 -0.3139  1.5102
  835MOL0     H10201  -0.851   4.477   7.717 -1.1227 -0.1367  0.1264
  835MOL0     H10202   0.219   4.560   7.757 -2.8044  0.7254 -0.2269
  835MOL0     H10203   0.445   4.474   7.711  0.3681  0.2164 -0.2704
  835MOL0     H10204   0.671   4.066   7.658  0.8636 -1.6238 -0.8686
  835MOL0     H10205   0.875   3.972   7.740  1.3814 -1.1503 -1.7810
  835MOL0     H10206   2.710   4.350   7.082 -0.8956 -3.1048  1.2864
  835MOL0     H10207   2.916   4.467   7.007  0.4756  1.6462 -2.2767
  835MOL0     H10208   3.247   4.575   6.730  0.6401  0.4758 -0.6211
  835MOL0     H10209   3.472   4.682   6.709 -0.0204  0.9486  2.1540
  835MOL0     H10210   3.768   4.398   6.729 -1.6440  1.1890  0.7506
  835MOL0     H10211   3.836   4.468   6.884  0.8974 -0.6389  0.2987
  835MOL0     H10212   4.003   4.463   6.686 -0.7502 -0.1638 -0.0281
  835MOL0     H10213   3.896   4.580   6.610 -1.3908 -1.1797 -0.2789
  835MOL0     H10214   4.012   4.617   6.894  0.4733 -1.6262 -0.7243
  835MOL0     H10215   3.942   4.746   6.784  0.5309  0.9714  0.5845
  835MOL0     H10216   4.181   4.591   6.680 -0.3683  0.4704 -1.4849
  835MOL0     H10217   4.093   4.739   6.629 -0.6296  0.9386  0.9000
  835MOL0     H10218   4.368   4.862   6.921  0.2462  0.6234 -1.1400
  835MOL0     H10219   3.639   4.392   6.968 -0.5976 -2.6787  0.1488
  835MOL0     H10220   3.433   4.282   6.987  5.4814  1.4758  2.3610
  836MOL0     O10221   8.225   4.604   2.394  0.0644  0.3657  0.3149
  836MOL0     C10222   8.271   4.503   2.442 -0.1964 -0.2320 -0.1621
  836MOL0     O10223   8.202   4.392   2.490  0.0212  0.8749 -0.2773
  836MOL0     C10224   8.072   4.381   2.475 -1.4701  0.7119  0.6827
  836MOL0     C10225   8.006   4.326   2.584  0.1585 -0.0545 -0.0426
  836MOL0     C10226   7.868   4.313   2.573  0.5580 -0.2752 -0.0317
  836MOL0     C10227   7.794   4.340   2.457 -0.0691  0.1697  0.1251
  836MOL0     O10228   7.664   4.302   2.457  0.1129  0.2121  0.7843
  836MOL0     C10229   7.570   4.376   2.382 -0.7417 -1.3764 -0.6791
  836MOL0     C10230   7.432   4.370   2.449 -0.3605  0.1935  0.1077
  836MOL0     C10231   7.397   4.469   2.558  0.2927 -0.5060 -0.2855
  836MOL0     C10232   7.493   4.451   2.682  0.0943 -1.0306  0.3891
  836MOL0     C10233   7.434   4.548   2.791 -0.7412  0.4024  0.9717
  836MOL0     C10234   7.497   4.513   2.925 -0.2171  0.3556 -0.8057
  836MOL0     C10235   7.457   4.621   3.034  0.3598 -0.7918 -0.4208
  836MOL0     C10236   7.321   4.589   3.090 -0.6744  0.5970 -0.0749
  836MOL0     N10237   7.328   4.490   3.196  0.7866  0.1722 -0.1630
  836MOL0     C10238   7.352   4.514   3.331 -0.4364 -0.1741  0.6732
  836MOL0     C10239   7.318   4.399   3.404 -0.5672 -0.0814  0.5248
  836MOL0     C10240   7.301   4.382   3.552 -0.3205 -0.2395  0.3568
  836MOL0     C10241   7.409   4.282   3.607  0.7394  0.3932  0.5877
  836MOL0     C10242   7.429   4.286   3.762  0.7128 -0.3279 -0.0827
  836MOL0     C10243   7.303   4.271   3.849  0.1666  0.5791 -0.4619
  836MOL0     O10244   7.197   4.182   3.810  0.1284 -0.5611 -0.3156
  836MOL0     C10245   7.089   4.161   3.892 -0.1071 -0.4650 -0.5035
  836MOL0     C10246   7.072   4.213   4.019 -0.3430 -0.5109  0.4964
  836MOL0     C10247   6.961   4.180   4.100 -0.4168  0.4232 -0.0363
  836MOL0     C10248   6.861   4.088   4.054  0.1042  0.6286 -1.0401
  836MOL0     C10249   6.749   4.033   4.150 -0.5472 -0.2070  0.1990
  836MOL0     O10250   6.678   3.934   4.091  0.2306 -0.5041  0.3447
  836MOL0     C10251   6.578   3.874   4.175  0.3000  0.3489  0.1030
  836MOL0     C10252   6.590   3.739   4.215 -0.2350  0.4406 -0.2303
  836MOL0     C10253   6.496   3.679   4.292  1.5973 -0.9449 -0.1274
  836MOL0     C10254   6.382   3.755   4.344 -0.6524  0.6422  0.0942
  836MOL0     O10255   6.291   3.702   4.437  0.7226  0.6957 -0.1484
  836MOL0     C10256   6.300   3.567   4.489  0.1324  0.2497 -0.3577
  836MOL0     C10257   6.153   3.511   4.481  0.0085 -0.5719 -0.3957
  836MOL0     C10258   6.140   3.416   4.596  0.1167  0.4054 -0.1408
  836MOL0     C10259   5.990   3.373   4.598 -0.3007 -0.7457  0.1851
  836MOL0     C10260   5.968   3.267   4.706  0.9465  0.5479  0.3562
  836MOL0     C10261   5.816   3.225   4.694  0.2829 -0.3392 -0.0658
  836MOL0     C10262   5.785   3.081   4.713  0.1430  0.3994  0.6342
  836MOL0     C10263   5.704   3.049   4.839 -0.2860 -0.2407  0.5343
  836MOL0    Cl10264   5.538   3.065   4.792  0.5293  0.3839  0.0380
  836MOL0     C10265   6.368   3.883   4.298 -0.8590 -0.4469  0.7657
  836MOL0     C10266   6.458   3.941   4.204 -0.6670 -0.4244 -0.2533
  836MOL0     O10267   6.722   4.092   4.253  0.1368  0.3701  0.6662
  836MOL0     C10268   6.885   4.032   3.929  1.0435  0.2279 -0.2029
  836MOL0     C10269   6.988   4.075   3.846  0.3014 -0.6003  0.1735
  836MOL0     N10270   7.270   4.307   3.304  0.0164  0.3748 -0.6705
  836MOL0     N10271   7.282   4.358   3.184  0.2986 -0.4943 -0.4796
  836MOL0     C10272   7.868   4.378   2.344 -0.3283 -0.1572 -0.5772
  836MOL0     C10273   8.009   4.400   2.352  0.3706 -0.5071  0.4114
  836MOL0     C10274   8.415   4.493   2.449  0.6752  0.7862  0.3280
  836MOL0     C10275   8.491   4.613   2.474 -0.6585  0.3744  0.6397
  836MOL0     C10276   8.629   4.599   2.483  0.9262  0.2467 -0.1473
  836MOL0     C10277   8.693   4.477   2.466  0.2334 -0.2939 -1.2109
  836MOL0     O10278   8.832   4.482   2.469 -0.9617  0.5438  0.8091
  836MOL0     C10279   8.906   4.371   2.432 -0.0638 -0.1273 -0.2640
  836MOL0     C10280   9.050   4.405   2.432  0.1553  0.8020 -0.5153
  836MOL0     C10281   9.126   4.271   2.408 -0.6554  0.6209  0.3267
  836MOL0     C10282   9.276   4.285   2.370 -0.4012  0.0919 -0.3735
  836MOL0     C10283   9.353   4.373   2.463 -0.0320 -0.0580  0.2317
  836MOL0     C10284   9.422   4.430   2.540  0.3704  0.0057  0.4255
  836MOL0     C10285   8.620   4.362   2.429  0.5843 -0.0639 -0.6227
  836MOL0     C10286   8.482   4.368   2.417  0.3296 -0.4839 -0.5341
  836MOL0     H10287   8.058   4.313   2.678 -1.2415 -0.5412  0.7020
  836MOL0     H10288   7.827   4.287   2.670  1.0738 -1.3030 -0.0870
  836MOL0     H10289   7.563   4.343   2.278 -1.7833 -1.3280 -0.6274
  836MOL0     H10290   7.596   4.482   2.382  0.1415 -1.5813 -1.8618
  836MOL0     H10291   7.421   4.269   2.489 -0.2081  0.4099  0.7064
  836MOL0     H10292   7.352   4.381   2.375  1.9468  1.9684 -2.3075
  836MOL0     H10293   7.296   4.447   2.593  0.2088 -1.4976 -1.0995
  836MOL0     H10294   7.407   4.573   2.526  1.5941 -0.5101  0.0474
  836MOL0     H10295   7.498   4.347   2.718  1.4275 -0.8819  0.6606
  836MOL0     H10296   7.594   4.472   2.648  0.6703 -2.6061  0.9856
  836MOL0     H10297   7.325   4.544   2.794 -0.7647 -1.1141 -0.7111
  836MOL0     H10298   7.462   4.651   2.767 -0.5881 -0.0478 -0.9332
  836MOL0     H10299   7.605   4.518   2.912 -0.2024  0.5839 -0.6002
  836MOL0     H10300   7.483   4.408   2.953  2.4541  0.1794  0.1620
  836MOL0     H10301   7.527   4.626   3.118 -0.4825  0.1639  0.2467
  836MOL0     H10302   7.451   4.715   2.978 -0.6995 -0.5351  0.1024
  836MOL0     H10303   7.257   4.545   3.013 -0.4788 -1.7257  1.0030
  836MOL0     H10304   7.269   4.677   3.128  2.5732  3.4166 -1.6638
  836MOL0     H10305   7.382   4.610   3.372 -0.9665  0.7345 -0.9612
  836MOL0     H10306   7.196   4.353   3.568 -0.7378 -0.6912 -2.6134
  836MOL0     H10307   7.306   4.484   3.590  0.2765  0.4435 -1.4684
  836MOL0     H10308   7.505   4.286   3.555  0.7814 -0.4348  0.5916
  836MOL0     H10309   7.371   4.181   3.590  0.5615  0.8955 -2.5603
  836MOL0     H10310   7.493   4.201   3.787 -1.4980 -2.4611 -1.2680
  836MOL0     H10311   7.480   4.382   3.780 -1.2407  0.8522 -0.5103
  836MOL0     H10312   7.252   4.368   3.850  1.8085  1.4851 -1.1144
  836MOL0     H10313   7.333   4.247   3.951 -0.8138 -1.4897 -0.6162
  836MOL0     H10314   7.142   4.285   4.060 -3.5315  3.0161  0.2646
  836MOL0     H10315   6.941   4.228   4.195 -2.3810  1.4028 -0.8887
  836MOL0     H10316   6.684   3.691   4.191  1.4396  3.7894 -0.9468
  836MOL0     H10317   6.504   3.577   4.328 -0.6364 -0.5563  1.7341
  836MOL0     H10318   6.340   3.574   4.591  1.2724  1.2183 -0.8411
  836MOL0     H10319   6.357   3.499   4.426 -1.5813  2.0136 -4.0783
  836MOL0     H10320   6.127   3.491   4.377  0.3131  2.5809 -1.1861
  836MOL0     H10321   6.086   3.594   4.505 -1.5665 -1.8112 -0.4137
  836MOL0     H10322   6.174   3.454   4.692 -0.4995  1.4786 -0.3367
  836MOL0     H10323   6.205   3.330   4.576 -0.0375 -0.4695  2.7145
  836MOL0     H10324   5.922   3.449   4.639 -2.0239 -2.7187  1.1494
  836MOL0     H10325   5.956   3.333   4.502  1.2855  0.8080 -1.1126
  836MOL0     H10326   5.984   3.314   4.803 -0.1065  0.3592  0.6396
  836MOL0     H10327   6.034   3.181   4.694  0.8103  0.6706 -1.7535
  836MOL0     H10328   5.765   3.259   4.603 -2.1538  1.9911  2.0186
  836MOL0     H10329   5.764   3.286   4.768 -0.4192  1.1899 -1.7420
  836MOL0     H10330   5.725   3.046   4.628  1.9530 -2.5326  0.4028
  836MOL0     H10331   5.877   3.021   4.712 -0.1163 -0.0172  1.0655
  836MOL0     H10332   5.727   3.115   4.923  1.4003 -0.1064 -0.0021
  836MOL0     H10333   5.720   2.946   4.874  0.4427 -0.4703 -0.4255
  836MOL0     H10334   6.282   3.933   4.341 -2.2315 -1.4979 -0.6380
  836MOL0     H10335   6.446   4.046   4.180 -1.0317  0.0235  1.6690
  836MOL0     H10336   6.814   3.956   3.896 -0.8029  0.6627  2.4613
  836MOL0     H10337   6.989   4.047   3.741 -1.9694  2.1719 -0.7290
  836MOL0     H10338   7.809   4.384   2.252 -1.3553 -2.2286 -0.1048
  836MOL0     H10339   8.074   4.445   2.277  1.3000 -1.6874  0.4832
  836MOL0     H10340   8.450   4.712   2.492  0.1565  0.9872 -0.7317
  836MOL0     H10341   8.684   4.689   2.506  1.8992  0.3109 -2.4500
  836MOL0     H10342   8.883   4.347   2.328  3.1737  0.7053 -1.2823
  836MOL0     H10343   8.879   4.289   2.499  0.5798 -1.4456 -1.5667
  836MOL0     H10344   9.067   4.479   2.354 -0.2350 -1.8093 -3.2418
  836MOL0     H10345   9.076   4.444   2.531  0.0615 -0.4514  0.0367
  836MOL0     H10346   9.073   4.225   2.323  0.5664 -1.0926  0.4278
  836MOL0     H10347   9.112   4.211   2.498 -3.4281 -0.1738 -0.5115
  836MOL0     H10348   9.326   4.188   2.374 -0.9698 -0.4090 -2.9755
  836MOL0     H10349   9.283   4.316   2.265  1.1269 -0.8253 -0.5710
  836MOL0     H10350   9.487   4.477   2.612  1.5343 -1.4806  0.3846
  836MOL0     H10351   8.666   4.265   2.410  0.0106 -0.1116 -1.9355
  836MOL0     H10352   8.433   4.274   2.394  1.0781 -0.8926 -0.4648
  837MOL0     O10353   4.862   8.464   0.015  0.4091  0.3408  0.1889
  837MOL0     C10354   4.860   8.558   0.093  0.8522 -0.0870  0.5816
  837MOL0     O10355   4.786   8.571   0.207 -0.2203 -0.0588  0.1252
  837MOL0     C10356   4.711   8.475   0.267 -0.8370 -0.4628  0.0313
  837MOL0     C10357   4.680   8.494   0.398 -0.5393 -0.0570 -0.9615
  837MOL0     C10358   4.611   8.399   0.468  0.8412  0.5800  0.1077
  837MOL0     C10359   4.569   8.273   0.407  0.1440  0.9607  0.3170
  837MOL0     O10360   4.508   8.183   0.489 -0.5133  0.2597 -0.3366
  837MOL0     C10361   4.408   8.225   0.587 -0.4701 -0.2611 -0.8259
  837MOL0     C10362   4.338   8.108   0.654  0.7621 -0.4473 -0.3008
  837MOL0     C10363   4.227   8.052   0.556 -0.0152 -0.1271  0.6807
  837MOL0     C10364   4.119   7.973   0.617  0.6090 -0.2602 -0.2215
  837MOL0     C10365   4.009   7.932   0.514 -0.5887 -0.5605  0.1893
  837MOL0     C10366   3.890   8.026   0.526  0.0521 -0.1414  0.5496
  837MOL0     C10367   3.790   7.998   0.410  0.1381 -0.2330  0.9748
  837MOL0     C10368   3.750   7.849   0.407 -0.4846 -0.5656 -0.0848
  837MOL0     N10369   3.616   7.826   0.345  0.3007  0.1905 -0.2423
  837MOL0     C10370   3.499   7.870   0.392  1.4581 -0.3185 -0.7867
  837MOL0     C10371   3.400   7.831   0.307  0.3843  1.0956  0.0177
  837MOL0     C10372   3.248   7.821   0.324  0.3401  0.2103 -0.0011
  837MOL0     C10373   3.168   7.902   0.222 -0.4840 -0.6107  0.1234
  837MOL0     C10374   3.195   7.865   0.072 -0.0341  0.8110 -0.1614
  837MOL0     C10375   3.087   7.909  -0.022 -0.3138 -0.9161 -0.1017
  837MOL0     O10376   3.137   7.879  -0.152 -0.6116  0.4043 -0.5704
  837MOL0     C10377   3.197   7.975  -0.222  0.3013  0.4755  0.7162
  837MOL0     C10378   3.129   8.086  -0.270  0.3197 -0.0822 -1.2379
  837MOL0     C10379   3.192   8.185  -0.341 -0.5174  0.2505 -0.0144
  837MOL0     C10380   3.330   8.182  -0.377  0.2623 -0.0677 -1.1506
  837MOL0     C10381   3.394   8.289  -0.447 -0.1090 -0.1775 -0.1038
  837MOL0     O10382   3.528   8.273  -0.474  0.5032  0.7541  0.2106
  837MOL0     C10383   3.597   8.368  -0.540 -0.0705 -0.2948  0.3912
  837MOL0     C10384   3.625   8.489  -0.477 -0.3157 -0.3842  0.5268
  837MOL0     C10385   3.668   8.608  -0.553 -0.0381  0.5127 -0.5441
  837MOL0     C10386   3.691   8.599  -0.693 -0.1288  0.6694 -0.6164
  837MOL0     O10387   3.725   8.699  -0.783  0.0099 -0.4335  0.0807
  837MOL0     C10388   3.760   8.831  -0.725 -0.2565  0.4666 -0.9528
  837MOL0     C10389   3.906   8.809  -0.667  0.3219 -0.3950 -0.3703
  837MOL0     C10390   4.004   8.751  -0.767  0.1844  1.1185  0.1172
  837MOL0     C10391   4.141   8.744  -0.708  0.2439 -0.4598  0.4331
  837MOL0     C10392   4.253   8.705  -0.810  0.4600 -0.9708 -0.9415
  837MOL0     C10393   4.236   8.573  -0.870 -0.8231  1.0167  0.5441
  837MOL0     C10394   4.360   8.530  -0.953 -0.2864  0.1980 -0.8231
  837MOL0     C10395   4.477   8.499  -0.864 -0.2361  0.0132  0.4380
  837MOL0    Cl10396   4.449   8.356  -0.762  0.0511  0.4890  0.5839
  837MOL0     C10397   3.675   8.474  -0.750 -0.5150 -0.4717  0.4493
  837MOL0     C10398   3.631   8.355  -0.675  0.8246  0.8112 -0.4917
  837MOL0     O10399   3.326   8.388  -0.474 -0.0124  0.2060  0.3462
  837MOL0     C10400   3.396   8.066  -0.342  0.3840  0.2737 -1.0646
  837MOL0     C10401   3.329   7.967  -0.263  0.1578  0.2975 -1.2482
  837MOL0     N10402   3.470   7.766   0.197 -1.0944  0.5870 -0.4241
  837MOL0     N10403   3.596   7.769   0.221  0.2218 -0.0257 -0.7330
  837MOL0     C10404   4.593   8.252   0.272  0.1453 -0.2251 -0.7317
  837MOL0     C10405   4.668   8.351   0.209  0.7408 -1.1355  0.1963
  837MOL0     C10406   4.960   8.669   0.065  0.0981 -0.1702 -0.4889
  837MOL0     C10407   5.033   8.673  -0.050  0.8835 -0.4919 -0.1661
  837MOL0     C10408   5.130   8.775  -0.069 -1.0731 -0.4678  0.0262
  837MOL0     C10409   5.143   8.884   0.019 -0.3653 -0.1529 -0.3067
  837MOL0     O10410   5.226   8.985  -0.011  0.2366 -0.4661 -0.0432
  837MOL0     C10411   5.199   9.055  -0.140 -0.2508 -0.2161  0.0047
  837MOL0     C10412   5.181   9.205  -0.106  0.2123 -0.9255  0.0997
  837MOL0     C10413   5.143   9.274  -0.236 -0.5127 -0.3863 -0.0773
  837MOL0     C10414   5.133   9.419  -0.225  0.4144  0.3330 -0.1759
  837MOL0     C10415   5.019   9.475  -0.154  0.9191  0.2691  0.1307
  837MOL0     C10416   4.912   9.501  -0.110  0.2228  0.1793 -0.1932
  837MOL0     C10417   5.067   8.876   0.140 -0.2344 -0.4690 -0.9098
  837MOL0     C10418   4.973   8.773   0.164  0.3526  0.3494 -0.0206
  837MOL0     H10419   4.721   8.582   0.446  1.1036 -1.4689  0.3453
  837MOL0     H10420   4.572   8.413   0.568 -0.9630 -1.2616 -0.2695
  837MOL0     H10421   4.346   8.301   0.538  0.6489  3.1952  2.5502
  837MOL0     H10422   4.446   8.269   0.680 -0.8531 -0.6440 -0.4866
  837MOL0     H10423   4.299   8.141   0.750  2.0892 -2.2340  0.9422
  837MOL0     H10424   4.410   8.029   0.680  0.4795 -0.7812 -0.5171
  837MOL0     H10425   4.289   8.002   0.481 -0.9571  0.8057 -0.7584
  837MOL0     H10426   4.180   8.130   0.496 -1.6683 -1.7538 -0.2191
  837MOL0     H10427   4.169   7.892   0.671  2.4425  1.4925  0.8603
  837MOL0     H10428   4.064   8.033   0.690 -3.7834 -0.7684 -2.8019
  837MOL0     H10429   3.971   7.840   0.558 -1.2991 -0.4267 -0.1336
  837MOL0     H10430   4.055   7.919   0.415 -1.4232 -1.4709 -0.0863
  837MOL0     H10431   3.916   8.131   0.515 -1.5218  0.1955 -0.2153
  837MOL0     H10432   3.838   8.027   0.622  2.6223 -0.2002  2.0261
  837MOL0     H10433   3.699   8.052   0.438  0.2264  0.2033  0.4281
  837MOL0     H10434   3.826   8.030   0.312  1.1216  3.0971  2.2692
  837MOL0     H10435   3.755   7.812   0.509 -1.5058  2.6691  1.2512
  837MOL0     H10436   3.817   7.811   0.329 -0.2076 -0.4558  0.1014
  837MOL0     H10437   3.493   7.914   0.491  2.8354 -2.7245  0.4555
  837MOL0     H10438   3.219   7.857   0.423 -0.9079 -1.3265  0.2304
  837MOL0     H10439   3.211   7.719   0.311 -1.0636  0.7395 -0.3874
  837MOL0     H10440   3.192   8.008   0.230 -1.2465 -0.3285 -1.1088
  837MOL0     H10441   3.061   7.882   0.239 -0.2216 -0.4833  2.1408
  837MOL0     H10442   3.289   7.917   0.052  1.5490 -1.0063  1.9978
  837MOL0     H10443   3.203   7.757   0.061 -2.3786  0.8222 -3.7983
  837MOL0     H10444   3.061   8.015  -0.012 -1.0791 -0.9771 -1.3517
  837MOL0     H10445   2.999   7.851   0.006 -0.3063  0.4105  3.1100
  837MOL0     H10446   3.021   8.089  -0.259 -0.1454 -3.7872 -3.1380
  837MOL0     H10447   3.132   8.268  -0.376 -2.6835 -1.8521 -1.6486
  837MOL0     H10448   3.600   8.492  -0.372 -0.9840 -0.3580  0.3752
  837MOL0     H10449   3.676   8.706  -0.509  0.5706 -0.0947  0.7452
  837MOL0     H10450   3.690   8.868  -0.649  0.1741 -0.6779  0.0472
  837MOL0     H10451   3.772   8.890  -0.816 -1.2687  0.7822 -0.8976
  837MOL0     H10452   3.902   8.748  -0.576 -3.4808 -2.2646 -1.5769
  837MOL0     H10453   3.952   8.906  -0.647  2.1697 -0.3278 -4.0230
  837MOL0     H10454   4.015   8.814  -0.856  4.3093  1.0351  0.3866
  837MOL0     H10455   3.986   8.650  -0.804  1.6878  0.2503  1.6023
  837MOL0     H10456   4.179   8.839  -0.667  3.2487 -1.4108  0.1330
  837MOL0     H10457   4.132   8.668  -0.630 -0.1962 -1.2642 -0.3943
  837MOL0     H10458   4.346   8.719  -0.755 -1.3727  4.7088  1.4833
  837MOL0     H10459   4.250   8.776  -0.894  1.1060 -0.0054 -0.1652
  837MOL0     H10460   4.144   8.560  -0.928  0.4738  2.7656 -2.0740
  837MOL0     H10461   4.219   8.493  -0.796 -0.7190 -1.8727 -2.3251
  837MOL0     H10462   4.337   8.434  -0.999 -2.0375  0.3508 -0.3452
  837MOL0     H10463   4.388   8.609  -1.024  0.5135 -0.0706 -0.8211
  837MOL0     H10464   4.519   8.583  -0.808 -2.9674  1.4288  0.5297
  837MOL0     H10465   4.552   8.471  -0.938 -1.2914  0.0377 -0.6702
  837MOL0     H10466   3.687   8.470  -0.857 -1.2036  1.0214  0.2793
  837MOL0     H10467   3.606   8.264  -0.729 -0.5593  1.2697 -0.6564
  837MOL0     H10468   3.500   8.055  -0.370  0.8703  2.8623 -0.5097
  837MOL0     H10469   3.381   7.876  -0.235  0.6927  0.8802 -0.3029
  837MOL0     H10470   4.565   8.162   0.218 -0.2284 -0.9690  0.6416
  837MOL0     H10471   4.705   8.323   0.111  0.0801 -0.3177 -0.2977
  837MOL0     H10472   5.008   8.596  -0.122  0.6337 -2.7540  2.2162
  837MOL0     H10473   5.186   8.772  -0.162  0.9211  0.7779  1.0947
  837MOL0     H10474   5.116   9.013  -0.199  0.3150 -2.7582  0.8856
  837MOL0     H10475   5.283   9.039  -0.207 -0.9964 -1.9070 -0.5938
  837MOL0     H10476   5.098   9.200  -0.036 -0.1198  0.5084 -0.1596
  837MOL0     H10477   5.265   9.249  -0.053 -0.6406 -2.5824  3.0739
  837MOL0     H10478   5.050   9.239  -0.281 -0.1982 -0.0585 -1.0052
  837MOL0     H10479   5.221   9.255  -0.310  2.0185  0.4313  2.2117
  837MOL0     H10480   5.209   9.461  -0.158  0.7363  0.2057 -0.4616
  837MOL0     H10481   5.129   9.474  -0.320  0.0160  0.1702 -0.2544
  837MOL0     H10482   4.809   9.515  -0.081  0.7475 -0.7049  2.3995
  837MOL0     H10483   5.076   8.959   0.209 -4.1193  1.1578 -2.0828
  837MOL0     H10484   4.914   8.769   0.255  0.7510  3.4831  0.4799
  838MOL0     O10485   2.426   0.607   4.979 -0.5030 -0.4041  0.1331
  838MOL0     C10486   2.423   0.521   5.064  1.0004  0.1815 -0.1464
  838MOL0     O10487   2.315   0.443   5.098 -0.3316 -0.4342 -0.3202
  838MOL0     C10488   2.199   0.492   5.045 -0.8997 -0.5148  0.2123
  838MOL0     C10489   2.148   0.451   4.926  0.2960  1.1838  0.0713
  838MOL0     C10490   2.038   0.503   4.866 -0.0625 -0.0334 -0.3517
  838MOL0     C10491   1.961   0.596   4.936 -0.1164  0.2991  0.4137
  838MOL0     O10492   1.839   0.629   4.882 -0.5250 -0.2426 -0.8218
  838MOL0     C10493   1.779   0.754   4.925  0.4526 -0.0401  0.8542
  838MOL0     C10494   1.644   0.745   4.848 -0.5364 -0.0352 -0.3750
  838MOL0     C10495   1.552   0.856   4.888 -0.6171 -0.8890  0.0191
  838MOL0     C10496   1.433   0.879   4.802 -0.6424  0.5650  0.5985
  838MOL0     C10497   1.317   0.951   4.874  0.1289  0.0618 -0.1400
  838MOL0     C10498   1.182   0.921   4.810  0.5934 -0.2455  0.1667
  838MOL0     C10499   1.072   0.957   4.908 -1.0825  0.6439 -0.6965
  838MOL0     C10500   0.927   0.931   4.852  0.2750 -0.0469  0.6074
  838MOL0     N10501   0.892   1.056   4.779 -0.3058  0.2291 -0.3340
  838MOL0     C10502   0.884   1.055   4.643  0.4644 -0.8206 -0.4507
  838MOL0     C10503   0.827   1.176   4.615 -0.4973 -0.3307 -0.4669
  838MOL0     C10504   0.785   1.225   4.479  0.0771  0.3076 -0.2040
  838MOL0     C10505   0.639   1.205   4.462 -0.0674 -0.4441  0.6073
  838MOL0     C10506   0.578   1.082   4.533 -0.0091  0.1065  0.3609
  838MOL0     C10507   0.435   1.044   4.488  0.0365  0.5975 -0.3253
  838MOL0     O10508   0.335   1.135   4.543 -0.5365 -0.1111  0.9121
  838MOL0     C10509   0.209   1.142   4.492 -0.7657 -0.3547  0.4677
  838MOL0     C10510   0.161   1.048   4.401 -0.4416 -0.3007  0.0755
  838MOL0     C10511   0.026   1.044   4.367  0.6551  0.4303  0.7869
  838MOL0     C10512  -0.070   1.139   4.420  0.2313 -0.9382 -0.1260
  838MOL0     C10513  -0.213   1.148   4.375 -0.3715  0.2364 -0.5090
  838MOL0     O10514  -0.251   1.034   4.311  0.8385  0.1480  0.4702
  838MOL0     C10515  -0.379   1.028   4.253 -0.4160  0.7828  0.4356
  838MOL0     C10516  -0.482   0.961   4.322 -0.2970 -0.6403  0.1412
  838MOL0     C10517  -0.612   0.975   4.281  0.9553 -0.6769  1.0258
  838MOL0     C10518  -0.651   1.043   4.169 -0.0911  0.5738 -0.2211
  838MOL0     O10519  -0.777   1.069   4.128 -0.1620  0.6049  0.6226
  838MOL0     C10520  -0.888   1.022   4.202  0.7492  0.5088 -0.7942
  838MOL0     C10521  -1.008   1.095   4.152  0.5528  0.3531  0.4359
  838MOL0     C10522  -1.137   1.066   4.238  0.1356 -0.3276 -0.3747
  838MOL0     C10523  -1.268   1.122   4.166  0.3176  0.5467 -0.4871
  838MOL0     C10524  -1.390   1.093   4.251  0.3935  0.6138 -0.2674
  838MOL0     C10525  -1.516   1.126   4.176  0.2839  0.8179  0.1019
  838MOL0     C10526  -1.640   1.124   4.275  0.3308 -0.2786  0.3323
  838MOL0     C10527  -1.762   1.210   4.221  0.7219 -0.3297 -0.1560
  838MOL0    Cl10528  -1.862   1.110   4.115  0.1118  0.3521  0.3481
  838MOL0     C10529  -0.547   1.101   4.096  0.1159 -0.0233  0.3777
  838MOL0     C10530  -0.412   1.092   4.130  0.0139  0.1573  0.5193
  838MOL0     O10531  -0.269   1.250   4.386  0.0627  0.2704  0.2289
  838MOL0     C10532  -0.016   1.232   4.505 -0.0401  1.1031  1.0224
  838MOL0     C10533   0.122   1.230   4.544 -0.2453 -0.4040  0.2490
  838MOL0     N10534   0.811   1.248   4.739 -1.0467 -0.3364 -0.0561
  838MOL0     N10535   0.849   1.168   4.835 -0.4412 -0.7300 -0.0442
  838MOL0     C10536   1.994   0.629   5.071 -0.0831 -0.2494 -0.0854
  838MOL0     C10537   2.120   0.586   5.114  0.1535 -0.2427  0.3157
  838MOL0     C10538   2.539   0.515   5.156 -0.0229  0.1899 -0.6590
  838MOL0     C10539   2.643   0.603   5.136  0.2231 -0.2739 -0.3683
  838MOL0     C10540   2.763   0.604   5.209 -0.3378 -0.5450  0.5027
  838MOL0     C10541   2.769   0.519   5.323 -0.7925  0.0516 -0.4570
  838MOL0     O10542   2.880   0.540   5.408  0.9247  0.4459  0.6116
  838MOL0     C10543   2.916   0.436   5.497 -0.4974 -0.2514  0.5559
  838MOL0     C10544   3.063   0.426   5.515  0.0444 -0.2087 -0.3639
  838MOL0     C10545   3.144   0.394   5.385 -0.2588  0.0766 -0.9826
  838MOL0     C10546   3.285   0.347   5.435 -0.1010  0.2493 -0.3170
  838MOL0     C10547   3.361   0.468   5.475  0.6620 -0.7685  0.2637
  838MOL0     C10548   3.429   0.561   5.510  0.0057  0.1130  0.4469
  838MOL0     C10549   2.666   0.426   5.344 -0.3680  0.4963 -0.5068
  838MOL0     C10550   2.555   0.426   5.269  0.1976 -0.8561  0.2239
  838MOL0     H10551   2.206   0.377   4.872  0.0259  0.4587  0.7714
  838MOL0     H10552   2.009   0.477   4.765 -0.5636  0.8758 -0.4464
  838MOL0     H10553   1.844   0.842   4.922  1.1915 -0.6049 -1.6475
  838MOL0     H10554   1.757   0.749   5.032 -1.4319  2.4128  0.6765
  838MOL0     H10555   1.601   0.645   4.857 -1.4773  0.2788 -1.3032
  838MOL0     H10556   1.667   0.747   4.741 -0.8636  0.6623 -0.4332
  838MOL0     H10557   1.613   0.947   4.879  1.5397 -1.9772  2.2583
  838MOL0     H10558   1.526   0.843   4.994  1.7094 -4.1441  0.3428
  838MOL0     H10559   1.460   0.934   4.712 -0.9093 -1.0018 -0.4637
  838MOL0     H10560   1.408   0.784   4.754 -0.2220  2.0030 -2.7509
  838MOL0     H10561   1.339   1.058   4.885  1.0062 -0.3263  2.8287
  838MOL0     H10562   1.313   0.909   4.975  2.1843 -1.1116 -0.4861
  838MOL0     H10563   1.175   0.813   4.791  0.0812 -0.7577  2.8199
  838MOL0     H10564   1.165   0.989   4.727 -0.5308 -1.3805 -0.5622
  838MOL0     H10565   1.077   0.908   5.006  0.1017 -0.7026 -1.4003
  838MOL0     H10566   1.094   1.061   4.936  2.5972  0.6443 -2.9376
  838MOL0     H10567   0.855   0.910   4.932 -0.2249 -0.0040  0.1774
  838MOL0     H10568   0.937   0.848   4.782  2.2174  1.6538 -1.2893
  838MOL0     H10569   0.917   0.990   4.563  0.9113  0.9494 -1.7918
  838MOL0     H10570   0.831   1.173   4.395 -1.2830  1.6498 -1.8410
  838MOL0     H10571   0.805   1.333   4.473  1.8835  0.1740  1.8024
  838MOL0     H10572   0.609   1.212   4.357 -0.7746 -2.2643  0.6596
  838MOL0     H10573   0.588   1.286   4.516  0.3158  0.5616 -0.4869
  838MOL0     H10574   0.644   0.998   4.511  0.7768  0.2081  2.1875
  838MOL0     H10575   0.580   1.098   4.641 -2.5166 -2.3798  0.8941
  838MOL0     H10576   0.406   0.944   4.523  3.1200 -0.8703 -1.4940
  838MOL0     H10577   0.439   1.044   4.379 -0.4298 -2.4138 -0.4249
  838MOL0     H10578   0.229   0.976   4.356  0.9251 -0.9048  2.9005
  838MOL0     H10579  -0.014   0.976   4.293 -0.4860  1.5917  0.2926
  838MOL0     H10580  -0.461   0.904   4.412 -2.8628 -0.9995  0.5764
  838MOL0     H10581  -0.701   0.931   4.325 -0.7291 -3.6445 -4.3705
  838MOL0     H10582  -0.882   1.041   4.310 -0.3201 -0.5039 -0.5387
  838MOL0     H10583  -0.900   0.914   4.195  3.7890 -0.3049  2.7946
  838MOL0     H10584  -1.016   1.074   4.045  1.6743  1.0651  0.2016
  838MOL0     H10585  -0.995   1.203   4.167  0.4965  1.1186 -3.9466
  838MOL0     H10586  -1.131   1.126   4.329  0.8749 -0.3173 -0.4225
  838MOL0     H10587  -1.151   0.960   4.262  1.5515 -0.4991 -0.2543
  838MOL0     H10588  -1.254   1.227   4.136  0.3642  0.1340 -2.0066
  838MOL0     H10589  -1.284   1.067   4.073 -1.3787 -1.5108  0.9499
  838MOL0     H10590  -1.387   1.148   4.345  1.5203  2.5257 -1.3671
  838MOL0     H10591  -1.397   0.987   4.279  1.3486  1.2239  2.5660
  838MOL0     H10592  -1.532   1.062   4.089 -0.0365  0.7113  0.2380
  838MOL0     H10593  -1.502   1.228   4.139  0.8270  1.2492  1.4448
  838MOL0     H10594  -1.671   1.022   4.300 -1.3594 -0.3809 -1.8181
  838MOL0     H10595  -1.614   1.169   4.371 -1.0471  1.5063 -0.0575
  838MOL0     H10596  -1.730   1.299   4.167  1.1841 -1.2368 -1.4333
  838MOL0     H10597  -1.831   1.238   4.301  1.0049 -1.5255  0.5315
  838MOL0     H10598  -0.586   1.150   4.008  0.5476 -1.1394 -0.4668
  838MOL0     H10599  -0.343   1.144   4.064 -2.7694  1.1793 -1.7749
  838MOL0     H10600  -0.083   1.301   4.555 -1.1235  0.4823  0.4640
  838MOL0     H10601   0.144   1.304   4.620 -1.3885  1.3627 -1.0681
  838MOL0     H10602   1.942   0.708   5.125  0.7291  2.3510 -2.8184
  838MOL0     H10603   2.155   0.616   5.212 -2.0267  2.6646  0.3301
  838MOL0     H10604   2.639   0.685   5.065  1.9888  0.5771  0.4638
  838MOL0     H10605   2.844   0.676   5.195 -0.2992 -0.1007  2.7063
  838MOL0     H10606   2.881   0.341   5.456  0.0747 -0.4632  0.5442
  838MOL0     H10607   2.872   0.443   5.597 -1.4076 -1.4347  0.2657
  838MOL0     H10608   3.098   0.522   5.554 -4.6680  0.6771  2.4829
  838MOL0     H10609   3.078   0.349   5.591  0.1877  0.0898 -0.0873
  838MOL0     H10610   3.139   0.478   5.315 -1.8775  0.6226 -0.2618
  838MOL0     H10611   3.093   0.307   5.341  0.8434 -0.4230 -1.3253
  838MOL0     H10612   3.282   0.275   5.517  0.2555  1.0326  0.3943
  838MOL0     H10613   3.330   0.303   5.345 -1.9818 -0.3080 -1.0255
  838MOL0     H10614   3.501   0.641   5.511  0.6902 -0.4621 -0.5848
  838MOL0     H10615   2.673   0.343   5.414  2.0891 -0.8111 -2.1802
  838MOL0     H10616   2.479   0.349   5.280 -0.5247  0.0407  1.8928
  839MOL0     O10617   0.113  10.906  11.083  0.0020 -0.3998  0.3398
  839MOL0     C10618   0.152  10.869  11.189  0.1286 -0.2133 -0.6113
  839MOL0     O10619   0.070  10.854  11.293 -0.1592 -0.0012  0.8713
  839MOL0     C10620  -0.065  10.883  11.270  0.1580  0.0978 -0.3288
  839MOL0     C10621  -0.129  10.782  11.192 -0.5486  0.0855  0.3915
  839MOL0     C10622  -0.262  10.816  11.160 -0.4482  0.7280  0.1008
  839MOL0     C10623  -0.332  10.934  11.203 -0.3279 -0.3834 -0.2622
  839MOL0     O10624  -0.471  10.948  11.180 -0.2116  0.1641  0.4054
  839MOL0     C10625  -0.552  11.054  11.240 -0.5121 -0.0860  0.0741
  839MOL0     C10626  -0.612  11.014  11.371  0.2085 -0.9100 -0.4984
  839MOL0     C10627  -0.562  11.095  11.491 -0.0491  0.0236  0.3317
  839MOL0     C10628  -0.646  11.083  11.616  0.6376  0.4219  0.1680
  839MOL0     C10629  -0.690  10.948  11.664 -0.0017  0.3212  0.8649
  839MOL0     C10630  -0.803  10.966  11.770 -0.1503  0.0233 -0.7238
  839MOL0     C10631  -0.858  10.839  11.831 -1.1701  0.1623 -0.1025
  839MOL0     C10632  -0.937  10.757  11.733  0.5130  0.4190 -0.0279
  839MOL0     N10633  -0.947  10.610  11.778 -0.7731  0.4431 -0.1422
  839MOL0     C10634  -0.881  10.505  11.715  0.2441  0.4001 -0.4744
  839MOL0     C10635  -0.919  10.399  11.787  0.6751  0.7869  0.4299
  839MOL0     C10636  -0.870  10.260  11.743 -0.6072  0.0330 -0.1198
  839MOL0     C10637  -0.733  10.238  11.803  0.1679 -0.8787  0.8644
  839MOL0     C10638  -0.692  10.099  11.767 -0.0231  0.4644 -0.3934
  839MOL0     C10639  -0.543  10.064  11.794  0.4656 -0.5004 -0.4899
  839MOL0     O10640  -0.505   9.955  11.710  0.5388 -0.5362  0.4525
  839MOL0     C10641  -0.379   9.922  11.674 -0.2790 -0.7638  0.8787
  839MOL0     C10642  -0.254   9.990  11.713  0.0166 -0.0672 -0.4984
  839MOL0     C10643  -0.132   9.956  11.660 -0.3165  0.3882 -0.0505
  839MOL0     C10644  -0.130   9.845  11.577  0.0161 -0.3255  0.2715
  839MOL0     C10645  -0.004   9.805  11.518 -0.7012  0.1919  0.5421
  839MOL0     O10646   0.003   9.707  11.423 -0.9605  0.4911 -0.0067
  839MOL0     C10647   0.123   9.685  11.366 -0.6560 -0.1751 -0.6643
  839MOL0     C10648   0.246   9.662  11.437  0.4686  0.5006 -0.2385
  839MOL0     C10649   0.372   9.629  11.377 -0.4757 -1.0121  0.0959
  839MOL0     C10650   0.370   9.615  11.236  0.5583 -0.1636 -0.3872
  839MOL0     O10651   0.483   9.576  11.171 -0.3415 -0.0373 -0.0337
  839MOL0     C10652   0.607   9.579  11.241 -0.4378  0.2924 -0.2452
  839MOL0     C10653   0.736   9.539  11.160 -0.3555 -0.4564 -0.0888
  839MOL0     C10654   0.756   9.638  11.048  0.7687 -0.1354 -0.0942
  839MOL0     C10655   0.886   9.619  10.960 -0.5201 -0.6743 -0.4610
  839MOL0     C10656   1.008   9.579  11.036  1.4767  0.5096 -0.4596
  839MOL0     C10657   1.136   9.591  10.956 -0.2900  0.3302  0.7144
  839MOL0     C10658   1.258   9.554  11.049 -0.0380 -0.3785 -0.2268
  839MOL0     C10659   1.361   9.517  10.950  0.2838 -0.1701 -0.2606
  839MOL0    Cl10660   1.502   9.458  11.027  0.2975  0.4835  0.0696
  839MOL0     C10661   0.247   9.628  11.177 -0.4420  0.4424  0.8125
  839MOL0     C10662   0.127   9.671  11.231 -0.0922 -0.3162 -0.1360
  839MOL0     O10663   0.092   9.874  11.560 -0.8522  0.5572 -0.9497
  839MOL0     C10664  -0.245   9.777  11.538 -0.2551 -0.4226  0.5360
  839MOL0     C10665  -0.371   9.824  11.583  0.6079  0.3046 -0.1288
  839MOL0     N10666  -1.013  10.440  11.887 -0.2722 -0.6915  0.1081
  839MOL0     N10667  -1.034  10.568  11.873 -0.3090  0.2832  0.2827
  839MOL0     C10668  -0.251  11.025  11.276 -0.5784  0.4580  0.1984
  839MOL0     C10669  -0.122  11.003  11.313  0.4973 -0.0954 -0.2018
  839MOL0     C10670   0.286  10.824  11.193 -0.1613  0.8621 -0.2319
  839MOL0     C10671   0.365  10.788  11.304 -0.1834 -0.0578  0.0560
  839MOL0     C10672   0.487  10.727  11.300 -0.3343 -0.2585  0.0318
  839MOL0     C10673   0.551  10.714  11.183 -0.0599  0.1974  0.3818
  839MOL0     O10674   0.681  10.662  11.186 -0.7139 -0.2054 -0.2100
  839MOL0     C10675   0.762  10.668  11.067  0.3740 -0.3914 -0.2919
  839MOL0     C10676   0.882  10.572  11.073  1.2349 -0.0721  0.3445
  839MOL0     C10677   1.001  10.621  11.169  0.5576  0.0091  0.1551
  839MOL0     C10678   1.125  10.532  11.149 -0.2958 -0.3000  0.0786
  839MOL0     C10679   1.253  10.589  11.209  0.5591 -0.7231 -1.6059
  839MOL0     C10680   1.356  10.638  11.258 -0.5293  0.3686 -0.1049
  839MOL0     C10681   0.487  10.764  11.067  0.5679  0.1402  0.4255
  839MOL0     C10682   0.361  10.817  11.075  0.8028 -0.6298  0.1661
  839MOL0     H10683  -0.078  10.695  11.154 -0.9793  0.3502 -0.8291
  839MOL0     H10684  -0.313  10.749  11.091  1.8784 -1.4064  0.3336
  839MOL0     H10685  -0.625  11.102  11.174 -2.7849  0.6449  2.9242
  839MOL0     H10686  -0.476  11.130  11.260 -1.8320  1.4058 -0.3350
  839MOL0     H10687  -0.602  10.906  11.384  0.8733 -0.6779  1.1414
  839MOL0     H10688  -0.717  11.042  11.359  0.7526  1.8054  0.3597
  839MOL0     H10689  -0.564  11.203  11.476 -0.6391  0.7828  4.5954
  839MOL0     H10690  -0.465  11.053  11.519 -0.4991  0.0243  2.0154
  839MOL0     H10691  -0.596  11.145  11.691  1.2392 -0.8566  0.8558
  839MOL0     H10692  -0.743  11.130  11.596  0.9039  0.1943 -1.8523
  839MOL0     H10693  -0.594  10.914  11.705  1.3102  2.6967 -0.0205
  839MOL0     H10694  -0.725  10.880  11.586 -4.3337  0.3707  2.5253
  839MOL0     H10695  -0.891  11.022  11.737  0.3141  1.6407  0.5938
  839MOL0     H10696  -0.748  11.025  11.845 -0.7832  1.5989 -1.4393
  839MOL0     H10697  -0.770  10.795  11.879  0.5897  3.2431 -0.2269
  839MOL0     H10698  -0.918  10.850  11.921 -0.0165  0.0661  0.6996
  839MOL0     H10699  -0.895  10.743  11.633 -1.3310 -0.7251 -0.6991
  839MOL0     H10700  -1.035  10.804  11.721  0.1911 -0.3448 -0.4725
  839MOL0     H10701  -0.809  10.513  11.635  0.8255 -0.0447 -0.0084
  839MOL0     H10702  -0.862  10.248  11.634  0.5252 -4.2352  0.2388
  839MOL0     H10703  -0.948  10.192  11.776 -1.3383 -0.8821 -3.3229
  839MOL0     H10704  -0.742  10.258  11.910 -0.8116  1.4379  0.3947
  839MOL0     H10705  -0.666  10.309  11.754 -0.7234  0.5586  1.6818
  839MOL0     H10706  -0.755  10.029  11.822  2.1714 -0.2537  1.3399
  839MOL0     H10707  -0.715  10.070  11.664  0.4766 -1.4526  0.0061
  839MOL0     H10708  -0.527  10.049  11.901  2.0062 -0.6857 -0.7294
  839MOL0     H10709  -0.478  10.150  11.772  0.5403 -0.1701  0.8916
  839MOL0     H10710  -0.265  10.071  11.784  1.0708 -0.3859  0.0425
  839MOL0     H10711  -0.052  10.023  11.688 -0.9937  0.1217  2.8516
  839MOL0     H10712   0.239   9.658  11.545 -1.6920  0.5314 -0.3266
  839MOL0     H10713   0.456   9.615  11.445 -0.9070 -0.0537  0.8513
  839MOL0     H10714   0.595   9.490  11.304  2.5844 -0.2385 -0.2736
  839MOL0     H10715   0.628   9.674  11.290  0.4440  1.1531 -2.1938
  839MOL0     H10716   0.729   9.439  11.116 -1.0898 -0.0724 -0.8797
  839MOL0     H10717   0.822   9.551  11.227  0.1277  0.1307 -0.7893
  839MOL0     H10718   0.758   9.741  11.083  0.3393 -0.4098  0.7902
  839MOL0     H10719   0.668   9.647  10.984 -0.7062 -1.8975  1.5364
  839MOL0     H10720   0.863   9.541  10.886  2.3464 -2.3054  0.2217
  839MOL0     H10721   0.901   9.718  10.917 -0.3623  0.3473  1.8119
  839MOL0     H10722   0.997   9.475  11.067 -3.4492  0.7968 -0.5085
  839MOL0     H10723   1.011   9.647  11.122  2.2726  2.2195 -1.7723
  839MOL0     H10724   1.145   9.696  10.928  0.8137  0.5118  1.7131
  839MOL0     H10725   1.135   9.526  10.868 -1.7084  1.1625  0.0729
  839MOL0     H10726   1.291   9.637  11.112  1.4552  0.7037 -2.3343
  839MOL0     H10727   1.237   9.466  11.111 -0.9459  0.3988  0.6018
  839MOL0     H10728   1.384   9.610  10.897 -4.8305  1.7996  0.3890
  839MOL0     H10729   1.338   9.440  10.877  0.2819  1.0939 -1.6452
  839MOL0     H10730   0.257   9.627  11.069  0.3799 -0.6862  0.8892
  839MOL0     H10731   0.044   9.692  11.164  2.6915  0.5408 -3.6409
  839MOL0     H10732  -0.238   9.691  11.472 -0.7364 -0.5722  0.6756
  839MOL0     H10733  -0.456   9.766  11.551 -0.3226  1.5236  0.0712
  839MOL0     H10734  -0.290  11.116  11.321  1.6625  1.8886 -0.5670
  839MOL0     H10735  -0.070  11.085  11.361 -1.3617  1.2454 -0.3358
  839MOL0     H10736   0.309  10.788  11.397 -2.4289  0.0763 -1.2227
  839MOL0     H10737   0.530  10.688  11.392 -2.1808  1.7047  1.8230
  839MOL0     H10738   0.788  10.768  11.031 -2.5337 -0.2163 -2.2460
  839MOL0     H10739   0.697  10.639  10.984 -0.4751  1.0595 -0.1816
  839MOL0     H10740   0.837  10.481  11.114 -0.3040 -0.4915 -2.0900
  839MOL0     H10741   0.920  10.545  10.973 -0.6191  0.9145 -0.6702
  839MOL0     H10742   0.968  10.632  11.272 -1.9084 -1.7729 -0.3618
  839MOL0     H10743   1.033  10.720  11.134 -1.1472  0.4902 -0.1284
  839MOL0     H10744   1.101  10.427  11.167 -0.8997  0.1792  2.3593
  839MOL0     H10745   1.152  10.530  11.043 -0.9719 -1.0896 -0.0856
  839MOL0     H10746   1.445  10.681  11.301 -1.5289  2.7403 -0.2690
  839MOL0     H10747   0.535  10.772  10.970 -2.2298  1.3204 -0.9761
  839MOL0     H10748   0.312  10.866  10.991  1.7248  0.6784  0.3547
  840MOL0     O10749   1.205   6.448   2.876  0.4891  0.7214 -0.7254
  840MOL0     C10750   1.203   6.499   2.985  0.5492  0.1358 -0.8440
  840MOL0     O10751   1.103   6.577   3.038  0.7331  0.5263 -0.0509
  840MOL0     C10752   0.989   6.599   2.962 -0.2616  0.2045 -0.7834
  840MOL0     C10753   0.906   6.491   2.927  0.4180  0.6796  0.3523
  840MOL0     C10754   0.784   6.514   2.865  0.3401 -0.0808 -0.5754
  840MOL0     C10755   0.744   6.647   2.828 -0.8335  0.1428  0.3614
  840MOL0     O10756   0.627   6.652   2.752 -0.7464 -0.5474 -0.2591
  840MOL0     C10757   0.636   6.757   2.655  0.1477 -0.7786  0.4110
  840MOL0     C10758   0.529   6.865   2.679 -0.1969  0.2890 -0.3235
  840MOL0     C10759   0.394   6.805   2.714  0.7185  0.7489 -0.0894
  840MOL0     C10760   0.271   6.892   2.706 -0.0281 -0.8131 -0.1149
  840MOL0     C10761   0.152   6.801   2.708  0.1674  0.0892 -0.4146
  840MOL0     C10762   0.139   6.712   2.830  0.5084 -0.5466 -0.4951
  840MOL0     C10763   0.000   6.710   2.886  0.6120 -0.2555 -0.1865
  840MOL0     C10764  -0.121   6.673   2.784  0.4586 -0.0879 -0.2400
  840MOL0     N10765  -0.251   6.695   2.844  0.9119  0.4642  0.0695
  840MOL0     C10766  -0.308   6.816   2.862 -0.0022 -0.5425  0.5686
  840MOL0     C10767  -0.428   6.793   2.911  0.0074  0.2180 -0.4071
  840MOL0     C10768  -0.525   6.906   2.943  0.0888 -0.7613 -0.4748
  840MOL0     C10769  -0.668   6.886   2.906  0.0818  0.0254  0.5491
  840MOL0     C10770  -0.750   7.006   2.944 -0.0914  0.4335  0.3730
  840MOL0     C10771  -0.881   6.993   2.861 -0.3373 -0.1631  0.1358
  840MOL0     O10772  -0.987   6.931   2.933  0.0930  1.1424  0.3569
  840MOL0     C10773  -1.115   6.935   2.889 -0.1966  0.5645  0.1053
  840MOL0     C10774  -1.177   6.810   2.856 -0.5811 -0.4100  0.3222
  840MOL0     C10775  -1.308   6.816   2.824 -0.4322  0.1240 -0.2603
  840MOL0     C10776  -1.382   6.932   2.812 -0.9640  0.2768  0.3350
  840MOL0     C10777  -1.520   6.935   2.765  0.3869 -0.0523  0.1942
  840MOL0     O10778  -1.582   6.813   2.741 -0.4273 -0.0772  0.2423
  840MOL0     C10779  -1.707   6.809   2.691  0.4334  0.5375 -0.4810
  840MOL0     C10780  -1.811   6.753   2.764 -0.4949 -0.1384  0.1933
  840MOL0     C10781  -1.940   6.757   2.705  0.4126  0.2845 -0.6339
  840MOL0     C10782  -1.964   6.804   2.577  0.1138 -0.5440  0.3892
  840MOL0     O10783  -2.090   6.809   2.528  0.3823 -0.4946 -0.0261
  840MOL0     C10784  -2.134   6.936   2.465  0.1950 -0.2687 -0.4551
  840MOL0     C10785  -2.284   6.932   2.441  0.8796 -0.3827 -0.4707
  840MOL0     C10786  -2.328   6.822   2.346 -0.6819 -0.3639  0.1396
  840MOL0     C10787  -2.452   6.863   2.267 -0.5604 -0.4885 -0.1235
  840MOL0     C10788  -2.514   6.736   2.213  0.3350  0.6218  0.1874
  840MOL0     C10789  -2.612   6.772   2.105 -0.2681  0.1957  0.6264
  840MOL0     C10790  -2.736   6.832   2.155 -0.0220  0.2560 -0.0605
  840MOL0     C10791  -2.851   6.844   2.054  0.1734  0.3989  0.2378
  840MOL0    Cl10792  -2.957   6.978   2.087  0.7975 -0.0502  0.3471
  840MOL0     C10793  -1.860   6.861   2.509 -0.4033  0.1916 -0.6877
  840MOL0     C10794  -1.737   6.868   2.571 -0.3299 -0.3549 -0.0188
  840MOL0     O10795  -1.573   7.042   2.751  0.4217  0.1920 -0.7884
  840MOL0     C10796  -1.316   7.054   2.845  0.4232  0.4296 -0.3671
  840MOL0     C10797  -1.187   7.057   2.891 -0.0748 -0.0134  0.3082
  840MOL0     N10798  -0.449   6.654   2.928  0.2752 -0.5129  0.0521
  840MOL0     N10799  -0.342   6.596   2.885  0.2757  0.3327 -0.2437
  840MOL0     C10800   0.828   6.752   2.862 -0.1541 -0.2865 -0.0136
  840MOL0     C10801   0.949   6.731   2.935 -0.0303 -0.2678  0.6165
  840MOL0     C10802   1.315   6.480   3.074  0.6176  0.3097 -0.0368
  840MOL0     C10803   1.314   6.539   3.205  0.6131  0.8517 -0.4173
  840MOL0     C10804   1.417   6.525   3.298  0.4549  0.3820  0.3586
  840MOL0     C10805   1.529   6.449   3.265  0.2243  0.1502  0.1068
  840MOL0     O10806   1.629   6.443   3.358  0.3277  0.2113 -0.2319
  840MOL0     C10807   1.743   6.366   3.323 -0.3198  0.8349  0.3537
  840MOL0     C10808   1.851   6.447   3.240  0.3444 -0.7579 -0.1291
  840MOL0     C10809   1.940   6.546   3.331  0.5643 -0.5967 -0.0167
  840MOL0     C10810   1.847   6.658   3.376 -0.9159 -0.4458  0.2211
  840MOL0     C10811   1.917   6.777   3.422 -0.6530 -0.1175 -0.5131
  840MOL0     C10812   1.981   6.877   3.440  0.9667 -0.5557 -0.1211
  840MOL0     C10813   1.534   6.393   3.132  0.0935 -0.1045 -0.4897
  840MOL0     C10814   1.428   6.407   3.043  0.2494  0.2576  0.3640
  840MOL0     H10815   0.929   6.393   2.967 -0.4916  0.1671 -0.3434
  840MOL0     H10816   0.710   6.442   2.833  0.7925  0.5677 -3.3346
  840MOL0     H10817   0.620   6.710   2.557  0.0650  2.4640 -1.2417
  840MOL0     H10818   0.726   6.817   2.639 -1.5527  1.3858 -1.9553
  840MOL0     H10819   0.524   6.924   2.587  3.3213  0.2212 -0.6796
  840MOL0     H10820   0.551   6.935   2.760 -2.0313 -1.0729  1.4664
  840MOL0     H10821   0.402   6.756   2.811  0.2760 -0.8078 -0.8068
  840MOL0     H10822   0.375   6.722   2.646 -1.4080  1.6823 -0.7087
  840MOL0     H10823   0.273   6.962   2.790 -1.5494 -0.2599 -0.5130
  840MOL0     H10824   0.269   6.944   2.610  0.3875  0.9216  0.7819
  840MOL0     H10825   0.156   6.738   2.619  2.2420  1.2535 -1.2205
  840MOL0     H10826   0.060   6.861   2.702  0.7924  0.9926 -1.1577
  840MOL0     H10827   0.206   6.758   2.903  0.6399  2.0288 -2.1144
  840MOL0     H10828   0.178   6.610   2.816  1.6843 -0.0813 -0.7567
  840MOL0     H10829  -0.024   6.654   2.976 -1.2652  2.6738  1.3162
  840MOL0     H10830  -0.019   6.813   2.917  1.8437 -0.4395  1.3236
  840MOL0     H10831  -0.109   6.564   2.773 -0.5852 -0.3463  0.9755
  840MOL0     H10832  -0.127   6.719   2.685  0.7096 -1.4897 -0.9321
  840MOL0     H10833  -0.271   6.913   2.831  0.1404 -0.9075 -0.4473
  840MOL0     H10834  -0.489   7.003   2.906  0.1005  2.4109  6.2651
  840MOL0     H10835  -0.534   6.922   3.051 -2.0086  2.3550 -0.9872
  840MOL0     H10836  -0.715   6.799   2.954  0.4889 -0.9398 -0.7643
  840MOL0     H10837  -0.666   6.874   2.798 -5.1641  2.6642 -0.1689
  840MOL0     H10838  -0.758   7.011   3.053 -0.1938  0.2044  0.3763
  840MOL0     H10839  -0.697   7.101   2.929  0.5637  0.0352  0.1012
  840MOL0     H10840  -0.867   6.936   2.769  1.4447 -0.3913  0.5161
  840MOL0     H10841  -0.907   7.095   2.830  1.9290 -0.2785 -2.4983
  840MOL0     H10842  -1.132   6.711   2.867  0.7649 -0.0182 -1.2737
  840MOL0     H10843  -1.363   6.727   2.798  0.7490 -0.6137 -0.3106
  840MOL0     H10844  -1.793   6.709   2.861  1.0511 -0.1445 -0.0758
  840MOL0     H10845  -2.027   6.719   2.758 -0.0126  0.4037 -1.2328
  840MOL0     H10846  -2.074   6.949   2.374  1.3088 -0.7833  0.2046
  840MOL0     H10847  -2.116   7.024   2.527  2.2040 -1.0505  0.1251
  840MOL0     H10848  -2.321   7.023   2.393 -1.1637 -1.5487 -1.2450
  840MOL0     H10849  -2.323   6.912   2.540  2.6500 -0.7463  0.1998
  840MOL0     H10850  -2.336   6.732   2.407  0.4887  1.0688  2.5807
  840MOL0     H10851  -2.247   6.805   2.275  0.7032  2.4387  0.8823
  840MOL0     H10852  -2.515   6.916   2.339  2.1394 -0.2860  2.2780
  840MOL0     H10853  -2.411   6.928   2.190  1.1927 -1.3906 -0.0229
  840MOL0     H10854  -2.565   6.692   2.300  0.3689 -0.6633 -0.4222
  840MOL0     H10855  -2.432   6.676   2.172 -0.5003 -0.5381  0.1652
  840MOL0     H10856  -2.653   6.681   2.060 -0.3170  1.3814 -1.9459
  840MOL0     H10857  -2.578   6.824   2.014 -2.4438 -1.3416 -1.1834
  840MOL0     H10858  -2.779   6.782   2.242 -2.6755 -1.9000 -2.4245
  840MOL0     H10859  -2.715   6.937   2.178 -3.4704  0.7051  1.6566
  840MOL0     H10860  -2.904   6.749   2.041  2.4434 -0.8476 -0.5629
  840MOL0     H10861  -2.798   6.857   1.959  2.7665 -0.6184  1.4361
  840MOL0     H10862  -1.860   6.890   2.404 -0.8279 -0.4865 -0.8752
  840MOL0     H10863  -1.657   6.920   2.520 -1.3327  1.4273  0.1544
  840MOL0     H10864  -1.365   7.151   2.849  1.0023  0.7055  1.8228
  840MOL0     H10865  -1.152   7.156   2.919  0.6152  0.6097 -2.5136
  840MOL0     H10866   0.804   6.854   2.836  2.1571  0.3656  0.1268
  840MOL0     H10867   1.018   6.804   2.976 -0.3103 -0.0098  0.6332
  840MOL0     H10868   1.225   6.595   3.233  0.3837  1.0062 -1.4145
  840MOL0     H10869   1.394   6.570   3.394 -2.0541 -1.2591  0.6268
  840MOL0     H10870   1.713   6.273   3.274  0.6105 -0.3122  1.8667
  840MOL0     H10871   1.789   6.336   3.417 -0.8059  0.8999  0.6147
  840MOL0     H10872   1.921   6.372   3.201 -3.1526 -3.6427 -1.3254
  840MOL0     H10873   1.801   6.501   3.159  1.9659 -0.9120 -1.3046
  840MOL0     H10874   2.009   6.587   3.258 -1.1770  1.0548 -0.8150
  840MOL0     H10875   1.993   6.498   3.414 -0.0762 -0.1913  0.6421
  840MOL0     H10876   1.782   6.685   3.292 -1.1602 -2.7495 -0.4049
  840MOL0     H10877   1.781   6.629   3.458 -1.0722  0.7163  0.5229
  840MOL0     H10878   2.034   6.968   3.458  0.9469 -0.6237  0.2973
  840MOL0     H10879   1.617   6.329   3.103  1.3592 -0.2089  2.9507
  840MOL0     H10880   1.435   6.352   2.949 -0.8457  0.7866 -0.0440
  841MOL0     O10881   4.006   2.121   8.915  0.3488  0.1359 -0.1200
  841MOL0     C10882   3.917   2.112   8.999  0.3493 -0.7010 -0.6491
  841MOL0     O10883   3.929   2.152   9.129 -0.2108 -0.5184 -0.4865
  841MOL0     C10884   4.048   2.201   9.170 -0.0791  0.3461  0.7424
  841MOL0     C10885   4.145   2.110   9.206  0.5451 -0.1284  0.5840
  841MOL0     C10886   4.262   2.160   9.265  0.8817  0.0122  0.3450
  841MOL0     C10887   4.289   2.302   9.278  0.0908 -0.3442 -0.6662
  841MOL0     O10888   4.415   2.341   9.319 -0.5274 -1.0313 -0.4605
  841MOL0     C10889   4.434   2.476   9.367  0.4018 -0.1335 -0.6343
  841MOL0     C10890   4.371   2.513   9.498 -0.0766 -0.0895  1.1384
  841MOL0     C10891   4.385   2.408   9.608 -0.7664 -1.0126  0.6451
  841MOL0     C10892   4.379   2.456   9.747  0.0655  0.0726  0.6365
  841MOL0     C10893   4.400   2.346   9.848 -0.6104 -0.4508 -0.0023
  841MOL0     C10894   4.354   2.380   9.994 -0.1895 -0.1773 -0.2679
  841MOL0     C10895   4.378   2.274  10.092  0.5117 -0.2342  0.2869
  841MOL0     C10896   4.271   2.159  10.072 -0.0826 -0.0272  0.0821
  841MOL0     N10897   4.130   2.191  10.112 -1.0197 -0.2188 -0.3189
  841MOL0     C10898   4.027   2.104  10.116  0.3651 -0.4462 -0.7478
  841MOL0     C10899   3.926   2.166  10.172 -0.4905 -0.1524 -0.3101
  841MOL0     C10900   3.794   2.104  10.205  0.1287 -0.7775 -0.5605
  841MOL0     C10901   3.694   2.120  10.097  0.7548  0.2809  0.0631
  841MOL0     C10902   3.580   2.020  10.116 -0.2071 -0.0468  0.3701
  841MOL0     C10903   3.459   2.043  10.027  0.5330  1.1430 -0.3277
  841MOL0     O10904   3.395   1.914  10.009  0.7911  0.6053 -0.1126
  841MOL0     C10905   3.259   1.908   9.988 -0.1287  0.0104  0.0037
  841MOL0     C10906   3.195   1.792  10.020  0.1244  0.4173  1.0109
  841MOL0     C10907   3.056   1.772  10.018 -0.7886 -0.2522  0.3411
  841MOL0     C10908   2.975   1.887   9.989 -0.3017 -0.4825  0.0538
  841MOL0     C10909   2.820   1.878   9.996 -0.7244 -0.8318  0.1714
  841MOL0     O10910   2.771   1.788  10.083  0.5932 -0.2862 -0.0737
  841MOL0     C10911   2.637   1.750  10.076  0.5115 -0.1188 -0.3963
  841MOL0     C10912   2.558   1.760   9.959 -0.2767 -0.1781 -0.2284
  841MOL0     C10913   2.426   1.709   9.956 -0.3329  0.7630  0.6323
  841MOL0     C10914   2.374   1.644  10.072  0.2775 -0.1741 -0.7884
  841MOL0     O10915   2.246   1.595  10.079 -0.5572 -0.0578  0.2585
  841MOL0     C10916   2.180   1.527  10.196  0.6552  0.1351 -0.4865
  841MOL0     C10917   2.126   1.631  10.289 -0.4869  0.3288  0.1374
  841MOL0     C10918   1.998   1.690  10.233  0.5508  0.0877 -0.0276
  841MOL0     C10919   1.925   1.762  10.347  0.5131 -0.7650  0.2352
  841MOL0     C10920   1.788   1.805  10.292  0.2048 -0.2386 -0.9947
  841MOL0     C10921   1.790   1.907  10.178  0.5107 -1.1113 -0.0889
  841MOL0     C10922   1.644   1.922  10.119 -0.1323  0.4831 -0.3284
  841MOL0     C10923   1.559   2.020  10.198 -0.2381 -0.3608 -0.6436
  841MOL0    Cl10924   1.388   2.041  10.142 -0.1806 -0.2592  0.0594
  841MOL0     C10925   2.453   1.637  10.184 -0.0502 -0.3660 -0.0164
  841MOL0     C10926   2.579   1.693  10.188 -0.1084 -0.7085  0.0667
  841MOL0     O10927   2.756   1.959   9.927 -0.3362  0.4095 -0.3112
  841MOL0     C10928   3.040   2.005   9.943 -0.5736 -0.1275 -0.0970
  841MOL0     C10929   3.184   2.018   9.951  0.9321 -0.7323  0.7312
  841MOL0     N10930   3.975   2.288  10.220  0.7349  0.1771 -0.8558
  841MOL0     N10931   4.096   2.303  10.180  0.0244 -0.4771  0.2266
  841MOL0     C10932   4.189   2.381   9.247 -0.0744 -0.2212  0.2533
  841MOL0     C10933   4.070   2.336   9.193 -0.8499  0.1579 -0.0158
  841MOL0     C10934   3.788   2.049   8.963 -0.0506  0.5790 -0.1837
  841MOL0     C10935   3.764   1.972   8.851 -1.1564  0.4580  0.4006
  841MOL0     C10936   3.640   1.914   8.819  1.1738  0.7850 -0.6152
  841MOL0     C10937   3.538   1.904   8.918 -0.4872  0.0964 -0.2520
  841MOL0     O10938   3.422   1.831   8.911  0.3780 -0.3305  0.2041
  841MOL0     C10939   3.409   1.721   8.820 -0.4165 -0.8740 -0.3184
  841MOL0     C10940   3.365   1.770   8.681 -1.1408 -0.9509 -0.3165
  841MOL0     C10941   3.267   1.668   8.616 -0.1968 -0.4574 -0.2474
  841MOL0     C10942   3.335   1.539   8.571  0.1024  0.0360 -0.3827
  841MOL0     C10943   3.439   1.570   8.474  0.5461  0.1815  0.2237
  841MOL0     C10944   3.511   1.611   8.385 -0.7924  0.1301 -0.0500
  841MOL0     C10945   3.568   1.969   9.041  0.4360  0.3404 -0.4874
  841MOL0     C10946   3.692   2.032   9.062  1.3230 -0.5549  0.0725
  841MOL0     H10947   4.130   2.003   9.200 -1.1075  0.1405 -2.1727
  841MOL0     H10948   4.334   2.089   9.304 -1.1014 -2.2870  0.0893
  841MOL0     H10949   4.413   2.552   9.292 -0.2193  0.2011 -0.1318
  841MOL0     H10950   4.542   2.469   9.385  1.1685  3.1611 -3.0133
  841MOL0     H10951   4.265   2.527   9.473  0.0788 -0.8395 -0.0574
  841MOL0     H10952   4.413   2.610   9.524 -1.0854  1.0487 -1.2067
  841MOL0     H10953   4.489   2.378   9.592 -1.0007 -1.9757  0.8040
  841MOL0     H10954   4.315   2.324   9.598 -1.9037  0.0886 -1.1801
  841MOL0     H10955   4.445   2.542   9.762 -1.1094  1.3397 -0.9670
  841MOL0     H10956   4.276   2.488   9.765 -0.7820 -2.3260  0.3553
  841MOL0     H10957   4.504   2.311   9.848 -0.5227 -0.5030 -3.4989
  841MOL0     H10958   4.348   2.262   9.802  0.7786  0.9344 -4.6538
  841MOL0     H10959   4.248   2.405   9.989 -0.3255 -0.7617 -0.3705
  841MOL0     H10960   4.406   2.476  10.010  0.8854 -0.7930  0.0313
  841MOL0     H10961   4.476   2.227  10.087  0.5121 -0.5171  2.2329
  841MOL0     H10962   4.371   2.316  10.193 -0.6618  2.4187 -0.7768
  841MOL0     H10963   4.298   2.079  10.142 -0.4223 -1.0842 -0.9726
  841MOL0     H10964   4.272   2.126   9.968 -0.3842  0.6991 -0.1561
  841MOL0     H10965   4.010   2.003  10.078 -1.8208 -0.1709 -0.6647
  841MOL0     H10966   3.744   2.137  10.296  0.4779 -3.7171  0.8241
  841MOL0     H10967   3.811   1.998  10.227  0.8607 -0.5637 -0.0724
  841MOL0     H10968   3.738   2.089  10.002  1.2000  0.0076  0.3527
  841MOL0     H10969   3.652   2.221  10.092 -2.0310 -0.7663  0.3918
  841MOL0     H10970   3.615   1.919  10.094 -0.2382  0.0585 -0.1754
  841MOL0     H10971   3.546   2.017  10.220  1.9286  2.0052  1.2122
  841MOL0     H10972   3.492   2.073   9.927  0.6784  0.5557 -0.4616
  841MOL0     H10973   3.395   2.117  10.076 -1.2680  0.1540 -1.0963
  841MOL0     H10974   3.255   1.703  10.041  0.7795 -0.3218 -3.2129
  841MOL0     H10975   3.018   1.673  10.042 -1.5651 -0.0015  0.1809
  841MOL0     H10976   2.599   1.805   9.869 -1.8200  0.4012 -0.6590
  841MOL0     H10977   2.359   1.712   9.871 -2.2040  0.1527  2.0121
  841MOL0     H10978   2.248   1.455  10.242 -0.4466 -1.9097 -1.8458
  841MOL0     H10979   2.107   1.462  10.146  0.8331  1.3114 -2.3780
  841MOL0     H10980   2.206   1.705  10.288  1.9364 -1.9053 -4.5992
  841MOL0     H10981   2.113   1.585  10.388 -0.9922  1.2680  0.5186
  841MOL0     H10982   1.926   1.619  10.190 -1.6326  2.4235 -0.4562
  841MOL0     H10983   2.019   1.748  10.143 -1.1833 -0.3825 -0.7845
  841MOL0     H10984   1.916   1.702  10.438  2.9590 -2.5711 -0.5840
  841MOL0     H10985   1.993   1.837  10.387  3.2218 -2.6540 -0.5759
  841MOL0     H10986   1.745   1.850  10.382  2.2671  1.6027 -0.8590
  841MOL0     H10987   1.745   1.713  10.249 -0.0185 -0.1917 -0.8747
  841MOL0     H10988   1.863   1.879  10.102 -0.3186 -0.1935 -1.2460
  841MOL0     H10989   1.835   2.005  10.197 -0.4711 -0.5071 -0.7664
  841MOL0     H10990   1.645   1.950  10.013 -2.0826  0.1312 -0.4733
  841MOL0     H10991   1.579   1.833  10.118 -2.6609  2.1545 -3.2808
  841MOL0     H10992   1.599   2.122  10.204 -3.4193  1.1217 -1.9955
  841MOL0     H10993   1.543   1.990  10.302 -3.1650  0.3247 -0.8004
  841MOL0     H10994   2.418   1.592  10.277  0.4307  0.3835  0.5428
  841MOL0     H10995   2.634   1.687  10.281 -0.4360 -0.7665  0.2581
  841MOL0     H10996   2.971   2.086   9.920 -0.2147  1.0826  2.6827
  841MOL0     H10997   3.230   2.115   9.933  0.5557 -0.8482 -1.0721
  841MOL0     H10998   4.195   2.488   9.268  0.1005 -0.2221  0.2137
  841MOL0     H10999   4.004   2.411   9.150  1.6087  2.9219  0.6807
  841MOL0     H11000   3.843   1.958   8.778 -0.5797 -1.2579  1.3066
  841MOL0     H11001   3.631   1.863   8.724 -1.4908 -2.8863  1.3012
  841MOL0     H11002   3.341   1.647   8.864  0.7531 -3.2968 -2.3623
  841MOL0     H11003   3.506   1.675   8.798 -1.0613 -1.7444 -1.4656
  841MOL0     H11004   3.300   1.853   8.708  1.2297  1.2289 -0.9064
  841MOL0     H11005   3.450   1.802   8.620 -1.4835  0.1368 -0.2460
  841MOL0     H11006   3.223   1.717   8.529 -1.3616 -1.9971 -0.5499
  841MOL0     H11007   3.184   1.643   8.683 -0.0455 -2.9383 -0.9050
  841MOL0     H11008   3.381   1.478   8.650  1.9271  0.5104 -1.0178
  841MOL0     H11009   3.256   1.473   8.534  0.8470 -0.4102 -1.2301
  841MOL0     H11010   3.555   1.650   8.295  0.1430 -1.8145 -0.4989
  841MOL0     H11011   3.500   1.954   9.124 -0.1595 -0.2954 -1.0633
  841MOL0     H11012   3.714   2.076   9.159  1.0798  3.7129 -1.5797
  842MOL0     O11013   1.968   4.125   6.269  0.1261 -0.4724 -0.0942
  842MOL0     C11014   1.965   4.180   6.160 -0.4076  0.4906 -1.1632
  842MOL0     O11015   1.852   4.208   6.084 -0.9245  0.0339  0.1726
  842MOL0     C11016   1.723   4.186   6.132  0.2447 -0.5106 -0.0540
  842MOL0     C11017   1.622   4.168   6.031  0.4579  0.1221 -0.3361
  842MOL0     C11018   1.485   4.157   6.075 -0.1764 -0.9938  0.1696
  842MOL0     C11019   1.446   4.160   6.204  0.2182 -0.9761  0.5270
  842MOL0     O11020   1.313   4.158   6.232  0.2855 -0.3740  0.3642
  842MOL0     C11021   1.267   4.122   6.364 -0.4196  0.4021 -0.7727
  842MOL0     C11022   1.117   4.157   6.384 -0.4437 -0.1953  0.0484
  842MOL0     C11023   1.055   4.116   6.522  0.1506  0.2463  0.2552
  842MOL0     C11024   0.929   4.198   6.567 -0.0093  0.3202  0.5898
  842MOL0     C11025   0.801   4.161   6.487  0.3796  1.3034  1.1104
  842MOL0     C11026   0.671   4.241   6.517  0.2427 -0.6495 -1.3594
  842MOL0     C11027   0.571   4.221   6.411 -0.3548 -0.0629 -0.6537
  842MOL0     C11028   0.436   4.291   6.437 -0.4631  0.5429 -0.2892
  842MOL0     N11029   0.453   4.442   6.427 -0.0413  0.8124 -0.2101
  842MOL0     C11030   0.528   4.510   6.341 -0.1838  0.4288  0.1023
  842MOL0     C11031   0.548   4.635   6.390  0.5379 -0.5149 -0.6253
  842MOL0     C11032   0.627   4.746   6.330  0.0566 -0.5899 -0.2071
  842MOL0     C11033   0.766   4.706   6.267  0.0999  0.8883 -0.2292
  842MOL0     C11034   0.874   4.638   6.358  0.3010  0.4172 -0.2012
  842MOL0     C11035   1.018   4.672   6.321  0.0255  0.2550  0.0409
  842MOL0     O11036   1.091   4.586   6.235  0.1161  0.0867 -0.1205
  842MOL0     C11037   1.227   4.622   6.204  0.2532 -1.0895 -0.6063
  842MOL0     C11038   1.301   4.731   6.261  0.2636  0.4983  0.3547
  842MOL0     C11039   1.436   4.751   6.227 -0.3408 -0.1418 -0.1827
  842MOL0     C11040   1.500   4.668   6.132 -0.7904  0.2791 -0.0581
  842MOL0     C11041   1.622   4.714   6.062 -0.2622  0.3050 -0.3023
  842MOL0     O11042   1.704   4.625   6.001 -0.2777  0.2980 -0.4363
  842MOL0     C11043   1.814   4.676   5.929  0.2574 -0.0577 -1.0518
  842MOL0     C11044   1.792   4.711   5.798  1.1232  0.0914  0.4169
  842MOL0     C11045   1.895   4.765   5.718  0.1901  0.4892 -0.2396
  842MOL0     C11046   2.022   4.782   5.772  0.1517 -0.3154  0.7433
  842MOL0     O11047   2.117   4.831   5.680 -0.8118 -0.1294 -0.7618
  842MOL0     C11048   2.255   4.825   5.731  0.0473  0.1079  0.5990
  842MOL0     C11049   2.351   4.831   5.602  0.3014  0.2505 -0.1454
  842MOL0     C11050   2.502   4.855   5.637 -0.0025 -0.0601 -0.0271
  842MOL0     C11051   2.581   4.887   5.517 -0.4592 -0.0566  0.2830
  842MOL0     C11052   2.728   4.873   5.526 -0.7953  1.1249 -0.5981
  842MOL0     C11053   2.797   4.879   5.392  0.1449  0.0502 -0.9616
  842MOL0     C11054   2.946   4.829   5.395 -0.0396  0.3060 -0.6199
  842MOL0     C11055   3.044   4.938   5.446  0.3188 -0.7283 -0.2823
  842MOL0    Cl11056   3.051   4.926   5.622 -0.0376 -0.1404  0.4313
  842MOL0     C11057   2.041   4.760   5.903 -0.7625  0.3138  0.0546
  842MOL0     C11058   1.937   4.701   5.984  0.1665 -1.1740 -0.4777
  842MOL0     O11059   1.632   4.838   6.057  0.3235  0.2095  0.3262
  842MOL0     C11060   1.433   4.558   6.082 -0.0456  1.0689 -0.6349
  842MOL0     C11061   1.297   4.531   6.122 -0.0021 -0.4216 -0.3720
  842MOL0     N11062   0.488   4.645   6.508 -1.2128  0.3504  0.2225
  842MOL0     N11063   0.433   4.530   6.528  0.5738  0.2314 -1.1075
  842MOL0     C11064   1.550   4.171   6.306  0.0828  0.6504  0.3256
  842MOL0     C11065   1.683   4.196   6.266  0.9134  0.6554  0.2531
  842MOL0     C11066   2.080   4.259   6.116  0.8191  0.0753  0.7077
  842MOL0     C11067   2.208   4.230   6.159  1.2005  1.1156 -1.0252
  842MOL0     C11068   2.318   4.292   6.101 -0.7010 -0.5362 -0.7319
  842MOL0     C11069   2.299   4.404   6.023 -0.0316  0.1390  0.1986
  842MOL0     O11070   2.398   4.480   5.957  0.2369 -0.2641 -0.3361
  842MOL0     C11071   2.543   4.460   5.994  0.3002  0.1701  0.1224
  842MOL0     C11072   2.617   4.543   5.906 -0.3299  0.8130 -0.0072
  842MOL0     C11073   2.758   4.576   5.962  0.2218  0.1488  0.1663
  842MOL0     C11074   2.846   4.650   5.853  0.1273 -0.5723  0.3259
  842MOL0     C11075   2.876   4.563   5.747  0.6060 -0.7915 -0.3316
  842MOL0     C11076   2.912   4.517   5.646  0.4911 -0.7150  0.4226
  842MOL0     C11077   2.171   4.435   5.974 -0.3900 -0.3443  0.4450
  842MOL0     C11078   2.056   4.362   6.020  0.2544  0.1567  0.4912
  842MOL0     H11079   1.648   4.153   5.926 -2.8694 -2.2546 -0.9936
  842MOL0     H11080   1.416   4.152   5.991 -0.8221  2.2123  0.3782
  842MOL0     H11081   1.326   4.173   6.441  0.0820  0.2101 -1.0308
  842MOL0     H11082   1.280   4.016   6.384  2.3093  0.8109  0.0029
  842MOL0     H11083   1.057   4.115   6.303 -0.1908 -1.9763  0.7361
  842MOL0     H11084   1.120   4.266   6.381  2.4852 -0.2212 -0.9005
  842MOL0     H11085   1.120   4.135   6.608  0.3179  1.2051 -0.0708
  842MOL0     H11086   1.034   4.008   6.520  1.2312  0.0221 -1.1474
  842MOL0     H11087   0.917   4.196   6.675  2.4072  1.1414  0.9497
  842MOL0     H11088   0.937   4.307   6.559 -4.4541  0.7809 -0.4114
  842MOL0     H11089   0.794   4.053   6.501  1.3727  0.8695 -1.3200
  842MOL0     H11090   0.821   4.175   6.381 -2.2194 -1.0804  0.1762
  842MOL0     H11091   0.709   4.344   6.513  1.4974 -1.0404 -0.4282
  842MOL0     H11092   0.631   4.219   6.617  1.0094 -5.2526 -1.8315
  842MOL0     H11093   0.614   4.229   6.311 -0.1889  1.0319 -0.5054
  842MOL0     H11094   0.547   4.114   6.415 -0.6838  0.0364  0.3272
  842MOL0     H11095   0.409   4.252   6.536  0.4071 -2.6906 -1.2042
  842MOL0     H11096   0.351   4.268   6.372  1.0661 -0.4034 -2.0230
  842MOL0     H11097   0.564   4.473   6.245  0.2701  1.2610 -0.0562
  842MOL0     H11098   0.640   4.820   6.410 -1.7480  0.7218 -1.0363
  842MOL0     H11099   0.566   4.783   6.247  3.1149 -2.5461 -3.6343
  842MOL0     H11100   0.808   4.794   6.217  1.7788  0.3623  0.1625
  842MOL0     H11101   0.736   4.642   6.184 -1.3250 -0.9942  1.6389
  842MOL0     H11102   0.855   4.692   6.452  0.3704  1.3826 -0.7213
  842MOL0     H11103   0.848   4.532   6.359 -3.9130  1.2370  1.8848
  842MOL0     H11104   1.078   4.693   6.410  1.0344  0.2194 -0.6128
  842MOL0     H11105   1.017   4.763   6.261 -1.6034 -0.6238 -1.3734
  842MOL0     H11106   1.259   4.795   6.338 -3.6659 -0.3807 -0.8373
  842MOL0     H11107   1.475   4.845   6.265 -0.9753  0.5039 -1.0927
  842MOL0     H11108   1.695   4.686   5.756  1.3469 -1.5252  0.8027
  842MOL0     H11109   1.876   4.794   5.615 -2.7060  0.4335  0.1786
  842MOL0     H11110   2.284   4.737   5.789 -1.4330  0.1942  1.5336
  842MOL0     H11111   2.279   4.907   5.799  1.5679 -0.5247  0.8703
  842MOL0     H11112   2.319   4.910   5.533 -0.0989 -0.4342 -0.7577
  842MOL0     H11113   2.331   4.742   5.540  0.3987  0.7853 -0.9639
  842MOL0     H11114   2.539   4.763   5.683  0.4381 -0.4133 -1.0599
  842MOL0     H11115   2.508   4.938   5.708  0.9521  0.4327 -0.6588
  842MOL0     H11116   2.536   4.823   5.440 -2.4297  0.8978  0.5799
  842MOL0     H11117   2.558   4.991   5.493  2.6785  0.2753 -1.8423
  842MOL0     H11118   2.742   4.774   5.572 -2.6690  0.8366 -0.5559
  842MOL0     H11119   2.763   4.951   5.594  0.6362 -0.1878  0.2333
  842MOL0     H11120   2.779   4.975   5.343 -1.1536 -0.4942 -1.6006
  842MOL0     H11121   2.741   4.812   5.327  0.0603  1.1321 -2.0476
  842MOL0     H11122   2.962   4.733   5.445 -2.3659 -0.1442 -0.6606
  842MOL0     H11123   2.980   4.811   5.292  1.1778 -0.9690 -0.0286
  842MOL0     H11124   3.014   5.040   5.421 -1.3067 -1.7429 -2.7257
  842MOL0     H11125   3.144   4.922   5.405  0.6891  2.9578 -1.1203
  842MOL0     H11126   2.137   4.784   5.947  0.0119 -0.3172 -1.2120
  842MOL0     H11127   1.955   4.688   6.090 -2.8577  0.9348  0.4220
  842MOL0     H11128   1.468   4.493   6.002 -3.3586 -2.9878  0.8596
  842MOL0     H11129   1.250   4.441   6.085 -2.0350 -0.4589  2.0931
  842MOL0     H11130   1.520   4.183   6.409 -0.4321 -2.4873  0.6252
  842MOL0     H11131   1.757   4.234   6.335  0.2773  1.3216  0.5868
  842MOL0     H11132   2.216   4.140   6.218  3.3333 -0.2693 -3.2853
  842MOL0     H11133   2.420   4.261   6.119  0.0562  1.6383 -0.9883
  842MOL0     H11134   2.571   4.355   5.981 -0.4664  0.0420 -0.6094
  842MOL0     H11135   2.555   4.483   6.100 -2.2539  0.6919  0.3687
  842MOL0     H11136   2.627   4.484   5.814  0.7370  1.6635 -0.4629
  842MOL0     H11137   2.564   4.637   5.886 -1.7692  0.5258  2.1898
  842MOL0     H11138   2.810   4.483   5.984 -0.7459  0.2531  3.5269
  842MOL0     H11139   2.747   4.638   6.052 -3.1628 -1.2697  0.8885
  842MOL0     H11140   2.803   4.744   5.817 -2.1057 -1.7278 -0.2125
  842MOL0     H11141   2.938   4.681   5.904 -1.7620  1.6475  2.6848
  842MOL0     H11142   2.951   4.492   5.549  0.3324  0.2572  0.1047
  842MOL0     H11143   2.160   4.508   5.894 -2.3554 -3.0352 -1.9742
  842MOL0     H11144   1.958   4.397   5.991  0.3634 -0.2609 -0.4151
  843MOL0     O11145   1.882   4.232   0.832  0.3202 -0.7946 -0.4127
  843MOL0     C11146   1.932   4.138   0.780 -0.0241 -0.2820  0.0025
  843MOL0     O11147   1.862   4.044   0.702 -0.3086  0.1994 -0.3720
  843MOL0     C11148   1.722   4.057   0.694 -1.1889  0.0141  0.5461
  843MOL0     C11149   1.653   3.962   0.771  0.3412 -0.1617  0.8147
  843MOL0     C11150   1.514   3.959   0.754  0.1773 -0.5824 -1.6226
  843MOL0     C11151   1.451   4.034   0.648 -0.2583 -0.2271 -0.5364
  843MOL0     O11152   1.319   4.042   0.610  0.3167 -0.6157  0.2710
  843MOL0     C11153   1.235   3.939   0.666 -0.0638 -0.0226 -0.1189
  843MOL0     C11154   1.089   3.954   0.611 -0.6750  0.1542  0.3470
  843MOL0     C11155   1.080   3.880   0.477 -0.0452  0.5070 -0.4727
  843MOL0     C11156   0.946   3.809   0.453  0.1374 -0.6645 -0.0857
  843MOL0     C11157   0.912   3.782   0.305  0.1945  0.1851 -0.6219
  843MOL0     C11158   0.764   3.734   0.288  0.0731  0.5827  0.5425
  843MOL0     C11159   0.740   3.587   0.336 -0.6287 -0.0333 -0.8530
  843MOL0     C11160   0.582   3.552   0.325  0.6744  0.2130 -0.7982
  843MOL0     N11161   0.506   3.633   0.417  1.0029  0.7021 -0.2564
  843MOL0     C11162   0.390   3.700   0.393 -0.6907 -0.5855  0.4415
  843MOL0     C11163   0.377   3.780   0.499  0.1106  0.3625  0.2807
  843MOL0     C11164   0.249   3.873   0.522  0.1775  0.0825  0.2937
  843MOL0     C11165   0.120   3.793   0.513 -0.1949  0.2850 -0.8358
  843MOL0     C11166   0.010   3.882   0.550  0.4346  0.3541  0.4117
  843MOL0     C11167  -0.111   3.801   0.579 -0.1797  0.5077 -1.0017
  843MOL0     O11168  -0.218   3.897   0.588 -0.0669  0.0575 -0.1154
  843MOL0     C11169  -0.353   3.858   0.574  0.0443  0.0087  0.3686
  843MOL0     C11170  -0.395   3.732   0.527  0.3392  0.5535  0.2859
  843MOL0     C11171  -0.540   3.704   0.522 -0.2867 -0.1227  0.6170
  843MOL0     C11172  -0.625   3.807   0.561  0.0085  0.7099 -1.0376
  843MOL0     C11173  -0.768   3.797   0.548  0.5469 -0.7741 -0.0874
  843MOL0     O11174  -0.833   3.904   0.595 -0.1321 -0.6722  0.4581
  843MOL0     C11175  -0.953   3.925   0.545  0.4125 -0.6162 -0.2661
  843MOL0     C11176  -0.955   3.983   0.427  0.4838 -1.3024  0.4385
  843MOL0     C11177  -1.070   4.001   0.352  0.1896  0.4129 -0.0811
  843MOL0     C11178  -1.193   3.971   0.414 -0.9334 -0.2787 -0.9848
  843MOL0     O11179  -1.319   3.996   0.369 -0.3419 -0.3282  0.8521
  843MOL0     C11180  -1.329   4.024   0.227 -1.0488  0.5471 -0.0650
  843MOL0     C11181  -1.476   4.056   0.173 -0.3928  0.5345 -0.5868
  843MOL0     C11182  -1.541   4.172   0.259  0.5790  0.7592  0.2272
  843MOL0     C11183  -1.695   4.185   0.222  0.3801  0.6075 -0.2336
  843MOL0     C11184  -1.752   4.258   0.343  0.0288 -0.0337  0.1177
  843MOL0     C11185  -1.702   4.400   0.386 -0.2540 -0.5092 -0.4792
  843MOL0     C11186  -1.718   4.426   0.537 -0.1500  1.2046 -0.3146
  843MOL0     C11187  -1.866   4.428   0.584 -0.1432 -0.4145 -0.3132
  843MOL0    Cl11188  -1.953   4.271   0.603  0.2403  0.0474  0.2779
  843MOL0     C11189  -1.198   3.918   0.540 -1.0150  0.1451 -0.8393
  843MOL0     C11190  -1.071   3.882   0.606 -0.5235  0.5487 -0.2779
  843MOL0     O11191  -0.809   3.695   0.491 -0.6916 -0.0085  0.7305
  843MOL0     C11192  -0.579   3.930   0.606  0.8256 -0.2065 -0.2560
  843MOL0     C11193  -0.449   3.959   0.608 -0.6146  0.5082 -0.7731
  843MOL0     N11194   0.473   3.746   0.589 -0.2691 -0.1438 -0.1450
  843MOL0     N11195   0.553   3.656   0.543  0.8250 -0.0480 -0.2715
  843MOL0     C11196   1.530   4.122   0.576  0.6832 -0.5217  0.4524
  843MOL0     C11197   1.667   4.140   0.602 -0.3456 -0.2008  0.4627
  843MOL0     C11198   2.081   4.115   0.789  0.1961 -0.7804  0.0019
  843MOL0     C11199   2.174   4.215   0.832  0.3154 -0.3050  0.1108
  843MOL0     C11200   2.315   4.195   0.840  0.0373 -0.6809  0.2249
  843MOL0     C11201   2.360   4.067   0.805 -0.4598 -0.8353  0.1448
  843MOL0     O11202   2.490   4.036   0.787  0.4855 -0.1238  0.1234
  843MOL0     C11203   2.583   4.136   0.743  0.5575 -0.9496 -0.0272
  843MOL0     C11204   2.708   4.079   0.673  0.6279 -0.6749 -0.2754
  843MOL0     C11205   2.738   3.940   0.718  0.5524  0.3787 -0.3634
  843MOL0     C11206   2.765   3.927   0.874  0.0081 -0.2527  0.0879
  843MOL0     C11207   2.880   4.008   0.918 -0.0599  0.4464  0.6162
  843MOL0     C11208   2.965   4.078   0.968 -0.3123 -0.8198  0.0136
  843MOL0     C11209   2.274   3.967   0.768  0.8833  0.1003  0.1428
  843MOL0     C11210   2.138   3.984   0.755 -0.3617  0.2858 -0.8402
  843MOL0     H11211   1.707   3.906   0.846  3.3816  0.3746 -0.8502
  843MOL0     H11212   1.463   3.884   0.813  0.2118 -1.2789 -2.4682
  843MOL0     H11213   1.231   3.955   0.774  0.3235  1.4660 -0.3094
  843MOL0     H11214   1.272   3.837   0.648  0.6294  0.0250  0.9429
  843MOL0     H11215   1.067   4.059   0.589  2.4251  1.5127  2.9111
  843MOL0     H11216   1.022   3.915   0.688  0.1071  2.2842  2.2310
  843MOL0     H11217   1.151   3.797   0.472 -1.5356 -0.7647 -1.7630
  843MOL0     H11218   1.099   3.949   0.395 -0.4333 -1.3402 -2.1752
  843MOL0     H11219   0.937   3.728   0.527 -3.4638  0.5151  0.9714
  843MOL0     H11220   0.875   3.883   0.490  3.5990  2.3133  1.2615
  843MOL0     H11221   0.981   3.705   0.271 -0.2494 -0.6992  0.4167
  843MOL0     H11222   0.925   3.872   0.244 -1.7224  1.0954  0.2165
  843MOL0     H11223   0.725   3.738   0.186  1.3493  0.3744  0.0345
  843MOL0     H11224   0.701   3.808   0.338 -3.4450 -3.1839  2.3147
  843MOL0     H11225   0.801   3.516   0.278 -1.9008  0.0068 -2.3123
  843MOL0     H11226   0.772   3.577   0.440  0.2796  3.9942 -0.5809
  843MOL0     H11227   0.556   3.452   0.362 -1.3385  1.0156  0.1112
  843MOL0     H11228   0.538   3.558   0.225 -0.6895 -2.5185 -0.4485
  843MOL0     H11229   0.333   3.695   0.301 -2.3326 -0.9141  1.4418
  843MOL0     H11230   0.258   3.958   0.454 -1.2585  1.8336  2.1349
  843MOL0     H11231   0.260   3.916   0.623 -0.4631  1.1573 -0.0737
  843MOL0     H11232   0.133   3.710   0.582 -2.6679  0.3201 -0.2576
  843MOL0     H11233   0.108   3.754   0.412  3.2542  1.6714 -1.9338
  843MOL0     H11234   0.043   3.931   0.643 -0.9902  0.2405  0.9982
  843MOL0     H11235  -0.014   3.962   0.480  0.8989  0.4637  0.3684
  843MOL0     H11236  -0.097   3.743   0.671 -0.1444  0.3912 -1.0803
  843MOL0     H11237  -0.135   3.742   0.490 -0.2030  1.4629 -1.6466
  843MOL0     H11238  -0.328   3.651   0.502  1.1918  1.7958 -1.7181
  843MOL0     H11239  -0.582   3.605   0.505  0.7595 -0.5372  0.3392
  843MOL0     H11240  -0.868   4.023   0.376  0.4072 -1.0882  0.4798
  843MOL0     H11241  -1.066   4.033   0.248  3.3641 -0.0779 -0.2097
  843MOL0     H11242  -1.289   3.939   0.172 -2.0912 -0.7594  1.0963
  843MOL0     H11243  -1.274   4.117   0.207 -1.7165  1.1495  0.7727
  843MOL0     H11244  -1.533   3.963   0.175  0.7745 -0.2244  1.9075
  843MOL0     H11245  -1.476   4.094   0.071 -3.0044  2.0369 -0.1053
  843MOL0     H11246  -1.491   4.265   0.232  0.5902  1.1924  1.6367
  843MOL0     H11247  -1.535   4.160   0.368 -2.8169  0.1864  0.4498
  843MOL0     H11248  -1.715   4.231   0.125 -0.7955  0.3300 -0.1302
  843MOL0     H11249  -1.727   4.081   0.218  2.7028 -0.1236 -1.3851
  843MOL0     H11250  -1.744   4.184   0.423 -0.7916  1.2119  1.3984
  843MOL0     H11251  -1.858   4.269   0.317  0.3126 -2.7553 -2.8345
  843MOL0     H11252  -1.756   4.469   0.321 -0.0600 -0.8694 -1.0274
  843MOL0     H11253  -1.597   4.421   0.363 -0.8015  0.8564 -1.8828
  843MOL0     H11254  -1.666   4.351   0.597 -0.2209  0.3451 -1.3079
  843MOL0     H11255  -1.665   4.520   0.555 -1.5967  2.3402 -1.6943
  843MOL0     H11256  -1.926   4.494   0.520  0.1936  0.2182  0.0135
  843MOL0     H11257  -1.872   4.484   0.679 -0.4938  1.5371 -1.4337
  843MOL0     H11258  -1.296   3.898   0.583  0.3900  2.8457  4.3516
  843MOL0     H11259  -1.066   3.833   0.703 -1.3003 -0.4640 -0.7169
  843MOL0     H11260  -0.645   4.005   0.650 -2.7557 -1.8700 -2.3304
  843MOL0     H11261  -0.408   4.054   0.642 -3.3395  2.0408 -1.5060
  843MOL0     H11262   1.485   4.172   0.491  2.3017 -0.6695 -0.5338
  843MOL0     H11263   1.717   4.215   0.541  0.0239  0.2079  1.2464
  843MOL0     H11264   2.135   4.309   0.869  0.2499 -0.3561  0.1751
  843MOL0     H11265   2.381   4.273   0.877  0.1192 -1.2374  1.2658
  843MOL0     H11266   2.610   4.191   0.833  2.8287  1.0188 -1.7602
  843MOL0     H11267   2.543   4.210   0.673  1.9728 -0.4690 -0.3480
  843MOL0     H11268   2.681   4.068   0.568 -4.1931 -3.8595  0.9591
  843MOL0     H11269   2.793   4.146   0.688 -0.4595  0.4795  1.0592
  843MOL0     H11270   2.823   3.914   0.655  1.2728  0.6830  0.4603
  843MOL0     H11271   2.655   3.869   0.708 -0.8380  1.9166 -0.1576
  843MOL0     H11272   2.677   3.946   0.935 -0.7581 -0.2945 -0.9897
  843MOL0     H11273   2.791   3.822   0.890 -1.2256 -0.4482  0.8923
  843MOL0     H11274   3.040   4.144   1.008  1.6523 -3.3696  0.7794
  843MOL0     H11275   2.314   3.869   0.744  1.5746  0.2506  0.6120
  843MOL0     H11276   2.080   3.907   0.705  0.7166 -0.4178 -1.0306
  844MOL0     O11277   9.294  11.256   4.448  0.2667 -1.2675 -0.7800
  844MOL0     C11278   9.302  11.349   4.533  0.1604  1.0199 -0.0461
  844MOL0     O11279   9.193  11.426   4.574  0.5066  0.5218 -0.0648
  844MOL0     C11280   9.066  11.380   4.563  0.0400  0.0376 -0.0157
  844MOL0     C11281   8.971  11.473   4.617 -0.6230  0.1133  0.6709
  844MOL0     C11282   8.836  11.454   4.609  0.7728  0.6752 -0.3092
  844MOL0     C11283   8.781  11.340   4.547 -0.4804 -0.3970  0.2801
  844MOL0     O11284   8.646  11.320   4.537 -0.2795 -0.3858 -0.8067
  844MOL0     C11285   8.569  11.436   4.486  0.4261  0.2670 -0.6811
  844MOL0     C11286   8.541  11.418   4.342 -0.6206  1.2593  0.4148
  844MOL0     C11287   8.441  11.308   4.314 -0.2976  0.1879 -0.8540
  844MOL0     C11288   8.374  11.327   4.179 -0.5233 -0.3500  0.3089
  844MOL0     C11289   8.226  11.368   4.201 -1.0346 -0.4322  0.1361
  844MOL0     C11290   8.204  11.515   4.237 -0.2350 -0.2864 -0.2399
  844MOL0     C11291   8.062  11.563   4.234 -0.5438 -0.1545 -0.6265
  844MOL0     C11292   8.025  11.680   4.328 -0.8866 -0.3420 -1.0006
  844MOL0     N11293   7.877  11.688   4.348 -0.4222  0.7058 -0.5278
  844MOL0     C11294   7.795  11.772   4.273 -0.3790  0.8668 -0.5643
  844MOL0     C11295   7.674  11.744   4.324 -0.7234  0.1917  0.1268
  844MOL0     C11296   7.554  11.815   4.282  0.0231 -0.6030 -0.1355
  844MOL0     C11297   7.437  11.721   4.285  0.2142  1.0122  0.6618
  844MOL0     C11298   7.310  11.800   4.243 -0.0308  0.7505 -0.0956
  844MOL0     C11299   7.190  11.719   4.213  0.4834  0.6519 -0.0396
  844MOL0     O11300   7.116  11.701   4.337  0.0092 -0.2716 -0.0065
  844MOL0     C11301   7.010  11.611   4.339 -0.1217  0.3566 -0.0280
  844MOL0     C11302   6.902  11.614   4.250  0.2164 -0.0172  0.3230
  844MOL0     C11303   6.807  11.509   4.262  0.1530 -0.2549 -0.6026
  844MOL0     C11304   6.822  11.401   4.347 -0.6383  0.4530  0.7240
  844MOL0     C11305   6.718  11.293   4.352 -1.3492  0.9896 -0.9169
  844MOL0     O11306   6.749  11.189   4.432  0.8581 -0.1323 -0.3415
  844MOL0     C11307   6.666  11.075   4.447  0.2934 -1.2203 -0.0916
  844MOL0     C11308   6.521  11.085   4.454 -0.9906 -0.3441  0.0061
  844MOL0     C11309   6.448  10.970   4.470  0.0498  0.4395 -0.1142
  844MOL0     C11310   6.518  10.850   4.481  0.7824  0.2069  0.3234
  844MOL0     O11311   6.460  10.731   4.493  0.2142  0.9790  0.0262
  844MOL0     C11312   6.356  10.719   4.601 -1.1823  0.6223 -0.7503
  844MOL0     C11313   6.220  10.720   4.530 -0.8469  0.0642 -0.7378
  844MOL0     C11314   6.105  10.717   4.628  0.2944  0.2317 -0.3583
  844MOL0     C11315   5.975  10.690   4.545  1.1914 -0.0943  0.1764
  844MOL0     C11316   5.852  10.654   4.633 -0.8061 -1.2356 -0.0022
  844MOL0     C11317   5.814  10.772   4.717  0.6163 -0.3484  0.0537
  844MOL0     C11318   5.659  10.752   4.754 -0.5934  0.6274  0.0491
  844MOL0     C11319   5.610  10.865   4.842 -0.0265  0.1254 -0.1777
  844MOL0    Cl11320   5.684  10.874   5.000  0.0262  0.0017  0.0276
  844MOL0     C11321   6.657  10.837   4.483 -0.0820 -0.3511  1.5617
  844MOL0     C11322   6.725  10.952   4.474  0.0933 -1.3123 -0.1036
  844MOL0     O11323   6.611  11.308   4.293  0.2742  0.3309 -0.8516
  844MOL0     C11324   6.942  11.393   4.428  0.6821  0.2543 -0.0039
  844MOL0     C11325   7.027  11.501   4.423 -0.1682 -0.1238  0.5620
  844MOL0     N11326   7.688  11.646   4.419 -0.2937 -0.0606  0.5804
  844MOL0     N11327   7.805  11.615   4.438 -0.3579  0.1412  0.2291
  844MOL0     C11328   8.871  11.250   4.485  0.3456 -0.2433 -0.0978
  844MOL0     C11329   9.010  11.270   4.495 -0.0475 -0.2429  0.4908
  844MOL0     C11330   9.425  11.357   4.609  0.6424  0.0282  0.0363
  844MOL0     C11331   9.543  11.300   4.556 -0.3024 -0.6478 -1.0593
  844MOL0     C11332   9.668  11.317   4.628  0.3001 -0.3378  0.6597
  844MOL0     C11333   9.668  11.376   4.753 -1.8827 -0.2047  0.6440
  844MOL0     O11334   9.781  11.388   4.832 -0.1761 -1.0002 -1.0499
  844MOL0     C11335   9.888  11.294   4.811 -0.3520  0.3064  0.8060
  844MOL0     C11336  10.011  11.314   4.721 -0.5276 -0.5818  0.1927
  844MOL0     C11337  10.115  11.417   4.771  0.7428  0.6092 -0.6062
  844MOL0     C11338  10.160  11.517   4.665  0.5640  0.1577 -0.1902
  844MOL0     C11339  10.268  11.600   4.714  0.9970  0.9841  0.4608
  844MOL0     C11340  10.364  11.663   4.757  0.9298  0.6633  0.3407
  844MOL0     C11341   9.550  11.427   4.806  0.8526 -0.3658 -0.2670
  844MOL0     C11342   9.427  11.419   4.730 -0.6795  0.1428 -0.3485
  844MOL0     H11343   9.014  11.557   4.670 -0.1464  0.8634 -0.8405
  844MOL0     H11344   8.768  11.524   4.658 -1.5530 -0.8913 -1.1598
  844MOL0     H11345   8.623  11.524   4.522 -0.4189 -0.3694  2.4183
  844MOL0     H11346   8.471  11.439   4.535 -0.5195 -2.0276 -2.2950
  844MOL0     H11347   8.631  11.400   4.283 -1.6003  2.5544 -1.5783
  844MOL0     H11348   8.495  11.512   4.312 -0.0110  1.2076 -0.7205
  844MOL0     H11349   8.372  11.321   4.398  1.9288 -0.0927  1.1131
  844MOL0     H11350   8.485  11.210   4.335 -0.4480  0.6671  2.1143
  844MOL0     H11351   8.419  11.406   4.117  1.3087 -0.4453  1.4643
  844MOL0     H11352   8.379  11.233   4.123 -1.3937 -0.2706  0.0816
  844MOL0     H11353   8.179  11.312   4.282 -1.4209  0.7755  0.7648
  844MOL0     H11354   8.169  11.348   4.110  1.4003  1.7694 -2.0533
  844MOL0     H11355   8.260  11.571   4.161 -1.3542 -0.7353 -1.4297
  844MOL0     H11356   8.242  11.532   4.338 -0.2886 -0.7273 -0.1435
  844MOL0     H11357   8.044  11.595   4.131 -1.4921 -1.0403 -0.7525
  844MOL0     H11358   7.993  11.484   4.265 -1.1162  0.2618 -0.8267
  844MOL0     H11359   8.065  11.779   4.305 -0.0146 -0.0406  1.4772
  844MOL0     H11360   8.073  11.661   4.424 -0.6534 -1.4736 -1.3231
  844MOL0     H11361   7.808  11.847   4.196 -4.3136  0.9924 -1.2902
  844MOL0     H11362   7.562  11.853   4.180  1.1229  0.7599  0.4206
  844MOL0     H11363   7.550  11.896   4.356  3.3001  1.3998 -1.9154
  844MOL0     H11364   7.434  11.685   4.389  3.1846  1.2553  0.9385
  844MOL0     H11365   7.441  11.628   4.227 -2.6640  0.8703  0.5456
  844MOL0     H11366   7.276  11.857   4.330 -2.1142 -2.5363  1.4502
  844MOL0     H11367   7.322  11.867   4.158 -1.1777  1.2497  0.1174
  844MOL0     H11368   7.196  11.623   4.160 -5.4291  0.3852 -0.9604
  844MOL0     H11369   7.124  11.780   4.150  1.3752  0.9777 -0.6715
  844MOL0     H11370   6.891  11.696   4.181  0.7459 -0.3705 -0.1919
  844MOL0     H11371   6.712  11.506   4.210 -0.6320 -0.8126  0.8172
  844MOL0     H11372   6.493  11.190   4.451 -1.4030 -0.4545 -0.0443
  844MOL0     H11373   6.340  10.973   4.470 -0.1386 -2.3588 -2.0269
  844MOL0     H11374   6.370  10.797   4.677  2.5709 -1.3755  0.8530
  844MOL0     H11375   6.374  10.629   4.661 -0.5834  0.9296 -0.4575
  844MOL0     H11376   6.213  10.639   4.457  0.8644 -0.7286 -0.0714
  844MOL0     H11377   6.221  10.816   4.478  2.9405  0.3707 -0.4254
  844MOL0     H11378   6.106  10.819   4.669  1.1967  1.2966 -2.8353
  844MOL0     H11379   6.121  10.642   4.706 -0.1978 -1.2804 -1.6726
  844MOL0     H11380   5.950  10.777   4.483 -0.5016 -0.6341  0.0487
  844MOL0     H11381   5.994  10.611   4.471 -0.5919 -0.3624 -0.0331
  844MOL0     H11382   5.867  10.563   4.693  0.9531 -0.7311  0.3843
  844MOL0     H11383   5.777  10.630   4.558 -1.3246 -1.9971  0.7343
  844MOL0     H11384   5.831  10.866   4.666  0.7783  0.3313  1.3201
  844MOL0     H11385   5.873  10.782   4.808  1.8196 -2.0820 -0.4792
  844MOL0     H11386   5.610  10.761   4.656 -1.4691 -0.8132  0.3229
  844MOL0     H11387   5.628  10.657   4.799  2.1009 -0.9554 -1.1988
  844MOL0     H11388   5.505  10.839   4.853  0.2372 -0.2168  2.1563
  844MOL0     H11389   5.618  10.965   4.798  2.4584 -0.4490 -1.1723
  844MOL0     H11390   6.699  10.739   4.502 -1.3651 -0.6284  3.1670
  844MOL0     H11391   6.833  10.952   4.483  0.1258 -1.4979 -0.4800
  844MOL0     H11392   6.949  11.308   4.495  0.9955  0.0344 -0.3124
  844MOL0     H11393   7.115  11.494   4.486  0.1022 -1.4604  0.0709
  844MOL0     H11394   8.832  11.165   4.431  0.4354  0.1901 -0.8523
  844MOL0     H11395   9.070  11.199   4.440 -1.0758  1.1158 -2.6304
  844MOL0     H11396   9.553  11.252   4.460 -2.9054 -3.5201 -0.0543
  844MOL0     H11397   9.758  11.269   4.590  0.3593 -0.0504  0.4270
  844MOL0     H11398   9.837  11.204   4.774 -0.5240 -0.2051  2.2046
  844MOL0     H11399   9.919  11.256   4.909  0.8001 -3.9316 -0.9630
  844MOL0     H11400  10.059  11.216   4.711  1.3044  0.3316 -0.3240
  844MOL0     H11401   9.973  11.345   4.623 -1.0409 -1.9540 -0.0761
  844MOL0     H11402  10.200  11.361   4.808  0.4256 -0.8753 -2.0138
  844MOL0     H11403  10.072  11.465   4.859  3.7815  0.1247  1.2747
  844MOL0     H11404  10.183  11.459   4.576 -0.6232  0.8689 -1.0015
  844MOL0     H11405  10.067  11.574   4.651  0.0430 -0.2211  1.4921
  844MOL0     H11406  10.450  11.712   4.799  2.2321 -1.3822  0.2044
  844MOL0     H11407   9.542  11.465   4.908 -0.8391 -1.4654  0.0516
  844MOL0     H11408   9.337  11.445   4.786 -1.7259 -2.7157 -0.4892
  845MOL0     O11409   3.868  10.860   3.596  0.7348  0.6446 -0.1251
  845MOL0     C11410   3.906  10.775   3.673 -0.5367 -0.3888 -0.7580
  845MOL0     O11411   3.829  10.664   3.700 -0.3728  0.3083 -0.1444
  845MOL0     C11412   3.703  10.657   3.642  0.4981  0.7900 -0.2883
  845MOL0     C11413   3.690  10.627   3.501  0.6629  0.0614  0.2170
  845MOL0     C11414   3.560  10.622   3.445 -1.3873  0.5824 -0.3236
  845MOL0     C11415   3.446  10.634   3.513 -0.3275  0.5779 -1.0072
  845MOL0     O11416   3.330  10.635   3.448  1.2957 -0.1309 -0.0569
  845MOL0     C11417   3.231  10.735   3.479 -0.2058 -0.2112 -0.9368
  845MOL0     C11418   3.137  10.757   3.359  0.6604  0.2798 -0.1708
  845MOL0     C11419   3.021  10.652   3.353  0.7666  0.3143  0.3831
  845MOL0     C11420   2.949  10.655   3.210 -0.0650 -0.1530  0.2422
  845MOL0     C11421   2.843  10.536   3.193 -0.2622 -1.2555 -0.3096
  845MOL0     C11422   2.720  10.538   3.291 -1.3614 -0.0689  0.1271
  845MOL0     C11423   2.637  10.414   3.275 -1.2381 -0.5660  0.5708
  845MOL0     C11424   2.553  10.382   3.400 -0.3924 -0.8383 -0.0177
  845MOL0     N11425   2.446  10.477   3.414  0.2352 -0.4372 -0.8027
  845MOL0     C11426   2.328  10.474   3.347 -0.0702 -0.1454  0.3710
  845MOL0     C11427   2.264  10.593   3.376  0.6263 -0.2786 -0.4339
  845MOL0     C11428   2.125  10.628   3.337  0.0794  0.6709 -0.3359
  845MOL0     C11429   2.027  10.622   3.456 -0.1640  0.2331 -0.0453
  845MOL0     C11430   1.892  10.655   3.414  0.3403  0.6888 -0.4236
  845MOL0     C11431   1.781  10.623   3.521 -0.4160 -0.8924 -0.2092
  845MOL0     O11432   1.647  10.653   3.483 -0.3443  0.2291  0.2667
  845MOL0     C11433   1.545  10.661   3.580 -0.4201  0.2812 -0.2377
  845MOL0     C11434   1.425  10.711   3.538  0.6740 -0.5989  0.5118
  845MOL0     C11435   1.309  10.709   3.612 -0.0934 -0.2431 -0.0901
  845MOL0     C11436   1.317  10.661   3.749 -0.4618 -0.0544  0.5556
  845MOL0     C11437   1.195  10.662   3.831 -0.5838  0.8454  0.5506
  845MOL0     O11438   1.082  10.708   3.776  0.2050  0.6269  0.0026
  845MOL0     C11439   0.984  10.737   3.865 -0.6096 -0.3384  0.0565
  845MOL0     C11440   0.878  10.654   3.861 -0.4197 -0.6133 -0.6863
  845MOL0     C11441   0.772  10.671   3.956  0.5773 -0.1118  0.1475
  845MOL0     C11442   0.770  10.777   4.052 -0.3197  0.2047 -0.3036
  845MOL0     O11443   0.667  10.792   4.140 -0.0069  0.0264 -1.0170
  845MOL0     C11444   0.533  10.745   4.091 -0.8398  0.1934 -0.6324
  845MOL0     C11445   0.493  10.612   4.137  0.2720 -0.5167  0.0522
  845MOL0     C11446   0.357  10.565   4.083  0.1060 -0.8492 -0.6806
  845MOL0     C11447   0.306  10.428   4.136  1.0147  0.4210  0.5541
  845MOL0     C11448   0.191  10.375   4.050  0.3089  0.6664  0.4536
  845MOL0     C11449   0.158  10.236   4.082  0.2389  0.3266  0.3380
  845MOL0     C11450   0.012  10.212   4.137  0.3444  0.0118  0.0641
  845MOL0     C11451   0.016  10.250   4.281  0.5251 -0.2286  0.5368
  845MOL0    Cl11452  -0.101  10.159   4.373 -0.1104 -0.7603  0.1759
  845MOL0     C11453   0.886  10.861   4.059 -0.6294 -0.0921  0.3377
  845MOL0     C11454   0.992  10.840   3.966  0.0004 -0.8144 -0.6033
  845MOL0     O11455   1.209  10.618   3.946 -0.0317  0.2231 -0.1673
  845MOL0     C11456   1.445  10.614   3.783 -0.3931  0.4196 -1.2079
  845MOL0     C11457   1.560  10.608   3.711 -0.2689  0.1752 -0.0557
  845MOL0     N11458   2.352  10.666   3.457 -0.1825 -0.2121 -0.0643
  845MOL0     N11459   2.454  10.595   3.491 -0.0258 -0.3384  0.1305
  845MOL0     C11460   3.456  10.653   3.653  1.1250 -0.0519 -0.5953
  845MOL0     C11461   3.578  10.670   3.719  0.2281  0.1203 -0.2010
  845MOL0     C11462   4.045  10.782   3.725  0.1863 -0.6704 -0.2508
  845MOL0     C11463   4.095  10.689   3.818 -0.7763  1.1905 -0.5128
  845MOL0     C11464   4.229  10.691   3.862 -0.2791 -0.7751 -0.0683
  845MOL0     C11465   4.319  10.794   3.820 -0.8440  0.4672 -0.2203
  845MOL0     O11466   4.450  10.804   3.866 -0.2079 -0.2412  0.1171
  845MOL0     C11467   4.497  10.753   3.988  0.2733  0.5468  0.1325
  845MOL0     C11468   4.633  10.824   4.021  0.2341  0.1064 -0.1580
  845MOL0     C11469   4.599  10.960   4.077  0.8456 -0.2990 -0.4702
  845MOL0     C11470   4.722  11.040   4.055 -0.1155  0.0755 -0.1074
  845MOL0     C11471   4.742  11.172   4.133  0.3253 -0.0485  0.9997
  845MOL0     C11472   4.762  11.279   4.185 -0.1957 -0.0880  0.5962
  845MOL0     C11473   4.275  10.881   3.717  0.5209  0.3182  0.2984
  845MOL0     C11474   4.139  10.871   3.679  0.1972  0.4913 -0.1466
  845MOL0     H11475   3.776  10.617   3.436  2.1678 -1.0868  2.2606
  845MOL0     H11476   3.558  10.603   3.338 -3.9784  1.1698 -0.4462
  845MOL0     H11477   3.270  10.830   3.514 -0.6881 -0.5519  0.5857
  845MOL0     H11478   3.168  10.707   3.564  2.5758 -0.6392  1.1077
  845MOL0     H11479   3.188  10.748   3.263 -1.1761 -1.1702 -1.0820
  845MOL0     H11480   3.093  10.856   3.376  1.8301  0.3634  3.2975
  845MOL0     H11481   2.950  10.661   3.436 -1.1700 -0.3990 -1.1061
  845MOL0     H11482   3.059  10.549   3.356 -0.4593 -0.2933 -1.9192
  845MOL0     H11483   2.902  10.754   3.211 -1.6869 -0.8005  3.3930
  845MOL0     H11484   3.039  10.637   3.150  0.6147 -1.1497  1.5099
  845MOL0     H11485   2.904  10.446   3.199  4.9475  1.8207 -0.9416
  845MOL0     H11486   2.809  10.550   3.090 -3.7804  0.0313  0.8857
  845MOL0     H11487   2.668  10.634   3.280  0.6616  0.9089 -1.6410
  845MOL0     H11488   2.766  10.534   3.391  4.0581 -3.6072 -2.0585
  845MOL0     H11489   2.581  10.440   3.185  0.1192 -1.9509 -0.7551
  845MOL0     H11490   2.707  10.330   3.267 -2.2064 -1.4019  0.6563
  845MOL0     H11491   2.609  10.387   3.494  1.4460 -2.5327 -0.9684
  845MOL0     H11492   2.514  10.280   3.396  0.3669 -1.0885 -1.4022
  845MOL0     H11493   2.293  10.398   3.279 -2.6905  0.8762  0.4802
  845MOL0     H11494   2.084  10.567   3.256 -1.0488  2.0653 -0.8496
  845MOL0     H11495   2.127  10.727   3.290  1.4230  0.3741 -0.9281
  845MOL0     H11496   2.064  10.696   3.527  1.1142  1.6371 -2.0925
  845MOL0     H11497   2.026  10.521   3.499  0.1748 -0.1815 -1.0055
  845MOL0     H11498   1.888  10.759   3.380  1.2616  0.1352 -2.4125
  845MOL0     H11499   1.874  10.579   3.338 -1.8813 -2.5716  3.0259
  845MOL0     H11500   1.813  10.675   3.611 -0.7027 -3.2314  1.3149
  845MOL0     H11501   1.790  10.516   3.542 -3.2469 -1.1272  0.0869
  845MOL0     H11502   1.421  10.751   3.437  4.3227 -3.9524 -1.2372
  845MOL0     H11503   1.217  10.745   3.568  1.3145  1.8674 -1.4745
  845MOL0     H11504   0.870  10.576   3.786  1.5135  0.4530 -2.1099
  845MOL0     H11505   0.693  10.598   3.962  1.6568 -1.3391 -0.1014
  845MOL0     H11506   0.523  10.750   3.983 -1.3749  1.3655 -0.5431
  845MOL0     H11507   0.455  10.815   4.123 -0.9869  0.0574 -0.6937
  845MOL0     H11508   0.468  10.619   4.243 -1.5679  3.2224 -0.4459
  845MOL0     H11509   0.565  10.531   4.125  0.1110 -0.6636  0.0630
  845MOL0     H11510   0.348  10.578   3.975 -3.0450  2.1759 -0.2000
  845MOL0     H11511   0.294  10.638   4.134  3.5912  0.2381  2.4941
  845MOL0     H11512   0.382  10.350   4.132  1.0451  0.4181  1.1738
  845MOL0     H11513   0.277  10.446   4.240  0.5853  0.3511  0.4484
  845MOL0     H11514   0.215  10.391   3.944 -1.9267  1.8758  0.0692
  845MOL0     H11515   0.102  10.436   4.070 -0.2959 -0.4643  1.2883
  845MOL0     H11516   0.232  10.185   4.145 -0.0518  0.8304  1.0968
  845MOL0     H11517   0.159  10.184   3.985 -4.6091  0.2722  0.0730
  845MOL0     H11518  -0.068  10.270   4.090 -0.4697  0.4218  1.8929
  845MOL0     H11519  -0.007  10.105   4.124 -1.1259  0.3507 -0.8021
  845MOL0     H11520  -0.003  10.356   4.298 -1.1353 -0.2774 -0.7466
  845MOL0     H11521   0.111  10.218   4.326  1.4091  1.6534  0.1311
  845MOL0     H11522   0.895  10.952   4.116 -1.8073  1.5263 -1.8963
  845MOL0     H11523   1.084  10.896   3.983  0.8546 -2.3413 -0.0359
  845MOL0     H11524   1.453  10.574   3.883 -1.0294  3.5520  0.2294
  845MOL0     H11525   1.648  10.558   3.750  0.8400  2.6379  0.8237
  845MOL0     H11526   3.362  10.677   3.702  0.8265 -0.4288 -0.9796
  845MOL0     H11527   3.581  10.704   3.822 -2.1766  0.3368 -0.1582
  845MOL0     H11528   4.032  10.612   3.860 -0.5723  1.7527  0.8791
  845MOL0     H11529   4.257  10.629   3.947 -2.7516 -2.1909 -0.1985
  845MOL0     H11530   4.516  10.647   3.969 -0.2703 -0.1082  2.7861
  845MOL0     H11531   4.420  10.748   4.066 -1.1584 -0.0952 -1.2853
  845MOL0     H11532   4.686  10.764   4.095  0.2484 -0.1625 -0.3830
  845MOL0     H11533   4.696  10.824   3.931 -0.5350  0.9765 -0.7162
  845MOL0     H11534   4.566  10.954   4.181 -3.4923 -0.3906 -1.6406
  845MOL0     H11535   4.518  11.025   4.042  0.7470 -0.6777 -0.9596
  845MOL0     H11536   4.806  10.971   4.065 -2.5163 -2.8422  1.6905
  845MOL0     H11537   4.716  11.065   3.948 -0.9772  0.5027  0.0306
  845MOL0     H11538   4.786  11.371   4.234  1.4158 -0.0797 -0.1736
  845MOL0     H11539   4.330  10.967   3.682 -0.0362  1.1047  1.3190
  845MOL0     H11540   4.116  10.933   3.593  0.6630 -2.8585 -2.9118
  846MOL0     O11541   2.729   2.821   9.478  0.5469  0.0682 -1.1034
  846MOL0     C11542   2.685   2.804   9.596  0.3523  0.1478  0.2059
  846MOL0     O11543   2.558   2.774   9.632  0.2402 -0.2423 -0.0908
  846MOL0     C11544   2.466   2.755   9.533 -0.9074 -1.0067 -0.5400
  846MOL0     C11545   2.459   2.638   9.470  0.5978  0.0695  0.1328
  846MOL0     C11546   2.344   2.613   9.390 -0.0352 -0.4751 -0.6627
  846MOL0     C11547   2.239   2.708   9.374 -0.0113  0.0777 -0.2174
  846MOL0     O11548   2.145   2.687   9.280  0.0102  0.1024 -0.7905
  846MOL0     C11549   2.013   2.710   9.326  0.5535  0.6069  0.2807
  846MOL0     C11550   1.920   2.697   9.201 -0.7239 -0.4092  0.7746
  846MOL0     C11551   1.961   2.805   9.105  0.2584  0.1856  0.5487
  846MOL0     C11552   1.879   2.798   8.981 -0.0284  0.4157 -0.3633
  846MOL0     C11553   1.912   2.914   8.888 -0.4509 -0.6782 -0.1336
  846MOL0     C11554   1.826   2.935   8.766  1.0356  0.8023 -0.6605
  846MOL0     C11555   1.867   3.052   8.672  0.7167  0.0751 -0.7633
  846MOL0     C11556   2.014   3.067   8.648  1.1646  0.5622  0.3711
  846MOL0     N11557   2.040   3.157   8.538 -0.0304  0.2150  1.5063
  846MOL0     C11558   2.014   3.291   8.537 -0.2071 -0.8867 -0.1241
  846MOL0     C11559   2.028   3.323   8.409  0.0613 -0.7642 -0.4116
  846MOL0     C11560   2.012   3.465   8.359  0.8677 -0.9146  0.5292
  846MOL0     C11561   2.143   3.556   8.334  0.9435  0.5138 -0.4529
  846MOL0     C11562   2.244   3.537   8.440 -0.1518 -0.4158  0.5417
  846MOL0     C11563   2.374   3.630   8.421  0.5757  0.1319  0.4248
  846MOL0     O11564   2.444   3.621   8.547  0.1184  0.9583 -0.6525
  846MOL0     C11565   2.580   3.648   8.540 -0.8692 -0.1299 -0.9858
  846MOL0     C11566   2.660   3.618   8.652  0.8588  0.0725  0.1416
  846MOL0     C11567   2.801   3.648   8.654 -0.2413 -0.0772  0.2189
  846MOL0     C11568   2.854   3.722   8.554 -0.2459 -0.5764 -0.0337
  846MOL0     C11569   2.999   3.765   8.563  0.4521 -0.1182  0.2333
  846MOL0     O11570   3.058   3.827   8.458 -0.1625  0.2926 -0.0406
  846MOL0     C11571   3.194   3.859   8.469  0.2807 -0.0496  0.5614
  846MOL0     C11572   3.226   3.996   8.469  0.4869 -0.7112  0.3651
  846MOL0     C11573   3.355   4.043   8.491  0.0049  0.6855  0.6948
  846MOL0     C11574   3.463   3.949   8.518 -0.7431 -0.0334  1.0877
  846MOL0     O11575   3.591   4.001   8.527  0.0987  0.2343 -0.3965
  846MOL0     C11576   3.696   3.910   8.533 -0.0617 -0.7747 -0.1453
  846MOL0     C11577   3.820   3.984   8.482  0.2416 -0.4431  0.6756
  846MOL0     C11578   3.938   3.886   8.482  0.0660 -0.4927  0.0979
  846MOL0     C11579   4.064   3.956   8.431  0.5517  0.4494  0.0369
  846MOL0     C11580   4.171   3.869   8.359 -0.5009 -0.2960 -0.2122
  846MOL0     C11581   4.302   3.943   8.332  0.7941 -0.4753 -0.2971
  846MOL0     C11582   4.396   3.835   8.262  1.1509  1.2662  0.3977
  846MOL0     C11583   4.538   3.885   8.246 -0.8277 -0.1303  0.4934
  846MOL0    Cl11584   4.650   3.756   8.176 -0.0441  0.6708 -0.1085
  846MOL0     C11585   3.428   3.812   8.522 -0.9535 -0.4441 -0.2740
  846MOL0     C11586   3.298   3.769   8.503  0.1174 -0.1916 -0.2255
  846MOL0     O11587   3.054   3.739   8.675  0.3225 -1.4746  0.6977
  846MOL0     C11588   2.778   3.752   8.435 -0.6091 -0.5696 -0.5046
  846MOL0     C11589   2.638   3.717   8.427 -0.0993 -0.5403 -0.9007
  846MOL0     N11590   2.076   3.219   8.336  0.6625 -0.0184  0.6405
  846MOL0     N11591   2.073   3.117   8.417 -0.1070  0.5381  0.4446
  846MOL0     C11592   2.246   2.827   9.457 -0.6189  0.2958 -0.6080
  846MOL0     C11593   2.359   2.844   9.532  0.5090 -0.2380 -0.0599
  846MOL0     C11594   2.773   2.847   9.708 -0.3775 -0.2757  0.1727
  846MOL0     C11595   2.752   2.799   9.842  0.6680 -0.7033  0.3222
  846MOL0     C11596   2.851   2.827   9.941  1.0293  0.2591 -0.3415
  846MOL0     C11597   2.966   2.901   9.915 -0.3863  0.2359  0.1541
  846MOL0     O11598   3.044   2.934  10.016 -0.6421 -0.3462  0.1697
  846MOL0     C11599   3.188   2.966  10.000 -0.6051  0.2671 -0.1616
  846MOL0     C11600   3.239   3.021  10.132  0.1093 -0.2669  0.3003
  846MOL0     C11601   3.253   2.919  10.248 -0.0459 -0.7850  0.5569
  846MOL0     C11602   3.331   2.976  10.365 -0.2638  0.6294 -0.5190
  846MOL0     C11603   3.353   2.874  10.471 -0.2577  0.0447 -0.4520
  846MOL0     C11604   3.365   2.786  10.549  0.3487  0.2880 -0.1592
  846MOL0     C11605   2.987   2.946   9.785  0.1715  0.5040  0.3635
  846MOL0     C11606   2.889   2.927   9.680 -0.2848  0.1320 -1.0277
  846MOL0     H11607   2.534   2.560   9.478 -0.4834 -1.1825 -1.4522
  846MOL0     H11608   2.351   2.516   9.341 -1.4431 -1.1777  0.4247
  846MOL0     H11609   1.991   2.805   9.375  1.0092 -0.3709  2.5279
  846MOL0     H11610   1.996   2.634   9.403  1.7190  1.4309  1.3907
  846MOL0     H11611   1.818   2.718   9.236 -0.6926  0.2124  0.5050
  846MOL0     H11612   1.923   2.600   9.151 -1.6541 -0.0965  0.0858
  846MOL0     H11613   2.067   2.783   9.088 -0.4024 -0.6378 -3.3484
  846MOL0     H11614   1.952   2.904   9.152  0.6592  0.4540  0.0712
  846MOL0     H11615   1.907   2.705   8.929  1.4622  1.0848 -0.8298
  846MOL0     H11616   1.771   2.797   8.994 -0.4387  2.7052 -2.8424
  846MOL0     H11617   2.016   2.909   8.853  1.0353 -1.0859  3.8206
  846MOL0     H11618   1.913   3.009   8.944  1.5253 -0.2232 -0.8617
  846MOL0     H11619   1.724   2.958   8.799  0.4397 -2.4879  0.1699
  846MOL0     H11620   1.815   2.838   8.716  2.3667 -1.6964  3.3883
  846MOL0     H11621   1.808   3.028   8.583  0.1433 -0.0949 -0.3420
  846MOL0     H11622   1.840   3.148   8.717  0.9417 -0.5127  0.6779
  846MOL0     H11623   2.052   2.971   8.612 -1.1431  0.7039 -2.8806
  846MOL0     H11624   2.069   3.099   8.737  1.7938 -0.3827  0.3389
  846MOL0     H11625   1.974   3.349   8.619 -1.5463  0.3646 -1.5870
  846MOL0     H11626   1.938   3.521   8.416  2.1065  1.5153 -0.1405
  846MOL0     H11627   1.977   3.452   8.256  1.0399  1.1760  0.1682
  846MOL0     H11628   2.118   3.662   8.327 -0.8216  0.0920 -1.0661
  846MOL0     H11629   2.177   3.522   8.235  1.4779 -1.4601  0.3491
  846MOL0     H11630   2.196   3.573   8.532 -0.0510  1.7758 -0.2153
  846MOL0     H11631   2.263   3.430   8.448 -3.3773 -1.3654 -2.0722
  846MOL0     H11632   2.336   3.733   8.411 -0.2253 -0.0408  1.4334
  846MOL0     H11633   2.431   3.601   8.332  0.5125  1.1169  0.0472
  846MOL0     H11634   2.632   3.560   8.740 -0.7624 -0.6474 -0.7974
  846MOL0     H11635   2.859   3.593   8.728 -0.3615  1.0790  1.1920
  846MOL0     H11636   3.140   4.060   8.458  0.5376 -1.0837 -3.3736
  846MOL0     H11637   3.380   4.148   8.491 -1.0299  0.9532 -0.2698
  846MOL0     H11638   3.668   3.816   8.485 -5.2989 -0.1991  1.2005
  846MOL0     H11639   3.712   3.880   8.637 -1.2201  1.2612  0.6906
  846MOL0     H11640   3.847   4.082   8.522  1.9624 -0.4126 -0.4518
  846MOL0     H11641   3.798   4.013   8.379  3.4054  1.6505  0.4534
  846MOL0     H11642   3.912   3.810   8.408  0.3103  0.9309 -1.5294
  846MOL0     H11643   3.973   3.845   8.577  0.2191  0.3627  0.4216
  846MOL0     H11644   4.034   4.036   8.363  1.5318  0.7737 -0.0300
  846MOL0     H11645   4.113   4.001   8.518  3.0922 -2.4461  0.2932
  846MOL0     H11646   4.125   3.818   8.273 -1.8417  0.6745 -0.1038
  846MOL0     H11647   4.199   3.790   8.429  2.9625  4.0122  3.9444
  846MOL0     H11648   4.335   3.983   8.428 -1.3010  1.4136 -0.2805
  846MOL0     H11649   4.282   4.028   8.266 -0.0405  0.2076  0.8188
  846MOL0     H11650   4.394   3.750   8.332  0.3358  1.8273  1.0771
  846MOL0     H11651   4.361   3.809   8.162  1.2416 -2.0663  1.1043
  846MOL0     H11652   4.578   3.910   8.345  0.8015  0.6674 -0.3256
  846MOL0     H11653   4.540   3.977   8.187 -1.2159 -0.1459  0.4508
  846MOL0     H11654   3.503   3.733   8.530 -0.3897  0.1447  0.4157
  846MOL0     H11655   3.276   3.663   8.491 -1.6653 -0.0310  1.2166
  846MOL0     H11656   2.839   3.810   8.367 -0.3452  0.6503  0.7232
  846MOL0     H11657   2.574   3.751   8.346 -1.2754  0.4489  0.3870
  846MOL0     H11658   2.186   2.913   9.431 -0.7124  0.2689 -0.4821
  846MOL0     H11659   2.359   2.936   9.589 -0.8901  0.8186 -1.6421
  846MOL0     H11660   2.662   2.740   9.858  1.3789 -1.7810  0.4381
  846MOL0     H11661   2.846   2.796  10.045  1.7803  0.6335 -0.1890
  846MOL0     H11662   3.211   3.050   9.935 -1.3431  2.0727  1.7865
  846MOL0     H11663   3.242   2.878   9.965 -0.0866 -0.2327  1.7707
  846MOL0     H11664   3.329   3.081  10.113 -0.9170  0.7557 -1.5060
  846MOL0     H11665   3.167   3.097  10.164 -0.5747 -1.3418  1.3999
  846MOL0     H11666   3.296   2.830  10.202 -2.0244 -0.9152 -1.1911
  846MOL0     H11667   3.156   2.890  10.291  0.0908 -1.1383  0.6336
  846MOL0     H11668   3.421   3.026  10.328  0.4935  1.2820  1.9552
  846MOL0     H11669   3.269   3.049  10.419 -1.9383 -1.0935 -0.0267
  846MOL0     H11670   3.373   2.718  10.632 -2.0757  1.9513  1.5754
  846MOL0     H11671   3.080   2.997   9.763  1.3876 -0.5454  2.6783
  846MOL0     H11672   2.908   2.971   9.583 -0.7146 -2.1422 -2.2184
  847MOL0     O11673   1.152   1.126   0.675  0.2289  0.1265  0.1093
  847MOL0     C11674   1.134   1.012   0.631  0.6863 -0.1867 -0.3137
  847MOL0     O11675   1.053   0.969   0.531  0.3322  0.6542 -0.5063
  847MOL0     C11676   0.966   1.062   0.472  0.4689  0.2957  1.3131
  847MOL0     C11677   0.854   1.120   0.542 -0.0691 -0.3780  0.4958
  847MOL0     C11678   0.780   1.212   0.478 -0.4836 -0.1622 -0.3062
  847MOL0     C11679   0.801   1.245   0.344  0.1759  0.3724 -0.4541
  847MOL0     O11680   0.725   1.323   0.267 -0.1374 -0.3852 -0.4639
  847MOL0     C11681   0.708   1.459   0.307  0.0809 -0.1880 -0.3425
  847MOL0     C11682   0.553   1.481   0.324 -0.2973 -0.2619 -0.8996
  847MOL0     C11683   0.492   1.476   0.187  0.0009 -0.2144  0.4065
  847MOL0     C11684   0.363   1.558   0.172 -0.3561  0.7286 -0.3315
  847MOL0     C11685   0.301   1.540   0.036  0.8862  0.3213  0.8966
  847MOL0     C11686   0.150   1.565   0.048  0.4162  0.3974  0.1186
  847MOL0     C11687   0.102   1.704   0.084  0.1714  0.0890  0.0582
  847MOL0     C11688  -0.045   1.709   0.100 -0.6446  0.3039  0.4229
  847MOL0     N11689  -0.081   1.849   0.131  0.1857 -0.6415 -0.3423
  847MOL0     C11690  -0.176   1.934   0.072  0.8492 -0.9619 -0.1330
  847MOL0     C11691  -0.197   2.030   0.166  0.1071 -0.2503 -0.2016
  847MOL0     C11692  -0.302   2.145   0.174  0.7005  0.2695  0.3129
  847MOL0     C11693  -0.235   2.253   0.256 -0.3267  0.2400  0.2591
  847MOL0     C11694  -0.317   2.383   0.231  0.6023 -0.4839  0.1739
  847MOL0     C11695  -0.433   2.415   0.329 -0.0407 -0.3954 -0.0073
  847MOL0     O11696  -0.550   2.343   0.275  0.2873 -0.0462 -0.6310
  847MOL0     C11697  -0.675   2.367   0.331  0.4810 -0.2985 -0.1654
  847MOL0     C11698  -0.685   2.420   0.464 -0.2737 -0.7330 -0.5938
  847MOL0     C11699  -0.814   2.430   0.521  0.6202  0.7088  0.3089
  847MOL0     C11700  -0.928   2.376   0.457  0.7099 -0.7116  0.4090
  847MOL0     C11701  -1.059   2.388   0.520  0.1882 -0.3176  0.4264
  847MOL0     O11702  -1.086   2.483   0.626 -0.7803  0.1634  0.1510
  847MOL0     C11703  -1.216   2.520   0.653  0.1085  0.3714 -0.6333
  847MOL0     C11704  -1.281   2.503   0.778  0.4904  0.2802  0.1291
  847MOL0     C11705  -1.412   2.547   0.802 -0.4074 -0.3329  0.5111
  847MOL0     C11706  -1.475   2.614   0.701  0.2154 -0.1738  0.0484
  847MOL0     O11707  -1.606   2.654   0.731  0.0441 -0.2082  1.0943
  847MOL0     C11708  -1.672   2.736   0.638  0.6087  1.0663  0.4490
  847MOL0     C11709  -1.813   2.766   0.682 -0.2141 -0.6514  0.0213
  847MOL0     C11710  -1.827   2.878   0.774 -0.5470 -0.1289 -0.3129
  847MOL0     C11711  -1.951   2.866   0.874  0.2053  0.8963  0.1822
  847MOL0     C11712  -2.000   3.010   0.895  0.3260  0.7099 -0.3642
  847MOL0     C11713  -2.092   3.026   1.012  0.5504 -1.0073  0.4996
  847MOL0     C11714  -2.221   2.947   0.987  0.0016  0.5126  0.4901
  847MOL0     C11715  -2.302   2.925   1.107  0.2965 -0.1862 -0.2514
  847MOL0    Cl11716  -2.375   3.081   1.153 -0.4142 -0.0176  0.3630
  847MOL0     C11717  -1.414   2.624   0.579  0.8089 -0.4924 -0.0958
  847MOL0     C11718  -1.290   2.578   0.554 -0.8117 -0.7308 -0.3265
  847MOL0     O11719  -1.137   2.304   0.475 -0.0149  0.4246 -0.5178
  847MOL0     C11720  -0.916   2.329   0.327 -0.6998 -0.2214  0.4576
  847MOL0     C11721  -0.789   2.321   0.271  0.2983 -1.1815  0.0905
  847MOL0     N11722  -0.111   2.003   0.270  0.1036  0.0960  0.2585
  847MOL0     N11723  -0.054   1.888   0.255  0.1677 -0.0820 -0.5808
  847MOL0     C11724   0.906   1.184   0.271 -0.8370  0.1611 -0.7341
  847MOL0     C11725   0.985   1.090   0.332 -0.1219 -0.3820 -0.8588
  847MOL0     C11726   1.215   0.904   0.693 -0.0996 -0.5176  0.6407
  847MOL0     C11727   1.304   0.933   0.798 -0.4824 -0.0748  0.1175
  847MOL0     C11728   1.384   0.830   0.862  0.0503  0.1039 -0.4044
  847MOL0     C11729   1.367   0.699   0.824  0.0783 -0.5754  0.6584
  847MOL0     O11730   1.440   0.613   0.899 -0.2408  0.0394  0.2280
  847MOL0     C11731   1.427   0.470   0.883 -0.6028  0.3787  0.1338
  847MOL0     C11732   1.528   0.393   0.966  0.5238  1.0842  0.0576
  847MOL0     C11733   1.490   0.239   0.949  0.3624 -0.7030 -0.1173
  847MOL0     C11734   1.586   0.161   1.040  0.1335 -0.2850 -0.3553
  847MOL0     C11735   1.720   0.142   0.987  0.0801  0.0641 -0.4944
  847MOL0     C11736   1.830   0.150   0.935  0.2622 -0.0993 -0.7622
  847MOL0     C11737   1.272   0.662   0.730 -0.5019  0.1718  1.3311
  847MOL0     C11738   1.200   0.769   0.660  0.2417  0.4581 -0.1623
  847MOL0     H11739   0.825   1.098   0.644 -2.0011  1.5634  0.4443
  847MOL0     H11740   0.691   1.252   0.524  0.3111  2.7607 -1.1362
  847MOL0     H11741   0.737   1.518   0.220  0.9893  0.2574  0.2455
  847MOL0     H11742   0.767   1.498   0.391  2.7801  0.3092 -2.3607
  847MOL0     H11743   0.539   1.578   0.371 -4.5530 -1.1207  0.0172
  847MOL0     H11744   0.504   1.412   0.393 -1.2074  0.6129 -0.6519
  847MOL0     H11745   0.482   1.371   0.156  2.2737 -0.5339  0.6035
  847MOL0     H11746   0.553   1.524   0.110 -0.3359  1.0781  0.9218
  847MOL0     H11747   0.299   1.527   0.255 -0.3456  0.9394 -0.2433
  847MOL0     H11748   0.386   1.664   0.191 -1.1646  0.4497  2.8124
  847MOL0     H11749   0.305   1.439  -0.005  0.1006  0.8369 -0.5138
  847MOL0     H11750   0.336   1.607  -0.043  0.3084 -1.9473 -1.4003
  847MOL0     H11751   0.115   1.498   0.127 -0.3639  1.7515  0.9590
  847MOL0     H11752   0.100   1.532  -0.043  0.2044 -0.9201  0.6952
  847MOL0     H11753   0.150   1.741   0.175  1.1718  2.6808 -1.3948
  847MOL0     H11754   0.131   1.776   0.007  2.2527 -0.6061  0.1457
  847MOL0     H11755  -0.079   1.641   0.179  1.8680 -2.6085 -0.7838
  847MOL0     H11756  -0.101   1.669   0.016 -0.8894 -1.1252  1.2372
  847MOL0     H11757  -0.232   1.918  -0.020 -1.7306  2.7362  0.5667
  847MOL0     H11758  -0.396   2.120   0.222  0.3453  3.8875  1.8403
  847MOL0     H11759  -0.317   2.180   0.071  2.9415 -2.0527 -0.9237
  847MOL0     H11760  -0.133   2.275   0.225  0.6115 -2.0446  1.4877
  847MOL0     H11761  -0.238   2.224   0.362 -0.4900 -1.0669 -0.0776
  847MOL0     H11762  -0.245   2.465   0.243  2.8257 -2.3545  0.2850
  847MOL0     H11763  -0.347   2.387   0.126  1.1495 -0.0640  0.0229
  847MOL0     H11764  -0.452   2.521   0.350 -2.0722 -1.0204  1.6698
  847MOL0     H11765  -0.411   2.375   0.429 -1.6541 -1.7026 -0.1409
  847MOL0     H11766  -0.596   2.444   0.521 -0.7347 -0.5574  0.0571
  847MOL0     H11767  -0.822   2.475   0.619 -1.4831  0.2112  0.4305
  847MOL0     H11768  -1.236   2.446   0.858 -1.3815 -1.3708  0.0921
  847MOL0     H11769  -1.459   2.527   0.898 -0.9105  0.0763  0.3602
  847MOL0     H11770  -1.682   2.678   0.546  2.1127  0.0044  0.9150
  847MOL0     H11771  -1.620   2.831   0.629  0.0924  1.3809  0.7525
  847MOL0     H11772  -1.859   2.674   0.720 -1.0777 -0.0890  0.3611
  847MOL0     H11773  -1.859   2.794   0.587 -0.2089  2.4334  0.8328
  847MOL0     H11774  -1.833   2.970   0.714 -0.4173  0.9656  1.2847
  847MOL0     H11775  -1.732   2.891   0.825  1.0467 -0.1453 -3.0578
  847MOL0     H11776  -2.026   2.804   0.824  0.4152 -1.3156  2.3920
  847MOL0     H11777  -1.934   2.809   0.966 -0.2317 -1.7674 -1.3016
  847MOL0     H11778  -2.054   3.037   0.804 -1.9535  0.4893  0.8365
  847MOL0     H11779  -1.912   3.073   0.911  1.1865  1.3173 -5.7104
  847MOL0     H11780  -2.117   3.132   1.019 -2.7480 -1.5516 -0.9291
  847MOL0     H11781  -2.043   2.987   1.102 -0.4786 -3.9209 -0.0929
  847MOL0     H11782  -2.283   2.981   0.903  0.5629  3.0833  1.0187
  847MOL0     H11783  -2.195   2.850   0.946 -2.8161  0.5929 -1.7638
  847MOL0     H11784  -2.238   2.878   1.183 -2.2419 -2.1379  0.8557
  847MOL0     H11785  -2.373   2.847   1.079  1.6463 -2.7922  2.8938
  847MOL0     H11786  -1.460   2.661   0.488 -2.0077 -0.0246  1.3931
  847MOL0     H11787  -1.246   2.589   0.455  1.8551 -1.7348  0.6754
  847MOL0     H11788  -1.005   2.293   0.276  0.6461 -2.7281 -0.2766
  847MOL0     H11789  -0.793   2.285   0.169  0.1178  0.2361 -0.4224
  847MOL0     H11790   0.942   1.216   0.173 -2.2907 -0.1408 -1.4000
  847MOL0     H11791   1.076   1.061   0.280  1.9416  3.4489  0.2224
  847MOL0     H11792   1.322   1.038   0.821 -1.4106 -0.4633  3.0326
  847MOL0     H11793   1.450   0.846   0.947  0.1960  0.4003 -0.5704
  847MOL0     H11794   1.444   0.439   0.779 -0.2969  1.3580 -0.1183
  847MOL0     H11795   1.330   0.435   0.918  0.6879 -1.2416  2.3004
  847MOL0     H11796   1.632   0.421   0.942  1.1219 -0.4010  0.7961
  847MOL0     H11797   1.516   0.414   1.073  2.4183 -2.5967  1.1822
  847MOL0     H11798   1.494   0.201   0.846  0.5636  0.2259 -0.4720
  847MOL0     H11799   1.388   0.240   0.988  0.7699  1.4697  1.0192
  847MOL0     H11800   1.599   0.212   1.136  2.2287  1.5984 -1.5083
  847MOL0     H11801   1.553   0.061   1.069  0.4164  0.4157  2.6070
  847MOL0     H11802   1.923   0.145   0.881  2.6398  2.4845  2.5892
  847MOL0     H11803   1.236   0.560   0.720  1.5866 -0.5167  0.2346
  847MOL0     H11804   1.124   0.737   0.589  2.6104  1.3770 -3.3758
  848MOL0     O11805   1.272   1.117   1.108  0.1109  0.2487  0.5261
  848MOL0     C11806   1.271   1.001   1.150 -0.1966  0.5421  0.1853
  848MOL0     O11807   1.161   0.926   1.158  0.5481 -0.1373  0.0153
  848MOL0     C11808   1.042   0.965   1.089 -0.0985  0.2522  0.0731
  848MOL0     C11809   0.932   0.874   1.102 -1.4696  0.1391 -0.2409
  848MOL0     C11810   0.807   0.895   1.031 -0.0186 -0.2998 -0.7043
  848MOL0     C11811   0.793   0.999   0.940 -0.3152 -0.6709  0.0372
  848MOL0     O11812   0.666   1.031   0.880  0.2574  0.5864  0.8066
  848MOL0     C11813   0.547   0.967   0.915  0.1450  0.6358 -0.0549
  848MOL0     C11814   0.425   1.019   0.834 -0.3810  0.9479 -0.1007
  848MOL0     C11815   0.289   0.947   0.872 -0.5015 -0.3299 -0.2300
  848MOL0     C11816   0.171   0.996   0.787 -0.6222 -0.0828 -0.0732
  848MOL0     C11817   0.037   0.975   0.859 -0.3946  0.4461  0.6014
  848MOL0     C11818  -0.078   1.042   0.792 -0.1653 -0.7615  0.2821
  848MOL0     C11819  -0.203   0.978   0.858 -1.0583 -0.1618 -0.3606
  848MOL0     C11820  -0.329   1.034   0.784 -0.0862  0.3294  0.8821
  848MOL0     N11821  -0.453   0.952   0.810 -0.3260 -0.5668  0.2813
  848MOL0     C11822  -0.544   0.972   0.912  1.1413 -0.4595 -0.2044
  848MOL0     C11823  -0.635   0.870   0.905 -0.5401  0.0558  0.7855
  848MOL0     C11824  -0.749   0.850   0.993  0.3414 -0.4433 -0.2979
  848MOL0     C11825  -0.846   0.965   0.972 -0.1972  0.3831 -0.5838
  848MOL0     C11826  -0.799   1.109   1.004 -0.3873  0.4407 -1.0883
  848MOL0     C11827  -0.920   1.193   1.019  0.8043 -0.3477 -0.2624
  848MOL0     O11828  -0.992   1.173   0.898 -0.2219 -0.2130  0.1851
  848MOL0     C11829  -1.077   1.267   0.853 -0.2814 -0.6844  0.0686
  848MOL0     C11830  -1.109   1.272   0.717  0.2910 -0.0856 -0.6829
  848MOL0     C11831  -1.204   1.367   0.668 -0.1463  0.3054  0.0728
  848MOL0     C11832  -1.247   1.475   0.746  0.0227 -0.0894  0.0184
  848MOL0     C11833  -1.346   1.566   0.685  0.0135  0.3403  0.3977
  848MOL0     O11834  -1.391   1.678   0.766 -0.2032  0.0406 -0.0111
  848MOL0     C11835  -1.440   1.790   0.709  0.3873 -0.4747 -0.3639
  848MOL0     C11836  -1.563   1.793   0.642  0.3786 -0.2385 -0.0205
  848MOL0     C11837  -1.621   1.913   0.591 -0.1413 -0.0445 -0.0096
  848MOL0     C11838  -1.559   2.032   0.628 -0.4143 -0.5329  0.4197
  848MOL0     O11839  -1.626   2.150   0.596 -0.5883 -0.3604 -0.5522
  848MOL0     C11840  -1.576   2.286   0.604 -0.2951  0.5845  0.9521
  848MOL0     C11841  -1.630   2.355   0.475  0.1112  0.5952 -1.3289
  848MOL0     C11842  -1.781   2.382   0.482 -0.4474 -0.4463  0.1113
  848MOL0     C11843  -1.833   2.450   0.352  0.2021  0.5066 -0.2371
  848MOL0     C11844  -1.946   2.538   0.374  0.4866  0.3399 -1.1393
  848MOL0     C11845  -2.065   2.467   0.437 -0.1701  0.5514 -0.4337
  848MOL0     C11846  -2.148   2.568   0.521 -0.3290 -0.7702  0.0114
  848MOL0     C11847  -2.253   2.499   0.601 -0.1148 -0.3538  0.0672
  848MOL0    Cl11848  -2.357   2.611   0.704  0.2901 -0.3847  0.5222
  848MOL0     C11849  -1.439   2.033   0.698 -0.1941 -0.5795 -0.8089
  848MOL0     C11850  -1.373   1.917   0.731 -0.3377  0.9980  0.3184
  848MOL0     O11851  -1.365   1.560   0.561  0.5313  0.1151  0.1235
  848MOL0     C11852  -1.200   1.486   0.878  0.4957 -0.8180 -0.4520
  848MOL0     C11853  -1.116   1.382   0.927  0.6207  0.1760 -0.1193
  848MOL0     N11854  -0.608   0.799   0.791  0.2269 -0.2758  0.0749
  848MOL0     N11855  -0.501   0.848   0.732 -0.0212  0.6423  0.1535
  848MOL0     C11856   0.894   1.086   0.923  0.0962  0.1545 -0.2582
  848MOL0     C11857   1.015   1.070   0.995  0.7558  0.1027  0.7894
  848MOL0     C11858   1.386   0.951   1.231  0.2333 -0.3255  0.4302
  848MOL0     C11859   1.505   1.028   1.247  0.0388  0.0970  1.0778
  848MOL0     C11860   1.612   0.970   1.317 -0.3784  0.4157  0.7932
  848MOL0     C11861   1.604   0.845   1.382 -0.8778 -0.0740  0.0127
  848MOL0     O11862   1.704   0.783   1.451 -0.3270  0.4515 -0.9552
  848MOL0     C11863   1.836   0.839   1.470 -0.2530 -0.8715  0.0591
  848MOL0     C11864   1.907   0.824   1.337 -0.7376 -0.3206  0.2887
  848MOL0     C11865   2.054   0.854   1.368 -0.3155  0.3438  0.1611
  848MOL0     C11866   2.158   0.792   1.273 -0.0373  0.0033  0.0285
  848MOL0     C11867   2.138   0.856   1.142  1.0322  0.5260  0.5904
  848MOL0     C11868   2.131   0.890   1.026  0.9954  0.1361 -0.4993
  848MOL0     C11869   1.483   0.768   1.366 -0.0837 -0.8733  0.4458
  848MOL0     C11870   1.376   0.827   1.292  0.4085  0.9687 -0.5443
  848MOL0     H11871   0.945   0.785   1.162 -1.3319 -0.6225 -1.3560
  848MOL0     H11872   0.722   0.829   1.042 -0.6132  0.7946  2.2182
  848MOL0     H11873   0.524   0.984   1.020 -1.0349 -4.1293  0.6622
  848MOL0     H11874   0.562   0.859   0.919  0.3708  0.6993  3.0344
  848MOL0     H11875   0.445   1.009   0.727 -1.0364  0.8120 -0.2129
  848MOL0     H11876   0.423   1.126   0.857  0.7219  0.4965  2.4129
  848MOL0     H11877   0.277   0.956   0.981 -4.0050  1.7927 -0.6209
  848MOL0     H11878   0.288   0.840   0.850  0.8197 -0.3504 -0.2353
  848MOL0     H11879   0.175   1.104   0.769 -0.5836 -0.3079 -1.5887
  848MOL0     H11880   0.174   0.948   0.688 -0.8388  0.5287 -0.3836
  848MOL0     H11881   0.036   1.005   0.964 -3.5345 -1.0541  1.1214
  848MOL0     H11882   0.018   0.867   0.863 -0.1081  0.3804  0.2597
  848MOL0     H11883  -0.088   1.020   0.685 -0.2481  0.2534  0.0746
  848MOL0     H11884  -0.084   1.150   0.808  2.6837 -0.5018  0.1258
  848MOL0     H11885  -0.202   0.870   0.840  0.2363 -0.0055 -1.4002
  848MOL0     H11886  -0.222   1.003   0.963 -0.9542  1.0537 -0.6163
  848MOL0     H11887  -0.311   1.033   0.676 -0.5266  0.8222  0.8015
  848MOL0     H11888  -0.347   1.134   0.823 -0.1762  0.0694  1.5190
  848MOL0     H11889  -0.539   1.052   0.985  1.6721  1.0624 -1.8308
  848MOL0     H11890  -0.729   0.835   1.100 -0.6050 -0.2567 -0.0904
  848MOL0     H11891  -0.798   0.762   0.951 -1.1450  1.0800 -1.8969
  848MOL0     H11892  -0.930   0.937   1.036  0.0699 -1.4243 -0.9593
  848MOL0     H11893  -0.882   0.966   0.869 -0.9627 -0.7478 -0.3514
  848MOL0     H11894  -0.748   1.116   1.100 -0.9506  1.1981 -0.8293
  848MOL0     H11895  -0.739   1.157   0.926 -0.3319 -0.5265 -1.6540
  848MOL0     H11896  -0.890   1.297   1.037 -0.3798  0.0980 -0.7859
  848MOL0     H11897  -0.985   1.167   1.103  2.6170  0.1884  1.3823
  848MOL0     H11898  -1.072   1.191   0.656 -0.9420 -0.2810 -1.2030
  848MOL0     H11899  -1.251   1.348   0.572  2.8067  0.4181 -1.5403
  848MOL0     H11900  -1.613   1.700   0.617 -1.7862  0.3760  1.7152
  848MOL0     H11901  -1.712   1.925   0.532 -0.2714  0.9471  0.3648
  848MOL0     H11902  -1.467   2.281   0.608 -0.3750 -1.1553  4.0682
  848MOL0     H11903  -1.605   2.335   0.697  1.3237  0.8093  1.3614
  848MOL0     H11904  -1.606   2.286   0.394  0.5370  1.7052 -2.1806
  848MOL0     H11905  -1.570   2.445   0.459  1.7591  1.0234  4.7300
  848MOL0     H11906  -1.804   2.453   0.563 -0.8593  1.6324 -1.7414
  848MOL0     H11907  -1.833   2.286   0.492  0.1926 -0.9047 -0.8636
  848MOL0     H11908  -1.762   2.511   0.296  2.2572 -0.9703  0.6516
  848MOL0     H11909  -1.861   2.364   0.290  0.7239 -2.0547  2.8164
  848MOL0     H11910  -1.976   2.581   0.279 -0.7466  0.4264 -0.7339
  848MOL0     H11911  -1.922   2.625   0.437  3.4707 -1.6599  0.7525
  848MOL0     H11912  -2.027   2.376   0.485  3.2042  1.6498 -0.7815
  848MOL0     H11913  -2.118   2.438   0.346  1.1242 -1.4627 -0.6269
  848MOL0     H11914  -2.087   2.632   0.585  0.0407  0.2381 -1.2859
  848MOL0     H11915  -2.197   2.642   0.456  2.1888  2.1931  1.2416
  848MOL0     H11916  -2.208   2.411   0.648 -0.3695 -1.6678 -2.0026
  848MOL0     H11917  -2.335   2.472   0.533 -2.3884  0.2769  2.3857
  848MOL0     H11918  -1.385   2.126   0.718  1.9668 -1.5496 -1.7364
  848MOL0     H11919  -1.274   1.910   0.774 -0.4842 -0.0549  0.5099
  848MOL0     H11920  -1.218   1.573   0.940 -1.0128  1.2610 -3.5534
  848MOL0     H11921  -1.090   1.385   1.032  1.2576 -1.8943 -0.1583
  848MOL0     H11922   0.879   1.175   0.863  1.3355  0.2209 -0.4979
  848MOL0     H11923   1.086   1.150   0.980 -1.1370  1.8413  0.6013
  848MOL0     H11924   1.509   1.127   1.203 -1.0409  0.3892  1.5953
  848MOL0     H11925   1.696   1.037   1.328 -1.1196  1.3922  0.6160
  848MOL0     H11926   1.895   0.785   1.545  4.3151  1.4787 -1.4689
  848MOL0     H11927   1.826   0.939   1.512 -1.5600 -0.6992 -0.6181
  848MOL0     H11928   1.890   0.720   1.307 -2.8697  0.5068 -1.6273
  848MOL0     H11929   1.873   0.899   1.265  3.0419  0.9517 -0.4074
  848MOL0     H11930   2.088   0.814   1.464  0.0121 -1.5931 -0.6997
  848MOL0     H11931   2.065   0.963   1.370 -0.0083  0.3137  0.2264
  848MOL0     H11932   2.258   0.810   1.313 -0.4661 -0.0776  1.1796
  848MOL0     H11933   2.164   0.684   1.265  1.6680  0.0940 -0.1320
  848MOL0     H11934   2.133   0.915   0.922  1.4135 -3.6979 -1.5355
  848MOL0     H11935   1.466   0.664   1.394 -5.9629 -0.1799  0.7350
  848MOL0     H11936   1.286   0.767   1.286  1.5836 -0.8365 -0.6933
  849MOL0     O11937   4.279  10.808   4.261 -0.4605  0.0922 -0.2215
  849MOL0     C11938   4.230  10.730   4.339 -0.0620  0.4795  0.0012
  849MOL0     O11939   4.294  10.667   4.436  0.3785 -0.4165  0.1332
  849MOL0     C11940   4.431  10.658   4.428 -0.5232 -0.1686 -0.3945
  849MOL0     C11941   4.521  10.765   4.407 -0.1960 -0.1656 -0.7510
  849MOL0     C11942   4.662  10.738   4.404  0.3336  0.7089  0.9015
  849MOL0     C11943   4.711  10.609   4.424  0.3367  0.1145  0.5309
  849MOL0     O11944   4.838  10.578   4.402 -0.2647  0.1279  0.3679
  849MOL0     C11945   4.917  10.635   4.509 -0.4466  0.9500 -0.2391
  849MOL0     C11946   5.048  10.555   4.517  0.4963  0.3374  0.3413
  849MOL0     C11947   5.165  10.630   4.588 -0.2753 -0.4346  0.4460
  849MOL0     C11948   5.118  10.682   4.725 -0.6095 -0.2922  1.1055
  849MOL0     C11949   5.229  10.702   4.836  0.8410  0.7630  0.2494
  849MOL0     C11950   5.189  10.739   4.981  0.0880 -0.6523  0.0977
  849MOL0     C11951   5.155  10.618   5.066 -0.0545 -0.6539  0.2379
  849MOL0     C11952   5.103  10.668   5.204  0.2365  0.0112 -0.3077
  849MOL0     N11953   4.960  10.706   5.194  0.5818  0.4920  0.0013
  849MOL0     C11954   4.854  10.620   5.218  0.3435 -0.1539 -0.4977
  849MOL0     C11955   4.743  10.705   5.214 -0.1889 -0.3425 -0.0206
  849MOL0     C11956   4.597  10.665   5.221  0.1789  0.3635 -1.2595
  849MOL0     C11957   4.495  10.776   5.177  0.2069  0.2104  0.3866
  849MOL0     C11958   4.356  10.752   5.205  0.5461 -0.0169 -0.3017
  849MOL0     C11959   4.261  10.871   5.175 -0.4696 -0.9032 -0.1902
  849MOL0     O11960   4.169  10.832   5.076 -0.1920 -0.2870 -0.8733
  849MOL0     C11961   4.044  10.897   5.068 -0.5735 -0.5507 -0.5705
  849MOL0     C11962   3.985  10.972   5.166 -0.6519  0.5087  0.7554
  849MOL0     C11963   3.851  11.016   5.148  0.8383  0.1545  0.4886
  849MOL0     C11964   3.782  10.980   5.031 -0.3850  0.4574  0.5471
  849MOL0     C11965   3.648  11.022   5.006  0.9641 -0.6692  0.1078
  849MOL0     O11966   3.566  11.042   5.114 -0.2784  0.0103 -0.2246
  849MOL0     C11967   3.449  11.106   5.100 -0.3311 -0.1267 -0.2975
  849MOL0     C11968   3.358  11.097   4.994  1.2045  0.1489  0.7969
  849MOL0     C11969   3.249  11.186   4.979  1.1570  0.8716 -1.2587
  849MOL0     C11970   3.229  11.287   5.076 -0.1074  0.1380  0.2279
  849MOL0     O11971   3.136  11.383   5.065  0.6034 -1.0619 -0.3768
  849MOL0     C11972   3.098  11.423   4.931  0.3137 -0.4710 -0.7601
  849MOL0     C11973   2.970  11.369   4.875  0.3045 -0.4926  0.8232
  849MOL0     C11974   2.843  11.399   4.968  0.4290 -0.4468 -0.4220
  849MOL0     C11975   2.795  11.542   4.964 -0.1378  0.5817  0.5141
  849MOL0     C11976   2.704  11.580   4.854 -0.5942 -0.3287 -0.1401
  849MOL0     C11977   2.574  11.499   4.847 -0.3624  0.0643  1.1823
  849MOL0     C11978   2.488  11.542   4.730 -0.6352 -0.4498 -0.1089
  849MOL0     C11979   2.381  11.450   4.683  0.7939  0.1360  0.0364
  849MOL0    Cl11980   2.269  11.400   4.813  0.0819 -0.1387 -0.2680
  849MOL0     C11981   3.316  11.287   5.189  0.5680 -0.3436 -1.1390
  849MOL0     C11982   3.420  11.198   5.202 -0.5238 -0.1247  0.1671
  849MOL0     O11983   3.622  11.051   4.889  0.1028 -0.2376  0.5283
  849MOL0     C11984   3.843  10.911   4.924 -0.5011 -0.0211  0.1023
  849MOL0     C11985   3.974  10.867   4.949 -0.1018 -0.7555 -0.0482
  849MOL0     N11986   4.789  10.830   5.179 -0.2655 -0.5139  0.0436
  849MOL0     N11987   4.919  10.831   5.171 -0.1490  0.0674  0.3314
  849MOL0     C11988   4.621  10.501   4.444  0.7270 -0.4173 -0.5741
  849MOL0     C11989   4.482  10.527   4.455  0.0072 -0.3951  0.1783
  849MOL0     C11990   4.087  10.707   4.326 -0.6608  0.1327  0.7185
  849MOL0     C11991   4.014  10.621   4.416  0.0794 -0.5627 -0.9096
  849MOL0     C11992   3.881  10.594   4.393  0.1468 -0.5279  0.1721
  849MOL0     C11993   3.813  10.649   4.288  0.8238 -0.7590  0.1941
  849MOL0     O11994   3.676  10.638   4.284  0.1748 -0.3981 -0.4639
  849MOL0     C11995   3.584  10.707   4.184  0.0863  0.2711 -0.4071
  849MOL0     C11996   3.448  10.646   4.198 -0.4250  0.1822  1.2314
  849MOL0     C11997   3.335  10.721   4.130 -0.1154  0.8673  0.0746
  849MOL0     C11998   3.328  10.873   4.186  0.3608  0.0412  0.9123
  849MOL0     C11999   3.210  10.943   4.123 -0.0450  0.2547  1.0231
  849MOL0     C12000   3.117  11.014   4.079 -0.1813  0.4668  0.4327
  849MOL0     C12001   3.882  10.733   4.201 -0.7631 -0.3314 -0.0896
  849MOL0     C12002   4.018  10.767   4.219 -0.0050  0.4835  0.2197
  849MOL0     H12003   4.486  10.868   4.404  1.2361  0.5692  2.5681
  849MOL0     H12004   4.740  10.808   4.374  1.0266 -1.0651 -1.7443
  849MOL0     H12005   4.875  10.626   4.609 -1.8594 -1.7549 -0.9768
  849MOL0     H12006   4.940  10.741   4.496 -0.2942  0.9589  0.0859
  849MOL0     H12007   5.082  10.531   4.416  2.2049  0.1048  0.9312
  849MOL0     H12008   5.039  10.455   4.558  0.6675 -0.1479 -0.7770
  849MOL0     H12009   5.206  10.714   4.532 -3.1197  1.9533  1.7114
  849MOL0     H12010   5.251  10.564   4.604  0.1412 -0.3948 -1.4582
  849MOL0     H12011   5.049  10.765   4.709 -1.6491 -0.9904  1.8046
  849MOL0     H12012   5.055  10.604   4.770  0.3015 -0.5081  2.0302
  849MOL0     H12013   5.295  10.778   4.792 -1.6912  2.1314 -1.4766
  849MOL0     H12014   5.294  10.614   4.841  1.3074  0.8565 -2.5763
  849MOL0     H12015   5.104  10.808   4.972  0.5908 -0.0063  0.1872
  849MOL0     H12016   5.256  10.804   5.038 -1.5094 -1.0071  2.5577
  849MOL0     H12017   5.066  10.571   5.023 -0.4358  0.7945 -0.6051
  849MOL0     H12018   5.233  10.541   5.067 -0.5423 -1.1876  1.9555
  849MOL0     H12019   5.161  10.753   5.239  2.2843 -0.6951 -1.7080
  849MOL0     H12020   5.113  10.595   5.285 -0.1291 -3.5995 -3.2125
  849MOL0     H12021   4.862  10.513   5.231  1.7432  0.0911  1.0022
  849MOL0     H12022   4.583  10.625   5.322 -1.6886  2.1272 -0.7564
  849MOL0     H12023   4.577  10.578   5.158 -2.3017  0.7807 -1.1365
  849MOL0     H12024   4.502  10.805   5.071  1.6586  1.4646  0.7984
  849MOL0     H12025   4.522  10.871   5.225 -2.8310  2.4934 -1.9421
  849MOL0     H12026   4.323  10.660   5.156  1.8534 -1.1918  0.9265
  849MOL0     H12027   4.349  10.732   5.313 -0.0019  2.0782  0.1027
  849MOL0     H12028   4.311  10.959   5.133 -0.7549 -1.0678 -0.9021
  849MOL0     H12029   4.203  10.900   5.263  0.7558 -0.4448  0.4878
  849MOL0     H12030   4.029  10.982   5.265 -1.6286  1.2191  1.1308
  849MOL0     H12031   3.795  11.067   5.225  1.4482  2.9037 -0.7774
  849MOL0     H12032   3.373  11.014   4.926  1.9514 -0.7981  2.0585
  849MOL0     H12033   3.189  11.172   4.889 -0.6213  0.0226  0.0165
  849MOL0     H12034   3.176  11.402   4.857 -3.1717 -3.0897 -4.0363
  849MOL0     H12035   3.092  11.532   4.942  0.7319 -0.3854 -1.3391
  849MOL0     H12036   2.977  11.262   4.857 -1.5842 -0.6474  0.8174
  849MOL0     H12037   2.949  11.422   4.781 -1.8767 -0.2425  1.3836
  849MOL0     H12038   2.875  11.377   5.070 -0.7455 -0.4899 -0.0483
  849MOL0     H12039   2.765  11.324   4.948  2.7193 -2.5886 -1.9687
  849MOL0     H12040   2.750  11.564   5.062  1.8047  0.6429  1.4443
  849MOL0     H12041   2.878  11.613   4.955 -1.1360  1.5977 -0.9267
  849MOL0     H12042   2.763  11.583   4.762  2.8077 -0.1426  1.8877
  849MOL0     H12043   2.685  11.687   4.866  5.1230  0.7842  1.8984
  849MOL0     H12044   2.506  11.514   4.932 -1.8343  3.7448 -0.4487
  849MOL0     H12045   2.599  11.392   4.841 -1.9930 -0.2616 -1.2885
  849MOL0     H12046   2.455  11.641   4.762  0.8103  0.1322 -0.3234
  849MOL0     H12047   2.542  11.563   4.637 -0.7385 -0.1425 -0.0996
  849MOL0     H12048   2.417  11.357   4.638  1.9137  0.9886 -0.8840
  849MOL0     H12049   2.324  11.492   4.600 -1.9255 -1.2940  1.0548
  849MOL0     H12050   3.288  11.364   5.261  1.4964 -1.8605  0.9318
  849MOL0     H12051   3.493  11.205   5.281 -1.2365  1.3679  0.7142
  849MOL0     H12052   3.802  10.882   4.828  1.5246 -1.4791 -0.4063
  849MOL0     H12053   4.031  10.810   4.877  0.9208 -1.5943  1.3838
  849MOL0     H12054   4.661  10.401   4.444  0.6521 -0.5449 -3.7405
  849MOL0     H12055   4.420  10.438   4.462 -1.2300  0.4427  0.0765
  849MOL0     H12056   4.061  10.574   4.502  2.5538  4.5064  0.9585
  849MOL0     H12057   3.825  10.530   4.461  1.0358 -1.9406 -0.3777
  849MOL0     H12058   3.616  10.709   4.080 -1.3163  0.7652 -0.8398
  849MOL0     H12059   3.572  10.813   4.208  0.1023  0.2291 -0.2042
  849MOL0     H12060   3.455  10.547   4.152 -1.5370  0.6670 -0.0324
  849MOL0     H12061   3.432  10.624   4.304 -1.9694 -0.1652  0.9552
  849MOL0     H12062   3.243  10.665   4.148  2.1993 -4.4079 -2.1853
  849MOL0     H12063   3.349  10.722   4.022  3.0657 -0.7037  0.3448
  849MOL0     H12064   3.313  10.875   4.294  0.4830 -2.3415  1.0341
  849MOL0     H12065   3.417  10.933   4.164  0.2713  1.1731  3.2619
  849MOL0     H12066   3.034  11.071   4.044  2.5687  3.4771 -1.7822
  849MOL0     H12067   3.835  10.775   4.112 -0.9903 -3.9137 -1.8642
  849MOL0     H12068   4.062  10.838   4.150 -1.7033  1.0395 -0.3444
  850MOL0     O12069   4.190   9.862   7.731  0.0267  0.0085  0.1870
  850MOL0     C12070   4.232   9.762   7.798  0.3601 -0.8181 -0.2813
  850MOL0     O12071   4.178   9.637   7.798 -0.1886  0.0475 -0.1145
  850MOL0     C12072   4.060   9.608   7.734 -0.3993 -0.4938  0.0113
  850MOL0     C12073   4.060   9.513   7.629 -0.3874 -0.7377  0.2697
  850MOL0     C12074   3.940   9.491   7.563  0.4614 -0.4186  0.2202
  850MOL0     C12075   3.818   9.548   7.602  0.5317  0.6366 -0.1883
  850MOL0     O12076   3.702   9.519   7.541 -0.3123  0.5556 -0.2596
  850MOL0     C12077   3.585   9.511   7.620 -0.1415  0.7530 -0.1128
  850MOL0     C12078   3.458   9.529   7.529  0.4319  0.6786  0.7690
  850MOL0     C12079   3.329   9.490   7.606 -0.7104 -0.3968 -0.0642
  850MOL0     C12080   3.283   9.601   7.701 -0.3979 -0.7445 -0.5227
  850MOL0     C12081   3.165   9.544   7.785 -0.5317  0.2660 -0.1681
  850MOL0     C12082   3.033   9.550   7.702 -0.5971  0.4245 -0.8394
  850MOL0     C12083   2.911   9.491   7.765 -0.4467 -0.6345 -0.4231
  850MOL0     C12084   2.901   9.336   7.772 -0.3174  0.9371  0.3146
  850MOL0     N12085   2.790   9.291   7.860 -0.1278 -0.2455 -0.3647
  850MOL0     C12086   2.779   9.177   7.929  0.2424 -0.6123 -0.1772
  850MOL0     C12087   2.650   9.173   7.966 -0.3752  0.5358 -0.2537
  850MOL0     C12088   2.599   9.067   8.059  0.0548 -0.0295 -0.5402
  850MOL0     C12089   2.456   9.083   8.109 -0.1598  0.6250 -0.0309
  850MOL0     C12090   2.413   8.943   8.145 -0.5092 -0.4387 -0.4040
  850MOL0     C12091   2.289   8.937   8.236  0.1537  0.1615 -1.0900
  850MOL0     O12092   2.185   9.027   8.183 -0.1657 -0.4440 -0.1281
  850MOL0     C12093   2.051   9.011   8.219  0.1543 -0.9999  0.2493
  850MOL0     C12094   1.967   9.024   8.108 -0.4932  0.3190 -0.3520
  850MOL0     C12095   1.828   9.002   8.113  0.3420  0.5328  0.3266
  850MOL0     C12096   1.781   8.964   8.244  0.1468  0.2206  0.1474
  850MOL0     C12097   1.636   8.952   8.257  0.0312 -0.1576 -0.4309
  850MOL0     O12098   1.555   9.033   8.169 -0.9437  0.8543  0.0451
  850MOL0     C12099   1.418   9.034   8.164  0.3462  0.2271 -0.0991
  850MOL0     C12100   1.345   8.915   8.187  0.7040 -0.1365 -0.6315
  850MOL0     C12101   1.206   8.912   8.178  0.2565 -0.2598  0.4060
  850MOL0     C12102   1.140   9.027   8.145  0.3662 -0.6076 -0.2192
  850MOL0     O12103   1.009   9.002   8.133  0.1765 -0.2279  0.0108
  850MOL0     C12104   0.930   9.086   8.043 -0.2670 -0.2093 -0.4898
  850MOL0     C12105   0.787   9.046   8.055 -0.3405  0.1025  0.3375
  850MOL0     C12106   0.763   8.914   7.991  0.1465  0.1829  1.1360
  850MOL0     C12107   0.613   8.884   8.003  0.6530 -1.0479 -0.3849
  850MOL0     C12108   0.587   8.733   7.974 -0.4442  0.6622 -0.6865
  850MOL0     C12109   0.434   8.711   7.949  0.7678  0.1566  0.8167
  850MOL0     C12110   0.392   8.570   7.901  0.4506  0.6232  0.1743
  850MOL0     C12111   0.237   8.554   7.905 -0.7187 -0.2437 -0.7078
  850MOL0    Cl12112   0.186   8.388   7.868  0.2575 -0.1825 -0.3035
  850MOL0     C12113   1.205   9.149   8.130 -0.2450 -0.9007 -0.1468
  850MOL0     C12114   1.343   9.157   8.138 -0.0504  0.2594  0.6557
  850MOL0     O12115   1.597   8.876   8.343 -0.5865 -0.3103 -0.1980
  850MOL0     C12116   1.868   8.948   8.356  0.4402  0.7045  0.6870
  850MOL0     C12117   2.003   8.972   8.346 -0.0626 -0.0680  0.7546
  850MOL0     N12118   2.582   9.276   7.908  0.6464  0.3781 -0.4746
  850MOL0     N12119   2.666   9.352   7.849  0.3564 -0.1101  0.2265
  850MOL0     C12120   3.822   9.649   7.691  0.6129 -0.0068  0.6105
  850MOL0     C12121   3.943   9.677   7.759  0.3106  0.6035 -0.3430
  850MOL0     C12122   4.371   9.781   7.856  0.0744 -0.5040 -0.4079
  850MOL0     C12123   4.421   9.916   7.863  0.1205 -0.3071  0.0204
  850MOL0     C12124   4.552   9.936   7.904 -1.4173  0.9718 -0.3281
  850MOL0     C12125   4.634   9.839   7.958  0.9953  0.5677  0.2436
  850MOL0     O12126   4.750   9.871   8.025 -0.4869  0.2044  0.4686
  850MOL0     C12127   4.857   9.775   8.005 -0.0926  0.8599  0.0633
  850MOL0     C12128   4.973   9.804   8.094  0.5109 -0.2350 -0.2057
  850MOL0     C12129   5.038   9.923   8.021 -0.1228 -0.3771 -0.1177
  850MOL0     C12130   5.173   9.951   8.096  0.1734  0.2762  0.6269
  850MOL0     C12131   5.169   9.969   8.239 -1.2409 -0.2268 -0.4410
  850MOL0     C12132   5.165   9.999   8.359 -1.3474 -0.0173  0.9399
  850MOL0     C12133   4.576   9.703   7.951  0.4726 -1.2235 -0.0385
  850MOL0     C12134   4.448   9.678   7.897 -0.7231  0.0990  0.3254
  850MOL0     H12135   4.148   9.453   7.607 -0.0739  0.0747 -0.7525
  850MOL0     H12136   3.939   9.429   7.473  1.3876 -0.3807  0.1715
  850MOL0     H12137   3.579   9.586   7.699  0.3288  0.7549 -0.0776
  850MOL0     H12138   3.589   9.415   7.673 -1.0882  2.4548  3.3642
  850MOL0     H12139   3.460   9.458   7.446  1.9302  1.2590  0.2665
  850MOL0     H12140   3.454   9.631   7.489  2.9327 -0.6145 -3.5161
  850MOL0     H12141   3.351   9.394   7.654 -0.1049 -0.6500 -0.8305
  850MOL0     H12142   3.249   9.481   7.532  1.0422  2.5082 -2.5585
  850MOL0     H12143   3.373   9.630   7.756 -2.0897 -0.0971  2.1180
  850MOL0     H12144   3.252   9.690   7.646  1.0631  0.5259  0.6004
  850MOL0     H12145   3.157   9.599   7.879 -1.5808 -1.8557  1.0455
  850MOL0     H12146   3.191   9.442   7.814 -0.4761  0.3012 -0.0918
  850MOL0     H12147   3.050   9.506   7.603  0.8460 -0.3499 -0.2860
  850MOL0     H12148   3.018   9.656   7.683  1.3756  0.4103 -2.9067
  850MOL0     H12149   2.891   9.542   7.860 -2.3212  1.0805 -1.6648
  850MOL0     H12150   2.821   9.517   7.710  0.1772 -1.5941 -1.9774
  850MOL0     H12151   2.993   9.293   7.812 -0.8772 -0.0920  0.5205
  850MOL0     H12152   2.885   9.300   7.670 -1.3821 -0.6018  0.9853
  850MOL0     H12153   2.863   9.118   7.964  1.1079  0.5787 -0.1902
  850MOL0     H12154   2.669   9.048   8.141  0.4653  1.7047 -0.4534
  850MOL0     H12155   2.611   8.975   8.001  0.9960 -1.7713  2.1824
  850MOL0     H12156   2.398   9.133   8.031  0.4796 -1.5892 -2.0455
  850MOL0     H12157   2.452   9.141   8.202 -1.6427 -0.6273  0.7364
  850MOL0     H12158   2.378   8.898   8.052  0.6194  0.0681 -1.0931
  850MOL0     H12159   2.503   8.891   8.179  1.9034  3.7767  0.2934
  850MOL0     H12160   2.318   8.971   8.335 -2.7692 -0.4310  0.0691
  850MOL0     H12161   2.267   8.829   8.234  5.1081 -1.1192 -1.1586
  850MOL0     H12162   2.015   9.050   8.015 -0.7346  1.6096 -0.1352
  850MOL0     H12163   1.767   9.013   8.024  2.1431 -0.9465 -1.1624
  850MOL0     H12164   1.397   8.823   8.212  0.8136  0.3296  0.9466
  850MOL0     H12165   1.150   8.826   8.215 -0.0368 -1.1137 -1.9056
  850MOL0     H12166   0.970   9.084   7.942  0.5985 -2.1469 -0.1485
  850MOL0     H12167   0.930   9.191   8.074  0.6038  0.0839 -1.4440
  850MOL0     H12168   0.730   9.123   8.002 -2.2997 -1.1686  0.5321
  850MOL0     H12169   0.746   9.041   8.157 -0.2268 -1.1429  0.3378
  850MOL0     H12170   0.806   8.830   8.045 -0.3033 -1.1023 -0.4524
  850MOL0     H12171   0.802   8.912   7.889  1.0604  0.1504  1.4832
  850MOL0     H12172   0.575   8.908   8.103  0.0645  2.9473 -1.3739
  850MOL0     H12173   0.555   8.938   7.928  0.0431  0.0050  0.8059
  850MOL0     H12174   0.625   8.676   8.060 -0.7903  0.8674 -0.3912
  850MOL0     H12175   0.635   8.708   7.879 -1.8279  2.9039 -2.0576
  850MOL0     H12176   0.411   8.777   7.865  0.7087  0.2231  0.8835
  850MOL0     H12177   0.365   8.750   8.025 -0.3549  0.0728 -0.1294
  850MOL0     H12178   0.435   8.550   7.802 -3.0220 -1.0779 -1.1356
  850MOL0     H12179   0.442   8.504   7.973  3.0840  0.3101 -1.7736
  850MOL0     H12180   0.201   8.621   7.826 -3.0726  1.5241  1.7015
  850MOL0     H12181   0.198   8.581   8.003 -3.2262 -2.9545 -0.8107
  850MOL0     H12182   1.144   9.237   8.115  1.1911  0.6679  2.4694
  850MOL0     H12183   1.400   9.244   8.106  1.1032 -0.4521  0.7510
  850MOL0     H12184   1.814   8.923   8.447 -2.5094  2.8159 -0.3217
  850MOL0     H12185   2.067   8.954   8.432  0.8016 -3.7280 -0.4377
  850MOL0     H12186   3.737   9.712   7.716  0.0654 -0.4923  0.0237
  850MOL0     H12187   3.945   9.766   7.822  0.2555  0.9858 -0.8731
  850MOL0     H12188   4.367  10.005   7.831 -2.2728 -0.1955  3.6904
  850MOL0     H12189   4.571  10.040   7.929 -3.9078  1.2414  0.7469
  850MOL0     H12190   4.869   9.767   7.897 -3.2263 -2.9402 -0.2174
  850MOL0     H12191   4.821   9.676   8.033  0.3888 -0.1615 -2.6046
  850MOL0     H12192   4.938   9.830   8.194  1.5563 -0.5393  0.2580
  850MOL0     H12193   5.033   9.712   8.096  1.5660  0.4514  0.3404
  850MOL0     H12194   4.983  10.017   8.015  2.1257  0.8962 -2.6107
  850MOL0     H12195   5.064   9.904   7.917  1.0800 -0.2560  0.1467
  850MOL0     H12196   5.239   9.868   8.070  1.6678  1.6627 -0.2006
  850MOL0     H12197   5.212  10.038   8.043 -3.3088 -0.6943 -4.2319
  850MOL0     H12198   5.180  10.035   8.458 -0.8259  1.0191  0.5010
  850MOL0     H12199   4.630   9.620   7.996  2.1993  1.1335  2.6122
  850MOL0     H12200   4.413   9.575   7.897  2.1215 -0.9761 -1.5856
  851MOL0     O12201   0.346   2.268   3.296 -0.0943 -1.0612 -0.4368
  851MOL0     C12202   0.371   2.172   3.231  0.4635  0.4472 -0.3005
  851MOL0     O12203   0.283   2.076   3.203 -0.2424 -0.6178  0.8894
  851MOL0     C12204   0.147   2.082   3.213 -0.3812 -0.1923 -0.0143
  851MOL0     C12205   0.071   2.187   3.265 -0.2685 -0.5195  0.4984
  851MOL0     C12206  -0.067   2.190   3.260 -0.4619 -0.1919  0.2495
  851MOL0     C12207  -0.139   2.090   3.208 -0.8991  0.2404  0.0202
  851MOL0     O12208  -0.275   2.080   3.197 -0.4018 -0.0046  0.2509
  851MOL0     C12209  -0.362   2.160   3.280 -0.0505 -0.0741  0.7048
  851MOL0     C12210  -0.502   2.142   3.218 -0.3474 -0.2476 -0.0475
  851MOL0     C12211  -0.599   2.233   3.283  0.4759  0.1935  0.2708
  851MOL0     C12212  -0.744   2.174   3.253  0.1978 -0.0899  0.0256
  851MOL0     C12213  -0.851   2.265   3.313 -0.4125  0.5069  0.5184
  851MOL0     C12214  -0.877   2.405   3.242  0.3392 -0.3940 -0.7524
  851MOL0     C12215  -1.005   2.456   3.310 -0.3467  0.5828 -0.1567
  851MOL0     C12216  -1.041   2.595   3.279 -0.0087  0.0180  0.3318
  851MOL0     N12217  -1.169   2.625   3.350 -0.3509 -0.0707 -0.4490
  851MOL0     C12218  -1.297   2.626   3.306 -0.2424 -0.6275  0.8088
  851MOL0     C12219  -1.369   2.695   3.398  0.1043 -0.0726 -0.4780
  851MOL0     C12220  -1.517   2.712   3.381 -0.3029  0.6923 -0.2262
  851MOL0     C12221  -1.597   2.709   3.516  0.1500 -0.3546  0.2652
  851MOL0     C12222  -1.742   2.753   3.473  0.3670  0.0462 -0.1565
  851MOL0     C12223  -1.833   2.747   3.593 -0.0488 -0.4033 -0.5006
  851MOL0     O12224  -1.807   2.878   3.660  0.1926 -0.0495  0.2512
  851MOL0     C12225  -1.922   2.931   3.719 -0.5472  0.1672  1.2446
  851MOL0     C12226  -2.002   3.026   3.654  0.1699  0.8196 -0.5950
  851MOL0     C12227  -2.115   3.079   3.717 -0.2526 -0.0619  0.1228
  851MOL0     C12228  -2.147   3.042   3.848 -0.2715  0.4183  0.0409
  851MOL0     C12229  -2.252   3.114   3.912 -0.0321  0.2863  0.0863
  851MOL0     O12230  -2.344   3.177   3.839 -0.2781 -0.1384 -0.3678
  851MOL0     C12231  -2.443   3.252   3.890  0.7315 -0.9035  0.8855
  851MOL0     C12232  -2.527   3.228   3.999 -0.1768  0.5696 -0.1327
  851MOL0     C12233  -2.630   3.315   4.041 -0.3246 -0.7064  0.4828
  851MOL0     C12234  -2.661   3.434   3.967  0.5765  0.2150 -1.0692
  851MOL0     O12235  -2.759   3.533   3.991 -0.5075  0.7546  0.2994
  851MOL0     C12236  -2.847   3.504   4.100  0.1951  0.0133  0.8491
  851MOL0     C12237  -2.982   3.453   4.053 -0.2421  0.2193  0.3177
  851MOL0     C12238  -3.084   3.473   4.169  1.1183 -0.6505  0.6875
  851MOL0     C12239  -3.225   3.425   4.119  0.2573 -0.0402 -0.5343
  851MOL0     C12240  -3.331   3.402   4.231 -0.0791  0.6288  0.0928
  851MOL0     C12241  -3.465   3.395   4.163  0.3312 -0.1029 -0.0349
  851MOL0     C12242  -3.577   3.374   4.261 -0.3472 -0.0515  0.1026
  851MOL0     C12243  -3.707   3.457   4.221  0.1342 -0.1057 -0.0895
  851MOL0    Cl12244  -3.853   3.416   4.328 -0.0243 -0.1191  0.0042
  851MOL0     C12245  -2.569   3.469   3.867 -0.2646  0.5912  0.2413
  851MOL0     C12246  -2.473   3.372   3.824  0.5933 -0.2550 -0.4414
  851MOL0     O12247  -2.269   3.079   4.035  0.3310  0.1036 -0.4194
  851MOL0     C12248  -2.071   2.944   3.915 -0.6285  0.0233  0.7357
  851MOL0     C12249  -1.952   2.897   3.852  0.3180  0.8494  0.9575
  851MOL0     N12250  -1.286   2.732   3.502 -0.6919  0.6706 -0.2433
  851MOL0     N12251  -1.172   2.686   3.474 -0.1360  0.9928 -0.5292
  851MOL0     C12252  -0.073   1.982   3.148 -0.6199  0.1852 -0.3219
  851MOL0     C12253   0.073   1.980   3.151  0.5081 -0.5082 -0.2117
  851MOL0     C12254   0.502   2.139   3.187  0.1896 -0.0469 -0.0589
  851MOL0     C12255   0.522   2.048   3.077  0.9788 -0.3381  0.5887
  851MOL0     C12256   0.649   2.015   3.041  0.0361 -0.4081  0.1654
  851MOL0     C12257   0.761   2.071   3.106 -1.0525 -1.3042 -0.4573
  851MOL0     O12258   0.886   2.040   3.049  0.3427 -0.4377 -0.0645
  851MOL0     C12259   0.975   2.157   3.046 -0.2707  0.1832 -0.0974
  851MOL0     C12260   1.091   2.154   3.143 -0.2279  0.3455 -0.3939
  851MOL0     C12261   1.173   2.027   3.152 -0.2271 -1.0067 -0.2375
  851MOL0     C12262   1.271   2.020   3.036  0.7329  0.2225  1.2373
  851MOL0     C12263   1.375   2.117   3.056  0.0130  0.0223 -0.7137
  851MOL0     C12264   1.457   2.206   3.064 -0.4999  0.4995  0.0120
  851MOL0     C12265   0.740   2.168   3.211  0.2708  0.0619  0.0219
  851MOL0     C12266   0.610   2.196   3.250  0.1143  0.0407  0.5563
  851MOL0     H12267   0.117   2.264   3.326  1.4561 -1.9278  1.0835
  851MOL0     H12268  -0.120   2.280   3.292 -0.7748 -0.2521 -0.0836
  851MOL0     H12269  -0.336   2.266   3.282 -1.0705  0.2325 -0.5167
  851MOL0     H12270  -0.372   2.125   3.383 -0.1016 -2.1399  0.0556
  851MOL0     H12271  -0.533   2.037   3.226  0.9568 -0.6078  0.5180
  851MOL0     H12272  -0.492   2.163   3.111 -1.3477 -0.2869 -0.1591
  851MOL0     H12273  -0.599   2.336   3.246  0.0619 -0.2741 -1.0781
  851MOL0     H12274  -0.589   2.239   3.392  0.3088 -0.9611  0.3664
  851MOL0     H12275  -0.775   2.165   3.148 -2.4136  1.8181  0.5364
  851MOL0     H12276  -0.750   2.072   3.292  1.5045  0.7279  2.5673
  851MOL0     H12277  -0.816   2.288   3.414 -0.8080  1.1990  0.4994
  851MOL0     H12278  -0.949   2.216   3.316  0.0294 -0.5161 -0.6269
  851MOL0     H12279  -0.902   2.392   3.136 -0.9269  0.6989 -0.6193
  851MOL0     H12280  -0.790   2.471   3.247 -0.1496  0.3082 -1.2770
  851MOL0     H12281  -1.083   2.392   3.268 -1.0016 -0.3032  2.2137
  851MOL0     H12282  -1.001   2.442   3.419  1.6138 -0.1780 -0.2782
  851MOL0     H12283  -1.060   2.618   3.174  1.1906  0.8434  0.2752
  851MOL0     H12284  -0.955   2.658   3.305  3.2284 -3.0313 -2.0203
  851MOL0     H12285  -1.329   2.583   3.212  2.1730 -2.1869  0.6110
  851MOL0     H12286  -1.550   2.625   3.323  0.5148  1.2739 -1.6137
  851MOL0     H12287  -1.536   2.794   3.312 -0.9309 -1.4398 -2.7393
  851MOL0     H12288  -1.556   2.775   3.593 -0.1102  0.0010  0.1002
  851MOL0     H12289  -1.599   2.609   3.562 -1.4972  0.3094  1.7286
  851MOL0     H12290  -1.756   2.856   3.439  0.5802 -0.5798 -2.2789
  851MOL0     H12291  -1.783   2.691   3.394  1.4496  3.6692 -3.9075
  851MOL0     H12292  -1.814   2.655   3.649  1.5045 -1.9880 -3.4033
  851MOL0     H12293  -1.939   2.740   3.568 -0.2264 -0.3017  0.1913
  851MOL0     H12294  -1.983   3.059   3.553 -1.5307 -1.2545 -1.6832
  851MOL0     H12295  -2.186   3.139   3.661 -0.9946  0.2361  1.3594
  851MOL0     H12296  -2.510   3.134   4.052  1.8386  1.7497  1.4888
  851MOL0     H12297  -2.689   3.285   4.127 -0.3977  2.9577  1.9064
  851MOL0     H12298  -2.863   3.599   4.153 -0.6467 -0.7828  2.0872
  851MOL0     H12299  -2.800   3.433   4.168  1.2417  1.3189  1.5367
  851MOL0     H12300  -2.974   3.346   4.037 -2.9425 -0.4004  2.3371
  851MOL0     H12301  -3.017   3.505   3.964 -1.9882 -3.2452 -1.2122
  851MOL0     H12302  -3.103   3.575   4.204  1.0387 -0.9865  1.6681
  851MOL0     H12303  -3.053   3.419   4.259  0.4637  0.6051  1.6957
  851MOL0     H12304  -3.270   3.506   4.061  0.7396 -0.0664 -0.9553
  851MOL0     H12305  -3.207   3.340   4.052  0.5255  0.3959 -1.0247
  851MOL0     H12306  -3.319   3.492   4.291  2.4977  1.1912 -1.1184
  851MOL0     H12307  -3.307   3.314   4.292  0.5270  1.0086  0.4153
  851MOL0     H12308  -3.464   3.299   4.110 -2.3965 -0.0114 -0.3848
  851MOL0     H12309  -3.476   3.480   4.096  0.7739 -2.5654 -3.4892
  851MOL0     H12310  -3.607   3.269   4.273  1.5460 -0.7263 -0.7705
  851MOL0     H12311  -3.544   3.412   4.358 -0.8880  0.2558  0.1699
  851MOL0     H12312  -3.722   3.428   4.117 -0.7491 -2.3767  0.6097
  851MOL0     H12313  -3.687   3.564   4.239 -1.6543 -0.0709  2.1578
  851MOL0     H12314  -2.570   3.574   3.841 -1.3767  0.4381 -0.4186
  851MOL0     H12315  -2.407   3.411   3.746  0.6052  0.1461 -0.2330
  851MOL0     H12316  -2.091   2.911   4.017 -2.9093  1.7187  0.9269
  851MOL0     H12317  -1.886   2.821   3.894  0.1726 -0.7982 -1.5329
  851MOL0     H12318  -0.141   1.907   3.111 -1.5346  1.3909 -1.1766
  851MOL0     H12319   0.124   1.899   3.099  1.9396  1.0211 -1.2925
  851MOL0     H12320   0.440   1.999   3.025  0.6017  0.8759  0.0175
  851MOL0     H12321   0.664   1.941   2.963 -0.4944  0.5103 -0.8349
  851MOL0     H12322   0.921   2.251   3.061  0.7938  0.5880  1.3008
  851MOL0     H12323   1.019   2.153   2.946  0.1183  0.3190  0.0694
  851MOL0     H12324   1.148   2.244   3.121 -1.9291  1.8939  1.1927
  851MOL0     H12325   1.059   2.172   3.246  1.7243  2.1793 -0.0461
  851MOL0     H12326   1.105   1.942   3.166  0.1441 -0.9391  2.7213
  851MOL0     H12327   1.236   2.020   3.241 -3.9183  0.2634  2.7535
  851MOL0     H12328   1.311   1.919   3.038  1.3241  0.4392  0.7561
  851MOL0     H12329   1.218   2.039   2.941 -1.2631 -1.0207  2.0369
  851MOL0     H12330   1.521   2.292   3.067 -0.9154  1.1481 -3.9719
  851MOL0     H12331   0.825   2.188   3.276 -0.2761 -0.9807  1.0839
  851MOL0     H12332   0.601   2.271   3.328  1.6762  3.3212 -2.1731
  852MOL0     O12333   9.256   3.532  10.404 -0.1266  0.5919  0.1156
  852MOL0     C12334   9.216   3.644  10.376 -0.1255  0.5623  0.2688
  852MOL0     O12335   9.104   3.707  10.431 -0.1441 -0.2899 -0.5563
  852MOL0     C12336   9.056   3.652  10.541 -0.5702 -0.4309 -0.0172
  852MOL0     C12337   9.129   3.646  10.660  0.0662 -0.3401 -0.1614
  852MOL0     C12338   9.081   3.585  10.776  0.1999  0.1542  0.0133
  852MOL0     C12339   8.946   3.534  10.782  0.0993 -0.6073  0.1825
  852MOL0     O12340   8.890   3.482  10.891  0.1487  0.3938 -0.2302
  852MOL0     C12341   8.909   3.337  10.904 -0.8510  0.3840  0.2829
  852MOL0     C12342   8.798   3.274  10.985  0.4199  0.3028 -0.3728
  852MOL0     C12343   8.775   3.125  10.960 -0.4889 -0.3535  0.1404
  852MOL0     C12344   8.656   3.088  11.043  1.3256 -0.4013 -0.1188
  852MOL0     C12345   8.651   2.934  11.053  0.7333 -0.1829  0.3210
  852MOL0     C12346   8.518   2.899  11.123 -0.2785 -0.0961 -0.3474
  852MOL0     C12347   8.519   2.753  11.186  0.0246 -0.1545  0.3658
  852MOL0     C12348   8.558   2.646  11.078 -0.0506  1.0099 -0.2835
  852MOL0     N12349   8.565   2.516  11.144 -0.2765 -0.5219 -0.2743
  852MOL0     C12350   8.455   2.456  11.198  0.1233 -0.6341 -0.1760
  852MOL0     C12351   8.505   2.347  11.249 -0.2029 -0.4936  0.1550
  852MOL0     C12352   8.420   2.239  11.316  0.1595  1.1459 -1.1821
  852MOL0     C12353   8.467   2.224  11.461 -0.5302 -1.2487  0.1662
  852MOL0     C12354   8.391   2.112  11.532  1.0436 -0.1142 -0.7474
  852MOL0     C12355   8.245   2.135  11.584 -0.5615 -0.3357 -0.2144
  852MOL0     O12356   8.188   2.010  11.622 -0.9195 -0.6270 -0.3880
  852MOL0     C12357   8.086   2.011  11.710 -0.3331  0.0189  0.4510
  852MOL0     C12358   8.012   1.895  11.716  0.8046  0.2220  0.2971
  852MOL0     C12359   7.909   1.877  11.799  0.0079 -0.7194 -0.5446
  852MOL0     C12360   7.870   1.977  11.885  0.2063 -0.0743  1.6893
  852MOL0     C12361   7.759   1.963  11.988 -0.0467  0.6559 -0.2788
  852MOL0     O12362   7.739   1.835  12.025  0.1504  1.0765 -1.0390
  852MOL0     C12363   7.649   1.812  12.125  0.7409 -0.2368 -0.6994
  852MOL0     C12364   7.515   1.865  12.136  1.1268  0.3324  0.2801
  852MOL0     C12365   7.426   1.826  12.239 -0.4090 -0.5666 -0.7959
  852MOL0     C12366   7.466   1.732  12.333 -0.0159 -0.0932 -0.2101
  852MOL0     O12367   7.388   1.668  12.426 -0.3849  0.5569  0.6967
  852MOL0     C12368   7.256   1.717  12.449  0.0721  0.2389  0.3267
  852MOL0     C12369   7.212   1.638  12.570 -0.6699 -0.1593 -0.1884
  852MOL0     C12370   7.071   1.676  12.621 -0.2857 -0.2469 -0.5653
  852MOL0     C12371   7.058   1.654  12.767 -0.6467 -0.1737 -1.0431
  852MOL0     C12372   7.030   1.509  12.812  0.2411  0.3095 -0.3398
  852MOL0     C12373   6.932   1.504  12.937  0.2919  0.1430  0.2410
  852MOL0     C12374   6.992   1.585  13.051 -0.2190 -0.8540  0.4632
  852MOL0     C12375   6.935   1.540  13.185  0.2868 -0.4067 -0.2636
  852MOL0    Cl12376   6.995   1.629  13.332  0.0369  0.4056 -0.1113
  852MOL0     C12377   7.596   1.686  12.323 -1.1123 -0.2258  0.4052
  852MOL0     C12378   7.684   1.716  12.213  0.4129  0.0977  0.0186
  852MOL0     O12379   7.710   2.066  12.039 -0.1982 -0.1105  0.0266
  852MOL0     C12380   7.946   2.096  11.890 -0.3262 -0.2534  0.7487
  852MOL0     C12381   8.053   2.115  11.801  0.4487 -0.2276 -0.1596
  852MOL0     N12382   8.644   2.348  11.239  0.3123  0.4884  0.5307
  852MOL0     N12383   8.684   2.461  11.187 -0.6025 -0.1334  0.3600
  852MOL0     C12384   8.865   3.543  10.666 -0.5742 -0.2754 -0.2032
  852MOL0     C12385   8.926   3.604  10.549 -0.4755 -0.0346 -0.1509
  852MOL0     C12386   9.276   3.719  10.260 -0.3642  0.1052  0.1339
  852MOL0     C12387   9.375   3.656  10.185 -0.0515 -0.3901  0.1817
  852MOL0     C12388   9.446   3.723  10.079  0.7324  1.0313 -1.0469
  852MOL0     C12389   9.406   3.850  10.043  0.0370 -0.5812 -0.3825
  852MOL0     O12390   9.476   3.925   9.952  0.5787  0.3068 -0.8316
  852MOL0     C12391   9.406   4.010   9.862 -0.6956  0.3786  0.2103
  852MOL0     C12392   9.486   4.050   9.739 -0.1581 -0.3135  0.5906
  852MOL0     C12393   9.409   4.140   9.637  0.1874 -0.3649 -0.5746
  852MOL0     C12394   9.514   4.191   9.532  0.5955  0.0814 -0.8939
  852MOL0     C12395   9.455   4.262   9.416  0.2767 -0.4124  0.1052
  852MOL0     C12396   9.411   4.319   9.323  0.6313 -0.4445  0.8014
  852MOL0     C12397   9.319   3.917  10.123 -0.7464 -0.3286  1.2249
  852MOL0     C12398   9.245   3.854  10.226  0.7583 -0.5093 -0.1465
  852MOL0     H12399   9.232   3.679  10.669  0.3658 -1.5329  1.1520
  852MOL0     H12400   9.135   3.578  10.870 -0.8684 -1.5524  0.5445
  852MOL0     H12401   9.003   3.320  10.957 -0.3227  0.1042 -0.7126
  852MOL0     H12402   8.920   3.283  10.809 -1.6466 -1.5367  1.2172
  852MOL0     H12403   8.704   3.322  10.956  1.0759  0.4743 -2.4119
  852MOL0     H12404   8.811   3.290  11.092 -2.3698 -0.5110  0.1860
  852MOL0     H12405   8.871   3.077  10.981  0.2036  0.5721 -0.7762
  852MOL0     H12406   8.754   3.110  10.853  1.3569  2.0403 -0.6782
  852MOL0     H12407   8.657   3.137  11.141  0.5830  1.3170 -0.9167
  852MOL0     H12408   8.563   3.129  11.002  1.3167 -1.2047 -0.9247
  852MOL0     H12409   8.741   2.894  11.102  2.0102  3.0769  0.8993
  852MOL0     H12410   8.645   2.889  10.954  0.3025 -2.8674  1.4757
  852MOL0     H12411   8.426   2.925  11.070 -0.5925 -4.6020 -2.4157
  852MOL0     H12412   8.516   2.959  11.215 -0.3819 -0.1241 -0.3324
  852MOL0     H12413   8.598   2.753  11.262  0.6310  0.6295 -0.2590
  852MOL0     H12414   8.416   2.736  11.217 -1.7363 -1.3689 -5.0476
  852MOL0     H12415   8.660   2.675  11.051  0.2766  0.3526  0.1987
  852MOL0     H12416   8.494   2.638  10.990 -4.0562 -1.4352  2.5015
  852MOL0     H12417   8.350   2.485  11.195  0.3960  0.2930 -1.7314
  852MOL0     H12418   8.442   2.141  11.271 -0.2515 -0.7423  2.4072
  852MOL0     H12419   8.313   2.261  11.313 -0.0863  0.3696  0.8223
  852MOL0     H12420   8.467   2.321  11.511  1.3745 -1.8623  1.4662
  852MOL0     H12421   8.571   2.191  11.471  0.0535  0.5807  0.4429
  852MOL0     H12422   8.375   2.023  11.470 -2.3079 -0.4685  0.3842
  852MOL0     H12423   8.443   2.082  11.623 -3.2251  2.4442  2.9878
  852MOL0     H12424   8.171   2.173  11.513 -0.8162  0.7001  0.5757
  852MOL0     H12425   8.255   2.205  11.667 -0.7204 -0.9677  0.3469
  852MOL0     H12426   8.034   1.814  11.647 -1.7755 -0.1751 -0.1593
  852MOL0     H12427   7.868   1.776  11.801  2.1662 -1.6557  1.7322
  852MOL0     H12428   7.487   1.942  12.065  2.6434  0.6747  0.0132
  852MOL0     H12429   7.320   1.843  12.223 -1.3003 -5.0805 -0.9950
  852MOL0     H12430   7.188   1.707  12.364  2.5286  0.1737 -1.7342
  852MOL0     H12431   7.256   1.820  12.485  1.1592  0.7316 -1.0051
  852MOL0     H12432   7.288   1.647  12.647 -1.3696  0.6484  0.4293
  852MOL0     H12433   7.224   1.533  12.539 -0.1664  0.0792 -0.8228
  852MOL0     H12434   7.005   1.618  12.557 -0.9441 -1.1448  0.8933
  852MOL0     H12435   7.046   1.782  12.610 -0.1871 -0.1273  0.2934
  852MOL0     H12436   7.151   1.686  12.815  0.6291 -1.7027 -2.3743
  852MOL0     H12437   6.973   1.706  12.812 -1.0924 -2.0361  0.3898
  852MOL0     H12438   7.124   1.458  12.836  1.5739  2.4009 -0.8970
  852MOL0     H12439   6.982   1.460  12.727  2.4223 -0.3387 -1.2588
  852MOL0     H12440   6.906   1.401  12.966  0.1461 -0.4505 -1.8541
  852MOL0     H12441   6.839   1.549  12.901 -0.7393 -1.2654  1.0468
  852MOL0     H12442   7.100   1.571  13.054  0.0145  0.7581  0.6932
  852MOL0     H12443   6.989   1.694  13.038  0.6279 -1.0508 -1.6905
  852MOL0     H12444   6.949   1.434  13.205 -0.3651 -0.1721  1.5865
  852MOL0     H12445   6.828   1.555  13.174  0.4623  1.9726  0.7094
  852MOL0     H12446   7.622   1.613  12.399 -0.4697 -0.2183  0.1922
  852MOL0     H12447   7.784   1.675  12.219 -0.1974 -1.4032  0.4384
  852MOL0     H12448   7.922   2.179  11.956 -0.6868  0.9472 -0.8088
  852MOL0     H12449   8.102   2.212  11.799  1.2459 -0.6348 -0.6963
  852MOL0     H12450   8.760   3.519  10.659 -0.7200 -0.4662  2.0536
  852MOL0     H12451   8.852   3.624  10.473 -0.0354  1.1777 -0.2816
  852MOL0     H12452   9.401   3.555  10.214 -0.4234 -0.9583 -1.3658
  852MOL0     H12453   9.526   3.671  10.027  2.3793  2.1761  0.2460
  852MOL0     H12454   9.369   4.101   9.910 -3.2813 -0.2461 -0.4351
  852MOL0     H12455   9.323   3.955   9.816 -0.7419 -1.7181  2.6327
  852MOL0     H12456   9.584   4.092   9.764  1.9913 -3.5860 -1.5263
  852MOL0     H12457   9.517   3.956   9.691  0.1409 -0.4455  1.0309
  852MOL0     H12458   9.364   4.225   9.689  1.8073  2.2166 -3.0734
  852MOL0     H12459   9.334   4.074   9.592 -0.3057 -0.6997  0.7166
  852MOL0     H12460   9.582   4.261   9.582 -0.5408  0.4598  0.1613
  852MOL0     H12461   9.570   4.102   9.503 -0.2862  0.0797 -2.7348
  852MOL0     H12462   9.368   4.351   9.230 -0.8326 -1.2919  1.1556
  852MOL0     H12463   9.293   4.023  10.123 -1.4207 -0.4828  1.9025
  852MOL0     H12464   9.179   3.923  10.278  0.8610 -0.3225 -0.2633
  853MOL0     O12465   6.307   0.514  10.692 -1.2618  0.4042  0.2902
  853MOL0     C12466   6.232   0.546  10.787 -0.2440 -0.0227 -0.7070
  853MOL0     O12467   6.270   0.536  10.913 -0.9688 -0.6873 -0.1578
  853MOL0     C12468   6.398   0.515  10.948 -0.1780 -0.0228  0.2323
  853MOL0     C12469   6.456   0.390  10.943  0.5616 -0.2588 -0.0990
  853MOL0     C12470   6.596   0.383  10.959 -0.4089  0.7041 -0.0313
  853MOL0     C12471   6.682   0.495  10.991  0.4139  0.3503  0.7688
  853MOL0     O12472   6.814   0.489  11.024 -0.5157  0.1151  0.5132
  853MOL0     C12473   6.883   0.362  11.053  0.1042  0.0805  0.2702
  853MOL0     C12474   7.009   0.370  11.132  0.0274 -0.6542 -1.1203
  853MOL0     C12475   7.095   0.499  11.107 -0.5154  0.0233 -0.1096
  853MOL0     C12476   7.221   0.492  11.197 -0.4924 -0.2486 -0.2634
  853MOL0     C12477   7.317   0.613  11.146  0.5054 -0.2900  0.3128
  853MOL0     C12478   7.467   0.619  11.191 -0.0099 -0.3812 -0.4770
  853MOL0     C12479   7.541   0.479  11.178 -0.3351  0.3396  1.0866
  853MOL0     C12480   7.690   0.488  11.191 -0.3728 -0.4091  0.1831
  853MOL0     N12481   7.759   0.534  11.070 -0.4819  0.3018  0.3280
  853MOL0     C12482   7.764   0.665  11.025  0.7481  0.2959 -0.0956
  853MOL0     C12483   7.828   0.658  10.908 -0.0102 -0.0549 -0.2200
  853MOL0     C12484   7.845   0.779  10.819  0.1597 -1.2621 -0.0045
  853MOL0     C12485   7.715   0.827  10.739 -0.3202  0.2558  0.6146
  853MOL0     C12486   7.588   0.804  10.824 -0.0438 -0.3649  0.2341
  853MOL0     C12487   7.459   0.852  10.747 -0.3787  0.3163 -1.4171
  853MOL0     O12488   7.341   0.785  10.806  0.3001  0.6533  0.4626
  853MOL0     C12489   7.209   0.821  10.770 -0.0561 -0.8910 -0.1457
  853MOL0     C12490   7.176   0.918  10.679 -0.2774  0.3334  1.0061
  853MOL0     C12491   7.048   0.967  10.677 -0.3555 -0.4529 -1.1581
  853MOL0     C12492   6.946   0.917  10.759 -0.1043  0.3878  0.0594
  853MOL0     C12493   6.807   0.965  10.754  0.1858  0.3045 -0.2740
  853MOL0     O12494   6.729   0.938  10.869  0.0103 -0.7181  0.2883
  853MOL0     C12495   6.586   0.968  10.869 -0.2545  0.3169  0.1958
  853MOL0     C12496   6.521   0.986  10.994 -0.6797  0.7381 -0.7326
  853MOL0     C12497   6.383   0.984  11.009  0.2838  0.5584  0.3868
  853MOL0     C12498   6.305   0.976  10.896 -0.4073 -1.0373 -0.6159
  853MOL0     O12499   6.168   0.957  10.905  0.2287 -0.2160 -0.3201
  853MOL0     C12500   6.096   1.023  11.017 -0.8613  0.3102 -0.1044
  853MOL0     C12501   5.952   1.001  10.996 -0.0934 -0.0734  0.0904
  853MOL0     C12502   5.880   1.053  11.115  0.5622  0.2219  0.3185
  853MOL0     C12503   5.840   1.194  11.097  0.4110 -0.4286 -0.0046
  853MOL0     C12504   5.750   1.243  11.208  1.0507 -0.2469 -0.6361
  853MOL0     C12505   5.613   1.167  11.209  0.6601  0.6149 -0.5510
  853MOL0     C12506   5.513   1.237  11.303 -0.5220 -0.2014  0.3019
  853MOL0     C12507   5.390   1.152  11.297  0.2587  0.0428 -0.2493
  853MOL0    Cl12508   5.309   1.153  11.134 -0.0774  0.1575 -0.3268
  853MOL0     C12509   6.369   0.970  10.773 -0.7508  0.2218  1.0681
  853MOL0     C12510   6.507   0.961  10.757  0.6506 -0.0788  0.2641
  853MOL0     O12511   6.788   1.056  10.674 -0.0592  0.4014 -0.1718
  853MOL0     C12512   6.983   0.820  10.854 -0.4991  0.2442  0.7083
  853MOL0     C12513   7.112   0.771  10.854  0.4434  0.3408  0.5081
  853MOL0     N12514   7.859   0.528  10.877  1.0081 -0.0389  0.9186
  853MOL0     N12515   7.812   0.447  10.970  0.0532 -0.3488 -1.0976
  853MOL0     C12516   6.616   0.618  11.001  0.5059  0.6797 -0.6495
  853MOL0     C12517   6.474   0.628  10.977 -0.9468 -0.2997  0.1818
  853MOL0     C12518   6.089   0.576  10.757 -0.5872  0.5040  0.9248
  853MOL0     C12519   6.000   0.613  10.853 -0.1627  0.5133 -0.7180
  853MOL0     C12520   5.863   0.627  10.821 -0.5573  1.1175 -0.4004
  853MOL0     C12521   5.816   0.606  10.691  0.3627 -1.1111 -0.1492
  853MOL0     O12522   5.684   0.627  10.666  0.2776 -0.1649 -0.1275
  853MOL0     C12523   5.648   0.742  10.588 -0.4688 -0.1396  1.1095
  853MOL0     C12524   5.521   0.808  10.629 -0.8208 -0.0670 -0.8156
  853MOL0     C12525   5.534   0.838  10.787  0.1706 -0.3653  0.0608
  853MOL0     C12526   5.450   0.955  10.841 -0.2687  0.4346 -0.1576
  853MOL0     C12527   5.314   0.938  10.793  0.4411  0.4695  0.4281
  853MOL0     C12528   5.218   0.912  10.719 -0.6675  0.0268 -0.4100
  853MOL0     C12529   5.907   0.573  10.590 -0.6100  0.7770 -0.3538
  853MOL0     C12530   6.047   0.557  10.618 -0.1514 -1.2859 -0.2746
  853MOL0     H12531   6.401   0.299  10.922  2.1340 -1.0518 -0.9253
  853MOL0     H12532   6.653   0.295  10.931  1.7247  1.6618  1.0745
  853MOL0     H12533   6.915   0.326  10.955 -0.3920 -1.5368  0.6824
  853MOL0     H12534   6.813   0.299  11.109 -0.0269  1.7182  2.0521
  853MOL0     H12535   7.074   0.283  11.114 -0.1349 -1.1820  0.6711
  853MOL0     H12536   6.983   0.368  11.238  2.2835 -2.2462 -0.5217
  853MOL0     H12537   7.034   0.589  11.116  2.1554  2.0363 -1.1431
  853MOL0     H12538   7.121   0.490  11.001 -0.6852  1.5728 -0.2970
  853MOL0     H12539   7.195   0.509  11.302  1.2499 -1.6109  0.4398
  853MOL0     H12540   7.268   0.395  11.179 -4.5747 -2.2320 -1.5328
  853MOL0     H12541   7.270   0.709  11.171 -0.0256 -0.1137 -1.2814
  853MOL0     H12542   7.324   0.598  11.038  0.1247 -2.9461  0.5849
  853MOL0     H12543   7.474   0.638  11.299 -0.2508 -0.7744 -0.3916
  853MOL0     H12544   7.502   0.708  11.138  0.0539 -0.1280 -0.0169
  853MOL0     H12545   7.505   0.407  11.252 -1.3420  1.9852  2.2452
  853MOL0     H12546   7.514   0.436  11.081 -2.6885 -0.7159  2.1532
  853MOL0     H12547   7.739   0.391  11.205  1.9658  0.2872 -2.2217
  853MOL0     H12548   7.708   0.548  11.281 -0.7301 -0.4878  0.3072
  853MOL0     H12549   7.724   0.752  11.077 -1.4148 -0.5243 -0.3051
  853MOL0     H12550   7.927   0.770  10.747  2.4113  0.3393  2.1834
  853MOL0     H12551   7.862   0.867  10.883 -0.2510 -1.3835  0.2707
  853MOL0     H12552   7.720   0.775  10.643  1.1677  4.1055 -1.6261
  853MOL0     H12553   7.728   0.933  10.714  2.2821 -0.5364 -1.9432
  853MOL0     H12554   7.572   0.698  10.843  1.1477 -0.2520  2.1172
  853MOL0     H12555   7.598   0.852  10.922 -2.7661 -2.2855  1.6077
  853MOL0     H12556   7.456   0.830  10.640  0.6716 -0.6771 -1.2561
  853MOL0     H12557   7.445   0.959  10.767 -0.9503 -0.5141  4.3419
  853MOL0     H12558   7.247   0.955  10.606 -0.4826 -0.8370  0.1899
  853MOL0     H12559   7.029   1.041  10.600 -3.0132  0.9738  0.7051
  853MOL0     H12560   6.589   0.994  11.078 -1.2500 -0.6904 -0.1094
  853MOL0     H12561   6.347   0.976  11.111  3.0210  0.8852  1.4490
  853MOL0     H12562   6.129   1.127  11.024  1.2575 -0.3692  1.0375
  853MOL0     H12563   6.120   0.967  11.108  0.0039 -2.3169 -1.8231
  853MOL0     H12564   5.926   0.899  10.966 -3.4483  0.6818  0.0146
  853MOL0     H12565   5.923   1.055  10.905  2.6874  4.5453  1.6183
  853MOL0     H12566   5.931   1.046  11.212  2.1144 -0.1062 -0.4886
  853MOL0     H12567   5.787   0.996  11.117  2.1885 -2.5953  0.3890
  853MOL0     H12568   5.927   1.260  11.102 -0.5973  0.8910  3.9104
  853MOL0     H12569   5.793   1.214  11.000 -0.2065 -1.0975  0.1419
  853MOL0     H12570   5.726   1.348  11.186  0.5963 -0.1300  0.3787
  853MOL0     H12571   5.807   1.224  11.299  0.3618  3.0183  0.6074
  853MOL0     H12572   5.623   1.066  11.250  2.7518  1.4881  1.3031
  853MOL0     H12573   5.565   1.173  11.111 -2.1330  0.4221  0.7075
  853MOL0     H12574   5.553   1.226  11.404  1.1862 -0.1301 -0.3319
  853MOL0     H12575   5.489   1.337  11.266 -0.3500 -0.1393  0.3549
  853MOL0     H12576   5.326   1.195  11.375  0.0866 -0.6585 -0.0036
  853MOL0     H12577   5.417   1.049  11.321 -0.1051  0.2121  0.9610
  853MOL0     H12578   6.300   0.964  10.689  1.7067  2.1244 -1.2380
  853MOL0     H12579   6.550   0.956  10.657  1.2731  0.2776  0.5071
  853MOL0     H12580   6.904   0.793  10.923 -1.2072  4.0831  1.6462
  853MOL0     H12581   7.127   0.689  10.923 -3.0443  1.4568  2.9081
  853MOL0     H12582   6.661   0.715  11.018 -1.4083  1.7716 -1.4476
  853MOL0     H12583   6.413   0.717  10.984 -2.8095 -1.6098  1.6295
  853MOL0     H12584   6.030   0.627  10.957 -0.5360 -0.9155 -0.3903
  853MOL0     H12585   5.788   0.668  10.888 -1.2163  0.1537 -0.5202
  853MOL0     H12586   5.638   0.708  10.485 -0.7220  0.6962  0.8521
  853MOL0     H12587   5.718   0.825  10.578 -1.0900  0.1805 -0.8893
  853MOL0     H12588   5.507   0.901  10.574  1.6869  0.5001 -0.6155
  853MOL0     H12589   5.433   0.742  10.626 -0.9905  0.1227 -0.2391
  853MOL0     H12590   5.635   0.871  10.813 -0.0312  0.9527 -0.7347
  853MOL0     H12591   5.514   0.747  10.844 -3.0865  0.8542  1.0918
  853MOL0     H12592   5.449   0.956  10.950 -1.3714  1.2744 -0.1579
  853MOL0     H12593   5.487   1.051  10.805  1.4758 -1.1436 -2.9599
  853MOL0     H12594   5.131   0.889  10.660 -1.5768  0.4474  0.7297
  853MOL0     H12595   5.875   0.562  10.486 -0.0820  1.5344 -0.6031
  853MOL0     H12596   6.111   0.503  10.549 -0.3487 -2.7963  0.6705
  854MOL0     O12597   0.925   0.847   0.106  0.5882 -0.1124 -0.3011
  854MOL0     C12598   0.869   0.771   0.185  0.5361 -0.1957 -0.0162
  854MOL0     O12599   0.740   0.753   0.201  0.1635 -0.3180  0.3521
  854MOL0     C12600   0.658   0.833   0.116  0.3222  0.4023 -0.2409
  854MOL0     C12601   0.606   0.776  -0.002  0.5080 -0.5992  0.6361
  854MOL0     C12602   0.523   0.851  -0.084 -0.2834 -0.1329 -0.0534
  854MOL0     C12603   0.496   0.991  -0.057 -0.4918  0.6099 -0.7156
  854MOL0     O12604   0.416   1.054  -0.154 -0.7419 -0.0219 -0.6748
  854MOL0     C12605   0.414   1.200  -0.142 -1.0255 -0.0493 -0.0453
  854MOL0     C12606   0.305   1.249  -0.234  0.1514 -1.1810 -0.0814
  854MOL0     C12607   0.168   1.227  -0.175  0.0748  0.4977  0.2991
  854MOL0     C12608   0.062   1.310  -0.246  0.0553 -0.1644  0.2963
  854MOL0     C12609  -0.077   1.306  -0.192  1.2292  0.1674 -0.1153
  854MOL0     C12610  -0.186   1.361  -0.281 -0.7107  0.1133 -0.8319
  854MOL0     C12611  -0.193   1.315  -0.422  0.0688  0.2391  0.2722
  854MOL0     C12612  -0.327   1.331  -0.485  1.0239  0.5572  0.0906
  854MOL0     N12613  -0.358   1.469  -0.504  0.9132  0.2694 -0.7169
  854MOL0     C12614  -0.273   1.574  -0.533 -0.3710  0.0500  0.1249
  854MOL0     C12615  -0.345   1.688  -0.535  1.0294  0.1152  0.4460
  854MOL0     C12616  -0.298   1.819  -0.576 -0.0047  0.0011  0.2569
  854MOL0     C12617  -0.184   1.869  -0.492  0.0169  0.1501  0.0606
  854MOL0     C12618  -0.205   1.851  -0.337  0.2670  1.6973 -0.7558
  854MOL0     C12619  -0.351   1.893  -0.303 -0.3635  0.4091 -0.1666
  854MOL0     O12620  -0.364   2.034  -0.332  0.5738  0.1742  0.3103
  854MOL0     C12621  -0.494   2.079  -0.351 -0.3568 -0.0049  0.4973
  854MOL0     C12622  -0.614   2.012  -0.310  0.0462 -0.0047  0.2513
  854MOL0     C12623  -0.740   2.074  -0.328  0.4060  1.1833 -0.4096
  854MOL0     C12624  -0.748   2.190  -0.400 -1.3448 -0.5969 -0.3738
  854MOL0     C12625  -0.875   2.245  -0.445 -0.2449 -1.0130 -0.3043
  854MOL0     O12626  -0.985   2.163  -0.427  0.3252  0.4084  0.3951
  854MOL0     C12627  -1.113   2.221  -0.453 -0.5982  0.0517 -0.0450
  854MOL0     C12628  -1.155   2.264  -0.575 -0.2351 -0.5240  0.1434
  854MOL0     C12629  -1.280   2.317  -0.599 -0.8530  0.6805  1.5122
  854MOL0     C12630  -1.378   2.298  -0.502  0.4991 -0.3521 -0.2377
  854MOL0     O12631  -1.510   2.331  -0.518  0.1042 -0.0135  0.3027
  854MOL0     C12632  -1.583   2.304  -0.642 -0.1898  0.0503 -0.0213
  854MOL0     C12633  -1.663   2.435  -0.689 -0.1034  0.9585  0.0513
  854MOL0     C12634  -1.761   2.402  -0.804  0.0189  0.1461 -0.6478
  854MOL0     C12635  -1.708   2.374  -0.938  0.3297 -0.1424  0.2142
  854MOL0     C12636  -1.817   2.331  -1.039 -0.4447 -1.1821  1.1222
  854MOL0     C12637  -1.758   2.266  -1.172 -0.8906 -0.0609 -0.2153
  854MOL0     C12638  -1.867   2.188  -1.246 -0.2827  0.6310 -0.9501
  854MOL0     C12639  -1.811   2.113  -1.375 -0.1323 -0.5759  0.2873
  854MOL0    Cl12640  -1.913   1.985  -1.446  0.0543  0.7171  0.3718
  854MOL0     C12641  -1.345   2.251  -0.375 -0.9312 -0.1259  0.1183
  854MOL0     C12642  -1.209   2.213  -0.346  0.8287  0.5339  0.9756
  854MOL0     O12643  -0.881   2.365  -0.488 -0.1252  0.1334  0.3005
  854MOL0     C12644  -0.626   2.248  -0.445  0.2833 -0.1386 -0.2250
  854MOL0     C12645  -0.503   2.196  -0.423 -0.3089  0.4748  0.3755
  854MOL0     N12646  -0.473   1.654  -0.499  0.3207 -0.4239  0.5976
  854MOL0     N12647  -0.477   1.529  -0.473  0.4163 -0.2222 -0.5331
  854MOL0     C12648   0.541   1.041   0.063 -0.1901 -1.0472 -0.7965
  854MOL0     C12649   0.623   0.964   0.153  0.7676 -0.5575  0.1203
  854MOL0     C12650   0.956   0.692   0.274 -0.5034 -0.4505 -0.5754
  854MOL0     C12651   0.900   0.589   0.345 -1.2621 -0.2359 -0.6985
  854MOL0     C12652   0.984   0.508   0.419 -0.1197  0.2553  0.0491
  854MOL0     C12653   1.117   0.534   0.417 -0.8011  0.1877 -0.2756
  854MOL0     O12654   1.207   0.451   0.486 -0.1670  0.5767 -0.3459
  854MOL0     C12655   1.176   0.315   0.521 -0.2102  0.1853  0.6045
  854MOL0     C12656   1.289   0.244   0.598 -0.5937  1.4804 -0.5752
  854MOL0     C12657   1.427   0.252   0.525  1.3860  0.8544 -0.4741
  854MOL0     C12658   1.467   0.114   0.476 -0.0545  0.5744  0.3651
  854MOL0     C12659   1.496   0.019   0.588 -0.5257 -0.1583 -0.2211
  854MOL0     C12660   1.539  -0.063   0.659 -0.0274  0.3485 -0.8162
  854MOL0     C12661   1.178   0.639   0.355  0.3579 -0.4529  0.8455
  854MOL0     C12662   1.096   0.720   0.275  0.2669  0.2817  0.4080
  854MOL0     H12663   0.618   0.670  -0.025 -1.4862 -0.5629 -0.7641
  854MOL0     H12664   0.485   0.824  -0.182 -2.2679 -1.5405  1.0203
  854MOL0     H12665   0.512   1.239  -0.172 -1.8248  1.7492 -0.4913
  854MOL0     H12666   0.402   1.241  -0.041 -1.1240  3.9500 -1.4979
  854MOL0     H12667   0.321   1.205  -0.333 -3.9599 -1.5114 -0.7751
  854MOL0     H12668   0.321   1.357  -0.249 -1.5550 -1.1125 -1.7342
  854MOL0     H12669   0.165   1.267  -0.074  1.1335 -1.0321  0.9766
  854MOL0     H12670   0.144   1.120  -0.180 -1.1064  0.6759  1.7088
  854MOL0     H12671   0.093   1.414  -0.229  0.7488 -0.1900 -0.7124
  854MOL0     H12672   0.067   1.298  -0.354  0.8008  0.8133  0.2019
  854MOL0     H12673  -0.077   1.358  -0.096 -1.5790 -0.7855  0.5045
  854MOL0     H12674  -0.108   1.204  -0.166 -1.7407  1.8011  3.8502
  854MOL0     H12675  -0.179   1.470  -0.276 -0.0099  0.0158  1.4407
  854MOL0     H12676  -0.272   1.328  -0.222  0.9403 -1.6648  0.7417
  854MOL0     H12677  -0.124   1.364  -0.492  1.0644 -2.4426 -0.7435
  854MOL0     H12678  -0.172   1.209  -0.439 -1.2281  0.2547 -1.9400
  854MOL0     H12679  -0.406   1.287  -0.422  0.3601  0.2376 -0.9406
  854MOL0     H12680  -0.337   1.285  -0.584 -0.2965 -0.6304  0.7226
  854MOL0     H12681  -0.169   1.558  -0.560 -0.5439  0.1274 -0.6181
  854MOL0     H12682  -0.376   1.896  -0.587  2.5808  2.6923 -0.6606
  854MOL0     H12683  -0.262   1.800  -0.677 -1.8416 -0.5033 -0.3582
  854MOL0     H12684  -0.153   1.973  -0.507  3.0188 -0.4088  1.6052
  854MOL0     H12685  -0.092   1.813  -0.514 -0.1822  0.5781 -2.1574
  854MOL0     H12686  -0.184   1.750  -0.300  0.7140  2.6291  1.6685
  854MOL0     H12687  -0.140   1.918  -0.281 -1.1607  1.8435  0.8156
  854MOL0     H12688  -0.369   1.872  -0.197  0.8925  1.3009  0.2365
  854MOL0     H12689  -0.429   1.839  -0.357  0.1206 -1.7609  1.1883
  854MOL0     H12690  -0.601   1.924  -0.248 -1.9933 -1.0718 -0.7506
  854MOL0     H12691  -0.825   2.034  -0.274  1.2459  0.1256  0.1715
  854MOL0     H12692  -1.071   2.277  -0.641  1.1768  2.7600  2.3363
  854MOL0     H12693  -1.291   2.374  -0.690 -0.3609  1.1550  1.7451
  854MOL0     H12694  -1.659   2.228  -0.622 -1.0936  1.2186  1.1467
  854MOL0     H12695  -1.516   2.269  -0.721 -0.6090 -0.1392 -0.2944
  854MOL0     H12696  -1.593   2.517  -0.706  0.9716  0.0794  0.1321
  854MOL0     H12697  -1.726   2.453  -0.602  0.1308  1.2333  0.1638
  854MOL0     H12698  -1.817   2.494  -0.821  0.1297  0.1417 -1.0253
  854MOL0     H12699  -1.823   2.318  -0.770  1.6391  0.0058  2.3034
  854MOL0     H12700  -1.671   2.473  -0.968 -2.8566  1.4529  1.0055
  854MOL0     H12701  -1.633   2.297  -0.923 -0.4743 -0.9669  0.0751
  854MOL0     H12702  -1.884   2.415  -1.056  1.8383  0.2029 -1.9238
  854MOL0     H12703  -1.878   2.252  -0.994 -2.1887 -0.1023  0.7529
  854MOL0     H12704  -1.676   2.195  -1.156  0.4956  0.7692 -3.0243
  854MOL0     H12705  -1.718   2.345  -1.237  2.0171 -0.5736  0.7758
  854MOL0     H12706  -1.927   2.121  -1.183  1.6013 -0.2011  0.0164
  854MOL0     H12707  -1.938   2.260  -1.286  1.6909  3.0231 -0.3531
  854MOL0     H12708  -1.722   2.066  -1.333 -1.3939 -0.1999  3.7500
  854MOL0     H12709  -1.791   2.185  -1.455  2.9363 -1.6619 -0.0363
  854MOL0     H12710  -1.427   2.251  -0.304 -1.2060  2.2369 -0.1201
  854MOL0     H12711  -1.185   2.186  -0.244  0.8895  0.7952  1.0309
  854MOL0     H12712  -0.635   2.332  -0.513  1.0739 -0.1411 -0.3413
  854MOL0     H12713  -0.419   2.244  -0.471 -1.2108 -0.2468 -2.0913
  854MOL0     H12714   0.524   1.139   0.106 -4.4172 -0.9640 -2.1545
  854MOL0     H12715   0.662   1.005   0.246 -1.1157 -2.5912  1.9188
  854MOL0     H12716   0.794   0.569   0.340 -1.2820 -0.7542  1.2411
  854MOL0     H12717   0.941   0.422   0.470  0.1791 -0.3831 -0.7611
  854MOL0     H12718   1.183   0.270   0.422  0.3464  0.2777  0.5958
  854MOL0     H12719   1.077   0.294   0.562 -0.9525  0.4701 -0.9662
  854MOL0     H12720   1.293   0.276   0.703 -0.6616  0.8903 -0.3850
  854MOL0     H12721   1.259   0.138   0.599  1.3178  0.8716 -1.5896
  854MOL0     H12722   1.493   0.275   0.609  0.8577 -1.8139  0.7363
  854MOL0     H12723   1.431   0.323   0.442 -0.5462  0.9810 -0.5051
  854MOL0     H12724   1.387   0.070   0.415  2.7597 -0.6255 -2.7666
  854MOL0     H12725   1.552   0.120   0.407 -1.5431  1.4046 -1.4945
  854MOL0     H12726   1.556  -0.141   0.731 -0.2247 -0.4843 -1.6592
  854MOL0     H12727   1.281   0.674   0.352 -0.4475  2.2380 -3.2173
  854MOL0     H12728   1.130   0.801   0.212 -2.0932  1.1179  0.1320
  855MOL0     O12729   9.062  10.460   6.624 -0.2513 -0.7950 -0.2929
  855MOL0     C12730   9.150  10.432   6.706  0.6492  0.0524 -0.1972
  855MOL0     O12731   9.129  10.391   6.832 -0.3277 -1.0997 -0.1134
  855MOL0     C12732   9.011  10.435   6.893 -0.5791  0.5911 -0.4706
  855MOL0     C12733   8.984  10.565   6.911 -0.0725 -0.2392 -0.9375
  855MOL0     C12734   8.857  10.610   6.967 -0.7846  0.4561  0.1039
  855MOL0     C12735   8.759  10.515   7.007 -0.1983 -0.1720  1.5034
  855MOL0     O12736   8.637  10.545   7.066  0.4079  0.9358 -0.1370
  855MOL0     C12737   8.595  10.684   7.071 -0.3869  1.1726  0.1915
  855MOL0     C12738   8.524  10.718   6.939 -0.3854  0.4543  0.4692
  855MOL0     C12739   8.454  10.855   6.952 -0.6237 -0.1467  0.0951
  855MOL0     C12740   8.398  10.903   6.815  0.3650 -0.0921  0.2255
  855MOL0     C12741   8.319  11.035   6.826 -0.8623  0.0970 -0.8923
  855MOL0     C12742   8.234  11.062   6.703  0.0782 -0.0247 -0.6483
  855MOL0     C12743   8.166  11.199   6.715  0.1515 -0.5732  0.5589
  855MOL0     C12744   8.055  11.211   6.603  0.4021 -0.6058 -0.7478
  855MOL0     N12745   7.931  11.141   6.621  0.2748  0.0465 -0.5910
  855MOL0     C12746   7.902  11.017   6.556  1.7998 -0.0986  1.1299
  855MOL0     C12747   7.769  11.004   6.578  0.6515 -0.2934 -0.4824
  855MOL0     C12748   7.682  10.876   6.553 -0.8197 -0.2316 -0.3747
  855MOL0     C12749   7.680  10.772   6.667  0.1147  0.0498  0.0449
  855MOL0     C12750   7.572  10.669   6.629  0.1700 -0.4870 -0.9853
  855MOL0     C12751   7.433  10.708   6.665  0.2258 -0.6646 -0.5653
  855MOL0     O12752   7.365  10.774   6.553  0.2744 -0.4287 -0.5663
  855MOL0     C12753   7.230  10.756   6.532 -0.0008 -0.2136 -0.3800
  855MOL0     C12754   7.151  10.675   6.618  0.5708  0.3209  0.6158
  855MOL0     C12755   7.009  10.663   6.590  0.8918 -0.7611 -0.1543
  855MOL0     C12756   6.947  10.730   6.484 -0.2700 -0.1433 -0.2836
  855MOL0     C12757   6.809  10.695   6.455 -0.3539 -0.6890 -0.1068
  855MOL0     O12758   6.752  10.768   6.343 -0.6125  0.3890 -0.2530
  855MOL0     C12759   6.619  10.750   6.307  0.0176  0.0595  0.1035
  855MOL0     C12760   6.505  10.727   6.390 -0.6109 -0.0136  0.1259
  855MOL0     C12761   6.380  10.739   6.333 -0.0030  0.6418 -0.4115
  855MOL0     C12762   6.360  10.758   6.196 -0.1434 -0.1132  0.5745
  855MOL0     O12763   6.228  10.758   6.163 -0.2766 -0.7532 -0.3485
  855MOL0     C12764   6.192  10.714   6.032 -0.5060  1.0039  0.3952
  855MOL0     C12765   6.040  10.715   6.033  0.2455 -0.9314 -0.1549
  855MOL0     C12766   5.976  10.714   5.899 -0.3411  0.6757  0.0181
  855MOL0     C12767   5.996  10.578   5.830  1.0218 -0.1205 -0.2683
  855MOL0     C12768   6.105  10.572   5.727  0.7791 -0.4048  0.5141
  855MOL0     C12769   6.086  10.437   5.662  0.5367 -0.6786 -0.1855
  855MOL0     C12770   6.194  10.400   5.567  0.8482  1.1160  0.2674
  855MOL0     C12771   6.176  10.262   5.504 -0.9214 -0.7494 -0.3962
  855MOL0    Cl12772   6.177  10.125   5.623 -0.4332 -0.6619  0.3427
  855MOL0     C12773   6.475  10.774   6.116 -0.0365  1.7725  0.9011
  855MOL0     C12774   6.603  10.771   6.174  0.5787  0.6794 -0.3963
  855MOL0     O12775   6.750  10.602   6.514 -0.2445 -0.2445 -0.2318
  855MOL0     C12776   7.034  10.799   6.390 -0.0546  1.4668 -0.1849
  855MOL0     C12777   7.174  10.816   6.425 -0.7123 -0.6269  1.1942
  855MOL0     N12778   7.720  11.106   6.654  0.2057  0.3377 -0.3785
  855MOL0     N12779   7.816  11.194   6.678 -0.5960 -0.2020  0.2925
  855MOL0     C12780   8.790  10.382   6.992  0.1552 -0.3610 -0.4575
  855MOL0     C12781   8.908  10.335   6.921 -0.0834 -1.3745  0.1293
  855MOL0     C12782   9.291  10.458   6.668 -0.0623 -0.0381  0.1905
  855MOL0     C12783   9.316  10.530   6.556  0.4370  0.3007 -0.2375
  855MOL0     C12784   9.442  10.546   6.508 -0.0675  0.1044 -0.0860
  855MOL0     C12785   9.550  10.504   6.592 -0.5092 -0.2921 -0.4893
  855MOL0     O12786   9.670  10.537   6.532 -0.0350  0.2227 -0.0058
  855MOL0     C12787   9.788  10.514   6.601 -0.3898 -0.4175  0.2339
  855MOL0     C12788   9.887  10.631   6.587 -0.3981  0.3376 -0.0462
  855MOL0     C12789   9.951  10.636   6.449  0.4909 -0.3220 -0.5961
  855MOL0     C12790  10.051  10.754   6.444 -0.0742 -0.1474  0.2424
  855MOL0     C12791  10.154  10.735   6.347 -0.4302 -0.2664 -0.4057
  855MOL0     C12792  10.242  10.720   6.265  0.1336  0.3459  0.5152
  855MOL0     C12793   9.520  10.430   6.711  0.5265  0.3375 -0.0277
  855MOL0     C12794   9.388  10.397   6.747  0.4593 -0.2518 -0.6521
  855MOL0     H12795   9.061  10.636   6.885  2.8991 -2.2443  1.7548
  855MOL0     H12796   8.846  10.718   6.966 -2.5539  0.3085  1.0602
  855MOL0     H12797   8.678  10.751   7.098 -0.2886  2.1359 -2.2828
  855MOL0     H12798   8.523  10.688   7.153  0.9435  0.5527  1.4390
  855MOL0     H12799   8.461  10.629   6.925  0.3844 -0.5447  2.8351
  855MOL0     H12800   8.593  10.718   6.855  0.3628 -2.7398  0.9455
  855MOL0     H12801   8.526  10.930   6.985 -0.8251 -0.0713  0.3667
  855MOL0     H12802   8.374  10.850   7.026 -2.9319 -1.2570 -2.2766
  855MOL0     H12803   8.481  10.906   6.743  0.1871 -2.5827 -0.1785
  855MOL0     H12804   8.321  10.835   6.778 -0.7000  1.8211 -1.2587
  855MOL0     H12805   8.391  11.115   6.844  0.5243 -1.1771 -0.5080
  855MOL0     H12806   8.250  11.029   6.910 -2.0228  0.8398 -1.7606
  855MOL0     H12807   8.155  10.987   6.688 -0.0662  0.3748 -1.9888
  855MOL0     H12808   8.292  11.053   6.611 -1.5962  0.6550 -1.8074
  855MOL0     H12809   8.121  11.211   6.814 -1.1182  2.2248 -0.2480
  855MOL0     H12810   8.233  11.284   6.699 -2.3661  1.0633 -2.5956
  855MOL0     H12811   8.097  11.181   6.506  1.3409 -0.4388 -0.4006
  855MOL0     H12812   8.041  11.318   6.583  3.7349  0.5164  2.0226
  855MOL0     H12813   7.959  10.942   6.501 -2.5815 -3.7719  0.9204
  855MOL0     H12814   7.719  10.823   6.464  0.2453 -0.8473  0.4203
  855MOL0     H12815   7.583  10.919   6.533 -0.6443  0.0993 -0.5417
  855MOL0     H12816   7.651  10.813   6.765  0.6461  1.3145 -0.3067
  855MOL0     H12817   7.773  10.716   6.672 -0.4306 -0.8479  0.3798
  855MOL0     H12818   7.577  10.635   6.525 -0.2848  0.9333 -1.5024
  855MOL0     H12819   7.585  10.579   6.688  0.3798  1.0756  1.4954
  855MOL0     H12820   7.424  10.776   6.750  3.3419 -1.9331  0.9319
  855MOL0     H12821   7.384  10.615   6.693 -0.9152 -0.6744 -2.4262
  855MOL0     H12822   7.183  10.623   6.708  2.9306  2.0277  0.8421
  855MOL0     H12823   6.959  10.608   6.669  0.8795 -0.2925  0.1720
  855MOL0     H12824   6.516  10.714   6.498  1.1018  0.3479  0.0230
  855MOL0     H12825   6.291  10.758   6.392  0.5730 -0.3003  0.8157
  855MOL0     H12826   6.235  10.615   6.017  0.6101  1.4840  0.3391
  855MOL0     H12827   6.222  10.785   5.955  0.5170  0.6720  0.4727
  855MOL0     H12828   6.002  10.809   6.075 -2.0080 -1.9137  0.1413
  855MOL0     H12829   5.998  10.629   6.085 -0.2354 -1.0094 -0.6678
  855MOL0     H12830   6.021  10.792   5.837  1.9810 -0.5998 -0.0142
  855MOL0     H12831   5.869  10.737   5.908 -0.2856  0.3622  2.1062
  855MOL0     H12832   6.008  10.501   5.907  1.4095  0.4959  0.2920
  855MOL0     H12833   5.896  10.551   5.793  1.4142  0.0206 -1.4999
  855MOL0     H12834   6.202  10.583   5.775  1.4109 -1.7575 -0.3946
  855MOL0     H12835   6.094  10.634   5.637 -0.6332 -0.2096  0.7900
  855MOL0     H12836   5.989  10.432   5.613  0.6346 -0.2779 -0.4262
  855MOL0     H12837   6.086  10.358   5.738  0.7376  0.3082  0.8681
  855MOL0     H12838   6.198  10.468   5.481 -0.0216  0.4739 -0.2962
  855MOL0     H12839   6.292  10.412   5.615  1.0587  0.1915  0.0879
  855MOL0     H12840   6.255  10.252   5.429 -1.0046 -0.6495 -0.4977
  855MOL0     H12841   6.085  10.265   5.443 -1.2434 -0.6395  0.0862
  855MOL0     H12842   6.466  10.784   6.008 -1.0943  1.2274  0.9228
  855MOL0     H12843   6.692  10.779   6.112 -1.0152  1.6907 -2.7082
  855MOL0     H12844   6.998  10.856   6.306  1.9559  0.3250 -1.9161
  855MOL0     H12845   7.237  10.883   6.367 -1.7600 -1.1556 -0.6450
  855MOL0     H12846   8.728  10.313   7.048 -2.4511  4.2932  3.0300
  855MOL0     H12847   8.927  10.231   6.896  0.4754 -0.8740 -1.7157
  855MOL0     H12848   9.239  10.579   6.498 -1.2096 -1.3935  0.4276
  855MOL0     H12849   9.464  10.611   6.424 -2.4410  0.3755 -0.5799
  855MOL0     H12850   9.835  10.422   6.564 -0.5873 -0.3288 -0.2523
  855MOL0     H12851   9.766  10.495   6.706 -3.9069 -2.3328 -0.6649
  855MOL0     H12852   9.828  10.719   6.616  0.1601  1.0031 -0.8906
  855MOL0     H12853   9.965  10.622   6.663  1.4300 -1.8643 -2.0279
  855MOL0     H12854   9.880  10.651   6.367  1.6046 -0.9311 -1.7042
  855MOL0     H12855  10.016  10.550   6.432  1.5670 -0.0497  1.7063
  855MOL0     H12856   9.996  10.844   6.415  0.2758  0.2356  0.7377
  855MOL0     H12857  10.103  10.768   6.540 -0.8437 -0.5525  0.7258
  855MOL0     H12858  10.332  10.720   6.207 -0.6479  2.1410 -0.7944
  855MOL0     H12859   9.603  10.390   6.769  0.8647  0.1179 -0.6509
  855MOL0     H12860   9.362  10.327   6.826  4.1170  0.0174  1.0330
  856MOL0     O12861   0.689   5.822   3.880 -0.6163  0.5065  0.4348
  856MOL0     C12862   0.728   5.706   3.873 -1.1485 -1.1849  0.3451
  856MOL0     O12863   0.681   5.603   3.804  0.0113  0.7557  0.1484
  856MOL0     C12864   0.566   5.626   3.734 -0.6593  0.5401 -0.0986
  856MOL0     C12865   0.571   5.587   3.601  0.1195  0.3032  0.0564
  856MOL0     C12866   0.467   5.623   3.518  0.0548  0.0974 -0.4842
  856MOL0     C12867   0.341   5.679   3.570 -0.1854  0.1376  0.3954
  856MOL0     O12868   0.232   5.714   3.492  0.5090  0.3763 -0.3190
  856MOL0     C12869   0.229   5.711   3.348 -0.1195 -0.1475  0.4118
  856MOL0     C12870   0.080   5.712   3.306 -0.9548  0.3278 -0.3119
  856MOL0     C12871   0.008   5.839   3.349 -0.3852  0.1878  0.2727
  856MOL0     C12872  -0.137   5.846   3.278 -0.0027  0.3983 -0.4811
  856MOL0     C12873  -0.229   5.956   3.329  0.3706  0.0765 -0.1976
  856MOL0     C12874  -0.178   6.102   3.324 -0.3494  0.5586  0.2082
  856MOL0     C12875  -0.275   6.202   3.377  0.1126  0.1055  0.4039
  856MOL0     C12876  -0.389   6.211   3.273 -0.1285 -0.7241 -0.8388
  856MOL0     N12877  -0.474   6.322   3.302 -0.4320  0.2357 -0.7130
  856MOL0     C12878  -0.446   6.445   3.249  0.7383 -0.1912  0.4171
  856MOL0     C12879  -0.535   6.534   3.301 -0.6415  0.8327 -0.1174
  856MOL0     C12880  -0.546   6.680   3.270  0.6391  0.0872  0.4001
  856MOL0     C12881  -0.522   6.768   3.389  0.1824 -0.1703  0.2454
  856MOL0     C12882  -0.563   6.912   3.343  0.3827  0.5163 -0.5469
  856MOL0     C12883  -0.542   7.025   3.444 -0.3705 -0.3355  0.1230
  856MOL0     O12884  -0.600   6.993   3.567 -0.0581 -0.1640 -0.7865
  856MOL0     C12885  -0.730   7.031   3.605 -0.6916  0.3227 -0.1014
  856MOL0     C12886  -0.822   7.078   3.513 -0.0301 -0.1418  0.4231
  856MOL0     C12887  -0.953   7.117   3.554  0.1821  0.1899  0.1189
  856MOL0     C12888  -0.997   7.076   3.682 -0.2467 -1.4035  0.3592
  856MOL0     C12889  -1.142   7.086   3.718  0.8061 -0.6115  0.2189
  856MOL0     O12890  -1.178   7.024   3.836 -0.0168  0.1986 -0.3893
  856MOL0     C12891  -1.308   7.009   3.860 -0.5160  0.6956  0.2416
  856MOL0     C12892  -1.395   7.116   3.894 -0.0297 -0.2204 -0.4312
  856MOL0     C12893  -1.525   7.104   3.943  0.0421  0.6009 -0.0283
  856MOL0     C12894  -1.573   6.974   3.973  0.4815 -0.2702  1.3065
  856MOL0     O12895  -1.689   6.962   4.037 -1.1612  0.4582  0.7548
  856MOL0     C12896  -1.751   6.834   4.053  0.9883 -0.7172  0.6244
  856MOL0     C12897  -1.862   6.853   4.151  0.7817 -0.5713 -0.0059
  856MOL0     C12898  -1.961   6.735   4.163  0.1557 -0.1568 -0.5314
  856MOL0     C12899  -2.080   6.767   4.244  0.3494 -0.1563 -0.2509
  856MOL0     C12900  -2.155   6.648   4.305 -0.4975  0.7489  0.6922
  856MOL0     C12901  -2.246   6.685   4.414 -0.4137  1.0663 -0.6080
  856MOL0     C12902  -2.346   6.794   4.370  0.2469  0.5538 -0.6257
  856MOL0     C12903  -2.464   6.806   4.463 -0.0616  0.4826 -0.0180
  856MOL0    Cl12904  -2.563   6.654   4.449  0.0737 -0.0090 -0.0526
  856MOL0     C12905  -1.486   6.868   3.948  0.5057 -0.3699  0.3406
  856MOL0     C12906  -1.362   6.879   3.889 -0.1130 -1.1463 -0.4593
  856MOL0     O12907  -1.217   7.146   3.645  0.4547 -0.3725  0.2878
  856MOL0     C12908  -0.902   7.017   3.775  0.5228 -0.5435  0.6123
  856MOL0     C12909  -0.766   7.007   3.736  0.2172  0.1115  1.2006
  856MOL0     N12910  -0.619   6.454   3.378 -0.4577 -1.0078  0.1272
  856MOL0     N12911  -0.566   6.340   3.396  0.5351  0.1331  0.3818
  856MOL0     C12912   0.344   5.725   3.701 -0.0814  0.1906 -0.2316
  856MOL0     C12913   0.453   5.694   3.783 -0.6410  0.2403 -0.3408
  856MOL0     C12914   0.856   5.678   3.943  0.2913  0.1705 -0.2312
  856MOL0     C12915   0.884   5.560   4.009 -0.1252  0.1931 -1.0227
  856MOL0     C12916   1.002   5.542   4.074 -0.3508 -0.1358  0.6132
  856MOL0     C12917   1.107   5.635   4.081 -0.1128 -0.6132 -0.2509
  856MOL0     O12918   1.229   5.628   4.149  0.2730  0.3516 -0.3210
  856MOL0     C12919   1.250   5.525   4.238 -0.4507  0.2206 -0.9254
  856MOL0     C12920   1.386   5.545   4.305  0.3248  0.8799  0.6247
  856MOL0     C12921   1.500   5.548   4.207  0.7659 -0.8787 -0.2118
  856MOL0     C12922   1.634   5.576   4.278  0.4628 -0.5198  0.5887
  856MOL0     C12923   1.704   5.470   4.341 -0.0844  0.0203  0.0123
  856MOL0     C12924   1.766   5.389   4.405 -0.3692 -0.2741  0.5120
  856MOL0     C12925   1.079   5.756   4.013  0.0251 -0.7153  0.8377
  856MOL0     C12926   0.954   5.782   3.949 -0.8123  0.2886  0.3367
  856MOL0     H12927   0.660   5.546   3.555 -0.0379 -0.4851  0.4287
  856MOL0     H12928   0.486   5.605   3.412 -2.2596  3.2493 -1.6133
  856MOL0     H12929   0.277   5.625   3.299  2.7302  0.9204  1.1511
  856MOL0     H12930   0.275   5.805   3.315 -0.8868 -0.3883 -1.4646
  856MOL0     H12931   0.028   5.624   3.345  1.0263 -1.1233 -0.7796
  856MOL0     H12932   0.095   5.691   3.200  1.9808 -0.7921  0.2305
  856MOL0     H12933   0.072   5.925   3.329 -0.3889 -0.2412 -1.7376
  856MOL0     H12934  -0.006   5.844   3.458 -2.7247  3.4603 -0.0346
  856MOL0     H12935  -0.115   5.861   3.172  1.9156  0.9075 -0.0502
  856MOL0     H12936  -0.184   5.748   3.288  1.2476 -0.2762 -0.8972
  856MOL0     H12937  -0.264   5.937   3.431  0.2251  5.1062  0.9672
  856MOL0     H12938  -0.312   5.965   3.259 -2.1185  2.5790  2.7346
  856MOL0     H12939  -0.154   6.125   3.220  0.2159  0.6593  0.3584
  856MOL0     H12940  -0.083   6.114   3.376  0.8492  2.5242 -2.2486
  856MOL0     H12941  -0.314   6.165   3.472 -2.0529 -0.3499 -0.6063
  856MOL0     H12942  -0.236   6.302   3.395 -1.8498  0.9624  0.1222
  856MOL0     H12943  -0.453   6.122   3.265  1.2467 -1.7607 -0.6663
  856MOL0     H12944  -0.345   6.230   3.175  1.1334  0.6481 -0.0320
  856MOL0     H12945  -0.373   6.471   3.173  1.3133  0.5167  1.1822
  856MOL0     H12946  -0.649   6.693   3.237  0.4525 -1.0902  0.4849
  856MOL0     H12947  -0.479   6.690   3.184 -0.9179 -2.0182 -1.1514
  856MOL0     H12948  -0.418   6.783   3.418  0.4371 -0.5288 -0.4359
  856MOL0     H12949  -0.582   6.727   3.471  1.5459 -1.3086  0.7254
  856MOL0     H12950  -0.508   6.942   3.253 -0.0803 -1.2231 -1.4503
  856MOL0     H12951  -0.670   6.905   3.320 -0.2362 -1.0477  2.3210
  856MOL0     H12952  -0.577   7.116   3.393 -0.2404 -1.5555 -2.2711
  856MOL0     H12953  -0.435   7.038   3.459 -0.0923 -1.3339 -0.9166
  856MOL0     H12954  -0.792   7.098   3.410  0.3976 -0.4706  0.4794
  856MOL0     H12955  -1.019   7.168   3.485  0.0703  1.7897  1.3609
  856MOL0     H12956  -1.374   7.220   3.874 -2.9003  0.1462 -2.1071
  856MOL0     H12957  -1.585   7.192   3.966  1.4208  1.1842  1.6432
  856MOL0     H12958  -1.683   6.758   4.092  2.6518 -0.3000 -1.3353
  856MOL0     H12959  -1.791   6.805   3.956  0.8043 -2.3912  1.1607
  856MOL0     H12960  -1.917   6.942   4.118  0.7610  0.4991  2.6139
  856MOL0     H12961  -1.812   6.875   4.246  3.9172 -0.1369 -1.6102
  856MOL0     H12962  -1.910   6.648   4.207 -3.7160 -1.1435  2.5437
  856MOL0     H12963  -1.992   6.702   4.063 -1.1222  1.0718 -0.5787
  856MOL0     H12964  -2.046   6.818   4.334  0.7810 -0.0652 -0.4666
  856MOL0     H12965  -2.153   6.822   4.184  0.8375  1.8556  0.9064
  856MOL0     H12966  -2.085   6.571   4.340 -0.5790 -0.4286 -1.5748
  856MOL0     H12967  -2.202   6.601   4.219  2.8470  0.6083 -1.2077
  856MOL0     H12968  -2.190   6.713   4.504 -0.8530 -1.6568  0.6329
  856MOL0     H12969  -2.300   6.597   4.451  0.7333  1.2575  1.6940
  856MOL0     H12970  -2.284   6.883   4.358  0.0765  0.9049  0.9307
  856MOL0     H12971  -2.392   6.771   4.274 -2.3527  0.5422  0.5442
  856MOL0     H12972  -2.534   6.889   4.454 -0.8111 -0.3350 -2.3002
  856MOL0     H12973  -2.416   6.802   4.561  2.3021 -0.7630 -1.1436
  856MOL0     H12974  -1.524   6.768   3.969 -0.3583 -0.5870 -1.9999
  856MOL0     H12975  -1.304   6.793   3.854 -1.0373 -1.6646 -0.7564
  856MOL0     H12976  -0.924   7.005   3.880  2.1701 -0.2971  1.0183
  856MOL0     H12977  -0.706   6.952   3.808 -1.4308  0.5281  2.9920
  856MOL0     H12978   0.252   5.768   3.741  2.6703  4.0198  2.7779
  856MOL0     H12979   0.458   5.721   3.889  1.8515  1.3135 -0.6556
  856MOL0     H12980   0.822   5.474   3.986  0.7743 -0.2272 -1.9421
  856MOL0     H12981   1.023   5.440   4.105  2.8791  0.1714 -0.2582
  856MOL0     H12982   1.240   5.434   4.179 -1.6813  0.9956 -1.9810
  856MOL0     H12983   1.176   5.525   4.318 -1.2392  2.4713 -1.5711
  856MOL0     H12984   1.396   5.634   4.368  1.5678  1.2142 -0.0088
  856MOL0     H12985   1.413   5.455   4.360 -0.2057 -1.1331 -2.1942
  856MOL0     H12986   1.487   5.627   4.133 -0.0245  0.9199  1.7603
  856MOL0     H12987   1.493   5.454   4.152  1.3561  0.0151 -1.8991
  856MOL0     H12988   1.703   5.608   4.199 -1.8361 -0.0663 -1.3373
  856MOL0     H12989   1.623   5.657   4.351  2.0202 -0.3303  0.6558
  856MOL0     H12990   1.822   5.323   4.468  0.1711  1.3435  1.7979
  856MOL0     H12991   1.159   5.829   4.017  0.5047 -0.9040 -2.4307
  856MOL0     H12992   0.939   5.881   3.906  3.4298  0.0079 -2.4178
  857MOL0     O12993   1.267   2.385   2.258 -0.6204 -0.4139 -0.4249
  857MOL0     C12994   1.268   2.414   2.376  0.0465  0.0602 -0.0447
  857MOL0     O12995   1.155   2.459   2.448 -1.3022 -0.0201  0.2736
  857MOL0     C12996   1.036   2.464   2.398  0.3896  0.1827  0.9082
  857MOL0     C12997   0.959   2.581   2.425  0.4423 -0.1702  0.0828
  857MOL0     C12998   0.824   2.598   2.395 -0.3735  0.4859 -0.2004
  857MOL0     C12999   0.764   2.494   2.317  0.0529 -0.2311  0.7046
  857MOL0     O13000   0.629   2.506   2.307 -0.3921  0.8665 -0.4183
  857MOL0     C13001   0.551   2.381   2.288  0.2455 -0.9855  0.0586
  857MOL0     C13002   0.407   2.418   2.279 -0.2254 -0.3990  0.1839
  857MOL0     C13003   0.364   2.514   2.168  0.7337  0.1969  0.8750
  857MOL0     C13004   0.216   2.529   2.172  1.0241 -0.7880 -0.5105
  857MOL0     C13005   0.149   2.402   2.119  0.1402  0.3623 -0.4215
  857MOL0     C13006   0.003   2.438   2.076 -0.0259  0.4358  0.1187
  857MOL0     C13007  -0.001   2.518   1.945 -0.8208  0.3935 -1.2587
  857MOL0     C13008  -0.145   2.505   1.896  0.3459  0.6406 -0.7770
  857MOL0     N13009  -0.250   2.579   1.973 -0.3313 -0.6374 -0.2953
  857MOL0     C13010  -0.231   2.706   2.026 -0.2019  0.0233 -0.1925
  857MOL0     C13011  -0.354   2.743   2.068  0.3516  1.5008  0.0403
  857MOL0     C13012  -0.394   2.869   2.139  1.1809 -0.1921  0.4992
  857MOL0     C13013  -0.409   2.850   2.290 -0.0234 -0.3392 -0.3527
  857MOL0     C13014  -0.430   2.972   2.370  0.3737  0.1918 -0.3609
  857MOL0     C13015  -0.401   2.952   2.522  0.2725  0.5252  0.3482
  857MOL0     O13016  -0.489   2.845   2.563  0.1081  0.3903  0.1072
  857MOL0     C13017  -0.617   2.880   2.596 -0.4432  0.4587 -0.1531
  857MOL0     C13018  -0.654   3.003   2.651  0.1243 -0.4751  0.6258
  857MOL0     C13019  -0.791   3.038   2.654  0.8425  0.6957  0.0215
  857MOL0     C13020  -0.891   2.961   2.600  0.5043 -0.6501 -0.3271
  857MOL0     C13021  -1.028   3.011   2.599 -0.5614 -0.1153  0.3770
  857MOL0     O13022  -1.108   2.945   2.514  0.2676 -0.1763  0.5597
  857MOL0     C13023  -1.244   2.980   2.513  0.7863  0.6237 -0.2871
  857MOL0     C13024  -1.337   2.885   2.556  0.6718  0.0063 -0.2562
  857MOL0     C13025  -1.471   2.912   2.566  0.3848 -0.5874 -0.2135
  857MOL0     C13026  -1.517   3.043   2.531  0.2243  0.3709 -0.7997
  857MOL0     O13027  -1.649   3.071   2.540  0.0612  0.1976  0.0414
  857MOL0     C13028  -1.738   3.025   2.640 -0.1288  0.5079 -0.8145
  857MOL0     C13029  -1.851   3.124   2.668 -0.7110  0.3013  0.0851
  857MOL0     C13030  -1.955   3.058   2.763 -0.0033  0.6353  0.0846
  857MOL0     C13031  -2.087   3.140   2.761 -0.0358 -1.0949 -0.5640
  857MOL0     C13032  -2.190   3.097   2.879 -0.4772  0.2334 -0.2219
  857MOL0     C13033  -2.301   3.200   2.902  0.6853 -0.1161 -0.1005
  857MOL0     C13034  -2.397   3.159   3.009 -0.0208  0.2345  0.4028
  857MOL0     C13035  -2.519   3.250   2.989 -0.2192  0.4357  0.2819
  857MOL0    Cl13036  -2.605   3.248   3.151 -0.2150  0.0696 -0.1800
  857MOL0     C13037  -1.428   3.142   2.487  0.0550  0.3362  0.5021
  857MOL0     C13038  -1.292   3.111   2.473 -0.3931  0.7914  0.2149
  857MOL0     O13039  -1.062   3.102   2.669  0.0157 -0.4347  0.1792
  857MOL0     C13040  -0.853   2.841   2.541 -0.5973  0.0579  0.1745
  857MOL0     C13041  -0.719   2.792   2.545 -0.2714  0.0805 -0.2347
  857MOL0     N13042  -0.436   2.632   2.045  0.1529  0.9633  0.0680
  857MOL0     N13043  -0.374   2.535   1.986  0.2267  0.9940 -0.0908
  857MOL0     C13044   0.839   2.376   2.288 -0.1795 -0.1253 -0.4497
  857MOL0     C13045   0.974   2.367   2.327  0.4168 -0.3576 -0.1470
  857MOL0     C13046   1.393   2.411   2.437  0.3236  0.4593 -0.2969
  857MOL0     C13047   1.409   2.416   2.577  0.6736 -0.8041 -0.1859
  857MOL0     C13048   1.543   2.421   2.632  1.0403 -0.5121 -0.2651
  857MOL0     C13049   1.652   2.410   2.547  0.4050  0.3109  0.2921
  857MOL0     O13050   1.776   2.428   2.610  0.7595 -0.0879 -0.3565
  857MOL0     C13051   1.865   2.319   2.582  0.5061 -0.2533 -0.9789
  857MOL0     C13052   1.834   2.184   2.661  0.6174 -0.0603  0.1405
  857MOL0     C13053   1.823   2.201   2.818 -1.0973 -0.3940 -0.1170
  857MOL0     C13054   1.748   2.093   2.895 -0.5349  0.7000  0.5851
  857MOL0     C13055   1.813   1.967   2.877  0.8737 -0.2084 -0.2105
  857MOL0     C13056   1.881   1.869   2.865 -0.3234 -1.5405  0.3828
  857MOL0     C13057   1.633   2.401   2.415 -0.3536  0.0164 -0.2151
  857MOL0     C13058   1.510   2.399   2.363  0.1007 -0.6025  0.8902
  857MOL0     H13059   1.004   2.667   2.473  0.1776  0.8904 -1.4758
  857MOL0     H13060   0.763   2.684   2.420 -1.5828 -0.8605  1.7720
  857MOL0     H13061   0.577   2.310   2.367  3.3094 -1.3620 -1.1700
  857MOL0     H13062   0.588   2.340   2.194  4.5331 -1.0581  1.5594
  857MOL0     H13063   0.374   2.460   2.374 -1.6215 -0.7198 -0.1297
  857MOL0     H13064   0.369   2.317   2.265  3.5764 -1.7863 -1.5613
  857MOL0     H13065   0.392   2.471   2.072  0.0111  0.7767  0.3990
  857MOL0     H13066   0.422   2.607   2.174 -1.1655  1.8665 -3.1327
  857MOL0     H13067   0.187   2.547   2.276  2.0473 -0.6276 -0.2431
  857MOL0     H13068   0.194   2.618   2.111  0.6285  0.5153  1.4451
  857MOL0     H13069   0.147   2.320   2.192 -0.6089 -0.6550 -1.5407
  857MOL0     H13070   0.206   2.361   2.036 -0.2571  1.8253 -1.4472
  857MOL0     H13071  -0.050   2.498   2.150 -0.8994  1.3250 -1.1896
  857MOL0     H13072  -0.040   2.340   2.055 -1.3209  1.2815 -1.3622
  857MOL0     H13073   0.030   2.620   1.970  2.4726 -1.1571  1.9415
  857MOL0     H13074   0.072   2.488   1.869  1.5223  2.2559  0.1053
  857MOL0     H13075  -0.173   2.400   1.903 -1.6422  1.1343 -0.7394
  857MOL0     H13076  -0.149   2.535   1.790  1.3432  3.1432 -0.1758
  857MOL0     H13077  -0.145   2.771   2.033 -0.1951 -0.0534  0.4603
  857MOL0     H13078  -0.500   2.866   2.112  1.0546 -2.1469  1.0299
  857MOL0     H13079  -0.338   2.957   2.107 -2.6895  3.0453  1.7306
  857MOL0     H13080  -0.315   2.801   2.316  2.5776  3.8901 -0.6974
  857MOL0     H13081  -0.497   2.788   2.306 -1.0814  0.2239 -3.3075
  857MOL0     H13082  -0.369   3.051   2.325 -0.5845 -0.0349 -2.1600
  857MOL0     H13083  -0.536   2.999   2.360  0.7844  3.1189  1.7350
  857MOL0     H13084  -0.408   3.044   2.581 -1.7136 -0.6496  2.1072
  857MOL0     H13085  -0.304   2.902   2.529 -2.1019 -5.1879 -1.7682
  857MOL0     H13086  -0.581   3.077   2.684  0.8980 -0.1200 -1.6746
  857MOL0     H13087  -0.820   3.132   2.700 -2.0480  0.8163 -1.8087
  857MOL0     H13088  -1.292   2.789   2.577  1.5319  0.2068 -1.0817
  857MOL0     H13089  -1.544   2.835   2.589  0.3140 -0.5319 -0.2525
  857MOL0     H13090  -1.687   3.001   2.734 -0.1218  1.8408 -0.4470
  857MOL0     H13091  -1.783   2.931   2.609 -0.9335  0.7031 -0.2659
  857MOL0     H13092  -1.896   3.149   2.572  2.2753  0.8770 -1.2658
  857MOL0     H13093  -1.815   3.216   2.716  0.1868  0.2887 -0.5411
  857MOL0     H13094  -1.912   3.047   2.863  1.5782 -1.5917 -0.7666
  857MOL0     H13095  -1.982   2.954   2.744  2.2140 -0.2372  1.3095
  857MOL0     H13096  -2.059   3.246   2.756 -2.2438 -0.5309 -2.4897
  857MOL0     H13097  -2.152   3.125   2.675 -1.3979  1.1252  0.0026
  857MOL0     H13098  -2.130   3.102   2.971 -0.6963  0.6060 -0.0954
  857MOL0     H13099  -2.233   3.000   2.854 -1.4289  0.9613 -1.4914
  857MOL0     H13100  -2.352   3.217   2.807 -0.2335  1.1214  0.5895
  857MOL0     H13101  -2.257   3.297   2.926  1.3813  0.1627 -2.3607
  857MOL0     H13102  -2.418   3.053   2.996  1.0345  0.1891 -1.2240
  857MOL0     H13103  -2.351   3.174   3.107 -0.8495  1.4200  0.6419
  857MOL0     H13104  -2.590   3.235   2.908  0.5863  0.0648 -0.3664
  857MOL0     H13105  -2.483   3.353   2.973  1.0984  0.0743  0.7817
  857MOL0     H13106  -1.457   3.246   2.472  0.3366  0.6354  1.8319
  857MOL0     H13107  -1.230   3.190   2.433 -0.9281 -0.3307 -3.1562
  857MOL0     H13108  -0.928   2.794   2.478  0.0566  0.8504 -1.2377
  857MOL0     H13109  -0.701   2.696   2.498  1.7252  0.1167  0.3596
  857MOL0     H13110   0.782   2.291   2.253 -1.9460  0.7860  0.1127
  857MOL0     H13111   1.022   2.273   2.305  0.9865 -0.6691  2.1552
  857MOL0     H13112   1.331   2.436   2.650  0.1394  3.3764 -1.6311
  857MOL0     H13113   1.560   2.440   2.737 -0.4945  1.7162 -0.3409
  857MOL0     H13114   1.966   2.353   2.605 -0.3571  0.3667  2.3572
  857MOL0     H13115   1.854   2.289   2.477 -0.6299 -1.3645 -0.5696
  857MOL0     H13116   1.744   2.136   2.622  2.0837 -1.0890 -2.1791
  857MOL0     H13117   1.920   2.121   2.633  0.7019  1.0060 -2.2243
  857MOL0     H13118   1.772   2.294   2.842 -0.7991  0.3442 -2.2018
  857MOL0     H13119   1.919   2.206   2.870 -0.7639 -1.4466 -0.5963
  857MOL0     H13120   1.749   2.110   3.003  0.1993  0.6294  0.5921
  857MOL0     H13121   1.644   2.074   2.865  0.0428 -3.1195  0.4932
  857MOL0     H13122   1.946   1.784   2.872  0.9153 -0.8924 -2.0358
  857MOL0     H13123   1.716   2.416   2.347  1.0130  0.8150  1.5688
  857MOL0     H13124   1.501   2.399   2.255 -0.2081 -0.5174  0.9145
  858MOL0     O13125   5.253   5.626   6.839  0.0830  0.2647  0.0284
  858MOL0     C13126   5.217   5.638   6.959  0.1641 -0.4395  1.1546
  858MOL0     O13127   5.091   5.624   7.004 -0.4358  0.1627 -0.6573
  858MOL0     C13128   4.984   5.577   6.926 -0.4771  0.4492  0.1970
  858MOL0     C13129   4.863   5.555   6.999 -0.9265  0.6655  0.7833
  858MOL0     C13130   4.745   5.490   6.949 -0.3550  0.7402  0.4051
  858MOL0     C13131   4.744   5.464   6.812  0.4008 -0.0372  0.9460
  858MOL0     O13132   4.626   5.425   6.753  0.6708  1.0453 -0.8159
  858MOL0     C13133   4.625   5.366   6.627 -0.6658  0.3009 -0.0342
  858MOL0     C13134   4.488   5.301   6.614 -0.2060 -0.3674  0.5207
  858MOL0     C13135   4.483   5.230   6.479 -0.4721  0.0048  0.5922
  858MOL0     C13136   4.412   5.098   6.466  0.0179  0.5331  0.6911
  858MOL0     C13137   4.260   5.109   6.449 -0.3672 -0.2757 -0.5464
  858MOL0     C13138   4.199   4.975   6.427  0.9568  0.9407  0.0605
  858MOL0     C13139   4.054   4.972   6.409  0.0630  0.5094  0.0975
  858MOL0     C13140   3.979   5.050   6.515 -0.5535  0.3821 -0.8057
  858MOL0     N13141   3.841   5.013   6.536  0.2726  0.2180  0.2411
  858MOL0     C13142   3.733   5.051   6.464 -0.4041 -0.0331  0.0046
  858MOL0     C13143   3.628   5.022   6.547  0.3898  0.6459 -0.3667
  858MOL0     C13144   3.489   5.004   6.501 -0.5477 -0.6260 -0.2131
  858MOL0     C13145   3.420   5.132   6.465 -0.4200 -0.0466  0.4380
  858MOL0     C13146   3.410   5.230   6.581 -1.2751  0.3122 -0.3084
  858MOL0     C13147   3.360   5.366   6.534  0.3500 -0.0754 -0.0138
  858MOL0     O13148   3.243   5.350   6.454  0.6352 -0.1252 -0.3973
  858MOL0     C13149   3.120   5.322   6.505  0.0111  0.4626 -0.5680
  858MOL0     C13150   3.015   5.302   6.414 -1.0405 -0.2014 -0.0212
  858MOL0     C13151   2.891   5.277   6.464 -0.4609  0.8538 -0.9024
  858MOL0     C13152   2.861   5.275   6.606 -0.5191  0.3631 -0.7884
  858MOL0     C13153   2.732   5.245   6.662  0.0428  0.4109 -0.0595
  858MOL0     O13154   2.647   5.181   6.567  0.1800 -0.1196 -0.5353
  858MOL0     C13155   2.523   5.140   6.594  0.3147  0.7460  0.6696
  858MOL0     C13156   2.436   5.139   6.484 -0.3385  0.7956 -0.0536
  858MOL0     C13157   2.301   5.110   6.508 -0.9381 -0.2840  0.6076
  858MOL0     C13158   2.255   5.066   6.635  0.5564  0.1236  0.0944
  858MOL0     O13159   2.118   5.044   6.644 -0.0426 -0.1505 -0.0358
  858MOL0     C13160   2.038   5.091   6.755 -0.4220  0.4574 -0.3543
  858MOL0     C13161   1.887   5.084   6.732  0.8297 -0.3172 -0.5337
  858MOL0     C13162   1.800   5.069   6.858 -0.1564  0.2391 -0.2307
  858MOL0     C13163   1.647   5.075   6.826 -0.2932  1.1767 -0.0002
  858MOL0     C13164   1.570   5.069   6.956 -0.4640  0.1239 -0.0918
  858MOL0     C13165   1.413   5.054   6.939 -0.9191  0.5689 -0.3626
  858MOL0     C13166   1.344   5.171   6.880 -0.0748 -0.8087 -0.1013
  858MOL0     C13167   1.195   5.159   6.897  0.4329  0.5596  0.2617
  858MOL0    Cl13168   1.131   5.041   6.778  0.2918 -0.1511 -0.3915
  858MOL0     C13169   2.346   5.049   6.737  0.3261 -0.3203 -0.1391
  858MOL0     C13170   2.480   5.085   6.714  0.1584  1.2740 -0.5625
  858MOL0     O13171   2.701   5.273   6.777 -0.5426 -0.4358  0.1928
  858MOL0     C13172   2.958   5.302   6.694  0.5569  0.4237  0.5337
  858MOL0     C13173   3.088   5.325   6.641  0.7083 -0.4636 -0.9088
  858MOL0     N13174   3.684   4.978   6.660 -0.3584 -0.4050 -0.6521
  858MOL0     N13175   3.807   4.977   6.663 -0.5711  0.1026 -0.0213
  858MOL0     C13176   4.860   5.502   6.736  0.5359  0.6356 -0.2385
  858MOL0     C13177   4.977   5.555   6.790  0.7852 -0.0111  0.9714
  858MOL0     C13178   5.315   5.689   7.057  0.2696 -0.2294 -0.8783
  858MOL0     C13179   5.449   5.654   7.058  0.7531  0.3934  0.1559
  858MOL0     C13180   5.533   5.691   7.165 -0.1114 -0.7228 -0.5143
  858MOL0     C13181   5.483   5.760   7.270 -0.0448  0.6758  0.6489
  858MOL0     O13182   5.582   5.793   7.353 -0.0616 -0.2295  0.4363
  858MOL0     C13183   5.568   5.879   7.468  0.4897 -0.2154 -0.0802
  858MOL0     C13184   5.516   5.801   7.585  0.0648 -0.4914 -0.2079
  858MOL0     C13185   5.628   5.698   7.627  0.1248  0.3523  0.3419
  858MOL0     C13186   5.697   5.726   7.756  0.9003  0.0643 -0.0982
  858MOL0     C13187   5.787   5.841   7.740 -1.0787 -0.4825 -0.1733
  858MOL0     C13188   5.864   5.941   7.741 -0.7555  0.6610 -0.8606
  858MOL0     C13189   5.356   5.808   7.267  0.4377  1.0912  0.1038
  858MOL0     C13190   5.274   5.785   7.154 -0.0218  0.4926 -1.0525
  858MOL0     H13191   4.861   5.572   7.107 -0.3077 -0.9311  1.0669
  858MOL0     H13192   4.657   5.469   7.009  0.1116  0.0805  0.8713
  858MOL0     H13193   4.700   5.288   6.619 -0.0722  0.9608 -1.4059
  858MOL0     H13194   4.630   5.438   6.544 -0.8587 -1.3386 -1.5175
  858MOL0     H13195   4.408   5.376   6.621  0.3758  0.5016 -1.3292
  858MOL0     H13196   4.466   5.221   6.685 -3.0496 -0.5828 -0.4895
  858MOL0     H13197   4.585   5.208   6.447 -1.2065  0.1659 -2.1224
  858MOL0     H13198   4.441   5.300   6.406 -0.8900 -0.0317  0.7918
  858MOL0     H13199   4.451   5.034   6.386 -2.1734  0.5733 -0.4792
  858MOL0     H13200   4.433   5.046   6.561  0.3834 -0.7274 -0.0560
  858MOL0     H13201   4.239   5.183   6.370 -0.8392  0.1462 -0.0292
  858MOL0     H13202   4.228   5.158   6.542 -0.5246  2.0799 -1.7422
  858MOL0     H13203   4.229   4.901   6.501 -1.3592 -1.0853 -0.8593
  858MOL0     H13204   4.247   4.940   6.335  1.6655  1.3336  0.2836
  858MOL0     H13205   4.018   4.996   6.308 -0.6545 -0.9358 -0.0148
  858MOL0     H13206   4.014   4.871   6.423 -3.6476  1.5330 -1.6952
  858MOL0     H13207   3.984   5.158   6.498 -0.5725  0.4705 -0.2631
  858MOL0     H13208   4.033   5.029   6.608  0.2274  0.3468 -1.2583
  858MOL0     H13209   3.728   5.094   6.364  0.6386  4.0258  1.5037
  858MOL0     H13210   3.429   4.956   6.578  1.1380 -0.7808  1.0495
  858MOL0     H13211   3.491   4.941   6.412  1.9107 -1.9992  0.7356
  858MOL0     H13212   3.320   5.107   6.429  0.6931 -0.0451 -3.0216
  858MOL0     H13213   3.472   5.188   6.387  0.1822  0.7007  1.3478
  858MOL0     H13214   3.348   5.188   6.661 -1.7974 -1.7473 -1.7179
  858MOL0     H13215   3.510   5.244   6.624  0.8490 -2.0425 -3.9042
  858MOL0     H13216   3.433   5.420   6.475  0.8900 -1.4850 -0.6744
  858MOL0     H13217   3.341   5.418   6.629 -0.2616 -0.5628  0.1405
  858MOL0     H13218   3.028   5.316   6.308  3.4436  2.6830  0.6468
  858MOL0     H13219   2.805   5.269   6.398 -1.4266 -0.4757  0.4563
  858MOL0     H13220   2.467   5.165   6.384 -1.5848 -2.1468 -1.3091
  858MOL0     H13221   2.227   5.128   6.430 -0.1212  3.0445  0.4593
  858MOL0     H13222   2.067   5.196   6.762 -2.7821  1.2173 -1.0935
  858MOL0     H13223   2.062   5.042   6.850 -2.3291  1.1190  0.5025
  858MOL0     H13224   1.867   4.998   6.668 -2.4874 -2.2190  2.6793
  858MOL0     H13225   1.861   5.171   6.671 -0.2513 -0.5921 -0.4756
  858MOL0     H13226   1.829   5.138   6.938 -0.3179 -1.1657  1.0918
  858MOL0     H13227   1.834   4.977   6.907 -0.1618 -0.0606 -0.7746
  858MOL0     H13228   1.632   5.176   6.787  1.7279  1.5500  0.0834
  858MOL0     H13229   1.617   4.998   6.754 -0.5658 -1.1435  2.4498
  858MOL0     H13230   1.596   5.153   7.021  1.9233 -0.1837 -0.5531
  858MOL0     H13231   1.606   4.985   7.016 -2.5155  0.3895  1.6352
  858MOL0     H13232   1.376   5.048   7.042 -1.1059 -1.6042 -0.5190
  858MOL0     H13233   1.394   4.954   6.898 -0.5570 -0.5335  1.9742
  858MOL0     H13234   1.383   5.259   6.932  1.6524 -1.2936 -0.5088
  858MOL0     H13235   1.361   5.186   6.773  2.9605  2.4856  0.6509
  858MOL0     H13236   1.150   5.257   6.880 -0.6098 -0.2026 -1.8137
  858MOL0     H13237   1.167   5.117   6.994 -2.1187 -0.9821 -1.0297
  858MOL0     H13238   2.310   5.019   6.835  2.4168 -3.2602 -0.1421
  858MOL0     H13239   2.544   5.062   6.798 -1.7063 -1.3277  0.2808
  858MOL0     H13240   2.948   5.288   6.801  0.4258 -3.5000  0.1452
  858MOL0     H13241   3.163   5.349   6.715 -0.9309  0.1655  0.5999
  858MOL0     H13242   4.849   5.497   6.628  0.5297  4.1838 -0.5134
  858MOL0     H13243   5.058   5.573   6.720 -2.0842 -3.6163 -3.8743
  858MOL0     H13244   5.484   5.593   6.976  0.6202  0.1782  0.2601
  858MOL0     H13245   5.634   5.652   7.171 -0.1049 -0.6304  0.0037
  858MOL0     H13246   5.499   5.955   7.429 -1.2623 -0.5015  2.1901
  858MOL0     H13247   5.664   5.926   7.489  1.4501 -2.2413  0.2924
  858MOL0     H13248   5.492   5.871   7.667  0.2410 -1.3468  0.5881
  858MOL0     H13249   5.424   5.746   7.566 -0.6025  0.4628  0.1369
  858MOL0     H13250   5.703   5.688   7.549 -1.3819 -2.3052 -0.9337
  858MOL0     H13251   5.587   5.596   7.633  0.4006  0.0676 -1.9103
  858MOL0     H13252   5.624   5.750   7.834  0.0878 -1.3030 -0.4106
  858MOL0     H13253   5.751   5.634   7.778  2.2903  0.4460 -1.6809
  858MOL0     H13254   5.924   6.030   7.742  0.8506 -0.3516 -2.1917
  858MOL0     H13255   5.321   5.863   7.354 -0.9266 -0.5396  0.6409
  858MOL0     H13256   5.175   5.827   7.162 -0.8040 -1.4449  0.0806
  859MOL0     O13257   2.516   0.111   2.322 -0.2561 -0.5984 -0.1640
  859MOL0     C13258   2.508   0.123   2.198 -0.1102 -0.2793  0.4687
  859MOL0     O13259   2.398   0.093   2.126 -0.6510 -0.3562  0.1875
  859MOL0     C13260   2.274   0.078   2.189 -0.9254  0.0459 -0.2413
  859MOL0     C13261   2.207  -0.044   2.169 -0.0715 -0.1394  0.1264
  859MOL0     C13262   2.080  -0.060   2.242 -0.0742  0.7149 -0.2010
  859MOL0     C13263   2.030   0.041   2.319 -0.3134  0.4349 -0.4587
  859MOL0     O13264   1.902   0.016   2.360  0.2899 -0.6943 -0.4143
  859MOL0     C13265   1.864   0.069   2.485  1.1546 -0.8660  0.2599
  859MOL0     C13266   1.712   0.057   2.507  0.1502  0.1600 -0.5069
  859MOL0     C13267   1.631   0.075   2.383 -0.1015  0.3889  0.7887
  859MOL0     C13268   1.475   0.079   2.407 -0.6463 -0.0972 -1.2107
  859MOL0     C13269   1.399   0.080   2.281  0.6756 -0.2289  0.0634
  859MOL0     C13270   1.395   0.216   2.212 -0.1717  0.3082  0.8721
  859MOL0     C13271   1.311   0.205   2.087  0.5403 -0.1904  0.1009
  859MOL0     C13272   1.157   0.231   2.118  0.3067 -0.0804 -0.8281
  859MOL0     N13273   1.070   0.197   2.013 -0.5777  0.4482  1.2730
  859MOL0     C13274   1.039   0.277   1.908  0.0513 -1.1490  0.4867
  859MOL0     C13275   0.957   0.204   1.825 -0.3124 -0.1050 -0.0794
  859MOL0     C13276   0.899   0.243   1.691  0.3065  0.3569  0.1163
  859MOL0     C13277   0.829   0.381   1.665  0.6706  0.3365  0.3718
  859MOL0     C13278   0.739   0.438   1.789 -1.0489 -0.6852 -0.7730
  859MOL0     C13279   0.606   0.367   1.809 -1.0280 -0.8747  0.3830
  859MOL0     O13280   0.554   0.440   1.929  0.4440  0.3886 -0.4395
  859MOL0     C13281   0.439   0.502   1.890 -0.1227 -0.3534  0.3088
  859MOL0     C13282   0.448   0.613   1.789  0.8437  0.8944 -0.7744
  859MOL0     C13283   0.334   0.700   1.780  0.1030  0.2363 -0.6668
  859MOL0     C13284   0.216   0.677   1.849  0.3962  0.2398  0.3315
  859MOL0     C13285   0.102   0.768   1.832 -0.0586  0.1050 -0.4911
  859MOL0     O13286  -0.015   0.701   1.811 -0.0055  0.0665  0.1805
  859MOL0     C13287  -0.127   0.785   1.801 -0.7248 -0.1656 -0.5184
  859MOL0     C13288  -0.166   0.873   1.909  0.0526  0.4089  1.3312
  859MOL0     C13289  -0.283   0.943   1.895 -0.0088  0.2957 -0.5505
  859MOL0     C13290  -0.355   0.941   1.773 -0.1552 -0.3518 -0.2949
  859MOL0     O13291  -0.466   1.014   1.747  0.1503  0.0636  0.0926
  859MOL0     C13292  -0.555   1.047   1.854  0.5609  0.1492 -0.3657
  859MOL0     C13293  -0.691   1.083   1.791 -0.8776 -0.0097  0.5447
  859MOL0     C13294  -0.808   1.079   1.894  0.4622 -0.0156  0.0129
  859MOL0     C13295  -0.946   1.110   1.833  0.7360  0.2935 -0.2706
  859MOL0     C13296  -1.047   1.128   1.949  0.0169  0.1961  0.3228
  859MOL0     C13297  -1.186   1.179   1.906  0.0991  0.1157  0.6980
  859MOL0     C13298  -1.290   1.186   2.020  0.0711  0.0784  0.2082
  859MOL0     C13299  -1.435   1.227   1.977 -0.0680  0.8566  0.1380
  859MOL0    Cl13300  -1.510   1.122   1.859 -0.1057  0.2057  0.0560
  859MOL0     C13301  -0.317   0.856   1.669 -0.2062  0.1991 -0.6231
  859MOL0     C13302  -0.208   0.783   1.682 -0.1410  0.5241 -0.5541
  859MOL0     O13303   0.120   0.891   1.815  0.2425  0.3406  0.2979
  859MOL0     C13304   0.209   0.563   1.931  0.6320  0.2587 -0.0621
  859MOL0     C13305   0.319   0.482   1.955  0.2179  0.9536  0.1074
  859MOL0     N13306   0.928   0.086   1.889  0.5387 -0.4801 -0.8868
  859MOL0     N13307   0.997   0.081   1.997 -0.5329  0.0711  1.0851
  859MOL0     C13308   2.101   0.158   2.320  0.3458  0.2100 -0.3639
  859MOL0     C13309   2.220   0.185   2.266 -0.7084  0.1239  0.2519
  859MOL0     C13310   2.620   0.175   2.118  0.1672  0.0379 -0.0331
  859MOL0     C13311   2.600   0.211   1.986  0.0724 -0.0177 -0.1612
  859MOL0     C13312   2.706   0.268   1.904  0.4323  0.0914  0.6063
  859MOL0     C13313   2.836   0.283   1.959  0.2723  0.5029 -0.6223
  859MOL0     O13314   2.939   0.340   1.884 -0.6758 -0.0180 -0.5592
  859MOL0     C13315   2.906   0.467   1.831 -0.3703  0.1155  0.4098
  859MOL0     C13316   3.028   0.554   1.811 -0.5765 -0.3508 -0.2234
  859MOL0     C13317   2.987   0.687   1.742  0.2406  0.6095  0.8555
  859MOL0     C13318   3.122   0.763   1.703 -0.1179  0.4016  0.2069
  859MOL0     C13319   3.196   0.804   1.820 -0.4909 -0.4288 -0.1239
  859MOL0     C13320   3.244   0.828   1.929  0.2906  0.3761  0.4535
  859MOL0     C13321   2.857   0.251   2.095  0.5883  0.0231 -0.4265
  859MOL0     C13322   2.747   0.189   2.172 -1.3518 -0.0687  0.9312
  859MOL0     H13323   2.258  -0.127   2.122  0.0151 -0.9916  1.6536
  859MOL0     H13324   2.032  -0.156   2.228 -1.4715  1.3991 -0.2319
  859MOL0     H13325   1.900   0.173   2.481  1.0544 -0.8601 -0.8726
  859MOL0     H13326   1.906   0.027   2.577  1.5602  2.1987  1.6031
  859MOL0     H13327   1.677   0.139   2.570 -1.9883 -2.0327  1.3808
  859MOL0     H13328   1.694  -0.039   2.556 -1.0384  0.3644 -0.5074
  859MOL0     H13329   1.650  -0.005   2.311 -4.0183 -0.1026  0.0686
  859MOL0     H13330   1.656   0.171   2.337 -1.3543  0.1001 -0.5829
  859MOL0     H13331   1.454  -0.015   2.458 -1.1183 -0.1902 -1.5726
  859MOL0     H13332   1.443   0.161   2.471  1.2416  1.0267 -1.6035
  859MOL0     H13333   1.300   0.043   2.310  1.3513 -0.8909  1.6915
  859MOL0     H13334   1.448   0.009   2.214  0.0667 -0.7729  0.1872
  859MOL0     H13335   1.496   0.224   2.170  0.1123 -1.5725  1.1102
  859MOL0     H13336   1.356   0.304   2.265 -3.8346  1.8371 -3.6642
  859MOL0     H13337   1.352   0.276   2.015  1.0859 -0.0928  0.5074
  859MOL0     H13338   1.318   0.107   2.038 -1.9301  0.3704 -1.6024
  859MOL0     H13339   1.127   0.336   2.126 -2.1037 -0.4781 -3.2118
  859MOL0     H13340   1.118   0.168   2.198 -2.9297 -0.3549 -2.4625
  859MOL0     H13341   1.080   0.377   1.898  0.2898 -0.7700  3.8899
  859MOL0     H13342   0.840   0.156   1.662  2.9304 -1.9443  1.2291
  859MOL0     H13343   0.980   0.229   1.619  1.9518 -1.8221  2.2195
  859MOL0     H13344   0.784   0.387   1.566 -0.1693 -1.9514  0.5641
  859MOL0     H13345   0.919   0.443   1.657  1.3028 -0.5124  0.7657
  859MOL0     H13346   0.798   0.426   1.880 -3.5237 -2.5536  0.7053
  859MOL0     H13347   0.717   0.543   1.767  2.3513  0.5789  1.0945
  859MOL0     H13348   0.631   0.264   1.834  0.7775 -0.5320  0.1762
  859MOL0     H13349   0.553   0.372   1.713 -0.1889 -0.0540 -0.0574
  859MOL0     H13350   0.546   0.644   1.753  2.4924 -1.5587  1.2726
  859MOL0     H13351   0.343   0.781   1.708 -1.9744  0.7640 -0.4019
  859MOL0     H13352  -0.120   0.875   2.008 -1.0550 -0.3626  1.8775
  859MOL0     H13353  -0.320   1.012   1.970 -1.9139 -0.1574 -1.0160
  859MOL0     H13354  -0.513   1.125   1.919  0.7855 -0.1910 -0.0998
  859MOL0     H13355  -0.568   0.958   1.917  4.4965  0.2413  0.8271
  859MOL0     H13356  -0.706   1.009   1.712 -1.2585  2.3067 -1.6960
  859MOL0     H13357  -0.685   1.177   1.735  3.2524  0.5348  1.5786
  859MOL0     H13358  -0.793   1.155   1.971 -0.9671 -0.9809  1.2995
  859MOL0     H13359  -0.816   0.984   1.948  0.5195 -0.7364 -1.2053
  859MOL0     H13360  -0.940   1.199   1.770 -1.7833  0.8033  0.1317
  859MOL0     H13361  -0.979   1.025   1.772  2.1859 -1.5634  1.3521
  859MOL0     H13362  -1.004   1.207   2.011 -0.1721  2.2144 -1.9460
  859MOL0     H13363  -1.049   1.034   2.005  3.7471 -1.1979 -1.5611
  859MOL0     H13364  -1.218   1.136   1.811  2.1533 -3.8915  1.5994
  859MOL0     H13365  -1.171   1.285   1.884  1.0017  0.3393  2.2165
  859MOL0     H13366  -1.305   1.089   2.069 -2.2696  0.2514 -0.0181
  859MOL0     H13367  -1.257   1.254   2.099 -2.6080 -0.1418  1.6441
  859MOL0     H13368  -1.431   1.327   1.933  3.0009  0.7899  0.0400
  859MOL0     H13369  -1.493   1.226   2.069 -1.7118 -0.1422 -0.8550
  859MOL0     H13370  -0.374   0.852   1.576 -0.5691 -0.7619 -0.3742
  859MOL0     H13371  -0.173   0.724   1.598 -0.9966  1.5552 -1.6791
  859MOL0     H13372   0.112   0.529   1.967  0.4752  0.3209 -0.4293
  859MOL0     H13373   0.309   0.403   2.029 -0.3958  1.8148  0.9671
  859MOL0     H13374   2.055   0.247   2.362  0.4648  0.0401  0.1358
  859MOL0     H13375   2.266   0.283   2.280  1.0611 -0.6511  0.1866
  859MOL0     H13376   2.506   0.203   1.933 -0.6022  3.8496  0.1443
  859MOL0     H13377   2.680   0.269   1.799 -2.1524  1.1364  1.1885
  859MOL0     H13378   2.833   0.517   1.895  1.7271  1.1497  2.1380
  859MOL0     H13379   2.863   0.436   1.735  0.5789 -1.3459  0.4184
  859MOL0     H13380   3.057   0.581   1.913 -0.7573 -1.0482  0.0237
  859MOL0     H13381   3.110   0.505   1.757  0.9401  3.9670 -2.2980
  859MOL0     H13382   2.926   0.758   1.798  0.7873  4.8988 -3.2490
  859MOL0     H13383   2.928   0.670   1.651  1.2783  0.7776  0.1359
  859MOL0     H13384   3.179   0.703   1.631 -1.6520  0.7691 -1.3934
  859MOL0     H13385   3.101   0.848   1.638  0.9812 -1.6323 -3.0919
  859MOL0     H13386   3.279   0.866   2.023  1.9091 -0.7898  0.3606
  859MOL0     H13387   2.955   0.252   2.141  0.8337  1.1405 -0.9321
  859MOL0     H13388   2.759   0.161   2.276 -1.3109  0.5635  1.1020
  860MOL0     O13389   2.734   5.815   6.972  1.0974 -0.1409  0.0928
  860MOL0     C13390   2.821   5.733   6.994 -0.8281 -0.2639 -0.1106
  860MOL0     O13391   2.809   5.610   7.053  0.6838  0.3536  0.2583
  860MOL0     C13392   2.687   5.549   7.065 -0.0197 -0.5323 -0.2997
  860MOL0     C13393   2.614   5.506   6.951 -0.0557  0.1532 -0.4213
  860MOL0     C13394   2.493   5.443   6.965  0.0544 -0.4268  0.4615
  860MOL0     C13395   2.437   5.427   7.085  0.7513  0.2330  0.6286
  860MOL0     O13396   2.311   5.356   7.100  0.2321  0.2342  0.7556
  860MOL0     C13397   2.208   5.356   6.992  0.1026  0.3167  0.0203
  860MOL0     C13398   2.068   5.334   7.055 -0.7434 -0.6489 -0.8762
  860MOL0     C13399   2.014   5.452   7.140  0.0359  0.3037 -0.7784
  860MOL0     C13400   1.880   5.418   7.215  0.4111 -0.0014  0.6789
  860MOL0     C13401   1.813   5.538   7.284 -0.1351 -0.1741 -0.4967
  860MOL0     C13402   1.684   5.488   7.343 -0.5401 -0.7096 -0.4333
  860MOL0     C13403   1.607   5.586   7.426 -0.5813  0.1776  0.5100
  860MOL0     C13404   1.535   5.706   7.354  0.1811  0.2555 -0.3115
  860MOL0     N13405   1.464   5.790   7.455  0.1398 -0.3167 -0.4122
  860MOL0     C13406   1.326   5.822   7.460 -0.6050  0.2152  0.0378
  860MOL0     C13407   1.311   5.900   7.568  1.1272 -0.0045 -0.0235
  860MOL0     C13408   1.175   5.933   7.635  0.0209  0.1690 -1.2819
  860MOL0     C13409   1.055   5.950   7.541 -0.1285  0.3639 -0.1031
  860MOL0     C13410   0.919   5.969   7.613 -0.0526  0.2946  0.5582
  860MOL0     C13411   0.812   6.025   7.523 -0.7070  0.1902 -0.4237
  860MOL0     O13412   0.694   6.034   7.602 -0.1566  0.1887 -0.4528
  860MOL0     C13413   0.574   6.016   7.539  0.5988 -0.2870 -0.4951
  860MOL0     C13414   0.476   5.922   7.578 -0.2907 -0.4202 -0.1950
  860MOL0     C13415   0.358   5.902   7.505 -0.1592 -0.1845 -0.3262
  860MOL0     C13416   0.322   5.984   7.399 -0.0546  0.5534 -0.1929
  860MOL0     C13417   0.195   5.979   7.320 -0.9787 -0.8359  0.0372
  860MOL0     O13418   0.092   5.901   7.371  0.2114  0.6076 -0.0297
  860MOL0     C13419  -0.022   5.884   7.300  0.1167  0.2362 -0.2646
  860MOL0     C13420  -0.035   5.884   7.160 -0.0233 -0.4277  0.3788
  860MOL0     C13421  -0.165   5.864   7.114 -0.3560  0.7141  0.3446
  860MOL0     C13422  -0.274   5.835   7.193 -0.5161 -0.6703  0.1402
  860MOL0     O13423  -0.396   5.806   7.149  0.2842 -0.0900 -0.3004
  860MOL0     C13424  -0.450   5.880   7.035 -1.1919 -0.2380 -0.1388
  860MOL0     C13425  -0.592   5.864   7.049 -0.2861  0.2029 -0.0257
  860MOL0     C13426  -0.682   5.903   6.935 -0.2623 -0.5404  0.7521
  860MOL0     C13427  -0.644   5.855   6.793 -0.2163  0.0477 -0.7789
  860MOL0     C13428  -0.766   5.872   6.704 -0.9124 -0.8958 -0.0018
  860MOL0     C13429  -0.747   5.839   6.558  0.9146  0.0160 -0.6459
  860MOL0     C13430  -0.871   5.855   6.468 -0.7384  0.4127 -0.1089
  860MOL0     C13431  -0.854   5.776   6.336 -0.0756 -0.2181 -0.1449
  860MOL0    Cl13432  -1.012   5.773   6.248  0.1186  0.0717 -0.1339
  860MOL0     C13433  -0.259   5.841   7.331  0.0534 -0.8912  0.7747
  860MOL0     C13434  -0.131   5.864   7.380 -0.2622  0.8639 -0.6006
  860MOL0     O13435   0.184   6.054   7.219 -0.3284  0.0638 -0.4011
  860MOL0     C13436   0.422   6.079   7.367  0.2499  0.0479  0.2964
  860MOL0     C13437   0.550   6.091   7.428  1.1503  0.5358 -0.2144
  860MOL0     N13438   1.431   5.942   7.621 -0.9711  0.3233 -0.5093
  860MOL0     N13439   1.520   5.874   7.546 -0.1114 -0.5363 -0.3188
  860MOL0     C13440   2.506   5.466   7.200  0.2654 -0.4364 -0.0936
  860MOL0     C13441   2.631   5.525   7.186  0.2728  0.5157 -0.0580
  860MOL0     C13442   2.958   5.783   6.949  0.2571  0.5082  0.2267
  860MOL0     C13443   3.073   5.703   6.974  0.1187 -0.3544  0.0520
  860MOL0     C13444   3.197   5.741   6.909 -0.1491 -0.5981 -0.1895
  860MOL0     C13445   3.206   5.858   6.841 -0.8612 -0.7768 -0.2696
  860MOL0     O13446   3.323   5.898   6.791  0.0628 -0.4029 -0.3123
  860MOL0     C13447   3.361   6.030   6.818 -0.2051 -0.1106 -0.6000
  860MOL0     C13448   3.510   6.042   6.834  0.2324  0.8866  0.3871
  860MOL0     C13449   3.582   6.031   6.699  0.6695  0.0241 -0.6568
  860MOL0     C13450   3.726   6.076   6.719  0.9800  0.0859 -0.3008
  860MOL0     C13451   3.789   6.076   6.585  1.5675  0.8571 -0.3319
  860MOL0     C13452   3.835   6.082   6.474  0.4611 -0.5646  0.6135
  860MOL0     C13453   3.092   5.934   6.820 -0.4829 -0.6908 -0.0310
  860MOL0     C13454   2.971   5.898   6.881 -0.1985 -0.2029 -0.2267
  860MOL0     H13455   2.659   5.537   6.858  1.9307 -0.4346  0.2985
  860MOL0     H13456   2.447   5.424   6.868 -0.6463  0.9688  0.4903
  860MOL0     H13457   2.221   5.274   6.920 -3.5032  0.3831 -0.8657
  860MOL0     H13458   2.199   5.442   6.925  2.1601 -1.1180 -2.2927
  860MOL0     H13459   2.092   5.250   7.121 -3.1860 -1.6183 -1.1220
  860MOL0     H13460   2.002   5.298   6.976 -1.0756  1.5096 -1.6412
  860MOL0     H13461   1.997   5.529   7.064 -0.8533 -0.7931 -1.7323
  860MOL0     H13462   2.083   5.475   7.222  1.7845 -1.6307 -1.6140
  860MOL0     H13463   1.812   5.365   7.148  2.9923 -0.9039 -1.3759
  860MOL0     H13464   1.904   5.344   7.292  0.5747 -0.2770  0.3660
  860MOL0     H13465   1.785   5.611   7.208 -0.0615 -0.3067 -0.6516
  860MOL0     H13466   1.881   5.582   7.358  1.1969 -4.3041  1.0408
  860MOL0     H13467   1.727   5.411   7.406  1.1461  0.4939 -0.0411
  860MOL0     H13468   1.620   5.442   7.267  1.3934 -2.5550 -1.0390
  860MOL0     H13469   1.529   5.543   7.489  1.5600 -2.1134  1.8009
  860MOL0     H13470   1.683   5.640   7.484  0.5397  1.7977 -2.2532
  860MOL0     H13471   1.463   5.664   7.283  1.8101  1.3812 -2.7722
  860MOL0     H13472   1.612   5.772   7.312  0.7313 -0.1673  0.0092
  860MOL0     H13473   1.250   5.775   7.399 -0.7226  1.5051 -0.8552
  860MOL0     H13474   1.180   6.020   7.701  0.1565 -0.7716 -0.0136
  860MOL0     H13475   1.150   5.848   7.700 -1.1059  0.5011 -1.2622
  860MOL0     H13476   1.056   5.864   7.473  2.5499  0.8149 -0.7108
  860MOL0     H13477   1.076   6.043   7.487  0.8046  1.7992  2.5578
  860MOL0     H13478   0.880   5.877   7.657  0.7057 -1.0148 -1.3878
  860MOL0     H13479   0.929   6.042   7.694  1.0020 -0.4032  1.0745
  860MOL0     H13480   0.789   5.955   7.442  0.1562 -2.4656  1.4794
  860MOL0     H13481   0.845   6.117   7.475  1.1824 -1.1619 -1.8714
  860MOL0     H13482   0.496   5.865   7.669 -1.2742  1.7475  1.4725
  860MOL0     H13483   0.294   5.834   7.560  0.8426  1.2384  2.8501
  860MOL0     H13484   0.042   5.907   7.087 -0.8795 -2.5246 -1.2811
  860MOL0     H13485  -0.183   5.868   7.007 -0.5719  0.9002  0.3855
  860MOL0     H13486  -0.396   5.848   6.946 -0.0601 -1.2614  0.8740
  860MOL0     H13487  -0.426   5.986   7.050 -0.7021 -0.4429  0.5640
  860MOL0     H13488  -0.625   5.917   7.139  2.7296 -0.3813  1.5304
  860MOL0     H13489  -0.608   5.756   7.052 -1.7385 -0.1443 -6.1796
  860MOL0     H13490  -0.687   6.012   6.940  1.3663 -0.3242 -1.2011
  860MOL0     H13491  -0.783   5.865   6.952 -0.7955  0.3326 -0.4021
  860MOL0     H13492  -0.563   5.922   6.761 -0.9068  0.3825 -1.8876
  860MOL0     H13493  -0.604   5.754   6.798 -1.2151 -0.2848  2.0076
  860MOL0     H13494  -0.792   5.978   6.702 -0.7840 -0.8023 -4.0040
  860MOL0     H13495  -0.846   5.801   6.726 -1.8800 -0.1589 -0.9865
  860MOL0     H13496  -0.718   5.735   6.542 -1.4923 -0.7421 -0.5132
  860MOL0     H13497  -0.669   5.905   6.520  0.6574 -0.6827 -2.4786
  860MOL0     H13498  -0.956   5.818   6.526 -1.5208  0.6231 -1.1050
  860MOL0     H13499  -0.892   5.961   6.457  3.5564  1.7609  2.3866
  860MOL0     H13500  -0.827   5.671   6.354 -2.2728 -0.6954  0.6619
  860MOL0     H13501  -0.777   5.823   6.275  1.2127 -1.0775  0.7548
  860MOL0     H13502  -0.344   5.804   7.387 -3.3210  1.0695 -2.5677
  860MOL0     H13503  -0.117   5.845   7.486 -0.0837 -0.3228 -0.8196
  860MOL0     H13504   0.398   6.142   7.282  0.8337  1.3896  1.0997
  860MOL0     H13505   0.623   6.164   7.396  1.6832 -0.4230 -1.2921
  860MOL0     H13506   2.450   5.432   7.287 -1.5225 -0.1235 -1.0631
  860MOL0     H13507   2.690   5.542   7.276 -1.1061 -0.4355  1.0729
  860MOL0     H13508   3.070   5.609   7.028  2.7577 -2.2815 -2.7897
  860MOL0     H13509   3.289   5.683   6.914  1.9140  2.3576 -1.3928
  860MOL0     H13510   3.317   6.066   6.912 -0.7071 -2.3563  0.0928
  860MOL0     H13511   3.320   6.100   6.744 -1.1108  0.7654  0.6862
  860MOL0     H13512   3.543   6.136   6.881  4.2972  0.5493 -1.3313
  860MOL0     H13513   3.537   5.950   6.885 -3.4354 -0.3158  0.4362
  860MOL0     H13514   3.539   6.100   6.626 -0.2786  0.3838  0.2248
  860MOL0     H13515   3.582   5.926   6.666 -2.9795 -0.5028  0.5747
  860MOL0     H13516   3.731   6.180   6.754  1.9113  0.4564 -1.4625
  860MOL0     H13517   3.769   6.006   6.790  0.7134  1.2733  1.0832
  860MOL0     H13518   3.884   6.086   6.379 -0.1549 -3.1112  0.0947
  860MOL0     H13519   3.105   6.023   6.761  0.9109 -0.7666  0.1303
  860MOL0     H13520   2.889   5.968   6.867  1.5650  3.5738  4.8643
  861MOL0     O13521   0.930   0.032   0.417  0.5529 -0.3769 -0.5801
  861MOL0     C13522   0.899  -0.061   0.487 -0.3971  0.8398 -0.7312
  861MOL0     O13523   0.780  -0.081   0.550 -0.3219 -0.1644 -0.8532
  861MOL0     C13524   0.667   0.003   0.534  0.1675  1.0319  0.0605
  861MOL0     C13525   0.661   0.130   0.473  0.5252 -0.7307  0.9620
  861MOL0     C13526   0.548   0.215   0.488 -0.3645  0.4577  0.4120
  861MOL0     C13527   0.435   0.160   0.552 -0.1236  0.3899 -1.1059
  861MOL0     O13528   0.324   0.240   0.548  0.2447 -0.6402 -0.2226
  861MOL0     C13529   0.214   0.229   0.638  0.0297 -0.3843  0.5860
  861MOL0     C13530   0.122   0.354   0.641  0.3034  0.7643 -0.1450
  861MOL0     C13531   0.195   0.482   0.655 -0.3745  0.4477 -0.6065
  861MOL0     C13532   0.119   0.589   0.730 -0.0021  0.0584  0.3189
  861MOL0     C13533   0.003   0.648   0.646  0.1265  0.1239 -0.9160
  861MOL0     C13534  -0.143   0.610   0.687  0.5783  0.6210  0.2249
  861MOL0     C13535  -0.245   0.681   0.602 -0.1856  0.6244  0.2615
  861MOL0     C13536  -0.239   0.653   0.443  0.5519 -0.3744 -0.1052
  861MOL0     N13537  -0.353   0.703   0.367  0.3497 -0.2111 -0.1205
  861MOL0     C13538  -0.480   0.655   0.380 -0.2496  0.3774  0.3109
  861MOL0     C13539  -0.548   0.727   0.291 -0.1191  0.0658 -0.1801
  861MOL0     C13540  -0.702   0.725   0.295 -0.2757  0.5471  0.6674
  861MOL0     C13541  -0.758   0.804   0.415  1.3217 -0.6251  0.1577
  861MOL0     C13542  -0.741   0.959   0.401  0.6010 -1.0952  0.4607
  861MOL0     C13543  -0.800   1.013   0.524  0.6385 -0.9244  0.7421
  861MOL0     O13544  -0.808   1.160   0.516  0.0364 -0.3716 -0.3198
  861MOL0     C13545  -0.908   1.228   0.447 -0.3905 -0.0273 -0.2497
  861MOL0     C13546  -1.027   1.176   0.389 -0.2911  0.1753 -0.5927
  861MOL0     C13547  -1.128   1.263   0.330 -0.0833  0.3214 -0.6015
  861MOL0     C13548  -1.099   1.398   0.327 -0.3056 -0.1292  0.3245
  861MOL0     C13549  -1.174   1.501   0.257 -0.0107 -0.1316 -0.4702
  861MOL0     O13550  -1.298   1.461   0.233  0.3546 -0.0647 -0.0044
  861MOL0     C13551  -1.387   1.547   0.173  0.4497  0.1666  0.7803
  861MOL0     C13552  -1.388   1.574   0.032 -0.3144 -0.2401 -0.4891
  861MOL0     C13553  -1.480   1.659  -0.025  1.3835 -0.1871  0.2988
  861MOL0     C13554  -1.588   1.721   0.047 -0.5819  0.6471  0.0084
  861MOL0     O13555  -1.690   1.789  -0.010 -0.6750  0.3595  0.0624
  861MOL0     C13556  -1.755   1.725  -0.122  0.1690 -0.1728 -0.7682
  861MOL0     C13557  -1.731   1.792  -0.263  1.2398  0.5934  0.2387
  861MOL0     C13558  -1.787   1.939  -0.270 -0.2671 -0.2199  1.2318
  861MOL0     C13559  -1.936   1.957  -0.254 -0.0096  0.3748  0.2521
  861MOL0     C13560  -1.983   2.100  -0.265  0.5636  0.5216 -0.5015
  861MOL0     C13561  -1.898   2.210  -0.193  0.6535  0.4329 -0.1602
  861MOL0     C13562  -1.957   2.353  -0.200 -0.9402  0.2575  0.5698
  861MOL0     C13563  -2.088   2.356  -0.118 -0.3346  0.6403  0.6181
  861MOL0    Cl13564  -2.161   2.520  -0.091 -0.2782  0.5990  0.4014
  861MOL0     C13565  -1.585   1.691   0.183  0.0887  0.0117 -0.0104
  861MOL0     C13566  -1.483   1.616   0.247 -0.3198 -0.0143 -0.2986
  861MOL0     O13567  -1.130   1.609   0.219  0.0933 -0.3761  0.6829
  861MOL0     C13568  -0.969   1.436   0.360  0.0521 -0.9074  0.5139
  861MOL0     C13569  -0.877   1.359   0.432  0.3604  0.0047 -0.0488
  861MOL0     N13570  -0.462   0.820   0.234  0.0810 -1.6855  0.2793
  861MOL0     N13571  -0.346   0.807   0.280 -0.3415 -0.1118 -0.0728
  861MOL0     C13572   0.438   0.037   0.620 -0.8087 -0.0199  0.3457
  861MOL0     C13573   0.553  -0.046   0.602 -1.3141  0.4110 -0.1443
  861MOL0     C13574   1.009  -0.158   0.524 -0.2810  0.1078  1.5768
  861MOL0     C13575   1.132  -0.152   0.450 -0.1620  0.3348  0.1778
  861MOL0     C13576   1.242  -0.227   0.489  0.8357 -0.6053  0.4966
  861MOL0     C13577   1.224  -0.323   0.585 -0.0630  0.3560  0.0527
  861MOL0     O13578   1.333  -0.403   0.633  0.3883 -0.6167 -0.8974
  861MOL0     C13579   1.460  -0.412   0.565  0.0374  0.0452 -0.1413
  861MOL0     C13580   1.535  -0.530   0.634 -0.2741  0.0134  0.2765
  861MOL0     C13581   1.686  -0.531   0.593  0.8813  0.2739  0.0866
  861MOL0     C13582   1.755  -0.646   0.647 -0.4951  0.0027 -0.4496
  861MOL0     C13583   1.895  -0.625   0.642  0.3025  0.2432  0.2881
  861MOL0     C13584   2.016  -0.603   0.652 -0.5121 -0.0390 -0.4672
  861MOL0     C13585   1.106  -0.334   0.654 -0.8238  0.6582  0.3352
  861MOL0     C13586   0.994  -0.262   0.620 -0.1076 -0.1621  0.0090
  861MOL0     H13587   0.738   0.173   0.410 -0.8733 -3.0235 -2.6179
  861MOL0     H13588   0.556   0.312   0.439  1.7534  0.3338  0.4079
  861MOL0     H13589   0.255   0.209   0.737 -0.1352 -2.5265  0.2747
  861MOL0     H13590   0.145   0.157   0.592 -2.2688  1.7010  0.5713
  861MOL0     H13591   0.046   0.340   0.719 -1.5295  1.3061 -1.7502
  861MOL0     H13592   0.064   0.362   0.548 -2.1660 -3.5363  0.7465
  861MOL0     H13593   0.229   0.528   0.562  1.8248 -2.5185 -1.4212
  861MOL0     H13594   0.287   0.466   0.712 -0.9653 -3.8521 -0.5328
  861MOL0     H13595   0.080   0.547   0.823 -1.7153 -0.4249 -0.5744
  861MOL0     H13596   0.187   0.672   0.754  1.4007 -0.6229 -1.0563
  861MOL0     H13597   0.021   0.630   0.540  0.7890  1.2042 -0.9991
  861MOL0     H13598  -0.001   0.757   0.658 -1.3064 -0.0344  0.4336
  861MOL0     H13599  -0.146   0.634   0.793  1.2628 -1.2311  0.7021
  861MOL0     H13600  -0.148   0.502   0.676  1.4575  0.2847  2.6686
  861MOL0     H13601  -0.341   0.640   0.635  0.6348 -0.5174  1.3422
  861MOL0     H13602  -0.239   0.790   0.609  1.3780  0.5110  1.0482
  861MOL0     H13603  -0.226   0.546   0.429 -2.7628 -0.6680 -2.1036
  861MOL0     H13604  -0.151   0.697   0.395  1.1763 -1.5907 -0.1057
  861MOL0     H13605  -0.531   0.589   0.450 -0.6978  0.9555  0.5420
  861MOL0     H13606  -0.738   0.623   0.306 -0.2362  0.3791 -0.6360
  861MOL0     H13607  -0.747   0.764   0.203 -2.8495 -2.6867  0.3792
  861MOL0     H13608  -0.714   0.770   0.509 -1.2624 -1.2862  1.2280
  861MOL0     H13609  -0.861   0.769   0.428  1.8045 -1.9141  0.6666
  861MOL0     H13610  -0.635   0.983   0.398  0.5935 -1.0831  0.2302
  861MOL0     H13611  -0.799   0.998   0.316  0.5149  0.2545  1.1182
  861MOL0     H13612  -0.731   0.996   0.607  1.5112  1.1841  0.4883
  861MOL0     H13613  -0.895   0.965   0.552  0.8811 -1.9149 -0.0737
  861MOL0     H13614  -1.047   1.071   0.402  1.0489  0.0732  0.9799
  861MOL0     H13615  -1.213   1.219   0.280  1.5568 -2.8840 -0.8490
  861MOL0     H13616  -1.322   1.527  -0.041 -0.1423  3.1516 -2.7245
  861MOL0     H13617  -1.471   1.666  -0.133  1.0692 -1.8267  0.1461
  861MOL0     H13618  -1.862   1.720  -0.103  0.5757 -0.3084  1.8127
  861MOL0     H13619  -1.723   1.621  -0.131  1.5854  0.3390 -2.2006
  861MOL0     H13620  -1.770   1.726  -0.341  0.9843  0.4452  0.4925
  861MOL0     H13621  -1.623   1.801  -0.276  1.1363  1.1795 -0.2828
  861MOL0     H13622  -1.760   1.971  -0.371 -2.7191  0.7895  0.8373
  861MOL0     H13623  -1.735   2.001  -0.197  3.0560 -2.2502  0.7826
  861MOL0     H13624  -1.991   1.899  -0.329  0.6360 -2.2753  1.6766
  861MOL0     H13625  -1.976   1.921  -0.159 -0.0402  1.8243  0.8058
  861MOL0     H13626  -2.084   2.096  -0.221 -0.0970  0.1144 -2.0034
  861MOL0     H13627  -2.002   2.127  -0.369  0.1499  0.8259 -0.3510
  861MOL0     H13628  -1.798   2.217  -0.237  1.1842 -1.0595  0.7390
  861MOL0     H13629  -1.893   2.170  -0.091  0.1950 -0.2074 -0.3850
  861MOL0     H13630  -1.890   2.430  -0.162 -0.3296  1.5859 -2.8223
  861MOL0     H13631  -1.965   2.383  -0.305  2.9829  0.3952  0.1608
  861MOL0     H13632  -2.058   2.311  -0.022  1.2596 -0.4233 -0.3418
  861MOL0     H13633  -2.163   2.290  -0.163  0.7406 -0.1154 -0.1162
  861MOL0     H13634  -1.666   1.732   0.242  1.3699  0.8232  1.2352
  861MOL0     H13635  -1.484   1.613   0.356  0.8188  0.6965 -0.2499
  861MOL0     H13636  -0.943   1.538   0.333 -1.9179 -0.6662 -0.6774
  861MOL0     H13637  -0.776   1.387   0.460  0.5974 -2.2184  1.5132
  861MOL0     H13638   0.360   0.005   0.689 -1.7771 -0.0142 -0.7262
  861MOL0     H13639   0.562  -0.138   0.658  2.5697  1.0585  0.6057
  861MOL0     H13640   1.152  -0.077   0.375 -0.1566 -0.3152 -0.4767
  861MOL0     H13641   1.339  -0.198   0.449 -0.8354  1.7705 -2.1659
  861MOL0     H13642   1.515  -0.319   0.583 -1.6535  1.3221 -1.2775
  861MOL0     H13643   1.446  -0.431   0.458  2.4380 -0.3107 -0.4660
  861MOL0     H13644   1.546  -0.526   0.742  4.8996  0.1960  0.0223
  861MOL0     H13645   1.484  -0.625   0.616  1.6221 -1.4608  2.2077
  861MOL0     H13646   1.740  -0.441   0.621  2.2260 -0.5967  0.3980
  861MOL0     H13647   1.672  -0.526   0.485 -2.3218  1.8472  0.4727
  861MOL0     H13648   1.727  -0.664   0.751 -2.0022 -0.7382 -0.9419
  861MOL0     H13649   1.735  -0.738   0.589  1.0221  0.5499 -1.9270
  861MOL0     H13650   2.122  -0.589   0.655  0.2387 -4.5133  2.0187
  861MOL0     H13651   1.113  -0.393   0.745  0.0910 -0.3649 -0.3728
  861MOL0     H13652   0.906  -0.270   0.683  0.2701  0.8564  0.6814
  862MOL0     O13653   4.958   4.197   8.785 -0.6955  0.3027  0.3015
  862MOL0     C13654   4.965   4.240   8.671  0.1935  0.8926  0.9847
  862MOL0     O13655   4.873   4.227   8.574  0.0300 -0.2075 -0.4584
  862MOL0     C13656   4.746   4.201   8.601 -0.4104  0.0010  0.3030
  862MOL0     C13657   4.643   4.290   8.619  0.1668  0.2278 -0.5930
  862MOL0     C13658   4.513   4.255   8.665 -0.3380 -0.1073 -0.7469
  862MOL0     C13659   4.483   4.119   8.679 -0.0600  0.8178  0.1243
  862MOL0     O13660   4.358   4.071   8.707 -0.0536  0.4833  0.3605
  862MOL0     C13661   4.247   4.159   8.740  0.7214 -0.0161 -0.3003
  862MOL0     C13662   4.141   4.061   8.798  0.1912  0.1803 -0.3248
  862MOL0     C13663   4.001   4.124   8.821 -0.2480  0.3005  0.6194
  862MOL0     C13664   3.903   4.015   8.852  0.0046  0.5790  0.4635
  862MOL0     C13665   3.755   4.069   8.857  0.1501  0.3054 -0.7897
  862MOL0     C13666   3.653   3.970   8.920  0.1390  0.1479  0.2148
  862MOL0     C13667   3.510   4.012   8.884 -0.7891 -1.2532 -0.6023
  862MOL0     C13668   3.405   3.950   8.973  0.6610  0.7143 -0.2085
  862MOL0     N13669   3.287   4.042   8.968  0.3192 -0.1840  0.4639
  862MOL0     C13670   3.210   4.071   8.855 -0.2065  0.4560  0.1243
  862MOL0     C13671   3.115   4.158   8.884 -1.0569  0.2257 -0.4045
  862MOL0     C13672   3.016   4.234   8.802 -0.1757  0.0227  0.2514
  862MOL0     C13673   2.870   4.177   8.825  0.2553 -1.3191  0.0146
  862MOL0     C13674   2.847   4.027   8.792  0.0539 -0.5813 -0.4965
  862MOL0     C13675   2.701   3.989   8.759 -0.6074 -0.1708  0.8591
  862MOL0     O13676   2.667   4.041   8.632  0.4218  0.2934 -0.4068
  862MOL0     C13677   2.533   4.033   8.598  0.0150  0.8658  1.1705
  862MOL0     C13678   2.490   4.093   8.477  0.4313  0.4700  0.0527
  862MOL0     C13679   2.353   4.085   8.435 -0.7094 -0.0856  0.6193
  862MOL0     C13680   2.254   4.029   8.518  0.1172  0.2664  0.1047
  862MOL0     C13681   2.112   4.021   8.475 -0.8189  0.5136 -0.2276
  862MOL0     O13682   2.026   3.946   8.547  0.5158  0.9777  0.1491
  862MOL0     C13683   1.909   3.905   8.483  0.4613  0.1763 -0.1615
  862MOL0     C13684   1.824   3.987   8.401 -0.8748  0.5188  0.2008
  862MOL0     C13685   1.709   3.922   8.344  0.3926 -0.0114 -0.9202
  862MOL0     C13686   1.682   3.784   8.357  0.7682 -1.6657 -0.4390
  862MOL0     O13687   1.589   3.728   8.275  1.3698  0.9204  0.3745
  862MOL0     C13688   1.460   3.700   8.332 -0.8465  0.2040 -0.2175
  862MOL0     C13689   1.343   3.751   8.239  0.4503 -0.7183  0.5272
  862MOL0     C13690   1.297   3.890   8.285  0.1630  0.3440  0.5576
  862MOL0     C13691   1.200   3.958   8.179  0.5425 -1.1156  0.5818
  862MOL0     C13692   1.054   3.911   8.188  0.2012 -0.0012  0.0165
  862MOL0     C13693   0.962   4.025   8.145 -1.1860  0.4381  0.3437
  862MOL0     C13694   0.822   3.986   8.129  0.5828  0.9554  0.4625
  862MOL0     C13695   0.760   3.950   8.264 -0.5312  0.0513 -0.5406
  862MOL0    Cl13696   0.781   4.089   8.385  0.4197  0.0049  0.2889
  862MOL0     C13697   1.761   3.713   8.438 -0.3939  0.5434  0.3790
  862MOL0     C13698   1.877   3.773   8.494  0.4403 -0.2965 -0.0620
  862MOL0     O13699   2.093   4.067   8.361  0.4132 -0.3406 -0.5012
  862MOL0     C13700   2.295   3.984   8.639 -0.1259  0.3609  0.3269
  862MOL0     C13701   2.426   3.980   8.676  0.3871  0.2130 -0.4214
  862MOL0     N13702   3.128   4.180   9.019 -0.0181  0.1520 -0.3767
  862MOL0     N13703   3.223   4.109   9.068  0.4027 -0.3030 -0.2103
  862MOL0     C13704   4.585   4.029   8.642 -0.0359 -0.9142 -0.2452
  862MOL0     C13705   4.715   4.070   8.610  0.6411  0.9706  0.8364
  862MOL0     C13706   5.091   4.310   8.636 -0.4106  0.0912  0.0797
  862MOL0     C13707   5.208   4.322   8.722 -0.2034  0.3758 -0.3880
  862MOL0     C13708   5.314   4.404   8.675  0.0507 -0.8605 -0.1598
  862MOL0     C13709   5.329   4.447   8.548 -0.6767  0.2774  0.7840
  862MOL0     O13710   5.450   4.514   8.527 -0.3388  0.2022  0.9540
  862MOL0     C13711   5.491   4.502   8.385  0.5587 -0.5002 -0.4200
  862MOL0     C13712   5.645   4.497   8.369 -0.2092  0.0430  0.3829
  862MOL0     C13713   5.695   4.463   8.232  0.2457  0.2829  0.0473
  862MOL0     C13714   5.841   4.409   8.250 -0.0628 -0.5585  0.7076
  862MOL0     C13715   5.920   4.441   8.132 -1.0076  0.2519  0.3649
  862MOL0     C13716   5.995   4.437   8.040  0.3975  0.2274 -0.2873
  862MOL0     C13717   5.222   4.431   8.462  0.6848  0.1362  0.0384
  862MOL0     C13718   5.112   4.362   8.509  0.1015 -0.3793  0.3500
  862MOL0     H13719   4.658   4.394   8.590 -0.3218  0.1063 -1.3103
  862MOL0     H13720   4.437   4.328   8.688  1.1201  1.9459 -2.1070
  862MOL0     H13721   4.204   4.215   8.657  2.5468 -0.1698 -1.4038
  862MOL0     H13722   4.269   4.232   8.819 -2.5825 -0.1545  0.8824
  862MOL0     H13723   4.172   4.039   8.900 -0.2527  3.4049  0.6134
  862MOL0     H13724   4.143   3.973   8.734  0.4340 -0.5751  0.7019
  862MOL0     H13725   3.967   4.179   8.733  0.8451  1.7578  1.0679
  862MOL0     H13726   3.998   4.184   8.913  1.1937 -0.8201  1.4378
  862MOL0     H13727   3.909   3.944   8.769 -1.0047  0.8571  0.1390
  862MOL0     H13728   3.921   3.965   8.948 -1.9913 -1.6183 -0.2134
  862MOL0     H13729   3.721   4.095   8.756  0.6800  1.3627 -0.7126
  862MOL0     H13730   3.755   4.162   8.913 -0.9268  0.2854 -0.7492
  862MOL0     H13731   3.675   3.950   9.025  1.8722 -0.3598 -0.2038
  862MOL0     H13732   3.662   3.876   8.865 -2.1264  1.0333 -1.8708
  862MOL0     H13733   3.506   4.121   8.886  3.3484 -0.9056 -1.2279
  862MOL0     H13734   3.483   3.996   8.779  1.4333 -0.4930 -1.3439
  862MOL0     H13735   3.437   3.940   9.077 -1.0952 -2.2560  0.1621
  862MOL0     H13736   3.379   3.850   8.937 -0.1433  1.0615 -0.6100
  862MOL0     H13737   3.228   4.028   8.758  2.5269 -1.4266  1.3370
  862MOL0     H13738   3.044   4.236   8.696  1.1804  2.4561  0.5728
  862MOL0     H13739   3.019   4.341   8.826 -0.9288  0.3574 -1.0560
  862MOL0     H13740   2.803   4.241   8.767  1.1611  2.1873  2.5051
  862MOL0     H13741   2.851   4.190   8.932  0.6923 -3.3069  0.3699
  862MOL0     H13742   2.907   3.998   8.704  0.3637 -1.6509  0.0482
  862MOL0     H13743   2.886   3.975   8.879  0.2032 -1.2662 -0.9608
  862MOL0     H13744   2.632   4.031   8.833 -0.5886  1.9461 -0.2409
  862MOL0     H13745   2.685   3.881   8.758 -2.1194  0.0210 -0.7224
  862MOL0     H13746   2.570   4.124   8.411  0.1348  1.7522  0.2580
  862MOL0     H13747   2.330   4.114   8.334  0.1013 -2.1612 -0.2287
  862MOL0     H13748   1.834   4.093   8.377  1.4601 -0.1672 -2.4035
  862MOL0     H13749   1.643   3.976   8.275 -1.6444  1.3448  1.8994
  862MOL0     H13750   1.456   3.741   8.433 -0.1949 -1.9966  0.7586
  862MOL0     H13751   1.445   3.592   8.345 -1.6868  0.0605 -1.9921
  862MOL0     H13752   1.263   3.679   8.257 -0.0340 -0.3703 -0.1601
  862MOL0     H13753   1.364   3.768   8.133  2.1701 -1.7909  0.6569
  862MOL0     H13754   1.382   3.959   8.290 -1.2694  2.1965  0.6105
  862MOL0     H13755   1.266   3.882   8.390  0.1031 -1.5131  0.4211
  862MOL0     H13756   1.205   4.067   8.188 -2.6925 -0.8645  0.5412
  862MOL0     H13757   1.229   3.938   8.075  3.0920  2.8771  0.3249
  862MOL0     H13758   1.028   3.878   8.289  0.4576  0.1308  0.1265
  862MOL0     H13759   1.032   3.824   8.126 -1.3014  0.2664  0.1295
  862MOL0     H13760   1.000   4.068   8.052 -0.5750  2.2636  1.3760
  862MOL0     H13761   0.958   4.109   8.215 -1.6297  1.0798 -0.4376
  862MOL0     H13762   0.775   4.067   8.073  2.8332  2.0878  0.0913
  862MOL0     H13763   0.806   3.900   8.062 -0.2537  1.1819  0.3677
  862MOL0     H13764   0.807   3.858   8.303 -2.5687  0.5104  3.6006
  862MOL0     H13765   0.657   3.923   8.242 -0.4597  1.0529 -2.2584
  862MOL0     H13766   1.753   3.605   8.447  4.1051  0.0524  0.7274
  862MOL0     H13767   1.946   3.702   8.540  0.4372 -0.8899 -0.9605
  862MOL0     H13768   2.219   3.946   8.707 -0.0182 -1.3467 -0.4516
  862MOL0     H13769   2.448   3.942   8.775  3.2557  0.0556 -1.0451
  862MOL0     H13770   4.551   3.926   8.639 -1.0455 -0.6237  0.4872
  862MOL0     H13771   4.796   3.998   8.598 -0.3258  0.0528 -0.4309
  862MOL0     H13772   5.211   4.274   8.819  0.1579  1.5797  0.2160
  862MOL0     H13773   5.399   4.413   8.741 -0.8230 -2.2148  1.2167
  862MOL0     H13774   5.447   4.578   8.320 -0.4048 -2.0031 -1.6087
  862MOL0     H13775   5.456   4.406   8.346 -0.3211 -0.8757  1.2092
  862MOL0     H13776   5.690   4.591   8.401  0.5557 -1.0009  2.6350
  862MOL0     H13777   5.686   4.427   8.443 -3.5593 -3.5027 -0.8112
  862MOL0     H13778   5.696   4.557   8.177  1.2500  1.9519  2.7494
  862MOL0     H13779   5.629   4.390   8.183 -0.8344  0.4082  1.2656
  862MOL0     H13780   5.888   4.467   8.330 -0.8802 -1.2448  1.7125
  862MOL0     H13781   5.851   4.301   8.266  4.5390 -0.9667 -2.8707
  862MOL0     H13782   6.056   4.423   7.953  1.6777 -1.3474  0.8021
  862MOL0     H13783   5.226   4.476   8.363 -1.4056  0.7508  0.2059
  862MOL0     H13784   5.037   4.358   8.431 -0.4182  0.6791  0.7876
  863MOL0     O13785   0.359   5.057   7.578 -0.5195  0.9276 -0.0380
  863MOL0     C13786   0.379   4.944   7.623 -0.0848 -0.3718  0.2531
  863MOL0     O13787   0.282   4.856   7.664  0.4473  0.1216 -0.1387
  863MOL0     C13788   0.150   4.882   7.640  0.7978 -0.3212 -0.6243
  863MOL0     C13789   0.070   4.782   7.581 -0.9396 -0.0696 -0.1137
  863MOL0     C13790  -0.072   4.799   7.556 -0.0574  0.4503 -0.1824
  863MOL0     C13791  -0.136   4.907   7.610  0.3924 -0.6272 -0.1728
  863MOL0     O13792  -0.277   4.908   7.610  0.1745 -0.0533  0.1120
  863MOL0     C13793  -0.359   5.017   7.650 -0.0226 -0.6277 -0.0108
  863MOL0     C13794  -0.501   4.980   7.639  0.1182 -1.1584 -0.3866
  863MOL0     C13795  -0.541   4.944   7.498 -0.6006  0.0040 -0.4848
  863MOL0     C13796  -0.692   4.908   7.504 -0.1924 -0.4724  0.1039
  863MOL0     C13797  -0.789   5.032   7.501  0.0250  0.3601  0.1200
  863MOL0     C13798  -0.931   4.977   7.459  0.3206 -0.6411  0.3077
  863MOL0     C13799  -1.023   5.099   7.432  0.2939 -0.6341 -0.1856
  863MOL0     C13800  -1.146   5.058   7.347  0.7715 -0.2456 -0.1806
  863MOL0     N13801  -1.241   4.965   7.406  0.8025 -0.1218  0.6519
  863MOL0     C13802  -1.308   5.002   7.524 -0.1976  0.7860 -0.5638
  863MOL0     C13803  -1.336   4.883   7.580  0.5239  0.0632  0.5850
  863MOL0     C13804  -1.387   4.862   7.715  0.4661  0.8734 -0.1862
  863MOL0     C13805  -1.538   4.855   7.696 -0.5833 -0.2550 -0.4633
  863MOL0     C13806  -1.612   4.837   7.825 -0.8778 -0.4688  0.0057
  863MOL0     C13807  -1.750   4.775   7.814 -0.2856  0.3029  0.6039
  863MOL0     O13808  -1.811   4.727   7.935 -0.3215 -0.0481  0.2467
  863MOL0     C13809  -1.855   4.819   8.026 -0.3187  0.4920 -0.6192
  863MOL0     C13810  -1.872   4.955   8.007  0.4144 -1.0748  0.5760
  863MOL0     C13811  -1.926   5.036   8.108  0.1953  0.7157  0.2939
  863MOL0     C13812  -1.968   4.975   8.224  0.2706 -0.3141  0.4134
  863MOL0     C13813  -2.025   5.048   8.339  1.0106  0.3346  0.4578
  863MOL0     O13814  -1.994   5.179   8.356 -0.0954 -0.0909  0.0189
  863MOL0     C13815  -2.063   5.236   8.460 -0.3958  0.0285 -0.0887
  863MOL0     C13816  -2.021   5.211   8.594 -0.3443 -0.1738  0.9668
  863MOL0     C13817  -2.093   5.277   8.697  0.2997  0.4667 -0.2631
  863MOL0     C13818  -2.193   5.371   8.669  1.4340  0.0012  0.4884
  863MOL0     O13819  -2.264   5.432   8.772  0.0402 -0.4759  0.1845
  863MOL0     C13820  -2.353   5.343   8.836 -0.0096 -0.2724 -0.8239
  863MOL0     C13821  -2.456   5.432   8.912 -0.7826 -0.4579 -0.0331
  863MOL0     C13822  -2.525   5.362   9.027  0.1525  0.5215  0.5418
  863MOL0     C13823  -2.649   5.446   9.058  0.4883 -1.3889 -0.3226
  863MOL0     C13824  -2.706   5.412   9.202 -0.5135  0.2763  1.1624
  863MOL0     C13825  -2.828   5.333   9.207 -0.3977  0.6566 -0.7203
  863MOL0     C13826  -2.885   5.304   9.346  1.4193  0.3042  0.2382
  863MOL0     C13827  -3.039   5.295   9.343  1.0095  0.4310 -0.0971
  863MOL0    Cl13828  -3.082   5.195   9.488  0.1827 -0.2581 -0.0416
  863MOL0     C13829  -2.231   5.393   8.536 -0.2594 -0.6510 -0.6533
  863MOL0     C13830  -2.170   5.328   8.432 -0.3787  0.2859 -0.5936
  863MOL0     O13831  -2.119   4.990   8.399 -0.8150 -0.1102 -0.5536
  863MOL0     C13832  -1.961   4.835   8.239 -0.3610  0.6190  0.9646
  863MOL0     C13833  -1.907   4.760   8.135  0.3589 -1.1238 -0.7974
  863MOL0     N13834  -1.298   4.779   7.498  0.3694  0.0589  0.5022
  863MOL0     N13835  -1.231   4.827   7.399  0.1147 -0.3339 -0.6097
  863MOL0     C13836  -0.054   5.012   7.659 -0.3466 -0.3103  1.1416
  863MOL0     C13837   0.088   4.996   7.679  0.7285 -0.2445 -0.3738
  863MOL0     C13838   0.520   4.901   7.622 -0.0875  0.4685 -0.3510
  863MOL0     C13839   0.622   4.977   7.567  0.4647  0.9641  0.2815
  863MOL0     C13840   0.752   4.939   7.579 -0.5076  0.5198  0.2577
  863MOL0     C13841   0.786   4.823   7.648 -0.3927 -0.2856 -0.1811
  863MOL0     O13842   0.921   4.788   7.665  0.6999  0.1075 -0.4424
  863MOL0     C13843   1.031   4.879   7.660 -0.6016 -1.1768 -0.0029
  863MOL0     C13844   1.144   4.823   7.746 -0.5481  0.3785  0.5003
  863MOL0     C13845   1.275   4.894   7.746  0.2984 -0.2570 -0.0412
  863MOL0     C13846   1.356   4.846   7.860 -0.1883 -0.5656 -1.1496
  863MOL0     C13847   1.471   4.928   7.894 -0.6343 -1.5432  0.2131
  863MOL0     C13848   1.558   5.017   7.931  0.1647  0.0461 -0.0010
  863MOL0     C13849   0.687   4.739   7.693  0.2136  0.2941  0.9917
  863MOL0     C13850   0.553   4.781   7.684 -0.1039  0.4167  0.5457
  863MOL0     H13851   0.111   4.687   7.549 -3.4326 -0.4891 -2.3838
  863MOL0     H13852  -0.129   4.719   7.508 -2.1140  1.4153  0.5020
  863MOL0     H13853  -0.336   5.106   7.589 -1.9531  1.0199  1.5281
  863MOL0     H13854  -0.345   5.042   7.755 -1.3675 -1.1074  0.3016
  863MOL0     H13855  -0.574   5.054   7.673 -0.2609 -1.5297 -0.3728
  863MOL0     H13856  -0.510   4.890   7.701  0.6332 -0.7571  0.2783
  863MOL0     H13857  -0.490   4.850   7.476 -0.9864 -0.7043  1.4041
  863MOL0     H13858  -0.523   5.033   7.439 -2.0700  1.1111  0.6525
  863MOL0     H13859  -0.712   4.863   7.407  0.3244  1.9475 -1.2105
  863MOL0     H13860  -0.717   4.851   7.594  0.0867  0.2786  0.6725
  863MOL0     H13861  -0.751   5.109   7.434  2.1788 -1.0743 -0.3985
  863MOL0     H13862  -0.799   5.080   7.598 -0.6793  2.1328 -0.7842
  863MOL0     H13863  -0.970   4.916   7.541 -0.5792 -1.2988 -0.5842
  863MOL0     H13864  -0.924   4.919   7.366 -1.1362 -0.5039  0.0824
  863MOL0     H13865  -1.054   5.142   7.528 -2.7568 -3.1276  0.1056
  863MOL0     H13866  -0.975   5.180   7.376 -1.5529  1.5317  1.1513
  863MOL0     H13867  -1.108   4.999   7.263 -0.7411 -0.7173 -0.5695
  863MOL0     H13868  -1.205   5.140   7.305  2.1874  1.6747  1.4291
  863MOL0     H13869  -1.328   5.097   7.573 -1.3890  0.2805 -0.0426
  863MOL0     H13870  -1.367   4.943   7.786  1.1835 -0.1846  0.8748
  863MOL0     H13871  -1.349   4.767   7.756 -0.7850 -0.3291 -1.7216
  863MOL0     H13872  -1.558   4.768   7.633  1.5704 -1.7886  0.8475
  863MOL0     H13873  -1.582   4.947   7.656 -0.9590  0.8137  2.2161
  863MOL0     H13874  -1.548   4.778   7.891 -0.8343  1.1926  1.5263
  863MOL0     H13875  -1.617   4.937   7.870  2.5538  1.5376 -3.4011
  863MOL0     H13876  -1.738   4.688   7.749 -1.9041  0.3743  0.1647
  863MOL0     H13877  -1.821   4.836   7.757 -0.7234 -0.8837 -0.1541
  863MOL0     H13878  -1.848   5.010   7.917  0.8877 -0.3152  1.1531
  863MOL0     H13879  -1.945   5.143   8.105 -2.4553  0.3130 -3.0652
  863MOL0     H13880  -1.931   5.156   8.620 -1.2589 -1.8237  0.7565
  863MOL0     H13881  -2.085   5.256   8.803  0.5953 -1.4747 -0.6288
  863MOL0     H13882  -2.306   5.285   8.916  2.8206  0.6896 -1.6960
  863MOL0     H13883  -2.402   5.275   8.765 -1.6294 -0.1897  0.1756
  863MOL0     H13884  -2.529   5.470   8.840  0.8658  1.5687 -0.7246
  863MOL0     H13885  -2.408   5.521   8.953  0.7772 -0.5569 -1.5445
  863MOL0     H13886  -2.455   5.360   9.111  0.9985 -2.2986 -0.1256
  863MOL0     H13887  -2.543   5.256   9.008 -0.0803  0.4248  1.2569
  863MOL0     H13888  -2.622   5.551   9.070 -1.5315 -0.7549 -0.8695
  863MOL0     H13889  -2.727   5.447   8.981 -1.2403  3.0794  1.1709
  863MOL0     H13890  -2.726   5.501   9.263  2.5332  2.4107 -0.6372
  863MOL0     H13891  -2.629   5.355   9.255  0.7361  1.4253  0.6682
  863MOL0     H13892  -2.792   5.238   9.167  0.3158  0.3215  0.6553
  863MOL0     H13893  -2.899   5.375   9.135 -1.0314  1.2015  0.2078
  863MOL0     H13894  -2.850   5.211   9.390 -1.0584  0.1093  2.0336
  863MOL0     H13895  -2.866   5.382   9.421 -0.0671  0.8367  0.0997
  863MOL0     H13896  -3.073   5.240   9.255  0.5352 -0.4502  0.6118
  863MOL0     H13897  -3.091   5.391   9.346 -1.0372 -0.6342  1.7655
  863MOL0     H13898  -2.310   5.468   8.536  2.0513  1.9406 -1.1915
  863MOL0     H13899  -2.188   5.344   8.326  0.9136  0.7138 -0.7643
  863MOL0     H13900  -1.998   4.782   8.326  0.5856 -1.2159  0.2954
  863MOL0     H13901  -1.904   4.654   8.160 -1.0885 -1.2498 -1.0715
  863MOL0     H13902  -0.100   5.099   7.705  0.3807  1.0693 -0.5878
  863MOL0     H13903   0.135   5.079   7.732 -0.0952 -1.3673  2.3326
  863MOL0     H13904   0.607   5.079   7.532 -1.9710  1.1744  1.7251
  863MOL0     H13905   0.828   5.003   7.536  0.1709 -0.0476  0.5964
  863MOL0     H13906   1.006   4.980   7.693  0.4026 -0.5432 -1.1122
  863MOL0     H13907   1.063   4.887   7.556 -2.7825 -3.1667 -0.9206
  863MOL0     H13908   1.109   4.815   7.849 -2.3698  3.3826  0.2368
  863MOL0     H13909   1.155   4.721   7.708 -1.7482  0.7602 -0.9641
  863MOL0     H13910   1.271   5.003   7.747 -0.6831 -0.0644 -4.2786
  863MOL0     H13911   1.327   4.858   7.656  0.8831  1.1700 -0.2960
  863MOL0     H13912   1.299   4.862   7.952 -1.9688 -0.4731 -2.2094
  863MOL0     H13913   1.376   4.739   7.849 -0.4614 -0.8461  0.7793
  863MOL0     H13914   1.625   5.092   7.967  1.2833 -0.4744 -0.9295
  863MOL0     H13915   0.712   4.644   7.739 -0.9982 -1.4164 -1.6684
  863MOL0     H13916   0.478   4.714   7.725 -0.0155 -1.3683 -1.9797
  864MOL0     O13917   0.393   5.700  10.073  0.2613  0.1978 -0.5705
  864MOL0     C13918   0.466   5.662  10.162  0.0403  0.5852 -0.5065
  864MOL0     O13919   0.427   5.629  10.288 -0.9938  0.2469  0.3629
  864MOL0     C13920   0.305   5.663  10.328 -0.5454  0.6121 -1.0780
  864MOL0     C13921   0.267   5.795  10.329 -0.9216 -0.3182 -0.1871
  864MOL0     C13922   0.142   5.837  10.376 -0.2212  0.7322 -0.3281
  864MOL0     C13923   0.041   5.739  10.419 -0.8301 -0.3981 -0.4514
  864MOL0     O13924  -0.078   5.784  10.468  0.3483  0.3028 -0.5399
  864MOL0     C13925  -0.122   5.915  10.434  0.2139 -0.0234 -0.0853
  864MOL0     C13926  -0.252   5.953  10.510  0.2083  0.6624  0.1037
  864MOL0     C13927  -0.289   6.098  10.514 -0.0974  0.8173  0.3507
  864MOL0     C13928  -0.325   6.153  10.380  0.4625  0.1418  0.4395
  864MOL0     C13929  -0.337   6.308  10.395 -0.0403  0.1674  0.1149
  864MOL0     C13930  -0.409   6.377  10.278  0.1393  0.2788 -0.1418
  864MOL0     C13931  -0.472   6.496  10.335  0.2990  0.1369 -0.0912
  864MOL0     C13932  -0.532   6.581  10.223 -0.0421 -0.9469 -0.3984
  864MOL0     N13933  -0.669   6.546  10.181  0.5466  0.5989  0.4185
  864MOL0     C13934  -0.708   6.531  10.044 -0.4711  0.0352 -0.7035
  864MOL0     C13935  -0.823   6.464  10.054 -0.1777 -0.1409 -0.5498
  864MOL0     C13936  -0.916   6.417   9.942 -0.4101  1.2386  0.5698
  864MOL0     C13937  -1.049   6.497   9.937  0.3741 -0.2188  0.3285
  864MOL0     C13938  -1.163   6.437   9.844  0.0607  0.2204  0.5035
  864MOL0     C13939  -1.229   6.320   9.931 -0.9130 -0.2688 -0.2743
  864MOL0     O13940  -1.349   6.277   9.868  0.4625  0.3190 -0.2976
  864MOL0     C13941  -1.463   6.343   9.890 -0.6692  0.0851 -0.2384
  864MOL0     C13942  -1.508   6.368  10.017  0.1142  0.2796 -0.3150
  864MOL0     C13943  -1.633   6.426  10.039  0.4267 -0.2565 -0.4476
  864MOL0     C13944  -1.719   6.476   9.935 -0.1131  0.0260  0.7154
  864MOL0     C13945  -1.840   6.555   9.964  0.7417  0.2942 -0.0043
  864MOL0     O13946  -1.929   6.572   9.861 -0.2617 -0.0765 -0.2054
  864MOL0     C13947  -2.047   6.632   9.898 -0.2691 -0.3241  0.8394
  864MOL0     C13948  -2.148   6.568   9.966 -0.6712 -0.0908  0.5352
  864MOL0     C13949  -2.261   6.640  10.019 -0.8360 -1.2034  0.2870
  864MOL0     C13950  -2.271   6.779   9.986  0.0042 -0.7579 -0.0375
  864MOL0     O13951  -2.370   6.856  10.036  0.3271  0.6733 -1.2352
  864MOL0     C13952  -2.503   6.801  10.017  0.3451  0.1283 -0.5368
  864MOL0     C13953  -2.565   6.734  10.143 -0.2821  0.5931  0.0821
  864MOL0     C13954  -2.715   6.688  10.119  0.3962 -1.6961 -0.6326
  864MOL0     C13955  -2.777   6.655  10.259 -0.3265 -0.3338 -0.6385
  864MOL0     C13956  -2.931   6.618  10.244 -0.2739  0.1430  0.1636
  864MOL0     C13957  -2.985   6.559  10.378  0.0326  0.2569 -0.5228
  864MOL0     C13958  -3.016   6.653  10.492  0.3236 -0.3056 -0.1851
  864MOL0     C13959  -3.118   6.612  10.594 -0.2518 -0.1516  0.9130
  864MOL0    Cl13960  -3.146   6.745  10.716  0.3186 -0.3401  0.1562
  864MOL0     C13961  -2.182   6.847   9.900  0.3385  0.1421 -0.5326
  864MOL0     C13962  -2.072   6.766   9.860  0.2812  0.2882 -0.7239
  864MOL0     O13963  -1.865   6.579  10.083  0.3658 -0.1056  0.1838
  864MOL0     C13964  -1.674   6.439   9.806  0.7945 -0.6259 -0.2336
  864MOL0     C13965  -1.547   6.378   9.784 -0.0794 -0.3053  0.1520
  864MOL0     N13966  -0.859   6.431  10.185 -0.1750 -0.5512  0.2187
  864MOL0     N13967  -0.753   6.478  10.256  0.4981 -0.9499 -0.4210
  864MOL0     C13968   0.080   5.602  10.413  0.6752 -0.2595  0.4034
  864MOL0     C13969   0.208   5.569  10.370 -0.1788 -0.5393  0.4628
  864MOL0     C13970   0.603   5.615  10.128 -1.2167 -0.6650 -0.3206
  864MOL0     C13971   0.666   5.658  10.011  0.2491 -0.9447 -0.3210
  864MOL0     C13972   0.803   5.625   9.997 -0.2256 -0.7486  0.4931
  864MOL0     C13973   0.879   5.541  10.086 -0.4078 -0.0251  0.7377
  864MOL0     O13974   1.003   5.513  10.043  1.3633 -0.0633  0.3877
  864MOL0     C13975   1.087   5.450  10.138 -0.4278  0.2690 -0.2811
  864MOL0     C13976   1.228   5.404  10.101  0.3193 -0.2952  1.2608
  864MOL0     C13977   1.230   5.289   9.997 -0.2756 -1.0694  0.4692
  864MOL0     C13978   1.368   5.251   9.941 -0.0689 -0.4375 -0.1225
  864MOL0     C13979   1.461   5.198  10.042  0.4264  0.4201 -0.0093
  864MOL0     C13980   1.537   5.153  10.124  0.3192 -0.2290  0.7576
  864MOL0     C13981   0.810   5.496  10.203  0.5949 -0.2152  0.2502
  864MOL0     C13982   0.676   5.537  10.219 -0.3684 -0.3838 -0.6085
  864MOL0     H13983   0.336   5.871  10.295 -1.8592  0.8422  0.4508
  864MOL0     H13984   0.129   5.944  10.366  0.0388  0.7204 -0.8721
  864MOL0     H13985  -0.135   5.933  10.326 -0.4242  0.6793  0.0950
  864MOL0     H13986  -0.047   5.989  10.464  0.5485  0.0837 -1.1397
  864MOL0     H13987  -0.236   5.923  10.614 -1.6315  0.1519  0.2798
  864MOL0     H13988  -0.336   5.889  10.483  0.2987  1.2660 -1.7167
  864MOL0     H13989  -0.213   6.150  10.573 -0.9344  3.5871 -0.8218
  864MOL0     H13990  -0.382   6.104  10.571 -1.5125 -1.9598 -1.4440
  864MOL0     H13991  -0.253   6.133  10.300 -1.0472  0.4403 -1.0643
  864MOL0     H13992  -0.421   6.113  10.346 -0.2576  0.7322  1.6898
  864MOL0     H13993  -0.238   6.352  10.410  0.5984 -0.1284 -2.6169
  864MOL0     H13994  -0.385   6.330  10.491 -0.8829  0.3336 -0.3371
  864MOL0     H13995  -0.489   6.310  10.243  0.1949  0.2893 -0.2896
  864MOL0     H13996  -0.338   6.389  10.195 -0.9957 -1.4376 -1.4354
  864MOL0     H13997  -0.548   6.463  10.406  2.0133  0.1915  1.8806
  864MOL0     H13998  -0.409   6.558  10.400 -2.1356 -0.5567  3.1851
  864MOL0     H13999  -0.469   6.580  10.133  1.9005 -1.1540  0.9098
  864MOL0     H14000  -0.532   6.686  10.254 -0.9205 -1.1257  0.2547
  864MOL0     H14001  -0.659   6.570   9.956  4.5034 -1.6927  0.9512
  864MOL0     H14002  -0.944   6.313   9.965 -5.1928  1.7140 -1.7074
  864MOL0     H14003  -0.868   6.428   9.845 -3.9327 -0.4890 -1.5883
  864MOL0     H14004  -1.025   6.592   9.888 -1.6536 -0.1327 -0.6197
  864MOL0     H14005  -1.092   6.503  10.038 -0.6025  0.0273 -0.0826
  864MOL0     H14006  -1.244   6.509   9.832  0.8288  1.6546  3.1568
  864MOL0     H14007  -1.129   6.406   9.745  2.2212  1.4680  0.7803
  864MOL0     H14008  -1.236   6.352  10.036  0.6284  0.3730 -0.3366
  864MOL0     H14009  -1.154   6.239   9.932 -0.8977 -0.2664  1.2837
  864MOL0     H14010  -1.450   6.336  10.103  0.9616 -2.0689 -1.6715
  864MOL0     H14011  -1.666   6.430  10.142 -1.9638 -0.6785 -1.1454
  864MOL0     H14012  -2.126   6.466   9.999  0.4486  0.1778  0.6517
  864MOL0     H14013  -2.332   6.593  10.087  0.3806 -1.5853  1.3319
  864MOL0     H14014  -2.507   6.738   9.927 -2.8599 -0.4720 -0.1103
  864MOL0     H14015  -2.567   6.887   9.999 -2.8798 -1.3785  2.5343
  864MOL0     H14016  -2.570   6.813  10.218 -2.3464  1.7045 -1.1379
  864MOL0     H14017  -2.506   6.650  10.181 -1.5093 -0.2484  0.1556
  864MOL0     H14018  -2.713   6.599  10.056 -1.6519 -4.5154  2.9379
  864MOL0     H14019  -2.771   6.770  10.074 -1.1356 -1.3570  1.7049
  864MOL0     H14020  -2.734   6.572  10.315 -1.7103 -0.9481 -0.4363
  864MOL0     H14021  -2.761   6.740  10.327 -0.1540 -1.2268  0.4598
  864MOL0     H14022  -2.934   6.539  10.168  1.1480  0.2402 -0.0286
  864MOL0     H14023  -2.988   6.705  10.210 -0.8559  0.6301  2.2293
  864MOL0     H14024  -2.919   6.477  10.410  0.2272  0.7385  0.3527
  864MOL0     H14025  -3.084   6.517  10.359 -0.1962  0.9022 -0.7788
  864MOL0     H14026  -2.927   6.665  10.555  0.5319 -3.0479  0.1647
  864MOL0     H14027  -3.037   6.751  10.448 -3.0437 -1.6498 -1.8965
  864MOL0     H14028  -3.088   6.522  10.649  1.3550 -1.0816 -1.3134
  864MOL0     H14029  -3.210   6.583  10.543 -1.2417  2.2103  1.2323
  864MOL0     H14030  -2.192   6.950   9.867  0.4341  0.3938  0.2000
  864MOL0     H14031  -1.989   6.805   9.801  0.8808 -0.7959 -0.6256
  864MOL0     H14032  -1.736   6.472   9.724  2.3397  2.8673 -0.1856
  864MOL0     H14033  -1.514   6.356   9.683 -0.0502 -1.5443  0.4073
  864MOL0     H14034   0.005   5.531  10.446 -0.9615 -0.1010 -2.5732
  864MOL0     H14035   0.242   5.467  10.356  0.9503  0.1284 -2.6219
  864MOL0     H14036   0.613   5.721   9.940  0.2319 -0.4289  0.1463
  864MOL0     H14037   0.850   5.665   9.907  4.2680 -0.7445  2.5847
  864MOL0     H14038   1.042   5.353  10.160 -0.8693 -0.1758 -2.8313
  864MOL0     H14039   1.093   5.516  10.225 -1.7343 -1.5766  1.2847
  864MOL0     H14040   1.289   5.487  10.064  0.7744 -1.4866 -0.8672
  864MOL0     H14041   1.280   5.369  10.190 -1.5080 -1.0860  2.0639
  864MOL0     H14042   1.166   5.323   9.916  1.8729 -0.6461 -1.1339
  864MOL0     H14043   1.191   5.195  10.036 -1.2939 -1.5735 -1.6368
  864MOL0     H14044   1.361   5.187   9.852 -3.5441  2.9848 -2.6751
  864MOL0     H14045   1.422   5.340   9.907  1.6759 -1.4304 -0.0033
  864MOL0     H14046   1.604   5.119  10.200 -0.2188 -1.1438  0.8390
  864MOL0     H14047   0.859   5.427  10.272  0.7197 -2.5973 -2.0343
  864MOL0     H14048   0.636   5.509  10.316  2.5010  0.5259  0.9492
  865MOL0     O14049   9.353   2.625   1.724 -0.5754 -0.5163 -0.3683
  865MOL0     C14050   9.388   2.705   1.639  0.6914 -0.5686 -0.0682
  865MOL0     O14051   9.302   2.778   1.557 -0.2641  0.4666 -0.3800
  865MOL0     C14052   9.165   2.792   1.581  0.0408  0.2427  0.5685
  865MOL0     C14053   9.090   2.751   1.694 -0.9517 -0.7565 -0.3812
  865MOL0     C14054   8.954   2.777   1.697  0.3106  0.6395 -0.2107
  865MOL0     C14055   8.878   2.850   1.607 -0.2954  0.8437 -0.7277
  865MOL0     O14056   8.741   2.858   1.617 -0.4881  0.5137  0.2932
  865MOL0     C14057   8.697   2.996   1.592 -0.3028  0.5610 -0.6160
  865MOL0     C14058   8.643   3.018   1.450  0.1011 -0.3321  0.3426
  865MOL0     C14059   8.605   3.155   1.418 -1.0662 -1.0031  0.2033
  865MOL0     C14060   8.544   3.184   1.284  0.0504 -0.5643 -0.1369
  865MOL0     C14061   8.505   3.327   1.259  0.6085 -0.5490  0.6967
  865MOL0     C14062   8.382   3.330   1.170 -0.3061 -0.0758  0.1479
  865MOL0     C14063   8.332   3.472   1.167  0.3010  0.3032  1.0744
  865MOL0     C14064   8.266   3.516   1.297 -1.0430 -0.6416  0.4949
  865MOL0     N14065   8.192   3.649   1.264  1.3446  0.0409 -0.2627
  865MOL0     C14066   8.234   3.778   1.275  0.3590 -0.3498  0.3008
  865MOL0     C14067   8.126   3.856   1.234  0.8209  0.0137 -1.2438
  865MOL0     C14068   8.114   3.993   1.199  0.2956 -0.2327  1.0654
  865MOL0     C14069   8.076   3.991   1.051 -0.2940 -0.5837  0.4733
  865MOL0     C14070   8.121   4.109   0.958  0.4549 -0.4452 -0.4943
  865MOL0     C14071   8.070   4.083   0.821 -0.2489 -0.2821 -0.7105
  865MOL0     O14072   8.170   4.033   0.742 -0.2740  0.3869  0.2951
  865MOL0     C14073   8.166   4.058   0.601  0.5558  0.1059  0.2581
  865MOL0     C14074   8.156   3.953   0.508  0.3829  0.2450  0.7936
  865MOL0     C14075   8.165   3.968   0.373  0.0766 -0.1213 -0.3805
  865MOL0     C14076   8.191   4.096   0.321  0.5235 -0.3409 -0.3588
  865MOL0     C14077   8.198   4.126   0.180 -0.1238 -0.2660  1.6387
  865MOL0     O14078   8.180   4.015   0.104  0.2631  0.1827  0.1178
  865MOL0     C14079   8.115   4.032  -0.008  0.5493 -0.0220 -0.8558
  865MOL0     C14080   8.182   4.070  -0.127  0.5918 -0.3719  0.4571
  865MOL0     C14081   8.108   4.090  -0.242  0.0370  0.0133  0.1835
  865MOL0     C14082   7.970   4.079  -0.240  0.7560  0.1814  0.5491
  865MOL0     O14083   7.887   4.097  -0.348  0.2674  0.3081 -0.0506
  865MOL0     C14084   7.951   4.128  -0.476  0.3278  0.0733  0.4812
  865MOL0     C14085   7.848   4.143  -0.585  0.6484  1.0535  0.4419
  865MOL0     C14086   7.905   4.165  -0.717 -0.0632  0.0766  0.4292
  865MOL0     C14087   7.808   4.159  -0.833  1.0362 -0.5580  0.6506
  865MOL0     C14088   7.711   4.281  -0.819 -0.1059  0.4255 -0.5997
  865MOL0     C14089   7.579   4.244  -0.903 -0.8855  1.4169  0.6127
  865MOL0     C14090   7.461   4.346  -0.890  0.5822 -0.4762  0.3479
  865MOL0     C14091   7.361   4.338  -1.014  1.0225 -0.6089 -0.3098
  865MOL0    Cl14092   7.309   4.172  -1.055 -0.0024  0.0447 -0.2579
  865MOL0     C14093   7.897   4.037  -0.130  0.1437  0.0544  0.1007
  865MOL0     C14094   7.968   4.020  -0.007 -0.3189  0.6566  0.4974
  865MOL0     O14095   8.217   4.237   0.125 -0.7850  0.1647  0.3705
  865MOL0     C14096   8.215   4.200   0.412 -0.7026  0.1078 -0.4540
  865MOL0     C14097   8.207   4.183   0.551  0.2662  0.0192  0.3313
  865MOL0     N14098   8.019   3.773   1.225 -0.0276 -0.3607 -0.0386
  865MOL0     N14099   8.051   3.646   1.234 -0.7803  0.2207  0.1587
  865MOL0     C14100   8.959   2.893   1.497 -0.4746  0.7305  0.3310
  865MOL0     C14101   9.089   2.852   1.476 -0.5352 -0.6474  0.6208
  865MOL0     C14102   9.530   2.743   1.632 -0.3143  0.8671  0.3157
  865MOL0     C14103   9.580   2.807   1.526 -0.4099 -0.4454  0.9001
  865MOL0     C14104   9.725   2.835   1.523 -0.0706 -0.0512 -0.0339
  865MOL0     C14105   9.818   2.803   1.625  0.0710  0.3067  0.4010
  865MOL0     O14106   9.947   2.838   1.590 -0.0892 -0.8367  0.0085
  865MOL0     C14107  10.054   2.792   1.671 -0.1397  0.5937 -0.2637
  865MOL0     C14108  10.175   2.886   1.649  0.7011  0.0715  0.1952
  865MOL0     C14109  10.212   2.888   1.500 -0.2641 -0.6680 -0.1181
  865MOL0     C14110  10.324   2.986   1.472  1.0762  1.1024 -0.3983
  865MOL0     C14111  10.340   2.970   1.324  0.1451  0.1361 -0.9691
  865MOL0     C14112  10.367   2.950   1.210 -0.9438 -0.7042 -0.1539
  865MOL0     C14113   9.762   2.730   1.737  0.1333 -0.3194 -0.1980
  865MOL0     C14114   9.620   2.703   1.737  0.1404 -0.5192  0.5325
  865MOL0     H14115   9.136   2.699   1.777 -3.0985  2.0753  2.8117
  865MOL0     H14116   8.901   2.735   1.782  0.0956  0.4465 -0.4375
  865MOL0     H14117   8.775   3.066   1.622  0.9032 -1.4949  1.4015
  865MOL0     H14118   8.621   3.021   1.667  1.5748  0.6658  1.3375
  865MOL0     H14119   8.546   2.969   1.434  0.0571  0.4561 -2.4390
  865MOL0     H14120   8.718   2.982   1.379 -2.0579 -0.8380 -1.8582
  865MOL0     H14121   8.698   3.213   1.419 -3.0834  2.6497  2.8599
  865MOL0     H14122   8.550   3.198   1.503 -1.8740 -1.8783  0.1431
  865MOL0     H14123   8.620   3.160   1.209 -0.4933 -0.7617 -0.6358
  865MOL0     H14124   8.457   3.119   1.273 -0.1872 -0.4880  1.1645
  865MOL0     H14125   8.584   3.385   1.210 -1.7532 -0.1651 -3.0609
  865MOL0     H14126   8.485   3.375   1.355  1.9666 -0.1611  0.8057
  865MOL0     H14127   8.294   3.273   1.200 -0.9712  0.0943 -1.3701
  865MOL0     H14128   8.409   3.290   1.072 -1.8393 -2.6627  0.7109
  865MOL0     H14129   8.412   3.542   1.139 -0.5129  0.4797 -1.0029
  865MOL0     H14130   8.249   3.478   1.096  2.4130  4.9088 -1.4737
  865MOL0     H14131   8.340   3.544   1.373 -1.1260 -1.6211  0.9452
  865MOL0     H14132   8.196   3.438   1.329 -2.0372  0.1694  0.3535
  865MOL0     H14133   8.336   3.808   1.297  0.9143 -1.7961 -0.1503
  865MOL0     H14134   8.201   4.056   1.223  0.6050  1.4183 -3.3412
  865MOL0     H14135   8.033   4.034   1.260  0.1954 -1.0541  1.4897
  865MOL0     H14136   7.970   3.973   1.032  0.0232 -1.8857 -0.1785
  865MOL0     H14137   8.123   3.905   1.003  0.2986  1.3128 -2.6393
  865MOL0     H14138   8.087   4.201   1.006  1.9114 -0.2288  0.1858
  865MOL0     H14139   8.230   4.120   0.957  0.6184 -1.8380 -0.1163
  865MOL0     H14140   8.024   4.167   0.768  1.0050 -0.5236 -2.2580
  865MOL0     H14141   7.988   4.011   0.821 -0.8512  0.3846 -1.6947
  865MOL0     H14142   8.128   3.856   0.548  0.9018  1.1920  3.6396
  865MOL0     H14143   8.147   3.878   0.315 -0.2618 -0.9233  0.9064
  865MOL0     H14144   8.285   4.103  -0.116  0.6100 -0.6014  1.0179
  865MOL0     H14145   8.160   4.140  -0.322 -2.7867  2.9381 -0.0439
  865MOL0     H14146   8.023   4.054  -0.511  0.2918  0.6704 -0.9155
  865MOL0     H14147   8.007   4.221  -0.465  1.1832 -0.5322  1.4602
  865MOL0     H14148   7.775   4.215  -0.547 -0.7046  0.6511 -1.3022
  865MOL0     H14149   7.808   4.041  -0.594 -0.5577  1.7140 -2.7990
  865MOL0     H14150   7.988   4.099  -0.743 -0.4118 -0.4665  0.6775
  865MOL0     H14151   7.949   4.264  -0.704  0.0309 -0.1306  1.8396
  865MOL0     H14152   7.849   4.162  -0.935 -0.7359  0.0579 -0.0677
  865MOL0     H14153   7.747   4.068  -0.830 -2.0128  1.2875 -0.9569
  865MOL0     H14154   7.770   4.363  -0.860  1.3028 -1.4320 -2.4856
  865MOL0     H14155   7.680   4.304  -0.716 -0.6961 -2.2676 -0.1074
  865MOL0     H14156   7.544   4.143  -0.879 -1.2780  1.5667  0.6740
  865MOL0     H14157   7.615   4.238  -1.007  0.7005 -2.5126  1.2027
  865MOL0     H14158   7.402   4.328  -0.799 -2.0775  1.6920 -0.8114
  865MOL0     H14159   7.493   4.450  -0.890  0.4091 -0.3227  3.3666
  865MOL0     H14160   7.425   4.380  -1.092  1.8004  0.5204  0.8901
  865MOL0     H14161   7.276   4.404  -0.995  2.7285  1.5791  0.1525
  865MOL0     H14162   7.789   4.034  -0.129  0.0639  1.8051 -0.4720
  865MOL0     H14163   7.923   3.997   0.089 -2.5152 -2.6111 -1.0948
  865MOL0     H14164   8.244   4.300   0.381  1.3464  0.6577  2.7628
  865MOL0     H14165   8.235   4.259   0.623  0.0706  1.2356 -0.8404
  865MOL0     H14166   8.912   2.958   1.424  1.0383  1.6545  0.1354
  865MOL0     H14167   9.145   2.890   1.391 -0.0442 -0.3687  1.0606
  865MOL0     H14168   9.521   2.839   1.440 -2.1636 -1.0966  1.8129
  865MOL0     H14169   9.757   2.884   1.431 -1.2924 -0.1131 -0.5182
  865MOL0     H14170  10.077   2.690   1.640  0.0236  0.3570  0.6243
  865MOL0     H14171  10.022   2.785   1.775 -0.1953 -0.3542 -0.3393
  865MOL0     H14172  10.147   2.984   1.691 -2.4310  0.2487 -1.9081
  865MOL0     H14173  10.265   2.851   1.700  1.1903  1.8915  0.6751
  865MOL0     H14174  10.128   2.905   1.431  2.6576  2.1834 -3.3847
  865MOL0     H14175  10.245   2.786   1.481  0.5716 -0.2889 -0.7429
  865MOL0     H14176  10.289   3.083   1.509  1.2329 -0.5568  4.9954
  865MOL0     H14177  10.415   2.958   1.525  1.0337 -0.1293 -0.9413
  865MOL0     H14178  10.384   2.944   1.104 -1.9155  1.4910 -0.4887
  865MOL0     H14179   9.824   2.696   1.819  0.2100 -2.9415 -1.2577
  865MOL0     H14180   9.565   2.667   1.823 -1.0800  1.2130  0.5324
  866MOL0     O14181   7.888   1.833   1.973 -0.5352 -0.7964 -0.1539
  866MOL0     C14182   7.915   1.915   1.885 -1.3450 -0.0045 -0.1027
  866MOL0     O14183   7.858   2.044   1.871 -0.4027  0.8711 -0.0795
  866MOL0     C14184   7.771   2.092   1.964 -0.4816 -1.2994 -0.3820
  866MOL0     C14185   7.787   2.081   2.101 -0.4644 -0.3053 -1.2163
  866MOL0     C14186   7.677   2.121   2.183  0.4462  0.1641  0.8567
  866MOL0     C14187   7.559   2.177   2.124  0.5279 -0.4680  0.3020
  866MOL0     O14188   7.462   2.228   2.209 -0.2565  0.3298  0.5139
  866MOL0     C14189   7.346   2.148   2.207 -0.1954 -1.0038  0.5612
  866MOL0     C14190   7.224   2.246   2.191  0.2443 -0.2449  0.4008
  866MOL0     C14191   7.083   2.183   2.197 -0.2627 -0.0893  0.0107
  866MOL0     C14192   7.058   2.113   2.322 -0.7638  0.0362 -1.2027
  866MOL0     C14193   6.941   2.017   2.314 -0.2732 -0.1351  0.5412
  866MOL0     C14194   6.807   2.095   2.294 -0.3056  0.5409 -0.9694
  866MOL0     C14195   6.682   1.999   2.284 -0.6499  0.3225 -0.5976
  866MOL0     C14196   6.690   1.905   2.154  0.1922  0.7309 -0.7839
  866MOL0     N14197   6.558   1.849   2.128  0.0128 -0.0884  0.2178
  866MOL0     C14198   6.479   1.769   2.206  0.7334  0.1510  0.3599
  866MOL0     C14199   6.376   1.731   2.125  0.4654 -0.4250 -0.4786
  866MOL0     C14200   6.267   1.637   2.155 -0.4098 -0.3177 -0.3499
  866MOL0     C14201   6.256   1.575   2.293  0.3716 -0.0950  0.1700
  866MOL0     C14202   6.151   1.462   2.305 -0.0285  0.2785 -0.1818
  866MOL0     C14203   6.207   1.327   2.287 -0.6569 -0.4496  0.0230
  866MOL0     O14204   6.256   1.303   2.156 -0.5186  0.9511  0.8103
  866MOL0     C14205   6.165   1.258   2.066  0.0833  0.1677 -0.3227
  866MOL0     C14206   6.217   1.221   1.940 -0.2447  0.0872 -0.1394
  866MOL0     C14207   6.130   1.182   1.837 -0.7158 -0.4230  0.8238
  866MOL0     C14208   5.995   1.177   1.850  0.0723  0.5185 -0.8948
  866MOL0     C14209   5.905   1.141   1.741  0.4801 -0.4879  0.2286
  866MOL0     O14210   5.768   1.137   1.770  0.3402 -0.1610 -0.0494
  866MOL0     C14211   5.672   1.078   1.686  0.3664 -0.1057  0.3356
  866MOL0     C14212   5.538   1.113   1.698  0.1011 -0.2780 -0.1848
  866MOL0     C14213   5.439   1.059   1.610 -0.3458 -0.3667  0.0071
  866MOL0     C14214   5.480   0.967   1.509 -0.3026  0.5050  0.0271
  866MOL0     O14215   5.381   0.932   1.422 -0.0331 -0.6615 -0.1356
  866MOL0     C14216   5.404   0.862   1.295  0.1760 -0.5087 -0.4450
  866MOL0     C14217   5.275   0.819   1.221  0.0886 -0.0808  0.1045
  866MOL0     C14218   5.187   0.751   1.319 -0.6496 -0.3596  0.3600
  866MOL0     C14219   5.058   0.702   1.252 -0.2217 -1.0310  0.5669
  866MOL0     C14220   4.940   0.694   1.352 -0.3210  0.3747  0.4556
  866MOL0     C14221   4.830   0.591   1.306 -0.9303 -0.7553  0.4426
  866MOL0     C14222   4.781   0.630   1.171 -0.0344  0.1392 -0.1193
  866MOL0     C14223   4.707   0.513   1.094 -0.1671 -0.0037 -0.2511
  866MOL0    Cl14224   4.813   0.367   1.064 -0.1328 -0.0507 -0.2814
  866MOL0     C14225   5.613   0.932   1.501 -0.0129  0.2872  0.1677
  866MOL0     C14226   5.712   0.991   1.584 -0.5692 -0.4191 -0.3927
  866MOL0     O14227   5.957   1.142   1.629  0.7834  0.0648 -0.2903
  866MOL0     C14228   5.944   1.208   1.979  0.0488  0.6400 -0.4303
  866MOL0     C14229   6.024   1.254   2.085  0.3016  0.5314  0.4721
  866MOL0     N14230   6.382   1.824   2.019  0.6345  0.0631  0.5124
  866MOL0     N14231   6.483   1.887   2.025  0.0653 -0.6779  0.7286
  866MOL0     C14232   7.548   2.200   1.983  0.1507 -0.8979 -0.8300
  866MOL0     C14233   7.653   2.145   1.905 -0.6607  0.3789  0.2393
  866MOL0     C14234   8.004   1.870   1.777  0.5038 -0.0437  0.0301
  866MOL0     C14235   8.065   1.975   1.702  0.6229  0.4618 -0.3681
  866MOL0     C14236   8.167   1.933   1.615  0.0592  0.5216  0.3988
  866MOL0     C14237   8.211   1.799   1.590  0.1219  0.1844  0.6712
  866MOL0     O14238   8.311   1.763   1.507 -0.1682 -0.0827 -0.6994
  866MOL0     C14239   8.344   1.848   1.397 -0.1524  0.6546  0.0015
  866MOL0     C14240   8.476   1.794   1.336  0.6714 -0.1286 -0.4827
  866MOL0     C14241   8.588   1.804   1.441  0.0829  0.2264 -0.4604
  866MOL0     C14242   8.729   1.796   1.374  0.8430 -0.4549 -0.0018
  866MOL0     C14243   8.831   1.790   1.475  0.5186  0.9935  0.2633
  866MOL0     C14244   8.922   1.799   1.561  0.1700 -0.2885 -1.0089
  866MOL0     C14245   8.140   1.704   1.670 -1.1646 -0.4159 -0.3773
  866MOL0     C14246   8.050   1.742   1.762  0.4241  0.3630  0.2393
  866MOL0     H14247   7.878   2.033   2.137  1.5274  2.5761 -2.0985
  866MOL0     H14248   7.672   2.104   2.290 -1.6934  0.7104  0.8829
  866MOL0     H14249   7.342   2.099   2.305 -2.2961  1.6861  2.0000
  866MOL0     H14250   7.339   2.084   2.119 -0.0456  1.0061 -0.9737
  866MOL0     H14251   7.242   2.294   2.095  0.4465  2.1578  1.5658
  866MOL0     H14252   7.218   2.321   2.270 -3.5277  2.4237 -2.0853
  866MOL0     H14253   7.060   2.110   2.119  0.0842 -0.0386 -0.1409
  866MOL0     H14254   7.010   2.265   2.194 -0.5467 -0.2002  2.1035
  866MOL0     H14255   7.148   2.064   2.361  1.0363  2.5334 -1.9242
  866MOL0     H14256   7.033   2.191   2.395  0.0293 -1.5507  0.8516
  866MOL0     H14257   6.922   1.976   2.414 -0.9570  2.2803  1.4696
  866MOL0     H14258   6.949   1.943   2.234 -1.4404 -1.0654  1.2436
  866MOL0     H14259   6.810   2.167   2.212  1.0902 -0.0007 -1.4293
  866MOL0     H14260   6.792   2.152   2.385  0.8684 -1.3838  0.5168
  866MOL0     H14261   6.669   1.944   2.377 -0.6483  2.1635  0.5425
  866MOL0     H14262   6.589   2.058   2.286 -0.4350  0.7341  2.7306
  866MOL0     H14263   6.750   1.815   2.169 -3.3584 -1.4285  2.4751
  866MOL0     H14264   6.732   1.950   2.064 -0.9876  0.5165 -1.4669
  866MOL0     H14265   6.513   1.725   2.299  3.2755  0.6767 -0.2583
  866MOL0     H14266   6.279   1.550   2.090  1.5267  0.8803 -1.7049
  866MOL0     H14267   6.178   1.692   2.123  0.5483  0.3235 -2.0853
  866MOL0     H14268   6.227   1.652   2.365  2.7635 -0.3873  1.5764
  866MOL0     H14269   6.354   1.543   2.329  0.4917 -1.6134 -1.3415
  866MOL0     H14270   6.093   1.457   2.397 -0.9742 -1.4682 -0.8227
  866MOL0     H14271   6.070   1.474   2.233 -2.0781 -1.4162  1.7126
  866MOL0     H14272   6.126   1.257   2.311 -1.7444 -0.6481 -3.6211
  866MOL0     H14273   6.285   1.314   2.363 -0.2733  0.4568 -0.2006
  866MOL0     H14274   6.325   1.221   1.928 -0.0097 -2.1531  1.2053
  866MOL0     H14275   6.169   1.163   1.738  0.6008  1.7786  0.8668
  866MOL0     H14276   5.522   1.182   1.780  1.2850  0.8553 -0.8746
  866MOL0     H14277   5.335   1.087   1.619  0.2980  2.1029  0.2853
  866MOL0     H14278   5.454   0.771   1.331  3.9099  2.0214  1.4543
  866MOL0     H14279   5.470   0.920   1.230 -0.4012  0.2040 -0.4065
  866MOL0     H14280   5.290   0.751   1.137 -0.9493 -0.5787  0.3024
  866MOL0     H14281   5.215   0.904   1.187 -1.8356 -2.1342 -2.0676
  866MOL0     H14282   5.165   0.823   1.397  0.6384 -1.2446  1.5935
  866MOL0     H14283   5.242   0.666   1.363  2.5419  0.2017 -2.1069
  866MOL0     H14284   5.027   0.772   1.174 -3.3174 -0.9456  1.7542
  866MOL0     H14285   5.080   0.603   1.210  1.9364 -0.8702  1.1698
  866MOL0     H14286   4.888   0.789   1.366 -3.3633 -0.5436 -2.9943
  866MOL0     H14287   4.988   0.659   1.444  0.8416 -2.0508 -0.9732
  866MOL0     H14288   4.748   0.583   1.378 -0.9043  1.4514  0.7668
  866MOL0     H14289   4.877   0.492   1.309  1.1079  0.1759  2.1675
  866MOL0     H14290   4.712   0.711   1.193 -1.7528 -0.8589 -1.5362
  866MOL0     H14291   4.858   0.671   1.106 -1.1360 -0.7165 -2.0570
  866MOL0     H14292   4.682   0.555   0.996  3.9469  2.5894 -0.4524
  866MOL0     H14293   4.617   0.486   1.149  0.9241 -1.4004  0.9529
  866MOL0     H14294   5.649   0.866   1.422 -1.2825 -1.2726  0.8461
  866MOL0     H14295   5.817   0.983   1.557 -0.3963  0.5220 -0.0533
  866MOL0     H14296   5.837   1.222   1.991  0.3961  3.5865 -0.0410
  866MOL0     H14297   5.971   1.290   2.173 -1.7777  2.2611 -1.3646
  866MOL0     H14298   7.465   2.257   1.944  1.8186 -0.4805 -4.1345
  866MOL0     H14299   7.646   2.150   1.797  0.2930  1.3211  0.2017
  866MOL0     H14300   8.035   2.079   1.708 -1.4815 -0.0698 -0.8893
  866MOL0     H14301   8.224   2.021   1.586 -2.9003  2.3572 -0.2711
  866MOL0     H14302   8.370   1.947   1.436  1.0036  1.0551 -1.6846
  866MOL0     H14303   8.262   1.854   1.326 -0.2015 -0.0180 -0.0073
  866MOL0     H14304   8.454   1.694   1.299 -0.5769 -0.2097  0.4183
  866MOL0     H14305   8.497   1.862   1.253 -0.4820  3.8918  2.2158
  866MOL0     H14306   8.572   1.733   1.522 -0.0312  0.2884 -0.4276
  866MOL0     H14307   8.586   1.906   1.480  1.1480  1.1220 -2.5865
  866MOL0     H14308   8.739   1.707   1.311 -0.5215 -0.7934  0.2157
  866MOL0     H14309   8.750   1.890   1.322 -4.2441  0.0764 -1.7440
  866MOL0     H14310   8.995   1.811   1.638 -1.0877 -0.8384  0.3143
  866MOL0     H14311   8.170   1.600   1.678  1.1895  0.2526  0.5149
  866MOL0     H14312   8.006   1.664   1.822  0.1446  0.7120  0.4946
  867MOL0     O14313   4.905   5.865   1.006 -0.1943 -0.2060  0.4425
  867MOL0     C14314   4.897   5.988   1.033  0.0958 -0.2107 -0.5584
  867MOL0     O14315   4.786   6.074   1.009  0.0347  0.3319  0.3488
  867MOL0     C14316   4.661   6.026   0.989  0.8940 -0.4176 -0.7525
  867MOL0     C14317   4.573   6.124   0.944  0.1724  1.1210 -0.2489
  867MOL0     C14318   4.436   6.087   0.917  0.6952  0.3671  0.0751
  867MOL0     C14319   4.391   5.955   0.937  0.9256  0.1879 -0.7271
  867MOL0     O14320   4.267   5.930   0.889 -0.4408 -0.0348 -0.1465
  867MOL0     C14321   4.158   5.959   0.984 -0.0877  0.3207  0.0285
  867MOL0     C14322   4.070   5.834   0.997  0.3947 -0.0667 -0.9076
  867MOL0     C14323   3.992   5.800   0.874 -0.1467 -0.5891  0.4440
  867MOL0     C14324   3.859   5.728   0.894  0.2892 -0.3200  0.2525
  867MOL0     C14325   3.791   5.701   0.760 -0.0718  0.6488 -0.7906
  867MOL0     C14326   3.641   5.662   0.797 -0.2099 -0.3090 -0.1402
  867MOL0     C14327   3.542   5.688   0.686 -0.7073 -0.3432  0.1219
  867MOL0     C14328   3.392   5.686   0.736 -1.1948 -0.5126 -1.3691
  867MOL0     N14329   3.332   5.558   0.722 -0.1075  0.9302 -0.6234
  867MOL0     C14330   3.289   5.504   0.597  0.3681 -0.1430  0.5962
  867MOL0     C14331   3.262   5.375   0.615  0.6240  0.2860 -0.0590
  867MOL0     C14332   3.217   5.283   0.503 -0.3045  0.3932  0.2436
  867MOL0     C14333   3.070   5.295   0.487  0.9358 -0.0801 -0.1234
  867MOL0     C14334   2.992   5.229   0.604 -0.4085  0.2919 -0.0902
  867MOL0     C14335   2.844   5.245   0.580 -0.2694  0.3144 -0.2675
  867MOL0     O14336   2.780   5.140   0.644  1.1134  0.3491 -0.0578
  867MOL0     C14337   2.638   5.147   0.639  0.0415 -0.1500 -0.7439
  867MOL0     C14338   2.568   5.161   0.519  0.8830 -0.2163 -0.4049
  867MOL0     C14339   2.426   5.133   0.510 -0.1175  0.5233 -0.5631
  867MOL0     C14340   2.359   5.094   0.623  1.1613  0.7977 -0.8707
  867MOL0     C14341   2.212   5.057   0.631  0.9772 -0.0184 -0.0889
  867MOL0     O14342   2.146   5.052   0.505  0.1022 -0.2944  0.0103
  867MOL0     C14343   2.023   5.009   0.468  0.6825  0.0746 -0.4376
  867MOL0     C14344   1.931   4.970   0.567  0.3684  0.1190 -1.2694
  867MOL0     C14345   1.806   4.925   0.535  0.4570 -0.5187 -0.0052
  867MOL0     C14346   1.766   4.916   0.397  0.2404  0.4329  0.3106
  867MOL0     O14347   1.646   4.854   0.358 -0.6179 -0.5224  0.5033
  867MOL0     C14348   1.598   4.881   0.219 -0.2377  0.0054 -0.0208
  867MOL0     C14349   1.450   4.855   0.200 -0.4500 -1.1558 -0.0534
  867MOL0     C14350   1.424   4.711   0.221  0.3757  0.8038  0.2015
  867MOL0     C14351   1.278   4.666   0.191 -0.5541 -0.5607 -0.4840
  867MOL0     C14352   1.178   4.731   0.289 -0.9544 -0.5891 -0.6290
  867MOL0     C14353   1.043   4.694   0.244  0.5479 -0.7139  0.4812
  867MOL0     C14354   0.996   4.806   0.157  0.9599 -0.2623 -0.3607
  867MOL0     C14355   0.847   4.806   0.108 -0.0921 -0.5017 -0.4023
  867MOL0    Cl14356   0.802   4.664   0.010 -0.1974  0.2887 -0.0139
  867MOL0     C14357   1.856   4.955   0.303 -0.3950  0.3023  0.3505
  867MOL0     C14358   1.981   5.007   0.335 -0.0439  0.3390  0.2368
  867MOL0     O14359   2.165   5.035   0.743 -0.5096 -0.0525  0.6517
  867MOL0     C14360   2.433   5.089   0.747  0.5341  0.2618  0.1238
  867MOL0     C14361   2.568   5.113   0.754 -0.1239 -0.2791  0.1899
  867MOL0     N14362   3.314   5.344   0.741  0.3907  0.2035 -0.2140
  867MOL0     N14363   3.349   5.449   0.806  0.0151 -0.0235  0.5035
  867MOL0     C14364   4.480   5.861   0.994 -0.6283 -0.1694  0.1220
  867MOL0     C14365   4.611   5.895   1.030 -0.6664  0.8457  0.7841
  867MOL0     C14366   5.009   6.053   1.093  1.1960 -0.2283  1.0339
  867MOL0     C14367   5.011   6.195   1.083  0.3997 -0.1527  0.1738
  867MOL0     C14368   5.130   6.268   1.108 -0.5932 -0.4012  0.8055
  867MOL0     C14369   5.249   6.199   1.165 -0.1954  0.1040  0.1946
  867MOL0     O14370   5.365   6.262   1.203 -0.3142  1.0566 -0.0159
  867MOL0     C14371   5.382   6.388   1.146 -0.3041 -0.9617 -0.6472
  867MOL0     C14372   5.528   6.438   1.173 -1.3147 -0.1068 -0.3669
  867MOL0     C14373   5.648   6.369   1.099  0.2380  0.1577 -0.4945
  867MOL0     C14374   5.646   6.424   0.959 -0.4676 -0.4511  0.4505
  867MOL0     C14375   5.720   6.553   0.947 -0.7451 -0.2268  0.8620
  867MOL0     C14376   5.806   6.642   0.919 -0.1696 -0.2152  0.2549
  867MOL0     C14377   5.228   6.058   1.170  0.0172  0.9720 -0.2457
  867MOL0     C14378   5.120   5.985   1.133 -0.3549  0.1129 -0.7256
  867MOL0     H14379   4.616   6.222   0.925 -2.3720  1.9866 -2.0915
  867MOL0     H14380   4.363   6.156   0.875 -0.9427 -0.3911  1.5381
  867MOL0     H14381   4.101   6.046   0.950 -0.4181  0.8173  1.7795
  867MOL0     H14382   4.201   5.975   1.083  1.5046  0.8823 -0.7293
  867MOL0     H14383   3.994   5.858   1.072  0.0609  1.0186 -1.5788
  867MOL0     H14384   4.131   5.753   1.037 -0.8754 -0.3912  0.4631
  867MOL0     H14385   4.055   5.733   0.815 -1.0531 -0.6864 -0.4454
  867MOL0     H14386   3.975   5.896   0.824 -2.2373 -0.5615  1.1320
  867MOL0     H14387   3.878   5.637   0.952 -0.3381 -0.6779 -0.0853
  867MOL0     H14388   3.801   5.795   0.958 -0.7133 -0.6752 -0.2623
  867MOL0     H14389   3.840   5.627   0.697  0.9884  0.5831  0.0934
  867MOL0     H14390   3.779   5.797   0.709  0.4449  0.0441 -2.0665
  867MOL0     H14391   3.599   5.716   0.882 -0.6710  1.2692 -1.3043
  867MOL0     H14392   3.636   5.560   0.834 -0.2934  0.1338  1.1141
  867MOL0     H14393   3.555   5.785   0.637  0.1499  0.3360  1.6150
  867MOL0     H14394   3.556   5.611   0.611 -0.0390  0.6034 -0.7596
  867MOL0     H14395   3.341   5.754   0.668 -1.6065  1.6310  0.9555
  867MOL0     H14396   3.388   5.720   0.840 -0.6418 -0.3559 -1.3942
  867MOL0     H14397   3.275   5.562   0.506  2.4049 -0.3362  0.1081
  867MOL0     H14398   3.245   5.181   0.530  0.0666  0.5994  0.6473
  867MOL0     H14399   3.274   5.307   0.413  2.2355 -0.7940  1.4418
  867MOL0     H14400   3.046   5.249   0.391 -0.7014  1.1158 -0.3387
  867MOL0     H14401   3.054   5.403   0.485  2.5703  0.2095  0.4802
  867MOL0     H14402   3.027   5.126   0.598  0.9921  0.7859 -1.0246
  867MOL0     H14403   3.002   5.269   0.705 -3.2569 -1.5731  1.0408
  867MOL0     H14404   2.833   5.235   0.472  2.9260 -0.2760 -0.6294
  867MOL0     H14405   2.801   5.341   0.612  1.7705  1.0011  0.5723
  867MOL0     H14406   2.614   5.170   0.421 -0.3358  0.2953 -0.9417
  867MOL0     H14407   2.393   5.113   0.408  2.6594 -1.4762 -1.2058
  867MOL0     H14408   1.938   4.983   0.674  0.7705  1.9201 -1.4743
  867MOL0     H14409   1.730   4.904   0.610  0.0489  1.3213  0.1359
  867MOL0     H14410   1.644   4.812   0.147 -1.9428 -2.0933  0.7662
  867MOL0     H14411   1.611   4.987   0.197  1.2964  0.2475  1.8208
  867MOL0     H14412   1.424   4.871   0.095  0.8852  1.2845 -0.0762
  867MOL0     H14413   1.387   4.911   0.269  0.0706  0.6960 -1.0017
  867MOL0     H14414   1.458   4.682   0.321 -2.2906 -0.3129  0.8685
  867MOL0     H14415   1.489   4.651   0.157 -0.6686 -1.2716  1.0189
  867MOL0     H14416   1.260   4.699   0.089  2.4090  1.5620 -0.4633
  867MOL0     H14417   1.262   4.558   0.192 -2.9544 -0.2504  0.8407
  867MOL0     H14418   1.197   4.838   0.304 -0.6955 -0.4470 -1.9060
  867MOL0     H14419   1.202   4.689   0.387 -1.9948 -0.7044 -0.4041
  867MOL0     H14420   0.974   4.695   0.329 -0.8615  2.6222 -0.5190
  867MOL0     H14421   1.042   4.602   0.184  1.2851  2.0510 -4.2962
  867MOL0     H14422   1.005   4.899   0.213 -0.7582 -0.8717  1.0388
  867MOL0     H14423   1.056   4.798   0.066  1.8132  0.6436  0.1191
  867MOL0     H14424   0.825   4.898   0.052 -0.9989 -1.0734 -1.0217
  867MOL0     H14425   0.779   4.812   0.193  0.7253 -2.1814  0.4021
  867MOL0     H14426   1.832   4.962   0.197  0.9352  1.9897  0.1118
  867MOL0     H14427   2.055   5.035   0.260  0.4709 -2.3399 -0.3729
  867MOL0     H14428   2.396   5.066   0.846  0.6984 -0.1418  0.0935
  867MOL0     H14429   2.615   5.124   0.852  1.2106  1.6787 -0.5983
  867MOL0     H14430   4.440   5.766   1.028  0.3796 -0.8288 -0.4794
  867MOL0     H14431   4.679   5.824   1.075 -0.6485 -0.3910 -1.0737
  867MOL0     H14432   4.938   6.258   1.033 -1.1314 -0.9667  1.3120
  867MOL0     H14433   5.110   6.375   1.107 -1.7302 -0.6095 -0.2266
  867MOL0     H14434   5.308   6.458   1.187 -0.9850 -0.4808 -2.6027
  867MOL0     H14435   5.362   6.392   1.039 -1.4742 -1.6183 -0.4697
  867MOL0     H14436   5.538   6.544   1.148 -2.0123  0.4534  1.6060
  867MOL0     H14437   5.543   6.439   1.281 -1.4142 -0.7097 -0.3415
  867MOL0     H14438   5.637   6.260   1.106 -0.1707  0.2879  1.5552
  867MOL0     H14439   5.740   6.400   1.151  0.8113 -0.2135 -1.2736
  867MOL0     H14440   5.685   6.346   0.892  2.6462 -0.4599  2.1244
  867MOL0     H14441   5.544   6.444   0.922  0.3198  0.0877 -1.5793
  867MOL0     H14442   5.870   6.723   0.892  1.0463 -0.8477  1.1915
  867MOL0     H14443   5.313   5.994   1.193  2.8113  4.8151  1.1180
  867MOL0     H14444   5.141   5.879   1.146  1.2575  0.6628  1.9984
  868MOL0     O14445   8.616   4.573   4.539 -0.8320 -0.4291 -0.2120
  868MOL0     C14446   8.654   4.630   4.638  0.3905 -0.5955 -0.1409
  868MOL0     O14447   8.570   4.683   4.732 -0.2749 -0.1456 -0.2099
  868MOL0     C14448   8.430   4.691   4.704 -0.0353  0.0045  0.6723
  868MOL0     C14449   8.378   4.753   4.589 -0.3586 -0.1115  1.0321
  868MOL0     C14450   8.239   4.760   4.571 -0.2886  0.2076  0.9712
  868MOL0     C14451   8.147   4.711   4.666 -0.1087  0.4660 -0.0908
  868MOL0     O14452   8.014   4.742   4.653 -0.9378  0.3835  1.3871
  868MOL0     C14453   7.925   4.662   4.728 -0.3498 -0.0454  0.1717
  868MOL0     C14454   7.783   4.716   4.704 -0.1378 -0.3741  0.0542
  868MOL0     C14455   7.668   4.652   4.783  0.1340 -0.5366  0.0821
  868MOL0     C14456   7.537   4.720   4.736  0.7347 -0.6372 -0.2797
  868MOL0     C14457   7.416   4.676   4.828 -0.0413  0.8154  1.1745
  868MOL0     C14458   7.383   4.768   4.942  0.2545  0.3644 -0.1388
  868MOL0     C14459   7.303   4.710   5.053  0.4497 -0.3506 -0.3900
  868MOL0     C14460   7.161   4.657   5.032 -0.5649 -0.4140 -0.4597
  868MOL0     N14461   7.103   4.598   5.153 -0.1127 -0.3416  0.2284
  868MOL0     C14462   7.090   4.457   5.178  0.2313 -0.9640  1.0127
  868MOL0     C14463   7.014   4.458   5.285  0.1549  0.7212 -0.1247
  868MOL0     C14464   6.970   4.337   5.365 -0.4275  0.0970  0.5597
  868MOL0     C14465   6.825   4.286   5.349  0.1072 -1.0118  0.0857
  868MOL0     C14466   6.811   4.205   5.224  0.8141  0.5126  0.2816
  868MOL0     C14467   6.696   4.106   5.237 -0.0888  0.5579  0.6690
  868MOL0     O14468   6.577   4.169   5.261 -0.2961 -0.4475  1.9171
  868MOL0     C14469   6.463   4.095   5.291  0.0712 -0.4002  0.4824
  868MOL0     C14470   6.459   3.963   5.335  0.3674  0.7198  0.3638
  868MOL0     C14471   6.342   3.914   5.389 -0.0330  0.3209  0.3735
  868MOL0     C14472   6.221   3.984   5.386 -0.3542 -0.5786  0.5868
  868MOL0     C14473   6.097   3.922   5.420 -0.2191 -1.1154  1.2786
  868MOL0     O14474   5.989   3.996   5.390 -0.2644 -0.3240  0.2621
  868MOL0     C14475   5.859   3.961   5.392 -0.1392  0.3949 -0.1837
  868MOL0     C14476   5.773   4.066   5.364 -0.8049 -0.3767 -0.2278
  868MOL0     C14477   5.637   4.056   5.393 -0.3077  0.3733  0.7972
  868MOL0     C14478   5.581   3.939   5.439  0.8260  0.8919  1.0230
  868MOL0     O14479   5.446   3.930   5.424  0.1859  0.2967 -0.5273
  868MOL0     C14480   5.379   3.807   5.437  0.3982  0.0487  1.0963
  868MOL0     C14481   5.235   3.848   5.448  1.1541  0.5670 -0.0133
  868MOL0     C14482   5.138   3.725   5.442  0.3651  0.0417 -0.0316
  868MOL0     C14483   4.991   3.750   5.495 -0.0247  0.0593 -0.1978
  868MOL0     C14484   4.927   3.614   5.524  0.7451 -0.6763  0.0374
  868MOL0     C14485   4.776   3.626   5.574 -0.4013 -0.5055  0.5251
  868MOL0     C14486   4.767   3.677   5.721 -0.3628 -0.2057  1.1812
  868MOL0     C14487   4.625   3.706   5.771  0.0825 -0.0428 -0.2426
  868MOL0    Cl14488   4.553   3.845   5.685 -0.0988  0.1061 -0.5810
  868MOL0     C14489   5.670   3.830   5.456 -0.2944  0.6307 -0.3296
  868MOL0     C14490   5.807   3.837   5.438 -0.3602 -0.4215  0.0189
  868MOL0     O14491   6.096   3.815   5.475 -0.7343  0.0370  0.6696
  868MOL0     C14492   6.220   4.119   5.336  0.0555 -0.3134 -0.2796
  868MOL0     C14493   6.342   4.168   5.283  1.0130  0.6649 -0.5570
  868MOL0     N14494   6.991   4.590   5.328 -1.0286  0.1194  0.5323
  868MOL0     N14495   7.030   4.671   5.239  0.5252 -0.3201  0.0558
  868MOL0     C14496   8.199   4.647   4.776 -0.2704 -0.3302 -0.0318
  868MOL0     C14497   8.339   4.631   4.795  0.4758 -0.6271  0.0444
  868MOL0     C14498   8.800   4.638   4.656  0.4609  0.0099 -0.2120
  868MOL0     C14499   8.846   4.679   4.782  0.8595 -1.1834  0.1666
  868MOL0     C14500   8.974   4.707   4.808  0.2409 -0.3008  0.4048
  868MOL0     C14501   9.073   4.681   4.704 -0.4588 -0.1673 -0.0284
  868MOL0     O14502   9.211   4.704   4.718 -0.5779 -0.4728 -0.0908
  868MOL0     C14503   9.262   4.835   4.771 -0.3561  0.2891 -0.9280
  868MOL0     C14504   9.411   4.819   4.820 -0.3654  0.5121 -0.6763
  868MOL0     C14505   9.495   4.808   4.698 -0.1683  0.1548 -0.6839
  868MOL0     C14506   9.634   4.776   4.752  0.9159 -0.4963  0.1240
  868MOL0     C14507   9.735   4.776   4.647  0.1738  0.1675 -0.3810
  868MOL0     C14508   9.829   4.758   4.567 -0.5223 -0.3550 -1.1464
  868MOL0     C14509   9.025   4.635   4.574 -0.2369  0.3497 -0.5104
  868MOL0     C14510   8.896   4.610   4.548  1.1394 -0.8429  0.2829
  868MOL0     H14511   8.458   4.787   4.524  0.3327 -1.3739  1.1945
  868MOL0     H14512   8.210   4.800   4.474 -0.2747 -0.7658  0.5535
  868MOL0     H14513   7.949   4.665   4.835  0.1314  0.8754  0.0552
  868MOL0     H14514   7.942   4.563   4.685 -0.1728 -0.4571  1.1748
  868MOL0     H14515   7.759   4.708   4.597  1.5788 -2.8114 -0.2240
  868MOL0     H14516   7.777   4.819   4.739 -2.0400  0.7654 -3.1263
  868MOL0     H14517   7.682   4.678   4.888  0.6104  0.2025 -0.1581
  868MOL0     H14518   7.665   4.542   4.776 -2.8858 -0.6197  1.2597
  868MOL0     H14519   7.537   4.830   4.735 -1.3692 -0.5957 -0.4070
  868MOL0     H14520   7.529   4.685   4.632  4.3064  0.9668 -1.2394
  868MOL0     H14521   7.442   4.577   4.867  0.8431  0.0260 -1.1840
  868MOL0     H14522   7.326   4.658   4.769  1.7901 -1.1526 -1.2716
  868MOL0     H14523   7.328   4.855   4.905 -2.0583 -1.3138 -0.8944
  868MOL0     H14524   7.481   4.799   4.981 -0.6265  0.2328  2.3794
  868MOL0     H14525   7.363   4.633   5.104  0.0663 -0.9682 -0.8545
  868MOL0     H14526   7.294   4.792   5.124 -1.1466 -2.4774  2.0739
  868MOL0     H14527   7.163   4.582   4.952  2.0709 -1.4960  0.5262
  868MOL0     H14528   7.092   4.738   5.006  0.3049  1.3908  2.4534
  868MOL0     H14529   7.138   4.374   5.127 -1.6416 -1.3713 -0.2059
  868MOL0     H14530   6.973   4.362   5.471  0.2192 -0.4730  0.6864
  868MOL0     H14531   7.047   4.261   5.349 -1.3215 -0.5546 -0.8617
  868MOL0     H14532   6.764   4.375   5.332  1.1181 -0.4398 -0.6361
  868MOL0     H14533   6.782   4.233   5.435 -1.4198  0.4234  0.2589
  868MOL0     H14534   6.809   4.266   5.133 -0.6758  1.2377  0.7637
  868MOL0     H14535   6.907   4.157   5.205  2.3452  4.0916 -2.0134
  868MOL0     H14536   6.722   4.057   5.331 -0.1347  2.6656  1.8283
  868MOL0     H14537   6.682   4.041   5.149  1.2834  2.9798 -1.4844
  868MOL0     H14538   6.543   3.895   5.334 -0.5412 -0.5386 -2.8598
  868MOL0     H14539   6.346   3.810   5.419 -2.0262 -0.3553 -1.4362
  868MOL0     H14540   5.825   4.155   5.331 -0.9963 -0.7736 -1.6417
  868MOL0     H14541   5.576   4.144   5.373  0.9816  1.1478  0.1184
  868MOL0     H14542   5.411   3.750   5.525 -0.0147 -1.9411  0.0261
  868MOL0     H14543   5.383   3.738   5.353  2.4249 -0.6582  1.6954
  868MOL0     H14544   5.202   3.929   5.382  0.6037  1.4289  1.2734
  868MOL0     H14545   5.215   3.888   5.548 -1.4573 -0.1087 -0.1903
  868MOL0     H14546   5.179   3.639   5.497 -2.9974 -2.1311 -0.6508
  868MOL0     H14547   5.131   3.685   5.340  3.5055  0.5905 -0.5939
  868MOL0     H14548   5.007   3.803   5.590 -3.0779 -1.7254  1.4886
  868MOL0     H14549   4.930   3.800   5.419  1.3602 -1.7864 -2.6727
  868MOL0     H14550   4.973   3.570   5.613 -0.2412 -1.4179  0.1990
  868MOL0     H14551   4.931   3.555   5.432 -0.5948  0.9692 -1.1509
  868MOL0     H14552   4.734   3.527   5.554 -1.5588  0.2991 -1.3101
  868MOL0     H14553   4.719   3.697   5.513  1.4728  2.5489  2.0873
  868MOL0     H14554   4.813   3.601   5.786 -1.4818 -2.0700 -0.0940
  868MOL0     H14555   4.828   3.767   5.728 -0.5345  0.3840 -2.7219
  868MOL0     H14556   4.623   3.732   5.877  0.6458 -0.7849 -0.0470
  868MOL0     H14557   4.565   3.616   5.755  3.0737 -2.4346  0.9988
  868MOL0     H14558   5.629   3.735   5.488  1.9588  0.4836  2.5789
  868MOL0     H14559   5.870   3.753   5.466 -2.3146 -1.5558  1.1918
  868MOL0     H14560   6.134   4.182   5.320  1.4242  0.9015 -3.9669
  868MOL0     H14561   6.333   4.258   5.223 -0.7019 -0.5696 -2.3224
  868MOL0     H14562   8.136   4.595   4.847  2.0837 -2.7821  0.4375
  868MOL0     H14563   8.384   4.574   4.875 -1.9172  2.1048  3.6830
  868MOL0     H14564   8.786   4.694   4.872 -0.3973  1.9815 -1.0346
  868MOL0     H14565   9.012   4.731   4.907  0.2276 -6.0329  2.1628
  868MOL0     H14566   9.200   4.864   4.857  0.5823  1.8463 -0.7362
  868MOL0     H14567   9.244   4.904   4.689  0.6749 -0.1140 -1.5090
  868MOL0     H14568   9.449   4.904   4.878 -1.0568 -0.4155  1.2070
  868MOL0     H14569   9.415   4.734   4.888  0.8387  1.6651  0.7667
  868MOL0     H14570   9.501   4.905   4.648 -0.1789  1.0575  0.9691
  868MOL0     H14571   9.462   4.723   4.638 -2.5098  0.4690  0.0527
  868MOL0     H14572   9.668   4.852   4.823  0.4163 -3.0535  3.3499
  868MOL0     H14573   9.630   4.683   4.809 -1.9453  0.8629  2.3693
  868MOL0     H14574   9.918   4.742   4.510 -1.0282 -2.7883 -1.3561
  868MOL0     H14575   9.100   4.612   4.500  1.0623  2.4700  0.0706
  868MOL0     H14576   8.864   4.568   4.453  1.2200  0.0995 -0.1808
  869MOL0     O14577   6.931   0.080   8.337  0.0529  0.5481 -0.3699
  869MOL0     C14578   6.952   0.037   8.224  0.4652 -0.0669 -0.8187
  869MOL0     O14579   6.854  -0.001   8.138 -0.6009  0.3988  0.0880
  869MOL0     C14580   6.724   0.025   8.164  0.2031  0.7453 -1.4475
  869MOL0     C14581   6.647   0.098   8.076  1.0871  0.0407  1.4897
  869MOL0     C14582   6.516   0.139   8.104 -0.6974  1.2480 -0.2882
  869MOL0     C14583   6.455   0.090   8.223 -0.0276  0.0441  0.5041
  869MOL0     O14584   6.324   0.111   8.258 -0.0055 -0.5900  0.0327
  869MOL0     C14585   6.233   0.197   8.185 -0.4428  0.2043 -0.6853
  869MOL0     C14586   6.097   0.183   8.251 -0.6955 -1.0568 -0.2207
  869MOL0     C14587   6.018   0.062   8.193 -0.3862  0.3088 -0.3371
  869MOL0     C14588   5.868   0.070   8.208  0.0605  0.6503 -0.1567
  869MOL0     C14589   5.804  -0.063   8.173  0.3220  0.4365 -0.0568
  869MOL0     C14590   5.657  -0.056   8.228 -0.1286  0.0892 -0.0596
  869MOL0     C14591   5.577  -0.179   8.177  0.6859  0.6413  0.2869
  869MOL0     C14592   5.446  -0.216   8.247  0.5512 -0.4265  0.7385
  869MOL0     N14593   5.339  -0.131   8.189 -0.5910 -0.2170  0.6753
  869MOL0     C14594   5.282  -0.159   8.064  0.2750  0.1315 -0.2664
  869MOL0     C14595   5.195  -0.056   8.038  0.1333  0.5322 -0.2187
  869MOL0     C14596   5.093  -0.043   7.932 -0.1481 -0.0966 -0.0747
  869MOL0     C14597   5.018  -0.176   7.919  0.7536 -0.4414  0.5136
  869MOL0     C14598   4.882  -0.155   7.861  0.4286 -0.1639 -0.1563
  869MOL0     C14599   4.780  -0.081   7.970  0.0972 -0.0526  0.1671
  869MOL0     O14600   4.660  -0.036   7.901 -0.9285 -0.5365  0.7174
  869MOL0     C14601   4.558  -0.126   7.885  0.2008 -0.3690  0.3674
  869MOL0     C14602   4.568  -0.273   7.883 -0.0327 -0.4160  1.7623
  869MOL0     C14603   4.462  -0.355   7.841 -0.5065  0.3770 -0.2346
  869MOL0     C14604   4.337  -0.300   7.831  0.4337 -0.6536  0.1309
  869MOL0     C14605   4.225  -0.392   7.793  0.1690  0.6101  0.5608
  869MOL0     O14606   4.106  -0.351   7.748  0.1289  0.5085  0.4460
  869MOL0     C14607   4.000  -0.442   7.732 -0.5534 -1.3870 -0.8887
  869MOL0     C14608   3.963  -0.543   7.822  0.8739  0.0986 -0.4556
  869MOL0     C14609   3.854  -0.624   7.800  0.8853  0.6707 -0.1840
  869MOL0     C14610   3.773  -0.620   7.686 -0.0129  0.5672  0.1092
  869MOL0     O14611   3.665  -0.704   7.651 -0.2451 -0.1432 -0.4130
  869MOL0     C14612   3.674  -0.837   7.703  0.2052 -0.6980 -0.1501
  869MOL0     C14613   3.603  -0.930   7.611  0.7149 -0.6283  0.2230
  869MOL0     C14614   3.617  -1.082   7.641  0.5130 -0.2927 -0.4485
  869MOL0     C14615   3.526  -1.164   7.546 -0.3418  0.9213 -0.6373
  869MOL0     C14616   3.371  -1.159   7.569 -0.1244 -0.2838 -0.2559
  869MOL0     C14617   3.290  -1.217   7.444 -0.8404 -0.1794  0.2179
  869MOL0     C14618   3.143  -1.241   7.485  0.7389  0.6367  0.1553
  869MOL0     C14619   3.078  -1.128   7.559  0.1531  0.2539 -0.6507
  869MOL0    Cl14620   3.035  -0.988   7.447  0.1597  0.4370 -0.4852
  869MOL0     C14621   3.814  -0.514   7.597  1.3382  0.2114  0.1206
  869MOL0     C14622   3.923  -0.425   7.620 -0.0122 -1.0183 -1.0167
  869MOL0     O14623   4.242  -0.506   7.823  0.8578 -0.8769  0.1131
  869MOL0     C14624   4.319  -0.159   7.849  0.1353 -0.2696 -0.1321
  869MOL0     C14625   4.427  -0.076   7.876  0.0162  0.3445 -0.5386
  869MOL0     N14626   5.201   0.023   8.146 -0.2305 -0.7035  0.1527
  869MOL0     N14627   5.285  -0.025   8.232  0.2296  0.0562  0.2448
  869MOL0     C14628   6.534  -0.003   8.306  0.6035 -0.6670 -0.9566
  869MOL0     C14629   6.665  -0.026   8.276  0.5174  0.0066 -0.1196
  869MOL0     C14630   7.090   0.030   8.186 -0.0823 -0.6193 -0.1511
  869MOL0     C14631   7.194   0.053   8.271  0.3653 -0.1008 -0.5912
  869MOL0     C14632   7.323   0.073   8.226 -0.2165 -0.6248  0.3707
  869MOL0     C14633   7.353   0.077   8.081 -0.7268  0.5274 -1.1167
  869MOL0     O14634   7.484   0.119   8.046  0.3418  0.6454 -0.5461
  869MOL0     C14635   7.517   0.083   7.916 -0.0910 -0.3816 -0.2620
  869MOL0     C14636   7.659   0.153   7.884  0.4913 -0.2701 -0.4636
  869MOL0     C14637   7.774   0.086   7.954 -0.1397  0.3775  0.2432
  869MOL0     C14638   7.899   0.168   7.928  0.1856  0.8647 -0.1425
  869MOL0     C14639   8.028   0.098   7.949 -0.1996 -0.3853 -0.4432
  869MOL0     C14640   8.141   0.053   7.971 -0.1816 -0.0533 -0.0325
  869MOL0     C14641   7.246   0.034   7.994 -0.9766 -0.7991  0.4230
  869MOL0     C14642   7.121   0.009   8.045  0.8818  1.4289 -0.8365
  869MOL0     H14643   6.702   0.129   7.988 -0.4005 -0.5797  0.2941
  869MOL0     H14644   6.471   0.209   8.035  1.7870  1.2812 -2.0101
  869MOL0     H14645   6.241   0.143   8.090  0.5202 -2.0401  0.5948
  869MOL0     H14646   6.270   0.300   8.186 -1.5661  0.6156 -0.8642
  869MOL0     H14647   6.050   0.280   8.232  0.2748 -0.1962  1.5368
  869MOL0     H14648   6.112   0.165   8.357  1.9933 -0.4324 -0.4388
  869MOL0     H14649   6.059  -0.028   8.241 -2.1498  1.5238  3.8704
  869MOL0     H14650   6.032   0.056   8.084  0.2932 -0.4619 -0.2180
  869MOL0     H14651   5.853   0.082   8.315 -0.2011  1.7641 -0.3083
  869MOL0     H14652   5.826   0.154   8.152  0.0574  0.3710 -0.5850
  869MOL0     H14653   5.863  -0.135   8.231 -1.1092 -0.4007  0.4028
  869MOL0     H14654   5.807  -0.086   8.067  0.0709 -0.5867  0.1460
  869MOL0     H14655   5.607   0.039   8.207 -1.3890 -0.1556  1.6443
  869MOL0     H14656   5.656  -0.051   8.338 -0.0907  2.0886 -0.1189
  869MOL0     H14657   5.560  -0.174   8.069 -0.1029  1.4809  0.4373
  869MOL0     H14658   5.636  -0.266   8.205  0.5547  0.6947  0.7378
  869MOL0     H14659   5.455  -0.188   8.352  1.6273  1.5285  0.1722
  869MOL0     H14660   5.436  -0.324   8.231  1.6587 -0.2034 -1.9090
  869MOL0     H14661   5.305  -0.235   7.989 -0.3812  0.6970 -1.0557
  869MOL0     H14662   5.152  -0.026   7.842 -0.3592 -1.5779 -0.5251
  869MOL0     H14663   5.025   0.038   7.963 -1.8903 -1.0584 -1.1962
  869MOL0     H14664   5.014  -0.223   8.018  0.3591  0.5399  0.9739
  869MOL0     H14665   5.076  -0.246   7.858 -0.5055  1.5732 -3.3027
  869MOL0     H14666   4.885  -0.105   7.764  1.1252 -0.0065 -0.0579
  869MOL0     H14667   4.840  -0.252   7.832  1.2157  0.1871 -2.7196
  869MOL0     H14668   4.818   0.009   8.018 -1.6081  1.8275 -1.8077
  869MOL0     H14669   4.747  -0.156   8.043  0.3420  0.8681  1.2389
  869MOL0     H14670   4.662  -0.327   7.893 -0.9357 -1.8886  2.7807
  869MOL0     H14671   4.488  -0.459   7.823 -1.4327 -0.2848  1.9474
  869MOL0     H14672   4.018  -0.563   7.914  1.9141  1.7053 -0.6896
  869MOL0     H14673   3.837  -0.704   7.871  3.0415  0.1231 -0.2139
  869MOL0     H14674   3.644  -0.834   7.808  1.1611 -1.2022  0.1486
  869MOL0     H14675   3.778  -0.869   7.716  0.5791  0.9198  1.0437
  869MOL0     H14676   3.654  -0.910   7.516  3.7726 -2.5137  1.3123
  869MOL0     H14677   3.497  -0.902   7.609  1.3996  2.3348  0.6181
  869MOL0     H14678   3.592  -1.101   7.746  1.0395  0.2401 -0.2212
  869MOL0     H14679   3.720  -1.117   7.627  2.0238  2.0064  3.3642
  869MOL0     H14680   3.538  -1.127   7.444  2.1228 -0.4611 -0.9235
  869MOL0     H14681   3.560  -1.268   7.553 -0.7249  0.8764  0.9967
  869MOL0     H14682   3.343  -1.055   7.588  0.7687 -0.4179  2.2020
  869MOL0     H14683   3.343  -1.217   7.658  0.0554  0.2926  0.1841
  869MOL0     H14684   3.343  -1.301   7.398 -0.2430  0.0084  0.5526
  869MOL0     H14685   3.291  -1.154   7.355 -1.5382  0.3722  0.5843
  869MOL0     H14686   3.088  -1.257   7.392 -0.5489  1.3641  0.7745
  869MOL0     H14687   3.129  -1.328   7.550 -1.1700 -0.2571 -1.3535
  869MOL0     H14688   3.140  -1.104   7.646 -1.3934  0.7883  0.3290
  869MOL0     H14689   2.986  -1.162   7.606  1.3314  0.0521  1.6587
  869MOL0     H14690   3.768  -0.496   7.500 -1.9123  0.9240  1.6763
  869MOL0     H14691   3.945  -0.349   7.546  2.4510 -1.8511 -1.2422
  869MOL0     H14692   4.219  -0.117   7.847  0.7398  1.3221  0.9280
  869MOL0     H14693   4.412   0.026   7.910 -0.2622 -0.2293  1.1545
  869MOL0     H14694   6.487  -0.040   8.397  3.1228  0.2911  0.8504
  869MOL0     H14695   6.714  -0.100   8.339 -0.8838 -1.3074 -0.5184
  869MOL0     H14696   7.166   0.064   8.375  0.5316  0.8862 -0.6453
  869MOL0     H14697   7.398   0.105   8.298  1.3046 -4.0585  0.5544
  869MOL0     H14698   7.437   0.122   7.853  0.8369  0.0526 -1.1902
  869MOL0     H14699   7.510  -0.026   7.920  0.1969 -0.3794  2.3445
  869MOL0     H14700   7.666   0.149   7.775 -1.2430 -3.4415 -0.5671
  869MOL0     H14701   7.646   0.256   7.921  2.5962  0.3723 -1.3948
  869MOL0     H14702   7.777  -0.015   7.912 -0.9964 -0.6677  2.4999
  869MOL0     H14703   7.745   0.101   8.059  0.0566 -0.7247  0.4662
  869MOL0     H14704   7.874   0.211   7.831 -2.3523 -0.5907 -0.2113
  869MOL0     H14705   7.902   0.248   8.002 -1.2119 -0.4373  1.4206
  869MOL0     H14706   8.240   0.015   7.984 -0.3003 -1.3180 -2.1922
  869MOL0     H14707   7.254   0.014   7.887  1.9010 -3.8236  1.0500
  869MOL0     H14708   7.045  -0.001   7.969  0.8727  0.3600 -0.7048
  870MOL0     O14709   2.406   4.036   8.040  0.3209  0.2672  0.7935
  870MOL0     C14710   2.493   3.951   8.067  0.0432  0.2679  1.0668
  870MOL0     O14711   2.467   3.815   8.087 -0.3599 -0.8578  0.6247
  870MOL0     C14712   2.335   3.771   8.063  0.0040 -0.3878  0.3582
  870MOL0     C14713   2.230   3.845   8.119 -0.8959 -0.5181  0.7527
  870MOL0     C14714   2.100   3.801   8.097 -0.0880  0.7907  0.5301
  870MOL0     C14715   2.069   3.699   8.009  0.2722 -0.2170 -0.2755
  870MOL0     O14716   1.938   3.662   7.969 -0.3287 -0.3372 -0.1168
  870MOL0     C14717   1.826   3.738   8.024  0.8653 -0.4524 -0.1210
  870MOL0     C14718   1.701   3.665   7.986 -0.1555  0.2079  0.2527
  870MOL0     C14719   1.683   3.519   8.042 -0.0200  0.0226 -0.6371
  870MOL0     C14720   1.584   3.444   7.957  0.2164 -0.0718 -0.2606
  870MOL0     C14721   1.439   3.480   7.997 -0.0327 -1.1557 -0.1037
  870MOL0     C14722   1.327   3.414   7.904 -0.1637 -0.0889 -0.0868
  870MOL0     C14723   1.302   3.501   7.784 -0.0258 -0.2061  0.3315
  870MOL0     C14724   1.211   3.619   7.797 -0.3056 -0.0239  0.1247
  870MOL0     N14725   1.076   3.571   7.811  0.1393  0.0619  0.5227
  870MOL0     C14726   1.003   3.515   7.715  0.5745 -0.7598 -0.4740
  870MOL0     C14727   0.900   3.460   7.786  0.1754  0.8230 -0.4651
  870MOL0     C14728   0.809   3.352   7.728 -0.9110  0.4324 -0.6434
  870MOL0     C14729   0.860   3.211   7.776  0.7578 -0.7128 -0.5666
  870MOL0     C14730   0.781   3.092   7.716  0.0590  0.9225 -0.4676
  870MOL0     C14731   0.813   3.069   7.559  0.9385  0.3361 -0.4519
  870MOL0     O14732   0.785   2.933   7.526 -0.6720  0.0902  0.0897
  870MOL0     C14733   0.653   2.893   7.550  1.0276 -0.0584  0.5133
  870MOL0     C14734   0.539   2.947   7.484  0.3967 -0.7321 -0.6413
  870MOL0     C14735   0.411   2.900   7.511  0.7064  0.5724 -0.3814
  870MOL0     C14736   0.395   2.790   7.604 -0.6514  0.1640 -0.4282
  870MOL0     C14737   0.259   2.743   7.647  0.2109 -0.1299  1.5536
  870MOL0     O14738   0.160   2.749   7.555  0.3360  0.1525 -0.1002
  870MOL0     C14739   0.022   2.709   7.579 -0.4882  0.2589  0.2486
  870MOL0     C14740  -0.055   2.705   7.463  0.5547 -0.4190 -0.2788
  870MOL0     C14741  -0.189   2.690   7.471  0.4017  0.3464  0.1785
  870MOL0     C14742  -0.254   2.653   7.591 -0.6165  0.9815  0.0949
  870MOL0     O14743  -0.386   2.624   7.589  0.2351  0.1264 -0.2095
  870MOL0     C14744  -0.410   2.483   7.595  0.0986  0.3028 -0.0276
  870MOL0     C14745  -0.554   2.448   7.578  0.0103  0.8099 -0.6385
  870MOL0     C14746  -0.630   2.488   7.699 -0.1825 -0.1235  0.4619
  870MOL0     C14747  -0.777   2.455   7.693  0.4862 -0.4428 -0.3270
  870MOL0     C14748  -0.855   2.514   7.816  0.1199 -0.5753  0.5612
  870MOL0     C14749  -0.993   2.450   7.823  0.6706  0.1673  0.0703
  870MOL0     C14750  -1.089   2.480   7.703 -0.3477  0.4951  0.3226
  870MOL0     C14751  -1.235   2.451   7.733  0.0442  0.4445 -0.5464
  870MOL0    Cl14752  -1.336   2.505   7.586  0.2949  0.1195  0.0152
  870MOL0     C14753  -0.174   2.646   7.708  0.3672  0.0552 -0.6940
  870MOL0     C14754  -0.042   2.683   7.705 -0.3987 -1.0983  0.3659
  870MOL0     O14755   0.250   2.699   7.756 -0.0542 -0.2324 -0.0775
  870MOL0     C14756   0.514   2.733   7.656  0.4188  0.4547 -0.2452
  870MOL0     C14757   0.644   2.776   7.621 -0.3009  0.4462  0.3071
  870MOL0     N14758   0.919   3.484   7.919  0.1425 -0.3056 -0.0051
  870MOL0     N14759   1.021   3.562   7.936 -0.0207  0.5942 -0.1073
  870MOL0     C14760   2.170   3.642   7.941 -0.6442 -0.1904 -0.1494
  870MOL0     C14761   2.304   3.668   7.975 -0.2807 -0.0516  0.3092
  870MOL0     C14762   2.637   3.993   8.070 -0.9005  0.6757 -0.3080
  870MOL0     C14763   2.675   4.121   8.027  0.4977  0.8086  0.3188
  870MOL0     C14764   2.801   4.162   8.025  0.4189 -1.0104  0.5981
  870MOL0     C14765   2.902   4.082   8.085 -0.1061 -0.4250 -0.0019
  870MOL0     O14766   3.025   4.136   8.095 -0.3602  0.1168 -0.3434
  870MOL0     C14767   3.135   4.052   8.132  0.2048 -0.4653 -0.2890
  870MOL0     C14768   3.208   4.018   8.008 -0.2131  0.1350 -0.2030
  870MOL0     C14769   3.342   3.946   8.030  0.4786 -0.3904 -0.1621
  870MOL0     C14770   3.329   3.823   8.121  0.1137  0.1431 -1.0164
  870MOL0     C14771   3.227   3.736   8.070 -0.3435 -0.0080 -0.1547
  870MOL0     C14772   3.148   3.671   8.011  0.0139  0.4486 -0.1538
  870MOL0     C14773   2.865   3.954   8.120  0.4736 -0.6977 -0.2226
  870MOL0     C14774   2.734   3.903   8.110 -0.1598 -0.5425 -0.8057
  870MOL0     H14775   2.245   3.933   8.180  0.8008 -0.9854  1.0653
  870MOL0     H14776   2.021   3.852   8.151 -2.8705 -4.1128  1.7706
  870MOL0     H14777   1.824   3.839   7.982 -2.7958 -0.1104  0.5703
  870MOL0     H14778   1.836   3.734   8.133  0.6398  1.8202  0.0391
  870MOL0     H14779   1.706   3.653   7.878 -0.5966  4.0019 -0.3291
  870MOL0     H14780   1.612   3.724   8.012 -0.3998 -0.0293 -0.0487
  870MOL0     H14781   1.656   3.521   8.148 -0.0345 -1.1826 -0.6057
  870MOL0     H14782   1.778   3.465   8.044  0.0845  0.1880 -1.0336
  870MOL0     H14783   1.608   3.458   7.851  0.9673  0.2628 -0.0515
  870MOL0     H14784   1.596   3.338   7.981 -2.1741  0.0860  2.0865
  870MOL0     H14785   1.429   3.587   8.015  0.7830 -0.8353 -1.3638
  870MOL0     H14786   1.428   3.431   8.094  0.2564 -1.8285 -0.4037
  870MOL0     H14787   1.237   3.416   7.967 -1.2070  1.5427 -1.5444
  870MOL0     H14788   1.348   3.310   7.878 -2.2297 -0.4145 -0.6720
  870MOL0     H14789   1.395   3.536   7.738 -1.0490  0.7891 -1.1098
  870MOL0     H14790   1.247   3.434   7.718 -1.2242 -0.5474  1.6359
  870MOL0     H14791   1.215   3.688   7.712 -0.3565 -0.5422 -0.3021
  870MOL0     H14792   1.245   3.672   7.887  1.4737  3.0283 -2.1435
  870MOL0     H14793   1.019   3.502   7.608 -1.9709  0.9059 -1.1381
  870MOL0     H14794   0.811   3.347   7.619  1.7845  0.7817 -0.6936
  870MOL0     H14795   0.705   3.378   7.750 -0.8346  1.0520 -0.9865
  870MOL0     H14796   0.845   3.208   7.885 -1.7471  1.5801 -0.7485
  870MOL0     H14797   0.964   3.195   7.746 -0.0025 -4.0607 -1.9362
  870MOL0     H14798   0.812   3.002   7.771 -3.4251 -0.1551 -0.0292
  870MOL0     H14799   0.675   3.103   7.738  0.5643  2.3642  1.5908
  870MOL0     H14800   0.916   3.099   7.539  1.4985 -0.3702  1.1555
  870MOL0     H14801   0.745   3.131   7.500  0.7715  1.0390  0.4603
  870MOL0     H14802   0.540   3.012   7.397  2.3553 -0.2321 -0.2846
  870MOL0     H14803   0.320   2.920   7.456  0.4042 -2.9257 -1.3989
  870MOL0     H14804  -0.034   2.734   7.361 -2.8066  0.7505 -0.7533
  870MOL0     H14805  -0.240   2.699   7.376 -0.0098  1.8832  0.5230
  870MOL0     H14806  -0.382   2.450   7.695 -2.3698  4.4707  2.3225
  870MOL0     H14807  -0.350   2.436   7.516  1.3359  1.0833  0.4085
  870MOL0     H14808  -0.562   2.341   7.558 -0.1532  0.8395 -0.7288
  870MOL0     H14809  -0.585   2.507   7.492  3.0844  0.2122 -2.2883
  870MOL0     H14810  -0.619   2.593   7.728  0.1720 -0.7107  2.7106
  870MOL0     H14811  -0.592   2.439   7.789 -0.6659  1.6056  1.6687
  870MOL0     H14812  -0.834   2.501   7.612 -0.5082 -0.0920  0.5480
  870MOL0     H14813  -0.790   2.347   7.686 -2.2234 -0.1795 -0.2619
  870MOL0     H14814  -0.856   2.622   7.804 -0.7283 -0.8380 -2.7161
  870MOL0     H14815  -0.792   2.489   7.901  2.2147  2.0057 -0.1051
  870MOL0     H14816  -1.046   2.494   7.908 -0.6070 -0.3486 -0.4449
  870MOL0     H14817  -0.972   2.343   7.832  1.2817 -0.0078 -2.5618
  870MOL0     H14818  -1.087   2.584   7.670  1.3288  0.2977 -0.3059
  870MOL0     H14819  -1.063   2.417   7.617 -1.3439 -3.5447  2.7011
  870MOL0     H14820  -1.276   2.508   7.818 -3.6754 -0.6934 -1.4154
  870MOL0     H14821  -1.257   2.345   7.746 -3.0494  0.8640 -1.5529
  870MOL0     H14822  -0.226   2.637   7.803 -0.7639  2.6554 -0.9717
  870MOL0     H14823   0.018   2.681   7.796 -0.9538  1.5665  0.8689
  870MOL0     H14824   0.500   2.652   7.727 -1.4499 -0.7486 -1.9057
  870MOL0     H14825   0.730   2.729   7.667 -0.6900  0.0983  0.6856
  870MOL0     H14826   2.146   3.569   7.864 -0.3534 -1.2746  0.7773
  870MOL0     H14827   2.391   3.619   7.934 -0.8131 -1.0351  0.3343
  870MOL0     H14828   2.590   4.180   7.994 -2.6495 -2.8739  1.1188
  870MOL0     H14829   2.824   4.260   7.985 -3.0422 -0.2760  0.1648
  870MOL0     H14830   3.102   3.962   8.185 -2.5750  0.8686  0.4336
  870MOL0     H14831   3.196   4.107   8.203 -1.5316  0.6803  0.3799
  870MOL0     H14832   3.141   3.961   7.943  0.8864  1.4687 -2.6701
  870MOL0     H14833   3.232   4.102   7.942  1.8846 -1.2248 -1.3016
  870MOL0     H14834   3.404   4.017   8.086 -1.8180 -1.3131  3.9473
  870MOL0     H14835   3.386   3.907   7.938  1.5843 -1.9275  0.9665
  870MOL0     H14836   3.421   3.763   8.119 -1.6608 -2.8896  0.8024
  870MOL0     H14837   3.292   3.854   8.219 -3.0184  4.7191 -3.2788
  870MOL0     H14838   3.066   3.624   7.961 -1.0608  0.1168  1.7950
  870MOL0     H14839   2.932   3.877   8.157  1.6241 -0.5501 -1.8929
  870MOL0     H14840   2.709   3.800   8.133  1.2862 -0.3852  1.9114
  871MOL0     O14841   4.802   2.072   4.939  0.1589 -0.4179 -0.2435
  871MOL0     C14842   4.714   2.044   5.016  0.6646 -0.4580  0.1693
  871MOL0     O14843   4.742   2.012   5.145  0.2302 -0.4166  0.0633
  871MOL0     C14844   4.863   1.970   5.191  0.1071  0.7853  0.1087
  871MOL0     C14845   4.973   1.933   5.120  0.0046 -0.6351 -1.0485
  871MOL0     C14846   5.095   1.919   5.186 -0.8049 -0.0131  0.0927
  871MOL0     C14847   5.104   1.908   5.326  1.0890  0.7020 -0.3151
  871MOL0     O14848   5.206   1.880   5.403  0.1273  0.3318  0.0328
  871MOL0     C14849   5.323   1.951   5.369 -0.3070  0.0591 -0.3052
  871MOL0     C14850   5.415   1.867   5.286 -0.3478 -1.0398  0.2459
  871MOL0     C14851   5.568   1.912   5.307  0.7254  0.1704 -0.6406
  871MOL0     C14852   5.611   2.008   5.194  0.3779 -0.8161  0.3724
  871MOL0     C14853   5.754   2.061   5.208  0.1438  0.0603 -0.6802
  871MOL0     C14854   5.762   2.162   5.322 -0.1426 -0.1857 -0.6971
  871MOL0     C14855   5.662   2.287   5.317 -0.0204  0.1457 -0.3730
  871MOL0     C14856   5.699   2.376   5.429 -0.7186  0.8545  0.8060
  871MOL0     N14857   5.585   2.447   5.487 -0.4265  0.7207  1.0304
  871MOL0     C14858   5.516   2.543   5.425 -0.8770 -0.3778  0.3729
  871MOL0     C14859   5.435   2.596   5.525  0.0861  0.8490  0.5007
  871MOL0     C14860   5.344   2.715   5.520  0.2268 -0.1611 -0.1385
  871MOL0     C14861   5.192   2.670   5.498  0.1161 -0.8031  0.0172
  871MOL0     C14862   5.109   2.794   5.492 -0.1483 -0.5111  0.1167
  871MOL0     C14863   4.967   2.775   5.465  0.1706 -0.1561  0.8805
  871MOL0     O14864   4.893   2.893   5.476  0.5203  0.7193  0.0664
  871MOL0     C14865   4.760   2.895   5.471 -0.3326 -0.8938 -0.6789
  871MOL0     C14866   4.687   3.013   5.491 -0.9410  0.6850  0.3561
  871MOL0     C14867   4.545   3.013   5.487 -0.2697  0.8869 -0.0551
  871MOL0     C14868   4.473   2.893   5.465  0.1594  0.5727  0.0566
  871MOL0     C14869   4.328   2.894   5.445  0.4314  0.1830  0.1619
  871MOL0     O14870   4.260   3.009   5.481  0.5123  0.6204 -0.4223
  871MOL0     C14871   4.137   3.022   5.425 -0.0731 -0.9115  0.2493
  871MOL0     C14872   4.113   3.101   5.314  0.0582  0.3657  0.1515
  871MOL0     C14873   3.986   3.119   5.259 -0.1653 -1.0104 -0.4540
  871MOL0     C14874   3.882   3.042   5.311 -0.4215 -0.9730  0.8563
  871MOL0     O14875   3.761   3.055   5.242 -0.1242  0.5063  0.4456
  871MOL0     C14876   3.702   2.926   5.217  0.4735  0.2023 -0.7284
  871MOL0     C14877   3.546   2.929   5.244 -0.8701 -0.2484 -0.6654
  871MOL0     C14878   3.465   3.009   5.138  0.2644 -0.1125  0.1633
  871MOL0     C14879   3.317   3.009   5.194  0.5465  0.6874  0.3829
  871MOL0     C14880   3.218   3.114   5.123 -0.7220 -0.3675  0.7261
  871MOL0     C14881   3.181   3.076   4.984 -0.6219  0.4082 -0.0670
  871MOL0     C14882   3.089   3.178   4.914 -0.0318  0.8952 -0.4299
  871MOL0     C14883   3.038   3.121   4.785 -0.5937  0.7750 -0.6276
  871MOL0    Cl14884   2.950   3.254   4.699 -0.0211  0.3606 -0.4458
  871MOL0     C14885   3.900   2.961   5.425 -0.4500  0.7151  0.3045
  871MOL0     C14886   4.025   2.957   5.477 -0.8398 -0.0330 -0.9829
  871MOL0     O14887   4.280   2.804   5.386  0.0825  0.3785 -0.2498
  871MOL0     C14888   4.543   2.776   5.423  0.6179  0.1594  0.4711
  871MOL0     C14889   4.680   2.781   5.431 -0.6953 -0.0462 -0.7002
  871MOL0     N14890   5.435   2.506   5.637 -0.7004 -0.8902  0.1254
  871MOL0     N14891   5.536   2.420   5.611 -0.0936 -0.4769 -0.1312
  871MOL0     C14892   4.996   1.932   5.396  0.5501 -0.6116 -0.1766
  871MOL0     C14893   4.879   1.972   5.327  0.2633 -0.0300 -0.9888
  871MOL0     C14894   4.573   2.037   4.964 -0.7826 -0.2653 -0.2887
  871MOL0     C14895   4.472   1.992   5.054 -0.2175 -0.3074  0.7073
  871MOL0     C14896   4.340   2.005   5.013  0.1777  0.6496  0.2506
  871MOL0     C14897   4.303   2.040   4.888 -0.0842 -1.1262  0.7690
  871MOL0     O14898   4.167   2.056   4.861 -0.5560  0.2218  0.0152
  871MOL0     C14899   4.133   2.102   4.726  0.2885 -0.0571  0.3039
  871MOL0     C14900   3.991   2.068   4.705  1.1877 -0.3354  0.1812
  871MOL0     C14901   3.893   2.157   4.778  0.0361  0.6459  0.1448
  871MOL0     C14902   3.756   2.143   4.719  0.3913 -0.2828 -0.0101
  871MOL0     C14903   3.660   2.238   4.783 -0.7103  0.2529 -0.0598
  871MOL0     C14904   3.567   2.296   4.830 -0.5094  0.2344  0.7988
  871MOL0     C14905   4.401   2.105   4.804  0.3671  0.3073  0.6489
  871MOL0     C14906   4.534   2.095   4.844  0.9406 -0.1725  0.4362
  871MOL0     H14907   4.952   1.902   5.019  0.9137  0.4377 -1.5835
  871MOL0     H14908   5.169   1.885   5.115 -0.1204  1.7130 -0.0606
  871MOL0     H14909   5.367   1.968   5.468  0.1159 -1.2820 -0.2412
  871MOL0     H14910   5.306   2.050   5.326 -0.0605 -0.3209 -1.3096
  871MOL0     H14911   5.400   1.869   5.178  3.2047 -1.4389 -0.3581
  871MOL0     H14912   5.403   1.761   5.310  2.2014 -1.5981 -0.6791
  871MOL0     H14913   5.629   1.822   5.305 -0.6587 -0.8376  0.2057
  871MOL0     H14914   5.594   1.951   5.405 -0.4383 -2.4010  0.7967
  871MOL0     H14915   5.615   1.942   5.107  0.3014 -0.7279  0.3022
  871MOL0     H14916   5.538   2.088   5.179  0.9950 -0.1615  0.8077
  871MOL0     H14917   5.786   2.103   5.112  3.4676  1.0753  0.7050
  871MOL0     H14918   5.831   1.986   5.230  1.1531  1.7302  2.0538
  871MOL0     H14919   5.859   2.212   5.309  0.0243 -0.7556 -1.7156
  871MOL0     H14920   5.762   2.111   5.419  0.8540  0.5979 -0.2591
  871MOL0     H14921   5.674   2.345   5.225 -1.4390 -2.4984 -2.3541
  871MOL0     H14922   5.557   2.258   5.322 -0.1135  0.4070 -0.7926
  871MOL0     H14923   5.764   2.460   5.404 -0.5528 -0.0564 -2.1028
  871MOL0     H14924   5.741   2.312   5.507 -0.3862 -0.4992 -0.4561
  871MOL0     H14925   5.528   2.588   5.327 -1.5024 -0.5873  0.1939
  871MOL0     H14926   5.381   2.790   5.448  0.3939  2.4156  2.4335
  871MOL0     H14927   5.357   2.773   5.612  0.6038 -0.8654  0.2574
  871MOL0     H14928   5.157   2.611   5.584  1.4516  2.3473  2.9812
  871MOL0     H14929   5.176   2.606   5.411 -3.0115 -3.7794  2.4771
  871MOL0     H14930   5.099   2.854   5.583 -1.4180 -0.4861 -0.0141
  871MOL0     H14931   5.155   2.858   5.417  2.6680 -3.4545 -0.9151
  871MOL0     H14932   4.922   2.698   5.529 -0.1265  1.7499  3.0710
  871MOL0     H14933   4.961   2.742   5.360 -0.6865  1.5248  0.3698
  871MOL0     H14934   4.740   3.101   5.528 -1.9330  0.7280  1.7365
  871MOL0     H14935   4.502   3.111   5.505 -2.9064 -0.3972  1.1125
  871MOL0     H14936   4.194   3.164   5.280  0.3083  0.0936  0.2382
  871MOL0     H14937   3.963   3.185   5.176  0.3886 -0.4862 -0.1954
  871MOL0     H14938   3.747   2.834   5.255 -0.1760 -1.1477 -3.0275
  871MOL0     H14939   3.707   2.914   5.108  0.4363  3.2914 -1.1610
  871MOL0     H14940   3.525   2.962   5.346  1.1159  0.6427 -0.4938
  871MOL0     H14941   3.503   2.829   5.240  1.5844 -1.5077  1.2924
  871MOL0     H14942   3.456   2.957   5.042 -0.1502 -4.9227  2.5079
  871MOL0     H14943   3.503   3.108   5.114  3.3563 -1.0227  0.7528
  871MOL0     H14944   3.275   2.908   5.195  1.1090  0.4498  2.3514
  871MOL0     H14945   3.319   3.049   5.295 -1.8660  3.3295 -0.4667
  871MOL0     H14946   3.278   3.205   5.114 -2.4476  0.8487  0.8584
  871MOL0     H14947   3.135   3.129   5.194 -0.1421  2.3273  0.9407
  871MOL0     H14948   3.125   2.982   4.984 -0.1103  0.0985  0.4646
  871MOL0     H14949   3.267   3.067   4.917 -0.6153  2.0408 -0.3062
  871MOL0     H14950   3.008   3.208   4.981  0.1378 -0.1463  0.2568
  871MOL0     H14951   3.149   3.267   4.892 -0.5812  0.7636 -2.6787
  871MOL0     H14952   2.970   3.038   4.809  0.6746 -0.6169 -1.7004
  871MOL0     H14953   3.120   3.082   4.725 -0.0974 -2.6432  1.9636
  871MOL0     H14954   3.819   2.905   5.471  0.1671  0.4686  1.0992
  871MOL0     H14955   4.042   2.900   5.567 -0.5386  2.0692  0.3470
  871MOL0     H14956   4.485   2.687   5.402 -2.2470  1.6518  1.4294
  871MOL0     H14957   4.731   2.687   5.410  3.3075  1.6627  0.4171
  871MOL0     H14958   4.999   1.927   5.504 -1.7381 -0.2353 -0.0551
  871MOL0     H14959   4.798   2.014   5.385  0.0805  0.7994 -1.8329
  871MOL0     H14960   4.495   1.976   5.159 -0.6153  0.2979  0.8869
  871MOL0     H14961   4.257   2.001   5.083 -0.5902  2.5987 -0.4778
  871MOL0     H14962   4.198   2.064   4.646  2.2439  1.7603  0.9483
  871MOL0     H14963   4.150   2.210   4.712 -1.1361  0.1346 -0.0795
  871MOL0     H14964   3.968   2.074   4.598 -1.5903 -0.1370  0.7181
  871MOL0     H14965   3.973   1.965   4.737 -2.1950  0.1474  0.2335
  871MOL0     H14966   3.921   2.262   4.770 -1.0183  0.9299  0.1795
  871MOL0     H14967   3.892   2.129   4.884  0.8224 -0.3982 -0.0989
  871MOL0     H14968   3.761   2.176   4.615  1.7517  2.9998  0.9458
  871MOL0     H14969   3.713   2.043   4.714 -0.0799 -0.2361  2.1219
  871MOL0     H14970   3.488   2.362   4.861 -1.6866 -1.5120  1.6741
  871MOL0     H14971   4.368   2.161   4.718  1.7072 -1.6391 -1.2301
  871MOL0     H14972   4.611   2.135   4.778 -1.5747 -0.7828 -3.1519
  872MOL0     O14973   3.912   0.639   3.040  0.2014  0.2242  0.1209
  872MOL0     C14974   3.967   0.723   3.109 -0.0705 -0.1541 -0.3108
  872MOL0     O14975   3.907   0.794   3.210 -0.0700  0.2213  0.4535
  872MOL0     C14976   3.772   0.789   3.228  0.6664 -0.0476 -0.1825
  872MOL0     C14977   3.726   0.813   3.357  0.4500  0.4334 -0.3402
  872MOL0     C14978   3.592   0.821   3.389  0.5785  0.3223  0.3214
  872MOL0     C14979   3.493   0.801   3.287  0.7557  0.2633  0.0900
  872MOL0     O14980   3.359   0.790   3.302  0.4215 -0.3976 -0.2553
  872MOL0     C14981   3.297   0.897   3.377  0.2624  0.2979 -1.4907
  872MOL0     C14982   3.144   0.867   3.423 -0.3101  0.2380  0.9293
  872MOL0     C14983   3.054   0.813   3.309  0.2042 -1.0752 -0.0086
  872MOL0     C14984   2.913   0.797   3.354  0.1352  0.6017  0.3102
  872MOL0     C14985   2.817   0.769   3.238  0.0727 -0.0807  0.4192
  872MOL0     C14986   2.674   0.750   3.265  0.0395 -0.4564 -1.2977
  872MOL0     C14987   2.605   0.768   3.135  0.6398  0.7327 -0.4130
  872MOL0     C14988   2.454   0.768   3.151 -0.8949  0.5094 -0.5658
  872MOL0     N14989   2.378   0.725   3.034 -0.8159  0.1466 -0.2278
  872MOL0     C14990   2.264   0.772   2.989 -0.1737  0.4407 -0.0454
  872MOL0     C14991   2.219   0.686   2.896 -0.3522 -0.1280  0.2618
  872MOL0     C14992   2.090   0.705   2.828  0.0414 -0.3193 -0.0195
  872MOL0     C14993   2.097   0.695   2.679  0.7493  0.1885 -0.0298
  872MOL0     C14994   1.965   0.739   2.615  0.4647  0.1456  0.2233
  872MOL0     C14995   1.849   0.644   2.640 -0.5847 -0.3545  0.0027
  872MOL0     O14996   1.865   0.509   2.583  0.2842  0.2711 -0.1568
  872MOL0     C14997   1.844   0.511   2.453 -0.0511 -0.1200  0.5677
  872MOL0     C14998   1.717   0.493   2.402 -0.0830 -0.1853 -0.3718
  872MOL0     C14999   1.702   0.481   2.265  0.0046 -0.3045 -0.3460
  872MOL0     C15000   1.816   0.492   2.175  0.4415 -0.3050 -0.3350
  872MOL0     C15001   1.805   0.489   2.023 -0.2550  0.5195  0.4068
  872MOL0     O15002   1.926   0.460   1.962  0.2176  0.1741  0.4307
  872MOL0     C15003   1.930   0.465   1.822 -0.8542 -0.5925 -0.5463
  872MOL0     C15004   2.032   0.533   1.759 -0.7678 -0.1689  0.2710
  872MOL0     C15005   2.046   0.536   1.617  0.5931 -0.2068  0.5328
  872MOL0     C15006   1.937   0.486   1.541  0.4945  0.9360  0.3338
  872MOL0     O15007   1.942   0.496   1.394  0.9677  0.1488 -0.0933
  872MOL0     C15008   1.885   0.381   1.315  0.3410  0.0516  0.0127
  872MOL0     C15009   1.957   0.374   1.179  0.2427 -0.0879  0.0864
  872MOL0     C15010   1.918   0.484   1.087  0.1275 -0.2631 -0.0573
  872MOL0     C15011   1.981   0.485   0.945  0.4106  0.0230  0.3395
  872MOL0     C15012   1.887   0.572   0.862 -0.4726 -0.0698 -0.8181
  872MOL0     C15013   1.904   0.538   0.714  0.2534  1.0054 -0.1954
  872MOL0     C15014   1.824   0.632   0.619 -0.6713 -0.5403  0.0003
  872MOL0     C15015   1.672   0.624   0.633  0.7155 -0.2423  0.2235
  872MOL0    Cl15016   1.583   0.637   0.479  0.0037 -0.2619 -0.4357
  872MOL0     C15017   1.836   0.418   1.607  0.8800  0.3247 -0.4412
  872MOL0     C15018   1.835   0.407   1.744 -0.5505  0.1971  0.3416
  872MOL0     O15019   1.690   0.492   1.969 -0.1216  0.1581 -0.5072
  872MOL0     C15020   1.954   0.506   2.231  1.1103  0.8952  0.1563
  872MOL0     C15021   1.961   0.506   2.376 -0.3175  0.7220 -0.1243
  872MOL0     N15022   2.305   0.578   2.898 -0.0847  0.1034  0.3330
  872MOL0     N15023   2.401   0.604   2.986  0.9132  0.9914  0.0291
  872MOL0     C15024   3.541   0.781   3.159 -0.1403  1.1641  0.0751
  872MOL0     C15025   3.679   0.777   3.124  0.1954 -0.0531 -0.5342
  872MOL0     C15026   4.103   0.770   3.079 -0.5070 -0.2456 -0.5359
  872MOL0     C15027   4.161   0.875   3.155  0.5480 -0.1798  0.4536
  872MOL0     C15028   4.282   0.935   3.131  0.2900  0.8204  1.0900
  872MOL0     C15029   4.364   0.886   3.026  0.2322 -0.1069  0.0406
  872MOL0     O15030   4.499   0.929   3.013 -0.1449  0.1518  0.4817
  872MOL0     C15031   4.606   0.831   3.029 -0.0406  0.1269 -0.2170
  872MOL0     C15032   4.733   0.885   2.955  0.8657  0.3547 -0.6660
  872MOL0     C15033   4.851   0.786   2.959  0.9879  1.1705 -0.2352
  872MOL0     C15034   4.954   0.832   2.859  0.4280  0.2084  0.5607
  872MOL0     C15035   5.078   0.763   2.881  0.2732  0.2333 -0.3065
  872MOL0     C15036   5.178   0.704   2.900  0.0426  1.4075 -0.4161
  872MOL0     C15037   4.306   0.788   2.933 -0.2858 -0.0489 -0.8946
  872MOL0     C15038   4.176   0.719   2.965 -0.6155 -0.5984  1.2108
  872MOL0     H15039   3.792   0.829   3.442  1.4959 -1.9479 -0.6373
  872MOL0     H15040   3.555   0.839   3.490  2.2876 -0.2947  1.0842
  872MOL0     H15041   3.299   0.992   3.323 -1.4348  1.1079 -0.2271
  872MOL0     H15042   3.351   0.910   3.471 -0.3496 -0.5148 -1.0073
  872MOL0     H15043   3.109   0.960   3.467 -0.6297 -0.6487  2.6227
  872MOL0     H15044   3.130   0.805   3.512  1.0720  3.1701  3.3929
  872MOL0     H15045   3.084   0.715   3.271 -0.6681 -0.7865 -1.5397
  872MOL0     H15046   3.061   0.893   3.233  5.7917 -0.4559  0.7269
  872MOL0     H15047   2.901   0.716   3.426  4.3292 -0.5051  0.0513
  872MOL0     H15048   2.884   0.885   3.413 -1.9169 -1.5873  2.8457
  872MOL0     H15049   2.850   0.688   3.172  0.1591 -1.5422  2.1847
  872MOL0     H15050   2.830   0.863   3.184 -1.2394  0.3918  0.8950
  872MOL0     H15051   2.636   0.817   3.342  0.4464 -0.1435 -1.3625
  872MOL0     H15052   2.661   0.648   3.302  2.7155 -0.4966 -0.2632
  872MOL0     H15053   2.622   0.865   3.086 -0.4776  0.5249 -1.2388
  872MOL0     H15054   2.647   0.699   3.062  4.0626  2.1828  0.0028
  872MOL0     H15055   2.418   0.863   3.191 -2.5286 -0.1915 -0.2953
  872MOL0     H15056   2.434   0.687   3.221  3.1426 -2.9561 -2.8582
  872MOL0     H15057   2.214   0.859   3.030 -0.2701  0.0675  0.6372
  872MOL0     H15058   2.058   0.809   2.838  0.4381 -0.1807 -0.1665
  872MOL0     H15059   2.021   0.631   2.869  0.4517 -0.7951 -0.1726
  872MOL0     H15060   2.125   0.597   2.640  0.1402 -0.0707  0.1751
  872MOL0     H15061   2.173   0.768   2.649  1.8144 -1.5043 -1.6254
  872MOL0     H15062   1.929   0.832   2.659 -2.2196 -1.8369  2.6330
  872MOL0     H15063   1.982   0.747   2.507  1.2712  2.3110  0.4630
  872MOL0     H15064   1.764   0.699   2.598 -0.6305 -0.4906 -0.0844
  872MOL0     H15065   1.835   0.629   2.748 -0.1217 -1.6953 -0.0935
  872MOL0     H15066   1.633   0.492   2.471  1.5684  0.6211  1.7606
  872MOL0     H15067   1.605   0.466   2.220  1.2277 -2.3482 -2.4674
  872MOL0     H15068   2.111   0.572   1.823 -2.1838 -0.3015  2.1925
  872MOL0     H15069   2.132   0.578   1.565 -2.1768  1.7497 -2.9568
  872MOL0     H15070   1.782   0.416   1.298 -0.9438 -1.0123  4.4830
  872MOL0     H15071   1.885   0.289   1.373 -0.4782 -1.7217 -2.5912
  872MOL0     H15072   1.927   0.281   1.130 -0.0145 -0.7074  1.3788
  872MOL0     H15073   2.066   0.386   1.191  0.2171  1.2555 -0.8661
  872MOL0     H15074   1.931   0.577   1.141 -1.1145  1.5320 -2.6216
  872MOL0     H15075   1.809   0.482   1.078  0.2215 -1.0804 -1.4394
  872MOL0     H15076   2.083   0.523   0.956 -0.0957  1.5984 -0.0852
  872MOL0     H15077   1.983   0.382   0.909 -1.3422  0.7504 -2.0798
  872MOL0     H15078   1.923   0.672   0.886  0.2012 -0.6554  0.7915
  872MOL0     H15079   1.781   0.568   0.888 -0.6069 -0.2981 -1.3915
  872MOL0     H15080   1.853   0.443   0.702 -1.2597  1.4065  2.3019
  872MOL0     H15081   2.009   0.525   0.685  0.0343 -0.0751 -0.5371
  872MOL0     H15082   1.862   0.732   0.641  1.5125 -0.4539 -3.4027
  872MOL0     H15083   1.858   0.606   0.518  0.0232 -0.6066  0.2446
  872MOL0     H15084   1.628   0.701   0.697  3.2808 -0.6268  2.6363
  872MOL0     H15085   1.638   0.535   0.686 -1.8829 -0.8742 -2.2540
  872MOL0     H15086   1.756   0.364   1.558 -0.2485 -0.1400  1.7826
  872MOL0     H15087   1.768   0.337   1.794 -0.6993 -1.4485 -1.9930
  872MOL0     H15088   2.045   0.499   2.173  1.7250  1.0810  1.0861
  872MOL0     H15089   2.063   0.520   2.411  1.7696 -4.2288 -3.1887
  872MOL0     H15090   3.470   0.783   3.077 -0.9947 -0.5853  0.7262
  872MOL0     H15091   3.713   0.770   3.021 -0.1497  0.2777 -0.6717
  872MOL0     H15092   4.095   0.914   3.232 -1.6923  1.5040 -2.1420
  872MOL0     H15093   4.304   1.016   3.199  0.1196  3.6725 -1.9854
  872MOL0     H15094   4.581   0.738   2.978 -0.5575  2.3772 -4.5946
  872MOL0     H15095   4.630   0.813   3.134 -2.1830  0.8826  0.4465
  872MOL0     H15096   4.716   0.911   2.850 -1.7069  2.9475  0.2470
  872MOL0     H15097   4.756   0.977   3.011 -0.3660 -0.2838  0.9555
  872MOL0     H15098   4.818   0.686   2.928 -1.3031  0.9336  2.5104
  872MOL0     H15099   4.890   0.783   3.061  1.0683 -0.6837 -0.2749
  872MOL0     H15100   4.922   0.814   2.756  1.6159  1.2782 -0.0296
  872MOL0     H15101   4.967   0.940   2.868 -1.0185  0.2250  4.2249
  872MOL0     H15102   5.267   0.643   2.902  0.1333  1.5443  0.8683
  872MOL0     H15103   4.371   0.766   2.849  3.3648  1.9794  1.1460
  872MOL0     H15104   4.130   0.647   2.898 -1.8211  0.7181  0.5797
  873MOL0     O15105   9.855  11.259   6.269 -0.4981  0.0329  0.2706
  873MOL0     C15106   9.892  11.367   6.310  0.3199 -0.6280 -0.4323
  873MOL0     O15107   9.810  11.461   6.366 -0.4556  0.0196 -0.2790
  873MOL0     C15108   9.679  11.442   6.385  0.0160  0.3672 -0.2121
  873MOL0     C15109   9.597  11.550   6.351 -0.3465  0.0713 -0.1121
  873MOL0     C15110   9.464  11.537   6.382  0.0161 -0.3581  0.6297
  873MOL0     C15111   9.406  11.422   6.434  0.5017 -0.0440 -0.7647
  873MOL0     O15112   9.278  11.400   6.461  0.3777 -0.2052 -0.4738
  873MOL0     C15113   9.180  11.407   6.350 -0.0735  0.3364  0.9305
  873MOL0     C15114   9.040  11.451   6.397  0.0879 -0.1059 -0.0338
  873MOL0     C15115   8.986  11.357   6.504  0.3215 -0.2810  0.5214
  873MOL0     C15116   8.835  11.395   6.530  0.6597 -0.3220  0.3680
  873MOL0     C15117   8.785  11.307   6.649  0.0379 -0.1821  0.4285
  873MOL0     C15118   8.770  11.154   6.614 -0.4237 -0.7214  0.9042
  873MOL0     C15119   8.727  11.060   6.723  0.3384 -0.1608 -0.3160
  873MOL0     C15120   8.822  11.050   6.849 -0.0001 -0.3773  0.8563
  873MOL0     N15121   8.958  11.010   6.805 -0.0831 -0.9644  0.1578
  873MOL0     C15122   9.068  11.091   6.805  0.3692 -0.0800  0.7399
  873MOL0     C15123   9.176  11.016   6.799 -0.3063 -0.3977  0.3005
  873MOL0     C15124   9.318  11.069   6.799 -0.6642  0.3681 -0.7126
  873MOL0     C15125   9.419  10.954   6.760 -0.7691 -0.5585  0.4196
  873MOL0     C15126   9.564  10.976   6.813  0.0080  0.0578  1.1461
  873MOL0     C15127   9.624  11.110   6.756 -0.5222  0.1019 -0.3594
  873MOL0     O15128   9.763  11.132   6.810 -0.0032  0.0278  0.4273
  873MOL0     C15129   9.878  11.122   6.729  0.8776  0.1357  0.5423
  873MOL0     C15130   9.882  11.087   6.588 -0.0025 -0.0120 -0.0672
  873MOL0     C15131  10.007  11.089   6.521  0.2807 -1.0913 -0.0739
  873MOL0     C15132  10.129  11.121   6.590 -0.2441  0.0084 -0.4061
  873MOL0     C15133  10.255  11.126   6.521 -0.2698 -0.1804  0.1409
  873MOL0     O15134  10.260  11.099   6.385 -0.0191  0.0475 -0.6602
  873MOL0     C15135  10.381  11.078   6.324  0.1355  0.1293  0.1165
  873MOL0     C15136  10.513  11.102   6.363 -0.1671  0.7379 -0.0750
  873MOL0     C15137  10.619  11.079   6.269 -0.2498  0.2645  0.1581
  873MOL0     C15138  10.598  11.045   6.135 -0.1670 -0.9506 -0.2888
  873MOL0     O15139  10.712  11.046   6.061 -0.0449 -0.0919 -0.4452
  873MOL0     C15140  10.765  10.926   6.015 -0.5914 -0.3080  0.0242
  873MOL0     C15141  10.911  10.953   5.951  0.3477 -0.3739 -0.2201
  873MOL0     C15142  10.959  10.822   5.892 -0.2673 -0.7463 -0.0777
  873MOL0     C15143  11.092  10.865   5.828  0.7125 -0.1358 -0.6581
  873MOL0     C15144  11.134  10.773   5.718  0.0161 -0.1588  0.2953
  873MOL0     C15145  11.233  10.839   5.615 -0.1679 -0.3970  0.3746
  873MOL0     C15146  11.290  10.733   5.521 -0.7061  0.2287  0.2270
  873MOL0     C15147  11.186  10.684   5.419  0.0985  0.7954  0.0288
  873MOL0    Cl15148  11.254  10.661   5.255 -0.1344  0.6826 -0.1142
  873MOL0     C15149  10.465  11.028   6.093  0.1914 -0.0821 -0.8635
  873MOL0     C15150  10.357  11.050   6.186 -0.8573 -0.1409 -0.1197
  873MOL0     O15151  10.351  11.145   6.595  0.0694  0.3749  1.2596
  873MOL0     C15152  10.121  11.149   6.732 -0.2692  0.6909 -0.5259
  873MOL0     C15153   9.992  11.146   6.802 -0.1509  0.6342  1.1994
  873MOL0     N15154   9.134  10.887   6.799 -1.2179 -0.5945  0.8335
  873MOL0     N15155   9.010  10.886   6.814  0.0844 -0.1166  0.9562
  873MOL0     C15156   9.492  11.325   6.474 -0.0078  0.8505 -0.2311
  873MOL0     C15157   9.631  11.327   6.448  0.4064 -0.4695 -0.2729
  873MOL0     C15158  10.031  11.400   6.290  0.0098  1.4026 -0.1056
  873MOL0     C15159  10.110  11.327   6.197 -0.1979  0.0772 -0.0727
  873MOL0     C15160  10.242  11.372   6.164 -0.5432 -0.9659 -0.3616
  873MOL0     C15161  10.295  11.489   6.236 -0.4396  0.3660  0.3950
  873MOL0     O15162  10.423  11.524   6.196 -0.4424  0.3347  0.7926
  873MOL0     C15163  10.517  11.488   6.298 -0.4960  0.0560  0.5846
  873MOL0     C15164  10.655  11.487   6.223 -0.4228  0.4349 -0.5656
  873MOL0     C15165  10.697  11.630   6.171 -0.9931  0.8052 -0.3871
  873MOL0     C15166  10.845  11.625   6.135 -0.5421 -0.4887 -0.6614
  873MOL0     C15167  10.876  11.742   6.050  0.1595 -0.9014 -0.0039
  873MOL0     C15168  10.895  11.839   5.973 -0.1618  0.8458  0.1311
  873MOL0     C15169  10.220  11.548   6.332 -0.1045  0.7051  0.4590
  873MOL0     C15170  10.090  11.511   6.358 -0.5419  0.5831 -0.7134
  873MOL0     H15171   9.645  11.636   6.307  2.4769  0.0045  2.4877
  873MOL0     H15172   9.394  11.612   6.346 -0.0462 -1.2054 -1.1561
  873MOL0     H15173   9.174  11.308   6.304 -0.1948  1.4302 -1.5815
  873MOL0     H15174   9.206  11.477   6.269 -3.1282  2.4119  1.5827
  873MOL0     H15175   8.964  11.448   6.318  0.3733  0.0044 -0.3167
  873MOL0     H15176   9.051  11.555   6.428 -1.1352  0.4361 -1.3092
  873MOL0     H15177   9.055  11.358   6.590 -1.2999  0.9770  1.8813
  873MOL0     H15178   8.984  11.256   6.461  0.7990 -0.8561  1.7739
  873MOL0     H15179   8.828  11.503   6.546 -0.5488  0.0314 -2.1434
  873MOL0     H15180   8.771  11.376   6.444  0.5566 -3.3773  1.0106
  873MOL0     H15181   8.683  11.337   6.674 -0.8330 -0.9844 -1.9243
  873MOL0     H15182   8.847  11.316   6.739  0.5816 -0.3415  0.0692
  873MOL0     H15183   8.868  11.115   6.584 -0.1630 -0.2269  1.1049
  873MOL0     H15184   8.701  11.146   6.530 -0.9346 -0.6157  1.3044
  873MOL0     H15185   8.639  11.104   6.771  3.4259  3.0675  3.1148
  873MOL0     H15186   8.715  10.960   6.682  0.2020  0.5162 -1.9934
  873MOL0     H15187   8.771  10.982   6.919 -1.6651 -1.7806 -1.5749
  873MOL0     H15188   8.840  11.147   6.896 -0.5659  1.0618 -1.7054
  873MOL0     H15189   9.082  11.197   6.827 -0.9524  0.5742 -1.2157
  873MOL0     H15190   9.345  11.110   6.896 -1.0324  0.3803 -0.6120
  873MOL0     H15191   9.336  11.151   6.729  0.5761 -1.4850 -2.6840
  873MOL0     H15192   9.414  10.932   6.653  2.6027  1.0620 -0.2201
  873MOL0     H15193   9.398  10.852   6.794  3.3169 -1.7218  0.0235
  873MOL0     H15194   9.561  10.975   6.923 -2.2527 -2.9788  1.1706
  873MOL0     H15195   9.636  10.903   6.775 -0.6111  1.5000 -3.3581
  873MOL0     H15196   9.558  11.196   6.772 -0.8122  1.2103 -5.5922
  873MOL0     H15197   9.625  11.100   6.647  0.6109 -2.8391 -0.1664
  873MOL0     H15198   9.802  11.034   6.538 -0.5676  0.3247  0.4567
  873MOL0     H15199   9.994  11.062   6.417  1.2162  1.5804 -0.9840
  873MOL0     H15200  10.543  11.148   6.457 -1.3155  0.2014  0.5755
  873MOL0     H15201  10.722  11.093   6.298 -0.1308 -1.3527  0.5907
  873MOL0     H15202  10.703  10.880   5.936 -2.6972 -0.9130  1.9251
  873MOL0     H15203  10.765  10.860   6.102 -0.4433 -0.0859  0.1928
  873MOL0     H15204  10.980  10.996   6.025 -0.7807 -0.2927  0.8255
  873MOL0     H15205  10.898  11.028   5.873  0.4829  0.4136  0.4947
  873MOL0     H15206  10.897  10.778   5.813 -0.1495  0.4006 -0.8399
  873MOL0     H15207  10.985  10.744   5.964  1.3598  1.6529  2.0933
  873MOL0     H15208  11.079  10.968   5.791  3.2385  0.8155  0.8186
  873MOL0     H15209  11.173  10.871   5.901 -0.5903 -2.9244  1.1759
  873MOL0     H15210  11.044  10.741   5.665 -0.1309 -3.5653  2.3250
  873MOL0     H15211  11.168  10.677   5.757  0.8832 -0.6499 -1.5582
  873MOL0     H15212  11.307  10.888   5.680 -3.1720 -0.7672  4.4886
  873MOL0     H15213  11.191  10.924   5.560  2.4047  2.5588  2.5218
  873MOL0     H15214  11.369  10.779   5.461  2.4179 -0.6600  3.2928
  873MOL0     H15215  11.337  10.663   5.590 -1.5276  0.1597  0.7370
  873MOL0     H15216  11.106  10.758   5.424 -1.8118 -1.2502  3.1231
  873MOL0     H15217  11.134  10.595   5.455  0.6350  0.4207 -0.1084
  873MOL0     H15218  10.438  11.002   5.991 -1.0249 -1.6689 -0.1769
  873MOL0     H15219  10.252  11.049   6.156 -2.1075  2.6031  3.4228
  873MOL0     H15220  10.215  11.159   6.786  0.5461  0.7622 -1.8990
  873MOL0     H15221   9.984  11.173   6.907 -1.8012  2.1077  0.7620
  873MOL0     H15222   9.453  11.239   6.528 -1.0919 -0.4907 -2.9717
  873MOL0     H15223   9.697  11.243   6.469  0.6472 -1.8318 -5.2331
  873MOL0     H15224  10.055  11.249   6.147  0.2800 -1.7327  2.0595
  873MOL0     H15225  10.309  11.318   6.099  2.0475  2.2022 -0.5604
  873MOL0     H15226  10.492  11.385   6.323  0.2896 -1.0152 -2.5467
  873MOL0     H15227  10.503  11.561   6.378  1.6108  1.0605  0.1166
  873MOL0     H15228  10.729  11.450   6.294 -0.0497 -0.5983 -1.4712
  873MOL0     H15229  10.659  11.415   6.140 -0.9696  1.0489 -1.1398
  873MOL0     H15230  10.674  11.704   6.248  0.0283 -0.2919  1.0454
  873MOL0     H15231  10.642  11.653   6.080 -1.1778 -1.1211 -0.8058
  873MOL0     H15232  10.900  11.619   6.230 -1.0036 -2.5483 -0.4748
  873MOL0     H15233  10.872  11.531   6.086 -0.1399  0.0410 -1.4730
  873MOL0     H15234  10.892  11.926   5.910 -0.4042 -2.0475 -4.2876
  873MOL0     H15235  10.257  11.634   6.386  2.6904 -0.2654  0.2440
  873MOL0     H15236  10.029  11.575   6.422  1.5350  0.3414  1.6518
  874MOL0     O15237   6.504  10.898   1.830  0.4923  0.0937  0.4664
  874MOL0     C15238   6.498  11.023   1.853 -0.4932  1.5025 -0.1837
  874MOL0     O15239   6.388  11.101   1.838  0.3874 -0.0892  0.2847
  874MOL0     C15240   6.268  11.040   1.859  0.3734 -0.2857  0.9145
  874MOL0     C15241   6.193  11.112   1.953 -0.6034  0.6532 -0.8634
  874MOL0     C15242   6.065  11.065   1.981  0.1475  0.1863  0.8386
  874MOL0     C15243   6.004  10.954   1.924 -0.3642  0.0659  1.0310
  874MOL0     O15244   5.870  10.920   1.943 -0.8893  0.5462  0.0538
  874MOL0     C15245   5.784  11.025   1.990  0.3567 -0.0375  0.7149
  874MOL0     C15246   5.636  10.970   1.976 -0.3714 -0.1874  0.2890
  874MOL0     C15247   5.538  11.054   2.038  0.6001 -0.1056 -0.6040
  874MOL0     C15248   5.393  11.048   1.988  0.2703  0.3825  0.4852
  874MOL0     C15249   5.298  11.111   2.088 -0.1983  0.0343  0.7502
  874MOL0     C15250   5.152  11.128   2.037 -0.4569 -0.1654  0.0420
  874MOL0     C15251   5.076  11.000   2.068 -0.3778  0.7648 -0.1988
  874MOL0     C15252   4.944  11.020   1.994 -0.0738 -0.2830 -0.0197
  874MOL0     N15253   4.857  10.907   2.021  0.5560  0.2545  0.2531
  874MOL0     C15254   4.887  10.780   1.981  0.5731  0.7770 -0.6663
  874MOL0     C15255   4.774  10.712   2.016 -0.6381  0.0384 -0.7744
  874MOL0     C15256   4.756  10.568   1.976 -0.3313  1.1502  0.2992
  874MOL0     C15257   4.726  10.469   2.088  0.0912 -0.5838 -0.3272
  874MOL0     C15258   4.607  10.516   2.185 -0.3761 -0.8882 -0.2406
  874MOL0     C15259   4.480  10.541   2.114  0.4533  0.0322 -0.3545
  874MOL0     O15260   4.441  10.427   2.039  0.8998  0.0371  0.0537
  874MOL0     C15261   4.331  10.439   1.952  0.2598 -0.1061 -0.1730
  874MOL0     C15262   4.242  10.552   1.952 -0.1673  0.3718 -0.9834
  874MOL0     C15263   4.135  10.556   1.857  0.1154  0.5482 -0.9177
  874MOL0     C15264   4.127  10.453   1.762 -0.5657 -0.2976 -0.6548
  874MOL0     C15265   4.007  10.459   1.669 -0.5984  0.1165 -0.3567
  874MOL0     O15266   4.040  10.414   1.554  0.3371 -0.3802  0.8262
  874MOL0     C15267   3.945  10.408   1.451  0.3982 -0.6893 -0.4410
  874MOL0     C15268   3.950  10.504   1.350 -0.4712 -0.4750  0.5191
  874MOL0     C15269   3.850  10.509   1.248 -0.0256  0.7339  0.4249
  874MOL0     C15270   3.748  10.412   1.246 -1.0934  0.0192 -0.0310
  874MOL0     O15271   3.643  10.406   1.154  0.0603 -0.7179  0.2544
  874MOL0     C15272   3.651  10.484   1.028  0.4366  0.0973  0.2206
  874MOL0     C15273   3.509  10.519   0.990  0.7397 -0.3342 -0.3414
  874MOL0     C15274   3.420  10.397   0.968  0.7257  0.4249  0.6424
  874MOL0     C15275   3.287  10.439   0.897  0.9502 -0.7435  1.1454
  874MOL0     C15276   3.187  10.323   0.877 -0.6440 -0.1711  0.0861
  874MOL0     C15277   3.081  10.359   0.774  0.2662 -0.6721 -0.1039
  874MOL0     C15278   2.963  10.255   0.792 -0.0420  0.1602 -0.1357
  874MOL0     C15279   2.841  10.292   0.704 -1.3348 -0.1840 -0.3101
  874MOL0    Cl15280   2.676  10.261   0.768 -0.2839 -0.1996 -0.5566
  874MOL0     C15281   3.754  10.306   1.335 -0.2763 -0.3587 -0.4689
  874MOL0     C15282   3.845  10.309   1.442 -0.2931  0.2079 -0.1959
  874MOL0     O15283   3.901  10.513   1.700 -0.1647 -0.2853 -0.2378
  874MOL0     C15284   4.219  10.352   1.757 -0.1158  0.1976  0.0524
  874MOL0     C15285   4.321  10.343   1.853  0.1013 -0.0740 -0.3031
  874MOL0     N15286   4.693  10.792   2.083  0.7284 -0.3992  0.6566
  874MOL0     N15287   4.741  10.915   2.086  0.0489  0.1315  0.1004
  874MOL0     C15288   6.083  10.881   1.831  0.1363  0.8116 -0.3514
  874MOL0     C15289   6.215  10.922   1.792  0.1051 -0.3784  0.2985
  874MOL0     C15290   6.624  11.092   1.882 -0.1079 -0.2632  0.6558
  874MOL0     C15291   6.731  11.021   1.926  0.8261  0.1973 -0.2543
  874MOL0     C15292   6.850  11.083   1.950 -0.1149  0.1898  0.2054
  874MOL0     C15293   6.870  11.214   1.932 -0.1758 -0.0022 -0.3439
  874MOL0     O15294   6.997  11.256   1.960  0.9401 -0.1841 -0.7126
  874MOL0     C15295   7.040  11.382   1.903 -0.1527 -0.8272 -1.2172
  874MOL0     C15296   7.027  11.407   1.754  0.1466 -0.6921  0.0410
  874MOL0     C15297   7.112  11.307   1.679  0.6919 -0.0695 -0.4410
  874MOL0     C15298   7.047  11.270   1.551  0.1213  0.5110  1.2530
  874MOL0     C15299   6.922  11.189   1.567 -0.7177  0.2443  0.2413
  874MOL0     C15300   6.820  11.126   1.585  0.3702  0.1221  0.0023
  874MOL0     C15301   6.763  11.296   1.893  0.4109  0.7606  0.0480
  874MOL0     C15302   6.639  11.231   1.862 -0.0979  0.1200 -0.0397
  874MOL0     H15303   6.237  11.197   2.004  0.0856  1.3732 -2.5911
  874MOL0     H15304   6.017  11.123   2.060  0.4527  1.9931 -0.2545
  874MOL0     H15305   5.798  11.116   1.930  2.2289 -1.3482 -0.9593
  874MOL0     H15306   5.799  11.035   2.098  0.1984  0.9443  0.6613
  874MOL0     H15307   5.635  10.867   2.014  0.6075  0.3989  2.0041
  874MOL0     H15308   5.623  10.963   1.868  2.5194 -0.9470 -0.0979
  874MOL0     H15309   5.565  11.160   2.035  0.0848  0.0019 -2.7656
  874MOL0     H15310   5.537  11.015   2.140  0.9218 -2.9739 -1.6232
  874MOL0     H15311   5.376  11.103   1.895 -1.6663  0.9048  1.0910
  874MOL0     H15312   5.363  10.944   1.971 -0.3469  0.6158  0.0898
  874MOL0     H15313   5.334  11.213   2.107  0.8290  0.2158 -1.8095
  874MOL0     H15314   5.296  11.068   2.189 -0.9703 -0.2999  0.6010
  874MOL0     H15315   5.157  11.148   1.930 -0.2089  0.4934  0.1678
  874MOL0     H15316   5.097  11.202   2.096 -0.2023 -1.3604  1.8831
  874MOL0     H15317   5.126  10.910   2.031 -1.3490  0.8625 -1.8298
  874MOL0     H15318   5.053  10.982   2.174 -1.4353 -2.0316 -0.8202
  874MOL0     H15319   4.958  11.024   1.885 -0.2043 -2.7004 -0.1804
  874MOL0     H15320   4.903  11.116   2.025  1.6812 -0.1748  2.1620
  874MOL0     H15321   4.971  10.750   1.919 -0.1850 -0.3701 -1.1525
  874MOL0     H15322   4.836  10.540   1.907 -0.8632  0.7485 -0.1640
  874MOL0     H15323   4.674  10.559   1.904 -0.2946 -1.2526  0.4945
  874MOL0     H15324   4.814  10.455   2.150  0.8958  1.3967 -0.9137
  874MOL0     H15325   4.709  10.369   2.047  4.3624 -1.7116  0.2219
  874MOL0     H15326   4.584  10.432   2.251 -1.9503 -1.0120 -0.9077
  874MOL0     H15327   4.628  10.611   2.236 -0.5478 -1.3899  0.7993
  874MOL0     H15328   4.487  10.630   2.052  0.3981  1.1941  1.2419
  874MOL0     H15329   4.397  10.556   2.184  0.2489 -2.5767  0.0759
  874MOL0     H15330   4.257  10.637   2.017  1.9962  0.1975 -1.1802
  874MOL0     H15331   4.064  10.638   1.862  0.4536  0.8499 -0.9888
  874MOL0     H15332   4.038  10.567   1.345  0.0825 -1.3278 -1.3919
  874MOL0     H15333   3.870  10.587   1.174 -0.4132  1.7526  1.3604
  874MOL0     H15334   3.704  10.424   0.952  2.4145  0.6723  1.0739
  874MOL0     H15335   3.706  10.578   1.036 -4.5722  3.2646  1.6824
  874MOL0     H15336   3.507  10.584   0.902 -2.2814 -0.5792 -0.5502
  874MOL0     H15337   3.466  10.584   1.066 -1.1116  0.5580 -2.0669
  874MOL0     H15338   3.392  10.348   1.062 -1.4876 -2.1684 -1.2132
  874MOL0     H15339   3.486  10.331   0.911 -0.5112 -1.2886  1.1361
  874MOL0     H15340   3.238  10.522   0.948  0.5297 -0.8718  0.9588
  874MOL0     H15341   3.302  10.478   0.796 -1.1557 -1.1844  0.6108
  874MOL0     H15342   3.145  10.304   0.976 -1.8385 -0.8788 -0.5426
  874MOL0     H15343   3.244  10.235   0.847  0.5007 -0.2784  2.3491
  874MOL0     H15344   3.124  10.346   0.674  0.9500 -3.6504  0.5051
  874MOL0     H15345   3.063  10.467   0.782  0.9896 -0.6096  0.7530
  874MOL0     H15346   3.000  10.155   0.770  0.5563  0.3871 -0.1832
  874MOL0     H15347   2.942  10.255   0.899  0.3387  1.3781 -0.0477
  874MOL0     H15348   2.851  10.247   0.605  0.9564 -0.5082  0.0069
  874MOL0     H15349   2.847  10.399   0.684 -1.5347 -0.2349 -0.6529
  874MOL0     H15350   3.678  10.230   1.318 -0.2112 -0.5252 -0.0319
  874MOL0     H15351   3.843  10.245   1.529  0.2289  1.1282  0.5033
  874MOL0     H15352   4.216  10.276   1.679  1.5321  0.2259 -0.0596
  874MOL0     H15353   4.397  10.267   1.866  0.5653  0.2047 -1.2554
  874MOL0     H15354   6.038  10.800   1.775  1.4003 -0.1341 -0.0347
  874MOL0     H15355   6.271  10.878   1.710  1.7206 -1.7900  2.0467
  874MOL0     H15356   6.724  10.915   1.948  0.9785  0.1867 -0.2497
  874MOL0     H15357   6.924  11.018   1.995  0.1583 -0.3187 -0.9470
  874MOL0     H15358   7.142  11.394   1.942 -0.5430 -3.9043  1.1668
  874MOL0     H15359   6.979  11.458   1.954  1.1046  0.0064 -0.9088
  874MOL0     H15360   6.922  11.398   1.727 -0.6304 -1.2647  2.9145
  874MOL0     H15361   7.063  11.509   1.736  0.9491 -1.0198 -0.2687
  874MOL0     H15362   7.112  11.218   1.743  1.3441  0.0026 -0.3354
  874MOL0     H15363   7.217  11.333   1.667  0.2682  2.8274  1.3515
  874MOL0     H15364   7.022  11.363   1.500  2.8203  0.9817  0.6411
  874MOL0     H15365   7.111  11.217   1.480 -2.1525 -2.3807  1.1595
  874MOL0     H15366   6.721  11.088   1.603 -0.0211  0.0924 -1.9511
  874MOL0     H15367   6.762  11.402   1.871 -0.2153  0.7874  0.2107
  874MOL0     H15368   6.559  11.283   1.811  2.5301  1.3476 -3.2040
  875MOL0     O15369   6.270   2.575   4.501 -0.3004 -0.2561  0.2067
  875MOL0     C15370   6.350   2.488   4.477 -0.5328 -0.5951 -0.6319
  875MOL0     O15371   6.329   2.358   4.500 -0.1266  0.5886 -0.5375
  875MOL0     C15372   6.216   2.312   4.565  0.9314  0.2205  0.1188
  875MOL0     C15373   6.092   2.324   4.502  0.4795 -0.6345  0.3994
  875MOL0     C15374   5.970   2.292   4.563 -0.2961  0.8924  0.9231
  875MOL0     C15375   5.961   2.220   4.686 -0.1986  0.0101 -0.4839
  875MOL0     O15376   5.861   2.162   4.759 -0.4153 -0.5719  0.1619
  875MOL0     C15377   5.729   2.193   4.730 -0.0991  0.4902 -0.2289
  875MOL0     C15378   5.640   2.074   4.772  0.9840 -0.1105 -0.0617
  875MOL0     C15379   5.667   1.934   4.726  0.1732  0.5284 -0.2347
  875MOL0     C15380   5.665   1.902   4.578  0.6610 -0.5072  0.3635
  875MOL0     C15381   5.768   1.796   4.535  0.3346 -0.2905 -0.1478
  875MOL0     C15382   5.757   1.660   4.588  0.0048  0.3797  0.6162
  875MOL0     C15383   5.614   1.587   4.572  0.0275 -1.0914 -0.8454
  875MOL0     C15384   5.571   1.531   4.440 -0.5081  0.3909 -0.6568
  875MOL0     N15385   5.429   1.551   4.409  0.9073  0.1378 -0.3177
  875MOL0     C15386   5.343   1.449   4.402  0.0342 -0.0695  0.8949
  875MOL0     C15387   5.222   1.515   4.373 -0.2865 -0.0208  0.8607
  875MOL0     C15388   5.098   1.435   4.333 -0.4580 -0.3672 -0.4285
  875MOL0     C15389   4.975   1.525   4.326 -0.0224 -0.8395 -0.6466
  875MOL0     C15390   4.843   1.439   4.308 -0.9379  0.3333  0.4694
  875MOL0     C15391   4.718   1.529   4.288 -0.7115  0.4613  0.2241
  875MOL0     O15392   4.724   1.553   4.143  0.1370 -0.3923  0.4893
  875MOL0     C15393   4.600   1.577   4.083 -0.2771  0.4691  0.0005
  875MOL0     C15394   4.583   1.549   3.948 -0.3301  0.4051 -0.3180
  875MOL0     C15395   4.465   1.575   3.879  0.3430  0.4022 -0.1206
  875MOL0     C15396   4.358   1.634   3.952  0.5992  0.3000 -0.0206
  875MOL0     C15397   4.230   1.675   3.884  0.6539  0.6957 -0.1392
  875MOL0     O15398   4.139   1.751   3.960  0.4083 -0.3833  0.0514
  875MOL0     C15399   4.019   1.790   3.905  0.1442 -0.3759 -1.3333
  875MOL0     C15400   3.988   1.912   3.958  0.3804 -1.1016 -0.3925
  875MOL0     C15401   3.870   1.980   3.916  0.7583  0.7216 -0.6713
  875MOL0     C15402   3.777   1.914   3.835  0.3498 -0.1711 -0.6177
  875MOL0     O15403   3.660   1.974   3.818 -0.7580 -0.4784 -0.2474
  875MOL0     C15404   3.592   1.949   3.690  1.0976 -0.9609 -0.2474
  875MOL0     C15405   3.478   1.860   3.730  0.9745 -0.0312 -0.3411
  875MOL0     C15406   3.338   1.916   3.753 -1.0001  0.8796 -0.6581
  875MOL0     C15407   3.342   2.038   3.847  0.0446  0.0565  0.8412
  875MOL0     C15408   3.219   2.134   3.811 -1.3901  0.3462  0.4388
  875MOL0     C15409   3.086   2.081   3.867 -0.7391  0.1094  1.1188
  875MOL0     C15410   2.969   2.170   3.851 -0.6898  0.6467  0.1170
  875MOL0     C15411   2.857   2.141   3.954 -0.4525 -0.0355  0.4365
  875MOL0    Cl15412   2.803   1.968   3.957 -0.1442  0.1478  0.5203
  875MOL0     C15413   3.812   1.787   3.788  0.1234 -0.1084  0.0207
  875MOL0     C15414   3.933   1.722   3.818  0.5016  0.4676 -0.9681
  875MOL0     O15415   4.210   1.633   3.770  0.0562 -0.4524  0.3309
  875MOL0     C15416   4.370   1.656   4.089  0.1618  0.0064 -0.0829
  875MOL0     C15417   4.492   1.626   4.151  0.4391 -0.1887 -0.6648
  875MOL0     N15418   5.249   1.652   4.365 -0.3471  0.0577 -0.0481
  875MOL0     N15419   5.372   1.670   4.381 -0.6732 -0.2564  0.3659
  875MOL0     C15420   6.089   2.197   4.745 -0.1044 -0.0539  0.4829
  875MOL0     C15421   6.215   2.238   4.687  0.0258  0.3297 -0.1514
  875MOL0     C15422   6.477   2.535   4.429  1.2349 -0.3105  0.7928
  875MOL0     C15423   6.498   2.669   4.376 -1.0397  0.6523  0.3154
  875MOL0     C15424   6.633   2.706   4.353  0.4960  0.5296  0.4507
  875MOL0     C15425   6.734   2.615   4.358  0.1908 -0.5218  0.2555
  875MOL0     O15426   6.861   2.646   4.323  0.6710  0.0363  0.1141
  875MOL0     C15427   6.937   2.700   4.441 -0.0504  0.5808  0.2501
  875MOL0     C15428   7.057   2.774   4.395 -0.0557 -0.1629  0.4799
  875MOL0     C15429   7.010   2.894   4.307 -0.5845 -0.1336 -0.7011
  875MOL0     C15430   7.129   2.989   4.273 -0.2090  0.1654  0.7042
  875MOL0     C15431   7.172   3.051   4.397  0.3041  0.6523  0.9639
  875MOL0     C15432   7.196   3.106   4.500  0.0318  0.4260  1.3944
  875MOL0     C15433   6.718   2.485   4.408  0.1089  0.1273  0.6702
  875MOL0     C15434   6.586   2.446   4.438  0.5157 -0.7523  0.1739
  875MOL0     H15435   6.087   2.374   4.406 -0.3197  2.9162  2.1480
  875MOL0     H15436   5.885   2.287   4.495  0.7915  0.9524 -0.5033
  875MOL0     H15437   5.718   2.209   4.622  3.7571  0.2803 -0.7718
  875MOL0     H15438   5.700   2.283   4.785 -1.2838 -0.6796  1.1525
  875MOL0     H15439   5.538   2.097   4.739 -0.2369 -2.4708  1.7537
  875MOL0     H15440   5.626   2.066   4.880  0.0468  0.7347 -0.1070
  875MOL0     H15441   5.600   1.869   4.782 -2.4300  3.4989  0.3842
  875MOL0     H15442   5.770   1.916   4.757 -0.0746 -0.0349  0.2759
  875MOL0     H15443   5.563   1.878   4.547  1.3996 -1.3284 -1.5289
  875MOL0     H15444   5.684   1.992   4.519 -2.6626 -0.3766 -0.7170
  875MOL0     H15445   5.861   1.833   4.579 -0.3790  0.4621  0.7619
  875MOL0     H15446   5.778   1.783   4.427 -0.3541  0.7835 -0.3465
  875MOL0     H15447   5.791   1.656   4.692  1.9578  1.6671  0.0963
  875MOL0     H15448   5.814   1.592   4.525 -2.5243  0.8419 -2.4212
  875MOL0     H15449   5.621   1.501   4.640  0.6229 -0.9690 -0.7454
  875MOL0     H15450   5.542   1.656   4.617  0.4445  0.1239 -1.9678
  875MOL0     H15451   5.608   1.431   4.419  0.5342  0.7961 -0.8429
  875MOL0     H15452   5.619   1.591   4.362 -2.0591  0.8837 -1.2625
  875MOL0     H15453   5.371   1.344   4.410  0.8297  0.1722  1.5124
  875MOL0     H15454   5.090   1.351   4.402  1.9884  0.4825  0.9985
  875MOL0     H15455   5.115   1.391   4.234  0.4159 -2.0069  0.4073
  875MOL0     H15456   4.998   1.599   4.249  2.7599  1.7815  2.4171
  875MOL0     H15457   4.971   1.593   4.412 -1.0333 -2.7344  0.9028
  875MOL0     H15458   4.876   1.379   4.222  0.7324  0.7062  0.8240
  875MOL0     H15459   4.825   1.369   4.391 -1.1761 -1.9217 -1.3540
  875MOL0     H15460   4.717   1.620   4.349 -0.7000  0.7341 -0.1792
  875MOL0     H15461   4.634   1.461   4.305  0.7581 -1.7856 -0.9360
  875MOL0     H15462   4.668   1.497   3.906 -0.3999 -2.1647  2.3851
  875MOL0     H15463   4.435   1.556   3.777  1.0402  1.2546 -0.4854
  875MOL0     H15464   4.053   1.958   4.031  0.8093  2.0594 -2.5837
  875MOL0     H15465   3.841   2.071   3.968 -2.1425  0.5069 -1.7304
  875MOL0     H15466   3.652   1.904   3.610  1.3532 -1.1996  0.0746
  875MOL0     H15467   3.541   2.034   3.644  1.6508 -0.1069  0.6891
  875MOL0     H15468   3.511   1.807   3.821  0.3820 -3.7828 -2.1126
  875MOL0     H15469   3.461   1.785   3.652 -2.8045 -0.5943  0.7957
  875MOL0     H15470   3.274   1.839   3.797 -1.5354  2.4385  1.4782
  875MOL0     H15471   3.293   1.936   3.656 -2.2332 -2.1969 -0.8190
  875MOL0     H15472   3.329   2.002   3.949 -1.5517 -0.2071  0.5742
  875MOL0     H15473   3.433   2.098   3.832 -1.3609  1.4663 -4.2141
  875MOL0     H15474   3.204   2.148   3.703  0.1587  1.2219  0.3163
  875MOL0     H15475   3.243   2.229   3.860  1.7016 -1.3480  2.5444
  875MOL0     H15476   3.101   2.057   3.973  3.9476  0.4252  0.6997
  875MOL0     H15477   3.065   1.995   3.802 -1.6055  0.3631  1.0496
  875MOL0     H15478   2.988   2.276   3.871  1.2449  0.5779 -1.0872
  875MOL0     H15479   2.926   2.150   3.752  2.1294  1.8584 -1.4892
  875MOL0     H15480   2.784   2.209   3.909  1.5664  0.8095 -1.7699
  875MOL0     H15481   2.879   2.169   4.058 -0.5094  0.7616  0.2403
  875MOL0     H15482   3.733   1.730   3.740 -3.6735  2.3240  2.7923
  875MOL0     H15483   3.957   1.626   3.774 -0.0021  0.8670 -2.1731
  875MOL0     H15484   4.282   1.691   4.142 -1.0341 -0.8243 -1.4551
  875MOL0     H15485   4.474   1.636   4.258  0.6140  0.4939 -0.6927
  875MOL0     H15486   6.099   2.137   4.835  1.3039 -1.4886 -0.5809
  875MOL0     H15487   6.312   2.202   4.720 -0.3296  0.1172  0.6698
  875MOL0     H15488   6.423   2.744   4.355  0.7113  2.1026 -1.0157
  875MOL0     H15489   6.658   2.805   4.315  1.1838  1.1965  2.5308
  875MOL0     H15490   6.962   2.621   4.513  2.1717 -0.2535 -1.3284
  875MOL0     H15491   6.878   2.775   4.496  0.2121  1.0004 -0.0378
  875MOL0     H15492   7.126   2.796   4.477  0.1979 -1.8450  0.7520
  875MOL0     H15493   7.113   2.707   4.329  1.7271  3.3896 -1.9108
  875MOL0     H15494   6.935   2.951   4.363  0.1372  0.7590 -0.6168
  875MOL0     H15495   6.968   2.854   4.214 -1.2407 -1.6020  0.1811
  875MOL0     H15496   7.213   2.931   4.234  0.6687  1.2917  0.8702
  875MOL0     H15497   7.097   3.060   4.196 -0.3958 -2.4094 -1.7911
  875MOL0     H15498   7.200   3.145   4.599 -1.4336 -1.7458  2.3932
  875MOL0     H15499   6.811   2.429   4.406  0.7445  1.1504 -1.0476
  875MOL0     H15500   6.588   2.347   4.482  1.3906 -1.3966 -1.2579
  876MOL0     O15501   8.186   8.198   1.914  0.0437  0.4841 -0.3025
  876MOL0     C15502   8.202   8.098   1.984  0.1731  0.3567  0.0087
  876MOL0     O15503   8.115   8.050   2.073  0.2083  0.3679  0.0049
  876MOL0     C15504   7.982   8.087   2.056 -1.0589 -0.4358 -1.7896
  876MOL0     C15505   7.946   8.213   2.092 -0.5231  0.1982  0.4918
  876MOL0     C15506   7.819   8.256   2.058  0.2632  0.5468  0.4205
  876MOL0     C15507   7.708   8.176   2.021 -1.0008  0.5401  1.1527
  876MOL0     O15508   7.587   8.236   2.003 -0.1847 -0.2947 -0.2057
  876MOL0     C15509   7.478   8.145   2.000 -0.0430  0.0139  0.3387
  876MOL0     C15510   7.365   8.217   1.918  0.4430  0.1522  0.1644
  876MOL0     C15511   7.235   8.124   1.906 -1.1269  0.2148  0.7804
  876MOL0     C15512   7.130   8.174   1.808 -0.3040  0.6016 -0.0519
  876MOL0     C15513   7.011   8.082   1.807 -0.2936 -1.0133 -0.0846
  876MOL0     C15514   6.908   8.142   1.704  0.7620  0.2342  0.6472
  876MOL0     C15515   6.765   8.082   1.706  0.0541  0.2576 -0.2646
  876MOL0     C15516   6.669   8.156   1.613  0.0286 -0.0479 -0.3659
  876MOL0     N15517   6.527   8.131   1.632 -0.8893  0.2003  0.4913
  876MOL0     C15518   6.429   8.217   1.667 -0.5436 -0.7815 -0.0100
  876MOL0     C15519   6.309   8.152   1.639 -0.3180 -0.6245  0.1772
  876MOL0     C15520   6.182   8.221   1.653  0.7758  0.1563  0.9928
  876MOL0     C15521   6.054   8.135   1.614  0.1207  0.2417  0.8602
  876MOL0     C15522   5.933   8.180   1.696  0.3166  0.2367 -0.3340
  876MOL0     C15523   5.807   8.099   1.660  0.0362 -0.2021 -0.6502
  876MOL0     O15524   5.786   8.091   1.521  0.6190  0.0317 -0.1198
  876MOL0     C15525   5.668   8.034   1.479  0.4681  0.3181  0.1326
  876MOL0     C15526   5.642   8.073   1.343 -0.8356 -0.2065 -0.2697
  876MOL0     C15527   5.530   8.030   1.279  0.3777  0.2763  0.1157
  876MOL0     C15528   5.435   7.949   1.340 -0.2833  0.4373 -0.7392
  876MOL0     C15529   5.305   7.902   1.270  0.2892 -0.2090 -0.1290
  876MOL0     O15530   5.225   7.815   1.339  0.0321 -0.3516 -0.0127
  876MOL0     C15531   5.110   7.759   1.285  0.3379 -0.2146 -0.9608
  876MOL0     C15532   5.030   7.683   1.373  0.4903 -0.0814  0.8697
  876MOL0     C15533   4.918   7.615   1.326  0.1675 -0.1307 -0.3584
  876MOL0     C15534   4.870   7.617   1.192  0.0878 -0.3341  0.2464
  876MOL0     O15535   4.755   7.547   1.163 -0.7389 -0.4138 -0.6620
  876MOL0     C15536   4.699   7.582   1.031 -0.3363 -0.6108  0.5621
  876MOL0     C15537   4.575   7.489   0.999  0.1549 -0.4316 -0.9484
  876MOL0     C15538   4.541   7.518   0.852 -0.7455  0.0292 -0.2386
  876MOL0     C15539   4.398   7.465   0.815  0.3147  0.8772 -0.2065
  876MOL0     C15540   4.346   7.492   0.674  0.0415  0.3242 -0.2417
  876MOL0     C15541   4.199   7.447   0.652  0.2394  0.2292  0.4041
  876MOL0     C15542   4.168   7.443   0.496 -0.0717  0.2199 -0.8466
  876MOL0     C15543   4.141   7.586   0.458  1.2389 -0.6550  0.5026
  876MOL0    Cl15544   3.966   7.598   0.421  0.5016  0.4638 -0.0721
  876MOL0     C15545   4.957   7.686   1.102 -0.4257  0.0681  0.7220
  876MOL0     C15546   5.077   7.749   1.149  0.3680 -1.2647 -0.3336
  876MOL0     O15547   5.282   7.949   1.164 -0.0755  0.1033 -0.4659
  876MOL0     C15548   5.466   7.909   1.481  0.7764 -0.0880  0.2031
  876MOL0     C15549   5.579   7.952   1.547 -0.5918 -0.1614  0.1778
  876MOL0     N15550   6.341   8.024   1.605  0.6814  0.6541  0.4101
  876MOL0     N15551   6.468   8.009   1.595  0.2324  0.0436  0.6223
  876MOL0     C15552   7.745   8.044   1.991 -0.3577 -0.5269  0.3469
  876MOL0     C15553   7.879   8.003   2.005  0.0261  0.2075  0.1711
  876MOL0     C15554   8.328   8.023   1.956  0.3054 -0.0808 -0.4850
  876MOL0     C15555   8.420   8.059   1.862  0.6158 -0.5321 -0.1613
  876MOL0     C15556   8.530   7.991   1.832  0.0600 -0.6581 -0.0176
  876MOL0     C15557   8.555   7.873   1.902 -0.5470 -0.0470 -0.6054
  876MOL0     O15558   8.667   7.792   1.891  0.2935  1.0019  0.0919
  876MOL0     C15559   8.678   7.744   1.758 -0.8571 -0.0760  0.1582
  876MOL0     C15560   8.776   7.629   1.732  1.0202 -0.4829 -0.5275
  876MOL0     C15561   8.925   7.642   1.783  0.5220  0.3114 -0.2925
  876MOL0     C15562   9.018   7.554   1.702  0.7690  1.1620 -0.1700
  876MOL0     C15563   8.989   7.403   1.696  0.3469 -0.0414 -0.4608
  876MOL0     C15564   8.965   7.280   1.699  0.4012  0.2718  0.6717
  876MOL0     C15565   8.459   7.823   1.988 -0.3027  0.8278 -0.4128
  876MOL0     C15566   8.341   7.895   2.010 -1.8746 -0.8706 -1.0607
  876MOL0     H15567   8.011   8.291   2.130 -0.2352  0.0317  0.3471
  876MOL0     H15568   7.803   8.363   2.068  2.3532  0.7098  3.2190
  876MOL0     H15569   7.454   8.120   2.103 -2.0857 -0.5614 -0.2264
  876MOL0     H15570   7.505   8.052   1.950  1.3851  0.0141  1.0636
  876MOL0     H15571   7.407   8.231   1.818  1.7979 -2.3034  0.3123
  876MOL0     H15572   7.352   8.315   1.965  1.3009  1.4658 -2.1673
  876MOL0     H15573   7.207   8.121   2.011 -0.4932 -1.4376  0.9352
  876MOL0     H15574   7.270   8.021   1.889 -2.4023 -0.2831  1.0647
  876MOL0     H15575   7.102   8.277   1.833 -3.9370  0.3928 -2.4203
  876MOL0     H15576   7.176   8.171   1.709 -1.0861 -1.9963 -0.4152
  876MOL0     H15577   6.960   8.081   1.904 -0.5605  2.3168 -0.0871
  876MOL0     H15578   7.040   7.981   1.776  0.5618 -0.7607 -0.1364
  876MOL0     H15579   6.955   8.117   1.609 -0.5121 -1.9432  0.5154
  876MOL0     H15580   6.888   8.249   1.713  1.9453  0.4018  1.5581
  876MOL0     H15581   6.766   7.975   1.685  3.5882  0.0701  0.2125
  876MOL0     H15582   6.716   8.091   1.804 -0.7379  0.4556 -0.6743
  876MOL0     H15583   6.704   8.130   1.512  1.0787  1.3691 -0.3964
  876MOL0     H15584   6.682   8.264   1.626  1.2603 -0.1021 -0.9807
  876MOL0     H15585   6.429   8.324   1.689 -2.1626 -1.0566  1.5543
  876MOL0     H15586   6.180   8.317   1.602 -1.4624 -1.0294 -1.3728
  876MOL0     H15587   6.163   8.253   1.756  0.3656  0.9103  0.6899
  876MOL0     H15588   6.064   8.027   1.627  1.8327  0.0414 -1.3726
  876MOL0     H15589   6.047   8.149   1.505  0.6818  0.7002  0.8774
  876MOL0     H15590   5.955   8.165   1.802 -2.2954  0.7773  0.3536
  876MOL0     H15591   5.911   8.284   1.670  1.1333  0.3537 -0.5741
  876MOL0     H15592   5.725   8.145   1.716 -0.3398 -2.7217  1.0477
  876MOL0     H15593   5.809   7.994   1.693 -3.1199 -0.2997 -0.4665
  876MOL0     H15594   5.718   8.131   1.291  1.0776 -0.5203  1.9909
  876MOL0     H15595   5.515   8.066   1.178 -1.7515  0.2168  0.3691
  876MOL0     H15596   5.071   7.692   1.473 -0.5296 -1.9994  1.5102
  876MOL0     H15597   4.854   7.560   1.393 -2.2104  1.1645 -1.4556
  876MOL0     H15598   4.768   7.557   0.949  0.9522 -1.3320  1.8205
  876MOL0     H15599   4.665   7.685   1.020 -1.7442 -1.1785 -0.7678
  876MOL0     H15600   4.493   7.506   1.069 -0.3703  2.2259 -2.0793
  876MOL0     H15601   4.608   7.384   1.005 -0.4905 -0.6561 -1.2745
  876MOL0     H15602   4.606   7.467   0.780 -1.9960 -1.0726 -0.6231
  876MOL0     H15603   4.553   7.624   0.829  2.6383 -0.4000 -1.0956
  876MOL0     H15604   4.398   7.356   0.824  0.5772  0.8974  0.0397
  876MOL0     H15605   4.325   7.499   0.888 -3.3696 -1.2761 -2.5477
  876MOL0     H15606   4.407   7.436   0.603 -0.8467  1.7954 -2.2238
  876MOL0     H15607   4.358   7.599   0.659  1.5908  0.1867 -0.1338
  876MOL0     H15608   4.129   7.520   0.692 -0.2340  0.5555 -0.9379
  876MOL0     H15609   4.172   7.349   0.694 -0.1183  0.7323  1.3619
  876MOL0     H15610   4.242   7.387   0.438  1.0046 -1.2046  1.7310
  876MOL0     H15611   4.071   7.393   0.493  1.5611 -3.1759 -1.8360
  876MOL0     H15612   4.186   7.622   0.365 -3.4608  0.3724 -1.6745
  876MOL0     H15613   4.169   7.658   0.536 -1.6025 -0.0805  1.0809
  876MOL0     H15614   4.940   7.679   0.995  2.6414  1.5628  0.0087
  876MOL0     H15615   5.144   7.794   1.076 -0.7308  1.9423  0.4695
  876MOL0     H15616   5.392   7.841   1.523 -0.8540 -0.3564 -2.8483
  876MOL0     H15617   5.598   7.909   1.644  1.7574  1.1224  0.3626
  876MOL0     H15618   7.684   7.972   1.937 -1.0797 -1.6212  2.5007
  876MOL0     H15619   7.901   7.902   1.972  0.5300  0.1794  0.5744
  876MOL0     H15620   8.410   8.150   1.803  0.8378  0.8503  1.8476
  876MOL0     H15621   8.605   8.020   1.759  0.8878  0.1909  1.1392
  876MOL0     H15622   8.705   7.823   1.687  2.1518 -0.8494  0.2803
  876MOL0     H15623   8.581   7.708   1.724  0.2461 -1.5527 -1.5799
  876MOL0     H15624   8.729   7.541   1.776  1.6810 -2.7285 -3.9381
  876MOL0     H15625   8.777   7.611   1.624  0.0002  2.3125 -1.0769
  876MOL0     H15626   8.929   7.632   1.892  1.3325  0.6008 -0.2863
  876MOL0     H15627   8.967   7.742   1.768  4.0924 -0.8302  0.9579
  876MOL0     H15628   9.026   7.600   1.604 -2.2010 -0.3958 -1.2513
  876MOL0     H15629   9.117   7.550   1.750  0.4841 -1.4058  0.3489
  876MOL0     H15630   8.945   7.175   1.695  1.4798  0.0305  1.1821
  876MOL0     H15631   8.462   7.731   2.045  1.6057  1.6996  0.9948
  876MOL0     H15632   8.264   7.856   2.076 -1.5460  0.2178  0.0019
  877MOL0     O15633   5.079   1.656   1.237  0.5148  0.5090 -0.4137
  877MOL0     C15634   5.038   1.710   1.133  0.3047  0.6141  0.0276
  877MOL0     O15635   4.912   1.753   1.112  0.9175 -0.2917  0.3806
  877MOL0     C15636   4.809   1.683   1.165 -0.1838  0.1770 -0.2395
  877MOL0     C15637   4.683   1.743   1.153 -0.0255 -0.3191 -0.1710
  877MOL0     C15638   4.566   1.673   1.198 -0.2411 -0.4813  0.2050
  877MOL0     C15639   4.580   1.551   1.264 -0.6522  0.0348 -0.4163
  877MOL0     O15640   4.468   1.488   1.305 -0.4018  0.0257  0.6271
  877MOL0     C15641   4.432   1.511   1.434 -0.4251 -0.6644  0.1090
  877MOL0     C15642   4.328   1.398   1.472  0.5322  0.5362  0.6593
  877MOL0     C15643   4.252   1.431   1.599 -0.5735 -0.4119 -0.1083
  877MOL0     C15644   4.208   1.309   1.668 -0.1003  0.5427 -0.1295
  877MOL0     C15645   4.138   1.344   1.804 -0.6466  0.2086 -1.3230
  877MOL0     C15646   4.104   1.223   1.891 -1.0088 -0.8042 -0.1804
  877MOL0     C15647   4.023   1.109   1.828 -0.8483 -0.1226  0.3452
  877MOL0     C15648   4.112   1.011   1.750  0.5610 -0.1764 -1.0464
  877MOL0     N15649   4.184   0.913   1.835 -0.2870 -0.0302  0.2430
  877MOL0     C15650   4.291   0.840   1.789  0.0556  0.0845 -0.8129
  877MOL0     C15651   4.332   0.768   1.896  0.4435  0.4905 -0.7468
  877MOL0     C15652   4.442   0.664   1.904  0.2362 -0.1365 -0.7177
  877MOL0     C15653   4.400   0.536   1.843  0.0593 -0.6138  0.1195
  877MOL0     C15654   4.295   0.467   1.927  0.5401  0.7244 -0.2160
  877MOL0     C15655   4.293   0.310   1.908  0.0608 -0.1075  0.3235
  877MOL0     O15656   4.178   0.262   1.968 -0.2419 -0.0821  0.3974
  877MOL0     C15657   4.062   0.234   1.903  0.5892 -0.0476  0.1154
  877MOL0     C15658   4.037   0.273   1.772 -0.6079  0.6226 -0.0444
  877MOL0     C15659   3.915   0.235   1.717 -0.5146 -0.2164  0.3125
  877MOL0     C15660   3.822   0.149   1.783 -0.4925  0.0399  0.4753
  877MOL0     C15661   3.696   0.110   1.719 -0.5934 -0.4846  0.0493
  877MOL0     O15662   3.603   0.049   1.798 -0.0867  0.0808  0.2415
  877MOL0     C15663   3.484   0.005   1.736 -0.0341 -0.5996 -0.1405
  877MOL0     C15664   3.362   0.058   1.761  0.1743 -0.0849 -0.0612
  877MOL0     C15665   3.241   0.003   1.715  0.0646 -0.3586 -0.0820
  877MOL0     C15666   3.248  -0.105   1.640  0.2814  0.1358  0.7638
  877MOL0     O15667   3.143  -0.165   1.584  0.6308  0.6702  0.4905
  877MOL0     C15668   3.046  -0.207   1.678 -0.1316  0.3116 -0.0062
  877MOL0     C15669   2.906  -0.189   1.617 -0.2237 -0.5631  0.5021
  877MOL0     C15670   2.804  -0.193   1.730 -0.1513 -0.2656 -0.3607
  877MOL0     C15671   2.665  -0.150   1.675 -0.4021  0.0026 -0.2350
  877MOL0     C15672   2.562  -0.132   1.787  0.3161  0.7055  0.5185
  877MOL0     C15673   2.427  -0.209   1.762 -1.0709  0.6699 -0.4668
  877MOL0     C15674   2.319  -0.147   1.845  0.4045  0.1037  0.2683
  877MOL0     C15675   2.189  -0.230   1.844 -0.1583  0.2668  0.0795
  877MOL0    Cl15676   2.112  -0.262   1.681  0.0226  0.0922 -0.3975
  877MOL0     C15677   3.376  -0.151   1.592  0.4359  0.6757 -0.3054
  877MOL0     C15678   3.489  -0.101   1.646 -0.5671  0.6952  0.3182
  877MOL0     O15679   3.681   0.140   1.605 -0.0281 -0.4583 -0.7307
  877MOL0     C15680   3.859   0.105   1.917  0.4364 -1.0052  0.5394
  877MOL0     C15681   3.971   0.156   1.976 -0.7314  0.9079  0.4637
  877MOL0     N15682   4.246   0.791   2.001 -0.0834 -0.3716  0.1785
  877MOL0     N15683   4.164   0.880   1.967  0.1676  1.3560 -0.2115
  877MOL0     C15684   4.705   1.484   1.270  0.0537  0.5792 -0.6036
  877MOL0     C15685   4.819   1.545   1.216 -0.4739  0.5308 -0.5413
  877MOL0     C15686   5.144   1.779   1.046  1.2076 -0.0929 -0.4560
  877MOL0     C15687   5.276   1.732   1.057  0.2089 -0.3695  0.0055
  877MOL0     C15688   5.379   1.804   0.999  0.3121 -0.6770  0.0202
  877MOL0     C15689   5.343   1.927   0.931  0.6889  0.9450 -0.5113
  877MOL0     O15690   5.448   2.001   0.878  0.0823  0.0778 -0.0323
  877MOL0     C15691   5.510   1.946   0.760 -1.0219 -0.7538  0.4209
  877MOL0     C15692   5.632   2.034   0.738 -0.1665  0.0398 -0.2945
  877MOL0     C15693   5.724   1.997   0.619 -0.2534  0.0555 -0.0999
  877MOL0     C15694   5.665   2.010   0.484 -0.4072  0.5649 -0.3053
  877MOL0     C15695   5.624   2.154   0.470  0.0445 -0.3551  0.5745
  877MOL0     C15696   5.563   2.258   0.454 -1.0001 -0.1164 -0.0959
  877MOL0     C15697   5.214   1.969   0.923 -0.2750 -0.5593  0.1365
  877MOL0     C15698   5.119   1.898   0.985  0.7100 -0.7772  0.4536
  877MOL0     H15699   4.672   1.842   1.108 -1.0977 -0.9739 -1.4466
  877MOL0     H15700   4.473   1.728   1.188 -0.6323 -1.1949 -0.1394
  877MOL0     H15701   4.370   1.601   1.431 -2.4826 -2.0206 -0.5109
  877MOL0     H15702   4.509   1.520   1.511 -0.6542 -1.7078  0.4794
  877MOL0     H15703   4.386   1.306   1.473 -0.9647 -0.5454 -2.3338
  877MOL0     H15704   4.250   1.390   1.396 -0.3600  3.7297  1.0568
  877MOL0     H15705   4.166   1.491   1.568  0.5641  1.5446  0.3131
  877MOL0     H15706   4.324   1.488   1.660  0.8853  0.4271 -2.4820
  877MOL0     H15707   4.128   1.267   1.606 -1.8937  3.1299  0.2928
  877MOL0     H15708   4.298   1.246   1.671 -0.4663 -0.5014 -4.3511
  877MOL0     H15709   4.048   1.397   1.772  0.1168  0.2744 -3.5354
  877MOL0     H15710   4.199   1.415   1.860  1.6947 -0.9735 -2.2135
  877MOL0     H15711   4.046   1.262   1.976  3.8239  1.9092  2.3045
  877MOL0     H15712   4.197   1.179   1.926 -0.7093  0.0412  0.1276
  877MOL0     H15713   3.959   1.061   1.903  0.3741  0.0199  1.5194
  877MOL0     H15714   3.941   1.151   1.770 -0.9125  0.7010  1.0224
  877MOL0     H15715   4.185   1.059   1.684  1.3917 -1.2678 -0.9583
  877MOL0     H15716   4.037   0.953   1.695 -2.0038  2.1522 -0.1960
  877MOL0     H15717   4.350   0.845   1.697  0.8938 -1.1392 -0.3643
  877MOL0     H15718   4.464   0.652   2.010 -4.0083 -0.6275  0.2739
  877MOL0     H15719   4.529   0.693   1.844  1.6222 -1.9736  0.3060
  877MOL0     H15720   4.484   0.466   1.832 -0.3555 -0.9972 -0.7363
  877MOL0     H15721   4.357   0.556   1.744  1.0128 -0.6364 -0.3145
  877MOL0     H15722   4.304   0.485   2.035 -0.1073 -1.1223  0.1927
  877MOL0     H15723   4.195   0.502   1.900 -0.1124  0.4698  1.7095
  877MOL0     H15724   4.382   0.265   1.953  2.4947 -0.6339 -4.4365
  877MOL0     H15725   4.295   0.271   1.806  0.3449 -0.9695  0.6518
  877MOL0     H15726   4.105   0.339   1.718 -0.1345  0.5631  0.4827
  877MOL0     H15727   3.906   0.271   1.615  1.4790  1.2794  0.6107
  877MOL0     H15728   3.353   0.140   1.832  0.3638  0.2483 -0.4158
  877MOL0     H15729   3.145   0.050   1.735  0.9980  0.3406  3.4888
  877MOL0     H15730   3.061  -0.157   1.774  0.3975  3.2820 -1.5176
  877MOL0     H15731   3.067  -0.314   1.694 -3.7579 -0.5478 -0.0405
  877MOL0     H15732   2.877  -0.275   1.556 -0.6562  0.1719 -0.3339
  877MOL0     H15733   2.913  -0.097   1.559  2.8929 -0.0238  1.5572
  877MOL0     H15734   2.825  -0.117   1.806 -1.3555 -1.5866  1.3863
  877MOL0     H15735   2.795  -0.292   1.773 -1.7543 -0.5868 -1.3455
  877MOL0     H15736   2.675  -0.062   1.610 -1.4342 -0.2341 -0.7257
  877MOL0     H15737   2.633  -0.235   1.614 -1.9669 -0.3299  0.9830
  877MOL0     H15738   2.533  -0.028   1.801 -0.7939  0.4477  0.2353
  877MOL0     H15739   2.602  -0.167   1.883 -0.5215 -1.7972  0.0503
  877MOL0     H15740   2.441  -0.313   1.790 -2.3046  0.2725 -1.2513
  877MOL0     H15741   2.395  -0.210   1.658 -1.7037  0.0467 -0.2718
  877MOL0     H15742   2.368  -0.135   1.942 -0.2312 -1.5105  0.8303
  877MOL0     H15743   2.302  -0.049   1.799 -0.6742 -0.8240 -1.4418
  877MOL0     H15744   2.115  -0.177   1.905  0.0365 -0.4430  0.9617
  877MOL0     H15745   2.215  -0.323   1.894  4.5468  1.8908  1.0757
  877MOL0     H15746   3.387  -0.234   1.523 -2.5520 -0.8401  0.8515
  877MOL0     H15747   3.584  -0.136   1.606 -0.4791 -1.7063  2.3798
  877MOL0     H15748   3.797   0.041   1.977 -1.9127  0.5761 -0.0808
  877MOL0     H15749   3.998   0.131   2.079 -2.3288  0.4897  0.8124
  877MOL0     H15750   4.713   1.387   1.317 -0.4623  0.8721  0.1011
  877MOL0     H15751   4.908   1.483   1.214 -0.6519  0.1595  1.1501
  877MOL0     H15752   5.302   1.637   1.102  1.2608 -0.5178 -0.8683
  877MOL0     H15753   5.476   1.756   0.998  0.6613 -0.0986  1.7915
  877MOL0     H15754   5.452   1.965   0.670 -1.4864  1.5205  1.1266
  877MOL0     H15755   5.534   1.840   0.773  3.9412  0.2284  1.3283
  877MOL0     H15756   5.586   2.131   0.717 -0.7922 -0.7812 -3.2003
  877MOL0     H15757   5.696   2.045   0.825  1.1289 -2.7285 -0.7915
  877MOL0     H15758   5.743   1.890   0.629 -0.2347 -0.0651 -1.3008
  877MOL0     H15759   5.826   2.038   0.617 -0.6363  1.0769 -2.8248
  877MOL0     H15760   5.749   1.988   0.417 -0.7921 -0.9379 -0.3178
  877MOL0     H15761   5.586   1.935   0.474  1.4493 -1.5459  0.1086
  877MOL0     H15762   5.527   2.357   0.435  1.1213  0.7425  0.1687
  877MOL0     H15763   5.181   2.066   0.888 -0.7706 -0.2132  1.5363
  877MOL0     H15764   5.022   1.940   0.959  0.7575  0.1724  1.6779
  878MOL0     O15765   1.488   9.481  10.617 -1.1839  0.6798  0.2801
  878MOL0     C15766   1.500   9.537  10.508  0.3150  0.2245 -0.0988
  878MOL0     O15767   1.397   9.604  10.448  0.0896 -0.3442 -0.1070
  878MOL0     C15768   1.261   9.611  10.499 -0.0568  0.1576  0.5437
  878MOL0     C15769   1.193   9.506  10.564 -0.2243  0.3878 -0.0050
  878MOL0     C15770   1.056   9.525  10.606 -0.5189 -0.1301 -0.5051
  878MOL0     C15771   0.992   9.643  10.578 -0.7841  0.0226 -0.8485
  878MOL0     O15772   0.862   9.646  10.618 -0.3916 -1.1706 -0.2134
  878MOL0     C15773   0.793   9.772  10.654 -0.7739  0.2553  0.6918
  878MOL0     C15774   0.652   9.729  10.693  0.3553  0.4020  0.4222
  878MOL0     C15775   0.575   9.833  10.764  0.1843 -1.1520 -0.0530
  878MOL0     C15776   0.433   9.807  10.777 -0.1579  0.2948 -0.4902
  878MOL0     C15777   0.372   9.907  10.878 -0.1771  0.0279  0.0032
  878MOL0     C15778   0.224   9.878  10.872 -0.6531 -0.1198 -0.4558
  878MOL0     C15779   0.139   9.988  10.931  0.2226  0.0953 -1.8959
  878MOL0     C15780   0.173  10.006  11.082 -0.2535 -0.0666  0.5696
  878MOL0     N15781   0.068  10.096  11.148 -0.0132 -0.3662  0.3762
  878MOL0     C15782  -0.028  10.055  11.237  0.7301  0.5010 -0.4281
  878MOL0     C15783  -0.094  10.167  11.285 -0.3900 -0.0190  0.9119
  878MOL0     C15784  -0.211  10.161  11.380 -0.0164  0.3591  1.3049
  878MOL0     C15785  -0.353  10.188  11.322  0.1204 -0.1774  0.2942
  878MOL0     C15786  -0.459  10.195  11.432 -0.6379  0.7658 -0.0994
  878MOL0     C15787  -0.603  10.246  11.401 -0.2207 -1.0689 -0.2738
  878MOL0     O15788  -0.666  10.163  11.304 -0.7740  0.2905  0.0519
  878MOL0     C15789  -0.788  10.196  11.247  0.2821  0.0796 -0.2315
  878MOL0     C15790  -0.866  10.306  11.280  0.2144  0.4805 -0.2759
  878MOL0     C15791  -0.995  10.312  11.234 -0.3264 -0.7860  0.1786
  878MOL0     C15792  -1.052  10.220  11.146  0.4795 -0.0348  0.8375
  878MOL0     C15793  -1.183  10.237  11.084  0.0962  0.6202 -0.1095
  878MOL0     O15794  -1.252  10.122  11.055 -0.2520  0.4567 -0.4478
  878MOL0     C15795  -1.382  10.131  11.016  0.1226 -0.2332  0.6586
  878MOL0     C15796  -1.467  10.042  11.090  0.1345 -0.4395 -0.4845
  878MOL0     C15797  -1.607  10.037  11.078  0.7023  0.8847 -0.0228
  878MOL0     C15798  -1.668  10.116  10.980  0.1600 -0.0827  0.4707
  878MOL0     O15799  -1.806  10.122  10.972  0.5935 -0.4583  0.9411
  878MOL0     C15800  -1.885  10.174  10.860 -0.8752 -0.3794 -0.2057
  878MOL0     C15801  -2.029  10.183  10.906  0.8013  0.4663 -0.3998
  878MOL0     C15802  -2.034  10.266  11.034 -0.2890  0.2397  0.8577
  878MOL0     C15803  -2.181  10.286  11.079  0.2952 -0.4961  0.2545
  878MOL0     C15804  -2.246  10.399  11.004  0.0923 -0.0991  0.0854
  878MOL0     C15805  -2.397  10.410  11.019  0.6372  0.0459  0.5114
  878MOL0     C15806  -2.447  10.545  10.983  0.1758  0.6381 -0.3305
  878MOL0     C15807  -2.591  10.563  11.017  0.6345  0.2687 -0.9422
  878MOL0    Cl15808  -2.630  10.736  10.998  0.3378 -0.0187 -0.1427
  878MOL0     C15809  -1.584  10.186  10.891 -1.0656 -0.7808 -0.3317
  878MOL0     C15810  -1.444  10.201  10.912 -0.5575  0.4012  0.1509
  878MOL0     O15811  -1.220  10.350  11.057 -0.1573  0.2519 -0.5982
  878MOL0     C15812  -0.966  10.110  11.098  0.2574 -1.2667  0.7292
  878MOL0     C15813  -0.837  10.100  11.153  0.6296 -0.0034  0.2466
  878MOL0     N15814  -0.036  10.274  11.222  0.1414  0.5648  0.0676
  878MOL0     N15815   0.061  10.230  11.138 -0.5875 -0.1752  0.2106
  878MOL0     C15816   1.054   9.747  10.507  0.1657  0.7267 -0.2136
  878MOL0     C15817   1.192   9.733  10.463  0.2605 -0.4864 -0.5546
  878MOL0     C15818   1.640   9.551  10.440 -0.3792 -1.1481 -0.4105
  878MOL0     C15819   1.654   9.597  10.311  0.0207 -0.9648  0.2958
  878MOL0     C15820   1.782   9.632  10.265  0.0181  0.7371 -0.1210
  878MOL0     C15821   1.899   9.603  10.341 -0.1275 -0.0481 -0.2773
  878MOL0     O15822   2.021   9.624  10.278  0.1305 -0.4648 -0.4173
  878MOL0     C15823   2.139   9.564  10.319 -0.2742 -0.2729 -0.1573
  878MOL0     C15824   2.255   9.656  10.289  0.1228  0.3875  0.4860
  878MOL0     C15825   2.379   9.614  10.366  0.4477 -0.1124 -0.6860
  878MOL0     C15826   2.492   9.718  10.344 -0.0569 -0.3439  0.5182
  878MOL0     C15827   2.597   9.706  10.444  0.0488  0.0038 -0.5082
  878MOL0     C15828   2.680   9.718  10.533  0.2687 -0.1575  0.7460
  878MOL0     C15829   1.884   9.560  10.472 -0.2066 -0.2766  0.4476
  878MOL0     C15830   1.760   9.531  10.518  0.6046  0.5739  0.2292
  878MOL0     H15831   1.246   9.416  10.592 -0.4269  0.5463  0.9254
  878MOL0     H15832   1.007   9.447  10.663 -1.7885  0.4152 -0.8182
  878MOL0     H15833   0.789   9.834  10.564  2.5730 -2.1070 -1.3243
  878MOL0     H15834   0.842   9.826  10.735  1.8328 -0.7604 -0.0808
  878MOL0     H15835   0.656   9.652  10.770 -0.1462 -2.6752 -2.3655
  878MOL0     H15836   0.599   9.683  10.609  1.3920 -0.7948  0.4044
  878MOL0     H15837   0.574   9.921  10.701  0.4110 -2.1540 -1.5039
  878MOL0     H15838   0.624   9.854  10.860  0.4687 -1.8824 -0.0286
  878MOL0     H15839   0.382   9.803  10.680 -0.1926 -1.8684 -0.4379
  878MOL0     H15840   0.416   9.708  10.823 -0.3515 -0.4274 -2.0657
  878MOL0     H15841   0.406  10.009  10.855  1.4842 -0.2576  1.0259
  878MOL0     H15842   0.415   9.888  10.977  0.7432  2.4610  0.1436
  878MOL0     H15843   0.203   9.789  10.931 -3.8981  1.3922  0.8682
  878MOL0     H15844   0.182   9.864  10.772  0.4476 -1.4209 -0.7674
  878MOL0     H15845   0.158  10.080  10.875  0.0726  1.8272  0.6836
  878MOL0     H15846   0.031   9.970  10.925 -0.3929  2.7364 -0.5512
  878MOL0     H15847   0.270  10.054  11.094 -0.7458  0.5397  2.6852
  878MOL0     H15848   0.172   9.905  11.124 -2.2361  1.4758  4.8605
  878MOL0     H15849  -0.048   9.956  11.278 -1.5139  1.2900  0.5346
  878MOL0     H15850  -0.199  10.240  11.455 -2.5093  1.7036  0.4265
  878MOL0     H15851  -0.208  10.060  11.421  1.0349  0.4662  1.5123
  878MOL0     H15852  -0.375  10.104  11.255 -2.2100  0.1660  0.5381
  878MOL0     H15853  -0.354  10.287  11.277  1.1167 -0.7211 -0.9782
  878MOL0     H15854  -0.468  10.095  11.475  1.9965  0.7172  0.5522
  878MOL0     H15855  -0.410  10.259  11.507 -2.1563  1.7627  0.0702
  878MOL0     H15856  -0.599  10.351  11.368  0.6904 -0.4873  1.5376
  878MOL0     H15857  -0.657  10.244  11.496  1.3000 -2.9444  0.6252
  878MOL0     H15858  -0.832  10.382  11.350  0.5105 -0.7715  0.9909
  878MOL0     H15859  -1.052  10.393  11.279  0.1104  0.3592 -1.2110
  878MOL0     H15860  -1.419   9.976  11.162 -1.5820 -1.0383  0.1832
  878MOL0     H15861  -1.672   9.962  11.122 -0.9593  0.9378 -2.1865
  878MOL0     H15862  -1.861  10.113  10.773  1.6979  0.9349 -0.5044
  878MOL0     H15863  -1.844  10.275  10.850 -2.3893  0.1226 -1.7803
  878MOL0     H15864  -2.062  10.079  10.914  0.5196  0.5992  0.2120
  878MOL0     H15865  -2.091  10.223  10.825 -0.5423  0.1215  0.4129
  878MOL0     H15866  -1.984  10.363  11.023 -1.3219  0.9796  2.2462
  878MOL0     H15867  -1.982  10.212  11.113  1.7627  0.1812 -0.4625
  878MOL0     H15868  -2.232  10.189  11.072  0.1639 -0.6406  2.3864
  878MOL0     H15869  -2.182  10.322  11.183  0.2268  1.0921 -0.2783
  878MOL0     H15870  -2.216  10.403  10.899 -0.4410  1.2742 -0.0402
  878MOL0     H15871  -2.194  10.484  11.051  1.8110 -1.7227  1.2786
  878MOL0     H15872  -2.417  10.397  11.126  0.1048  0.9407  0.5260
  878MOL0     H15873  -2.431  10.328  10.955  0.5091  0.2551  0.3136
  878MOL0     H15874  -2.392  10.625  11.033 -1.0068  0.5681  1.1300
  878MOL0     H15875  -2.427  10.565  10.877 -0.4655  2.0728 -0.2116
  878MOL0     H15876  -2.614  10.535  11.120 -0.6021  0.1204 -1.2466
  878MOL0     H15877  -2.655  10.513  10.945 -0.2555  0.9635 -0.6485
  878MOL0     H15878  -1.611  10.235  10.798  3.0639  0.3484 -1.1552
  878MOL0     H15879  -1.387  10.254  10.837 -1.6350  0.4255 -0.6752
  878MOL0     H15880  -1.010  10.035  11.033 -5.0080 -2.1419  4.5465
  878MOL0     H15881  -0.771  10.015  11.141 -1.9901 -1.9888 -1.0559
  878MOL0     H15882   0.999   9.838  10.481 -4.3560 -1.7915 -0.4921
  878MOL0     H15883   1.245   9.815  10.416 -1.3192  0.4937 -0.6999
  878MOL0     H15884   1.563   9.603  10.253 -0.0689 -0.7467  0.4570
  878MOL0     H15885   1.805   9.661  10.163  1.7426  1.9862  0.5775
  878MOL0     H15886   2.167   9.468  10.276  1.9989 -0.1104  0.7987
  878MOL0     H15887   2.138   9.552  10.428 -1.3826  0.8455 -0.0219
  878MOL0     H15888   2.278   9.643  10.183 -3.3119 -1.2052 -0.1955
  878MOL0     H15889   2.227   9.760  10.310  0.2105  0.6463 -0.6256
  878MOL0     H15890   2.408   9.514  10.333 -0.7667 -1.1056  1.0938
  878MOL0     H15891   2.347   9.604  10.470  0.3124 -0.9122 -0.8009
  878MOL0     H15892   2.522   9.718  10.239 -0.8996 -1.5772  0.2515
  878MOL0     H15893   2.452   9.819  10.349 -2.2361 -1.0446 -1.3146
  878MOL0     H15894   2.755   9.732  10.608 -0.6580  1.9985  1.3562
  878MOL0     H15895   1.970   9.550  10.538  0.4667  0.1966 -0.3376
  878MOL0     H15896   1.750   9.499  10.622  3.2662 -1.3407  0.0270
  879MOL0     O15897   5.683   7.305  10.056 -0.4282  1.4275  0.3636
  879MOL0     C15898   5.756   7.289   9.956 -0.0639  0.0602 -0.1894
  879MOL0     O15899   5.710   7.258   9.832 -0.0603  0.8574  0.1274
  879MOL0     C15900   5.582   7.228   9.817 -1.0568  0.7890  0.1745
  879MOL0     C15901   5.508   7.310   9.748 -0.6632 -0.5070  0.3493
  879MOL0     C15902   5.378   7.284   9.707 -0.7650 -0.2957  0.3263
  879MOL0     C15903   5.327   7.159   9.734 -0.4057  0.3562 -0.3447
  879MOL0     O15904   5.201   7.117   9.703 -0.3888  0.1023  0.0430
  879MOL0     C15905   5.126   7.173   9.595 -0.2334  0.4522  0.3327
  879MOL0     C15906   4.998   7.089   9.572 -0.1028  0.3884 -0.1475
  879MOL0     C15907   4.914   7.104   9.703 -0.2391  0.1309  0.3062
  879MOL0     C15908   4.769   7.058   9.682  0.2143 -0.9262  0.2922
  879MOL0     C15909   4.686   7.081   9.816  1.0781  0.6342  0.6312
  879MOL0     C15910   4.552   7.002   9.834 -0.2935  0.2160 -0.5670
  879MOL0     C15911   4.431   7.071   9.783  0.0644 -0.3211 -0.6409
  879MOL0     C15912   4.311   6.991   9.834 -0.4110  0.7319 -0.1083
  879MOL0     N15913   4.177   7.039   9.799  1.1065 -0.0728 -0.4524
  879MOL0     C15914   4.137   7.055   9.670 -0.2371 -0.1511 -0.4247
  879MOL0     C15915   4.007   7.106   9.680 -0.1980  0.5166  0.5666
  879MOL0     C15916   3.922   7.161   9.574  1.0190 -0.2626 -0.1739
  879MOL0     C15917   3.852   7.297   9.606 -0.6950 -0.3123  0.8631
  879MOL0     C15918   3.737   7.339   9.514 -0.3766  0.7315 -0.6413
  879MOL0     C15919   3.703   7.488   9.506  0.0926  0.3430 -0.0041
  879MOL0     O15920   3.581   7.501   9.426 -0.0511  0.2372  0.2887
  879MOL0     C15921   3.458   7.468   9.478  0.2376  0.5159 -0.1592
  879MOL0     C15922   3.360   7.428   9.383 -0.2751  0.0173 -0.5701
  879MOL0     C15923   3.230   7.385   9.428  0.1425 -1.2485  0.1419
  879MOL0     C15924   3.207   7.388   9.565  0.2797 -0.2229  0.5840
  879MOL0     C15925   3.072   7.339   9.625  0.0639 -0.4654  0.1137
  879MOL0     O15926   2.977   7.289   9.541  0.2510 -0.6273  0.7147
  879MOL0     C15927   2.860   7.242   9.583  0.9781  0.1037 -0.4961
  879MOL0     C15928   2.826   7.120   9.525  0.0608 -1.1231  0.7943
  879MOL0     C15929   2.710   7.053   9.564  0.0913  0.4982 -0.9566
  879MOL0     C15930   2.630   7.098   9.665 -0.7567  0.1272 -0.4064
  879MOL0     O15931   2.526   7.016   9.704 -0.2191 -0.3689 -0.0283
  879MOL0     C15932   2.415   7.076   9.777  0.0319  0.2483  0.2086
  879MOL0     C15933   2.311   7.146   9.684 -1.3109  0.5889 -0.3265
  879MOL0     C15934   2.205   7.228   9.750 -0.5828  0.1231  0.9104
  879MOL0     C15935   2.086   7.245   9.654 -0.3827  0.0009 -0.4217
  879MOL0     C15936   2.005   7.376   9.711 -0.4294 -0.3820 -0.5042
  879MOL0     C15937   1.958   7.357   9.855 -0.6126 -0.3762 -0.5331
  879MOL0     C15938   1.851   7.467   9.888  0.2340  0.1219 -0.2293
  879MOL0     C15939   1.924   7.597   9.932 -0.5351  0.2748  0.7073
  879MOL0    Cl15940   2.023   7.603  10.074 -0.3994 -0.1010  0.1026
  879MOL0     C15941   2.657   7.226   9.722  1.1264  0.0142  0.5351
  879MOL0     C15942   2.776   7.298   9.685  0.5111  0.0335  0.7612
  879MOL0     O15943   3.059   7.354   9.748 -0.4246  0.4358  0.6798
  879MOL0     C15944   3.300   7.439   9.653 -0.4733 -0.0623 -0.2546
  879MOL0     C15945   3.430   7.466   9.617  0.4798  0.4382  0.1918
  879MOL0     N15946   3.965   7.103   9.809  0.0933 -0.1830 -0.6373
  879MOL0     N15947   4.071   7.087   9.876 -0.5099  0.8038  0.7889
  879MOL0     C15948   5.409   7.073   9.811 -0.3351 -0.4403  0.5707
  879MOL0     C15949   5.534   7.103   9.847  0.6114 -0.5057 -0.7352
  879MOL0     C15950   5.902   7.292   9.982 -0.4395  0.3109 -0.9397
  879MOL0     C15951   5.952   7.339  10.107  0.2979 -0.3704 -1.0176
  879MOL0     C15952   6.080   7.317  10.137  0.3191  1.1883 -0.1118
  879MOL0     C15953   6.172   7.256  10.053  0.3441 -0.0682  0.1316
  879MOL0     O15954   6.304   7.241  10.092  0.7792  0.2655  0.0587
  879MOL0     C15955   6.392   7.169  10.004 -0.4241  0.4115 -0.1426
  879MOL0     C15956   6.519   7.153  10.083  0.0897  0.3514  0.6089
  879MOL0     C15957   6.620   7.076   9.993 -0.4822 -0.0023  0.5898
  879MOL0     C15958   6.772   7.077  10.049  0.2704 -0.1594 -0.1990
  879MOL0     C15959   6.829   7.210  10.049 -0.0347 -0.1912 -0.1013
  879MOL0     C15960   6.879   7.322  10.054  0.2035  0.0416  0.6808
  879MOL0     C15961   6.128   7.230   9.919 -0.4693 -0.4590 -0.8864
  879MOL0     C15962   5.990   7.241   9.887 -0.6486 -0.5325 -0.6693
  879MOL0     H15963   5.559   7.404   9.726 -0.4821 -0.8339 -0.7138
  879MOL0     H15964   5.324   7.358   9.648 -0.4532  1.3224  1.9944
  879MOL0     H15965   5.190   7.169   9.506  0.2556  2.1555  0.5697
  879MOL0     H15966   5.094   7.277   9.610  1.4181  0.9411  0.6413
  879MOL0     H15967   5.012   6.981   9.560 -3.7719 -0.4865  1.7855
  879MOL0     H15968   4.950   7.118   9.477  1.4096 -0.7805 -1.3175
  879MOL0     H15969   4.913   7.209   9.733  2.1368  0.9035 -1.9561
  879MOL0     H15970   4.973   7.053   9.779  0.8078  2.6772  1.2773
  879MOL0     H15971   4.732   7.120   9.600  2.9584  0.1833 -0.2275
  879MOL0     H15972   4.762   6.953   9.652  0.1007 -0.8722  0.1288
  879MOL0     H15973   4.664   7.188   9.813  0.0234  0.4185 -0.5993
  879MOL0     H15974   4.741   7.050   9.905 -0.8946 -1.8120  1.1194
  879MOL0     H15975   4.540   6.972   9.938 -0.1530  1.6837 -0.1036
  879MOL0     H15976   4.561   6.910   9.775  2.6843  1.2002 -1.8686
  879MOL0     H15977   4.421   7.170   9.828  0.5974 -0.5401 -0.0224
  879MOL0     H15978   4.427   7.075   9.674 -1.8354 -1.3982 -0.6649
  879MOL0     H15979   4.321   6.994   9.943  1.9981 -1.0002 -0.1865
  879MOL0     H15980   4.317   6.884   9.810 -1.5690  0.8658 -1.0881
  879MOL0     H15981   4.200   7.046   9.582  0.3092 -1.8646  0.0905
  879MOL0     H15982   3.840   7.091   9.556 -1.3601  2.1632  0.5494
  879MOL0     H15983   3.977   7.179   9.481  1.9160 -0.5994  0.2755
  879MOL0     H15984   3.939   7.362   9.600  0.0352 -1.2346  1.2235
  879MOL0     H15985   3.804   7.295   9.705 -2.3649 -0.1314  0.0824
  879MOL0     H15986   3.761   7.312   9.410  0.8830 -1.6498  0.1924
  879MOL0     H15987   3.650   7.285   9.552  1.2169 -1.4084  0.1724
  879MOL0     H15988   3.786   7.529   9.446 -0.5298  0.9400 -0.4725
  879MOL0     H15989   3.701   7.547   9.598 -4.6859 -0.5928  0.7437
  879MOL0     H15990   3.380   7.430   9.276 -0.4452  1.9804 -0.6067
  879MOL0     H15991   3.149   7.350   9.364 -0.6105 -1.4615  1.1807
  879MOL0     H15992   2.876   7.083   9.436  0.2143  0.1321  0.3394
  879MOL0     H15993   2.691   6.959   9.515  2.5093 -0.0941 -0.8760
  879MOL0     H15994   2.446   7.149   9.852  1.3497  2.0267 -1.9281
  879MOL0     H15995   2.361   6.996   9.829 -1.8306  0.7369 -0.8729
  879MOL0     H15996   2.258   7.063   9.636  0.2199 -1.8581  1.8620
  879MOL0     H15997   2.367   7.210   9.615  1.9433 -0.3605  1.2080
  879MOL0     H15998   2.246   7.326   9.775 -1.3185  0.1284  2.1641
  879MOL0     H15999   2.180   7.190   9.849 -1.4100 -2.8925 -0.3372
  879MOL0     H16000   2.124   7.272   9.555  2.4655  0.6691  0.7530
  879MOL0     H16001   2.008   7.169   9.643  0.5916 -1.0880 -0.0342
  879MOL0     H16002   1.921   7.397   9.644  0.7031 -2.7188 -2.8195
  879MOL0     H16003   2.075   7.460   9.706 -0.9177  0.1241  0.6600
  879MOL0     H16004   2.038   7.364   9.929 -1.0997  2.7672 -0.1469
  879MOL0     H16005   1.918   7.255   9.860 -0.2030 -0.5068  0.3821
  879MOL0     H16006   1.769   7.485   9.819  0.5622 -0.3732 -0.7573
  879MOL0     H16007   1.798   7.427   9.975 -0.4200 -0.9499 -1.0991
  879MOL0     H16008   1.848   7.674   9.951  1.1414  2.0243  0.6974
  879MOL0     H16009   1.992   7.636   9.856 -0.2304 -1.0173  0.2969
  879MOL0     H16010   2.578   7.265   9.786  0.1951 -1.3595  0.2795
  879MOL0     H16011   2.794   7.394   9.731  1.3206  1.0329 -1.4933
  879MOL0     H16012   3.282   7.433   9.760  3.6486 -0.5536  0.5862
  879MOL0     H16013   3.509   7.477   9.691  1.2583  2.0473 -0.8204
  879MOL0     H16014   5.381   6.971   9.838  0.4207 -1.1129 -1.0280
  879MOL0     H16015   5.585   7.031   9.911  2.0409  1.3833  0.3827
  879MOL0     H16016   5.874   7.377  10.172 -0.8304 -2.3233 -1.1429
  879MOL0     H16017   6.100   7.352  10.238 -2.0462 -1.3953  1.3887
  879MOL0     H16018   6.399   7.225   9.910 -3.3628  1.7141  0.3254
  879MOL0     H16019   6.359   7.067   9.982 -2.5774  0.9690  0.3264
  879MOL0     H16020   6.551   7.257  10.098 -0.2696  1.5983 -5.0435
  879MOL0     H16021   6.501   7.100  10.176  3.1751  0.3723  1.3334
  879MOL0     H16022   6.613   7.115   9.891  0.9051 -2.4537 -0.5293
  879MOL0     H16023   6.584   6.972   9.986  0.7078 -0.3891 -0.0430
  879MOL0     H16024   6.777   7.042  10.152 -0.2559  1.7993  0.5342
  879MOL0     H16025   6.844   7.020   9.990  1.6844 -1.1018  2.3252
  879MOL0     H16026   6.926   7.419  10.053 -2.1005  1.2747  2.3339
  879MOL0     H16027   6.203   7.194   9.849 -0.1758  0.6059 -1.1437
  879MOL0     H16028   5.953   7.202   9.792 -0.9436  1.0422 -1.2260
  880MOL0     O16029   6.605   0.405   8.062  0.8945  0.1666  0.5177
  880MOL0     C16030   6.667   0.432   7.957  0.0934 -0.5352 -0.2331
  880MOL0     O16031   6.613   0.459   7.836  0.5356 -0.1200  0.0319
  880MOL0     C16032   6.483   0.419   7.842 -1.2444 -0.8888  0.4772
  880MOL0     C16033   6.462   0.310   7.772 -0.4176 -0.6297  0.0646
  880MOL0     C16034   6.335   0.266   7.758 -0.0879  0.5193 -0.0214
  880MOL0     C16035   6.223   0.314   7.816  0.2060 -0.3018  0.4403
  880MOL0     O16036   6.104   0.257   7.784  0.8091 -0.4838 -0.4563
  880MOL0     C16037   5.988   0.325   7.837 -0.1624  0.2521  0.1355
  880MOL0     C16038   5.869   0.248   7.786  0.5312 -0.3130  0.3000
  880MOL0     C16039   5.732   0.321   7.819  0.3919  0.0525  0.1092
  880MOL0     C16040   5.617   0.238   7.763  0.3026  0.4988  0.0108
  880MOL0     C16041   5.508   0.234   7.866  0.7139  0.2358 -0.2735
  880MOL0     C16042   5.407   0.352   7.851 -0.6340  1.0749 -0.2462
  880MOL0     C16043   5.305   0.342   7.965 -0.3269  0.6577 -1.0627
  880MOL0     C16044   5.226   0.472   8.004 -0.4000  0.3440  0.6153
  880MOL0     N16045   5.167   0.530   7.877 -0.1096 -0.3439  0.6314
  880MOL0     C16046   5.044   0.497   7.824 -0.0807 -0.5270  0.2404
  880MOL0     C16047   5.042   0.565   7.703 -0.8889 -0.2746  0.8007
  880MOL0     C16048   4.932   0.580   7.595 -0.2631 -0.2364 -0.3027
  880MOL0     C16049   4.802   0.544   7.657  0.6934  0.0618 -0.2554
  880MOL0     C16050   4.678   0.578   7.559  0.3003 -0.6709 -0.8472
  880MOL0     C16051   4.609   0.712   7.603  0.1159 -0.3392  0.2273
  880MOL0     O16052   4.509   0.758   7.508 -0.3351 -0.2762  0.2680
  880MOL0     C16053   4.379   0.725   7.527 -0.1843 -0.6538  1.1571
  880MOL0     C16054   4.289   0.803   7.455  0.1387 -0.1491 -0.6819
  880MOL0     C16055   4.153   0.763   7.459 -0.6114  0.0455  0.4531
  880MOL0     C16056   4.100   0.660   7.541 -0.2136 -0.9553  0.0011
  880MOL0     C16057   3.960   0.623   7.541 -0.5643 -0.7504  0.7725
  880MOL0     O16058   3.873   0.721   7.487 -0.6678  0.4757  0.3037
  880MOL0     C16059   3.741   0.710   7.514  0.9216  0.1019  0.2084
  880MOL0     C16060   3.647   0.740   7.410 -0.2027  0.2786 -0.4566
  880MOL0     C16061   3.508   0.747   7.433  0.3009  0.7200 -0.0337
  880MOL0     C16062   3.460   0.708   7.563 -0.2137 -0.0380  0.2392
  880MOL0     O16063   3.326   0.707   7.570 -0.0016 -0.0834 -0.4802
  880MOL0     C16064   3.277   0.604   7.668  0.9327 -0.3781  0.5535
  880MOL0     C16065   3.128   0.598   7.648 -0.0336 -0.0592  0.5908
  880MOL0     C16066   3.071   0.464   7.711 -0.0438 -0.0172 -0.0750
  880MOL0     C16067   2.921   0.443   7.697 -0.7605 -0.7806 -0.0436
  880MOL0     C16068   2.889   0.389   7.551 -0.5221  0.7650 -0.6936
  880MOL0     C16069   2.745   0.414   7.500 -0.5201  0.0387 -0.0585
  880MOL0     C16070   2.630   0.385   7.601 -0.5257 -0.3412 -0.6963
  880MOL0     C16071   2.493   0.380   7.536 -0.2915 -0.0527 -0.3606
  880MOL0    Cl16072   2.488   0.253   7.411  0.1681 -0.2113 -0.0548
  880MOL0     C16073   3.556   0.684   7.663 -0.0585  0.9499  0.9075
  880MOL0     C16074   3.696   0.698   7.644  0.4390  0.8832  0.4552
  880MOL0     O16075   3.927   0.511   7.577 -0.3431 -0.0288 -0.9021
  880MOL0     C16076   4.191   0.587   7.620 -0.2608  0.4091 -0.4427
  880MOL0     C16077   4.329   0.616   7.605 -0.3279  0.7973  0.4608
  880MOL0     N16078   5.149   0.643   7.697  0.6788 -0.3290  0.1186
  880MOL0     N16079   5.224   0.624   7.796  0.0932  0.2642  0.4917
  880MOL0     C16080   6.251   0.437   7.888  0.6143 -0.3747 -0.3525
  880MOL0     C16081   6.378   0.495   7.898  1.3597 -0.4782  0.6405
  880MOL0     C16082   6.810   0.426   7.976  0.1093 -0.6724 -0.1212
  880MOL0     C16083   6.890   0.496   7.886  0.5805  0.6440 -0.0976
  880MOL0     C16084   7.025   0.512   7.903 -0.1601 -0.5235  0.3924
  880MOL0     C16085   7.094   0.469   8.014 -0.8098 -0.3717  0.4008
  880MOL0     O16086   7.229   0.493   8.014  0.2841  0.4376  0.1287
  880MOL0     C16087   7.306   0.435   8.116  0.5159  0.5012 -0.7619
  880MOL0     C16088   7.453   0.435   8.076 -0.3010  0.9906  0.1075
  880MOL0     C16089   7.509   0.568   8.024 -0.1573  0.2133 -0.0734
  880MOL0     C16090   7.655   0.557   7.991  0.4408  0.1810  0.0603
  880MOL0     C16091   7.697   0.648   7.890  0.7082  0.7983 -0.0544
  880MOL0     C16092   7.724   0.732   7.808  0.1895  0.0703 -0.3308
  880MOL0     C16093   7.013   0.402   8.110  0.3072 -0.5384 -0.1497
  880MOL0     C16094   6.877   0.381   8.092  0.3514 -0.3600 -0.9443
  880MOL0     H16095   6.546   0.260   7.723  2.1826  1.9097  1.6067
  880MOL0     H16096   6.315   0.191   7.681  2.4870 -0.1270 -0.1576
  880MOL0     H16097   5.990   0.425   7.794  1.0617  0.6645  1.1062
  880MOL0     H16098   5.985   0.331   7.947 -0.4361  3.0854  0.0337
  880MOL0     H16099   5.870   0.155   7.843  2.3698  0.1533  1.0834
  880MOL0     H16100   5.883   0.233   7.678 -1.0333  0.1916 -0.0067
  880MOL0     H16101   5.729   0.426   7.789  1.8206 -0.2226 -1.1562
  880MOL0     H16102   5.726   0.326   7.928 -1.1940  2.5958 -0.0195
  880MOL0     H16103   5.584   0.283   7.669 -0.9850  0.8901  0.6189
  880MOL0     H16104   5.639   0.133   7.741 -1.0355  0.0049  0.8982
  880MOL0     H16105   5.552   0.218   7.964 -0.1362  1.6821  0.3728
  880MOL0     H16106   5.448   0.142   7.861 -2.4216  1.8690  2.9707
  880MOL0     H16107   5.356   0.345   7.755 -2.7388  0.6766  0.8229
  880MOL0     H16108   5.457   0.449   7.864 -3.6679  2.8374 -0.7649
  880MOL0     H16109   5.231   0.265   7.939 -1.9664  2.0349 -0.7150
  880MOL0     H16110   5.361   0.310   8.053 -1.7330 -2.0388 -1.0321
  880MOL0     H16111   5.283   0.555   8.049 -1.7489  0.3130  2.5005
  880MOL0     H16112   5.154   0.442   8.081 -0.8098  0.7286  0.3833
  880MOL0     H16113   4.975   0.425   7.866  1.1099 -1.7057  0.2250
  880MOL0     H16114   4.948   0.505   7.517 -0.8945 -2.4643  1.6074
  880MOL0     H16115   4.936   0.678   7.547 -1.6872  0.1762  0.3446
  880MOL0     H16116   4.794   0.607   7.746 -2.3513 -1.1924  0.4620
  880MOL0     H16117   4.806   0.438   7.681  3.4876  0.1191 -0.1743
  880MOL0     H16118   4.723   0.585   7.459 -0.0929 -0.8928 -1.0452
  880MOL0     H16119   4.600   0.501   7.560  0.8861 -1.3299 -2.5939
  880MOL0     H16120   4.691   0.782   7.624  2.4878 -2.8155 -0.2808
  880MOL0     H16121   4.562   0.691   7.700 -0.4494  1.5829  0.4267
  880MOL0     H16122   4.316   0.885   7.390 -2.2724  0.6151 -0.8424
  880MOL0     H16123   4.072   0.807   7.401 -3.3601 -0.6196  3.5181
  880MOL0     H16124   3.688   0.762   7.312  0.4207 -2.0508 -0.7843
  880MOL0     H16125   3.433   0.770   7.358 -0.5447 -4.8666 -1.3497
  880MOL0     H16126   3.291   0.632   7.773 -1.1468  3.1462  0.0508
  880MOL0     H16127   3.312   0.502   7.651  1.5469 -0.5601  2.6855
  880MOL0     H16128   3.102   0.597   7.542 -0.3970  0.3767  0.6702
  880MOL0     H16129   3.075   0.687   7.684 -0.3051  0.4256 -0.9673
  880MOL0     H16130   3.105   0.478   7.814 -0.7338  0.6991  0.0659
  880MOL0     H16131   3.122   0.376   7.672 -0.3369  0.0200 -0.5562
  880MOL0     H16132   2.885   0.372   7.773  1.4744 -2.3403 -0.3524
  880MOL0     H16133   2.877   0.542   7.714  2.5825  0.6476  1.0739
  880MOL0     H16134   2.904   0.281   7.552  2.8265  1.1069 -1.4801
  880MOL0     H16135   2.963   0.436   7.486 -1.5012  0.9336 -1.7056
  880MOL0     H16136   2.739   0.350   7.411  0.5158  1.2183 -1.0256
  880MOL0     H16137   2.748   0.518   7.468 -2.3716 -0.0724 -0.7251
  880MOL0     H16138   2.657   0.284   7.635  0.2306 -0.3866 -1.3780
  880MOL0     H16139   2.630   0.450   7.688 -1.2867 -2.6786  1.1498
  880MOL0     H16140   2.473   0.476   7.488 -1.2202  0.8618  1.7210
  880MOL0     H16141   2.405   0.360   7.598 -0.2496 -2.1183 -0.8853
  880MOL0     H16142   3.514   0.677   7.763 -1.0370  1.9055  0.5789
  880MOL0     H16143   3.769   0.683   7.722  1.7297 -0.1385 -0.8865
  880MOL0     H16144   4.163   0.497   7.674 -0.9379 -1.0430 -3.0464
  880MOL0     H16145   4.401   0.556   7.659 -2.1044 -1.6066  0.3535
  880MOL0     H16146   6.175   0.499   7.933  1.2559  2.6879 -3.0947
  880MOL0     H16147   6.381   0.596   7.938 -1.1501  0.4376 -1.1770
  880MOL0     H16148   6.861   0.539   7.791  1.8089 -0.7853 -1.1720
  880MOL0     H16149   7.082   0.570   7.831 -0.8141  0.7409  0.8762
  880MOL0     H16150   7.275   0.331   8.131 -0.6266  0.3067 -3.7426
  880MOL0     H16151   7.299   0.491   8.210 -0.1308 -0.3760 -0.2680
  880MOL0     H16152   7.509   0.391   8.159  1.6838 -1.4005 -2.3457
  880MOL0     H16153   7.462   0.365   7.992 -3.7070 -1.6041  1.6811
  880MOL0     H16154   7.497   0.646   8.100  1.0835 -2.8113  3.5720
  880MOL0     H16155   7.452   0.588   7.933 -0.2280 -2.0020 -0.5804
  880MOL0     H16156   7.714   0.584   8.079  0.8822  1.2482 -0.5452
  880MOL0     H16157   7.681   0.458   7.952 -2.0332 -0.1075 -1.0627
  880MOL0     H16158   7.764   0.810   7.747  3.2625  0.7071  2.2268
  880MOL0     H16159   7.057   0.352   8.196 -0.6397 -3.2635 -1.1585
  880MOL0     H16160   6.838   0.325   8.176 -0.0707  0.8791 -0.2745
  881MOL0     O16161   3.219  11.220   3.895 -0.2194  0.2797 -0.4136
  881MOL0     C16162   3.293  11.142   3.836  0.4730 -0.5333 -0.6577
  881MOL0     O16163   3.250  11.052   3.735  0.6630  0.1186  0.1031
  881MOL0     C16164   3.117  11.052   3.691 -0.0452  0.9398 -0.1767
  881MOL0     C16165   3.070  11.176   3.636  0.3169  0.6206 -1.4252
  881MOL0     C16166   2.941  11.178   3.595 -0.0238 -0.1693  0.2737
  881MOL0     C16167   2.849  11.072   3.621  0.4054 -0.1366 -0.5010
  881MOL0     O16168   2.721  11.091   3.594 -0.2291 -0.1431 -0.3125
  881MOL0     C16169   2.666  11.009   3.499 -0.4523  0.4311  0.4342
  881MOL0     C16170   2.618  11.099   3.385 -0.7476  0.3145  0.6411
  881MOL0     C16171   2.535  11.023   3.275 -0.8724 -0.2971 -0.3770
  881MOL0     C16172   2.526  11.102   3.147 -1.2436  0.4838  0.5740
  881MOL0     C16173   2.419  11.210   3.160  0.1681  1.0415  0.5618
  881MOL0     C16174   2.400  11.279   3.026  0.1015  0.0397  0.0930
  881MOL0     C16175   2.364  11.188   2.916  0.8561 -0.0900  0.2048
  881MOL0     C16176   2.244  11.090   2.946  0.1680 -0.1483  0.0647
  881MOL0     N16177   2.115  11.155   2.978  0.5724 -0.4894  0.3843
  881MOL0     C16178   2.025  11.189   2.872 -0.1079 -0.7653  0.4425
  881MOL0     C16179   1.906  11.210   2.946 -0.4200 -0.0198  0.4663
  881MOL0     C16180   1.777  11.241   2.879 -0.1433  0.2505  0.1582
  881MOL0     C16181   1.662  11.230   2.977  0.0325  0.2801  0.1122
  881MOL0     C16182   1.533  11.195   2.906 -0.0393 -0.2663  0.0299
  881MOL0     C16183   1.399  11.232   2.991 -0.5222  0.4063 -0.3311
  881MOL0     O16184   1.304  11.208   2.886  0.0447 -0.7809  0.1490
  881MOL0     C16185   1.166  11.243   2.909 -0.3997  0.1598 -0.1852
  881MOL0     C16186   1.076  11.216   2.808  0.2544 -0.1259 -0.5310
  881MOL0     C16187   0.944  11.256   2.820 -0.1176 -0.3254  0.3324
  881MOL0     C16188   0.893  11.310   2.944 -0.0663  0.4933  0.1388
  881MOL0     C16189   0.750  11.340   2.951 -0.0405  0.5711  0.2891
  881MOL0     O16190   0.657  11.289   2.859 -0.8452  0.8640  0.4301
  881MOL0     C16191   0.528  11.334   2.880  0.1863  0.0042 -0.3006
  881MOL0     C16192   0.429  11.247   2.939 -0.4720  0.0550 -0.0953
  881MOL0     C16193   0.295  11.290   2.953  0.1365 -0.4944 -0.7493
  881MOL0     C16194   0.259  11.425   2.930 -0.4239 -0.2378 -0.0961
  881MOL0     O16195   0.126  11.455   2.955 -0.2420  0.3380 -0.5483
  881MOL0     C16196   0.091  11.587   2.932 -0.2416  0.1592 -0.2638
  881MOL0     C16197  -0.058  11.619   2.956  0.2607  0.9883 -0.3617
  881MOL0     C16198  -0.098  11.602   3.105  0.0528 -0.4683  0.5004
  881MOL0     C16199  -0.251  11.607   3.109  0.4967 -0.1117 -0.3492
  881MOL0     C16200  -0.301  11.588   3.258  0.8746 -0.2438  0.1745
  881MOL0     C16201  -0.424  11.677   3.285  0.2413 -0.3326 -0.8415
  881MOL0     C16202  -0.542  11.682   3.193  0.1661  0.5472  0.3638
  881MOL0     C16203  -0.634  11.562   3.196 -0.1473  0.7443  0.1679
  881MOL0    Cl16204  -0.797  11.587   3.134 -0.0766  0.1613  0.2531
  881MOL0     C16205   0.361  11.509   2.882  0.1962  0.1770  0.7497
  881MOL0     C16206   0.492  11.469   2.853  0.8386 -0.7040  0.5366
  881MOL0     O16207   0.718  11.422   3.035 -0.6490 -0.3271  0.4572
  881MOL0     C16208   0.986  11.349   3.037  0.4400  0.4590 -0.2657
  881MOL0     C16209   1.117  11.307   3.027 -0.0787  0.1467  0.8517
  881MOL0     N16210   1.938  11.230   3.080 -0.2042  0.2111  0.4179
  881MOL0     N16211   2.062  11.189   3.097 -0.2891 -0.7892 -0.1428
  881MOL0     C16212   2.892  10.953   3.682 -0.1452  0.0975  0.3784
  881MOL0     C16213   3.029  10.944   3.723 -0.7332 -0.2671  0.1063
  881MOL0     C16214   3.430  11.129   3.873  0.4300 -0.0934  0.0178
  881MOL0     C16215   3.513  11.035   3.801  0.5350  0.9190 -0.6178
  881MOL0     C16216   3.652  11.020   3.851  0.2607 -0.2939 -0.3633
  881MOL0     C16217   3.695  11.095   3.961 -0.9554  0.7416 -0.1791
  881MOL0     O16218   3.816  11.068   4.017 -0.6530  0.1038 -0.0348
  881MOL0     C16219   3.860  11.143   4.130  0.0011  0.3645 -0.8953
  881MOL0     C16220   4.008  11.113   4.174 -0.1093  0.4091  0.4705
  881MOL0     C16221   4.087  11.073   4.046  0.2630 -0.4089  0.0748
  881MOL0     C16222   4.240  11.055   4.075  0.6650 -0.2874  0.5986
  881MOL0     C16223   4.307  11.182   4.045  0.5191  0.6119 -0.1479
  881MOL0     C16224   4.369  11.282   4.022 -0.0926 -0.6684  0.1699
  881MOL0     C16225   3.619  11.198   4.011 -0.6083 -0.2553 -0.4196
  881MOL0     C16226   3.486  11.215   3.962 -0.4696  1.2654 -0.0861
  881MOL0     H16227   3.136  11.262   3.635  2.2347 -0.3963  3.8841
  881MOL0     H16228   2.897  11.274   3.572 -2.7355 -1.4846 -0.4654
  881MOL0     H16229   2.582  10.951   3.540 -1.2847  2.5639  1.9535
  881MOL0     H16230   2.737  10.935   3.461 -1.3691 -1.6064  2.4241
  881MOL0     H16231   2.704  11.149   3.341 -0.0030  0.0266  1.7382
  881MOL0     H16232   2.545  11.168   3.429  0.9341  1.7136  1.3316
  881MOL0     H16233   2.434  10.991   3.305 -0.4281 -0.7327  0.6834
  881MOL0     H16234   2.588  10.928   3.266  0.3895  0.3975 -0.3960
  881MOL0     H16235   2.624  11.148   3.136 -2.4519  3.0763 -0.1590
  881MOL0     H16236   2.509  11.032   3.064 -3.5580  0.4584  1.0066
  881MOL0     H16237   2.450  11.280   3.238 -2.7700  1.2508  1.6920
  881MOL0     H16238   2.331  11.158   3.200  0.6259 -1.4403 -1.3970
  881MOL0     H16239   2.493  11.335   3.014 -1.8876  3.8448  0.7918
  881MOL0     H16240   2.337  11.366   3.045 -0.4508 -0.5894  1.2348
  881MOL0     H16241   2.332  11.253   2.834 -2.5602 -0.0602  1.4056
  881MOL0     H16242   2.453  11.130   2.888  0.4111 -0.1829 -1.0454
  881MOL0     H16243   2.266  11.024   3.030  3.9170 -0.6351 -1.0966
  881MOL0     H16244   2.242  11.042   2.847 -1.7204  2.1225 -1.0974
  881MOL0     H16245   2.044  11.182   2.766  1.2782 -3.9600  0.7902
  881MOL0     H16246   1.758  11.165   2.803  2.9247  0.1569 -0.6345
  881MOL0     H16247   1.778  11.339   2.831 -0.1393 -0.9165 -2.3944
  881MOL0     H16248   1.650  11.328   3.024  2.4138  1.3439 -1.3565
  881MOL0     H16249   1.681  11.149   3.048 -0.1240 -1.1604 -1.4117
  881MOL0     H16250   1.536  11.259   2.818  2.9525  0.0215  0.2455
  881MOL0     H16251   1.523  11.090   2.877  0.4812 -0.0970 -0.7597
  881MOL0     H16252   1.403  11.335   3.025 -0.7954  0.6368 -0.9905
  881MOL0     H16253   1.376  11.165   3.075 -1.2256  1.6612  0.5004
  881MOL0     H16254   1.123  11.167   2.724  0.7660  0.1648 -0.4195
  881MOL0     H16255   0.884  11.237   2.732  0.3663  0.4774 -0.1790
  881MOL0     H16256   0.451  11.144   2.962  0.1394  0.3219  0.5636
  881MOL0     H16257   0.230  11.228   3.014 -0.8088  3.6702  3.0579
  881MOL0     H16258   0.102  11.598   2.823  0.0349  0.2572 -0.2262
  881MOL0     H16259   0.155  11.655   2.988 -0.0107 -0.7075  0.5422
  881MOL0     H16260  -0.099  11.546   2.884 -1.2081  1.4599 -0.0355
  881MOL0     H16261  -0.075  11.722   2.923  1.7445  2.2733  2.5384
  881MOL0     H16262  -0.061  11.690   3.157  1.0953  1.3114 -2.9346
  881MOL0     H16263  -0.064  11.507   3.146  1.0813  0.3426  1.5721
  881MOL0     H16264  -0.283  11.704   3.070  3.3281  1.8030  1.6943
  881MOL0     H16265  -0.292  11.520   3.056  0.5782 -1.0980  1.1276
  881MOL0     H16266  -0.225  11.623   3.329  1.2856  0.2318 -0.4864
  881MOL0     H16267  -0.331  11.484   3.270 -1.6577  0.4188  0.2628
  881MOL0     H16268  -0.382  11.777   3.295 -0.5923 -0.0019 -0.6337
  881MOL0     H16269  -0.460  11.657   3.386  1.6406 -2.0867 -0.6450
  881MOL0     H16270  -0.591  11.779   3.208  1.4118  1.4006 -0.7973
  881MOL0     H16271  -0.516  11.682   3.086  3.4424  3.9516  0.9563
  881MOL0     H16272  -0.650  11.543   3.303 -0.8376  0.0234 -0.0555
  881MOL0     H16273  -0.579  11.476   3.159  0.3228  1.7801 -1.6748
  881MOL0     H16274   0.334  11.612   2.860  2.7871  0.7615 -0.0223
  881MOL0     H16275   0.573  11.536   2.826 -0.3733  0.1868 -1.0908
  881MOL0     H16276   0.947  11.400   3.124  1.1097 -0.0990  0.3758
  881MOL0     H16277   1.173  11.343   3.113 -0.1968 -2.0856  1.9176
  881MOL0     H16278   2.820  10.879   3.717 -0.8863 -0.4803 -2.1355
  881MOL0     H16279   3.067  10.854   3.770  2.3993  1.7081  1.7916
  881MOL0     H16280   3.480  10.965   3.725  0.2510 -0.4457  0.7058
  881MOL0     H16281   3.729  10.953   3.813  0.0660 -1.5734  1.3677
  881MOL0     H16282   3.797  11.119   4.216  0.4749 -0.4749 -0.7653
  881MOL0     H16283   3.849  11.248   4.102  0.0883  0.3697 -0.9136
  881MOL0     H16284   4.052  11.205   4.215 -2.7614  1.7666  0.4764
  881MOL0     H16285   4.011  11.029   4.244 -1.4816  1.1883  1.5233
  881MOL0     H16286   4.066  11.159   3.981 -2.4114 -1.0399 -0.0210
  881MOL0     H16287   4.041  10.987   3.996 -0.9698  1.0298 -1.3958
  881MOL0     H16288   4.260  11.044   4.182  0.4996  2.2531  0.9563
  881MOL0     H16289   4.275  10.974   4.011 -2.6539 -0.0433 -1.7666
  881MOL0     H16290   4.416  11.377   4.007  1.6436 -1.1451  2.1369
  881MOL0     H16291   3.646  11.276   4.082 -1.0896  2.3216 -2.8616
  881MOL0     H16292   3.417  11.288   4.005 -0.9046  1.1767 -0.6195
  882MOL0     O16293  11.180   6.311   4.872 -0.1310  0.3158 -0.3082
  882MOL0     C16294  11.237   6.319   4.757 -0.3706  0.5162 -0.2087
  882MOL0     O16295  11.169   6.346   4.643  0.6953  0.0870 -0.5777
  882MOL0     C16296  11.032   6.310   4.632 -0.4905 -0.7610 -0.1943
  882MOL0     C16297  10.988   6.198   4.567  0.4603  1.0600 -0.7025
  882MOL0     C16298  10.849   6.167   4.566 -1.5353 -0.0584 -0.3517
  882MOL0     C16299  10.755   6.257   4.619  0.2416 -0.2353  0.0734
  882MOL0     O16300  10.617   6.247   4.616  0.1452  0.2270 -0.5540
  882MOL0     C16301  10.556   6.187   4.738 -0.0093 -0.9235  0.6495
  882MOL0     C16302  10.437   6.265   4.797  0.8941 -0.7002 -0.1240
  882MOL0     C16303  10.357   6.212   4.920  0.0118 -0.3681 -0.1918
  882MOL0     C16304  10.378   6.061   4.968 -0.3533 -0.2613  1.0274
  882MOL0     C16305  10.278   6.017   5.076  0.0106  0.0114 -0.0753
  882MOL0     C16306  10.153   5.960   5.014 -0.0956 -0.1827  0.8531
  882MOL0     C16307  10.022   5.991   5.097  0.2021 -0.7853 -0.5046
  882MOL0     C16308  10.017   5.919   5.235 -0.4196 -0.1516 -0.8920
  882MOL0     N16309   9.941   6.001   5.329 -0.6552 -0.6482 -0.4315
  882MOL0     C16310   9.815   5.992   5.377  0.7772 -0.3865 -0.6190
  882MOL0     C16311   9.808   6.092   5.475  0.5429  0.0783 -1.1234
  882MOL0     C16312   9.689   6.129   5.561  0.8144  0.6385  0.3072
  882MOL0     C16313   9.565   6.130   5.471  0.6338 -0.2181 -0.1713
  882MOL0     C16314   9.450   6.169   5.561 -0.3359 -0.7086  0.6494
  882MOL0     C16315   9.332   6.212   5.473  0.0357  0.4581  1.0623
  882MOL0     O16316   9.289   6.098   5.398 -0.4443  0.5128 -0.4106
  882MOL0     C16317   9.226   6.121   5.276 -0.7009  0.3395 -0.3832
  882MOL0     C16318   9.311   6.124   5.168 -1.6979 -0.0666  0.6193
  882MOL0     C16319   9.267   6.122   5.040 -0.6566  0.4358 -0.0975
  882MOL0     C16320   9.123   6.123   5.015 -0.2908  0.1262  0.0033
  882MOL0     C16321   9.070   6.149   4.880 -0.7090  0.1701  0.7699
  882MOL0     O16322   9.150   6.181   4.780  0.4429 -0.3811 -0.5518
  882MOL0     C16323   9.086   6.200   4.654  0.1395  0.5047 -0.2696
  882MOL0     C16324   9.134   6.121   4.550 -0.5390  0.1115 -0.6352
  882MOL0     C16325   9.081   6.150   4.424 -0.3900  0.6743 -0.4434
  882MOL0     C16326   8.979   6.249   4.406  0.4961  1.2119  0.6255
  882MOL0     O16327   8.925   6.244   4.276  0.4801  0.4744  0.1868
  882MOL0     C16328   8.799   6.309   4.255 -0.5406 -0.1794 -0.1994
  882MOL0     C16329   8.762   6.327   4.100  0.0068  0.6252 -0.7128
  882MOL0     C16330   8.855   6.424   4.040  0.2004  0.6305 -0.1646
  882MOL0     C16331   8.833   6.463   3.895 -0.1061  0.3546  0.5464
  882MOL0     C16332   8.951   6.535   3.831 -0.1880 -0.5862  0.1123
  882MOL0     C16333   9.001   6.669   3.908 -0.7058  0.4299  0.6277
  882MOL0     C16334   9.079   6.754   3.799 -0.2821  0.1890  0.4560
  882MOL0     C16335   9.154   6.880   3.851 -0.4752  0.2777  0.5980
  882MOL0    Cl16336   9.047   6.998   3.949 -0.0719 -0.0206 -0.0339
  882MOL0     C16337   8.935   6.326   4.508 -0.5842  0.1239  0.3901
  882MOL0     C16338   8.989   6.297   4.636 -0.9695 -0.3792 -0.7255
  882MOL0     O16339   8.948   6.123   4.866  0.3828  0.0193 -0.7965
  882MOL0     C16340   9.035   6.125   5.131 -0.1447  0.0251  0.3680
  882MOL0     C16341   9.092   6.124   5.261 -0.0362 -0.6135  0.1248
  882MOL0     N16342   9.925   6.162   5.479 -0.2117 -0.0655 -0.1117
  882MOL0     N16343   9.999   6.109   5.386  0.0249  0.3621  0.2498
  882MOL0     C16344  10.806   6.381   4.677  0.8641  0.2710 -0.3085
  882MOL0     C16345  10.946   6.411   4.686 -0.6596  0.2887 -0.4139
  882MOL0     C16346  11.382   6.307   4.763  0.5177  0.1826  0.8385
  882MOL0     C16347  11.473   6.312   4.873  0.7360 -0.3905 -0.5188
  882MOL0     C16348  11.611   6.303   4.861 -0.4621 -0.9518  1.0444
  882MOL0     C16349  11.669   6.267   4.736  0.2501  0.1660  0.2437
  882MOL0     O16350  11.800   6.240   4.714 -0.1088 -0.4790 -0.0070
  882MOL0     C16351  11.897   6.246   4.820  0.4141 -0.4976  0.0752
  882MOL0     C16352  12.035   6.219   4.760  0.5621 -0.4108  0.4377
  882MOL0     C16353  12.156   6.247   4.847  1.7142 -0.6034 -0.5253
  882MOL0     C16354  12.280   6.227   4.754  0.3661 -0.4135 -0.7067
  882MOL0     C16355  12.402   6.280   4.816 -0.1275  0.0160 -0.4839
  882MOL0     C16356  12.497   6.340   4.853 -0.2309  0.1437  0.0491
  882MOL0     C16357  11.580   6.244   4.632  0.9226  0.4745  1.4894
  882MOL0     C16358  11.440   6.269   4.637  0.2704 -0.6247 -1.1049
  882MOL0     H16359  11.051   6.117   4.532  0.3474  1.0781 -0.9558
  882MOL0     H16360  10.815   6.078   4.513 -3.9942  1.1523 -0.9629
  882MOL0     H16361  10.629   6.173   4.818 -2.3401 -1.8712  2.7382
  882MOL0     H16362  10.515   6.090   4.707 -1.8895  0.4840 -1.6131
  882MOL0     H16363  10.373   6.281   4.710 -1.1464 -3.5696  0.6925
  882MOL0     H16364  10.471   6.364   4.829 -1.6879  0.3514 -0.4093
  882MOL0     H16365  10.252   6.216   4.889 -0.9764 -2.6401  2.4271
  882MOL0     H16366  10.369   6.276   5.007 -1.0315 -0.2755 -0.1047
  882MOL0     H16367  10.366   5.995   4.881 -0.0852 -1.2350  1.7113
  882MOL0     H16368  10.480   6.054   5.007 -0.2845 -1.4049  0.6897
  882MOL0     H16369  10.265   6.098   5.149  0.9833 -0.0819  0.2175
  882MOL0     H16370  10.329   5.933   5.125 -1.7948 -0.6962  0.6845
  882MOL0     H16371  10.160   5.851   5.016  0.6340 -0.2142 -0.9639
  882MOL0     H16372  10.142   5.999   4.912  0.4115  0.8339  1.1778
  882MOL0     H16373  10.023   6.095   5.132  3.7816 -1.4793  2.0488
  882MOL0     H16374   9.935   5.961   5.038 -1.5026  0.9028  1.0028
  882MOL0     H16375  10.120   5.906   5.272 -0.8803  1.9346  1.2859
  882MOL0     H16376   9.979   5.816   5.229 -3.0010  0.6163  0.7276
  882MOL0     H16377   9.743   5.911   5.364  0.9088 -0.8888  1.5204
  882MOL0     H16378   9.699   6.227   5.608 -1.4655  0.3038  1.6457
  882MOL0     H16379   9.669   6.059   5.642  1.8103 -1.4239 -1.1446
  882MOL0     H16380   9.542   6.033   5.427 -0.4909  0.1073 -0.3366
  882MOL0     H16381   9.585   6.204   5.393  0.4933  1.4329  1.2947
  882MOL0     H16382   9.439   6.085   5.629 -1.5582 -1.3197 -0.2724
  882MOL0     H16383   9.466   6.266   5.609  1.7373 -0.9254  0.4927
  882MOL0     H16384   9.361   6.298   5.412  0.3846  0.6956  1.5565
  882MOL0     H16385   9.249   6.248   5.535  1.1250 -1.0770  3.5740
  882MOL0     H16386   9.417   6.121   5.190 -1.6078 -0.6567  0.1302
  882MOL0     H16387   9.331   6.120   4.952 -2.4210 -0.3292 -1.4070
  882MOL0     H16388   9.211   6.044   4.557  1.1154  1.7524  0.3274
  882MOL0     H16389   9.113   6.085   4.344 -0.2972  0.2085 -0.0328
  882MOL0     H16390   8.800   6.406   4.307 -0.0056 -1.4383  2.3096
  882MOL0     H16391   8.716   6.255   4.301 -2.2229 -0.5042 -3.3581
  882MOL0     H16392   8.662   6.368   4.084 -0.6064  1.4253  3.7246
  882MOL0     H16393   8.753   6.233   4.045 -1.3624 -1.4223  2.6306
  882MOL0     H16394   8.955   6.381   4.050 -0.4011 -0.8403 -0.1665
  882MOL0     H16395   8.848   6.516   4.099  0.8001  1.8790 -1.9373
  882MOL0     H16396   8.816   6.372   3.837 -0.7550 -0.2273  1.6041
  882MOL0     H16397   8.745   6.529   3.892 -0.7397 -0.5040 -1.0867
  882MOL0     H16398   8.933   6.569   3.729  0.2842 -2.1363 -0.5105
  882MOL0     H16399   9.027   6.456   3.834  1.4312  0.9160  2.4461
  882MOL0     H16400   9.075   6.635   3.981 -0.4275 -2.4370 -0.8387
  882MOL0     H16401   8.922   6.721   3.963 -0.5175  0.2695  1.0587
  882MOL0     H16402   9.155   6.692   3.752  0.7735  1.0502  0.9802
  882MOL0     H16403   9.008   6.789   3.723 -2.1092 -1.4847  1.2931
  882MOL0     H16404   9.209   6.940   3.778 -0.9462  1.6722  1.3472
  882MOL0     H16405   9.224   6.848   3.928  0.8170  1.3631 -0.0965
  882MOL0     H16406   8.879   6.419   4.494 -1.1721 -0.5515 -2.2030
  882MOL0     H16407   8.962   6.351   4.726 -2.2611 -0.9967 -0.7134
  882MOL0     H16408   8.931   6.152   5.117 -0.0526  1.1546  1.6793
  882MOL0     H16409   9.025   6.112   5.345  1.4411 -1.3997  1.2461
  882MOL0     H16410  10.740   6.454   4.723  2.8050  1.0070  1.4839
  882MOL0     H16411  10.973   6.499   4.744  1.6527  0.2909 -1.3802
  882MOL0     H16412  11.431   6.326   4.972  2.0858  0.2561 -0.0012
  882MOL0     H16413  11.663   6.322   4.955  1.5963  1.8337 -0.4981
  882MOL0     H16414  11.863   6.175   4.895  2.2895  0.4298  1.8922
  882MOL0     H16415  11.882   6.340   4.873 -0.4855 -0.4973 -0.1633
  882MOL0     H16416  12.037   6.117   4.718  1.2992 -0.4843  0.6462
  882MOL0     H16417  12.053   6.290   4.679  1.4456  1.5995  2.3186
  882MOL0     H16418  12.149   6.171   4.926 -2.1182  0.0870 -0.0265
  882MOL0     H16419  12.153   6.346   4.893 -0.5324 -0.9913  0.3028
  882MOL0     H16420  12.286   6.119   4.741  4.9865 -0.9427  3.0179
  882MOL0     H16421  12.282   6.283   4.660  0.2121  1.2032  0.2186
  882MOL0     H16422  12.574   6.398   4.899 -1.4341  2.2891 -0.5281
  882MOL0     H16423  11.626   6.213   4.539  0.5135 -1.1423  1.7871
  882MOL0     H16424  11.377   6.253   4.550 -0.6085 -0.2875 -0.5440
  883MOL0     O16425   1.234   0.145   7.239 -0.4036 -0.3140  0.0653
  883MOL0     C16426   1.325   0.226   7.205 -0.0217 -0.0235  0.7769
  883MOL0     O16427   1.316   0.365   7.186 -0.0820  0.5847 -0.1626
  883MOL0     C16428   1.192   0.415   7.196  0.2906  0.2136  0.8186
  883MOL0     C16429   1.130   0.414   7.322  0.6085  0.1199 -0.5884
  883MOL0     C16430   1.002   0.466   7.331  0.2373  0.5689 -0.0726
  883MOL0     C16431   0.940   0.515   7.217 -0.2450 -0.1715 -0.5808
  883MOL0     O16432   0.818   0.575   7.212  0.2282  0.4013 -0.8581
  883MOL0     C16433   0.708   0.501   7.270 -0.3128 -0.6917  0.0489
  883MOL0     C16434   0.591   0.591   7.233 -0.3887  0.0189  0.3640
  883MOL0     C16435   0.463   0.546   7.313  0.6119 -0.7991 -0.3163
  883MOL0     C16436   0.340   0.587   7.247 -0.3321  0.0675 -0.3517
  883MOL0     C16437   0.222   0.551   7.329  0.2589  0.9214  0.4574
  883MOL0     C16438   0.194   0.404   7.338 -0.2056 -0.1764  0.5802
  883MOL0     C16439   0.067   0.367   7.406  0.4241  0.6722  0.6072
  883MOL0     C16440  -0.054   0.378   7.308 -0.1504 -0.5783 -0.1930
  883MOL0     N16441  -0.179   0.347   7.380  0.5477  0.2344  0.0223
  883MOL0     C16442  -0.219   0.224   7.417  0.8025  0.1451  0.8714
  883MOL0     C16443  -0.347   0.233   7.460  1.4940 -0.2109  0.3907
  883MOL0     C16444  -0.438   0.124   7.497  0.6886  0.1529  0.6760
  883MOL0     C16445  -0.594   0.157   7.498  0.4718  0.4657  0.6726
  883MOL0     C16446  -0.629   0.264   7.601 -0.4361 -0.1539  0.2490
  883MOL0     C16447  -0.770   0.241   7.653  0.6396 -0.3260 -0.5660
  883MOL0     O16448  -0.784   0.142   7.754  0.2964 -0.2171  0.6194
  883MOL0     C16449  -0.904   0.151   7.837 -0.9035 -1.0993 -0.7280
  883MOL0     C16450  -0.894   0.122   7.975 -1.0339 -0.5486 -0.1266
  883MOL0     C16451  -1.005   0.141   8.052 -0.6840 -0.5866  0.1875
  883MOL0     C16452  -1.130   0.189   7.999  0.6250 -0.0439  0.2228
  883MOL0     C16453  -1.252   0.182   8.078  0.1007  0.3588  0.0767
  883MOL0     O16454  -1.373   0.148   8.010  0.2151 -0.2233  0.3039
  883MOL0     C16455  -1.484   0.137   8.082  0.4225 -0.2858 -0.4248
  883MOL0     C16456  -1.519   0.019   8.130 -0.7225 -0.4589  0.5867
  883MOL0     C16457  -1.641   0.007   8.196  0.2529 -0.0245  0.0353
  883MOL0     C16458  -1.727   0.113   8.216 -0.6601  0.2802 -0.2383
  883MOL0     O16459  -1.826   0.101   8.316  0.1409 -0.0856  0.0063
  883MOL0     C16460  -1.832   0.210   8.406  0.9791 -0.1852  0.2920
  883MOL0     C16461  -1.962   0.296   8.389 -0.5990  0.1176  0.0873
  883MOL0     C16462  -2.087   0.218   8.422  0.3045  0.2206 -0.4314
  883MOL0     C16463  -2.201   0.310   8.386  0.2147 -0.5109  0.2072
  883MOL0     C16464  -2.336   0.258   8.432 -0.2990 -0.1782  1.0214
  883MOL0     C16465  -2.453   0.344   8.381 -0.8242  0.6944  0.4548
  883MOL0     C16466  -2.579   0.314   8.463  0.6459 -0.4656 -0.2562
  883MOL0     C16467  -2.578   0.369   8.608  0.1567  0.1506  0.3502
  883MOL0    Cl16468  -2.546   0.555   8.610  0.3479 -0.1558 -0.1217
  883MOL0     C16469  -1.683   0.235   8.162 -0.4899  0.0622  0.3671
  883MOL0     C16470  -1.567   0.247   8.092 -0.1338 -1.6307 -0.5095
  883MOL0     O16471  -1.233   0.174   8.194 -0.4980  0.6640  0.4340
  883MOL0     C16472  -1.136   0.202   7.859 -0.8086 -0.1346  0.0017
  883MOL0     C16473  -1.023   0.192   7.781  0.4766 -0.3180 -0.0427
  883MOL0     N16474  -0.385   0.365   7.444 -0.3666 -0.1449 -0.3714
  883MOL0     N16475  -0.283   0.431   7.400  0.2232 -0.7262  0.1560
  883MOL0     C16476   1.001   0.520   7.091  0.4877  0.3340  0.6798
  883MOL0     C16477   1.130   0.464   7.079 -0.1373 -0.5551 -0.5835
  883MOL0     C16478   1.462   0.175   7.211  0.4354  0.3377 -0.2662
  883MOL0     C16479   1.552   0.246   7.293  0.4332  0.5412  0.3975
  883MOL0     C16480   1.676   0.199   7.318  0.0504  0.5187  0.0169
  883MOL0     C16481   1.710   0.068   7.281  1.0471  0.0225  0.3248
  883MOL0     O16482   1.838   0.026   7.320  0.1893 -0.6818 -0.5563
  883MOL0     C16483   1.870  -0.106   7.277  1.3280 -0.2035  0.0225
  883MOL0     C16484   1.988  -0.154   7.350 -0.2079  0.3132  0.1996
  883MOL0     C16485   1.950  -0.202   7.484  0.2258  0.5251  0.5412
  883MOL0     C16486   2.047  -0.298   7.549 -1.0216 -0.4755 -0.7253
  883MOL0     C16487   2.179  -0.232   7.561  0.2411  0.6907 -0.4871
  883MOL0     C16488   2.283  -0.172   7.597 -0.3422 -0.4785 -0.2426
  883MOL0     C16489   1.615  -0.007   7.206  0.8610 -0.1055 -0.7021
  883MOL0     C16490   1.492   0.045   7.162  0.0833 -0.3385 -0.0284
  883MOL0     H16491   1.168   0.360   7.408  1.3251  0.8864 -0.4063
  883MOL0     H16492   0.950   0.457   7.426 -0.0816 -4.2570 -0.4494
  883MOL0     H16493   0.708   0.490   7.379  0.5393  2.1193  0.4291
  883MOL0     H16494   0.700   0.405   7.218 -0.7604  0.0599 -1.3123
  883MOL0     H16495   0.567   0.583   7.126  1.1149  0.5176 -0.0279
  883MOL0     H16496   0.609   0.698   7.248 -1.8148  0.5639 -1.3793
  883MOL0     H16497   0.471   0.587   7.414  3.4567 -0.1056 -0.7540
  883MOL0     H16498   0.454   0.438   7.327  1.4642 -0.4751  4.3327
  883MOL0     H16499   0.351   0.694   7.226  0.1728  0.7388  2.9031
  883MOL0     H16500   0.346   0.530   7.154  1.0284  1.2057 -0.9981
  883MOL0     H16501   0.139   0.604   7.282  0.9291  0.2644 -1.5448
  883MOL0     H16502   0.247   0.592   7.428  4.2467  1.4630 -0.5844
  883MOL0     H16503   0.270   0.368   7.407 -0.3876 -1.1125  0.3062
  883MOL0     H16504   0.211   0.351   7.244 -0.8427  0.4284  0.1123
  883MOL0     H16505   0.086   0.264   7.435 -3.1867  0.3823  2.4947
  883MOL0     H16506   0.045   0.421   7.498  4.2640  0.5833  1.7434
  883MOL0     H16507  -0.032   0.313   7.222  0.2479 -1.1709  0.3454
  883MOL0     H16508  -0.054   0.476   7.261  2.4250 -1.7534 -2.9965
  883MOL0     H16509  -0.150   0.141   7.409 -0.7359 -0.9952 -4.2812
  883MOL0     H16510  -0.417   0.082   7.596 -1.4770 -1.9333  0.3330
  883MOL0     H16511  -0.419   0.049   7.420 -2.2620  0.9824 -0.9916
  883MOL0     H16512  -0.649   0.066   7.524 -0.7915  1.8808  3.4389
  883MOL0     H16513  -0.630   0.179   7.397 -1.0138 -0.2168  1.0334
  883MOL0     H16514  -0.549   0.246   7.673 -1.4692 -1.0442  1.2304
  883MOL0     H16515  -0.615   0.364   7.560 -0.3062 -0.9289 -1.6800
  883MOL0     H16516  -0.839   0.227   7.570  1.1169 -0.7945 -0.8905
  883MOL0     H16517  -0.801   0.332   7.706  2.3266  0.3776 -0.7200
  883MOL0     H16518  -0.800   0.109   8.027  1.1519  0.5437 -3.4749
  883MOL0     H16519  -0.987   0.134   8.159  1.8306 -1.5885 -0.2357
  883MOL0     H16520  -1.444  -0.059   8.122  0.3995  0.7179 -1.5549
  883MOL0     H16521  -1.673  -0.091   8.228  2.0838 -1.4411 -2.1783
  883MOL0     H16522  -1.737   0.261   8.389  0.0213  1.8827  0.7714
  883MOL0     H16523  -1.820   0.182   8.511  0.8521  1.3262  0.7279
  883MOL0     H16524  -1.965   0.335   8.286 -0.2285 -1.1328 -0.4084
  883MOL0     H16525  -1.953   0.377   8.462  2.9718  0.8268 -0.9282
  883MOL0     H16526  -2.086   0.209   8.531  1.8580  0.9276 -0.3612
  883MOL0     H16527  -2.096   0.128   8.360 -1.9257  0.6518 -0.8171
  883MOL0     H16528  -2.180   0.412   8.420  0.7906 -0.1406 -1.1762
  883MOL0     H16529  -2.188   0.321   8.278 -0.8707 -0.0863  0.1024
  883MOL0     H16530  -2.337   0.271   8.540 -1.6268 -2.0055  1.2706
  883MOL0     H16531  -2.352   0.154   8.404  0.3095 -0.1781  0.6475
  883MOL0     H16532  -2.456   0.340   8.272  1.5706  0.6991  0.3237
  883MOL0     H16533  -2.432   0.449   8.404 -0.8092  0.3314  2.2072
  883MOL0     H16534  -2.663   0.360   8.411  1.1678  1.2353  0.3453
  883MOL0     H16535  -2.606   0.208   8.457  2.2521 -0.9079 -0.1157
  883MOL0     H16536  -2.494   0.328   8.665 -0.1624  0.6215  1.1845
  883MOL0     H16537  -2.669   0.342   8.663  0.2722  0.0487  0.4928
  883MOL0     H16538  -1.750   0.318   8.180 -1.4061 -1.1159  2.8288
  883MOL0     H16539  -1.526   0.341   8.057  1.7583 -2.9445 -2.0933
  883MOL0     H16540  -1.237   0.217   7.821  0.0118  3.1580 -1.2014
  883MOL0     H16541  -1.041   0.212   7.676 -1.6112 -1.3935  0.0701
  883MOL0     H16542   0.957   0.545   6.995 -0.9898 -5.1190 -0.4215
  883MOL0     H16543   1.190   0.472   6.989 -0.5737 -1.1363 -0.9320
  883MOL0     H16544   1.523   0.343   7.329 -0.5031  1.0650 -1.6058
  883MOL0     H16545   1.756   0.253   7.367  1.6529  1.8184 -3.7060
  883MOL0     H16546   1.899  -0.097   7.172  1.4412 -3.6453 -0.3583
  883MOL0     H16547   1.785  -0.175   7.282  1.7526 -0.6363  2.0249
  883MOL0     H16548   2.036  -0.235   7.295  0.0863  1.7998 -1.8413
  883MOL0     H16549   2.053  -0.067   7.353 -0.4594  0.5525 -0.8271
  883MOL0     H16550   1.854  -0.254   7.485 -0.2572  1.3582 -0.6040
  883MOL0     H16551   1.931  -0.117   7.551 -0.7056  0.7816 -0.0350
  883MOL0     H16552   2.022  -0.329   7.650  0.5882  2.0053  0.5537
  883MOL0     H16553   2.062  -0.388   7.489  0.1538  0.7019 -2.2935
  883MOL0     H16554   2.368  -0.110   7.617 -0.5647  0.1781 -1.2749
  883MOL0     H16555   1.626  -0.112   7.185 -0.5213 -0.8448  1.8440
  883MOL0     H16556   1.419  -0.023   7.120 -1.0214  2.0899 -2.3804
  884MOL0     O16557   9.800  11.164   5.691 -0.3288  0.2297 -0.0538
  884MOL0     C16558   9.857  11.246   5.769  0.2461 -0.6467  0.6220
  884MOL0     O16559   9.797  11.315   5.872  0.2728 -0.9426  0.2670
  884MOL0     C16560   9.666  11.312   5.921 -0.6879 -0.1506  0.3350
  884MOL0     C16561   9.625  11.333   6.054  0.7100  0.3173  0.2643
  884MOL0     C16562   9.493  11.317   6.095 -0.2797  0.4239 -1.0053
  884MOL0     C16563   9.396  11.266   6.007  0.0505  0.0358 -0.1323
  884MOL0     O16564   9.265  11.249   6.053 -0.1858 -0.3704  0.1136
  884MOL0     C16565   9.170  11.257   5.958  1.0814  1.1521  0.3247
  884MOL0     C16566   9.039  11.252   6.043  0.0042  0.0041  0.3820
  884MOL0     C16567   8.911  11.304   5.976  0.2646 -0.1826  0.4442
  884MOL0     C16568   8.810  11.363   6.068  0.3580 -0.4975 -0.8880
  884MOL0     C16569   8.737  11.255   6.150 -0.1033 -0.4637  0.4574
  884MOL0     C16570   8.600  11.226   6.088 -0.8993  0.1750  0.2894
  884MOL0     C16571   8.544  11.139   6.201  0.5438 -0.0730  0.0473
  884MOL0     C16572   8.418  11.075   6.139 -0.0779 -0.3615 -0.3324
  884MOL0     N16573   8.342  10.985   6.224  0.0762  0.1188 -0.2873
  884MOL0     C16574   8.305  10.854   6.204  0.2402 -0.6606  0.0802
  884MOL0     C16575   8.246  10.820   6.322 -0.6100  0.6962  0.8355
  884MOL0     C16576   8.215  10.680   6.361  0.4452  0.3713 -0.2082
  884MOL0     C16577   8.062  10.664   6.371 -1.1625 -0.3802  0.1157
  884MOL0     C16578   8.029  10.519   6.344 -0.3752 -0.2567 -0.1839
  884MOL0     C16579   8.034  10.472   6.197 -0.9349  0.4048 -0.1800
  884MOL0     O16580   7.961  10.558   6.112  0.2713  0.0065 -0.0725
  884MOL0     C16581   7.818  10.549   6.133 -0.3608 -0.0434 -0.6419
  884MOL0     C16582   7.747  10.436   6.083 -0.2884  0.6581  0.3880
  884MOL0     C16583   7.608  10.425   6.111 -0.6434  0.5104  0.9119
  884MOL0     C16584   7.539  10.536   6.177 -0.8290  0.6886 -0.3133
  884MOL0     C16585   7.392  10.528   6.193 -1.0733 -0.8679 -0.3460
  884MOL0     O16586   7.334  10.407   6.168  0.4066  0.0020  0.5073
  884MOL0     C16587   7.203  10.382   6.184 -0.4169  0.5927  0.1436
  884MOL0     C16588   7.148  10.288   6.094 -0.1639  0.0873  0.5967
  884MOL0     C16589   7.022  10.247   6.099  0.5165 -0.2847  0.0185
  884MOL0     C16590   6.930  10.305   6.198 -0.2798  0.2488  0.2812
  884MOL0     O16591   6.796  10.272   6.188  0.3522  0.5286  0.0982
  884MOL0     C16592   6.717  10.305   6.302 -0.4295 -1.0296  0.4654
  884MOL0     C16593   6.609  10.197   6.307  0.4079 -0.2337 -0.4653
  884MOL0     C16594   6.655  10.060   6.337 -0.1405  0.2253  0.5458
  884MOL0     C16595   6.720  10.042   6.476 -0.7469 -0.0518  0.0128
  884MOL0     C16596   6.687   9.912   6.547 -0.4206 -0.5374  0.2460
  884MOL0     C16597   6.750   9.901   6.684 -1.3566  0.9985  0.3595
  884MOL0     C16598   6.905   9.875   6.676 -0.6142 -0.7459  0.9825
  884MOL0     C16599   6.984   9.848   6.796  0.2553 -0.2017 -0.7656
  884MOL0    Cl16600   7.030  10.007   6.862 -0.3327 -0.4511  0.2403
  884MOL0     C16601   6.984  10.401   6.289  0.6705 -0.2882  0.4364
  884MOL0     C16602   7.118  10.435   6.274  0.4339  0.1453 -0.0873
  884MOL0     O16603   7.335  10.628   6.220 -0.1322  0.4108  0.5868
  884MOL0     C16604   7.616  10.651   6.215  0.0973  0.3096  0.1143
  884MOL0     C16605   7.748  10.649   6.200 -0.4090 -0.2808  1.0492
  884MOL0     N16606   8.261  10.922   6.414  0.0894  0.4515  0.5592
  884MOL0     N16607   8.312  11.022   6.353  0.7775 -0.2820  0.2548
  884MOL0     C16608   9.435  11.245   5.875  0.0682 -0.4406  0.1938
  884MOL0     C16609   9.567  11.275   5.830  0.1176  1.2552  0.1329
  884MOL0     C16610   9.996  11.283   5.739 -0.3786 -0.0860 -0.0247
  884MOL0     C16611  10.047  11.389   5.806 -0.5115  0.0394  1.0809
  884MOL0     C16612  10.186  11.410   5.794  0.4518 -0.3386  0.4090
  884MOL0     C16613  10.267  11.346   5.699  1.5348 -0.0778  0.2613
  884MOL0     O16614  10.400  11.366   5.681  0.6041  0.9658  0.5053
  884MOL0     C16615  10.469  11.480   5.724 -0.4142 -0.1305  0.0750
  884MOL0     C16616  10.612  11.473   5.690 -0.4984  0.3941  0.4309
  884MOL0     C16617  10.689  11.379   5.783  0.9028 -0.0767  0.4385
  884MOL0     C16618  10.830  11.422   5.822 -0.6153 -0.3132  0.9386
  884MOL0     C16619  10.947  11.421   5.723 -0.0610  0.2479 -0.3515
  884MOL0     C16620  11.041  11.409   5.650  0.1875 -0.5442  0.0268
  884MOL0     C16621  10.200  11.240   5.631 -0.7743 -0.4993 -0.2311
  884MOL0     C16622  10.068  11.214   5.645  0.0085 -0.2186  0.0657
  884MOL0     H16623   9.705  11.360   6.123  1.1587  1.8124 -0.7822
  884MOL0     H16624   9.459  11.329   6.198  1.8589  1.3412 -0.3598
  884MOL0     H16625   9.182  11.169   5.895  2.8761  1.7409 -0.2065
  884MOL0     H16626   9.167  11.343   5.891  1.1015 -0.1537 -1.4279
  884MOL0     H16627   9.048  11.308   6.137 -1.9275 -0.6901  1.0426
  884MOL0     H16628   9.028  11.150   6.082  2.1881 -0.2492  0.4340
  884MOL0     H16629   8.855  11.224   5.926  0.1091  0.1721  0.0477
  884MOL0     H16630   8.934  11.379   5.899  2.6033  0.0471  1.2835
  884MOL0     H16631   8.854  11.436   6.136 -2.0470 -0.1145  0.3940
  884MOL0     H16632   8.738  11.418   6.006  0.6152 -1.4268 -2.0509
  884MOL0     H16633   8.737  11.289   6.254 -0.2680  1.2461 -0.0769
  884MOL0     H16634   8.795  11.162   6.150  1.1316  0.2688  0.8720
  884MOL0     H16635   8.615  11.170   5.995 -0.4304 -0.0093  0.4742
  884MOL0     H16636   8.538  11.315   6.073 -0.6987  0.2147 -0.3224
  884MOL0     H16637   8.620  11.067   6.231 -0.0814 -0.4545  0.7251
  884MOL0     H16638   8.519  11.203   6.286  1.0941  1.0564 -0.6172
  884MOL0     H16639   8.434  11.022   6.045  0.3749  0.4852 -0.7412
  884MOL0     H16640   8.355  11.159   6.109  1.7798  0.6997 -1.4125
  884MOL0     H16641   8.327  10.795   6.116  2.1925  0.6394 -0.3636
  884MOL0     H16642   8.258  10.645   6.455  0.6476 -3.1662 -1.4943
  884MOL0     H16643   8.254  10.618   6.280 -1.3616 -1.0227 -0.0772
  884MOL0     H16644   8.021  10.730   6.295  1.1781 -0.9722 -1.7845
  884MOL0     H16645   8.033  10.690   6.473  0.0204  0.9715  0.1347
  884MOL0     H16646   8.094  10.458   6.407  0.9000  0.1454 -1.0788
  884MOL0     H16647   7.929  10.498   6.384  0.2334  0.8729  2.0774
  884MOL0     H16648   8.002  10.369   6.180  0.9593 -0.1174 -0.8543
  884MOL0     H16649   8.140  10.479   6.168 -1.4046  2.3621 -1.6404
  884MOL0     H16650   7.801  10.355   6.034 -1.4759 -1.2375  2.0467
  884MOL0     H16651   7.546  10.340   6.086 -1.9825  0.9407  2.5791
  884MOL0     H16652   7.217  10.251   6.019  2.9918  2.0796  2.2981
  884MOL0     H16653   6.977  10.184   6.023 -4.6083  2.1782  0.5516
  884MOL0     H16654   6.679  10.405   6.280 -1.9365 -1.3378  1.4960
  884MOL0     H16655   6.773  10.305   6.396 -0.9001  1.4564  0.8090
  884MOL0     H16656   6.555  10.194   6.212  0.5577 -0.8154 -0.5362
  884MOL0     H16657   6.544  10.223   6.391  1.0095 -2.0457  0.5980
  884MOL0     H16658   6.722  10.027   6.258 -1.5559  0.1067 -0.6547
  884MOL0     H16659   6.568   9.995   6.332 -1.3841  1.9307 -2.2566
  884MOL0     H16660   6.827  10.037   6.454 -0.8522 -1.3447 -0.2950
  884MOL0     H16661   6.708  10.131   6.538  1.8369  0.5019 -0.1707
  884MOL0     H16662   6.724   9.830   6.486 -1.3659 -1.0013  0.2738
  884MOL0     H16663   6.580   9.889   6.559 -0.6203 -0.2289 -0.8772
  884MOL0     H16664   6.718   9.810   6.736  1.3566 -0.7553 -0.8106
  884MOL0     H16665   6.722   9.979   6.756  0.7438  0.2635  2.0627
  884MOL0     H16666   6.927   9.808   6.593 -3.8898 -0.9543  0.1270
  884MOL0     H16667   6.943   9.975   6.652 -2.3296 -0.0838  0.8691
  884MOL0     H16668   7.078   9.799   6.771  1.1714  2.2848 -2.6342
  884MOL0     H16669   6.931   9.788   6.870  0.1978  2.2599  1.3357
  884MOL0     H16670   6.922  10.446   6.366  1.2339  0.0342  0.7074
  884MOL0     H16671   7.163  10.510   6.338  2.9485 -2.1489  0.9963
  884MOL0     H16672   7.570  10.733   6.271 -2.0090 -0.7101 -0.0145
  884MOL0     H16673   7.802  10.740   6.226 -0.2958 -0.3093  0.9189
  884MOL0     H16674   9.370  11.202   5.799 -0.0744 -1.7220  1.0104
  884MOL0     H16675   9.592  11.244   5.729 -2.8873 -0.8398 -0.1198
  884MOL0     H16676   9.990  11.452   5.873 -2.5549  1.5084 -1.8108
  884MOL0     H16677  10.213  11.492   5.860 -3.6751  0.1244  1.8246
  884MOL0     H16678  10.449  11.488   5.831  0.1318 -0.3258  0.1972
  884MOL0     H16679  10.431  11.573   5.681  0.9265 -0.2504 -1.4625
  884MOL0     H16680  10.607  11.430   5.589 -1.8289 -4.8177  2.3575
  884MOL0     H16681  10.658  11.572   5.682 -0.2131  0.2167 -0.2091
  884MOL0     H16682  10.690  11.282   5.732  2.2285  0.1393  0.0063
  884MOL0     H16683  10.636  11.367   5.877 -0.5898 -0.7325 -0.4532
  884MOL0     H16684  10.829  11.528   5.851 -0.1493 -0.9054  3.3179
  884MOL0     H16685  10.865  11.362   5.907  0.5701 -0.4899  0.3504
  884MOL0     H16686  11.132  11.390   5.597  1.0327  0.0766  1.1950
  884MOL0     H16687  10.270  11.183   5.571  0.5936  3.4510 -2.7920
  884MOL0     H16688  10.029  11.126   5.594  1.4920  1.0594 -3.6815
  885MOL0     O16689   0.122  10.089   6.427  0.6831  0.4617 -0.1354
  885MOL0     C16690   0.067   9.980   6.418  0.0617 -0.3367 -0.4261
  885MOL0     O16691   0.134   9.864   6.391  0.9469 -0.3895  0.1376
  885MOL0     C16692   0.271   9.862   6.388  0.4081 -0.0565  0.4470
  885MOL0     C16693   0.337   9.774   6.466 -1.2289  0.0847  1.0734
  885MOL0     C16694   0.473   9.756   6.444  0.1649  0.6468 -0.4349
  885MOL0     C16695   0.555   9.838   6.364 -0.0742 -0.2374  0.0602
  885MOL0     O16696   0.690   9.827   6.359  0.2876  0.3639 -0.7927
  885MOL0     C16697   0.755   9.944   6.316  0.7899  0.2045  0.1848
  885MOL0     C16698   0.909   9.924   6.334  0.6986  0.9804  0.6114
  885MOL0     C16699   0.945   9.884   6.476 -0.0517  0.1904 -0.1185
  885MOL0     C16700   0.883   9.978   6.581 -0.3297 -0.3150  0.7570
  885MOL0     C16701   0.935   9.955   6.722 -0.3369  0.0456 -0.1091
  885MOL0     C16702   0.837   9.870   6.806 -0.8456  0.4689  0.0910
  885MOL0     C16703   0.806   9.939   6.939 -0.0941  0.7194 -0.6495
  885MOL0     C16704   0.754   9.819   7.033 -0.4921  0.0692 -0.3833
  885MOL0     N16705   0.619   9.772   6.996 -1.1878  0.1989  0.2425
  885MOL0     C16706   0.498   9.830   7.034  0.4581  1.2052  0.1118
  885MOL0     C16707   0.401   9.745   6.992  0.8679 -0.0994  0.3933
  885MOL0     C16708   0.253   9.785   7.003 -0.8930  0.1567 -0.6028
  885MOL0     C16709   0.214   9.921   6.942 -0.5629 -0.5784  0.1325
  885MOL0     C16710   0.284   9.942   6.799 -0.0578 -0.0369  0.7210
  885MOL0     C16711   0.233  10.079   6.746  0.5711  0.3399 -0.1932
  885MOL0     O16712   0.249  10.192   6.833 -0.0994  0.0679 -0.3075
  885MOL0     C16713   0.379  10.241   6.853  0.1148 -0.2129  0.6921
  885MOL0     C16714   0.499  10.208   6.793  0.6493  0.9928 -0.2204
  885MOL0     C16715   0.607  10.287   6.810 -0.2780  0.3411 -0.1330
  885MOL0     C16716   0.613  10.402   6.897  0.0326  0.3753  0.4882
  885MOL0     C16717   0.741  10.483   6.917  0.1380  0.3407 -0.4616
  885MOL0     O16718   0.853  10.441   6.851  0.0748 -0.4567 -0.4436
  885MOL0     C16719   0.972  10.513   6.875  0.0473  0.1184  0.7646
  885MOL0     C16720   1.026  10.558   6.760 -0.2894  0.4863  0.6779
  885MOL0     C16721   1.160  10.618   6.758  0.4293 -0.1285  1.2624
  885MOL0     C16722   1.233  10.621   6.877 -0.1996  0.7462 -0.3063
  885MOL0     O16723   1.369  10.653   6.881 -0.0939 -0.2503  0.5276
  885MOL0     C16724   1.445  10.642   6.759  0.0596 -0.5595  0.2653
  885MOL0     C16725   1.592  10.679   6.785 -0.1041 -0.6936 -0.0867
  885MOL0     C16726   1.615  10.826   6.825  0.4804  0.0679  0.4956
  885MOL0     C16727   1.763  10.870   6.812  0.1884  0.3475 -0.0333
  885MOL0     C16728   1.784  11.007   6.887 -0.3959 -0.2406 -0.0621
  885MOL0     C16729   1.677  11.108   6.856 -0.7749 -0.9928  0.9527
  885MOL0     C16730   1.666  11.157   6.712  0.8729  0.3275  0.1178
  885MOL0     C16731   1.588  11.287   6.695  0.3409  0.0783  0.5756
  885MOL0    Cl16732   1.583  11.344   6.522 -0.6048 -0.5038 -0.3817
  885MOL0     C16733   1.171  10.576   6.990  0.4562  0.0185  0.5577
  885MOL0     C16734   1.046  10.514   6.991 -0.0064 -0.4359  0.6729
  885MOL0     O16735   0.733  10.577   6.991  0.1022 -0.3925  0.1453
  885MOL0     C16736   0.498  10.430   6.967  0.5229  0.2082  0.4704
  885MOL0     C16737   0.382  10.350   6.947  0.0105 -0.3444  0.7563
  885MOL0     N16738   0.455   9.626   6.945  0.2224  0.4250  0.0397
  885MOL0     N16739   0.580   9.652   6.951  0.1067  0.2984  0.8256
  885MOL0     C16740   0.482   9.941   6.301  0.0391  0.6382  0.0336
  885MOL0     C16741   0.347   9.940   6.303  0.2887  0.9869 -0.2390
  885MOL0     C16742  -0.079   9.972   6.433 -0.5751 -0.5759 -0.3717
  885MOL0     C16743  -0.137   9.860   6.493  0.0364  0.5151  0.1260
  885MOL0     C16744  -0.277   9.852   6.498  0.4410  0.7283  0.1345
  885MOL0     C16745  -0.355   9.964   6.473  0.1689 -0.1340  1.3760
  885MOL0     O16746  -0.490   9.959   6.481 -0.5726 -0.2935  0.0002
  885MOL0     C16747  -0.529   9.995   6.613  0.3494  0.1244 -0.3181
  885MOL0     C16748  -0.673  10.039   6.599  0.4704  0.3163 -0.9025
  885MOL0     C16749  -0.762   9.920   6.575 -0.0087 -0.2066 -0.8708
  885MOL0     C16750  -0.913   9.946   6.606  0.1114  0.0495 -0.6799
  885MOL0     C16751  -0.951   9.945   6.745  0.0441 -0.1891  0.9291
  885MOL0     C16752  -0.980   9.944   6.861  0.0522 -0.5807 -0.2598
  885MOL0     C16753  -0.288  10.076   6.415 -0.3358 -0.0779 -0.9946
  885MOL0     C16754  -0.157  10.080   6.390 -1.5679  0.8303 -0.9158
  885MOL0     H16755   0.275   9.708   6.526 -2.7146  0.0075 -0.4752
  885MOL0     H16756   0.532   9.692   6.508  0.3359  1.8959  0.7108
  885MOL0     H16757   0.731  10.034   6.374  0.7057  1.1409 -1.2618
  885MOL0     H16758   0.735   9.972   6.212 -0.2298 -1.8999 -0.2392
  885MOL0     H16759   0.956  10.016   6.297  2.4120  0.4384  1.3474
  885MOL0     H16760   0.953   9.854   6.263 -0.1853 -0.9191  1.8405
  885MOL0     H16761   1.053   9.895   6.481 -0.2187  1.4089  1.6842
  885MOL0     H16762   0.918   9.782   6.503 -2.0837  0.6753 -0.1389
  885MOL0     H16763   0.908  10.083   6.560  1.6443 -1.0062 -0.7122
  885MOL0     H16764   0.774   9.976   6.574 -0.3258  0.9366  0.0826
  885MOL0     H16765   0.954  10.052   6.767  1.0085  0.2211 -0.9923
  885MOL0     H16766   1.032   9.903   6.723  0.2774  1.1529  1.1301
  885MOL0     H16767   0.882   9.772   6.818 -2.0153 -0.5246 -2.7838
  885MOL0     H16768   0.751   9.854   6.741  0.0884 -1.6497 -0.7092
  885MOL0     H16769   0.898   9.981   6.981  0.6738 -0.2606 -1.3101
  885MOL0     H16770   0.733  10.020   6.925  0.6514  1.1502 -2.2512
  885MOL0     H16771   0.754   9.857   7.136 -0.6233  0.4190 -0.5107
  885MOL0     H16772   0.815   9.729   7.032 -0.1863  0.2762 -0.9668
  885MOL0     H16773   0.474   9.927   7.075 -0.6564  0.9174  0.1686
  885MOL0     H16774   0.226   9.800   7.108  0.5752  0.7202 -0.2902
  885MOL0     H16775   0.187   9.703   6.974 -1.1322  0.1724 -0.1116
  885MOL0     H16776   0.241   9.995   7.017 -1.4258 -1.8614  1.7648
  885MOL0     H16777   0.106   9.928   6.928 -0.4419  1.6547  0.0349
  885MOL0     H16778   0.393   9.948   6.802 -0.1260  2.7713  0.1840
  885MOL0     H16779   0.257   9.860   6.731  0.1790  0.0310  0.5426
  885MOL0     H16780   0.130  10.072   6.709  0.4910  2.6403 -0.5827
  885MOL0     H16781   0.291  10.096   6.655  1.6626  2.2289  0.7941
  885MOL0     H16782   0.507  10.135   6.713  2.0939  1.6827 -0.7460
  885MOL0     H16783   0.691  10.251   6.752 -0.0995 -2.6110  1.7157
  885MOL0     H16784   0.963  10.558   6.671  1.0761  2.1975 -0.3532
  885MOL0     H16785   1.194  10.662   6.665 -0.8336  0.4645  1.0629
  885MOL0     H16786   1.401  10.709   6.685  2.3724  0.5150 -0.2353
  885MOL0     H16787   1.425  10.540   6.723 -2.5892  0.2787 -0.8552
  885MOL0     H16788   1.655  10.659   6.698 -0.5610 -0.9810 -0.3551
  885MOL0     H16789   1.635  10.618   6.866  2.2366 -0.8246 -1.3410
  885MOL0     H16790   1.576  10.850   6.924 -0.8385 -1.4090  0.3754
  885MOL0     H16791   1.563  10.893   6.756  0.2800 -0.8609 -0.2801
  885MOL0     H16792   1.828  10.795   6.858 -1.4552  0.9782  3.7175
  885MOL0     H16793   1.792  10.887   6.708  1.2029 -1.9040 -0.1824
  885MOL0     H16794   1.882  11.042   6.854 -0.3758 -1.1807 -1.0597
  885MOL0     H16795   1.789  10.992   6.995 -1.5041  1.7515  0.3174
  885MOL0     H16796   1.703  11.204   6.900  3.7496 -0.9141 -1.2864
  885MOL0     H16797   1.581  11.085   6.903 -1.7156  1.0923  0.1901
  885MOL0     H16798   1.768  11.178   6.676 -0.3520  3.1243 -2.1585
  885MOL0     H16799   1.629  11.083   6.640 -0.4962  2.1955 -1.2047
  885MOL0     H16800   1.630  11.368   6.756  2.3471 -0.0911 -0.4939
  885MOL0     H16801   1.484  11.286   6.727 -1.3686  1.0872 -4.1307
  885MOL0     H16802   1.207  10.575   7.092  1.5019  1.7506  0.2409
  885MOL0     H16803   1.000  10.465   7.076  1.7009 -0.2197  1.7691
  885MOL0     H16804   0.498  10.525   7.019  0.2407  0.7598 -0.4994
  885MOL0     H16805   0.292  10.389   6.993 -0.3257 -0.9557  0.6259
  885MOL0     H16806   0.522  10.011   6.228 -3.4673 -0.1790 -2.9680
  885MOL0     H16807   0.296  10.004   6.231  1.4328  0.6932 -1.3554
  885MOL0     H16808  -0.071   9.780   6.525 -0.3027 -0.3402 -1.2470
  885MOL0     H16809  -0.324   9.762   6.536  1.4829 -0.0600 -0.3994
  885MOL0     H16810  -0.478  10.086   6.645  0.4388 -0.3237  0.8346
  885MOL0     H16811  -0.516   9.912   6.683 -0.0368 -0.1531 -0.5694
  885MOL0     H16812  -0.709  10.092   6.688  0.2959  0.0159 -0.7911
  885MOL0     H16813  -0.674  10.111   6.518  2.6695  0.6867 -0.6776
  885MOL0     H16814  -0.726   9.827   6.620  1.9723  1.4032  1.0953
  885MOL0     H16815  -0.768   9.908   6.466 -1.8387  0.9320 -0.9458
  885MOL0     H16816  -0.926  10.048   6.571 -2.1792 -0.0644 -0.2625
  885MOL0     H16817  -0.961   9.866   6.548  2.3625 -0.9488 -1.2925
  885MOL0     H16818  -1.027   9.943   6.957 -0.7067  2.2487 -0.5054
  885MOL0     H16819  -0.345  10.163   6.385 -2.6125 -1.9117 -2.2855
  885MOL0     H16820  -0.115  10.164   6.336  2.2500  0.6065  1.3952
  886MOL0     O16821   5.502  10.238   0.461  0.1551  0.4932 -0.3926
  886MOL0     C16822   5.597  10.166   0.505  0.9452  0.8463  0.2177
  886MOL0     O16823   5.655  10.178   0.635  0.4155 -0.6316  0.6140
  886MOL0     C16824   5.578  10.245   0.717 -1.0241 -0.4483 -0.1800
  886MOL0     C16825   5.594  10.383   0.722 -0.9233  0.2733  0.6302
  886MOL0     C16826   5.530  10.457   0.820  0.0498 -0.5649  0.4082
  886MOL0     C16827   5.460  10.400   0.923 -1.0348 -0.2242  0.0225
  886MOL0     O16828   5.399  10.467   1.019 -0.9000  0.2433 -1.0888
  886MOL0     C16829   5.284  10.543   0.971 -1.4507 -1.3116  0.1648
  886MOL0     C16830   5.248  10.656   1.080  0.9934  0.4228 -0.3680
  886MOL0     C16831   5.110  10.714   1.059 -0.1862 -0.7746  1.0158
  886MOL0     C16832   4.994  10.628   1.099 -0.4499  0.6395  1.1413
  886MOL0     C16833   4.865  10.703   1.071  0.3238 -0.3220 -0.4494
  886MOL0     C16834   4.731  10.622   1.077  0.2934 -0.1718 -0.0138
  886MOL0     C16835   4.620  10.715   1.037 -0.7502 -0.0494 -0.0854
  886MOL0     C16836   4.478  10.649   1.012  0.4241  0.6578  0.2558
  886MOL0     N16837   4.367  10.744   0.983  0.3120 -0.2331  0.2768
  886MOL0     C16838   4.322  10.789   0.858 -0.2424 -0.0096  0.0868
  886MOL0     C16839   4.196  10.822   0.883 -0.0433 -0.4317  0.1464
  886MOL0     C16840   4.108  10.879   0.789  0.1382 -0.0461  1.0755
  886MOL0     C16841   4.001  10.781   0.733 -0.9550 -0.2483 -0.6258
  886MOL0     C16842   3.865  10.789   0.796  0.0835 -0.2496 -0.5733
  886MOL0     C16843   3.759  10.726   0.708  0.0546  0.4193 -0.1424
  886MOL0     O16844   3.770  10.584   0.695  0.1448  0.5975 -0.2423
  886MOL0     C16845   3.654  10.519   0.648  0.0032 -0.3046 -0.0217
  886MOL0     C16846   3.535  10.581   0.606 -0.6504 -0.8125  0.6249
  886MOL0     C16847   3.428  10.505   0.563 -0.1999 -0.0042  0.8734
  886MOL0     C16848   3.437  10.370   0.555  0.6414  0.3169 -0.6297
  886MOL0     C16849   3.326  10.290   0.496 -0.9214 -0.2512 -0.2942
  886MOL0     O16850   3.352  10.162   0.496 -0.4917  0.8410  0.3497
  886MOL0     C16851   3.270  10.060   0.455  0.8736  0.2371  0.2675
  886MOL0     C16852   3.129  10.055   0.479 -0.2516 -0.8879  0.7387
  886MOL0     C16853   3.059   9.948   0.434  0.8742  0.1564 -0.5720
  886MOL0     C16854   3.122   9.836   0.365 -0.4117 -0.4001  1.6459
  886MOL0     O16855   3.049   9.720   0.332 -0.9033 -0.0340  0.4150
  886MOL0     C16856   3.094   9.662   0.205  0.4690  0.0489  0.2278
  886MOL0     C16857   2.976   9.665   0.102 -0.7859 -0.3680 -0.4447
  886MOL0     C16858   2.857   9.594   0.164  0.2911 -0.2522 -0.9857
  886MOL0     C16859   2.795   9.495   0.075 -0.5486  0.5589  0.0873
  886MOL0     C16860   2.677   9.436   0.149  0.4274  0.9814 -0.3303
  886MOL0     C16861   2.589   9.351   0.052  1.2494 -1.5404  0.9810
  886MOL0     C16862   2.479   9.434  -0.019  0.6378  0.1423 -0.3811
  886MOL0     C16863   2.354   9.353  -0.053  0.0810  0.4127  0.2845
  886MOL0    Cl16864   2.395   9.212  -0.162  0.0931  0.0253  0.0855
  886MOL0     C16865   3.263   9.833   0.357 -0.2713 -0.1800  0.4617
  886MOL0     C16866   3.336   9.949   0.397 -0.3230 -0.6442  0.6814
  886MOL0     O16867   3.222  10.345   0.456  0.7127 -0.1885 -0.3628
  886MOL0     C16868   3.554  10.309   0.606  0.2344 -0.5054  0.0967
  886MOL0     C16869   3.664  10.386   0.642  0.5920 -0.5351 -0.1079
  886MOL0     N16870   4.163  10.808   1.006  0.4918 -0.3311  0.9377
  886MOL0     N16871   4.265  10.767   1.066  0.1405 -0.1007 -0.5181
  886MOL0     C16872   5.446  10.266   0.922  0.6389  0.4235 -0.6756
  886MOL0     C16873   5.503  10.186   0.816  0.0935  0.3261 -0.5802
  886MOL0     C16874   5.646  10.057   0.413 -0.8142 -0.3435 -1.0268
  886MOL0     C16875   5.749   9.966   0.454 -0.6395  0.4612 -1.0344
  886MOL0     C16876   5.798   9.866   0.369  0.1363  0.4964 -0.4832
  886MOL0     C16877   5.746   9.849   0.242 -0.2663 -0.2204 -0.5599
  886MOL0     O16878   5.788   9.741   0.165 -0.4479 -0.4413 -0.6536
  886MOL0     C16879   5.807   9.609   0.227 -0.3038 -0.5428 -0.2418
  886MOL0     C16880   5.729   9.501   0.145  0.3527  0.2577  0.4536
  886MOL0     C16881   5.579   9.530   0.150  0.2780 -0.5862 -0.0731
  886MOL0     C16882   5.497   9.399   0.134  0.3519 -0.3182  0.6121
  886MOL0     C16883   5.513   9.345  -0.002 -0.0822  0.0690 -0.7943
  886MOL0     C16884   5.528   9.308  -0.111 -0.1787 -0.0373 -0.1155
  886MOL0     C16885   5.648   9.943   0.193 -0.8302  1.0089  0.3090
  886MOL0     C16886   5.597  10.044   0.279 -1.5579  0.8964 -0.6012
  886MOL0     H16887   5.651  10.444   0.653 -1.5548  2.6230  2.0856
  886MOL0     H16888   5.545  10.564   0.827  1.4038 -0.7226  0.1220
  886MOL0     H16889   5.199  10.475   0.974 -0.6074 -2.3614  0.9110
  886MOL0     H16890   5.298  10.589   0.872 -0.4996 -1.8340  0.0432
  886MOL0     H16891   5.325  10.734   1.071  0.3980  1.0041 -0.4763
  886MOL0     H16892   5.249  10.613   1.180  3.5224  2.0390  0.4034
  886MOL0     H16893   5.099  10.737   0.953  0.3542  1.3487  1.3629
  886MOL0     H16894   5.113  10.817   1.095  3.3905  0.5613 -2.4111
  886MOL0     H16895   5.011  10.538   1.040 -0.0952 -0.4418  2.8078
  886MOL0     H16896   5.017  10.610   1.205  1.1775 -0.3208  0.6587
  886MOL0     H16897   4.867  10.765   0.981 -1.7330  0.2170 -0.1793
  886MOL0     H16898   4.873  10.771   1.157 -0.4285 -1.4405  0.5479
  886MOL0     H16899   4.719  10.578   1.176  2.5525  1.2810  1.0105
  886MOL0     H16900   4.736  10.544   1.001 -2.6358 -0.6108  0.1375
  886MOL0     H16901   4.624  10.793   1.114  1.8590  0.5792 -0.7609
  886MOL0     H16902   4.656  10.765   0.947  1.6188  1.1931  1.4377
  886MOL0     H16903   4.452  10.596   1.104 -1.9929  2.9130  0.9975
  886MOL0     H16904   4.471  10.575   0.932 -3.6398 -0.0301  1.0338
  886MOL0     H16905   4.382  10.779   0.768  1.6455 -0.1844  1.3006
  886MOL0     H16906   4.156  10.920   0.699  1.0984 -3.0891  0.0734
  886MOL0     H16907   4.049  10.955   0.841 -1.6322  1.2083 -2.4384
  886MOL0     H16908   4.033  10.677   0.740 -2.4656 -0.6341  3.7091
  886MOL0     H16909   3.990  10.799   0.626  0.7057 -0.3632 -0.8481
  886MOL0     H16910   3.871  10.756   0.900  1.7570  4.3993  1.0542
  886MOL0     H16911   3.833  10.891   0.820  3.6628  0.5094  1.8423
  886MOL0     H16912   3.761  10.766   0.606  1.7519  0.1198 -0.2557
  886MOL0     H16913   3.674  10.761   0.767  2.0648  1.1872  2.4962
  886MOL0     H16914   3.530  10.689   0.609  0.1610 -0.7942  1.5398
  886MOL0     H16915   3.336  10.560   0.542 -0.1106  0.2828  1.2117
  886MOL0     H16916   3.075  10.136   0.527  0.5243 -0.0906  0.2949
  886MOL0     H16917   2.951   9.953   0.432  0.7392 -2.1058 -0.8160
  886MOL0     H16918   3.124   9.558   0.213  0.2824  0.0669  1.1983
  886MOL0     H16919   3.176   9.714   0.153 -0.0217 -0.3568 -0.9998
  886MOL0     H16920   3.017   9.610   0.017  2.5682 -0.3868  1.0311
  886MOL0     H16921   2.936   9.762   0.070 -0.4761 -0.6312 -1.7158
  886MOL0     H16922   2.787   9.673   0.192  2.0116  1.4830 -1.3150
  886MOL0     H16923   2.893   9.542   0.253  1.5217  0.6446 -0.9288
  886MOL0     H16924   2.774   9.542  -0.022  4.8116 -0.2246 -1.7840
  886MOL0     H16925   2.865   9.412   0.059 -1.0559  0.6605 -3.4979
  886MOL0     H16926   2.617   9.524   0.175  1.1673  2.0417 -2.0344
  886MOL0     H16927   2.690   9.378   0.241 -3.1309  1.2304  0.4894
  886MOL0     H16928   2.536   9.269   0.104  0.8665 -2.5862 -0.9775
  886MOL0     H16929   2.649   9.306  -0.028 -0.9429  1.0119 -2.3644
  886MOL0     H16930   2.456   9.521   0.043  4.1826  0.9487  0.0088
  886MOL0     H16931   2.519   9.474  -0.113  0.1874 -1.0074 -1.0943
  886MOL0     H16932   2.273   9.404  -0.106 -0.2406  0.6214  0.9788
  886MOL0     H16933   2.317   9.316   0.043  1.5016 -0.6783  0.4397
  886MOL0     H16934   3.320   9.748   0.320 -0.4171 -0.6388  1.2764
  886MOL0     H16935   3.443   9.950   0.383 -0.3309 -0.8290  0.6094
  886MOL0     H16936   3.563  10.201   0.614 -0.7201 -0.4738  1.8849
  886MOL0     H16937   3.752  10.329   0.672  1.6542  1.3948  0.5714
  886MOL0     H16938   5.387  10.205   0.990  0.1142 -2.4920 -3.5083
  886MOL0     H16939   5.492  10.079   0.804 -0.3267  0.2146  0.7307
  886MOL0     H16940   5.792   9.966   0.553 -4.1108  2.8977  0.6953
  886MOL0     H16941   5.869   9.793   0.407 -0.9131 -1.4532 -2.0105
  886MOL0     H16942   5.763   9.605   0.327 -0.3552 -2.2477 -0.3047
  886MOL0     H16943   5.915   9.592   0.228 -0.4737 -1.7526 -0.9116
  886MOL0     H16944   5.762   9.497   0.041  0.2161  0.7494  0.3846
  886MOL0     H16945   5.747   9.403   0.190 -0.9792 -1.1008 -1.7861
  886MOL0     H16946   5.547   9.609   0.082  0.1742 -0.1395  0.4781
  886MOL0     H16947   5.557   9.557   0.254  1.7941  0.7999 -0.0623
  886MOL0     H16948   5.531   9.317   0.199  0.9927  0.1258  0.8549
  886MOL0     H16949   5.394   9.423   0.159  1.2295  1.8488  2.6107
  886MOL0     H16950   5.551   9.265  -0.206 -2.7350  0.2894 -0.9657
  886MOL0     H16951   5.607   9.928   0.093 -0.3698  1.1560  0.0968
  886MOL0     H16952   5.540  10.131   0.248  0.7438  4.1698  3.3200
  887MOL0     O16953  11.149   3.188   1.497  1.3002 -0.1922  0.5217
  887MOL0     C16954  11.222   3.282   1.530  0.7458 -0.9111  1.1636
  887MOL0     O16955  11.176   3.398   1.584  0.6098  0.0819 -0.3091
  887MOL0     C16956  11.041   3.408   1.597 -0.4174  1.1478  0.7297
  887MOL0     C16957  10.963   3.465   1.490 -0.1495 -0.6492  0.1325
  887MOL0     C16958  10.825   3.489   1.502  0.5424  0.2639 -0.5725
  887MOL0     C16959  10.759   3.457   1.625  0.0659  0.2588 -0.4303
  887MOL0     O16960  10.627   3.493   1.640  0.3331  0.0974  0.5147
  887MOL0     C16961  10.540   3.446   1.531 -0.1396  1.0751  0.2517
  887MOL0     C16962  10.523   3.302   1.542 -0.6006 -0.3384  0.7894
  887MOL0     C16963  10.621   3.222   1.456 -0.1548  0.6245 -0.3006
  887MOL0     C16964  10.617   3.250   1.307 -0.2796 -0.4733  0.5422
  887MOL0     C16965  10.688   3.139   1.217 -0.3304  0.2275  0.1042
  887MOL0     C16966  10.839   3.136   1.239  0.5001  0.1938  0.6633
  887MOL0     C16967  10.917   3.256   1.194  0.0657 -0.7756 -0.3306
  887MOL0     C16968  10.951   3.231   1.048  0.5413  0.1501 -0.1526
  887MOL0     N16969  11.054   3.134   1.026  0.1388  0.6793  0.1326
  887MOL0     C16970  11.187   3.148   1.070  0.1575 -0.5225  0.4621
  887MOL0     C16971  11.247   3.031   1.034  0.1219 -0.5135 -0.5561
  887MOL0     C16972  11.383   2.979   1.062  0.5185 -0.1969  0.3605
  887MOL0     C16973  11.487   3.069   0.994  0.8073  0.0269 -0.4321
  887MOL0     C16974  11.629   3.008   1.015 -0.8346 -0.3883  0.0541
  887MOL0     C16975  11.738   3.109   0.993 -0.6190  0.0211  0.4515
  887MOL0     O16976  11.858   3.034   1.023 -0.5041 -0.3940  0.3184
  887MOL0     C16977  11.972   3.094   1.072  0.4859  0.0890 -0.0136
  887MOL0     C16978  11.999   3.231   1.064 -0.9379  0.6119  0.4696
  887MOL0     C16979  12.123   3.279   1.105 -0.4718  0.1732  1.3241
  887MOL0     C16980  12.215   3.197   1.167  0.4383 -0.0279  0.7847
  887MOL0     C16981  12.344   3.257   1.205 -0.3649 -0.1274  0.7180
  887MOL0     O16982  12.429   3.181   1.278 -0.0941  0.3545 -0.6909
  887MOL0     C16983  12.564   3.212   1.301 -1.2669  0.5018  0.3445
  887MOL0     C16984  12.659   3.266   1.214 -0.1803 -0.1049  0.9074
  887MOL0     C16985  12.788   3.302   1.251 -0.0233 -0.1865  0.1320
  887MOL0     C16986  12.821   3.280   1.386  0.2843 -0.4099 -1.1891
  887MOL0     O16987  12.955   3.295   1.412  0.3666 -0.0224  0.2201
  887MOL0     C16988  13.006   3.238   1.535  0.6191 -0.1978 -0.0519
  887MOL0     C16989  13.161   3.244   1.551 -0.4876 -0.0006 -0.6710
  887MOL0     C16990  13.204   3.393   1.540  0.1600 -0.4659  0.2848
  887MOL0     C16991  13.358   3.398   1.569  0.8609 -0.2090 -0.1816
  887MOL0     C16992  13.415   3.543   1.561 -0.2357 -0.3247  0.1376
  887MOL0     C16993  13.558   3.544   1.614  0.1978 -0.8051 -0.0172
  887MOL0     C16994  13.570   3.521   1.760 -0.6784 -0.0019 -0.2948
  887MOL0     C16995  13.717   3.555   1.803  0.2649  0.1334 -0.1630
  887MOL0    Cl16996  13.724   3.515   1.977 -0.3825  0.0547 -0.2945
  887MOL0     C16997  12.733   3.211   1.466  0.0878 -0.0481 -1.0839
  887MOL0     C16998  12.602   3.167   1.423  0.5831  0.8910  0.5137
  887MOL0     O16999  12.365   3.372   1.169 -0.8002 -0.2981 -0.3738
  887MOL0     C17000  12.186   3.058   1.190 -0.2057 -0.3604  0.9336
  887MOL0     C17001  12.071   3.013   1.130 -0.2308  0.2120  0.6480
  887MOL0     N17002  11.149   2.954   0.971  0.3881 -0.5085  0.5815
  887MOL0     N17003  11.027   3.007   0.977 -0.1200 -0.0758  0.0766
  887MOL0     C17004  10.837   3.389   1.725 -0.4085 -0.8140 -0.4986
  887MOL0     C17005  10.971   3.363   1.711 -0.5989 -1.1739  0.8211
  887MOL0     C17006  11.352   3.288   1.465  0.0914 -0.3425 -0.5982
  887MOL0     C17007  11.434   3.396   1.491 -0.1504  0.6002  1.1288
  887MOL0     C17008  11.563   3.401   1.438 -0.0075  0.9165 -0.3044
  887MOL0     C17009  11.611   3.292   1.365 -0.1532  0.1007 -0.0348
  887MOL0     O17010  11.742   3.271   1.320 -0.1938  0.1792 -0.3468
  887MOL0     C17011  11.840   3.335   1.405 -0.0299 -0.0589 -0.2583
  887MOL0     C17012  11.841   3.257   1.544  0.3586 -0.6488  0.2370
  887MOL0     C17013  11.871   3.112   1.549 -1.0039  0.7778  1.0015
  887MOL0     C17014  11.995   3.068   1.462  0.2209 -0.0496  0.6301
  887MOL0     C17015  12.117   3.145   1.501 -0.0891 -1.0577 -0.3675
  887MOL0     C17016  12.219   3.205   1.517 -0.2717 -0.4740  0.1858
  887MOL0     C17017  11.523   3.195   1.330 -0.8096  0.3498  0.3518
  887MOL0     C17018  11.397   3.189   1.381 -0.4208  0.2206 -0.3300
  887MOL0     H17019  11.021   3.494   1.403  0.0601  1.2556  0.8498
  887MOL0     H17020  10.772   3.538   1.420 -1.9780 -0.2747  0.6348
  887MOL0     H17021  10.559   3.487   1.431 -0.6342 -1.3618 -0.9178
  887MOL0     H17022  10.439   3.478   1.559 -0.3661 -0.7002  1.6244
  887MOL0     H17023  10.429   3.274   1.494 -0.7883  3.6761 -1.6645
  887MOL0     H17024  10.532   3.273   1.647  2.4794  0.9042  0.9625
  887MOL0     H17025  10.593   3.116   1.457 -0.1151  0.5352 -2.6471
  887MOL0     H17026  10.724   3.230   1.492 -0.4395  1.3007  0.3790
  887MOL0     H17027  10.523   3.265   1.252  1.4233 -1.5442 -2.9576
  887MOL0     H17028  10.670   3.344   1.287  1.0379 -0.9162  1.7812
  887MOL0     H17029  10.665   3.151   1.110 -1.3320 -0.4625  0.2275
  887MOL0     H17030  10.647   3.041   1.241  3.2178 -0.9036  2.2578
  887MOL0     H17031  10.878   3.045   1.193  2.3587  1.7140 -0.9053
  887MOL0     H17032  10.852   3.124   1.347 -2.1958 -2.5422  0.8129
  887MOL0     H17033  10.865   3.350   1.214  1.6931  0.1995 -0.5229
  887MOL0     H17034  11.013   3.266   1.246 -0.8827  1.3978  1.1445
  887MOL0     H17035  10.972   3.331   1.009  1.2554 -0.0458 -0.2947
  887MOL0     H17036  10.853   3.202   1.009 -1.3268  1.4282  3.2170
  887MOL0     H17037  11.215   3.234   1.130 -0.0270 -0.1818  0.0741
  887MOL0     H17038  11.390   2.872   1.038  2.4382  0.1210 -0.6265
  887MOL0     H17039  11.395   2.982   1.170 -2.9425 -1.6761  0.9217
  887MOL0     H17040  11.488   3.166   1.044  2.0968 -1.2477  2.2144
  887MOL0     H17041  11.473   3.087   0.887 -1.3841  0.0847 -0.1790
  887MOL0     H17042  11.642   2.955   1.111  1.2225  2.2415  1.3582
  887MOL0     H17043  11.644   2.931   0.939 -1.6360 -0.1550 -0.3473
  887MOL0     H17044  11.735   3.191   1.066 -0.8330  1.7339 -1.3809
  887MOL0     H17045  11.734   3.159   0.896  0.1460  1.7310  1.2440
  887MOL0     H17046  11.929   3.295   1.012 -0.9554 -0.8614 -1.4486
  887MOL0     H17047  12.143   3.384   1.086 -4.4154  1.0407  0.9889
  887MOL0     H17048  12.637   3.298   1.113 -2.4491  0.2544  1.4658
  887MOL0     H17049  12.856   3.345   1.179 -0.0117 -1.2548 -0.5232
  887MOL0     H17050  12.989   3.130   1.548 -0.5447  0.2892  3.9967
  887MOL0     H17051  12.970   3.289   1.625  2.8598  1.0394  0.2240
  887MOL0     H17052  13.213   3.194   1.469  1.7858  1.8224 -0.4403
  887MOL0     H17053  13.184   3.194   1.646 -1.1536 -1.3179 -1.1805
  887MOL0     H17054  13.156   3.462   1.610  1.2379  3.3119 -2.3957
  887MOL0     H17055  13.171   3.437   1.445 -3.6186  1.1754  2.1515
  887MOL0     H17056  13.375   3.363   1.672 -0.6452  2.8348  1.2547
  887MOL0     H17057  13.400   3.336   1.490 -0.6419 -0.6075 -0.6903
  887MOL0     H17058  13.358   3.610   1.626  1.8165  1.9937 -0.3224
  887MOL0     H17059  13.404   3.578   1.458 -1.2089 -1.8119 -0.2933
  887MOL0     H17060  13.596   3.645   1.596 -2.2766  0.3922  0.9568
  887MOL0     H17061  13.608   3.462   1.562 -1.4699 -1.7333 -0.2023
  887MOL0     H17062  13.497   3.588   1.807 -0.5603  1.4954 -2.1080
  887MOL0     H17063  13.553   3.417   1.788 -3.2405  0.8244  1.6635
  887MOL0     H17064  13.746   3.660   1.788  0.7361 -0.1967 -1.8220
  887MOL0     H17065  13.784   3.492   1.745 -1.0276 -3.7400  2.1813
  887MOL0     H17066  12.765   3.191   1.568  0.7944 -0.4704 -1.3793
  887MOL0     H17067  12.524   3.113   1.475 -0.7900  0.6897 -1.6637
  887MOL0     H17068  12.263   2.997   1.235  0.6390  1.1617  1.6510
  887MOL0     H17069  12.052   2.907   1.137  0.4817  0.0639  0.4541
  887MOL0     H17070  10.779   3.380   1.817  1.1411  3.0194  1.0765
  887MOL0     H17071  11.018   3.313   1.795 -1.2064  0.0857  1.9460
  887MOL0     H17072  11.385   3.484   1.530  1.1303  1.3117  1.1884
  887MOL0     H17073  11.618   3.494   1.446 -1.6122  1.9871 -1.2077
  887MOL0     H17074  11.827   3.443   1.415 -0.4873 -0.1917  0.7481
  887MOL0     H17075  11.935   3.322   1.352  0.7600  4.8370 -0.4609
  887MOL0     H17076  11.914   3.304   1.610 -0.4839 -0.7502  1.2734
  887MOL0     H17077  11.741   3.279   1.581  0.7267  4.1803 -1.0359
  887MOL0     H17078  11.780   3.056   1.525 -0.1423 -0.2839  0.1381
  887MOL0     H17079  11.891   3.081   1.652 -0.9922  0.5193  0.9216
  887MOL0     H17080  11.992   2.961   1.485 -2.7680 -0.0547  0.6241
  887MOL0     H17081  11.985   3.074   1.353 -1.5989 -0.8845  0.7087
  887MOL0     H17082  12.310   3.260   1.511 -0.9612  0.6352 -0.4305
  887MOL0     H17083  11.570   3.119   1.268  2.1245 -0.8605  3.7368
  887MOL0     H17084  11.333   3.104   1.360  1.2191 -1.0451 -0.3244
  888MOL0     O17085  10.597   5.298   4.632  0.0601  0.4041  0.6171
  888MOL0     C17086  10.706   5.284   4.576  0.0279  0.2666  0.6126
  888MOL0     O17087  10.727   5.257   4.443 -0.4694 -0.6430 -0.2284
  888MOL0     C17088  10.613   5.246   4.363  0.3585  0.5483 -0.6144
  888MOL0     C17089  10.519   5.147   4.386 -0.5667 -0.3888 -0.1343
  888MOL0     C17090  10.412   5.121   4.301 -0.7198 -0.4647 -0.1805
  888MOL0     C17091  10.398   5.205   4.185  0.2789 -0.6236  0.6750
  888MOL0     O17092  10.289   5.213   4.105  0.6869  0.3108 -0.2767
  888MOL0     C17093  10.174   5.123   4.124  0.1071 -0.5927 -0.2505
  888MOL0     C17094  10.084   5.156   4.007  0.5793 -0.9702  0.2544
  888MOL0     C17095   9.951   5.090   4.008  1.0739  0.4827  0.0752
  888MOL0     C17096   9.864   5.103   4.137  0.6504  0.1156 -0.6288
  888MOL0     C17097   9.709   5.063   4.134  0.1476 -0.1896 -0.2304
  888MOL0     C17098   9.623   5.099   4.251  0.3279 -0.1455  0.0833
  888MOL0     C17099   9.484   5.044   4.229  0.4346  0.7737  0.0411
  888MOL0     C17100   9.393   5.085   4.342 -0.0201 -0.1119 -0.7123
  888MOL0     N17101   9.268   5.004   4.327 -1.1437 -0.2344  0.1164
  888MOL0     C17102   9.160   5.054   4.272 -0.3275  0.0816  0.3744
  888MOL0     C17103   9.070   4.958   4.271 -0.5352  0.7999  0.2186
  888MOL0     C17104   8.940   4.980   4.208  0.0701  0.9780 -0.0287
  888MOL0     C17105   8.846   4.855   4.235 -0.0938  0.3627  0.4104
  888MOL0     C17106   8.717   4.873   4.154 -0.4720  0.5702  0.3556
  888MOL0     C17107   8.622   4.761   4.203 -0.6548 -0.6228  0.5475
  888MOL0     O17108   8.487   4.796   4.161 -0.1748  0.2992  0.0824
  888MOL0     C17109   8.383   4.719   4.200  0.2554  0.7875  0.0466
  888MOL0     C17110   8.252   4.761   4.157  0.8199 -0.1312 -0.0431
  888MOL0     C17111   8.141   4.694   4.213 -0.0663  0.6643 -0.3228
  888MOL0     C17112   8.156   4.588   4.306  0.2098 -0.2504 -0.4358
  888MOL0     C17113   8.044   4.521   4.377  0.0020  0.4034 -0.6986
  888MOL0     O17114   7.919   4.566   4.345  0.0951  0.6588  0.3375
  888MOL0     C17115   7.812   4.501   4.397  1.3141 -0.1054 -0.0163
  888MOL0     C17116   7.800   4.371   4.443 -0.4535 -0.2053  0.4905
  888MOL0     C17117   7.672   4.321   4.472  0.2800  0.5634  0.0968
  888MOL0     C17118   7.558   4.389   4.449 -0.4411 -0.8738 -0.0383
  888MOL0     O17119   7.445   4.325   4.469  0.7148 -0.3317 -0.4787
  888MOL0     C17120   7.313   4.399   4.465  0.3868 -0.6428  0.1493
  888MOL0     C17121   7.202   4.322   4.532  0.5706 -0.2188 -0.3735
  888MOL0     C17122   7.183   4.177   4.467  0.4857 -0.3977 -0.5755
  888MOL0     C17123   7.094   4.087   4.552  0.5902  0.0543  0.3634
  888MOL0     C17124   6.941   4.118   4.544 -0.1394 -0.5997 -0.0442
  888MOL0     C17125   6.857   4.024   4.637 -0.3476  0.2995 -0.4359
  888MOL0     C17126   6.717   4.056   4.627  0.5299  0.2008  0.3303
  888MOL0     C17127   6.626   4.034   4.753 -0.2709  0.5389  0.2321
  888MOL0    Cl17128   6.661   4.163   4.886  0.4301  0.2466  0.0475
  888MOL0     C17129   7.573   4.518   4.404 -0.0769 -0.3200 -0.4085
  888MOL0     C17130   7.693   4.572   4.384  0.2163 -0.7602 -0.1931
  888MOL0     O17131   8.069   4.437   4.468  0.7311 -0.3081 -0.3998
  888MOL0     C17132   8.281   4.547   4.339 -0.7171  0.2408 -0.0360
  888MOL0     C17133   8.396   4.612   4.283 -0.1374 -1.1031  0.1258
  888MOL0     N17134   9.120   4.843   4.336  0.0681 -0.3031  0.8654
  888MOL0     N17135   9.238   4.883   4.382 -0.2048 -0.2752 -0.1507
  888MOL0     C17136  10.496   5.298   4.151  0.8900  0.4180  0.7341
  888MOL0     C17137  10.601   5.319   4.244  0.1270  0.5036  0.5291
  888MOL0     C17138  10.832   5.306   4.658  0.2622 -0.4543  0.2847
  888MOL0     C17139  10.952   5.253   4.628 -0.5942  0.2013  0.1338
  888MOL0     C17140  11.066   5.287   4.704  0.1642 -0.8696  0.0122
  888MOL0     C17141  11.068   5.385   4.807  0.1176  0.4316  0.4230
  888MOL0     O17142  11.183   5.420   4.868  0.2481 -0.4687  0.3061
  888MOL0     C17143  11.178   5.541   4.950  0.1701 -0.2835 -0.0945
  888MOL0     C17144  11.316   5.574   5.007  0.7276  0.6167 -0.1972
  888MOL0     C17145  11.368   5.461   5.091  0.2721  0.0667  0.2148
  888MOL0     C17146  11.501   5.493   5.162 -0.2335  1.1216 -0.6013
  888MOL0     C17147  11.618   5.493   5.073 -0.5334 -0.4359  0.1114
  888MOL0     C17148  11.716   5.501   5.004 -0.1985 -1.0295  0.0337
  888MOL0     C17149  10.945   5.444   4.833  0.4603  0.4974 -0.0413
  888MOL0     C17150  10.830   5.400   4.761 -0.0902 -0.4972  0.1551
  888MOL0     H17151  10.529   5.089   4.478  2.3050 -1.2315 -0.8807
  888MOL0     H17152  10.346   5.039   4.328 -0.7995 -0.8520 -1.4895
  888MOL0     H17153  10.136   5.145   4.224  0.1571 -0.0717 -0.3445
  888MOL0     H17154  10.201   5.017   4.120 -0.1685 -0.6767  0.1647
  888MOL0     H17155  10.144   5.126   3.920 -1.1391 -2.8934 -0.3431
  888MOL0     H17156  10.061   5.263   4.007 -3.7708 -1.7054 -1.3833
  888MOL0     H17157   9.958   4.984   3.982  1.8188  0.7454 -0.8312
  888MOL0     H17158   9.895   5.132   3.924  0.5461 -1.2498 -0.4769
  888MOL0     H17159   9.916   5.047   4.216  0.6250 -0.3453 -0.9320
  888MOL0     H17160   9.867   5.211   4.155  2.3931 -0.0671  0.4145
  888MOL0     H17161   9.698   4.957   4.108 -1.9240  0.3716 -1.8257
  888MOL0     H17162   9.659   5.110   4.049 -2.3083  0.0136  1.2440
  888MOL0     H17163   9.626   5.208   4.259 -2.1423 -0.1349  2.4775
  888MOL0     H17164   9.658   5.047   4.340  0.4266 -3.2905 -1.6598
  888MOL0     H17165   9.446   5.071   4.129 -1.0690 -3.4697 -0.7822
  888MOL0     H17166   9.494   4.935   4.221  2.2607  1.0595 -3.5568
  888MOL0     H17167   9.382   5.194   4.331 -0.3612 -0.0209  0.4645
  888MOL0     H17168   9.441   5.073   4.439  2.3312  0.1517 -1.7735
  888MOL0     H17169   9.135   5.153   4.237 -0.8523 -0.3098 -0.3897
  888MOL0     H17170   8.947   5.004   4.101 -0.1345  1.3992  0.0494
  888MOL0     H17171   8.902   5.071   4.255  2.6883  1.3670  1.5628
  888MOL0     H17172   8.834   4.844   4.343  0.0606 -1.0886  0.3019
  888MOL0     H17173   8.896   4.764   4.202 -1.5879 -0.0439 -0.8846
  888MOL0     H17174   8.679   4.976   4.157  1.4142  1.2948  1.1538
  888MOL0     H17175   8.732   4.862   4.046  3.4794  1.8089  0.6086
  888MOL0     H17176   8.624   4.756   4.312  0.2234  0.1215  0.5798
  888MOL0     H17177   8.644   4.661   4.165 -1.7813 -1.3043  1.5999
  888MOL0     H17178   8.235   4.828   4.074 -0.6196  0.0704  0.3855
  888MOL0     H17179   8.040   4.706   4.176 -0.3919 -2.0484 -0.4993
  888MOL0     H17180   7.872   4.302   4.485 -0.3309 -1.7305 -2.0439
  888MOL0     H17181   7.667   4.225   4.523 -1.0031  2.1370  3.2032
  888MOL0     H17182   7.297   4.411   4.357  1.9597 -1.7872 -0.2454
  888MOL0     H17183   7.311   4.494   4.519 -0.1378 -0.5679  0.0018
  888MOL0     H17184   7.111   4.375   4.502  0.3294 -1.4201 -1.8883
  888MOL0     H17185   7.219   4.323   4.640  1.8708 -2.6110 -0.4926
  888MOL0     H17186   7.286   4.140   4.467  0.3875 -0.7119  0.8534
  888MOL0     H17187   7.138   4.172   4.367 -0.3821 -2.0844 -0.1267
  888MOL0     H17188   7.110   3.983   4.522 -1.0103 -0.4235  1.0540
  888MOL0     H17189   7.127   4.085   4.656  0.8973 -1.1221  0.2577
  888MOL0     H17190   6.908   4.110   4.440  0.3364  0.4820 -0.2930
  888MOL0     H17191   6.917   4.224   4.557  1.0598 -0.3344  0.0872
  888MOL0     H17192   6.899   4.034   4.737  0.9044  0.7169 -0.9791
  888MOL0     H17193   6.864   3.919   4.607 -1.7289  0.2099 -0.5293
  888MOL0     H17194   6.709   4.163   4.609  2.2205  0.4195  0.8017
  888MOL0     H17195   6.678   4.008   4.536 -1.9074  1.9936  0.3317
  888MOL0     H17196   6.640   3.932   4.789 -2.5483  0.0540 -0.1639
  888MOL0     H17197   6.520   4.045   4.730 -1.0117 -0.1107  2.9086
  888MOL0     H17198   7.484   4.578   4.384  0.1898  0.6217  1.0495
  888MOL0     H17199   7.700   4.671   4.340 -0.0038  0.6415  2.6834
  888MOL0     H17200   8.303   4.463   4.404 -0.4708  0.0641 -0.3482
  888MOL0     H17201   8.495   4.585   4.316  0.2079 -1.8057 -1.4023
  888MOL0     H17202  10.501   5.348   4.055 -3.2590  0.2162  0.2377
  888MOL0     H17203  10.682   5.388   4.221  1.0207 -1.3861 -2.5850
  888MOL0     H17204  10.964   5.174   4.555 -4.2352  2.7874 -3.6890
  888MOL0     H17205  11.163   5.241   4.685  1.5239  2.0072 -0.4663
  888MOL0     H17206  11.113   5.508   5.031 -0.4541 -1.2770 -0.9763
  888MOL0     H17207  11.146   5.636   4.906 -0.1805 -0.5051 -0.3244
  888MOL0     H17208  11.386   5.584   4.923 -0.8993 -1.1541 -1.8816
  888MOL0     H17209  11.306   5.663   5.070 -3.1709 -1.2240  2.1136
  888MOL0     H17210  11.391   5.373   5.030  1.0939  0.4279 -0.0129
  888MOL0     H17211  11.300   5.430   5.171  2.4276 -0.4313  1.9629
  888MOL0     H17212  11.491   5.590   5.211  0.8647 -0.1494  2.3582
  888MOL0     H17213  11.519   5.413   5.235 -2.0416  0.1757 -1.1444
  888MOL0     H17214  11.803   5.512   4.941 -0.0836 -0.3181  0.3056
  888MOL0     H17215  10.929   5.516   4.914 -0.2928 -0.3349  0.5663
  888MOL0     H17216  10.732   5.438   4.785  0.7277  2.0999 -0.2615
  889MOL0     O17217   0.109   7.055   0.040 -0.6023 -0.2677 -0.2615
  889MOL0     C17218   0.138   6.942   0.004  0.4824 -0.3514 -0.4725
  889MOL0     O17219   0.049   6.839   0.011 -0.7555 -0.3110 -0.2465
  889MOL0     C17220  -0.081   6.856   0.060 -0.5747  0.2744  0.5823
  889MOL0     C17221  -0.157   6.749   0.108  1.2228  1.6398 -0.1409
  889MOL0     C17222  -0.294   6.765   0.151 -0.2615 -0.1793 -0.6277
  889MOL0     C17223  -0.363   6.881   0.154 -0.2199 -0.6981  0.1345
  889MOL0     O17224  -0.485   6.884   0.216  0.2931 -0.5269 -0.9075
  889MOL0     C17225  -0.571   6.966   0.140  0.2031  0.7706 -0.5592
  889MOL0     C17226  -0.721   6.925   0.165  0.2325 -0.5455  1.1194
  889MOL0     C17227  -0.809   7.015   0.068 -0.5185 -0.1546  0.1022
  889MOL0     C17228  -0.952   6.973   0.089  0.8772  0.6541 -0.1718
  889MOL0     C17229  -1.051   7.067   0.031  0.2000  0.0656 -0.1151
  889MOL0     C17230  -1.178   6.982   0.049  0.3892 -0.3901 -0.9878
  889MOL0     C17231  -1.296   7.065   0.002 -0.4134 -0.1645  0.5689
  889MOL0     C17232  -1.324   7.179   0.100 -0.2160 -0.1704 -0.0396
  889MOL0     N17233  -1.466   7.224   0.101 -0.6343  0.0522 -0.2513
  889MOL0     C17234  -1.565   7.166   0.169  0.0599 -0.2600  0.3422
  889MOL0     C17235  -1.684   7.240   0.154 -1.0319 -0.2649 -0.5351
  889MOL0     C17236  -1.809   7.213   0.225 -0.9880 -0.4077 -0.4122
  889MOL0     C17237  -1.923   7.170   0.131  0.3244  1.0076 -0.5637
  889MOL0     C17238  -2.011   7.062   0.193 -1.0316  0.1337  0.4799
  889MOL0     C17239  -2.122   7.008   0.092  0.3713 -0.3751  0.3534
  889MOL0     O17240  -2.243   6.949   0.155  0.3539  0.0170  0.0289
  889MOL0     C17241  -2.352   7.029   0.196 -0.5192 -0.6804  0.0893
  889MOL0     C17242  -2.467   6.976   0.254 -0.3512  0.3955 -0.0712
  889MOL0     C17243  -2.564   7.054   0.317  0.7029 -0.5913 -1.1578
  889MOL0     C17244  -2.568   7.193   0.288 -0.2684  0.0032 -0.0627
  889MOL0     C17245  -2.674   7.282   0.337 -0.3480  0.4451 -0.5000
  889MOL0     O17246  -2.765   7.218   0.421  0.5508 -0.2439  0.7417
  889MOL0     C17247  -2.878   7.282   0.472  0.1095  0.7374 -0.3328
  889MOL0     C17248  -2.960   7.377   0.411 -0.0582  0.5245 -0.5327
  889MOL0     C17249  -3.072   7.430   0.477  1.0073  0.2596  1.1952
  889MOL0     C17250  -3.114   7.381   0.597  1.1030  0.1182  0.2670
  889MOL0     O17251  -3.208   7.452   0.674  0.3240  1.2077  0.7327
  889MOL0     C17252  -3.305   7.396   0.759 -0.6445 -0.1663 -0.6936
  889MOL0     C17253  -3.435   7.428   0.688  0.2604 -0.0272  0.8346
  889MOL0     C17254  -3.549   7.398   0.781 -0.0834  0.3127  0.5269
  889MOL0     C17255  -3.678   7.431   0.709  0.3880  0.5855 -0.6360
  889MOL0     C17256  -3.788   7.421   0.813  0.7004  0.6431 -0.3873
  889MOL0     C17257  -3.931   7.436   0.759  0.0045  0.3205  0.5485
  889MOL0     C17258  -3.992   7.314   0.692 -0.4548 -0.4349  0.1809
  889MOL0     C17259  -4.140   7.322   0.648 -0.0227  0.3204 -0.1056
  889MOL0    Cl17260  -4.250   7.326   0.784 -0.2062 -0.0563  0.0439
  889MOL0     C17261  -3.039   7.271   0.651 -0.1506  1.1422  0.4030
  889MOL0     C17262  -2.918   7.225   0.599 -0.0924  0.0733 -0.4802
  889MOL0     O17263  -2.683   7.395   0.300  1.3965 -0.5499 -0.7205
  889MOL0     C17264  -2.472   7.244   0.201  0.4996 -1.4182  0.6319
  889MOL0     C17265  -2.370   7.164   0.162  0.1064  0.8545 -0.2096
  889MOL0     N17266  -1.642   7.341   0.066 -0.4648  0.3283  0.9802
  889MOL0     N17267  -1.518   7.327   0.028  0.1577  0.0212  0.1390
  889MOL0     C17268  -0.287   6.986   0.097  0.1985  0.4224  0.1783
  889MOL0     C17269  -0.159   6.973   0.051  0.3498 -0.1582  0.4451
  889MOL0     C17270   0.273   6.922  -0.038  0.6967  0.0344  0.7927
  889MOL0     C17271   0.331   6.797  -0.059 -0.2724  0.7539  0.9711
  889MOL0     C17272   0.469   6.786  -0.083 -0.5474  0.2487  0.1933
  889MOL0     C17273   0.546   6.898  -0.103 -0.0588 -0.6953 -0.1902
  889MOL0     O17274   0.681   6.905  -0.120  0.6687 -0.1246 -0.2217
  889MOL0     C17275   0.761   6.783  -0.112  0.0759  0.6765  0.6297
  889MOL0     C17276   0.900   6.819  -0.156 -0.5637 -0.5157 -0.8992
  889MOL0     C17277   0.906   6.840  -0.311 -1.2088  0.8635  0.8323
  889MOL0     C17278   1.052   6.870  -0.352 -0.0971  0.1013  0.0473
  889MOL0     C17279   1.134   6.737  -0.344  0.2464 -0.5614  0.0942
  889MOL0     C17280   1.192   6.635  -0.353 -0.9599  0.1421  0.5638
  889MOL0     C17281   0.494   7.018  -0.081  1.3659 -0.3202  0.6452
  889MOL0     C17282   0.359   7.034  -0.045  0.0878 -0.1501  0.0703
  889MOL0     H17283  -0.119   6.648   0.105 -1.3735  0.5995 -1.2786
  889MOL0     H17284  -0.351   6.682   0.190 -2.1296 -0.6209 -3.8932
  889MOL0     H17285  -0.550   6.953   0.034  1.1496  1.3695 -0.4578
  889MOL0     H17286  -0.556   7.069   0.174 -0.9255  0.7479  0.0752
  889MOL0     H17287  -0.743   6.943   0.270 -0.7828  1.2264  0.6365
  889MOL0     H17288  -0.744   6.821   0.140 -0.5230 -0.1354  0.0312
  889MOL0     H17289  -0.775   7.011  -0.036 -0.8785  1.3507 -0.0941
  889MOL0     H17290  -0.785   7.120   0.088  0.1244 -0.2854  0.0286
  889MOL0     H17291  -0.954   6.872   0.047  2.4708  1.1846 -1.6282
  889MOL0     H17292  -0.972   6.971   0.196 -0.1580  1.0190 -0.3416
  889MOL0     H17293  -1.029   7.084  -0.075 -1.4777 -1.6756 -0.7932
  889MOL0     H17294  -1.047   7.156   0.094  2.3095  0.4392 -0.7111
  889MOL0     H17295  -1.183   6.952   0.154  5.4784  1.3096  0.0168
  889MOL0     H17296  -1.168   6.895  -0.017 -0.6341 -1.1290 -0.1881
  889MOL0     H17297  -1.270   7.092  -0.100 -2.8525 -0.9668 -0.3465
  889MOL0     H17298  -1.387   7.005  -0.008 -1.1768  0.9410  0.7446
  889MOL0     H17299  -1.272   7.269   0.064 -3.5580  1.1144 -2.1676
  889MOL0     H17300  -1.303   7.151   0.203  0.4279 -1.7709 -0.5749
  889MOL0     H17301  -1.549   7.076   0.229 -1.2308 -1.3553 -0.8905
  889MOL0     H17302  -1.825   7.304   0.283  3.6449  1.5406 -1.7165
  889MOL0     H17303  -1.802   7.132   0.299 -0.9042 -1.7737 -1.8472
  889MOL0     H17304  -1.880   7.140   0.035  3.0295 -0.8471  1.1120
  889MOL0     H17305  -1.989   7.255   0.109 -1.5846  1.1664  4.5915
  889MOL0     H17306  -1.945   6.980   0.223  1.1095  2.6017  3.2392
  889MOL0     H17307  -2.056   7.109   0.281  0.9410  1.3748  0.9076
  889MOL0     H17308  -2.080   6.930   0.028 -2.0325  0.4484 -2.4275
  889MOL0     H17309  -2.151   7.085   0.020 -1.2357 -0.4550  0.8761
  889MOL0     H17310  -2.467   6.868   0.269  1.0125  0.3819 -0.1235
  889MOL0     H17311  -2.631   6.997   0.381 -1.8042  0.8623 -2.3208
  889MOL0     H17312  -2.936   7.410   0.310  1.1783  0.8523 -0.1431
  889MOL0     H17313  -3.134   7.508   0.433 -1.1945 -2.9848 -2.0142
  889MOL0     H17314  -3.287   7.450   0.853  0.0839 -2.4731  0.5635
  889MOL0     H17315  -3.284   7.290   0.773  1.5176  0.0626 -1.9048
  889MOL0     H17316  -3.454   7.373   0.596 -2.4507  0.1106  1.2233
  889MOL0     H17317  -3.433   7.536   0.669 -1.5938  0.1092  1.1712
  889MOL0     H17318  -3.545   7.466   0.867  1.7921  4.0292 -2.1605
  889MOL0     H17319  -3.567   7.297   0.819 -3.9009  0.5499 -0.2695
  889MOL0     H17320  -3.687   7.532   0.669 -1.2938  1.4692  1.7643
  889MOL0     H17321  -3.687   7.365   0.622  0.0443  0.4456 -0.4973
  889MOL0     H17322  -3.769   7.498   0.889  1.8626  0.7521 -0.7728
  889MOL0     H17323  -3.788   7.326   0.867 -0.7542 -0.2358 -1.8621
  889MOL0     H17324  -3.936   7.510   0.679 -1.0211 -0.8491 -0.5097
  889MOL0     H17325  -3.998   7.474   0.837 -0.1794  2.3504 -0.5089
  889MOL0     H17326  -3.932   7.301   0.601 -0.1343 -1.1670  0.4876
  889MOL0     H17327  -3.979   7.219   0.746 -0.0076 -0.9922 -0.8770
  889MOL0     H17328  -4.166   7.238   0.584 -2.2962 -0.1715  1.3564
  889MOL0     H17329  -4.152   7.415   0.592  1.1802 -0.0784 -1.0745
  889MOL0     H17330  -3.069   7.217   0.740 -0.3880 -0.9959 -0.9074
  889MOL0     H17331  -2.872   7.139   0.645  0.5703  0.9555  0.5645
  889MOL0     H17332  -2.477   7.348   0.171 -1.6805 -1.8092 -0.6194
  889MOL0     H17333  -2.292   7.208   0.100  2.2733 -3.1083 -0.5920
  889MOL0     H17334  -0.341   7.079   0.085 -2.2297 -1.1228 -1.9639
  889MOL0     H17335  -0.130   7.058  -0.009  0.9118 -0.4397  0.3046
  889MOL0     H17336   0.272   6.706  -0.051  0.9791 -0.5585 -2.8191
  889MOL0     H17337   0.516   6.688  -0.088  0.7242  0.6786  2.4596
  889MOL0     H17338   0.726   6.712  -0.189 -0.7550  0.6811  0.9939
  889MOL0     H17339   0.753   6.739  -0.012  0.1055 -1.7989 -0.3643
  889MOL0     H17340   0.922   6.916  -0.109 -2.8815 -0.4508  0.2093
  889MOL0     H17341   0.971   6.740  -0.129  0.3034  0.2031 -1.0141
  889MOL0     H17342   0.848   6.923  -0.352 -0.8155  0.3509 -0.8533
  889MOL0     H17343   0.872   6.747  -0.359 -3.0679  2.5387 -1.3088
  889MOL0     H17344   1.065   6.908  -0.454  4.5202  0.9586  0.7269
  889MOL0     H17345   1.096   6.943  -0.285  1.7319 -0.1257 -0.8522
  889MOL0     H17346   1.236   6.537  -0.348  1.1738  1.0705  3.2392
  889MOL0     H17347   0.559   7.102  -0.101 -0.6386  0.8898 -1.2095
  889MOL0     H17348   0.330   7.135  -0.019 -2.0463 -0.9534  1.0537
  890MOL0     O17349   0.033   3.970   4.851  0.1083 -0.1622  0.2476
  890MOL0     C17350   0.062   3.997   4.734  1.0016  0.2357 -0.2178
  890MOL0     O17351  -0.022   4.022   4.630  0.3706  0.3936  0.6983
  890MOL0     C17352  -0.155   4.012   4.665 -0.6186  0.5033  1.0286
  890MOL0     C17353  -0.246   3.910   4.626 -0.6896 -0.1348  0.5186
  890MOL0     C17354  -0.383   3.917   4.653 -1.0136 -0.1006  0.4271
  890MOL0     C17355  -0.440   4.026   4.728 -0.1777 -0.2482 -0.1630
  890MOL0     O17356  -0.568   4.035   4.768 -0.2916 -0.3289  0.6476
  890MOL0     C17357  -0.643   3.922   4.734  0.2334 -1.6080  1.0951
  890MOL0     C17358  -0.788   3.969   4.790  0.2744 -0.0627 -0.0317
  890MOL0     C17359  -0.887   3.861   4.760 -0.9248  0.0136 -0.0313
  890MOL0     C17360  -1.027   3.908   4.791 -0.6632  0.8008 -0.0815
  890MOL0     C17361  -1.136   3.809   4.761  0.0866 -0.1464  0.7566
  890MOL0     C17362  -1.280   3.854   4.729  0.6795 -1.0234 -0.0596
  890MOL0     C17363  -1.376   3.738   4.709 -0.0309  0.0311 -0.7413
  890MOL0     C17364  -1.363   3.682   4.570 -0.4619 -0.0290 -0.0609
  890MOL0     N17365  -1.484   3.605   4.549  0.3747 -0.2386  0.3680
  890MOL0     C17366  -1.526   3.490   4.614 -0.7500 -0.4411 -0.0711
  890MOL0     C17367  -1.657   3.466   4.576  0.4322 -1.0469  0.0105
  890MOL0     C17368  -1.740   3.338   4.575 -0.2823  0.0898  0.1857
  890MOL0     C17369  -1.859   3.361   4.671  0.3800  0.3668  0.0701
  890MOL0     C17370  -1.813   3.364   4.809  0.4687  0.7337  0.3304
  890MOL0     C17371  -1.926   3.375   4.911 -0.3631  0.3709  0.2464
  890MOL0     O17372  -1.952   3.507   4.954 -0.3925  0.1161  0.1470
  890MOL0     C17373  -2.063   3.530   5.038 -0.2406 -1.3012 -0.9445
  890MOL0     C17374  -2.089   3.664   5.070  0.4406 -0.4718  0.9089
  890MOL0     C17375  -2.194   3.703   5.159 -0.7811 -0.1144 -0.2867
  890MOL0     C17376  -2.266   3.609   5.232 -0.2185  0.6192  1.1113
  890MOL0     C17377  -2.380   3.643   5.317 -0.0345 -0.3765 -0.4976
  890MOL0     O17378  -2.386   3.765   5.371  0.3010  0.5122  0.4547
  890MOL0     C17379  -2.505   3.798   5.423  1.0687  0.3660 -0.5475
  890MOL0     C17380  -2.605   3.862   5.343 -0.4140  0.4458  0.8833
  890MOL0     C17381  -2.728   3.886   5.402  0.5946 -1.1439  0.1146
  890MOL0     C17382  -2.749   3.860   5.542 -0.1473  0.7533 -0.3350
  890MOL0     O17383  -2.868   3.866   5.607  0.1401 -0.4210 -0.0210
  890MOL0     C17384  -2.967   3.954   5.560  0.5007 -0.1655  0.4005
  890MOL0     C17385  -3.083   3.978   5.661  0.3593  0.5749 -0.0983
  890MOL0     C17386  -3.026   3.996   5.798  0.9691 -0.2296 -0.6782
  890MOL0     C17387  -3.127   4.056   5.899  1.2738 -0.1519  0.3344
  890MOL0     C17388  -3.252   3.981   5.914  0.5886 -0.0893  0.4455
  890MOL0     C17389  -3.303   4.015   6.053 -0.2032 -0.3159 -1.0686
  890MOL0     C17390  -3.436   3.934   6.076 -0.1027 -0.1954 -0.1061
  890MOL0     C17391  -3.479   3.928   6.222 -0.2534 -0.2416  0.5882
  890MOL0    Cl17392  -3.486   4.096   6.282  0.0102 -0.2892  0.1938
  890MOL0     C17393  -2.646   3.807   5.622 -0.4839 -0.6713  0.0172
  890MOL0     C17394  -2.525   3.775   5.560 -0.4205 -0.3379  0.5521
  890MOL0     O17395  -2.458   3.549   5.332 -0.5634 -0.7087  0.0971
  890MOL0     C17396  -2.239   3.473   5.198 -0.8615  0.0001 -0.0127
  890MOL0     C17397  -2.140   3.435   5.104  0.3353 -0.5246  0.6999
  890MOL0     N17398  -1.689   3.574   4.486  0.3979 -0.0380  0.2323
  890MOL0     N17399  -1.585   3.649   4.468  0.2056  0.1132  0.5092
  890MOL0     C17400  -0.351   4.126   4.765  0.7173 -0.4161  0.0215
  890MOL0     C17401  -0.210   4.116   4.736 -0.2476 -0.2218 -0.1879
  890MOL0     C17402   0.205   4.008   4.698 -0.7821 -0.3681  0.4327
  890MOL0     C17403   0.304   3.990   4.800  0.5507 -0.2195  0.1577
  890MOL0     C17404   0.440   4.006   4.766 -0.4441  0.4984  0.3589
  890MOL0     C17405   0.480   4.054   4.644 -1.0605  0.2131  1.1330
  890MOL0     O17406   0.615   4.081   4.623 -0.6110  0.0430  0.0244
  890MOL0     C17407   0.659   4.115   4.491  0.6697 -0.1348  0.6875
  890MOL0     C17408   0.805   4.137   4.478 -0.2578 -0.5932  0.7892
  890MOL0     C17409   0.844   4.278   4.527  0.6594  0.0525 -0.7453
  890MOL0     C17410   0.873   4.285   4.677  0.2515  0.4779  0.1429
  890MOL0     C17411   1.002   4.220   4.706 -0.8367  0.3074 -0.3098
  890MOL0     C17412   1.114   4.182   4.728  0.8191 -0.4277 -0.3173
  890MOL0     C17413   0.374   4.089   4.554 -1.0388 -0.1786  0.4421
  890MOL0     C17414   0.246   4.055   4.572  0.6767 -0.4113  0.7069
  890MOL0     H17415  -0.209   3.829   4.564 -1.7209 -0.7561  0.6928
  890MOL0     H17416  -0.440   3.838   4.608  0.6325 -0.8868 -0.3499
  890MOL0     H17417  -0.616   3.824   4.775  0.8906 -1.1914  1.6750
  890MOL0     H17418  -0.653   3.913   4.626 -0.3027  0.3116  0.9474
  890MOL0     H17419  -0.811   4.058   4.730 -0.4728 -1.6455 -2.2490
  890MOL0     H17420  -0.791   3.984   4.898  1.8861 -0.7089  0.1230
  890MOL0     H17421  -0.850   3.769   4.804  2.4917  1.3091  0.1115
  890MOL0     H17422  -0.881   3.836   4.654  0.2443 -0.4631  0.1304
  890MOL0     H17423  -1.032   3.944   4.894  2.7249 -0.2584  0.5713
  890MOL0     H17424  -1.048   3.993   4.725  3.6951  2.1135 -0.1261
  890MOL0     H17425  -1.146   3.738   4.844 -0.5153  0.2411  1.0205
  890MOL0     H17426  -1.103   3.765   4.667 -5.8555 -1.2747 -1.2155
  890MOL0     H17427  -1.281   3.920   4.642  2.0237  1.3284  1.5985
  890MOL0     H17428  -1.311   3.921   4.810 -0.8153  1.1325 -2.2811
  890MOL0     H17429  -1.370   3.663   4.788  1.7634  0.7326 -0.1643
  890MOL0     H17430  -1.473   3.786   4.718  0.3672  0.5824  1.0238
  890MOL0     H17431  -1.280   3.611   4.575 -0.8453 -0.4713  0.1168
  890MOL0     H17432  -1.358   3.759   4.492 -5.2766  0.3714 -0.2799
  890MOL0     H17433  -1.456   3.429   4.670 -1.1493 -0.9031 -0.0724
  890MOL0     H17434  -1.676   3.263   4.622 -0.4250 -0.3740 -0.3526
  890MOL0     H17435  -1.787   3.312   4.480 -0.2677  0.5366  0.0550
  890MOL0     H17436  -1.916   3.269   4.657 -0.9203  1.6051 -3.9582
  890MOL0     H17437  -1.919   3.448   4.645  0.1511  0.3808  0.6119
  890MOL0     H17438  -1.750   3.276   4.821 -1.0498 -0.2794  1.1897
  890MOL0     H17439  -1.752   3.454   4.818  0.1328  1.5290 -3.4884
  890MOL0     H17440  -1.892   3.314   4.996 -0.8010 -0.3268 -0.0660
  890MOL0     H17441  -2.016   3.328   4.872  0.3138  2.3226 -4.3026
  890MOL0     H17442  -2.030   3.737   5.017 -2.2868 -0.8534 -3.1040
  890MOL0     H17443  -2.210   3.810   5.173 -2.0071 -0.6235  3.2186
  890MOL0     H17444  -2.590   3.906   5.245  0.2830  3.5727  2.2501
  890MOL0     H17445  -2.809   3.928   5.344  1.8806  2.6693  0.7606
  890MOL0     H17446  -3.004   3.904   5.470 -0.0640 -1.3356  1.2642
  890MOL0     H17447  -2.929   4.052   5.530  0.0636  0.6751  2.4284
  890MOL0     H17448  -3.153   3.895   5.651 -1.0203  1.5853  0.8362
  890MOL0     H17449  -3.140   4.069   5.638  0.7361  0.5207 -1.3006
  890MOL0     H17450  -2.938   4.060   5.795 -0.5347  1.9815 -0.3268
  890MOL0     H17451  -2.994   3.901   5.841 -0.7180  0.3309  2.0856
  890MOL0     H17452  -3.069   4.069   5.991 -0.5922 -0.8810  1.6746
  890MOL0     H17453  -3.159   4.159   5.881 -1.6255  0.1130  5.1730
  890MOL0     H17454  -3.235   3.874   5.901 -0.2749  0.1043 -3.9662
  890MOL0     H17455  -3.327   4.012   5.840  0.4385 -1.2350  0.0934
  890MOL0     H17456  -3.312   4.121   6.078 -0.4490 -0.8735  1.4492
  890MOL0     H17457  -3.230   3.999   6.133 -0.6718 -1.0898 -0.7898
  890MOL0     H17458  -3.514   3.985   6.019  0.7678 -0.3509 -1.4697
  890MOL0     H17459  -3.425   3.839   6.024 -2.1084  0.7259 -2.4060
  890MOL0     H17460  -3.407   3.868   6.278  0.8755  1.3138  0.8711
  890MOL0     H17461  -3.575   3.879   6.237 -0.0762 -1.4625 -1.7681
  890MOL0     H17462  -2.660   3.799   5.730 -0.3796 -2.3181 -0.0716
  890MOL0     H17463  -2.448   3.718   5.611 -0.7629 -2.3955 -1.1088
  890MOL0     H17464  -2.296   3.394   5.245  0.9956 -1.3546  0.0642
  890MOL0     H17465  -2.123   3.330   5.081  2.9542  0.0299 -0.1739
  890MOL0     H17466  -0.393   4.208   4.822 -0.3307 -0.1299 -1.1338
  890MOL0     H17467  -0.151   4.203   4.761  0.0163 -0.9132  1.7011
  890MOL0     H17468   0.267   3.969   4.900 -0.1478  1.9464  0.4070
  890MOL0     H17469   0.518   3.984   4.838  2.7816  2.4837 -2.2293
  890MOL0     H17470   0.609   4.206   4.455  1.8843 -0.2537 -1.4689
  890MOL0     H17471   0.648   4.034   4.419  1.4716 -0.2054  0.6390
  890MOL0     H17472   0.862   4.065   4.539  1.1149 -0.9176 -0.8078
  890MOL0     H17473   0.841   4.116   4.377 -0.9845 -0.0219  0.4072
  890MOL0     H17474   0.760   4.338   4.490 -1.6999 -2.9189 -0.6338
  890MOL0     H17475   0.936   4.311   4.479  0.4322  0.4787 -0.8985
  890MOL0     H17476   0.884   4.386   4.717  1.7428 -0.3934  2.0700
  890MOL0     H17477   0.794   4.228   4.726 -0.1555  1.1099  0.2244
  890MOL0     H17478   1.219   4.159   4.735  1.0259  0.6096  0.1317
  890MOL0     H17479   0.399   4.139   4.461 -2.6173 -2.7129 -1.5020
  890MOL0     H17480   0.169   4.072   4.498 -1.4433 -0.9362  2.6675
  891MOL0     O17481   2.137   9.590   9.966 -0.6081  0.1946  0.5562
  891MOL0     C17482   2.191   9.482   9.957 -0.4062  0.3658  0.0339
  891MOL0     O17483   2.132   9.370   9.963  0.4304 -0.1722  1.0852
  891MOL0     C17484   1.991   9.365   9.984  0.3824  0.2396 -0.8684
  891MOL0     C17485   1.909   9.392   9.882 -0.8357 -0.4948  0.1321
  891MOL0     C17486   1.770   9.392   9.912 -0.2836  1.3535  0.4568
  891MOL0     C17487   1.717   9.365  10.039  0.4003  0.2638  0.0638
  891MOL0     O17488   1.585   9.339  10.048 -0.4675 -0.8985  0.2385
  891MOL0     C17489   1.522   9.307  10.172 -0.0814 -0.4672  0.3542
  891MOL0     C17490   1.368   9.283  10.152 -0.6318 -0.1597  0.5823
  891MOL0     C17491   1.308   9.228  10.279  0.7897  0.6672 -0.1426
  891MOL0     C17492   1.157   9.241  10.278 -0.3179  0.1095  0.4941
  891MOL0     C17493   1.122   9.180  10.415 -0.8507  0.7780  0.0241
  891MOL0     C17494   0.972   9.198  10.432 -0.3345 -0.3932 -0.0329
  891MOL0     C17495   0.883   9.091  10.365 -0.5901 -0.1731  0.5315
  891MOL0     C17496   0.738   9.141  10.350  0.2062  0.3782 -0.9201
  891MOL0     N17497   0.670   9.149  10.487 -0.2200 -0.2246  0.6584
  891MOL0     C17498   0.692   9.244  10.585  0.5115 -0.7650 -0.1090
  891MOL0     C17499   0.623   9.208  10.698  0.1991  0.1783 -0.5373
  891MOL0     C17500   0.628   9.283  10.830 -0.6515  0.4861  0.2498
  891MOL0     C17501   0.486   9.334  10.866  0.3228 -0.4695 -0.0677
  891MOL0     C17502   0.381   9.240  10.926 -0.6827  0.1397  0.6840
  891MOL0     C17503   0.289   9.313  11.028 -0.7700 -0.0273 -0.0168
  891MOL0     O17504   0.184   9.227  11.063  0.0570  0.0865  0.4191
  891MOL0     C17505   0.067   9.286  11.082 -0.3759  0.2056 -0.8965
  891MOL0     C17506   0.022   9.363  11.193 -0.3229 -0.9625  0.2010
  891MOL0     C17507  -0.096   9.433  11.198  0.2040  0.2886  0.5937
  891MOL0     C17508  -0.179   9.426  11.082 -0.1487  0.2148 -0.4571
  891MOL0     C17509  -0.304   9.508  11.080 -0.2070  1.0484  0.4372
  891MOL0     O17510  -0.327   9.597  11.177 -0.7846  0.0322 -1.2369
  891MOL0     C17511  -0.461   9.635  11.202 -1.2472 -1.3404  0.8643
  891MOL0     C17512  -0.573   9.547  11.218  0.4111 -0.5570 -1.0253
  891MOL0     C17513  -0.700   9.587  11.266 -0.2812  0.7355  0.5431
  891MOL0     C17514  -0.716   9.719  11.289  0.2498 -0.2418 -0.9499
  891MOL0     O17515  -0.837   9.774  11.329  0.2720  0.2518  0.4686
  891MOL0     C17516  -0.937   9.696  11.397  0.2544  0.1084  0.4322
  891MOL0     C17517  -1.006   9.792  11.504 -0.1401  0.5187 -0.3674
  891MOL0     C17518  -1.070   9.918  11.454 -0.5118  0.5608  0.6601
  891MOL0     C17519  -1.147   9.995  11.558  0.4799 -0.0170  0.2463
  891MOL0     C17520  -1.239  10.116  11.516 -0.2849  0.8115 -0.2119
  891MOL0     C17521  -1.363  10.075  11.436 -0.2753 -0.5730 -0.0143
  891MOL0     C17522  -1.446  10.199  11.400 -0.0174 -0.0913  0.1594
  891MOL0     C17523  -1.541  10.244  11.508 -0.1757 -0.9386  0.0894
  891MOL0    Cl17524  -1.689  10.149  11.509  0.0625 -0.1224 -0.2293
  891MOL0     C17525  -0.605   9.809  11.286 -0.0759  0.0388 -0.6081
  891MOL0     C17526  -0.483   9.774  11.237  0.0230  0.8149  0.2730
  891MOL0     O17527  -0.389   9.473  10.997  0.9135  0.6231 -0.1231
  891MOL0     C17528  -0.144   9.343  10.968 -0.4900  0.1077  0.2992
  891MOL0     C17529  -0.018   9.277  10.971 -0.4412  0.2342 -0.1442
  891MOL0     N17530   0.556   9.089  10.669  0.2699 -0.0658  0.3103
  891MOL0     N17531   0.586   9.053  10.545 -0.2451  0.2604  0.3398
  891MOL0     C17532   1.810   9.347  10.144  0.9111  0.3295 -0.8404
  891MOL0     C17533   1.943   9.347  10.114 -0.4945 -0.3131 -1.0028
  891MOL0     C17534   2.342   9.478   9.975  0.0168  0.5251  0.8209
  891MOL0     C17535   2.406   9.368  10.044 -0.0701  0.4634  0.8545
  891MOL0     C17536   2.542   9.368  10.068  0.3290 -0.3824  0.7601
  891MOL0     C17537   2.626   9.464  10.001 -0.3497  0.6093  0.0267
  891MOL0     O17538   2.765   9.467  10.038 -0.1862  1.1523  0.0888
  891MOL0     C17539   2.794   9.517  10.171  0.5608 -0.3186 -1.0135
  891MOL0     C17540   2.929   9.594  10.183  0.6707 -0.4815 -0.3263
  891MOL0     C17541   2.984   9.574  10.326 -0.3370 -0.8594  0.5245
  891MOL0     C17542   3.084   9.677  10.381 -0.2494 -0.7998 -0.7087
  891MOL0     C17543   3.195   9.700  10.288  0.2208 -0.3042  0.6312
  891MOL0     C17544   3.279   9.698  10.199 -0.3387  0.4499 -1.2458
  891MOL0     C17545   2.570   9.566   9.925  0.8169  0.2672  0.0553
  891MOL0     C17546   2.429   9.568   9.907  0.7116  0.2169  0.2823
  891MOL0     H17547   1.948   9.409   9.783  1.1854 -5.9568 -0.3696
  891MOL0     H17548   1.704   9.406   9.828  1.8919  0.4416 -1.5221
  891MOL0     H17549   1.537   9.387  10.245  1.9643  0.2417 -0.7526
  891MOL0     H17550   1.555   9.216  10.223 -1.6014 -0.3417  1.6504
  891MOL0     H17551   1.365   9.201  10.080  0.1379 -0.5914  1.0413
  891MOL0     H17552   1.312   9.367  10.109 -2.3197 -1.8354 -0.6617
  891MOL0     H17553   1.343   9.301  10.352  0.6170  3.4664 -2.6671
  891MOL0     H17554   1.329   9.124  10.306 -0.3515  0.4047 -0.2025
  891MOL0     H17555   1.127   9.346  10.272 -0.7302  0.1535  2.7524
  891MOL0     H17556   1.118   9.181  10.195  1.5960 -0.4776 -0.0219
  891MOL0     H17557   1.188   9.220  10.493  1.8482  1.1781 -2.3045
  891MOL0     H17558   1.136   9.072  10.406  1.0226  0.9189  0.7486
  891MOL0     H17559   0.938   9.294  10.395 -1.2796 -2.4120 -5.2150
  891MOL0     H17560   0.946   9.189  10.538 -0.6863  2.5468  0.2110
  891MOL0     H17561   0.921   9.053  10.270  0.5545  1.4190  0.3160
  891MOL0     H17562   0.870   9.004  10.430 -1.2025  0.5160  1.3568
  891MOL0     H17563   0.681   9.058  10.306 -1.4417  0.7564  0.3773
  891MOL0     H17564   0.726   9.222  10.277 -1.1346  0.7348 -0.3320
  891MOL0     H17565   0.762   9.326  10.577 -1.7304  1.2582 -0.1073
  891MOL0     H17566   0.699   9.367  10.828 -0.1018  0.0233 -0.4790
  891MOL0     H17567   0.671   9.225  10.912 -1.8113 -0.5057  0.1652
  891MOL0     H17568   0.444   9.375  10.773  0.5192  0.0373  0.0630
  891MOL0     H17569   0.496   9.425  10.925 -2.2376  2.1080 -3.1722
  891MOL0     H17570   0.314   9.194  10.854 -1.9748 -2.7774  3.5034
  891MOL0     H17571   0.434   9.153  10.965 -0.0226 -0.7270 -1.9409
  891MOL0     H17572   0.250   9.402  10.978 -2.5910 -0.0248  1.2916
  891MOL0     H17573   0.350   9.336  11.116  0.2688 -0.3347 -0.6489
  891MOL0     H17574   0.086   9.380  11.279 -1.6748 -0.0285  1.0496
  891MOL0     H17575  -0.120   9.483  11.291 -0.9186  0.3516  0.2978
  891MOL0     H17576  -0.565   9.440  11.202  1.8918 -0.8174  1.0433
  891MOL0     H17577  -0.776   9.511  11.281  0.6275  0.0924  2.1144
  891MOL0     H17578  -0.884   9.617  11.453  1.9085  0.9305  0.0906
  891MOL0     H17579  -1.004   9.649  11.325  1.0939 -0.7738  0.1982
  891MOL0     H17580  -0.925   9.818  11.573  0.0331 -2.8725  0.8732
  891MOL0     H17581  -1.083   9.725  11.542  0.5617  0.2868  0.6972
  891MOL0     H17582  -1.137   9.891  11.371 -0.7035 -2.5893  1.7090
  891MOL0     H17583  -0.989   9.984  11.422  3.2417 -3.5451  0.7001
  891MOL0     H17584  -1.208   9.921  11.610  1.6255  0.1848  1.9466
  891MOL0     H17585  -1.080  10.040  11.631 -0.4412  0.1564  1.0100
  891MOL0     H17586  -1.173  10.185  11.461  0.6357  0.7945  0.8333
  891MOL0     H17587  -1.272  10.171  11.605 -1.7144  0.2026 -0.3373
  891MOL0     H17588  -1.422   9.999  11.489 -1.3824 -0.9623 -1.7363
  891MOL0     H17589  -1.328  10.026  11.345 -0.4055  1.5734 -1.2991
  891MOL0     H17590  -1.386  10.282  11.359 -0.3488  1.9734  3.5226
  891MOL0     H17591  -1.508  10.174  11.313 -1.7376 -0.6787  1.5104
  891MOL0     H17592  -1.567  10.349  11.497 -0.1308 -1.1359 -2.4868
  891MOL0     H17593  -1.495  10.235  11.607  1.4908  1.2903 -0.4222
  891MOL0     H17594  -0.622   9.913  11.313 -0.1232  0.0711 -0.7652
  891MOL0     H17595  -0.409   9.849  11.211 -1.5495  1.7731 -1.7010
  891MOL0     H17596  -0.207   9.340  10.880 -0.7201  0.3402  0.4518
  891MOL0     H17597   0.001   9.204  10.893  1.9005  0.0594  0.5021
  891MOL0     H17598   1.779   9.335  10.247  0.0602  1.7205 -0.9087
  891MOL0     H17599   2.012   9.341  10.197  0.8955 -0.8683 -2.1638
  891MOL0     H17600   2.337   9.302  10.096  0.7934 -1.3878 -0.2680
  891MOL0     H17601   2.586   9.282  10.117 -0.1418 -1.8870 -1.3318
  891MOL0     H17602   2.799   9.427  10.232  0.1494 -0.3900 -1.0823
  891MOL0     H17603   2.715   9.583  10.208  0.3326 -0.5921 -1.0094
  891MOL0     H17604   3.009   9.547  10.125  1.7681 -0.6683  1.2425
  891MOL0     H17605   2.920   9.701  10.165 -0.7009  0.0784  2.9863
  891MOL0     H17606   3.034   9.478  10.335  0.0032 -0.6098  1.4585
  891MOL0     H17607   2.902   9.572  10.398 -0.1105 -2.8757  0.7596
  891MOL0     H17608   3.027   9.768  10.403 -0.2787 -1.4910  2.5294
  891MOL0     H17609   3.119   9.647  10.480  0.8040 -1.3822 -1.2415
  891MOL0     H17610   3.353   9.704  10.122  1.7972  3.2851  0.8086
  891MOL0     H17611   2.633   9.640   9.879  0.9833  1.3647  1.9539
  891MOL0     H17612   2.384   9.641   9.840  1.4555  0.5186  0.1036
  892MOL0     O17613  10.148   8.957   0.943  0.6447  0.3016 -0.6134
  892MOL0     C17614  10.221   8.991   1.034  0.3996 -0.2780 -0.3898
  892MOL0     O17615  10.176   9.056   1.148 -0.5076 -0.1096  0.0483
  892MOL0     C17616  10.042   9.104   1.151 -0.4094  0.0462  0.6709
  892MOL0     C17617   9.955   9.051   1.252  0.3077 -0.1743 -0.4868
  892MOL0     C17618   9.811   9.088   1.257 -0.4825 -0.0376  0.4809
  892MOL0     C17619   9.764   9.178   1.159  0.1062  0.0948  0.9154
  892MOL0     O17620   9.634   9.197   1.134  0.0197  0.2538 -0.0248
  892MOL0     C17621   9.538   9.099   1.189  0.3173  0.4367 -0.0845
  892MOL0     C17622   9.409   9.128   1.125  0.1999 -0.1849 -0.1937
  892MOL0     C17623   9.293   9.030   1.161  0.5943  0.1860  0.7271
  892MOL0     C17624   9.275   8.994   1.309  0.7382 -0.4747 -0.2712
  892MOL0     C17625   9.145   8.910   1.336 -0.6957  0.5407 -0.4489
  892MOL0     C17626   9.022   9.000   1.325 -0.0054  0.2976  1.1010
  892MOL0     C17627   8.914   8.898   1.347  0.3845 -0.3716  0.4329
  892MOL0     C17628   8.780   8.970   1.363  0.1536  0.5092  0.4156
  892MOL0     N17629   8.664   8.887   1.325 -0.6797 -0.1617 -0.2707
  892MOL0     C17630   8.556   8.924   1.248  0.3713  0.9101  0.1202
  892MOL0     C17631   8.470   8.815   1.253 -0.0157 -0.9801  0.5180
  892MOL0     C17632   8.350   8.786   1.160 -0.0271 -0.3401 -0.8265
  892MOL0     C17633   8.224   8.844   1.215  0.2386 -0.0313 -0.0419
  892MOL0     C17634   8.158   8.752   1.316 -0.0273 -0.4914  0.1395
  892MOL0     C17635   8.044   8.819   1.397 -0.2494  0.2049 -0.3763
  892MOL0     O17636   7.941   8.862   1.303 -0.0574  0.5333 -0.0151
  892MOL0     C17637   7.808   8.837   1.320  0.3816  0.3963 -0.0545
  892MOL0     C17638   7.751   8.886   1.449 -0.9777  0.3307  0.6927
  892MOL0     C17639   7.616   8.898   1.460  0.9193  0.0407 -0.1451
  892MOL0     C17640   7.535   8.870   1.355  0.5630  0.2792 -0.7237
  892MOL0     C17641   7.389   8.898   1.356 -0.2168 -0.4489  0.1586
  892MOL0     O17642   7.325   8.923   1.239 -0.0222 -0.0326  0.1799
  892MOL0     C17643   7.183   8.935   1.239  0.2146  0.4311  0.1878
  892MOL0     C17644   7.099   8.826   1.259  0.1702 -0.0023 -0.8093
  892MOL0     C17645   6.965   8.842   1.248  0.4549 -0.1973 -0.3294
  892MOL0     C17646   6.905   8.973   1.217 -0.6505  0.1034  0.5898
  892MOL0     O17647   6.774   8.999   1.193 -0.1402  0.3385  0.0263
  892MOL0     C17648   6.693   8.882   1.152 -0.2676  0.8158 -0.2165
  892MOL0     C17649   6.569   8.928   1.079 -0.2220  0.7912  0.0813
  892MOL0     C17650   6.494   9.053   1.125  0.5021  0.1320 -0.8341
  892MOL0     C17651   6.417   9.015   1.248 -0.4133 -0.1494  0.5355
  892MOL0     C17652   6.320   9.124   1.293 -0.5956 -0.1664  0.3860
  892MOL0     C17653   6.240   9.074   1.413  0.4553  0.2228 -0.4195
  892MOL0     C17654   6.152   9.190   1.471  1.0019  0.0601  0.2097
  892MOL0     C17655   6.098   9.163   1.610 -0.0151  0.7991 -0.5478
  892MOL0    Cl17656   6.225   9.159   1.731  0.2322  0.1744  0.3921
  892MOL0     C17657   6.992   9.083   1.205  0.0633 -0.4485 -0.0072
  892MOL0     C17658   7.127   9.066   1.227  0.7149  0.2549  0.8656
  892MOL0     O17659   7.337   8.898   1.466 -0.3244  0.5154  0.1531
  892MOL0     C17660   7.593   8.834   1.234  0.4505  0.6223 -0.7661
  892MOL0     C17661   7.725   8.811   1.215 -0.1868  0.4458  1.2294
  892MOL0     N17662   8.536   8.714   1.318  0.5684  0.3396 -1.0124
  892MOL0     N17663   8.645   8.759   1.373 -0.3878  0.0738  0.4615
  892MOL0     C17664   9.857   9.243   1.076  0.6658 -0.7007 -0.5817
  892MOL0     C17665   9.995   9.212   1.071  0.3266  0.5739 -0.1124
  892MOL0     C17666  10.359   8.958   1.033 -0.6257  0.2521 -0.7555
  892MOL0     C17667  10.436   8.953   1.156 -0.0619 -0.7750 -0.4023
  892MOL0     C17668  10.571   8.933   1.151  0.5378  0.0086  0.3483
  892MOL0     C17669  10.641   8.936   1.033 -0.7049  0.3123  1.1651
  892MOL0     O17670  10.781   8.942   1.007  0.5878  0.5694 -0.1384
  892MOL0     C17671  10.863   8.962   1.127 -0.3824  0.7975 -0.1914
  892MOL0     C17672  11.014   8.946   1.097  0.8238  0.2450  0.6542
  892MOL0     C17673  11.074   9.025   0.976 -0.3629 -0.7389 -0.6300
  892MOL0     C17674  11.229   9.053   0.979  0.2251 -0.2077  0.4037
  892MOL0     C17675  11.256   9.153   0.874 -0.4605  0.4653 -0.4534
  892MOL0     C17676  11.274   9.250   0.808 -0.6008  0.1480  0.0724
  892MOL0     C17677  10.564   8.936   0.919 -1.0963  0.1776  0.5917
  892MOL0     C17678  10.427   8.943   0.915 -0.3189  0.6671 -0.7797
  892MOL0     H17679   9.979   8.985   1.335 -0.0242 -0.0543 -0.2953
  892MOL0     H17680   9.751   9.054   1.341  1.3401  1.4008  2.4633
  892MOL0     H17681   9.530   9.109   1.297 -1.1406  0.2463 -0.1559
  892MOL0     H17682   9.566   8.996   1.169  1.6525  0.5646  0.9523
  892MOL0     H17683   9.420   9.134   1.016  1.1061  4.4648 -0.0436
  892MOL0     H17684   9.386   9.227   1.165  1.8266  0.0567  0.2359
  892MOL0     H17685   9.300   8.938   1.103 -4.7653 -0.6684  0.8748
  892MOL0     H17686   9.196   9.066   1.123  0.6741 -0.3644 -0.0071
  892MOL0     H17687   9.362   8.937   1.343  1.1470  0.8666  1.0731
  892MOL0     H17688   9.270   9.082   1.374 -0.9733 -2.3945  2.4014
  892MOL0     H17689   9.147   8.857   1.431 -0.3276 -0.5131 -1.0310
  892MOL0     H17690   9.153   8.831   1.261  4.2456 -0.3687  0.7134
  892MOL0     H17691   9.012   9.044   1.226 -1.8629 -1.0604  0.6404
  892MOL0     H17692   9.020   9.072   1.408  1.0028  1.5410  0.0915
  892MOL0     H17693   8.904   8.828   1.264  0.3584 -0.7232  0.7322
  892MOL0     H17694   8.923   8.845   1.442 -1.7898 -1.9498 -0.1676
  892MOL0     H17695   8.789   9.056   1.296 -0.7298 -0.9060 -1.6177
  892MOL0     H17696   8.763   9.009   1.464 -0.6183  1.0467  0.0926
  892MOL0     H17697   8.523   9.016   1.200 -2.8404 -0.0042  0.3722
  892MOL0     H17698   8.331   8.679   1.150 -5.3734  0.2849 -0.1049
  892MOL0     H17699   8.373   8.837   1.065  0.0144 -0.3702 -0.8323
  892MOL0     H17700   8.159   8.848   1.128  1.2671  1.9657 -0.7911
  892MOL0     H17701   8.232   8.944   1.258 -1.5274 -0.1519  0.6450
  892MOL0     H17702   8.113   8.670   1.258 -0.0218 -1.5957  1.6350
  892MOL0     H17703   8.232   8.721   1.390  0.3587  1.3166  0.5391
  892MOL0     H17704   8.087   8.901   1.456  0.5526 -1.1728  1.0022
  892MOL0     H17705   8.011   8.757   1.481 -0.9047  0.5729 -0.3525
  892MOL0     H17706   7.825   8.901   1.526  0.3742 -0.7964 -0.3176
  892MOL0     H17707   7.584   8.944   1.553  0.7797  0.2033 -0.2734
  892MOL0     H17708   7.138   8.729   1.290  2.0214 -0.1517 -3.3362
  892MOL0     H17709   6.907   8.751   1.252  0.4260 -0.1788 -0.3246
  892MOL0     H17710   6.658   8.842   1.248  0.8342  2.5040  0.9305
  892MOL0     H17711   6.742   8.810   1.085 -0.7991  0.5137 -0.2881
  892MOL0     H17712   6.495   8.848   1.068  0.1217  0.6152 -1.1810
  892MOL0     H17713   6.612   8.957   0.983 -0.4304  3.5470  0.7585
  892MOL0     H17714   6.426   9.085   1.047  1.8799  2.3098 -1.2302
  892MOL0     H17715   6.553   9.142   1.147 -1.2348  1.0775  0.1971
  892MOL0     H17716   6.360   8.925   1.222 -0.3564  0.0406 -0.2677
  892MOL0     H17717   6.487   8.990   1.329  1.3245  1.7143 -0.3110
  892MOL0     H17718   6.243   9.154   1.220 -1.0946  2.3959  1.8431
  892MOL0     H17719   6.382   9.208   1.323  1.7216 -1.0312 -1.6637
  892MOL0     H17720   6.305   9.046   1.496  1.0370  2.5136 -0.0367
  892MOL0     H17721   6.189   8.986   1.371  1.2636 -0.6982  0.4700
  892MOL0     H17722   6.221   9.272   1.493  2.0758 -0.4312 -1.1979
  892MOL0     H17723   6.075   9.227   1.403  2.8201  2.9048 -0.4574
  892MOL0     H17724   6.039   9.071   1.604  0.9164  0.2204 -1.1340
  892MOL0     H17725   6.031   9.237   1.653  2.6722  0.5006  4.9262
  892MOL0     H17726   6.963   9.184   1.178 -2.4125 -1.3037 -0.7868
  892MOL0     H17727   7.194   9.151   1.228  0.2266  0.6499  0.5469
  892MOL0     H17728   7.519   8.825   1.155 -0.2555 -2.1706  0.0902
  892MOL0     H17729   7.764   8.783   1.117  0.5362  2.2204  0.9677
  892MOL0     H17730   9.808   9.305   1.001 -1.4768 -1.1822  0.3499
  892MOL0     H17731  10.056   9.255   0.992  0.4479  1.9087  0.6892
  892MOL0     H17732  10.387   8.960   1.252  0.4788  2.1805 -0.2590
  892MOL0     H17733  10.630   8.937   1.242  2.3894 -1.6651 -0.7162
  892MOL0     H17734  10.845   8.887   1.206  1.8793  0.0284 -0.3526
  892MOL0     H17735  10.842   9.056   1.178 -0.3637  1.6272 -1.6820
  892MOL0     H17736  11.063   8.980   1.189  4.8218 -2.5953 -0.1463
  892MOL0     H17737  11.033   8.839   1.084 -3.1071 -0.4421 -1.0365
  892MOL0     H17738  11.029   9.124   0.963  1.9643  0.1385 -2.8131
  892MOL0     H17739  11.049   8.967   0.887 -0.8715  0.4235 -1.2649
  892MOL0     H17740  11.271   9.061   1.079  1.2133 -0.1636 -0.0010
  892MOL0     H17741  11.288   8.964   0.955  0.9485  0.4891 -0.4545
  892MOL0     H17742  11.288   9.345   0.760  0.3373  0.3840  0.8044
  892MOL0     H17743  10.629   8.914   0.834 -1.0926 -0.3960  0.7444
  892MOL0     H17744  10.374   8.940   0.820 -2.7444  4.3476  0.2202
  893MOL0     O17745   2.658   7.807  10.381 -0.5790 -0.2312 -0.5076
  893MOL0     C17746   2.760   7.749  10.421  0.1476 -1.0327 -0.8721
  893MOL0     O17747   2.761   7.648  10.514 -0.4519  0.8806 -0.2865
  893MOL0     C17748   2.638   7.630  10.573 -1.2894 -0.8811  1.0467
  893MOL0     C17749   2.610   7.699  10.697  0.2824 -0.6011 -0.2580
  893MOL0     C17750   2.488   7.686  10.765 -1.0740 -0.2758 -0.1085
  893MOL0     C17751   2.395   7.603  10.701  0.0644 -1.0539  0.2965
  893MOL0     O17752   2.277   7.553  10.760  0.8207 -0.0893  0.7052
  893MOL0     C17753   2.182   7.655  10.799 -0.5966  0.2801  0.5306
  893MOL0     C17754   2.038   7.595  10.778  0.3689 -0.0536  0.1874
  893MOL0     C17755   1.919   7.684  10.811  0.2992 -0.1559 -0.8621
  893MOL0     C17756   1.937   7.784  10.934 -0.6426 -0.3622  0.7104
  893MOL0     C17757   1.973   7.715  11.068 -0.1946  0.1192  0.4307
  893MOL0     C17758   1.889   7.764  11.189 -0.3910 -0.3581  0.2667
  893MOL0     C17759   1.769   7.663  11.221  0.1481  0.1765  0.7741
  893MOL0     C17760   1.670   7.662  11.111 -0.2873  0.9206  0.3740
  893MOL0     N17761   1.538   7.613  11.150 -0.4004 -0.5173 -0.7100
  893MOL0     C17762   1.499   7.494  11.201  0.1247 -0.6872  0.9619
  893MOL0     C17763   1.370   7.504  11.232 -0.3311 -0.6495 -0.1020
  893MOL0     C17764   1.293   7.400  11.298 -0.1896  0.0129  0.3141
  893MOL0     C17765   1.138   7.425  11.316  0.7743  0.6032 -0.1663
  893MOL0     C17766   1.064   7.296  11.366  0.3255 -0.0845  0.6392
  893MOL0     C17767   0.917   7.312  11.344 -0.2668  0.4099 -0.1103
  893MOL0     O17768   0.873   7.431  11.410 -0.6650  0.1261 -0.6031
  893MOL0     C17769   0.737   7.453  11.400 -0.9527  0.0872 -0.1184
  893MOL0     C17770   0.637   7.365  11.358  0.3787  1.0772 -1.0816
  893MOL0     C17771   0.502   7.403  11.364 -0.2790  0.5493  0.2432
  893MOL0     C17772   0.467   7.530  11.400  0.0363  0.1098 -0.3184
  893MOL0     C17773   0.338   7.581  11.391  0.0494  0.0299 -0.6445
  893MOL0     O17774   0.243   7.484  11.365 -0.0807  0.1802  0.0211
  893MOL0     C17775   0.110   7.502  11.374 -0.3807 -0.2837  0.0055
  893MOL0     C17776   0.036   7.385  11.366 -0.4998 -0.2249  0.0006
  893MOL0     C17777  -0.100   7.373  11.365 -0.7411  0.0543 -0.3616
  893MOL0     C17778  -0.176   7.488  11.376 -0.2178  0.0580 -0.1624
  893MOL0     O17779  -0.312   7.501  11.358 -1.0362  0.5073 -0.4383
  893MOL0     C17780  -0.381   7.386  11.302  0.8081 -1.1629 -0.1182
  893MOL0     C17781  -0.502   7.433  11.229 -0.0246 -0.8798 -0.4893
  893MOL0     C17782  -0.603   7.479  11.328  0.0595  0.2246 -0.7110
  893MOL0     C17783  -0.738   7.493  11.252  0.0282  0.1422  0.2087
  893MOL0     C17784  -0.849   7.515  11.347 -0.1764  0.7062 -0.3897
  893MOL0     C17785  -0.985   7.465  11.289  0.1135  0.4991 -0.5420
  893MOL0     C17786  -1.032   7.548  11.169 -0.3811 -0.4039  0.3337
  893MOL0     C17787  -1.185   7.543  11.145  0.5571 -0.2618 -0.2202
  893MOL0    Cl17788  -1.243   7.644  11.282 -0.3883  0.3664 -0.0566
  893MOL0     C17789  -0.107   7.605  11.388  0.1390 -0.3060 -0.6431
  893MOL0     C17790   0.032   7.615  11.385 -0.3853 -0.4994  0.3586
  893MOL0     O17791   0.319   7.701  11.402 -0.0114  0.0422  0.5257
  893MOL0     C17792   0.567   7.609  11.448  0.0680 -0.2004  0.0473
  893MOL0     C17793   0.699   7.578  11.443  0.0391 -0.0642 -0.8216
  893MOL0     N17794   1.326   7.628  11.190  0.3020 -0.6094 -0.4701
  893MOL0     N17795   1.426   7.697  11.148  0.0850 -0.3779 -0.4270
  893MOL0     C17796   2.419   7.544  10.582 -0.7091  0.9267 -0.3048
  893MOL0     C17797   2.541   7.557  10.511  0.3332  0.0729 -0.3797
  893MOL0     C17798   2.887   7.766  10.344 -0.0622 -0.0756  0.0425
  893MOL0     C17799   3.006   7.693  10.376  0.4028 -0.3479 -0.3865
  893MOL0     C17800   3.125   7.718  10.297 -0.3112  0.0415  0.2622
  893MOL0     C17801   3.122   7.807  10.185  0.0959  0.3698 -0.6924
  893MOL0     O17802   3.229   7.831  10.106 -0.2586 -0.2177  0.7308
  893MOL0     C17803   3.351   7.761  10.124 -0.7795  0.1496  0.1303
  893MOL0     C17804   3.339   7.627  10.056  0.1425 -0.4460 -0.2435
  893MOL0     C17805   3.477   7.556  10.030  0.2414  0.7296  0.5644
  893MOL0     C17806   3.547   7.525  10.154  0.0811  0.0229  0.7847
  893MOL0     C17807   3.647   7.431  10.106  0.3785 -0.3860  0.3707
  893MOL0     C17808   3.728   7.358  10.052  0.3326  0.0073 -0.0199
  893MOL0     C17809   3.011   7.880  10.169 -0.6295  0.0566  0.3157
  893MOL0     C17810   2.893   7.863  10.249 -0.4779  0.2246 -0.2106
  893MOL0     H17811   2.693   7.764  10.722  0.5648  0.1469 -2.9243
  893MOL0     H17812   2.473   7.749  10.852  1.3776  1.9785 -1.1613
  893MOL0     H17813   2.192   7.750  10.746  1.7726 -1.0465 -1.5887
  893MOL0     H17814   2.199   7.693  10.901 -0.1023 -1.1470  1.0022
  893MOL0     H17815   2.025   7.510  10.846 -1.2460  1.8884  2.4562
  893MOL0     H17816   2.013   7.550  10.682 -2.9851  0.7667  0.5754
  893MOL0     H17817   1.826   7.629  10.820 -1.0417  2.0710 -0.2110
  893MOL0     H17818   1.917   7.756  10.728 -0.1279  2.3815  1.2278
  893MOL0     H17819   2.020   7.852  10.911  0.3153 -1.3614  1.1570
  893MOL0     H17820   1.855   7.856  10.947  0.0955  0.6498  0.0046
  893MOL0     H17821   2.078   7.745  11.078  0.3208 -1.5909  0.4180
  893MOL0     H17822   1.969   7.607  11.051  0.1689  0.1560  0.0817
  893MOL0     H17823   1.851   7.866  11.174 -0.3745  0.1187  2.9657
  893MOL0     H17824   1.943   7.776  11.284 -0.3689  1.6010  0.0449
  893MOL0     H17825   1.812   7.565  11.243  2.2429  0.4528 -1.5858
  893MOL0     H17826   1.712   7.697  11.308 -1.5657  1.2639 -0.7193
  893MOL0     H17827   1.699   7.604  11.023 -0.7474  2.5249 -0.8971
  893MOL0     H17828   1.641   7.764  11.084 -1.5791  0.9108  1.6174
  893MOL0     H17829   1.558   7.405  11.223  1.6170  0.6493  2.7196
  893MOL0     H17830   1.336   7.377  11.396  4.3792  0.9652 -1.2690
  893MOL0     H17831   1.304   7.314  11.231  1.9913  1.2584 -1.0146
  893MOL0     H17832   1.106   7.455  11.215  0.2255  0.4828 -0.0352
  893MOL0     H17833   1.109   7.506  11.382  0.3047 -1.1255  1.8629
  893MOL0     H17834   1.108   7.205  11.325  2.8421  1.5351 -0.5323
  893MOL0     H17835   1.088   7.292  11.473  0.1578 -1.9665  0.6346
  893MOL0     H17836   0.864   7.230  11.394 -1.2001  0.0399 -1.6536
  893MOL0     H17837   0.900   7.315  11.236  0.9320 -4.0080 -0.5814
  893MOL0     H17838   0.669   7.268  11.323  3.6180  1.1501  1.2692
  893MOL0     H17839   0.420   7.335  11.343 -1.1783  1.8543 -0.6483
  893MOL0     H17840   0.089   7.293  11.343  1.6429  1.1679 -0.9519
  893MOL0     H17841  -0.127   7.268  11.359  0.1314 -0.2685  1.0127
  893MOL0     H17842  -0.409   7.305  11.370 -1.1809 -1.9533 -1.7764
  893MOL0     H17843  -0.326   7.337  11.221  0.0426  1.4663 -2.3873
  893MOL0     H17844  -0.543   7.349  11.173  0.5774 -0.7847 -1.0723
  893MOL0     H17845  -0.484   7.517  11.162 -1.9869  0.6627  0.8041
  893MOL0     H17846  -0.565   7.577  11.360  3.2655 -0.8701 -0.8657
  893MOL0     H17847  -0.609   7.402  11.405  1.9613  0.7461  0.0190
  893MOL0     H17848  -0.735   7.575  11.179  0.9058  0.7050  0.8517
  893MOL0     H17849  -0.760   7.401  11.198 -2.2115 -0.1939  1.5617
  893MOL0     H17850  -0.859   7.621  11.372 -1.0171  1.1849 -2.4695
  893MOL0     H17851  -0.829   7.449  11.432  0.8940 -0.0603 -1.2016
  893MOL0     H17852  -1.053   7.476  11.374  0.2990  1.7297 -0.5351
  893MOL0     H17853  -0.967   7.360  11.261  0.6815  0.2629  0.6714
  893MOL0     H17854  -0.994   7.650  11.181 -0.1507 -0.4178 -0.2264
  893MOL0     H17855  -1.000   7.517  11.069 -0.8141 -2.1288  0.6983
  893MOL0     H17856  -1.218   7.439  11.156 -3.3887  0.6394 -2.0972
  893MOL0     H17857  -1.220   7.574  11.047  0.5723  1.0467  0.1638
  893MOL0     H17858  -0.170   7.693  11.391  2.2207  1.2267  0.4308
  893MOL0     H17859   0.087   7.709  11.382 -0.2694 -0.5893 -0.9681
  893MOL0     H17860   0.547   7.711  11.478  4.2214  1.4349 -1.9987
  893MOL0     H17861   0.776   7.642  11.484 -0.8631 -0.3983  1.5439
  893MOL0     H17862   2.344   7.479  10.539 -1.2607  1.9323 -0.9021
  893MOL0     H17863   2.549   7.511  10.413  3.6041  0.2929 -0.3196
  893MOL0     H17864   3.006   7.636  10.468 -0.7877  1.4554  0.7979
  893MOL0     H17865   3.215   7.665  10.327  1.3890  1.7346 -1.5539
  893MOL0     H17866   3.371   7.730  10.227  1.3600 -0.2539 -0.3524
  893MOL0     H17867   3.436   7.820  10.088 -1.5598 -0.8676 -3.8798
  893MOL0     H17868   3.282   7.567  10.127  3.0633 -0.8016  2.0389
  893MOL0     H17869   3.281   7.647   9.965  1.9229 -0.1418 -1.3611
  893MOL0     H17870   3.537   7.617   9.961 -1.5274  0.7858 -0.9848
  893MOL0     H17871   3.450   7.466   9.975 -0.1406  2.2523 -1.8822
  893MOL0     H17872   3.586   7.614  10.204 -0.8346  1.8691 -1.6053
  893MOL0     H17873   3.470   7.476  10.215 -2.3299  2.4400 -0.1321
  893MOL0     H17874   3.805   7.298  10.007  0.3284 -0.8963  1.1019
  893MOL0     H17875   2.992   7.957  10.096 -1.4489 -0.7774 -0.3805
  893MOL0     H17876   2.807   7.926  10.228 -0.5426  0.0643 -0.4380
  894MOL0     O17877   7.333   9.158   5.449 -0.2749  0.3432  0.2876
  894MOL0     C17878   7.374   9.266   5.482 -0.0044  0.4732  1.0593
  894MOL0     O17879   7.302   9.383   5.477  0.8478 -0.0351 -0.0091
  894MOL0     C17880   7.161   9.376   5.462  0.1278  0.0311  0.0724
  894MOL0     C17881   7.108   9.474   5.376  0.2334  0.2239 -0.5750
  894MOL0     C17882   6.973   9.481   5.359  0.3003  0.0244 -0.1844
  894MOL0     C17883   6.884   9.394   5.426  0.2850 -0.6296  0.3614
  894MOL0     O17884   6.754   9.386   5.393  0.1916 -0.2894 -0.2177
  894MOL0     C17885   6.703   9.417   5.266  0.9190  0.5628 -0.0529
  894MOL0     C17886   6.559   9.364   5.254  0.0404 -0.1947 -0.7608
  894MOL0     C17887   6.472   9.415   5.147  0.6542  0.1537  0.4752
  894MOL0     C17888   6.352   9.324   5.142 -0.2858 -0.5261  0.0780
  894MOL0     C17889   6.229   9.384   5.063 -0.5098 -0.3085 -0.3556
  894MOL0     C17890   6.098   9.290   5.062  0.0721  0.2750  0.7984
  894MOL0     C17891   5.970   9.356   5.038  0.3715 -0.5195 -1.2279
  894MOL0     C17892   5.909   9.414   5.164  0.3456  0.7403 -0.4537
  894MOL0     N17893   5.935   9.551   5.206  0.3398  0.7577 -0.1055
  894MOL0     C17894   5.932   9.585   5.342  0.6398  0.8036  0.6005
  894MOL0     C17895   5.967   9.721   5.337 -0.2028  1.2383  1.0984
  894MOL0     C17896   5.986   9.827   5.443  0.3387  0.9673  0.7009
  894MOL0     C17897   6.063   9.785   5.568 -0.3661  0.1518  0.8740
  894MOL0     C17898   6.183   9.700   5.533  0.0487 -0.0217  0.5246
  894MOL0     C17899   6.304   9.701   5.625 -0.2029  0.8686  0.2545
  894MOL0     O17900   6.420   9.670   5.547 -0.6506  0.3570 -0.8541
  894MOL0     C17901   6.490   9.773   5.491  0.3292 -0.2043  0.3784
  894MOL0     C17902   6.456   9.909   5.479 -0.2858 -1.3301  0.6212
  894MOL0     C17903   6.540  10.003   5.416  0.0214 -0.0711  0.4773
  894MOL0     C17904   6.657   9.965   5.352 -0.2612 -0.5801 -0.2117
  894MOL0     C17905   6.751  10.057   5.306  0.2241  0.1088  0.3914
  894MOL0     O17906   6.882  10.038   5.332 -0.1297  0.5483  0.7635
  894MOL0     C17907   6.974  10.127   5.287  0.3838  1.1076 -0.1895
  894MOL0     C17908   6.967  10.267   5.278  0.2275 -0.0525 -0.8023
  894MOL0     C17909   7.082  10.342   5.254  0.3678  0.1361 -0.3476
  894MOL0     C17910   7.208  10.292   5.237  0.0588  0.3126 -0.9039
  894MOL0     O17911   7.318  10.372   5.220  1.1419  0.3268 -0.0455
  894MOL0     C17912   7.447  10.319   5.160 -1.1038 -0.5346  0.0123
  894MOL0     C17913   7.568  10.422   5.130 -0.0080 -0.0781 -0.3157
  894MOL0     C17914   7.635  10.465   5.264 -0.4835 -0.5037 -0.1914
  894MOL0     C17915   7.745  10.574   5.249 -0.7818  0.2228 -0.1191
  894MOL0     C17916   7.832  10.577   5.383 -0.5636  0.1447  0.2253
  894MOL0     C17917   7.758  10.597   5.512  1.3434  0.2957  0.1429
  894MOL0     C17918   7.856  10.563   5.624  0.0643 -0.0875 -0.3486
  894MOL0     C17919   7.807  10.591   5.770  0.7119 -1.0150 -0.1023
  894MOL0    Cl17920   7.659  10.492   5.798 -0.0708  0.1921  0.7431
  894MOL0     C17921   7.219  10.159   5.242  0.0910  0.1009 -0.3424
  894MOL0     C17922   7.103  10.076   5.267  0.5309  0.7079 -0.3783
  894MOL0     O17923   6.695  10.152   5.246 -0.1203  0.4098 -0.3824
  894MOL0     C17924   6.696   9.832   5.373  0.0452 -0.2596  0.4825
  894MOL0     C17925   6.613   9.745   5.439 -0.2773  0.3905 -0.0303
  894MOL0     N17926   6.010   9.751   5.208 -0.3074 -0.4444  0.0708
  894MOL0     N17927   5.987   9.649   5.128 -0.6428  0.0424 -0.1213
  894MOL0     C17928   6.939   9.296   5.512  0.2355 -0.2005 -0.2943
  894MOL0     C17929   7.075   9.287   5.530 -0.4309 -0.3326 -0.3979
  894MOL0     C17930   7.513   9.275   5.526  0.6952 -0.5088  1.0024
  894MOL0     C17931   7.569   9.400   5.547 -0.3765 -0.5519  0.4910
  894MOL0     C17932   7.704   9.417   5.578  0.7179 -0.1046 -0.7016
  894MOL0     C17933   7.787   9.305   5.589 -0.7185 -0.5689 -0.0384
  894MOL0     O17934   7.922   9.319   5.601  0.1542  1.1573 -0.0077
  894MOL0     C17935   8.014   9.212   5.585 -0.2817  0.4919 -0.0043
  894MOL0     C17936   8.153   9.265   5.577 -0.7786  0.0126 -0.4739
  894MOL0     C17937   8.204   9.341   5.702  0.5033 -0.3047 -0.7516
  894MOL0     C17938   8.331   9.422   5.672  0.0176  0.3633  0.5414
  894MOL0     C17939   8.437   9.331   5.652 -0.3508 -0.5806 -0.2779
  894MOL0     C17940   8.532   9.255   5.628  1.1745 -0.1580 -0.2540
  894MOL0     C17941   7.731   9.178   5.564 -0.1439 -0.1005 -0.7252
  894MOL0     C17942   7.596   9.169   5.528 -0.6702  0.4528 -0.0020
  894MOL0     H17943   7.174   9.550   5.335  3.5430 -2.8749 -1.5023
  894MOL0     H17944   6.944   9.552   5.281  4.0857  2.4105  0.3073
  894MOL0     H17945   6.758   9.368   5.186 -0.6480  0.2767 -1.0044
  894MOL0     H17946   6.706   9.525   5.251  4.0520  0.7032  0.8652
  894MOL0     H17947   6.500   9.384   5.344 -1.4720  0.2988 -1.8355
  894MOL0     H17948   6.569   9.255   5.248 -1.3642 -0.3380 -0.8014
  894MOL0     H17949   6.526   9.414   5.052 -3.5818 -0.7095 -2.2338
  894MOL0     H17950   6.440   9.516   5.172 -0.1283  0.0794 -0.1731
  894MOL0     H17951   6.380   9.232   5.090 -0.1314  0.7924 -2.2797
  894MOL0     H17952   6.316   9.304   5.244 -0.9471  1.7534  0.3411
  894MOL0     H17953   6.261   9.405   4.960  1.2159 -1.1651 -0.0254
  894MOL0     H17954   6.213   9.482   5.109 -1.9899 -0.1842 -1.0637
  894MOL0     H17955   6.098   9.224   5.149 -1.3398 -2.4606 -1.0943
  894MOL0     H17956   6.115   9.220   4.979  0.0511  1.6783 -0.4457
  894MOL0     H17957   5.992   9.425   4.956  3.2124 -1.7693 -1.6456
  894MOL0     H17958   5.904   9.283   4.989 -0.0800  0.2969 -1.8669
  894MOL0     H17959   5.945   9.352   5.247 -0.3906  0.1984 -0.5208
  894MOL0     H17960   5.803   9.394   5.145 -0.1747  2.6020  0.2563
  894MOL0     H17961   5.908   9.527   5.430 -0.9583  0.3529 -0.0963
  894MOL0     H17962   5.888   9.871   5.466  0.4499  1.0682  0.9926
  894MOL0     H17963   6.055   9.897   5.395 -0.5768 -0.3283 -2.7929
  894MOL0     H17964   5.991   9.727   5.626  0.0810 -1.9556 -0.5504
  894MOL0     H17965   6.098   9.873   5.624  0.4174  1.4879 -1.5523
  894MOL0     H17966   6.147   9.598   5.517 -2.2740  0.8915 -0.5611
  894MOL0     H17967   6.215   9.737   5.435 -1.7473  0.8008  0.2045
  894MOL0     H17968   6.286   9.619   5.695  1.1314 -1.3683 -1.8578
  894MOL0     H17969   6.309   9.795   5.681 -1.9857  0.5042  1.1164
  894MOL0     H17970   6.358   9.939   5.516 -0.7125  0.2760 -1.5570
  894MOL0     H17971   6.517  10.109   5.415  0.6104  0.0617  0.6383
  894MOL0     H17972   6.870  10.314   5.292 -1.3240 -2.3101 -3.1477
  894MOL0     H17973   7.065  10.449   5.247 -0.1606  0.4712  3.5176
  894MOL0     H17974   7.413  10.272   5.067  1.8658  0.2925 -1.6459
  894MOL0     H17975   7.488  10.240   5.223  0.6941 -0.7458 -1.3307
  894MOL0     H17976   7.535  10.509   5.073  3.0444  2.1267  0.9820
  894MOL0     H17977   7.635  10.366   5.064 -2.2572 -2.4275 -0.7604
  894MOL0     H17978   7.681  10.377   5.311 -0.5506  0.6001  2.1003
  894MOL0     H17979   7.562  10.515   5.328  0.6909  1.3515 -0.2321
  894MOL0     H17980   7.802  10.543   5.161 -1.6453 -1.2596 -0.1999
  894MOL0     H17981   7.703  10.671   5.222 -2.1760 -1.2663 -4.0196
  894MOL0     H17982   7.915  10.645   5.362  1.0399 -2.0641 -1.0540
  894MOL0     H17983   7.879  10.480   5.402  1.2811  0.9482 -0.0800
  894MOL0     H17984   7.673  10.528   5.517  0.2558  1.6021  0.3126
  894MOL0     H17985   7.718  10.698   5.526  0.1682 -0.0739 -0.4370
  894MOL0     H17986   7.863  10.454   5.617  1.4821 -0.0762  0.5130
  894MOL0     H17987   7.956  10.603   5.605  0.2878 -1.3920 -2.1463
  894MOL0     H17988   7.778  10.696   5.784  1.5401 -1.0143  2.0810
  894MOL0     H17989   7.876  10.565   5.851 -0.6462  1.1816  1.8962
  894MOL0     H17990   7.308  10.096   5.248 -0.3786 -0.5081  0.5185
  894MOL0     H17991   7.113   9.971   5.293  1.5736  0.9813  0.4053
  894MOL0     H17992   6.791   9.812   5.325 -1.5263 -1.2567 -2.4781
  894MOL0     H17993   6.642   9.641   5.450 -0.3068  0.3960  0.1033
  894MOL0     H17994   6.870   9.226   5.558 -0.7822  2.3744  2.4130
  894MOL0     H17995   7.131   9.216   5.590 -0.2885  2.0438  2.4914
  894MOL0     H17996   7.509   9.490   5.540  0.3974 -0.1557 -2.7288
  894MOL0     H17997   7.733   9.521   5.592 -2.3391  0.9774 -1.5129
  894MOL0     H17998   7.985   9.168   5.489 -0.6927  2.0994 -0.6400
  894MOL0     H17999   8.022   9.145   5.671 -0.1185  1.4053  0.7119
  894MOL0     H18000   8.215   9.176   5.563 -1.3653 -0.3787 -0.5979
  894MOL0     H18001   8.144   9.340   5.497  1.0540  1.9175  0.9770
  894MOL0     H18002   8.221   9.268   5.781  0.0745  0.7409  0.3449
  894MOL0     H18003   8.126   9.410   5.736 -0.4975 -0.5692 -2.3839
  894MOL0     H18004   8.325   9.478   5.578  0.4736 -1.0802 -0.3775
  894MOL0     H18005   8.341   9.497   5.751  1.6500 -0.1295  0.8244
  894MOL0     H18006   8.610   9.182   5.637  0.3878 -1.3293 -2.3115
  894MOL0     H18007   7.792   9.089   5.561 -0.0173 -0.1854  1.8652
  894MOL0     H18008   7.565   9.074   5.486  0.9437  0.3100 -0.9833
  895MOL0     O18009  10.210   8.921   0.306  0.4521 -0.2543 -0.1891
  895MOL0     C18010  10.293   8.927   0.400 -0.4251 -0.0902 -0.1898
  895MOL0     O18011  10.278   8.993   0.521  0.0089  0.0164 -0.1284
  895MOL0     C18012  10.152   9.040   0.546 -0.5087 -0.2097  0.0430
  895MOL0     C18013  10.104   9.147   0.473  0.4436  0.3174 -0.2541
  895MOL0     C18014   9.971   9.186   0.493 -0.3190  0.2467  0.3330
  895MOL0     C18015   9.894   9.124   0.594  0.2583  0.1763 -0.1341
  895MOL0     O18016   9.771   9.171   0.594  0.6942 -0.7406 -0.3140
  895MOL0     C18017   9.731   9.204   0.737 -0.0216 -1.2580  0.0381
  895MOL0     C18018   9.601   9.288   0.743 -0.4637 -0.1389 -0.5116
  895MOL0     C18019   9.462   9.215   0.757 -0.4328  0.5286 -1.0557
  895MOL0     C18020   9.366   9.320   0.805 -0.3797  0.9223 -0.0927
  895MOL0     C18021   9.229   9.260   0.831  0.2592  0.0684  0.0224
  895MOL0     C18022   9.135   9.353   0.901 -0.2396  0.2964 -0.5179
  895MOL0     C18023   9.007   9.286   0.951  0.3795  0.0531  0.4319
  895MOL0     C18024   8.917   9.235   0.833 -0.3280  0.3729 -0.4093
  895MOL0     N18025   8.787   9.177   0.878  0.3869 -0.5224 -0.5113
  895MOL0     C18026   8.674   9.161   0.797 -0.7108 -0.3575  0.4557
  895MOL0     C18027   8.575   9.132   0.882  0.4440  0.5824 -0.1334
  895MOL0     C18028   8.438   9.097   0.821  0.1294 -0.2338 -0.7242
  895MOL0     C18029   8.316   9.179   0.873  0.1805 -0.2941  0.3537
  895MOL0     C18030   8.302   9.172   1.025 -0.1445 -0.2697 -0.1914
  895MOL0     C18031   8.156   9.216   1.056  1.1493  0.5987 -0.3112
  895MOL0     O18032   8.065   9.109   1.050 -0.7126  0.1564 -0.2272
  895MOL0     C18033   7.946   9.142   1.004 -0.4620 -0.8397 -0.6479
  895MOL0     C18034   7.864   9.028   0.968 -0.2551 -0.1517  0.1757
  895MOL0     C18035   7.729   9.053   0.957  0.2751 -0.5181  1.4246
  895MOL0     C18036   7.663   9.179   0.965  0.6168  0.0744 -0.5526
  895MOL0     C18037   7.519   9.211   0.943  0.3047  0.5555 -0.2920
  895MOL0     O18038   7.474   9.338   0.957 -0.3186 -0.1891 -0.4833
  895MOL0     C18039   7.338   9.365   0.931 -0.3998 -0.2308 -0.3096
  895MOL0     C18040   7.254   9.304   0.835 -0.6653 -0.5117 -0.2479
  895MOL0     C18041   7.120   9.343   0.824 -0.8768 -0.0879 -0.2887
  895MOL0     C18042   7.061   9.431   0.923 -0.2638  0.0099 -0.0052
  895MOL0     O18043   6.931   9.456   0.899  0.3972  0.4161  0.3436
  895MOL0     C18044   6.839   9.347   0.912 -0.5655  0.4348 -0.3434
  895MOL0     C18045   6.710   9.382   0.836  0.1274  0.3514 -0.3938
  895MOL0     C18046   6.648   9.257   0.777 -0.2662  0.3367  0.9610
  895MOL0     C18047   6.525   9.278   0.693 -0.2352 -0.0705 -0.2075
  895MOL0     C18048   6.465   9.167   0.614 -0.3619 -0.1830  0.2590
  895MOL0     C18049   6.547   9.145   0.495  1.2153  0.1512  0.6222
  895MOL0     C18050   6.471   9.065   0.386 -0.4163 -0.7571  0.0332
  895MOL0     C18051   6.469   8.911   0.414  0.0501 -0.6447  0.0398
  895MOL0    Cl18052   6.633   8.832   0.417  0.4526 -0.1732  0.5353
  895MOL0     C18053   7.141   9.487   1.021  0.1097  0.8131 -0.6880
  895MOL0     C18054   7.282   9.449   1.028  0.5336 -0.5695  0.2291
  895MOL0     O18055   7.449   9.109   0.921  0.0924 -0.5743  0.0555
  895MOL0     C18056   7.741   9.281   1.000 -0.5649  0.4910  0.3742
  895MOL0     C18057   7.879   9.270   1.019 -0.4516  0.1284 -0.7072
  895MOL0     N18058   8.628   9.125   1.011  0.5297  0.0097 -0.1920
  895MOL0     N18059   8.751   9.139   1.006  0.0396  0.3905  0.2245
  895MOL0     C18060   9.945   9.015   0.668  0.0158 -0.5050  0.1494
  895MOL0     C18061  10.076   8.980   0.641  0.9276  0.6431  0.5956
  895MOL0     C18062  10.430   8.872   0.365  0.4666  0.2069 -0.1973
  895MOL0     C18063  10.457   8.844   0.229 -0.2062 -0.1060  0.1742
  895MOL0     C18064  10.584   8.800   0.188  1.1125 -0.0419  0.0627
  895MOL0     C18065  10.684   8.787   0.284 -0.1945  0.3285 -0.3150
  895MOL0     O18066  10.795   8.746   0.227  1.3466  0.4437  0.2507
  895MOL0     C18067  10.918   8.738   0.296 -0.6863  0.6125 -0.5741
  895MOL0     C18068  10.928   8.605   0.384 -0.0124 -0.3673  0.5273
  895MOL0     C18069  11.057   8.595   0.474 -0.1836 -1.2199  0.4564
  895MOL0     C18070  11.101   8.453   0.508 -0.3425  0.5736  0.2429
  895MOL0     C18071  10.992   8.385   0.592 -0.2326  0.3808  0.7178
  895MOL0     C18072  10.906   8.339   0.655  0.2269 -0.9386 -0.9405
  895MOL0     C18073  10.660   8.817   0.420  0.5424 -0.2237  0.4220
  895MOL0     C18074  10.527   8.860   0.457  0.3375  0.4689 -0.2486
  895MOL0     H18075  10.160   9.179   0.385  1.8729 -0.8561  0.1882
  895MOL0     H18076   9.934   9.270   0.435  0.3713 -0.7165 -1.5792
  895MOL0     H18077   9.814   9.265   0.775 -3.1737  3.8523 -0.2916
  895MOL0     H18078   9.715   9.121   0.805 -3.0063 -0.8729 -0.0578
  895MOL0     H18079   9.595   9.337   0.646 -0.3753  1.2280  0.1477
  895MOL0     H18080   9.606   9.378   0.804  0.6443  0.3829 -1.3440
  895MOL0     H18081   9.463   9.126   0.820 -1.8237  1.8614  0.9683
  895MOL0     H18082   9.415   9.181   0.664 -1.4819  1.6516 -0.9568
  895MOL0     H18083   9.410   9.365   0.894  1.2895 -0.6038 -0.1002
  895MOL0     H18084   9.354   9.394   0.724  0.1490 -0.5520 -1.5761
  895MOL0     H18085   9.238   9.171   0.893 -0.3029 -0.5651 -0.7887
  895MOL0     H18086   9.185   9.230   0.736 -3.6126 -3.1046  2.5033
  895MOL0     H18087   9.112   9.440   0.839 -2.7753 -0.5577 -0.8817
  895MOL0     H18088   9.179   9.383   0.997 -1.2511  0.3231 -0.0503
  895MOL0     H18089   9.029   9.199   1.013 -0.7387 -0.1083  0.6183
  895MOL0     H18090   8.958   9.358   1.017  3.0466  1.0073  1.5229
  895MOL0     H18091   8.971   9.157   0.778 -0.6416 -0.3876  0.3482
  895MOL0     H18092   8.877   9.304   0.758 -1.9266 -1.2224 -1.0976
  895MOL0     H18093   8.676   9.166   0.688  2.3108  1.0338  0.4578
  895MOL0     H18094   8.409   8.995   0.846 -1.5994  0.1266 -1.1471
  895MOL0     H18095   8.441   9.101   0.712  0.3328 -0.1796 -0.7170
  895MOL0     H18096   8.223   9.148   0.825 -0.2170  0.4770  0.6075
  895MOL0     H18097   8.329   9.280   0.834  0.6137 -0.8042 -0.8802
  895MOL0     H18098   8.321   9.072   1.065  3.1443  0.7401  1.1496
  895MOL0     H18099   8.372   9.240   1.074  0.9011 -0.2405 -1.6680
  895MOL0     H18100   8.136   9.306   0.997 -1.8208  0.8685  0.9179
  895MOL0     H18101   8.161   9.253   1.159 -0.3127 -1.0116  0.3976
  895MOL0     H18102   7.895   8.925   0.956  2.1366  0.4597  0.5448
  895MOL0     H18103   7.666   8.970   0.925 -2.6822  2.2600 -0.5997
  895MOL0     H18104   7.298   9.238   0.760  1.3381  0.4319  0.0080
  895MOL0     H18105   7.058   9.312   0.741 -2.8010 -0.8521  1.3529
  895MOL0     H18106   6.812   9.334   1.017  1.3054  0.7533  0.2190
  895MOL0     H18107   6.878   9.258   0.861 -1.9229 -0.3901  0.0287
  895MOL0     H18108   6.727   9.457   0.757  1.2753 -1.0220 -1.5106
  895MOL0     H18109   6.639   9.419   0.910 -2.3168  0.8653 -2.8265
  895MOL0     H18110   6.630   9.185   0.857 -2.7896  2.1243  2.1118
  895MOL0     H18111   6.721   9.222   0.703 -1.1282  0.9582 -0.2363
  895MOL0     H18112   6.439   9.311   0.752  1.7499  0.7027  2.4740
  895MOL0     H18113   6.551   9.363   0.628  4.3364  0.2137  1.6262
  895MOL0     H18114   6.363   9.187   0.582  0.6155  1.0829 -2.3434
  895MOL0     H18115   6.461   9.076   0.676  3.8171 -1.0542 -0.4244
  895MOL0     H18116   6.642   9.102   0.527  1.4095  1.8729  2.5717
  895MOL0     H18117   6.564   9.237   0.437 -1.8434  0.5822  0.2784
  895MOL0     H18118   6.372   9.109   0.380 -0.7855 -1.3212  1.4688
  895MOL0     H18119   6.522   9.082   0.291  0.6043 -1.1962  0.4827
  895MOL0     H18120   6.404   8.871   0.336 -1.2081 -1.1280  1.3022
  895MOL0     H18121   6.418   8.885   0.507 -2.2926  1.5180 -0.5366
  895MOL0     H18122   7.094   9.528   1.110 -2.1650 -1.4590 -0.7315
  895MOL0     H18123   7.346   9.478   1.111  0.6041  2.2749 -0.7225
  895MOL0     H18124   7.700   9.381   1.011  1.9937  1.4448  2.4613
  895MOL0     H18125   7.940   9.354   1.051  1.1236 -0.5444 -1.7876
  895MOL0     H18126   9.896   8.951   0.741  0.5414 -0.4660  0.5427
  895MOL0     H18127  10.127   8.894   0.684  0.6012 -1.0599 -2.1170
  895MOL0     H18128  10.382   8.871   0.155 -0.3434 -0.3403  0.2260
  895MOL0     H18129  10.609   8.787   0.083  1.8660  1.5821  0.0030
  895MOL0     H18130  10.923   8.825   0.362  0.7702 -0.5236  0.9063
  895MOL0     H18131  11.003   8.735   0.228  1.3198 -2.0502  1.7933
  895MOL0     H18132  10.841   8.611   0.449  0.0875  2.1128  0.5313
  895MOL0     H18133  10.923   8.522   0.313 -3.2537 -0.9159  1.2496
  895MOL0     H18134  11.041   8.649   0.568 -0.4213 -0.7357  0.1422
  895MOL0     H18135  11.144   8.644   0.429 -1.7289  0.6082 -0.6876
  895MOL0     H18136  11.121   8.387   0.424 -1.9946 -1.5765  1.4225
  895MOL0     H18137  11.191   8.445   0.571  1.7232 -3.0510 -2.7816
  895MOL0     H18138  10.837   8.280   0.711 -1.3432  0.7475 -1.0080
  895MOL0     H18139  10.741   8.801   0.491  3.0772 -1.0624 -2.4158
  895MOL0     H18140  10.508   8.888   0.560 -0.6846  2.9456 -1.0430
  896MOL0     O18141   6.031   4.593  11.158  0.1827  0.4163  0.2815
  896MOL0     C18142   6.116   4.601  11.072 -0.2115  0.4021 -0.1219
  896MOL0     O18143   6.101   4.651  10.951  0.3838 -0.3449 -0.0402
  896MOL0     C18144   5.992   4.682  10.886  0.2941  0.2341 -0.2990
  896MOL0     C18145   6.013   4.749  10.762 -0.1471 -0.2437  0.2965
  896MOL0     C18146   5.895   4.766  10.678 -0.3807  0.0066  0.9147
  896MOL0     C18147   5.770   4.711  10.714 -0.5564 -0.4835  0.0307
  896MOL0     O18148   5.672   4.713  10.617 -0.4133  0.4635 -0.7270
  896MOL0     C18149   5.541   4.670  10.648 -0.1037 -0.5870  0.8672
  896MOL0     C18150   5.462   4.698  10.521 -0.2407  0.6857  0.2084
  896MOL0     C18151   5.314   4.705  10.546 -0.7659  0.4937 -0.0822
  896MOL0     C18152   5.260   4.708  10.401  0.4361  0.3761 -0.5395
  896MOL0     C18153   5.110   4.695  10.393 -0.1964  0.0504 -0.2930
  896MOL0     C18154   5.046   4.595  10.488  0.6373 -0.6012 -0.1644
  896MOL0     C18155   4.910   4.553  10.437  0.0057 -0.3492 -0.4157
  896MOL0     C18156   4.877   4.418  10.497 -0.5426 -0.5012  0.4350
  896MOL0     N18157   4.738   4.381  10.472  0.4326  0.6180  0.0383
  896MOL0     C18158   4.689   4.328  10.359  0.6072  0.5218  0.2760
  896MOL0     C18159   4.562   4.283  10.393 -0.4537 -0.2026 -0.6230
  896MOL0     C18160   4.474   4.196  10.302  0.8251 -0.1249 -0.5213
  896MOL0     C18161   4.322   4.189  10.353 -0.2602  0.1661 -1.0420
  896MOL0     C18162   4.309   4.106  10.486 -0.0991 -0.0156  0.5396
  896MOL0     C18163   4.164   4.068  10.512 -0.1731  0.0601  0.0134
  896MOL0     O18164   4.134   3.952  10.428 -0.1709  0.4025  0.2923
  896MOL0     C18165   4.005   3.900  10.438  0.4174  0.2333 -0.0323
  896MOL0     C18166   3.985   3.786  10.365  0.1453  0.1270 -0.4862
  896MOL0     C18167   3.862   3.718  10.386 -0.3935 -0.4891  0.0274
  896MOL0     C18168   3.764   3.762  10.471  0.2356 -0.3972 -0.1597
  896MOL0     C18169   3.635   3.688  10.476  0.7288  0.2234  0.4407
  896MOL0     O18170   3.625   3.562  10.414  0.0774 -0.5329  0.0284
  896MOL0     C18171   3.513   3.491  10.415  0.9495 -0.5546 -0.5422
  896MOL0     C18172   3.507   3.373  10.487  0.0054 -0.4986 -0.2945
  896MOL0     C18173   3.375   3.326  10.503 -0.4254 -0.1562 -0.4006
  896MOL0     C18174   3.261   3.380  10.445 -0.2165 -0.1819  0.0879
  896MOL0     O18175   3.135   3.350  10.495 -0.2992  0.4229 -0.3295
  896MOL0     C18176   3.020   3.374  10.418 -0.2616  0.2275  0.5588
  896MOL0     C18177   3.008   3.286  10.295  0.1038  0.2222  0.2540
  896MOL0     C18178   2.868   3.314  10.235 -0.5152  0.6222  0.1901
  896MOL0     C18179   2.828   3.217  10.132  0.2156  0.1439 -0.0945
  896MOL0     C18180   2.681   3.249  10.094  0.3018 -0.1720 -0.0265
  896MOL0     C18181   2.646   3.157   9.974  0.1895  1.0990 -0.4288
  896MOL0     C18182   2.517   3.195   9.902  0.2779 -0.0742 -0.9995
  896MOL0     C18183   2.477   3.096   9.799  0.1579  0.0848  0.1454
  896MOL0    Cl18184   2.329   3.164   9.721  0.5196  0.1695  0.1251
  896MOL0     C18185   3.282   3.482  10.345 -0.0501  0.1305 -0.1893
  896MOL0     C18186   3.403   3.534  10.333  0.1418  0.2053  0.2668
  896MOL0     O18187   3.534   3.747  10.515 -0.6535  0.9531 -0.4585
  896MOL0     C18188   3.773   3.891  10.536  0.4198 -0.8014 -0.2993
  896MOL0     C18189   3.899   3.956  10.517  0.7797 -1.1386  0.7593
  896MOL0     N18190   4.537   4.334  10.518 -0.2776 -0.1829 -0.0865
  896MOL0     N18191   4.645   4.391  10.567  1.2043 -0.0481  0.1818
  896MOL0     C18192   5.754   4.643  10.839  0.6839 -0.9531  0.1613
  896MOL0     C18193   5.860   4.633  10.925 -0.1698 -0.6923  0.1661
  896MOL0     C18194   6.252   4.540  11.096  0.5727 -0.7033 -0.1251
  896MOL0     C18195   6.294   4.507  11.224  0.2464  0.7641 -0.3364
  896MOL0     C18196   6.430   4.470  11.245  0.3839  0.5562  0.5701
  896MOL0     C18197   6.525   4.450  11.143  0.4936  0.1438 -0.2477
  896MOL0     O18198   6.657   4.410  11.145  0.2585  0.2539 -0.8018
  896MOL0     C18199   6.730   4.397  11.275  0.7745 -0.2726  0.4776
  896MOL0     C18200   6.698   4.265  11.341  0.0258  1.0565  0.8690
  896MOL0     C18201   6.725   4.146  11.239  0.7713  0.8805 -0.1939
  896MOL0     C18202   6.652   4.015  11.278  0.1755 -0.5834 -0.4613
  896MOL0     C18203   6.501   4.035  11.279 -0.4012  0.3393  0.5242
  896MOL0     C18204   6.379   4.055  11.286 -0.9607  0.0345  0.4920
  896MOL0     C18205   6.474   4.473  11.013  1.1254 -0.4062 -0.0646
  896MOL0     C18206   6.340   4.525  10.993  0.5002  0.2324  0.2809
  896MOL0     H18207   6.117   4.772  10.740 -0.5769  0.2242 -1.4353
  896MOL0     H18208   5.911   4.807  10.579 -0.1641  1.2610  1.4528
  896MOL0     H18209   5.494   4.735  10.723 -1.9514  1.8662 -2.2072
  896MOL0     H18210   5.544   4.565  10.678  2.9430 -1.5933 -2.2927
  896MOL0     H18211   5.483   4.617  10.451  3.7145  0.3998  1.4680
  896MOL0     H18212   5.488   4.791  10.471 -2.7273  0.2533 -2.0839
  896MOL0     H18213   5.282   4.785  10.613 -1.8878  1.1448 -1.3274
  896MOL0     H18214   5.289   4.612  10.599 -0.2330  1.4988  2.0296
  896MOL0     H18215   5.290   4.801  10.352  0.7672  1.7684  2.1105
  896MOL0     H18216   5.303   4.626  10.343 -2.0662 -2.4041  1.2364
  896MOL0     H18217   5.080   4.664  10.293 -1.3958 -2.7651  0.8409
  896MOL0     H18218   5.073   4.793  10.425 -0.1997 -0.9618  3.1794
  896MOL0     H18219   5.037   4.634  10.590  0.4029  1.3568 -0.8788
  896MOL0     H18220   5.106   4.505  10.505  2.5598  0.8745  1.4008
  896MOL0     H18221   4.833   4.627  10.459 -0.0930 -0.0713 -1.6307
  896MOL0     H18222   4.923   4.541  10.329  2.7375  0.2169 -0.2274
  896MOL0     H18223   4.907   4.419  10.602 -1.5710  2.6083  0.7963
  896MOL0     H18224   4.940   4.340  10.452  1.7636  0.4760  1.8152
  896MOL0     H18225   4.735   4.296  10.267 -1.7141 -0.6562 -0.5588
  896MOL0     H18226   4.514   4.094  10.293 -0.0264 -0.3523 -2.0931
  896MOL0     H18227   4.461   4.243  10.205 -0.5935 -1.2175 -0.8847
  896MOL0     H18228   4.278   4.139  10.267  1.0598 -1.7984 -0.6417
  896MOL0     H18229   4.278   4.287  10.375 -1.0131 -0.8334  2.4836
  896MOL0     H18230   4.366   4.013  10.481  0.5519  0.3697  0.7557
  896MOL0     H18231   4.346   4.166  10.570  1.7663  0.5366 -0.6165
  896MOL0     H18232   4.094   4.143  10.474 -2.6009 -1.9003  0.3917
  896MOL0     H18233   4.140   4.053  10.618  0.9771 -2.8331 -0.0510
  896MOL0     H18234   4.058   3.739  10.299 -1.5423  0.2477 -2.5250
  896MOL0     H18235   3.846   3.624  10.333 -3.1458  0.3453 -0.7754
  896MOL0     H18236   3.588   3.328  10.543 -0.1431  0.6181  0.8723
  896MOL0     H18237   3.360   3.252  10.580  3.4217  1.3861  2.1534
  896MOL0     H18238   3.014   3.479  10.386  2.0877  0.5771  1.1270
  896MOL0     H18239   2.934   3.354  10.483 -0.5868  0.1034  0.0905
  896MOL0     H18240   3.010   3.179  10.317 -2.0751  0.1488  0.2873
  896MOL0     H18241   3.084   3.298  10.216  2.6732  1.2499  2.6904
  896MOL0     H18242   2.872   3.407  10.177 -0.6552  0.6446  0.2186
  896MOL0     H18243   2.792   3.310  10.313  0.1469 -0.3545  0.8128
  896MOL0     H18244   2.886   3.229  10.040 -1.9207  4.2435 -1.1063
  896MOL0     H18245   2.838   3.115  10.171  0.2573  0.5038  0.8621
  896MOL0     H18246   2.673   3.356  10.075  1.0483 -0.1560 -0.2652
  896MOL0     H18247   2.617   3.221  10.179  0.6040  0.6967  0.5003
  896MOL0     H18248   2.635   3.057  10.018  1.6447  2.0764  2.4094
  896MOL0     H18249   2.726   3.148   9.899 -1.5949 -2.2237 -2.1675
  896MOL0     H18250   2.439   3.202   9.978  0.4525 -1.5271 -0.6570
  896MOL0     H18251   2.529   3.287   9.844 -3.4397  0.5141 -1.0575
  896MOL0     H18252   2.461   2.995   9.837  1.4217  0.2382  1.1505
  896MOL0     H18253   2.558   3.089   9.726 -1.3293 -1.2816 -1.4463
  896MOL0     H18254   3.191   3.526  10.304  0.1619  1.1805  0.4323
  896MOL0     H18255   3.412   3.626  10.276  3.0732 -1.1997 -1.7646
  896MOL0     H18256   3.691   3.932  10.594 -0.2608  1.0754 -2.4402
  896MOL0     H18257   3.913   4.057  10.557  0.4278  0.4930 -2.8933
  896MOL0     H18258   5.658   4.603  10.869 -0.4993 -0.3307 -2.4748
  896MOL0     H18259   5.834   4.592  11.022  1.6389 -1.2126  0.4551
  896MOL0     H18260   6.232   4.506  11.312 -0.0273  0.2523 -0.5325
  896MOL0     H18261   6.445   4.441  11.348  4.0370  0.9882  0.2953
  896MOL0     H18262   6.711   4.482  11.342  1.4949 -0.4683  0.9434
  896MOL0     H18263   6.833   4.393  11.239  0.2624  1.0358 -1.2861
  896MOL0     H18264   6.752   4.250  11.435 -2.2450  0.4650  2.1806
  896MOL0     H18265   6.595   4.263  11.380 -1.0442 -0.7970 -1.7307
  896MOL0     H18266   6.833   4.128  11.247  0.1483 -4.3413 -0.4306
  896MOL0     H18267   6.695   4.166  11.136  0.6371  2.4913  0.1310
  896MOL0     H18268   6.671   3.946  11.196  0.6473  1.1107 -1.8347
  896MOL0     H18269   6.681   3.981  11.378  0.7044 -1.1167 -0.7961
  896MOL0     H18270   6.277   4.085  11.299 -0.4153  1.4824  1.7751
  896MOL0     H18271   6.537   4.468  10.925 -0.5316 -1.1253 -1.2743
  896MOL0     H18272   6.318   4.539  10.888  0.4048  1.7450  0.4737
  897MOL0     O18273   6.604   4.787  10.132  0.3909 -0.7071 -0.6740
  897MOL0     C18274   6.592   4.859  10.226 -0.0497 -0.1111 -0.6036
  897MOL0     O18275   6.483   4.867  10.314  0.1791  0.6656  0.2917
  897MOL0     C18276   6.379   4.779  10.294  0.1767 -0.3190  0.1144
  897MOL0     C18277   6.295   4.732  10.405 -0.2481 -0.7253  0.7022
  897MOL0     C18278   6.187   4.652  10.390 -0.3683 -0.1051  0.1880
  897MOL0     C18279   6.162   4.594  10.271  0.3114 -0.0892 -0.0210
  897MOL0     O18280   6.067   4.503  10.246  0.2351 -0.5643  0.3986
  897MOL0     C18281   5.949   4.507  10.330 -0.3888  0.0545 -0.2809
  897MOL0     C18282   5.833   4.545  10.237 -0.1920 -0.1055 -0.0372
  897MOL0     C18283   5.807   4.697  10.203 -0.2839 -0.0116  0.3940
  897MOL0     C18284   5.790   4.799  10.314  1.5138 -0.2498 -1.2380
  897MOL0     C18285   5.699   4.916  10.276 -0.6431  0.4793  0.6294
  897MOL0     C18286   5.747   4.973  10.140 -0.1849  0.2682  0.8550
  897MOL0     C18287   5.699   5.113  10.099 -0.0060 -0.0519  0.0215
  897MOL0     C18288   5.548   5.123  10.091  0.5181  0.1973  0.1494
  897MOL0     N18289   5.489   5.034   9.987  0.6115  0.3789 -0.8902
  897MOL0     C18290   5.442   4.908  10.017  0.2883  0.2662  0.0508
  897MOL0     C18291   5.397   4.869   9.899 -0.4642  0.2014  0.1675
  897MOL0     C18292   5.310   4.747   9.877 -0.5963 -0.2217 -0.3588
  897MOL0     C18293   5.179   4.754   9.947  0.9718 -0.3378 -0.5491
  897MOL0     C18294   5.106   4.617   9.959 -0.4728 -0.2108 -0.3070
  897MOL0     C18295   4.959   4.643   9.984  0.4003  0.8180 -0.4402
  897MOL0     O18296   4.893   4.521  10.034  0.8100 -0.6298 -0.6487
  897MOL0     C18297   4.766   4.513  10.003  0.3846 -0.1311 -0.2471
  897MOL0     C18298   4.723   4.459   9.880  0.6442  0.0790 -0.1849
  897MOL0     C18299   4.585   4.444   9.862 -0.3089 -0.3378 -0.0669
  897MOL0     C18300   4.494   4.483   9.965  0.4160 -0.9946 -1.2150
  897MOL0     C18301   4.352   4.495   9.940  0.3738  0.0723  0.1312
  897MOL0     O18302   4.274   4.479  10.050  0.1102  0.6623  0.0330
  897MOL0     C18303   4.147   4.530  10.054  0.8752 -0.1382 -0.3330
  897MOL0     C18304   4.048   4.539   9.959  0.3740  0.4913  0.5826
  897MOL0     C18305   3.921   4.596   9.979 -0.4543  0.0936 -0.6466
  897MOL0     C18306   3.892   4.639  10.112 -0.2005  1.7313  0.3293
  897MOL0     O18307   3.766   4.676  10.150 -0.8917 -0.4718  0.6889
  897MOL0     C18308   3.653   4.646  10.072  0.1047  0.4880 -1.1913
  897MOL0     C18309   3.531   4.649  10.161 -0.0771 -0.0683 -0.4958
  897MOL0     C18310   3.397   4.613  10.100  0.3759 -0.3554 -0.5848
  897MOL0     C18311   3.287   4.592  10.201 -0.1282  0.2019  0.1144
  897MOL0     C18312   3.154   4.519  10.159  0.1623  0.2644 -0.2759
  897MOL0     C18313   3.162   4.364  10.137 -0.3448 -0.5330  0.3544
  897MOL0     C18314   3.026   4.316  10.079 -0.3159 -0.0547 -0.7361
  897MOL0     C18315   3.041   4.316   9.928 -0.5287 -0.2348 -0.2797
  897MOL0    Cl18316   3.135   4.183   9.868 -0.1488 -0.0269 -0.1192
  897MOL0     C18317   3.995   4.643  10.204 -0.5528 -0.3034 -0.3037
  897MOL0     C18318   4.116   4.589  10.172  0.5332 -0.8356 -1.0719
  897MOL0     O18319   4.313   4.529   9.828  0.3500  1.1094  0.0607
  897MOL0     C18320   4.539   4.516  10.090 -0.5200 -0.3403 -0.6614
  897MOL0     C18321   4.677   4.546  10.111  0.3327  0.5755  0.6236
  897MOL0     N18322   5.409   4.971   9.809  0.1770  1.4857 -0.2364
  897MOL0     N18323   5.479   5.064   9.855  0.1992  0.1400  0.2358
  897MOL0     C18324   6.219   4.646  10.158 -0.2746 -0.2974 -0.3584
  897MOL0     C18325   6.328   4.736  10.168 -0.2444 -0.1996  0.0125
  897MOL0     C18326   6.722   4.930  10.254 -0.7562  0.7357  0.0490
  897MOL0     C18327   6.744   4.994  10.383  0.0221 -0.5806  0.0676
  897MOL0     C18328   6.866   5.058  10.414 -0.1340 -0.5110 -0.0126
  897MOL0     C18329   6.975   5.047  10.327 -0.6938  0.2916 -0.0736
  897MOL0     O18330   7.109   5.097  10.350  0.2212  1.6170 -0.0599
  897MOL0     C18331   7.140   5.169  10.467 -0.4896  0.1447 -0.3997
  897MOL0     C18332   7.186   5.086  10.594  0.0630  0.3685  0.6613
  897MOL0     C18333   7.242   5.175  10.703  0.3541  0.3200  0.0125
  897MOL0     C18334   7.275   5.089  10.833 -0.7038  0.9594 -0.1403
  897MOL0     C18335   7.394   5.005  10.818 -0.4910 -0.3908 -0.2403
  897MOL0     C18336   7.494   4.942  10.816  0.5498  0.5711 -0.0817
  897MOL0     C18337   6.956   4.979  10.207  0.0853 -0.7808 -0.7659
  897MOL0     C18338   6.836   4.927  10.165 -0.2063 -0.2267 -0.2983
  897MOL0     H18339   6.334   4.755  10.504 -1.3746  3.1588  0.4232
  897MOL0     H18340   6.145   4.609  10.481  0.1668  1.1029  1.0351
  897MOL0     H18341   5.951   4.580  10.412 -3.0633  0.9320 -0.8887
  897MOL0     H18342   5.945   4.409  10.377  1.3792  1.2265  2.6080
  897MOL0     H18343   5.738   4.510  10.279  0.4301  0.9723  2.4641
  897MOL0     H18344   5.846   4.491  10.143  2.8863  1.8892 -0.9024
  897MOL0     H18345   5.716   4.690  10.142 -1.0683 -2.7954  1.7272
  897MOL0     H18346   5.891   4.729  10.141 -0.8272  0.7873  0.0564
  897MOL0     H18347   5.739   4.752  10.399  1.2372 -0.3930 -1.4817
  897MOL0     H18348   5.883   4.840  10.354  0.1919 -1.0670  3.1822
  897MOL0     H18349   5.688   4.995  10.352 -1.1542 -0.7832  1.9037
  897MOL0     H18350   5.595   4.883  10.287 -0.2564  0.0491  4.6667
  897MOL0     H18351   5.719   4.908  10.057 -1.2681 -0.1293  1.5189
  897MOL0     H18352   5.856   4.985  10.144 -0.2389  0.5047  1.8631
  897MOL0     H18353   5.735   5.169  10.186 -0.2287 -1.4193  1.0404
  897MOL0     H18354   5.743   5.149  10.006 -0.6034 -2.0133 -1.0783
  897MOL0     H18355   5.500   5.216  10.058  0.0542  0.3005  1.0744
  897MOL0     H18356   5.501   5.104  10.188  1.4062  2.8336  1.1768
  897MOL0     H18357   5.441   4.854  10.111  0.3629  2.4660  1.3872
  897MOL0     H18358   5.355   4.650   9.900 -2.6149 -1.5756 -1.7781
  897MOL0     H18359   5.287   4.736   9.770 -0.0547 -1.6683 -0.3473
  897MOL0     H18360   5.122   4.814   9.875 -2.4378 -1.9309  0.6302
  897MOL0     H18361   5.185   4.804  10.044  0.5030 -0.7910 -0.2823
  897MOL0     H18362   5.125   4.555   9.871 -1.0715  0.6824 -1.0891
  897MOL0     H18363   5.136   4.554  10.044 -0.1655 -0.9571 -0.9532
  897MOL0     H18364   4.908   4.667   9.891  0.3577 -0.7658 -0.8603
  897MOL0     H18365   4.953   4.722  10.060  0.1668 -0.1597  0.5917
  897MOL0     H18366   4.796   4.430   9.805  0.0749 -2.4209  0.1533
  897MOL0     H18367   4.542   4.412   9.768  2.5383  0.9373 -1.9570
  897MOL0     H18368   4.066   4.493   9.862  2.3968  2.2424  0.0601
  897MOL0     H18369   3.852   4.603   9.896 -1.8623 -2.1232  0.2093
  897MOL0     H18370   3.671   4.542  10.045  1.9869 -1.2936  5.1459
  897MOL0     H18371   3.631   4.703   9.981 -2.3184 -1.0381 -1.6426
  897MOL0     H18372   3.530   4.746  10.212 -3.0209 -0.8294  1.1305
  897MOL0     H18373   3.545   4.586  10.249 -0.1584 -0.3716 -0.6993
  897MOL0     H18374   3.397   4.523  10.037  0.5292  0.2260 -1.4200
  897MOL0     H18375   3.366   4.690  10.029  1.8453  0.3262 -0.5174
  897MOL0     H18376   3.327   4.522  10.275  2.1115  0.3344 -0.8660
  897MOL0     H18377   3.265   4.693  10.236  0.2293  0.4183 -0.2700
  897MOL0     H18378   3.136   4.560  10.059 -0.6611 -3.1236 -1.6657
  897MOL0     H18379   3.081   4.546  10.237  2.2597 -0.3342  2.0315
  897MOL0     H18380   3.176   4.313  10.233 -0.3144 -0.7618  0.2309
  897MOL0     H18381   3.240   4.333  10.066 -0.9508  0.8763 -0.9819
  897MOL0     H18382   2.996   4.217  10.114 -0.3347  0.6159  1.3358
  897MOL0     H18383   2.949   4.388  10.110 -1.1223 -0.5348 -1.5819
  897MOL0     H18384   3.097   4.405   9.896 -0.4514 -1.4282 -3.9380
  897MOL0     H18385   2.946   4.315   9.875 -1.6361  0.3456  1.6151
  897MOL0     H18386   3.969   4.687  10.300 -0.5938  0.2898 -0.5830
  897MOL0     H18387   4.187   4.589  10.254  0.0639 -1.6886 -0.6511
  897MOL0     H18388   4.473   4.520  10.176  2.7403  1.6656  2.0303
  897MOL0     H18389   4.713   4.577  10.209  0.8587  0.1106  0.5867
  897MOL0     H18390   6.191   4.605  10.062  0.9048 -2.6154  0.2203
  897MOL0     H18391   6.384   4.761  10.078 -1.1929 -0.3934 -0.6517
  897MOL0     H18392   6.672   4.996  10.463  1.1612 -3.2337  1.2587
  897MOL0     H18393   6.885   5.102  10.511  2.4876  1.5978 -1.3476
  897MOL0     H18394   7.057   5.231  10.503 -0.5910 -0.9942  1.4358
  897MOL0     H18395   7.217   5.241  10.437 -1.2214  0.9489 -0.3982
  897MOL0     H18396   7.089   5.045  10.624  0.1256  0.6786  1.3076
  897MOL0     H18397   7.266   5.026  10.550  0.2722 -0.4691  2.0967
  897MOL0     H18398   7.163   5.247  10.726  0.4229  0.4957 -0.2973
  897MOL0     H18399   7.329   5.235  10.676  1.0199 -0.4840  0.3232
  897MOL0     H18400   7.305   5.152  10.917  1.8508 -1.2057  0.7104
  897MOL0     H18401   7.193   5.021  10.857 -0.7920  0.9097 -0.5653
  897MOL0     H18402   7.575   4.875  10.800  0.7350  0.6348  0.5636
  897MOL0     H18403   7.048   4.978  10.149  1.2109 -0.0327  0.9249
  897MOL0     H18404   6.835   4.881  10.067 -1.8505 -2.3713  0.6268
  898MOL0     O18405   1.279   9.888   9.632  0.1757 -0.9066 -0.2882
  898MOL0     C18406   1.225   9.834   9.541  1.2953  0.3414  0.1247
  898MOL0     O18407   1.090   9.819   9.526 -0.0118  0.1939 -1.2109
  898MOL0     C18408   1.001   9.876   9.607  0.2381 -0.4411 -0.3155
  898MOL0     C18409   0.998   9.856   9.746  0.7407  0.3968 -0.6762
  898MOL0     C18410   0.886   9.897   9.824 -1.1548  0.3502 -0.6376
  898MOL0     C18411   0.772   9.950   9.765 -0.0475 -0.0504 -0.1709
  898MOL0     O18412   0.674   9.977   9.856 -0.3723  0.8877 -0.2584
  898MOL0     C18413   0.539   9.956   9.816  2.1614 -0.1583 -0.0479
  898MOL0     C18414   0.463   9.933   9.948  0.3504  1.5467  1.0565
  898MOL0     C18415   0.310   9.935   9.923 -0.5411  0.3241  0.3506
  898MOL0     C18416   0.235   9.904  10.053 -0.2264  0.2328 -0.7229
  898MOL0     C18417   0.089   9.946  10.056  0.5103  0.1386 -0.0577
  898MOL0     C18418  -0.003   9.867   9.960  0.1041 -0.2717 -0.3594
  898MOL0     C18419  -0.150   9.888   9.978  0.7144 -0.1296  0.8530
  898MOL0     C18420  -0.189  10.035   9.967  0.0639 -0.1676 -0.6077
  898MOL0     N18421  -0.335  10.054   9.961  0.4863 -0.2168  0.7344
  898MOL0     C18422  -0.416  10.005   9.860 -1.0614 -0.2413  0.0866
  898MOL0     C18423  -0.538  10.048   9.887 -0.9838  0.5261 -0.1452
  898MOL0     C18424  -0.652  10.045   9.788  0.2618  0.1218  0.7689
  898MOL0     C18425  -0.612  10.110   9.649 -0.3897 -0.4547  0.2058
  898MOL0     C18426  -0.712  10.064   9.533  0.4203  0.2145  0.0410
  898MOL0     C18427  -0.861  10.072   9.552 -0.1595 -0.0940 -0.6937
  898MOL0     O18428  -0.892  10.195   9.617 -0.1288 -0.0774  0.2451
  898MOL0     C18429  -1.027  10.214   9.636 -0.4915  0.6716  0.6869
  898MOL0     C18430  -1.128  10.162   9.552 -0.3862  0.0129 -0.0339
  898MOL0     C18431  -1.256  10.197   9.564  0.9928  0.0337  0.1680
  898MOL0     C18432  -1.296  10.273   9.675  0.9079  0.1250 -0.3782
  898MOL0     C18433  -1.438  10.286   9.722 -0.1301 -0.3031  0.4376
  898MOL0     O18434  -1.474  10.398   9.796  0.8651  0.0681 -1.5664
  898MOL0     C18435  -1.606  10.427   9.832  0.0730 -0.9146  0.6437
  898MOL0     C18436  -1.710  10.377   9.749  0.4797 -0.3164 -0.9710
  898MOL0     C18437  -1.840  10.399   9.795  0.4889  0.1832  0.6060
  898MOL0     C18438  -1.866  10.475   9.908 -0.0947 -0.0202  0.2686
  898MOL0     O18439  -1.996  10.475   9.942  0.2201 -0.0137 -0.5685
  898MOL0     C18440  -2.011  10.458  10.082 -0.0606 -0.5604 -0.2467
  898MOL0     C18441  -2.153  10.500  10.116  0.1761 -0.4312  0.2192
  898MOL0     C18442  -2.262  10.384  10.088 -0.0396  0.4016  0.5977
  898MOL0     C18443  -2.378  10.382  10.183  0.1974  0.1396  0.4425
  898MOL0     C18444  -2.488  10.504  10.156 -0.8998 -0.0678  0.2265
  898MOL0     C18445  -2.610  10.509  10.260 -0.2336 -0.1133  0.4054
  898MOL0     C18446  -2.742  10.561  10.205  0.4448 -0.5623  0.1542
  898MOL0     C18447  -2.720  10.705  10.138 -0.2674  0.5361 -0.5287
  898MOL0    Cl18448  -2.868  10.756  10.055  0.5843  0.0509 -0.2390
  898MOL0     C18449  -1.757  10.547   9.970  0.1369 -0.0167 -0.0031
  898MOL0     C18450  -1.633  10.504   9.942 -0.4039  0.7337  0.1339
  898MOL0     O18451  -1.505  10.187   9.708 -0.3085  0.6504  0.1171
  898MOL0     C18452  -1.196  10.328   9.759 -0.4122  0.2958  0.2334
  898MOL0     C18453  -1.060  10.297   9.744  0.3278  0.3355  0.2817
  898MOL0     N18454  -0.535  10.127   9.997  0.4683 -0.4369  0.0358
  898MOL0     N18455  -0.414  10.127  10.044  0.3198 -0.3642 -0.8131
  898MOL0     C18456   0.775   9.964   9.626 -0.5544 -0.3828  0.8887
  898MOL0     C18457   0.892   9.936   9.546  0.2297  0.3850 -0.0730
  898MOL0     C18458   1.304   9.795   9.425 -0.4374  0.8586 -0.2912
  898MOL0     C18459   1.442   9.799   9.432 -0.4507 -0.1475  0.9530
  898MOL0     C18460   1.526   9.740   9.331  0.2326 -0.0894 -0.4987
  898MOL0     C18461   1.468   9.678   9.216  0.5734  0.1163  0.7302
  898MOL0     O18462   1.544   9.644   9.103  0.0995 -0.0326 -0.4395
  898MOL0     C18463   1.689   9.668   9.123  0.0630  0.2814 -0.3172
  898MOL0     C18464   1.760   9.636   8.991 -0.7919  0.1673 -0.2806
  898MOL0     C18465   1.721   9.735   8.877  0.3117 -0.2788 -0.4402
  898MOL0     C18466   1.837   9.781   8.793  0.1514  0.7511  0.4457
  898MOL0     C18467   1.900   9.668   8.727 -0.9561 -0.5245 -0.9352
  898MOL0     C18468   1.939   9.561   8.685  0.1173 -0.0364 -0.5110
  898MOL0     C18469   1.327   9.664   9.205  0.1436 -0.5371 -1.0574
  898MOL0     C18470   1.243   9.726   9.306 -0.1994 -0.2233  0.0216
  898MOL0     H18471   1.076   9.807   9.804 -3.1888 -1.7186  3.4078
  898MOL0     H18472   0.883   9.873   9.930  0.8473 -1.5217 -0.9472
  898MOL0     H18473   0.527   9.863   9.759  2.6274 -1.0861  1.3145
  898MOL0     H18474   0.503  10.045   9.763  2.5107  0.3290  0.5241
  898MOL0     H18475   0.497  10.009  10.020  0.8756  0.5879  1.8543
  898MOL0     H18476   0.490   9.834   9.986 -2.2304 -1.6776 -4.3363
  898MOL0     H18477   0.281   9.849   9.864 -0.1619 -0.4357  1.2449
  898MOL0     H18478   0.281  10.032   9.881  0.7600 -0.1718 -1.7894
  898MOL0     H18479   0.231   9.798  10.078 -2.7718  0.6495  1.0553
  898MOL0     H18480   0.292   9.958  10.130 -4.0441  1.0905  1.7951
  898MOL0     H18481   0.087  10.051  10.027 -2.5590  0.4764  1.0581
  898MOL0     H18482   0.055   9.927  10.158  1.5208  0.3781  0.3420
  898MOL0     H18483   0.012   9.760   9.977 -0.2019  0.0521  2.4289
  898MOL0     H18484   0.020   9.895   9.857 -1.4943  0.8337 -0.4538
  898MOL0     H18485  -0.205   9.827   9.906 -0.8024  1.2380  0.7694
  898MOL0     H18486  -0.183   9.872  10.081 -2.0418  0.8792  0.2162
  898MOL0     H18487  -0.138  10.078   9.881 -0.2963  0.0216 -0.7310
  898MOL0     H18488  -0.157  10.085  10.059 -0.9271 -1.4515  0.4755
  898MOL0     H18489  -0.398   9.955   9.766 -1.0361  0.6680 -0.4023
  898MOL0     H18490  -0.746  10.086   9.827 -0.4061 -1.3688  0.7850
  898MOL0     H18491  -0.666   9.938   9.774  1.9422 -0.0842  0.4753
  898MOL0     H18492  -0.510  10.086   9.619  0.3438 -1.2700  3.0904
  898MOL0     H18493  -0.629  10.217   9.659  0.9907 -0.1357 -0.6131
  898MOL0     H18494  -0.685  10.128   9.449  3.7309 -0.8622  0.1616
  898MOL0     H18495  -0.691   9.960   9.508 -0.0526  0.0630  0.2572
  898MOL0     H18496  -0.888   9.983   9.610 -0.8067  0.2787 -0.4083
  898MOL0     H18497  -0.899  10.060   9.450  5.5555 -2.5729 -2.9843
  898MOL0     H18498  -1.102  10.090   9.475 -1.2260  0.2013 -0.5134
  898MOL0     H18499  -1.330  10.158   9.495  3.8991 -0.8321 -2.7103
  898MOL0     H18500  -1.699  10.327   9.653  0.2309 -1.1755 -0.5613
  898MOL0     H18501  -1.922  10.353   9.740 -2.4046  2.8973  2.3118
  898MOL0     H18502  -1.944  10.522  10.142 -0.3929 -0.8070  0.3941
  898MOL0     H18503  -1.992  10.359  10.123  2.2305 -0.4225 -0.8033
  898MOL0     H18504  -2.171  10.595  10.065  0.4120 -1.1204 -1.2049
  898MOL0     H18505  -2.164  10.517  10.224  1.7650 -0.9105  0.4829
  898MOL0     H18506  -2.210  10.289  10.106 -0.2464  0.5076  1.8411
  898MOL0     H18507  -2.299  10.386   9.985 -3.1940  1.0124  1.6530
  898MOL0     H18508  -2.426  10.286  10.162  0.9943 -0.2149  0.1692
  898MOL0     H18509  -2.342  10.379  10.286 -1.5225 -1.3557  1.0393
  898MOL0     H18510  -2.529  10.486  10.057  1.2374  0.7356 -0.8587
  898MOL0     H18511  -2.429  10.595  10.143 -0.9621  0.1861  1.5656
  898MOL0     H18512  -2.584  10.573  10.345  0.6053  0.4159 -0.2281
  898MOL0     H18513  -2.631  10.410  10.300  2.2406 -0.8025  0.1546
  898MOL0     H18514  -2.780  10.491  10.130  0.3563 -0.9073  0.5170
  898MOL0     H18515  -2.804  10.565  10.296  3.3185 -0.0406  2.2134
  898MOL0     H18516  -2.651  10.698  10.054  2.5378  1.5100  1.5310
  898MOL0     H18517  -2.685  10.781  10.209  2.2264  1.4181 -2.5612
  898MOL0     H18518  -1.778  10.619  10.048 -1.8863 -1.3044  0.7294
  898MOL0     H18519  -1.549  10.552   9.991  1.5044 -1.8469 -0.4008
  898MOL0     H18520  -1.225  10.384   9.847 -3.6230 -1.6055  0.5210
  898MOL0     H18521  -0.986  10.343   9.809 -0.0396  0.8200  0.3631
  898MOL0     H18522   0.688  10.015   9.587 -1.4993 -1.1111  1.9720
  898MOL0     H18523   0.895   9.945   9.437  0.1051  2.9030  0.0867
  898MOL0     H18524   1.489   9.847   9.518 -1.1827  0.3638  1.0824
  898MOL0     H18525   1.633   9.756   9.346 -0.3464  2.6666  1.1621
  898MOL0     H18526   1.723   9.601   9.202  0.2610  0.4920 -0.2238
  898MOL0     H18527   1.721   9.769   9.152 -0.9422  0.2249  1.0901
  898MOL0     H18528   1.867   9.643   9.015 -0.6098 -1.0441 -0.6501
  898MOL0     H18529   1.734   9.535   8.958 -1.8104  0.3977 -0.2048
  898MOL0     H18530   1.673   9.820   8.926  0.5038 -0.1797 -0.4213
  898MOL0     H18531   1.647   9.691   8.809  1.2952  0.7075 -2.2297
  898MOL0     H18532   1.801   9.851   8.717 -2.4944 -2.4025 -1.4514
  898MOL0     H18533   1.913   9.825   8.859 -0.7054 -0.7149  2.5112
  898MOL0     H18534   1.982   9.473   8.642 -0.1497 -0.6338  0.4366
  898MOL0     H18535   1.293   9.634   9.106  2.3388 -2.6605 -1.2813
  898MOL0     H18536   1.135   9.734   9.302 -0.0585  2.5435 -0.2709
  899MOL0     O18537   9.081   2.946  10.588  0.2165  1.5032  0.6583
  899MOL0     C18538   9.091   2.991  10.702 -0.3026  0.2003  0.8412
  899MOL0     O18539   9.031   2.945  10.810 -0.2407 -0.7227  0.4011
  899MOL0     C18540   8.941   2.839  10.793 -0.0390 -0.2574  0.0287
  899MOL0     C18541   8.824   2.836  10.713  0.5851 -0.1860  0.8352
  899MOL0     C18542   8.744   2.719  10.710  0.2070 -0.4745 -0.0688
  899MOL0     C18543   8.779   2.604  10.782 -0.3122  0.6615 -1.2979
  899MOL0     O18544   8.701   2.499  10.776 -0.4459 -0.1942  0.2670
  899MOL0     C18545   8.759   2.371  10.800 -0.1439 -0.0016  0.3505
  899MOL0     C18546   8.656   2.256  10.795  0.0188 -0.7063  0.6259
  899MOL0     C18547   8.727   2.129  10.791  0.1566 -0.1142 -0.8555
  899MOL0     C18548   8.636   2.007  10.765 -0.1750 -0.3976 -0.6629
  899MOL0     C18549   8.722   1.877  10.729 -0.4805  0.4655 -0.2590
  899MOL0     C18550   8.654   1.747  10.746 -0.9745 -0.1532 -0.4877
  899MOL0     C18551   8.564   1.702  10.636  0.3907 -0.0359 -0.7029
  899MOL0     C18552   8.507   1.565  10.687  0.7993 -0.5660 -0.3658
  899MOL0     N18553   8.420   1.497  10.583 -0.0590 -0.4179 -0.1321
  899MOL0     C18554   8.438   1.365  10.558  0.6402 -0.0533  0.0355
  899MOL0     C18555   8.344   1.326  10.469 -0.6669  0.5235  0.1261
  899MOL0     C18556   8.327   1.184  10.421  0.3397 -0.9590  0.1135
  899MOL0     C18557   8.200   1.168  10.337  0.1577 -0.3775 -0.2190
  899MOL0     C18558   8.186   1.018  10.310  0.1138 -0.8160 -0.1792
  899MOL0     C18559   8.046   0.989  10.267  1.2187 -0.0603 -0.3459
  899MOL0     O18560   7.955   1.016  10.376 -0.1604 -0.2769 -0.0053
  899MOL0     C18561   7.821   0.997  10.352 -1.2226  0.4701 -0.7640
  899MOL0     C18562   7.736   1.103  10.307  0.4640 -0.1678 -0.2112
  899MOL0     C18563   7.598   1.085  10.305 -0.8316 -0.6270 -0.6630
  899MOL0     C18564   7.542   0.963  10.334 -0.3117 -0.1922 -0.1720
  899MOL0     C18565   7.389   0.961  10.343 -0.1983  0.1719 -0.2088
  899MOL0     O18566   7.323   1.075  10.311 -0.5125  0.0363 -0.2416
  899MOL0     C18567   7.185   1.063  10.280 -0.0739  0.0911  0.2352
  899MOL0     C18568   7.090   1.114  10.367 -0.1414 -0.2469  0.1632
  899MOL0     C18569   6.956   1.109  10.335 -0.0751  0.9228 -0.4237
  899MOL0     C18570   6.911   1.044  10.219  0.5433  0.7115  0.5603
  899MOL0     O18571   6.783   1.049  10.170 -0.0560  0.6949  0.3343
  899MOL0     C18572   6.683   1.021  10.267  0.6883 -0.2518  0.0938
  899MOL0     C18573   6.569   0.925  10.217 -0.4213  0.2576  0.5694
  899MOL0     C18574   6.451   0.947  10.307 -0.5521  0.1868  0.2884
  899MOL0     C18575   6.334   0.849  10.284  0.2201 -0.1110 -0.5050
  899MOL0     C18576   6.208   0.912  10.341  0.4722  0.1430 -0.3682
  899MOL0     C18577   6.091   0.821  10.378 -0.0561 -0.0415 -0.1943
  899MOL0     C18578   5.954   0.896  10.391 -0.0443  0.0043  0.1068
  899MOL0     C18579   5.945   0.996  10.496 -0.2472 -0.5122 -0.4030
  899MOL0    Cl18580   5.798   1.078  10.451  0.2495 -0.2942  0.4595
  899MOL0     C18581   7.010   0.981  10.138 -0.2320  0.2893  0.9406
  899MOL0     C18582   7.147   0.991  10.171 -0.3085 -0.5459 -0.3792
  899MOL0     O18583   7.338   0.855  10.382 -0.6123  0.6881  0.2617
  899MOL0     C18584   7.627   0.861  10.379 -1.0089 -0.4806  0.7482
  899MOL0     C18585   7.768   0.871  10.383 -1.6494  0.5162 -0.0886
  899MOL0     N18586   8.268   1.441  10.441  0.0157  1.2095 -0.0163
  899MOL0     N18587   8.318   1.539  10.503  0.4407 -0.7933 -0.2138
  899MOL0     C18588   8.891   2.613  10.874 -1.3579 -0.0989  0.2882
  899MOL0     C18589   8.963   2.736  10.883  0.0488  0.6664 -0.4612
  899MOL0     C18590   9.171   3.109  10.719  0.4227  0.2711  0.0321
  899MOL0     C18591   9.231   3.173  10.608 -1.1054 -0.1706 -0.4638
  899MOL0     C18592   9.299   3.297  10.631  0.0460 -0.1494  0.1580
  899MOL0     C18593   9.312   3.351  10.761 -0.5590 -0.2767 -0.1709
  899MOL0     O18594   9.399   3.455  10.802  0.3328 -0.9707  0.3685
  899MOL0     C18595   9.493   3.499  10.703  0.6513 -0.2016  0.3196
  899MOL0     C18596   9.574   3.618  10.762 -0.2025 -0.2271  0.2815
  899MOL0     C18597   9.498   3.754  10.746 -0.1643 -0.5765 -0.2377
  899MOL0     C18598   9.527   3.824  10.618 -0.1072 -0.0022 -0.2740
  899MOL0     C18599   9.666   3.835  10.607 -0.8243  0.0532  0.3458
  899MOL0     C18600   9.787   3.851  10.596  1.4419 -0.8238 -0.4098
  899MOL0     C18601   9.253   3.280  10.863  0.3524  0.3442 -0.0405
  899MOL0     C18602   9.189   3.156  10.842  0.0825 -0.2247  0.1626
  899MOL0     H18603   8.793   2.919  10.650  0.1754 -0.1493  1.0856
  899MOL0     H18604   8.651   2.703  10.658 -0.6574 -1.3936  1.6586
  899MOL0     H18605   8.816   2.375  10.893  0.7480  0.0165 -0.1852
  899MOL0     H18606   8.833   2.343  10.725 -0.0089  2.0765 -0.3662
  899MOL0     H18607   8.603   2.280  10.702 -2.0519 -1.6767  1.4877
  899MOL0     H18608   8.587   2.265  10.880 -0.5492 -1.8229  0.2954
  899MOL0     H18609   8.778   2.116  10.887  0.9696 -1.3098 -1.4319
  899MOL0     H18610   8.801   2.123  10.712 -0.1391 -0.1239 -1.1356
  899MOL0     H18611   8.583   1.987  10.858 -0.5181 -2.8681 -1.3188
  899MOL0     H18612   8.574   2.030  10.678  3.0475 -0.0804 -3.0534
  899MOL0     H18613   8.807   1.875  10.798 -0.7076 -1.8171  0.0385
  899MOL0     H18614   8.763   1.879  10.627  0.2702  0.2354  0.0309
  899MOL0     H18615   8.590   1.745  10.835 -0.1011 -0.8217  0.1309
  899MOL0     H18616   8.731   1.672  10.763 -1.3948 -0.8608 -1.6473
  899MOL0     H18617   8.484   1.770  10.604 -2.5030 -1.2906  3.0353
  899MOL0     H18618   8.630   1.685  10.551  1.0358 -1.6983  0.0891
  899MOL0     H18619   8.442   1.599  10.769  0.9577  1.5277 -1.0557
  899MOL0     H18620   8.582   1.494  10.722 -0.3805 -1.2097  0.9587
  899MOL0     H18621   8.514   1.303  10.604  1.6412 -0.6474 -2.2839
  899MOL0     H18622   8.304   1.121  10.508 -0.6313 -0.8989 -0.0865
  899MOL0     H18623   8.415   1.154  10.362  1.6072  0.4094  1.2373
  899MOL0     H18624   8.207   1.225  10.244  3.3607  0.2724  0.3062
  899MOL0     H18625   8.116   1.217  10.388  0.7001  0.9555 -0.5588
  899MOL0     H18626   8.256   0.989  10.231  1.4265 -0.0457  0.6723
  899MOL0     H18627   8.215   0.948  10.388 -1.7299 -0.3825  0.9486
  899MOL0     H18628   8.048   0.882  10.243  0.7067 -0.2559  0.4622
  899MOL0     H18629   8.013   1.039  10.175  2.4918  2.4891  0.5012
  899MOL0     H18630   7.780   1.200  10.286 -2.0818  1.0316 -0.3443
  899MOL0     H18631   7.536   1.174  10.296  0.0953  0.0903 -0.1186
  899MOL0     H18632   7.139   1.166  10.449 -0.6989 -0.0870  0.3997
  899MOL0     H18633   6.884   1.159  10.400  0.9057  3.8143 -1.4051
  899MOL0     H18634   6.634   1.119  10.276 -0.9334 -0.2960 -5.2139
  899MOL0     H18635   6.726   0.989  10.363  3.7696  3.1836  0.1197
  899MOL0     H18636   6.598   0.819  10.223  0.7531  0.5836  0.8604
  899MOL0     H18637   6.551   0.949  10.112  4.1830 -1.1843 -0.8132
  899MOL0     H18638   6.412   1.049  10.296 -1.1090 -0.0534 -0.0130
  899MOL0     H18639   6.488   0.931  10.408  0.6624  0.5870 -0.0834
  899MOL0     H18640   6.327   0.829  10.177  2.7768 -0.2616 -0.7008
  899MOL0     H18641   6.356   0.750  10.325  1.6705  0.1039 -0.6960
  899MOL0     H18642   6.169   0.978  10.263  0.1381 -0.6639 -0.8987
  899MOL0     H18643   6.240   0.970  10.428  0.8818  1.6303 -1.4641
  899MOL0     H18644   6.106   0.786  10.481 -0.6810  0.3353  0.0294
  899MOL0     H18645   6.081   0.739  10.306 -1.0458  0.2830 -0.4368
  899MOL0     H18646   5.941   0.945  10.294 -0.8515  0.0506  0.2361
  899MOL0     H18647   5.878   0.818  10.402  1.6526 -1.5132  1.7475
  899MOL0     H18648   6.029   1.066  10.498 -0.1343 -0.5302  3.7776
  899MOL0     H18649   5.933   0.951  10.595  0.2367 -0.5647 -0.3659
  899MOL0     H18650   6.993   0.923  10.048 -1.1012 -0.3431  1.4968
  899MOL0     H18651   7.224   0.942  10.113  0.6761  0.7817 -0.2402
  899MOL0     H18652   7.584   0.765  10.406 -2.4776 -0.5046 -1.3913
  899MOL0     H18653   7.824   0.800  10.443  1.1251  2.5991  0.0065
  899MOL0     H18654   8.926   2.543  10.949  1.8969  1.1837  0.1256
  899MOL0     H18655   9.045   2.748  10.953 -1.4031  0.1301  1.4467
  899MOL0     H18656   9.225   3.133  10.507  2.4687 -0.1815 -0.8232
  899MOL0     H18657   9.329   3.356  10.545  0.2483 -0.7445 -0.1867
  899MOL0     H18658   9.444   3.534  10.611  0.4750  1.6356  1.0555
  899MOL0     H18659   9.563   3.422  10.672 -0.4165 -1.4206  0.8412
  899MOL0     H18660   9.589   3.613  10.870 -0.5167  2.8869  0.5862
  899MOL0     H18661   9.677   3.621  10.723  0.4106  1.1129  1.8656
  899MOL0     H18662   9.538   3.825  10.819  1.5682 -0.7278 -0.9949
  899MOL0     H18663   9.391   3.741  10.766 -0.2619  1.1912  0.6205
  899MOL0     H18664   9.484   3.772  10.532  1.3294  0.7163 -1.4753
  899MOL0     H18665   9.471   3.917  10.605 -2.3340 -0.7712  2.7410
  899MOL0     H18666   9.893   3.861  10.585  1.5434 -2.4272 -1.2386
  899MOL0     H18667   9.274   3.323  10.961  0.1078  2.4207 -0.8414
  899MOL0     H18668   9.177   3.092  10.929 -2.3706  0.8000  0.6933
  900MOL0     O18669  10.655   3.063   8.294 -0.1444  0.1099  0.5459
  900MOL0     C18670  10.682   3.086   8.178 -0.1698 -0.1534  0.0212
  900MOL0     O18671  10.620   3.020   8.069 -1.4888  0.6507  0.0500
  900MOL0     C18672  10.489   2.962   8.086 -0.4892 -0.6251  0.2544
  900MOL0     C18673  10.480   2.828   8.061 -0.6401 -0.7001  0.4783
  900MOL0     C18674  10.358   2.762   8.067  0.3849 -0.2238  0.4520
  900MOL0     C18675  10.236   2.826   8.090 -0.0873 -0.2071  0.5480
  900MOL0     O18676  10.117   2.768   8.086 -0.1732 -0.4631 -0.2273
  900MOL0     C18677  10.089   2.645   8.137  0.7062 -0.5997  0.0423
  900MOL0     C18678   9.994   2.656   8.261  0.3963 -0.0115 -0.3789
  900MOL0     C18679   9.869   2.745   8.227 -0.5406 -0.4875 -0.9755
  900MOL0     C18680   9.774   2.753   8.349 -0.3128 -0.6620  0.6220
  900MOL0     C18681   9.658   2.853   8.326 -0.9102 -0.2239 -0.0063
  900MOL0     C18682   9.568   2.864   8.451  0.5086  0.4887 -0.7454
  900MOL0     C18683   9.494   2.739   8.491  0.5621  0.0071  0.3056
  900MOL0     C18684   9.416   2.676   8.375  0.1348  0.9567  0.1292
  900MOL0     N18685   9.294   2.597   8.412  0.9868  0.4833  0.0381
  900MOL0     C18686   9.166   2.641   8.417 -0.8285  0.2240  0.3919
  900MOL0     C18687   9.092   2.543   8.466 -0.0247  0.7081 -0.0095
  900MOL0     C18688   8.945   2.528   8.489  0.5381  0.4039 -0.2045
  900MOL0     C18689   8.853   2.616   8.407 -0.4177  1.0105 -0.4761
  900MOL0     C18690   8.713   2.598   8.445  0.6446 -0.2760 -0.0333
  900MOL0     C18691   8.615   2.669   8.356  0.2585  0.5095  0.6142
  900MOL0     O18692   8.496   2.598   8.370  0.1974  0.0197  0.4599
  900MOL0     C18693   8.389   2.641   8.291  0.3602 -0.1392 -0.5608
  900MOL0     C18694   8.405   2.749   8.205 -0.5828 -0.8545  0.7175
  900MOL0     C18695   8.295   2.796   8.127  0.2462 -0.9063  0.9811
  900MOL0     C18696   8.168   2.733   8.137 -0.3047 -0.3929 -0.8141
  900MOL0     C18697   8.051   2.787   8.070 -0.3075 -0.4162 -0.5593
  900MOL0     O18698   7.930   2.715   8.089  0.3972  0.4081 -0.2914
  900MOL0     C18699   7.826   2.729   7.997  0.0438  0.3026  0.1894
  900MOL0     C18700   7.702   2.703   8.038  0.1427 -0.0778 -0.1508
  900MOL0     C18701   7.592   2.694   7.950  0.2462 -0.2742  0.1143
  900MOL0     C18702   7.599   2.733   7.818 -0.8519 -0.5985 -0.4347
  900MOL0     O18703   7.486   2.711   7.737  0.0318 -0.2742 -0.0147
  900MOL0     C18704   7.478   2.787   7.617 -0.7455 -0.3789  0.7660
  900MOL0     C18705   7.358   2.872   7.619  0.6828  0.3923 -0.2493
  900MOL0     C18706   7.221   2.796   7.632  0.7234 -0.0250  0.1037
  900MOL0     C18707   7.107   2.891   7.617  0.6831 -0.5984 -0.1564
  900MOL0     C18708   6.968   2.818   7.633  0.3933 -0.8209  0.3452
  900MOL0     C18709   6.845   2.915   7.608 -0.9800  0.8656 -0.2914
  900MOL0     C18710   6.706   2.845   7.620  1.2569 -0.2819 -0.7269
  900MOL0     C18711   6.595   2.934   7.568 -0.0795  0.4397  0.3407
  900MOL0    Cl18712   6.549   3.045   7.690 -0.0832 -0.2106  0.2295
  900MOL0     C18713   7.732   2.768   7.772  0.2377  0.0786  0.2835
  900MOL0     C18714   7.839   2.752   7.857 -0.0980 -0.1277 -1.1704
  900MOL0     O18715   8.063   2.891   8.009 -0.8424  0.0806  1.2391
  900MOL0     C18716   8.149   2.633   8.239 -0.5158 -0.4332 -0.1632
  900MOL0     C18717   8.258   2.591   8.313 -0.3976 -0.4844 -0.4732
  900MOL0     N18718   9.175   2.436   8.509  0.0476 -0.0684  0.3731
  900MOL0     N18719   9.297   2.474   8.469 -0.1112 -0.0118 -0.7325
  900MOL0     C18720  10.245   2.965   8.111  0.1245 -0.9339  0.4563
  900MOL0     C18721  10.372   3.032   8.104  1.9778 -0.6648  0.3347
  900MOL0     C18722  10.812   3.162   8.150  0.6006  0.4454  0.5664
  900MOL0     C18723  10.844   3.191   8.019  0.1777  1.0757  0.3641
  900MOL0     C18724  10.944   3.278   7.992  0.5580  0.0125  0.9951
  900MOL0     C18725  11.022   3.334   8.090 -0.5432  0.2736 -0.3017
  900MOL0     O18726  11.140   3.401   8.066 -0.4407  0.3062 -0.4032
  900MOL0     C18727  11.227   3.353   7.964 -0.2851  0.4546  0.0792
  900MOL0     C18728  11.356   3.427   7.961  0.0246  0.1918 -0.3097
  900MOL0     C18729  11.440   3.412   8.096  0.0285  0.8337 -0.4877
  900MOL0     C18730  11.586   3.451   8.082  0.7439 -0.3448  0.5022
  900MOL0     C18731  11.662   3.365   7.986  0.1392 -1.0491 -0.0935
  900MOL0     C18732  11.735   3.313   7.907 -1.1775  0.0833 -0.1954
  900MOL0     C18733  11.002   3.291   8.224  0.2067  0.1820  0.6355
  900MOL0     C18734  10.900   3.199   8.257 -0.3118  0.1608 -0.3801
  900MOL0     H18735  10.572   2.778   8.031  0.2826  0.6561  0.9674
  900MOL0     H18736  10.372   2.658   8.039  0.5391 -0.4746  1.4091
  900MOL0     H18737  10.178   2.589   8.165  0.8463 -0.2616  0.2748
  900MOL0     H18738  10.040   2.587   8.059  1.0592 -0.8884  0.0344
  900MOL0     H18739  10.051   2.709   8.338  0.3934 -0.2299 -0.2245
  900MOL0     H18740   9.965   2.559   8.302  0.3253  1.1075  2.4712
  900MOL0     H18741   9.819   2.682   8.152 -0.1824 -1.9335 -0.0478
  900MOL0     H18742   9.887   2.843   8.183 -2.1175  0.2699 -0.0332
  900MOL0     H18743   9.740   2.650   8.363  0.8247 -1.6098 -2.6054
  900MOL0     H18744   9.820   2.793   8.440  2.4551  0.2522 -1.0621
  900MOL0     H18745   9.594   2.833   8.239  0.6014  1.9751 -1.7310
  900MOL0     H18746   9.709   2.949   8.317  3.4528 -2.1999  0.8007
  900MOL0     H18747   9.483   2.930   8.431 -0.0526 -0.3604 -1.2594
  900MOL0     H18748   9.624   2.915   8.530 -0.1526  0.7790 -0.4603
  900MOL0     H18749   9.572   2.673   8.530 -0.0722  0.2211  2.0238
  900MOL0     H18750   9.427   2.763   8.573  0.1862  3.6357 -0.8876
  900MOL0     H18751   9.489   2.615   8.321  0.3573 -1.4283  2.9343
  900MOL0     H18752   9.381   2.754   8.306 -0.2207 -0.4620 -1.3668
  900MOL0     H18753   9.139   2.745   8.402  3.0396  1.5920  1.7247
  900MOL0     H18754   8.924   2.548   8.595  1.9885  1.2513 -0.0411
  900MOL0     H18755   8.921   2.425   8.461  6.1394 -0.5494 -2.9495
  900MOL0     H18756   8.864   2.595   8.301  1.9309 -0.3891 -0.0275
  900MOL0     H18757   8.896   2.714   8.432  3.8836 -1.0774  1.3034
  900MOL0     H18758   8.695   2.491   8.427  1.1874 -0.4207  0.2447
  900MOL0     H18759   8.696   2.615   8.551 -1.6215 -2.1688 -0.0118
  900MOL0     H18760   8.652   2.679   8.254 -0.6102  1.5489  0.3869
  900MOL0     H18761   8.603   2.771   8.395 -3.3185  0.5807 -0.3950
  900MOL0     H18762   8.500   2.800   8.188  0.3879 -1.7299  3.1205
  900MOL0     H18763   8.318   2.884   8.069 -2.4074  1.1739  2.8271
  900MOL0     H18764   7.690   2.666   8.140  0.8965  0.7507  0.2596
  900MOL0     H18765   7.497   2.649   7.980 -0.0535 -1.3068 -2.1797
  900MOL0     H18766   7.467   2.723   7.530  2.0167 -0.2617  0.2440
  900MOL0     H18767   7.569   2.844   7.598  0.2607 -1.8184  1.0756
  900MOL0     H18768   7.363   2.932   7.528  2.0937 -0.1684 -0.5635
  900MOL0     H18769   7.371   2.941   7.703  4.8581  0.8098 -1.0316
  900MOL0     H18770   7.205   2.759   7.734 -0.0991  0.2240  0.0650
  900MOL0     H18771   7.214   2.716   7.557 -2.1944  1.9923 -1.9687
  900MOL0     H18772   7.121   2.963   7.698  0.6949  0.6031 -1.1999
  900MOL0     H18773   7.105   2.945   7.522  3.6530  1.1926  0.6624
  900MOL0     H18774   6.949   2.781   7.734  0.9836 -0.7973  0.4721
  900MOL0     H18775   6.962   2.738   7.559 -2.1542 -1.6000  1.2962
  900MOL0     H18776   6.863   2.952   7.507 -2.2756  2.3839  0.0002
  900MOL0     H18777   6.846   2.994   7.684  2.1065 -1.6114  2.5859
  900MOL0     H18778   6.690   2.745   7.579  0.9144 -0.7156  0.4128
  900MOL0     H18779   6.675   2.829   7.724  0.3972 -2.5824 -1.2683
  900MOL0     H18780   6.504   2.874   7.554  1.2805 -1.7186  0.2700
  900MOL0     H18781   6.616   2.986   7.474 -1.0755 -0.1074 -0.2023
  900MOL0     H18782   7.738   2.781   7.664 -1.5483  0.2870  0.1826
  900MOL0     H18783   7.938   2.769   7.815 -0.0203  1.4523 -0.4127
  900MOL0     H18784   8.049   2.598   8.261 -1.4729  2.5832  0.8090
  900MOL0     H18785   8.231   2.511   8.381 -1.8329 -1.0684 -1.6440
  900MOL0     H18786  10.149   3.009   8.133  0.3954 -0.6512  1.1336
  900MOL0     H18787  10.368   3.140   8.114  1.3055 -0.5490 -0.9693
  900MOL0     H18788  10.789   3.156   7.932  0.2149  0.4712  0.5802
  900MOL0     H18789  10.981   3.283   7.890 -1.1132  3.4880  0.4146
  900MOL0     H18790  11.180   3.383   7.869 -1.5068 -0.0958  0.4936
  900MOL0     H18791  11.229   3.244   7.961 -2.0432  0.3812 -2.7351
  900MOL0     H18792  11.411   3.394   7.873  0.9674 -2.0205  1.0126
  900MOL0     H18793  11.338   3.534   7.951 -0.0998  0.2596  0.5279
  900MOL0     H18794  11.430   3.308   8.129 -1.0212  0.6802 -1.2261
  900MOL0     H18795  11.384   3.472   8.168 -3.5338 -0.6262 -1.7983
  900MOL0     H18796  11.594   3.553   8.043  0.2104 -0.1393  0.9122
  900MOL0     H18797  11.631   3.453   8.182 -0.9864 -1.0721  1.3378
  900MOL0     H18798  11.803   3.256   7.848 -2.7648 -1.4616 -0.5958
  900MOL0     H18799  11.077   3.323   8.295 -0.4346  1.1634  0.8913
  900MOL0     H18800  10.887   3.170   8.360  1.1544  0.7042 -0.0235
  901MOL0     O18801   0.212   3.760   7.425  0.8274 -0.3907 -0.2190
  901MOL0     C18802   0.282   3.715   7.512  0.3789 -0.3290 -0.9966
  901MOL0     O18803   0.235   3.643   7.616 -0.3020  0.5935  0.2074
  901MOL0     C18804   0.102   3.637   7.629  0.4544 -0.0149  0.2503
  901MOL0     C18805   0.042   3.703   7.745 -0.0097 -0.3027 -0.0656
  901MOL0     C18806  -0.100   3.675   7.771  0.4531  1.2815  0.1503
  901MOL0     C18807  -0.173   3.582   7.688 -0.7750  0.1191 -0.2199
  901MOL0     O18808  -0.308   3.542   7.697  0.3075  0.2427 -0.2285
  901MOL0     C18809  -0.393   3.626   7.779  0.0300  0.3831  0.6040
  901MOL0     C18810  -0.532   3.570   7.759  0.8280 -0.2413 -0.1301
  901MOL0     C18811  -0.574   3.607   7.612  0.5323 -0.4978 -0.0717
  901MOL0     C18812  -0.714   3.571   7.587  0.6298 -0.9599  0.4828
  901MOL0     C18813  -0.756   3.587   7.439  0.4240 -0.5820  0.2220
  901MOL0     C18814  -0.729   3.730   7.379  0.7556  0.5438  0.0881
  901MOL0     C18815  -0.791   3.848   7.462  0.4354  0.1454  0.6148
  901MOL0     C18816  -0.774   3.966   7.366  0.5529 -0.3712 -0.0708
  901MOL0     N18817  -0.872   3.973   7.251  0.0169  0.4185  0.1363
  901MOL0     C18818  -0.999   3.924   7.232 -0.1411 -0.1587  0.4342
  901MOL0     C18819  -1.025   3.973   7.108 -0.9831  0.1523  0.8123
  901MOL0     C18820  -1.168   3.970   7.050 -0.3605  1.0130  0.7928
  901MOL0     C18821  -1.171   3.960   6.898 -0.4951  0.1846  0.2590
  901MOL0     C18822  -1.151   3.828   6.834  0.2719  0.1147  1.0635
  901MOL0     C18823  -1.012   3.764   6.857 -0.2326 -0.6402 -0.4413
  901MOL0     O18824  -1.009   3.634   6.797  0.4204  0.0225 -0.1527
  901MOL0     C18825  -0.890   3.598   6.745  0.4172 -0.3431 -0.2161
  901MOL0     C18826  -0.894   3.531   6.619 -0.4019  0.0441 -0.8134
  901MOL0     C18827  -0.782   3.481   6.559  0.0227  0.0182 -0.6143
  901MOL0     C18828  -0.661   3.486   6.621  0.2467  0.1460  0.6662
  901MOL0     C18829  -0.534   3.441   6.561  0.4078  0.0540  1.0022
  901MOL0     O18830  -0.422   3.466   6.628  0.6286 -0.7736  0.3480
  901MOL0     C18831  -0.308   3.426   6.555 -0.9740 -0.5308 -0.2408
  901MOL0     C18832  -0.260   3.526   6.467  0.2682  0.0676  0.0505
  901MOL0     C18833  -0.132   3.501   6.415  0.2702 -0.8105 -0.0522
  901MOL0     C18834  -0.054   3.392   6.451 -0.2247  0.4375 -0.0582
  901MOL0     O18835   0.068   3.353   6.398  0.1608 -0.1896 -0.1388
  901MOL0     C18836   0.132   3.434   6.298 -1.1527 -0.3151 -0.1182
  901MOL0     C18837   0.281   3.393   6.308  0.0193 -0.4162  0.2665
  901MOL0     C18838   0.342   3.445   6.444  0.6064  0.4316  0.7805
  901MOL0     C18839   0.482   3.379   6.476  1.0145 -0.8255 -0.6672
  901MOL0     C18840   0.549   3.445   6.600  0.0787  0.5278 -0.2632
  901MOL0     C18841   0.457   3.467   6.717  0.6149 -0.5278 -0.6609
  901MOL0     C18842   0.532   3.493   6.849 -0.2016  0.6422  1.2307
  901MOL0     C18843   0.440   3.513   6.967  0.3858  0.4809 -0.2278
  901MOL0    Cl18844   0.343   3.665   6.946 -0.2354  0.2714  0.2752
  901MOL0     C18845  -0.115   3.300   6.537 -0.4098  0.0690 -0.0156
  901MOL0     C18846  -0.237   3.315   6.589 -0.2249 -0.4360  0.7063
  901MOL0     O18847  -0.539   3.383   6.447  0.8368  0.5263  0.3456
  901MOL0     C18848  -0.654   3.547   6.750 -0.3411  0.0851  0.9286
  901MOL0     C18849  -0.767   3.601   6.812 -0.0666  0.7207 -0.0871
  901MOL0     N18850  -0.915   4.046   7.056  0.2131 -0.4252  1.1410
  901MOL0     N18851  -0.829   4.037   7.140 -0.4239 -0.1503 -0.6195
  901MOL0     C18852  -0.119   3.520   7.578 -0.0253 -0.2610 -0.3072
  901MOL0     C18853   0.013   3.555   7.541  0.6608 -0.1888 -0.3779
  901MOL0     C18854   0.433   3.728   7.507  0.3222 -0.5242 -0.0622
  901MOL0     C18855   0.508   3.684   7.613  0.0388  0.1753 -0.8443
  901MOL0     C18856   0.642   3.692   7.607  1.1274  1.0738 -0.9641
  901MOL0     C18857   0.710   3.752   7.504  0.1813 -0.0769  0.3591
  901MOL0     O18858   0.844   3.742   7.509 -0.5054  1.2495 -0.8641
  901MOL0     C18859   0.920   3.777   7.393  0.2176 -0.8329  0.3269
  901MOL0     C18860   1.074   3.755   7.415  0.3471  0.6968 -0.0200
  901MOL0     C18861   1.143   3.761   7.274 -0.7717 -0.4901  0.3947
  901MOL0     C18862   1.291   3.708   7.295 -0.6760 -0.6063  0.0142
  901MOL0     C18863   1.364   3.741   7.170 -0.9844 -0.1112  0.4939
  901MOL0     C18864   1.431   3.771   7.073 -0.1737 -0.6555 -0.2452
  901MOL0     C18865   0.635   3.814   7.402 -0.6227  0.1476  0.8426
  901MOL0     C18866   0.497   3.795   7.404  0.1496 -0.0799 -1.2630
  901MOL0     H18867   0.099   3.773   7.805 -0.2322  2.1513 -2.5258
  901MOL0     H18868  -0.159   3.726   7.846 -1.6847 -0.9773  0.1424
  901MOL0     H18869  -0.389   3.731   7.748  1.5667 -0.1486 -1.1719
  901MOL0     H18870  -0.365   3.619   7.885  0.4015 -1.0483  0.4273
  901MOL0     H18871  -0.601   3.632   7.817 -1.1700 -0.4796 -2.1101
  901MOL0     H18872  -0.526   3.463   7.781 -0.7953 -0.2565  0.3840
  901MOL0     H18873  -0.516   3.541   7.548  3.9472  0.6780  1.5624
  901MOL0     H18874  -0.546   3.708   7.581 -2.4736  0.9989  1.6662
  901MOL0     H18875  -0.727   3.469   7.624  0.3447 -0.5655  1.5108
  901MOL0     H18876  -0.775   3.640   7.645  2.3142 -0.0027  1.1961
  901MOL0     H18877  -0.857   3.547   7.428  0.3129 -0.9291  2.1652
  901MOL0     H18878  -0.677   3.532   7.388  0.0373  1.5029 -2.8709
  901MOL0     H18879  -0.771   3.730   7.278  0.6914 -1.6102  0.0701
  901MOL0     H18880  -0.620   3.742   7.372  0.7866  0.8513  0.9570
  901MOL0     H18881  -0.894   3.835   7.496 -0.3538 -0.8006 -1.8917
  901MOL0     H18882  -0.729   3.860   7.551  1.6619 -1.4221  0.0271
  901MOL0     H18883  -0.676   3.956   7.318  0.7827 -0.0761  0.3329
  901MOL0     H18884  -0.795   4.055   7.425 -0.3485 -0.9074  0.4504
  901MOL0     H18885  -1.054   3.862   7.302 -1.6600  2.1406  1.3903
  901MOL0     H18886  -1.221   4.063   7.072 -2.6412  0.0931 -0.5377
  901MOL0     H18887  -1.214   3.879   7.089  1.6810 -1.1474 -1.5017
  901MOL0     H18888  -1.089   4.023   6.862 -0.3428  1.1147  2.1127
  901MOL0     H18889  -1.268   3.997   6.864 -1.9451 -1.0884  2.7748
  901MOL0     H18890  -1.232   3.766   6.872 -3.8959  2.7152 -2.6383
  901MOL0     H18891  -1.171   3.835   6.726 -0.6330  2.5614  1.3433
  901MOL0     H18892  -0.999   3.763   6.966  1.8645  1.6952 -0.5460
  901MOL0     H18893  -0.946   3.838   6.810 -4.3860  3.6363 -0.2396
  901MOL0     H18894  -0.985   3.517   6.562 -0.8139  1.7513 -0.6268
  901MOL0     H18895  -0.774   3.436   6.460 -1.6967  2.3937 -1.9361
  901MOL0     H18896  -0.329   3.607   6.450 -1.7605 -1.2963  1.3968
  901MOL0     H18897  -0.102   3.581   6.348 -4.9111  0.7630 -0.9496
  901MOL0     H18898   0.125   3.541   6.321 -2.1799 -0.3217 -0.3389
  901MOL0     H18899   0.098   3.417   6.196  0.5808 -0.8371 -0.6349
  901MOL0     H18900   0.340   3.429   6.223 -0.6751 -3.2520 -1.5426
  901MOL0     H18901   0.283   3.284   6.310  1.3797 -0.4164 -0.0625
  901MOL0     H18902   0.266   3.426   6.519 -2.1744 -1.2625 -2.2175
  901MOL0     H18903   0.356   3.553   6.436  1.2313  0.2583 -1.0591
  901MOL0     H18904   0.463   3.275   6.505  0.2678 -0.3644  0.5589
  901MOL0     H18905   0.539   3.378   6.382 -0.5997 -0.0268 -1.6947
  901MOL0     H18906   0.592   3.544   6.581  0.6513  0.4448  0.5453
  901MOL0     H18907   0.638   3.389   6.628  0.1873  0.0140 -1.5780
  901MOL0     H18908   0.382   3.388   6.726 -2.7275  2.4343 -0.5565
  901MOL0     H18909   0.402   3.561   6.708  1.7038  0.0368 -1.8421
  901MOL0     H18910   0.589   3.400   6.862  1.9585  1.8410  0.6689
  901MOL0     H18911   0.597   3.581   6.851 -1.3008  1.4681  2.4365
  901MOL0     H18912   0.488   3.522   7.065 -0.4669 -0.2742  0.2792
  901MOL0     H18913   0.370   3.429   6.975 -0.3514  0.9008 -1.7905
  901MOL0     H18914  -0.056   3.214   6.567  1.2316  1.7658  1.9084
  901MOL0     H18915  -0.281   3.250   6.665  1.3689 -2.7645 -0.2558
  901MOL0     H18916  -0.566   3.546   6.813  0.8521 -4.8373 -0.3571
  901MOL0     H18917  -0.751   3.655   6.905 -0.9777 -0.5429  0.8427
  901MOL0     H18918  -0.173   3.442   7.525  0.2567 -1.3706  0.9975
  901MOL0     H18919   0.057   3.510   7.453  0.6643  1.4426 -1.2430
  901MOL0     H18920   0.471   3.626   7.697  1.8011  0.5180  0.2247
  901MOL0     H18921   0.703   3.652   7.687 -1.3827 -0.5075  0.2935
  901MOL0     H18922   0.904   3.883   7.368  2.3213  0.0666  2.3970
  901MOL0     H18923   0.897   3.708   7.312 -0.9669  1.3476 -1.3058
  901MOL0     H18924   1.099   3.839   7.481 -4.1989  2.5550 -0.2935
  901MOL0     H18925   1.101   3.661   7.463 -0.7543 -0.0747 -0.8794
  901MOL0     H18926   1.161   3.868   7.256 -0.3675 -0.3898  1.3544
  901MOL0     H18927   1.094   3.711   7.190 -0.7803  0.8808 -0.4506
  901MOL0     H18928   1.338   3.755   7.381  0.2357 -2.6845  0.7300
  901MOL0     H18929   1.295   3.600   7.315  1.3778 -0.4421  0.7363
  901MOL0     H18930   1.484   3.804   6.986  0.8462 -4.1028 -1.0645
  901MOL0     H18931   0.662   3.865   7.310 -2.1063  2.7717  1.7731
  901MOL0     H18932   0.447   3.835   7.316  0.9522  0.8672 -1.3068
  902MOL0     O18933   7.190   7.837   8.303  0.5311  0.1864  0.6855
  902MOL0     C18934   7.216   7.960   8.292 -0.7861  1.3407 -0.1738
  902MOL0     O18935   7.140   8.066   8.326  0.1681  0.0689  0.2728
  902MOL0     C18936   7.004   8.050   8.333 -0.6701 -0.4567  0.5176
  902MOL0     C18937   6.936   7.951   8.417 -0.8013 -0.0162  0.1666
  902MOL0     C18938   6.793   7.935   8.405  0.4622  0.0382 -0.0034
  902MOL0     C18939   6.715   8.022   8.323  0.2317 -0.7325  0.0622
  902MOL0     O18940   6.574   8.023   8.307 -0.6474 -0.5575  0.0192
  902MOL0     C18941   6.496   7.921   8.380  0.2621 -0.1313  0.1299
  902MOL0     C18942   6.350   7.972   8.367  0.9575 -0.4454 -0.6028
  902MOL0     C18943   6.326   8.113   8.439 -0.4895  1.5382 -0.0031
  902MOL0     C18944   6.190   8.172   8.419  0.2978 -0.6568  0.7095
  902MOL0     C18945   6.171   8.311   8.478 -0.7332  0.7740  0.8499
  902MOL0     C18946   6.255   8.419   8.402  0.1101  0.1866 -0.3546
  902MOL0     C18947   6.244   8.414   8.248  0.1104 -0.2752 -0.0022
  902MOL0     C18948   6.103   8.454   8.204  0.3518 -0.4247 -0.1085
  902MOL0     N18949   6.093   8.473   8.062 -0.2931  0.1306 -0.2583
  902MOL0     C18950   6.072   8.358   7.982  0.0283 -0.1517 -0.3007
  902MOL0     C18951   6.063   8.412   7.863  0.1220  0.1812 -0.5116
  902MOL0     C18952   6.045   8.338   7.738 -0.3713 -0.0127  0.1551
  902MOL0     C18953   5.914   8.263   7.734  0.2228 -0.7805  0.4660
  902MOL0     C18954   5.819   8.362   7.671  0.5603  0.0116 -0.1838
  902MOL0     C18955   5.670   8.324   7.687  0.6899  0.5560  0.0336
  902MOL0     O18956   5.620   8.258   7.569  0.1460  0.1071 -0.6446
  902MOL0     C18957   5.489   8.267   7.543  0.7263 -0.1296  0.0008
  902MOL0     C18958   5.430   8.155   7.491  1.1944  0.2979  0.7371
  902MOL0     C18959   5.287   8.153   7.454 -0.8494  0.5838  0.2761
  902MOL0     C18960   5.213   8.268   7.461  0.6740  0.0465  0.0281
  902MOL0     C18961   5.079   8.256   7.401 -0.3431 -0.4654 -0.6303
  902MOL0     O18962   5.026   8.134   7.365 -0.1064 -0.1707  0.5763
  902MOL0     C18963   4.916   8.121   7.282 -0.3897  0.0441  0.5781
  902MOL0     C18964   4.784   8.113   7.343  0.3360 -1.1071  0.5070
  902MOL0     C18965   4.683   8.060   7.265  0.4945 -0.0335 -0.9988
  902MOL0     C18966   4.699   8.025   7.136  1.4050  0.1089  0.7288
  902MOL0     O18967   4.603   7.974   7.054  0.3052  0.4278  0.6024
  902MOL0     C18968   4.475   7.938   7.113  0.5990  0.1326  0.6554
  902MOL0     C18969   4.391   7.865   7.010 -0.2847 -0.6461  0.0673
  902MOL0     C18970   4.268   7.800   7.075  0.3909 -0.2593 -0.2578
  902MOL0     C18971   4.287   7.723   7.204 -0.3258  0.4223 -0.4076
  902MOL0     C18972   4.170   7.623   7.235 -0.2120 -0.5385  0.1784
  902MOL0     C18973   4.157   7.602   7.392 -0.3851 -0.3512 -0.0438
  902MOL0     C18974   4.019   7.589   7.426  0.6558  0.0632  0.2799
  902MOL0     C18975   3.991   7.437   7.432 -0.5252  0.8003 -0.2144
  902MOL0    Cl18976   4.068   7.374   7.584 -0.1496 -0.1544  0.0971
  902MOL0     C18977   4.825   8.036   7.082  0.7204  0.6918  0.2084
  902MOL0     C18978   4.934   8.081   7.150 -0.2280 -0.0664 -0.0650
  902MOL0     O18979   5.027   8.365   7.386 -0.4919  0.9237 -0.1734
  902MOL0     C18980   5.277   8.382   7.515 -0.6555  0.1069 -0.4996
  902MOL0     C18981   5.412   8.376   7.566  0.2121  0.0842 -0.5060
  902MOL0     N18982   6.077   8.550   7.860  0.2634  0.5179 -0.2546
  902MOL0     N18983   6.088   8.585   7.982 -0.6469  0.4290  0.3071
  902MOL0     C18984   6.781   8.119   8.253 -0.0776 -0.4151 -0.3221
  902MOL0     C18985   6.924   8.134   8.264  0.0204  0.9678  0.0360
  902MOL0     C18986   7.352   7.989   8.240  0.9609 -0.5564  0.8042
  902MOL0     C18987   7.388   8.122   8.179  0.5437 -0.4361 -0.6966
  902MOL0     C18988   7.515   8.156   8.131 -0.2014 -0.0048  0.5562
  902MOL0     C18989   7.614   8.057   8.139 -0.6079 -0.1339 -0.1991
  902MOL0     O18990   7.742   8.101   8.103 -0.0522  0.1205 -0.2472
  902MOL0     C18991   7.846   8.104   8.197 -1.3859  0.0669 -0.7222
  902MOL0     C18992   7.852   8.255   8.233 -0.6229 -0.1067  0.6712
  902MOL0     C18993   7.986   8.303   8.297 -0.0466  0.5965  1.0172
  902MOL0     C18994   7.975   8.418   8.389 -0.5933  0.4262 -0.0008
  902MOL0     C18995   7.888   8.393   8.500  0.0223 -0.1546 -0.7458
  902MOL0     C18996   7.823   8.349   8.594 -0.7716  1.0419  0.8291
  902MOL0     C18997   7.585   7.939   8.207 -0.0584  0.1470  0.7922
  902MOL0     C18998   7.455   7.892   8.237 -0.2811  0.4356 -1.1387
  902MOL0     H18999   6.991   7.897   8.493  1.0894  0.0252 -1.0950
  902MOL0     H19000   6.762   7.847   8.460 -0.8083  1.0007  0.8924
  902MOL0     H19001   6.537   7.898   8.479 -3.2640 -2.0028  1.3601
  902MOL0     H19002   6.510   7.824   8.332  2.4762  0.4454 -0.4883
  902MOL0     H19003   6.273   7.904   8.403  0.5720  0.5341  0.5241
  902MOL0     H19004   6.329   7.996   8.262 -3.0043  0.1109  0.1307
  902MOL0     H19005   6.398   8.186   8.402  3.8407 -1.7070  1.1411
  902MOL0     H19006   6.346   8.087   8.544 -0.3082  2.1919  0.1279
  902MOL0     H19007   6.156   8.160   8.315  0.4876 -4.0644  0.9515
  902MOL0     H19008   6.121   8.103   8.467 -0.1408 -0.5631  0.2336
  902MOL0     H19009   6.210   8.330   8.579  1.4123  1.5290 -0.0566
  902MOL0     H19010   6.066   8.333   8.458 -0.7040 -1.1357 -2.0028
  902MOL0     H19011   6.360   8.401   8.425  0.0252 -0.2488 -0.3163
  902MOL0     H19012   6.232   8.520   8.438 -3.3140 -0.3275 -0.7345
  902MOL0     H19013   6.322   8.464   8.190  1.6605 -3.2556 -0.6497
  902MOL0     H19014   6.265   8.311   8.218 -0.4781 -0.4345  0.1049
  902MOL0     H19015   6.060   8.548   8.240 -2.0009 -0.9274 -1.4273
  902MOL0     H19016   6.027   8.384   8.241 -2.8342  2.3532 -0.9236
  902MOL0     H19017   6.082   8.253   8.010  2.7489  0.6413  2.2962
  902MOL0     H19018   6.130   8.270   7.725 -0.0511  0.3477  0.3646
  902MOL0     H19019   6.052   8.402   7.649 -2.9269 -2.0788 -1.6836
  902MOL0     H19020   5.885   8.249   7.839 -0.6385  1.0191  0.5022
  902MOL0     H19021   5.921   8.169   7.678 -0.9357 -1.6782  1.7503
  902MOL0     H19022   5.828   8.446   7.741  1.6135 -1.7192  1.8930
  902MOL0     H19023   5.847   8.406   7.575 -0.0985  1.7823  0.3994
  902MOL0     H19024   5.615   8.413   7.719  0.4136  0.1594  0.7013
  902MOL0     H19025   5.656   8.263   7.777 -0.8551  1.0580  0.1744
  902MOL0     H19026   5.498   8.071   7.474 -1.0661 -1.5275  0.1573
  902MOL0     H19027   5.244   8.063   7.412 -3.1883  0.2184  3.1105
  902MOL0     H19028   4.773   8.147   7.446 -1.5211  2.0464 -0.6113
  902MOL0     H19029   4.585   8.055   7.310  1.2062 -1.3526  0.4913
  902MOL0     H19030   4.421   8.025   7.152  1.3614  0.7739  0.3312
  902MOL0     H19031   4.503   7.876   7.199  0.2830  0.3224  0.8969
  902MOL0     H19032   4.451   7.793   6.955  1.3780  1.9190 -1.7170
  902MOL0     H19033   4.357   7.933   6.932 -1.9835  0.6838  1.8580
  902MOL0     H19034   4.221   7.738   6.997  1.4774 -0.6338 -0.6272
  902MOL0     H19035   4.200   7.878   7.111 -0.6041 -1.9552  1.7917
  902MOL0     H19036   4.375   7.660   7.216 -1.1451 -0.7258 -0.3121
  902MOL0     H19037   4.298   7.791   7.289  0.6171  1.4411 -1.3172
  902MOL0     H19038   4.201   7.535   7.178  6.0183  1.9259 -0.9712
  902MOL0     H19039   4.083   7.670   7.188  1.1566  3.2692  1.0837
  902MOL0     H19040   4.192   7.687   7.451 -3.3450  1.1979 -0.3290
  902MOL0     H19041   4.212   7.512   7.422 -1.7636 -0.9336  0.8352
  902MOL0     H19042   3.989   7.640   7.518  0.7735 -0.9725  0.9121
  902MOL0     H19043   3.944   7.624   7.353  0.3258 -2.7211 -0.8721
  902MOL0     H19044   4.023   7.382   7.342  0.1426 -1.4194  1.2985
  902MOL0     H19045   3.882   7.433   7.440 -0.6501  2.9052 -0.2595
  902MOL0     H19046   4.831   8.007   6.978 -1.1652  1.1777 -0.0824
  902MOL0     H19047   5.030   8.070   7.101 -0.4203 -0.2701 -0.4015
  902MOL0     H19048   5.214   8.467   7.540  1.4969  1.8010 -0.6304
  902MOL0     H19049   5.446   8.466   7.615  1.1615 -1.7916  2.6062
  902MOL0     H19050   6.727   8.182   8.183  0.8217 -0.6811 -1.2886
  902MOL0     H19051   6.968   8.203   8.193  0.2838 -1.4566 -2.2938
  902MOL0     H19052   7.316   8.201   8.159  1.0727  0.1646 -0.2741
  902MOL0     H19053   7.529   8.254   8.088  0.1741  0.5551  1.9181
  902MOL0     H19054   7.932   8.066   8.141 -0.7031  1.9678 -1.0191
  902MOL0     H19055   7.831   8.039   8.284 -3.5513  0.1066 -1.0216
  902MOL0     H19056   7.838   8.320   8.147  1.4171  0.2036  0.5062
  902MOL0     H19057   7.774   8.288   8.302 -0.6498  3.6525 -0.9657
  902MOL0     H19058   8.054   8.319   8.213  0.6831 -3.1052  0.7599
  902MOL0     H19059   8.033   8.218   8.346 -1.4868 -0.1009  1.2519
  902MOL0     H19060   8.074   8.440   8.429  0.9017 -2.5924 -1.6923
  902MOL0     H19061   7.943   8.509   8.338  0.8264  2.1679  2.0107
  902MOL0     H19062   7.750   8.293   8.649  1.3514 -2.3072  0.5935
  902MOL0     H19063   7.666   7.869   8.223  0.9789  1.2787  0.6997
  902MOL0     H19064   7.429   7.794   8.277 -2.6087  1.8971  1.2416
  903MOL0     O19065   5.707   0.201   0.021  0.2290 -0.0071  0.0695
  903MOL0     C19066   5.791   0.220  -0.063 -0.0340  0.4432  0.0754
  903MOL0     O19067   5.764   0.249  -0.203  0.1615 -0.2440  0.4021
  903MOL0     C19068   5.629   0.229  -0.233 -0.1165 -0.1693 -0.8688
  903MOL0     C19069   5.565   0.321  -0.312 -0.2215  0.2630  0.4361
  903MOL0     C19070   5.429   0.305  -0.356 -0.8198 -0.9210  0.1212
  903MOL0     C19071   5.360   0.187  -0.339  0.3294  0.2674  0.6974
  903MOL0     O19072   5.242   0.161  -0.391  0.3980 -0.3579  0.8316
  903MOL0     C19073   5.151   0.272  -0.410 -0.2479  1.0188 -0.2734
  903MOL0     C19074   5.010   0.227  -0.443 -0.2635 -0.2787  0.2427
  903MOL0     C19075   5.020   0.171  -0.590  0.2567 -0.3193 -0.3393
  903MOL0     C19076   4.894   0.135  -0.669  0.0597 -0.6800  0.5904
  903MOL0     C19077   4.829   0.013  -0.608  0.8383 -0.0381  0.9185
  903MOL0     C19078   4.722  -0.040  -0.696  0.5675 -0.3065 -0.1513
  903MOL0     C19079   4.683  -0.178  -0.640 -0.4008  0.0894 -0.0365
  903MOL0     C19080   4.559  -0.252  -0.709  0.1247  1.0240  0.5953
  903MOL0     N19081   4.433  -0.183  -0.692 -0.2191 -0.5881 -0.0083
  903MOL0     C19082   4.341  -0.196  -0.588 -0.4981 -0.0921  1.7158
  903MOL0     C19083   4.238  -0.114  -0.622 -0.5811 -0.4316  1.0000
  903MOL0     C19084   4.118  -0.095  -0.538 -0.2864 -0.4584 -0.5258
  903MOL0     C19085   4.030  -0.230  -0.546 -0.0715 -0.3111 -0.0958
  903MOL0     C19086   3.888  -0.206  -0.476 -0.2986  0.4882  1.0220
  903MOL0     C19087   3.811  -0.334  -0.455 -0.8276  0.2774  0.0555
  903MOL0     O19088   3.678  -0.319  -0.396  0.7079  0.3329 -1.1069
  903MOL0     C19089   3.598  -0.428  -0.377  0.5807 -0.4572 -0.3387
  903MOL0     C19090   3.640  -0.562  -0.397 -0.4378  0.4609 -0.3200
  903MOL0     C19091   3.560  -0.671  -0.362 -0.0962  0.8764  1.0558
  903MOL0     C19092   3.428  -0.652  -0.326 -0.4574  0.3561 -0.2082
  903MOL0     C19093   3.338  -0.762  -0.296 -0.6626 -0.0794  0.3288
  903MOL0     O19094   3.210  -0.728  -0.297 -0.3027  0.0904 -0.4123
  903MOL0     C19095   3.103  -0.800  -0.256 -0.6885  0.1103 -0.3427
  903MOL0     C19096   2.986  -0.735  -0.257  0.3543 -0.2347 -0.5314
  903MOL0     C19097   2.870  -0.802  -0.219 -0.4402  0.0607  0.2136
  903MOL0     C19098   2.873  -0.945  -0.202  0.1634 -0.6555  0.4456
  903MOL0     O19099   2.749  -1.009  -0.183  0.1586 -0.2903 -0.0836
  903MOL0     C19100   2.736  -1.147  -0.230 -0.1786  0.1100  0.0076
  903MOL0     C19101   2.585  -1.164  -0.272 -0.1931  0.5015  0.2467
  903MOL0     C19102   2.555  -1.302  -0.331 -1.1235  0.4496  0.8737
  903MOL0     C19103   2.401  -1.330  -0.339  0.8547  0.6648 -0.9572
  903MOL0     C19104   2.373  -1.485  -0.349  0.1129 -1.0399  0.5184
  903MOL0     C19105   2.403  -1.553  -0.483  0.2018 -0.3436 -0.1180
  903MOL0     C19106   2.424  -1.701  -0.470  1.0761 -0.9213  0.5557
  903MOL0     C19107   2.300  -1.778  -0.434  0.3783  0.3991  0.0259
  903MOL0    Cl19108   2.167  -1.759  -0.557  0.1065  0.1637  0.1287
  903MOL0     C19109   2.993  -1.011  -0.200 -0.2323 -0.5139  1.0805
  903MOL0     C19110   3.110  -0.939  -0.217  0.8045 -1.4785  0.4853
  903MOL0     O19111   3.383  -0.873  -0.278  0.1733 -0.3734  0.4205
  903MOL0     C19112   3.382  -0.516  -0.313  0.0260  1.0272 -0.5769
  903MOL0     C19113   3.465  -0.409  -0.330 -0.6476 -0.6913 -0.6583
  903MOL0     N19114   4.263  -0.055  -0.748 -0.4368  0.3829 -0.1975
  903MOL0     N19115   4.373  -0.100  -0.778 -1.0835  0.1263 -0.3241
  903MOL0     C19116   5.429   0.084  -0.277 -0.8741 -0.0914  0.0813
  903MOL0     C19117   5.558   0.110  -0.217 -0.3890  0.2219  0.3241
  903MOL0     C19118   5.933   0.193  -0.032  0.5226 -0.2657  0.0113
  903MOL0     C19119   6.035   0.235  -0.116  0.5645 -0.4196 -0.0819
  903MOL0     C19120   6.165   0.240  -0.073 -0.4194 -0.1183 -0.1485
  903MOL0     C19121   6.208   0.189   0.049  0.7635  0.7004  0.7717
  903MOL0     O19122   6.339   0.190   0.082 -0.1508  0.0811  0.3419
  903MOL0     C19123   6.440   0.249   0.003 -0.4953 -0.1306  0.0941
  903MOL0     C19124   6.579   0.218   0.066  0.1591 -0.3587 -0.1483
  903MOL0     C19125   6.602   0.307   0.188  0.2062  0.6646  0.4812
  903MOL0     C19126   6.721   0.251   0.269 -1.1361  0.1134  0.3188
  903MOL0     C19127   6.741   0.333   0.398 -0.2190 -0.5683 -0.4434
  903MOL0     C19128   6.739   0.413   0.484 -0.0425 -0.1568 -0.0428
  903MOL0     C19129   6.106   0.133   0.135  0.8690 -0.2403  0.9220
  903MOL0     C19130   5.970   0.143   0.096  0.1254 -0.3598 -0.1052
  903MOL0     H19131   5.617   0.414  -0.333  0.5956 -0.6158 -1.6555
  903MOL0     H19132   5.390   0.389  -0.411 -1.1001 -1.5795 -0.6979
  903MOL0     H19133   5.188   0.346  -0.481  0.0734  2.0268  0.8977
  903MOL0     H19134   5.149   0.327  -0.315  2.1998 -0.1156  0.5328
  903MOL0     H19135   4.945   0.315  -0.443 -1.1600 -0.9118  1.3233
  903MOL0     H19136   4.976   0.150  -0.373  0.8132 -0.4408  0.6028
  903MOL0     H19137   5.080   0.082  -0.575  1.0432 -0.2524 -2.6895
  903MOL0     H19138   5.083   0.232  -0.656 -2.4004  2.1154 -0.8714
  903MOL0     H19139   4.827   0.221  -0.662  0.7241 -0.1864  1.0407
  903MOL0     H19140   4.914   0.114  -0.774  2.2212  1.5060  0.4735
  903MOL0     H19141   4.797   0.035  -0.506  0.7804  0.9796  0.6892
  903MOL0     H19142   4.900  -0.070  -0.620  0.8858  0.3598 -2.8855
  903MOL0     H19143   4.753  -0.043  -0.800  2.4879 -2.1237  0.3895
  903MOL0     H19144   4.635   0.026  -0.687 -0.4379 -1.5709 -0.3441
  903MOL0     H19145   4.769  -0.239  -0.667 -2.5645 -1.4769 -4.4874
  903MOL0     H19146   4.668  -0.171  -0.531 -0.0166 -0.7204  0.0760
  903MOL0     H19147   4.547  -0.352  -0.666 -0.1487  2.4209  4.1733
  903MOL0     H19148   4.578  -0.254  -0.817 -0.5315  3.1103  0.3967
  903MOL0     H19149   4.349  -0.255  -0.497 -0.1351  0.1770  1.8615
  903MOL0     H19150   4.053  -0.016  -0.576  1.5048  1.8938  0.9622
  903MOL0     H19151   4.148  -0.076  -0.434 -1.4008  0.6865 -0.3757
  903MOL0     H19152   4.076  -0.312  -0.490  0.7626 -0.5700 -1.1325
  903MOL0     H19153   4.024  -0.265  -0.649 -1.9067  0.2417 -0.2158
  903MOL0     H19154   3.903  -0.162  -0.377 -1.2418  0.9731  0.9598
  903MOL0     H19155   3.837  -0.134  -0.541  0.0372 -0.7503 -0.6966
  903MOL0     H19156   3.877  -0.392  -0.391  2.2144  0.9341 -2.2337
  903MOL0     H19157   3.799  -0.388  -0.549 -0.0764  2.2956 -1.2751
  903MOL0     H19158   3.739  -0.603  -0.414  0.8761  1.7665  3.2546
  903MOL0     H19159   3.609  -0.768  -0.374 -1.6755  0.2219 -0.7477
  903MOL0     H19160   2.981  -0.635  -0.297 -0.2606 -1.0013 -2.4719
  903MOL0     H19161   2.783  -0.739  -0.202  0.0027  0.2619  1.9614
  903MOL0     H19162   2.771  -1.212  -0.149  1.3091 -1.2969 -1.6850
  903MOL0     H19163   2.802  -1.165  -0.315 -0.2613 -4.3884  0.6107
  903MOL0     H19164   2.554  -1.089  -0.345 -0.0234 -0.0523 -0.4041
  903MOL0     H19165   2.522  -1.158  -0.183  0.4610 -0.7617  0.8356
  903MOL0     H19166   2.604  -1.384  -0.277  1.4294  1.6571  0.4989
  903MOL0     H19167   2.596  -1.314  -0.432 -2.0678 -1.3192  0.6431
  903MOL0     H19168   2.345  -1.308  -0.247 -0.1491 -3.3292 -0.4397
  903MOL0     H19169   2.358  -1.273  -0.422 -0.6538  1.1655  0.1203
  903MOL0     H19170   2.269  -1.512  -0.333  0.1559 -1.9213 -0.5799
  903MOL0     H19171   2.432  -1.539  -0.274 -0.0526  0.8987  2.1256
  903MOL0     H19172   2.499  -1.510  -0.513  0.0948 -0.8302 -1.1915
  903MOL0     H19173   2.328  -1.532  -0.559 -1.1006 -2.4599  0.4776
  903MOL0     H19174   2.460  -1.741  -0.565  2.2422 -2.1755  1.4850
  903MOL0     H19175   2.505  -1.714  -0.397  0.9766 -1.6223  0.5464
  903MOL0     H19176   2.264  -1.738  -0.339 -0.4421 -0.8645  0.2741
  903MOL0     H19177   2.322  -1.883  -0.415  0.8373  0.6034  0.6172
  903MOL0     H19178   3.000  -1.117  -0.177  0.0605 -0.3723  1.6739
  903MOL0     H19179   3.201  -0.999  -0.219  0.0343 -2.7425  1.3601
  903MOL0     H19180   3.284  -0.500  -0.269 -0.5674 -4.2143  0.5893
  903MOL0     H19181   3.450  -0.307  -0.294  1.2487 -0.3496 -0.7351
  903MOL0     H19182   5.391  -0.017  -0.264  0.8346 -0.8945 -0.8420
  903MOL0     H19183   5.622   0.034  -0.174 -0.4870 -0.3099 -0.4575
  903MOL0     H19184   6.001   0.270  -0.213 -0.6234  0.8257  0.7529
  903MOL0     H19185   6.239   0.278  -0.142  0.9358  0.3206  1.4712
  903MOL0     H19186   6.416   0.356   0.009  1.6367  0.3070  2.5030
  903MOL0     H19187   6.445   0.200  -0.094  0.2518 -1.2583  0.6936
  903MOL0     H19188   6.566   0.115   0.101 -1.4723 -0.0405  0.2588
  903MOL0     H19189   6.658   0.216  -0.010 -1.0415  0.9823 -1.4929
  903MOL0     H19190   6.508   0.299   0.243 -0.6272 -0.9878 -1.0681
  903MOL0     H19191   6.625   0.411   0.163 -1.2685  1.0960  0.8335
  903MOL0     H19192   6.716   0.144   0.292  4.4169 -1.4328 -3.6134
  903MOL0     H19193   6.813   0.264   0.212  0.0391 -1.0988  1.8412
  903MOL0     H19194   6.750   0.488   0.560  1.7594 -0.9032  0.4770
  903MOL0     H19195   6.134   0.099   0.234  2.2710 -0.2692  0.5470
  903MOL0     H19196   5.893   0.129   0.171  0.6179  1.0242  0.6897
  904MOL0     O19197   0.876   5.853   4.795  0.8739 -0.2820  0.0731
  904MOL0     C19198   0.831   5.788   4.895  0.2004 -0.1286  0.2597
  904MOL0     O19199   0.699   5.754   4.898  0.1898  0.0633  0.2216
  904MOL0     C19200   0.619   5.774   4.787  0.2716  0.0125 -0.3455
  904MOL0     C19201   0.541   5.889   4.776 -0.1955  0.4894  0.1640
  904MOL0     C19202   0.450   5.903   4.683 -0.4053  0.3296  0.7399
  904MOL0     C19203   0.427   5.799   4.591  0.4164 -0.6360  0.4256
  904MOL0     O19204   0.334   5.800   4.492 -0.1415 -0.0705  0.0468
  904MOL0     C19205   0.227   5.898   4.499 -0.7701  0.3422 -0.3722
  904MOL0     C19206   0.141   5.872   4.377 -0.7785  1.0309 -0.7847
  904MOL0     C19207   0.011   5.954   4.373 -0.3986  0.3586 -0.3961
  904MOL0     C19208  -0.056   5.929   4.240 -0.4056 -0.2640  0.0247
  904MOL0     C19209  -0.209   5.969   4.243  0.4594 -0.1249 -0.5154
  904MOL0     C19210  -0.270   5.951   4.107 -0.0963 -0.4650 -0.2808
  904MOL0     C19211  -0.415   5.960   4.119  0.6353 -0.7225 -0.2022
  904MOL0     C19212  -0.469   6.109   4.128 -0.6156  0.2535 -0.9934
  904MOL0     N19213  -0.607   6.110   4.145 -0.3922 -0.8928 -0.2916
  904MOL0     C19214  -0.675   6.103   4.261  0.0273 -0.6065 -0.7733
  904MOL0     C19215  -0.810   6.123   4.224  0.7147 -0.9114 -0.7293
  904MOL0     C19216  -0.933   6.119   4.307 -0.4572  0.8552  0.0384
  904MOL0     C19217  -1.027   6.001   4.262 -0.3135 -1.3424 -0.6248
  904MOL0     C19218  -1.166   6.015   4.325  0.2635  0.7127  0.1432
  904MOL0     C19219  -1.257   6.122   4.251 -0.4596  0.1681 -0.7949
  904MOL0     O19220  -1.398   6.095   4.285  0.1865  0.4392 -0.6764
  904MOL0     C19221  -1.450   6.132   4.407 -0.6252 -0.3736 -0.2483
  904MOL0     C19222  -1.379   6.199   4.511 -0.4283 -0.0424  0.2187
  904MOL0     C19223  -1.443   6.245   4.623 -0.8103  0.0950 -0.2308
  904MOL0     C19224  -1.581   6.233   4.640 -0.7800  0.2888 -0.1623
  904MOL0     C19225  -1.637   6.268   4.772 -0.5398  0.7211  0.1257
  904MOL0     O19226  -1.547   6.307   4.871 -0.0236 -0.8961 -0.0025
  904MOL0     C19227  -1.580   6.354   4.998 -0.2811 -0.3213 -0.8919
  904MOL0     C19228  -1.480   6.340   5.103  0.5537 -0.0083  0.0589
  904MOL0     C19229  -1.510   6.394   5.230 -1.0738  0.8557 -0.1468
  904MOL0     C19230  -1.631   6.453   5.270  0.3014 -0.5900  0.6702
  904MOL0     O19231  -1.663   6.520   5.388  0.3308  0.1283 -0.2971
  904MOL0     C19232  -1.557   6.559   5.470 -0.8778  1.1057 -0.0080
  904MOL0     C19233  -1.594   6.654   5.585 -0.0908  0.6583  0.0340
  904MOL0     C19234  -1.656   6.583   5.712  0.9884 -0.0696 -0.3255
  904MOL0     C19235  -1.809   6.560   5.689 -0.2486 -0.2245 -0.2333
  904MOL0     C19236  -1.869   6.485   5.808  0.1024  1.1605 -0.1617
  904MOL0     C19237  -2.022   6.457   5.791 -0.2304 -0.7312  0.4818
  904MOL0     C19238  -2.089   6.371   5.894 -0.7305  0.2222  0.2800
  904MOL0     C19239  -2.053   6.225   5.885  0.0410  0.2433  0.5188
  904MOL0    Cl19240  -2.129   6.153   5.735 -0.0195 -0.0439  0.1771
  904MOL0     C19241  -1.732   6.465   5.173 -0.8406 -0.4029 -0.0024
  904MOL0     C19242  -1.707   6.408   5.043 -0.2534 -0.0906 -0.2135
  904MOL0     O19243  -1.756   6.254   4.789  0.1677  0.5046 -0.3697
  904MOL0     C19244  -1.652   6.165   4.535  0.6578  0.1738 -0.3611
  904MOL0     C19245  -1.589   6.126   4.419 -0.4604  0.5618  0.4724
  904MOL0     N19246  -0.808   6.145   4.085 -1.1010  0.0808 -0.2992
  904MOL0     N19247  -0.689   6.132   4.037 -0.2619  0.1431 -0.3967
  904MOL0     C19248   0.501   5.686   4.598 -0.4739  0.9623  0.1807
  904MOL0     C19249   0.604   5.674   4.692  0.2501 -0.4319 -0.1684
  904MOL0     C19250   0.924   5.750   5.006  0.1123  0.3059  0.6693
  904MOL0     C19251   0.890   5.650   5.109 -0.8706 -0.0898 -0.3363
  904MOL0     C19252   0.984   5.621   5.209 -0.3374 -0.3260  0.5316
  904MOL0     C19253   1.117   5.682   5.209 -0.3518 -0.5081  0.1363
  904MOL0     O19254   1.203   5.636   5.307 -0.2037  0.2177  0.1419
  904MOL0     C19255   1.339   5.693   5.308 -0.0304 -0.4822  0.4102
  904MOL0     C19256   1.404   5.616   5.201 -0.7545  0.4661  0.0425
  904MOL0     C19257   1.546   5.680   5.177  1.4666  0.2600 -0.7901
  904MOL0     C19258   1.618   5.610   5.061 -0.1888  0.3000 -0.0031
  904MOL0     C19259   1.708   5.506   5.102 -0.6355 -0.0740 -0.1021
  904MOL0     C19260   1.800   5.431   5.127 -0.1100 -0.3533  0.7332
  904MOL0     C19261   1.141   5.776   5.115 -0.5741 -0.5252  0.6792
  904MOL0     C19262   1.044   5.806   5.013 -0.1049  0.5743  0.2776
  904MOL0     H19263   0.549   5.952   4.864 -0.7833  0.5902  0.1512
  904MOL0     H19264   0.398   5.997   4.672 -1.9313 -0.7523 -2.4915
  904MOL0     H19265   0.260   6.001   4.512  2.0674 -0.4585 -0.6267
  904MOL0     H19266   0.163   5.870   4.583 -0.1070  0.8021  0.2947
  904MOL0     H19267   0.127   5.764   4.391  1.8939  0.5866 -0.9879
  904MOL0     H19268   0.198   5.888   4.285  0.8260 -1.6129 -0.3585
  904MOL0     H19269   0.033   6.061   4.366  3.0622 -0.2981 -1.8582
  904MOL0     H19270  -0.049   5.927   4.460 -1.6726  2.3695 -0.5830
  904MOL0     H19271  -0.000   5.989   4.167 -0.4560  0.5683  0.6497
  904MOL0     H19272  -0.054   5.824   4.212 -0.9071 -0.7011  1.5375
  904MOL0     H19273  -0.230   6.070   4.278 -2.3978 -0.5296 -0.8750
  904MOL0     H19274  -0.253   5.901   4.316 -3.4857  0.4963 -2.0573
  904MOL0     H19275  -0.240   5.854   4.068 -2.2118 -1.1355 -0.3401
  904MOL0     H19276  -0.238   6.030   4.038 -2.3733  2.3366  1.6305
  904MOL0     H19277  -0.452   5.929   4.021 -1.1884 -0.3360  0.3327
  904MOL0     H19278  -0.454   5.891   4.194  4.3452 -0.2007  2.4960
  904MOL0     H19279  -0.429   6.160   4.040  2.7373  0.6469  0.6075
  904MOL0     H19280  -0.432   6.163   4.215 -1.2323 -1.3338  0.3041
  904MOL0     H19281  -0.637   6.100   4.362 -1.9742 -0.3891  0.0298
  904MOL0     H19282  -0.976   6.219   4.302 -0.1324  0.9314 -2.6548
  904MOL0     H19283  -0.911   6.115   4.414  1.2632  1.3931 -0.2628
  904MOL0     H19284  -0.974   5.907   4.278  0.3947 -0.5188  2.8837
  904MOL0     H19285  -1.032   6.017   4.154  0.0442  0.2912 -0.4313
  904MOL0     H19286  -1.221   5.921   4.316  0.7664  0.2165  1.9017
  904MOL0     H19287  -1.154   6.034   4.432 -0.6320  0.2701  0.3264
  904MOL0     H19288  -1.241   6.111   4.143 -1.9194 -2.1287 -0.8434
  904MOL0     H19289  -1.231   6.223   4.284  1.1051 -0.1788 -0.8752
  904MOL0     H19290  -1.274   6.227   4.511 -0.9411  2.0288 -0.1603
  904MOL0     H19291  -1.383   6.296   4.698 -1.8590  1.9248 -0.5596
  904MOL0     H19292  -1.376   6.310   5.094  1.9203  3.9804  0.7639
  904MOL0     H19293  -1.441   6.381   5.313  0.4860 -2.4399 -1.7740
  904MOL0     H19294  -1.479   6.609   5.412  0.2990 -0.3391  0.2729
  904MOL0     H19295  -1.506   6.475   5.518 -0.2339  0.1640 -2.1947
  904MOL0     H19296  -1.664   6.732   5.554  0.0631  0.4600 -0.8319
  904MOL0     H19297  -1.500   6.697   5.621 -0.0016 -0.3941  1.1359
  904MOL0     H19298  -1.654   6.652   5.796 -3.0621 -0.6028  0.4502
  904MOL0     H19299  -1.606   6.490   5.739  0.0880 -0.8992 -1.3697
  904MOL0     H19300  -1.871   6.650   5.688 -2.9627 -1.9948 -0.4292
  904MOL0     H19301  -1.832   6.501   5.600  1.3255 -3.3420  1.2456
  904MOL0     H19302  -1.870   6.549   5.897 -2.0885 -0.7313  1.2870
  904MOL0     H19303  -1.808   6.396   5.827 -0.0541  1.1120  0.1189
  904MOL0     H19304  -2.035   6.407   5.695 -0.5171  2.3087 -1.1723
  904MOL0     H19305  -2.064   6.557   5.789  1.1019 -0.1555 -0.2918
  904MOL0     H19306  -2.068   6.419   5.989  0.5845  1.8002 -0.7566
  904MOL0     H19307  -2.195   6.390   5.876 -0.2335  2.0566 -1.0558
  904MOL0     H19308  -2.085   6.161   5.967  1.1118 -2.4329 -1.0300
  904MOL0     H19309  -1.945   6.213   5.874 -0.0898 -0.8972  0.3929
  904MOL0     H19310  -1.825   6.505   5.213 -0.4780 -1.9407  2.5685
  904MOL0     H19311  -1.795   6.409   4.979  0.9317  0.4699 -1.9250
  904MOL0     H19312  -1.757   6.139   4.534  0.1030  2.1484  0.4770
  904MOL0     H19313  -1.662   6.076   4.356  0.1505 -1.9948  1.6358
  904MOL0     H19314   0.484   5.605   4.528 -0.6123  0.5161  0.7183
  904MOL0     H19315   0.654   5.579   4.702  0.0793 -0.5566 -0.4863
  904MOL0     H19316   0.797   5.596   5.105  0.4478 -2.5818  0.6030
  904MOL0     H19317   0.960   5.545   5.283 -0.4566  0.1356  0.9757
  904MOL0     H19318   1.390   5.701   5.405  1.1469  3.2082 -0.3310
  904MOL0     H19319   1.332   5.798   5.277 -1.5427 -0.7386 -0.1644
  904MOL0     H19320   1.421   5.513   5.233  1.1903  0.1319 -1.8096
  904MOL0     H19321   1.348   5.620   5.107  0.4443  0.9819 -0.6820
  904MOL0     H19322   1.611   5.684   5.264  1.4590 -0.5739 -0.7405
  904MOL0     H19323   1.527   5.784   5.147  2.6644  0.2948 -1.4968
  904MOL0     H19324   1.545   5.571   4.990 -1.7628  2.2988  0.4107
  904MOL0     H19325   1.679   5.684   5.008 -0.2773  0.4151  0.0555
  904MOL0     H19326   1.880   5.360   5.130 -0.1405 -0.5950 -1.7218
  904MOL0     H19327   1.229   5.839   5.113 -1.7343  1.2333  1.7378
  904MOL0     H19328   1.068   5.885   4.943 -1.8949 -0.3914 -1.5144
  905MOL0     O19329  10.407   0.463   6.819 -0.1906  0.3844  0.4952
  905MOL0     C19330  10.341   0.378   6.766 -0.0990 -0.4086 -1.0458
  905MOL0     O19331  10.385   0.281   6.689 -1.1163 -0.2742  0.0657
  905MOL0     C19332  10.520   0.265   6.660 -0.1261 -0.0790  0.8252
  905MOL0     C19333  10.573   0.136   6.647  0.4080  0.1888 -0.3220
  905MOL0     C19334  10.703   0.119   6.600 -0.7463 -0.4186 -0.9675
  905MOL0     C19335  10.784   0.227   6.563  0.0881  0.7484  0.8886
  905MOL0     O19336  10.919   0.195   6.554 -0.0220  0.3392 -0.0996
  905MOL0     C19337  11.011   0.296   6.558 -0.4618 -0.3159  0.2337
  905MOL0     C19338  11.137   0.235   6.499 -0.6715  0.4940  0.2664
  905MOL0     C19339  11.267   0.317   6.512 -0.3910 -0.7201  0.2290
  905MOL0     C19340  11.240   0.472   6.498 -0.3153 -0.4673 -0.2519
  905MOL0     C19341  11.219   0.521   6.350 -0.4617  0.5331 -0.1733
  905MOL0     C19342  11.157   0.669   6.345  0.3229 -0.1154 -0.1920
  905MOL0     C19343  11.006   0.683   6.318  0.8319  0.1922  0.0836
  905MOL0     C19344  10.918   0.699   6.434 -0.4773  0.6778 -0.1830
  905MOL0     N19345  10.776   0.707   6.392  0.0479  0.8049 -0.2355
  905MOL0     C19346  10.717   0.787   6.294 -0.1342 -0.2050  0.7508
  905MOL0     C19347  10.585   0.758   6.293  0.1414 -0.0556 -0.7652
  905MOL0     C19348  10.482   0.810   6.197  0.6261  0.0522 -0.3789
  905MOL0     C19349  10.485   0.733   6.065  0.7746 -0.5770 -0.5127
  905MOL0     C19350  10.421   0.596   6.079 -0.5002  0.1356  0.4500
  905MOL0     C19351  10.432   0.515   5.954 -0.3069 -1.1010  0.1880
  905MOL0     O19352  10.344   0.561   5.853 -0.1583  0.3469  0.0420
  905MOL0     C19353  10.207   0.541   5.867 -1.2131 -0.4062 -0.5701
  905MOL0     C19354  10.128   0.608   5.781 -0.1889 -1.0638  1.4449
  905MOL0     C19355   9.984   0.599   5.786  0.4018  0.9124 -1.0639
  905MOL0     C19356   9.923   0.522   5.892  0.1235  0.0388 -0.0696
  905MOL0     C19357   9.773   0.527   5.901 -0.0480 -0.0421  0.5006
  905MOL0     O19358   9.712   0.446   5.989 -0.5787  0.7292 -0.5871
  905MOL0     C19359   9.586   0.484   6.018  0.0225 -1.7206 -0.2678
  905MOL0     C19360   9.555   0.605   6.085  0.1722  0.8421 -0.4410
  905MOL0     C19361   9.420   0.632   6.116 -0.2672  0.6850  0.3681
  905MOL0     C19362   9.318   0.552   6.062 -0.2028 -0.1829  0.1022
  905MOL0     O19363   9.183   0.578   6.088 -0.3047  0.0368 -0.6331
  905MOL0     C19364   9.097   0.471   6.096 -0.0792 -0.3485  0.2510
  905MOL0     C19365   8.992   0.496   6.199  0.5799  0.8977 -0.3909
  905MOL0     C19366   8.895   0.610   6.170  0.7326  0.2386  0.6448
  905MOL0     C19367   8.828   0.680   6.293 -0.3067 -0.5546 -0.3261
  905MOL0     C19368   8.732   0.780   6.242  0.2785 -0.4494  0.3640
  905MOL0     C19369   8.663   0.863   6.357  0.0274 -0.1820  0.9893
  905MOL0     C19370   8.596   0.989   6.295  0.6466  0.1839  0.3881
  905MOL0     C19371   8.530   1.074   6.410 -0.8992 -0.8898  0.4937
  905MOL0    Cl19372   8.388   0.999   6.494 -0.1677 -0.2097 -0.0520
  905MOL0     C19373   9.354   0.442   5.986  0.7185 -1.0669 -1.2317
  905MOL0     C19374   9.484   0.413   5.964 -0.2826 -0.2015  0.9054
  905MOL0     O19375   9.718   0.616   5.832  0.1022  0.1716  0.0272
  905MOL0     C19376  10.005   0.466   5.996 -0.5150 -0.0760  0.8632
  905MOL0     C19377  10.143   0.462   5.978 -0.5511  0.0318  0.5869
  905MOL0     N19378  10.565   0.669   6.398  0.4522 -0.5858  0.3070
  905MOL0     N19379  10.675   0.639   6.457  0.1223 -0.5984  0.5241
  905MOL0     C19380  10.730   0.358   6.583 -0.0136  0.5091 -0.3985
  905MOL0     C19381  10.598   0.374   6.628 -0.6127 -0.4075  0.0617
  905MOL0     C19382  10.196   0.374   6.795  0.1128  0.5611  0.7495
  905MOL0     C19383  10.128   0.490   6.851  0.4218  0.1346 -0.0187
  905MOL0     C19384   9.988   0.486   6.875  0.2425  0.5923  0.0202
  905MOL0     C19385   9.921   0.366   6.848  0.0810 -1.0421  1.0012
  905MOL0     O19386   9.785   0.367   6.879 -0.1420  0.2804  0.3071
  905MOL0     C19387   9.698   0.259   6.836  0.1663  0.2324  0.0732
  905MOL0     C19388   9.552   0.302   6.839 -0.1110 -0.0056 -0.2211
  905MOL0     C19389   9.461   0.189   6.799 -0.2686 -0.3621  0.3171
  905MOL0     C19390   9.315   0.218   6.769 -0.8825  0.2054  0.6785
  905MOL0     C19391   9.249   0.303   6.862 -0.0840  0.4282  0.1344
  905MOL0     C19392   9.224   0.372   6.959 -0.4760 -0.5558  0.5770
  905MOL0     C19393   9.985   0.253   6.793  0.4123  0.0257 -0.9489
  905MOL0     C19394  10.122   0.249   6.776  0.5264  0.4457  0.3061
  905MOL0     H19395  10.525   0.043   6.675  1.9508  0.3470  3.5029
  905MOL0     H19396  10.730   0.014   6.595 -2.5394 -1.0854  1.4687
  905MOL0     H19397  11.025   0.336   6.659 -1.2099  2.2763 -0.6103
  905MOL0     H19398  10.988   0.380   6.492 -2.6877 -0.1188  1.1681
  905MOL0     H19399  11.124   0.217   6.392 -0.9115  1.1692  0.1786
  905MOL0     H19400  11.152   0.138   6.548  2.1186  1.0291  0.6482
  905MOL0     H19401  11.343   0.289   6.438 -0.3928 -0.4839  0.1343
  905MOL0     H19402  11.317   0.297   6.607  0.2254  0.0154  0.0747
  905MOL0     H19403  11.162   0.500   6.570 -2.5248 -2.4110 -1.7178
  905MOL0     H19404  11.321   0.533   6.538 -0.6331 -1.2534  1.6739
  905MOL0     H19405  11.149   0.442   6.321 -2.6137  0.4655  4.3712
  905MOL0     H19406  11.316   0.521   6.300 -0.9885  1.1814 -1.2251
  905MOL0     H19407  11.212   0.709   6.259 -1.5957  1.2016 -0.8622
  905MOL0     H19408  11.198   0.719   6.433  1.9147 -3.7693  1.3543
  905MOL0     H19409  10.991   0.761   6.242 -0.4886  0.2648  0.3898
  905MOL0     H19410  10.973   0.588   6.275 -0.6351  0.4257  0.6478
  905MOL0     H19411  10.947   0.791   6.487  0.6690  0.3144 -0.1504
  905MOL0     H19412  10.935   0.615   6.502  1.5488  0.5736 -0.7559
  905MOL0     H19413  10.777   0.863   6.245  0.7665 -0.6017  1.2103
  905MOL0     H19414  10.515   0.913   6.182  2.1386 -0.0645  1.6860
  905MOL0     H19415  10.380   0.812   6.237  0.9664 -2.7350  0.8912
  905MOL0     H19416  10.590   0.731   6.036  2.4261  2.0939  4.1906
  905MOL0     H19417  10.428   0.797   5.997 -3.2418  0.6111  3.4546
  905MOL0     H19418  10.461   0.536   6.161  1.9779 -0.2243 -0.9166
  905MOL0     H19419  10.322   0.614   6.122  0.7919  1.7517  3.0260
  905MOL0     H19420  10.396   0.415   5.981  0.1008 -0.6621  2.6126
  905MOL0     H19421  10.534   0.513   5.916  0.3985 -0.2258  1.9500
  905MOL0     H19422  10.175   0.679   5.713  1.8508 -1.7280  2.0920
  905MOL0     H19423   9.918   0.649   5.717 -1.8925  1.9075  1.6894
  905MOL0     H19424   9.635   0.673   6.112  0.6524  0.4181 -0.7886
  905MOL0     H19425   9.400   0.727   6.165 -1.5097  0.4791  0.2942
  905MOL0     H19426   9.148   0.378   6.123 -0.0635 -0.5054 -0.3176
  905MOL0     H19427   9.056   0.441   5.999 -0.7799  0.0596  0.4157
  905MOL0     H19428   9.050   0.523   6.288 -2.1912 -0.1980  1.9439
  905MOL0     H19429   8.940   0.401   6.214  1.2044  0.3373 -1.6986
  905MOL0     H19430   8.815   0.580   6.100  1.6993  1.6650 -1.1494
  905MOL0     H19431   8.950   0.691   6.121  0.2677  1.1535  1.5992
  905MOL0     H19432   8.788   0.612   6.369  3.1725  0.4184  2.6892
  905MOL0     H19433   8.904   0.737   6.346  0.4856 -0.0261 -1.9788
  905MOL0     H19434   8.649   0.727   6.193 -0.1509  0.7299 -0.2407
  905MOL0     H19435   8.778   0.855   6.177  1.3197  0.1982  1.8009
  905MOL0     H19436   8.734   0.897   6.433 -0.9758  0.0759  1.8371
  905MOL0     H19437   8.591   0.803   6.414 -0.6342 -0.8287 -0.4631
  905MOL0     H19438   8.668   1.041   6.231 -1.0114  2.5880  0.3261
  905MOL0     H19439   8.520   0.961   6.221 -1.6436  3.0628  1.4349
  905MOL0     H19440   8.499   1.168   6.364 -0.6010 -1.2820 -0.5283
  905MOL0     H19441   8.606   1.098   6.485  0.4911  1.1033 -1.4161
  905MOL0     H19442   9.288   0.364   5.949 -2.0057 -0.0064  0.9955
  905MOL0     H19443   9.504   0.327   5.901  0.8467  0.4010  0.4150
  905MOL0     H19444   9.964   0.430   6.090  0.3484  0.9977  1.6663
  905MOL0     H19445  10.204   0.414   6.053  0.1013 -1.2611 -0.7210
  905MOL0     H19446  10.784   0.451   6.566 -1.1848  1.3323  0.1439
  905MOL0     H19447  10.552   0.472   6.634 -1.6089 -0.9357  1.7921
  905MOL0     H19448  10.175   0.581   6.886  0.6163 -0.6522  1.8568
  905MOL0     H19449   9.937   0.575   6.910  2.9311  2.7594 -1.1750
  905MOL0     H19450   9.716   0.184   6.913 -0.5064 -1.3864 -1.2809
  905MOL0     H19451   9.730   0.228   6.736  0.4994 -2.3725  0.9201
  905MOL0     H19452   9.519   0.333   6.938 -0.8221  2.3033 -1.1095
  905MOL0     H19453   9.546   0.387   6.771  0.5957 -0.7574 -1.2660
  905MOL0     H19454   9.460   0.103   6.867 -0.5353 -1.5198 -1.1008
  905MOL0     H19455   9.494   0.153   6.701 -3.6094  1.5844 -1.6882
  905MOL0     H19456   9.322   0.255   6.666  2.3272 -0.7696  0.4643
  905MOL0     H19457   9.250   0.130   6.773 -0.6074 -0.2569 -2.6445
  905MOL0     H19458   9.207   0.434   7.045 -1.7056 -0.0247 -0.0253
  905MOL0     H19459   9.937   0.159   6.768 -0.0608  0.3436 -1.2616
  905MOL0     H19460  10.159   0.157   6.732 -0.6242 -0.5266  1.2996
  906MOL0     O19461   9.662   7.036   0.456 -0.1353 -0.0726 -0.2723
  906MOL0     C19462   9.690   7.012   0.569  0.1391  0.7807  0.5793
  906MOL0     O19463   9.624   7.055   0.677 -0.0353  0.0340  0.2225
  906MOL0     C19464   9.517   7.142   0.649 -0.8169 -0.1340 -0.0246
  906MOL0     C19465   9.536   7.278   0.638  0.2586 -0.4729  0.2441
  906MOL0     C19466   9.419   7.357   0.601  0.1798  0.4491  0.4767
  906MOL0     C19467   9.296   7.291   0.587  0.7874 -0.6087  0.2216
  906MOL0     O19468   9.202   7.380   0.560 -0.1577  0.0265  0.6994
  906MOL0     C19469   9.087   7.344   0.476 -1.0862 -0.0971 -0.3091
  906MOL0     C19470   8.956   7.422   0.524 -0.6749 -0.1916  0.0208
  906MOL0     C19471   8.918   7.365   0.659  0.5475  0.8071  0.0043
  906MOL0     C19472   8.788   7.425   0.728  0.9832 -0.2908 -0.1783
  906MOL0     C19473   8.768   7.363   0.871 -0.1962  0.0139 -0.2088
  906MOL0     C19474   8.645   7.416   0.944  0.9171  0.3332  0.5802
  906MOL0     C19475   8.522   7.363   0.879  0.6708  0.0691 -0.1455
  906MOL0     C19476   8.407   7.413   0.970 -0.3993  0.7216  0.2093
  906MOL0     N19477   8.389   7.555   0.947  1.1297  0.0101  0.1570
  906MOL0     C19478   8.315   7.597   0.838  0.0011  0.1735  0.2266
  906MOL0     C19479   8.312   7.733   0.868 -0.0303  1.0477  0.9434
  906MOL0     C19480   8.257   7.843   0.786  0.3064  0.9363  0.3572
  906MOL0     C19481   8.099   7.835   0.757 -0.0878 -0.3436 -0.4994
  906MOL0     C19482   8.034   7.817   0.887 -1.1812 -0.3642 -0.1498
  906MOL0     C19483   7.889   7.763   0.869  0.6898 -0.0611  0.1491
  906MOL0     O19484   7.827   7.831   0.758  0.0029 -0.3333 -0.2467
  906MOL0     C19485   7.698   7.837   0.736 -0.1975  0.3642  0.6672
  906MOL0     C19486   7.599   7.771   0.809  0.4034 -0.8241 -0.9041
  906MOL0     C19487   7.461   7.782   0.772  0.3144  0.5833 -0.2953
  906MOL0     C19488   7.423   7.860   0.652 -0.9283  0.0446 -0.0360
  906MOL0     C19489   7.286   7.864   0.592  0.5241 -0.7814  0.6166
  906MOL0     O19490   7.180   7.811   0.669 -0.2661 -0.1060 -0.2281
  906MOL0     C19491   7.053   7.819   0.623 -0.6470  0.1289  0.1284
  906MOL0     C19492   7.008   7.726   0.517  0.5001  0.0967 -0.8155
  906MOL0     C19493   6.877   7.736   0.478  0.0924 -0.1367  0.2179
  906MOL0     C19494   6.787   7.830   0.534 -0.6936 -0.0596 -0.6313
  906MOL0     O19495   6.652   7.827   0.528  0.3141  0.1543 -0.3734
  906MOL0     C19496   6.596   7.813   0.401  0.3919  0.9629  0.4893
  906MOL0     C19497   6.495   7.920   0.355  0.0321 -0.7125 -0.0844
  906MOL0     C19498   6.556   8.063   0.375  0.8201  0.1782  0.2768
  906MOL0     C19499   6.451   8.164   0.331  0.4916 -0.5536 -0.2097
  906MOL0     C19500   6.509   8.306   0.331 -0.2957 -0.9715 -0.5418
  906MOL0     C19501   6.553   8.363   0.467  0.0425  0.0422 -0.3068
  906MOL0     C19502   6.455   8.357   0.585 -0.0179 -0.0592  1.0594
  906MOL0     C19503   6.317   8.420   0.560  0.1309  0.0004 -0.2686
  906MOL0    Cl19504   6.331   8.594   0.505  0.1010 -0.4790  0.1701
  906MOL0     C19505   6.838   7.915   0.635 -0.4672 -0.8193 -0.2807
  906MOL0     C19506   6.969   7.913   0.668 -0.9569  0.3675  0.7681
  906MOL0     O19507   7.281   7.895   0.472  1.0773  0.0469  0.2118
  906MOL0     C19508   7.526   7.935   0.584 -0.6321  0.0758 -0.0769
  906MOL0     C19509   7.658   7.921   0.633  0.1434 -0.9206  0.7172
  906MOL0     N19510   8.399   7.771   0.970 -1.5524 -0.5391 -0.1095
  906MOL0     N19511   8.449   7.660   1.015  0.3063 -0.8500  0.1158
  906MOL0     C19512   9.280   7.157   0.603 -0.4254  0.1093 -1.2376
  906MOL0     C19513   9.394   7.076   0.633  0.6069 -0.3075  0.7649
  906MOL0     C19514   9.810   6.918   0.593 -0.6670 -0.1264 -0.2837
  906MOL0     C19515   9.900   6.896   0.490 -0.5024  0.9703  0.7394
  906MOL0     C19516  10.014   6.821   0.499 -0.7475  0.3887 -0.0703
  906MOL0     C19517  10.053   6.782   0.629  0.1825 -0.2731  0.9565
  906MOL0     O19518  10.173   6.732   0.630 -1.2639  0.3523  0.1090
  906MOL0     C19519  10.233   6.701   0.751 -0.9816 -0.2653  0.8385
  906MOL0     C19520  10.382   6.684   0.718 -0.7141  0.3447  0.2598
  906MOL0     C19521  10.412   6.584   0.601 -0.6872 -0.2188 -0.5030
  906MOL0     C19522  10.563   6.546   0.610  0.3197  0.6182  0.3654
  906MOL0     C19523  10.620   6.524   0.479 -0.3657 -0.4226 -0.7419
  906MOL0     C19524  10.667   6.526   0.367 -0.6987 -0.4070  0.7948
  906MOL0     C19525   9.960   6.801   0.737 -0.0011  0.7345 -0.6067
  906MOL0     C19526   9.838   6.862   0.720  0.2652 -0.3806 -0.0008
  906MOL0     H19527   9.633   7.326   0.652  1.0183 -1.6521 -0.8327
  906MOL0     H19528   9.425   7.463   0.577  0.9694  0.7866  2.0186
  906MOL0     H19529   9.058   7.239   0.489 -3.6034  0.7870  2.3942
  906MOL0     H19530   9.110   7.360   0.370 -0.9851 -1.4630 -0.5108
  906MOL0     H19531   8.882   7.421   0.443 -1.9208 -0.1799  1.1364
  906MOL0     H19532   8.996   7.524   0.527  1.0547 -0.8471  0.4186
  906MOL0     H19533   9.005   7.383   0.723  0.9731 -0.6161 -0.1470
  906MOL0     H19534   8.901   7.257   0.649  0.2958  0.9442 -1.1994
  906MOL0     H19535   8.819   7.528   0.749 -0.0132  0.5483 -2.4640
  906MOL0     H19536   8.701   7.427   0.662  0.6822 -0.5818  0.2052
  906MOL0     H19537   8.848   7.393   0.939 -1.0937  0.0006  0.8827
  906MOL0     H19538   8.763   7.254   0.863 -0.9831  0.1009 -1.1475
  906MOL0     H19539   8.641   7.525   0.946 -0.1739  0.3264 -0.1911
  906MOL0     H19540   8.655   7.380   1.047  1.0296  0.7226  0.7093
  906MOL0     H19541   8.509   7.398   0.776  1.2596 -0.8533 -0.5542
  906MOL0     H19542   8.517   7.253   0.878  1.5530  0.0173  0.2926
  906MOL0     H19543   8.429   7.373   1.069  0.4117 -0.2050 -0.3197
  906MOL0     H19544   8.317   7.361   0.935 -1.7226  2.0505  1.4940
  906MOL0     H19545   8.266   7.549   0.754  0.0908  1.6135 -0.6827
  906MOL0     H19546   8.311   7.832   0.691 -1.9512 -2.9972 -0.7210
  906MOL0     H19547   8.290   7.936   0.833  2.0105  0.5294  0.0052
  906MOL0     H19548   8.075   7.756   0.685 -1.0321 -0.9015  0.4055
  906MOL0     H19549   8.070   7.928   0.706 -1.7595  0.1237  1.1898
  906MOL0     H19550   8.076   7.736   0.946 -0.5141 -0.3285 -0.5634
  906MOL0     H19551   8.039   7.914   0.937  3.7217 -0.4914  0.0660
  906MOL0     H19552   7.843   7.775   0.967  1.6277  1.0090  0.4817
  906MOL0     H19553   7.901   7.658   0.842 -4.1574 -0.9407  0.5168
  906MOL0     H19554   7.628   7.703   0.888 -0.6811  0.8820  1.0800
  906MOL0     H19555   7.397   7.719   0.832  2.9381 -0.8643  1.1860
  906MOL0     H19556   7.063   7.638   0.483  0.4597  0.5584 -2.1212
  906MOL0     H19557   6.823   7.675   0.406  2.2951 -3.2626  1.0183
  906MOL0     H19558   6.539   7.720   0.391  0.4652  0.9342  0.3186
  906MOL0     H19559   6.667   7.812   0.317 -2.0534  3.6427 -1.8085
  906MOL0     H19560   6.405   7.901   0.414  1.1964 -0.1180  1.9902
  906MOL0     H19561   6.469   7.916   0.248 -1.2402  0.2520  0.1561
  906MOL0     H19562   6.645   8.086   0.315  0.4287 -0.8727 -0.7302
  906MOL0     H19563   6.585   8.090   0.477  1.9227  1.7932 -0.4158
  906MOL0     H19564   6.420   8.134   0.231  1.3854 -1.6037 -0.1857
  906MOL0     H19565   6.356   8.162   0.385 -0.3716  1.7632 -1.4981
  906MOL0     H19566   6.452   8.392   0.294  1.1098  1.5748  2.7476
  906MOL0     H19567   6.605   8.303   0.279 -0.1070 -0.3901 -0.2309
  906MOL0     H19568   6.569   8.470   0.449 -0.2003  0.1827  0.2821
  906MOL0     H19569   6.648   8.313   0.490  1.1670  2.7832  1.5348
  906MOL0     H19570   6.438   8.255   0.622 -1.5889 -1.0811 -2.1277
  906MOL0     H19571   6.504   8.419   0.660  1.4744  0.3246 -0.1911
  906MOL0     H19572   6.252   8.406   0.646  1.0576  2.3093  0.9061
  906MOL0     H19573   6.273   8.358   0.482  1.2963 -0.2024 -0.7931
  906MOL0     H19574   6.767   7.986   0.676  1.5170  2.0924 -1.5325
  906MOL0     H19575   7.010   7.990   0.733  1.2229  0.2048 -0.3443
  906MOL0     H19576   7.499   7.999   0.501 -1.9739 -2.0806 -1.3964
  906MOL0     H19577   7.738   7.973   0.580 -1.6674  2.7153  1.1941
  906MOL0     H19578   9.181   7.113   0.604  0.3089 -1.6234 -0.4257
  906MOL0     H19579   9.377   6.969   0.640  0.4542 -0.2286  1.8781
  906MOL0     H19580   9.866   6.931   0.393 -2.1580 -3.4921 -0.5045
  906MOL0     H19581  10.082   6.812   0.415  0.6442  0.9582  0.9486
  906MOL0     H19582  10.188   6.609   0.789 -3.4743 -1.0111 -3.2535
  906MOL0     H19583  10.224   6.783   0.823 -0.6775  2.3686 -1.9210
  906MOL0     H19584  10.426   6.781   0.697 -1.8954  0.5746 -1.2973
  906MOL0     H19585  10.439   6.641   0.801  1.6798  0.8120 -1.0466
  906MOL0     H19586  10.383   6.630   0.506  1.8935  1.2700 -0.6463
  906MOL0     H19587  10.353   6.493   0.610 -1.7112  0.6213  2.2446
  906MOL0     H19588  10.614   6.626   0.665 -3.9740  1.3082  3.9391
  906MOL0     H19589  10.580   6.452   0.663  0.9273  1.3222  1.4503
  906MOL0     H19590  10.723   6.521   0.276 -1.4956  1.4722  0.1325
  906MOL0     H19591   9.993   6.768   0.835  0.7526  2.0058 -0.4228
  906MOL0     H19592   9.768   6.878   0.801 -1.3501 -3.2813 -0.6962
  907MOL0     O19593   3.017   2.784   2.837 -0.3171 -0.3818  1.0610
  907MOL0     C19594   2.971   2.901   2.869  0.4631  0.2473  0.1492
  907MOL0     O19595   3.049   2.998   2.923  0.4336 -1.4188  0.5941
  907MOL0     C19596   3.189   3.002   2.923  0.3349 -0.0760  0.0171
  907MOL0     C19597   3.262   2.890   2.948  0.5796  0.1215  0.4558
  907MOL0     C19598   3.396   2.894   2.946  0.3728 -0.6003 -0.4572
  907MOL0     C19599   3.461   3.008   2.913 -0.5421  0.2234 -0.3455
  907MOL0     O19600   3.592   3.017   2.904  0.2052  0.5717 -0.3639
  907MOL0     C19601   3.651   3.116   2.808  0.0530 -0.6230  0.4772
  907MOL0     C19602   3.792   3.075   2.766 -0.3496 -0.4322 -0.0586
  907MOL0     C19603   3.880   3.066   2.884 -0.1489 -0.0798 -0.3089
  907MOL0     C19604   4.027   3.028   2.831 -0.4980  0.3739  0.1278
  907MOL0     C19605   4.132   3.057   2.936 -0.9962 -0.4091 -0.3473
  907MOL0     C19606   4.273   3.059   2.878  0.7795 -0.1143  0.1855
  907MOL0     C19607   4.315   2.919   2.822  0.3685 -0.0369 -0.2071
  907MOL0     C19608   4.462   2.900   2.794  0.0512  0.2055 -0.6971
  907MOL0     N19609   4.468   2.785   2.697  0.5839 -0.2940 -1.1816
  907MOL0     C19610   4.443   2.806   2.566  0.1377  0.2605  0.1273
  907MOL0     C19611   4.480   2.691   2.515 -0.6479 -0.4527 -0.0871
  907MOL0     C19612   4.468   2.665   2.362  1.1731 -0.0805 -0.4203
  907MOL0     C19613   4.325   2.700   2.315  0.2209  0.3993 -1.1801
  907MOL0     C19614   4.211   2.623   2.396  0.1504 -0.1257  0.0657
  907MOL0     C19615   4.209   2.476   2.372 -0.4652  0.2658 -0.0660
  907MOL0     O19616   4.108   2.394   2.445 -0.6647  0.8236 -0.0782
  907MOL0     C19617   3.990   2.375   2.387  0.0712  0.7199 -0.1351
  907MOL0     C19618   3.913   2.266   2.425 -0.2957  0.0686 -0.2275
  907MOL0     C19619   3.784   2.241   2.378  0.1979  1.0285  0.6308
  907MOL0     C19620   3.731   2.321   2.276 -0.1187  0.2382 -0.2075
  907MOL0     C19621   3.600   2.288   2.225 -0.2423  0.3949 -0.3882
  907MOL0     O19622   3.557   2.160   2.201  0.0092  0.4030 -0.1954
  907MOL0     C19623   3.420   2.149   2.169 -0.3433  0.5932 -0.5966
  907MOL0     C19624   3.379   2.097   2.047  0.2870  1.0074  0.7400
  907MOL0     C19625   3.251   2.105   2.007 -0.2589 -0.1721 -0.0525
  907MOL0     C19626   3.150   2.160   2.095  0.1653 -0.5212 -0.4025
  907MOL0     O19627   3.023   2.166   2.053  0.0929 -0.0765 -0.0747
  907MOL0     C19628   2.923   2.204   2.146 -0.5682 -1.0582  0.3190
  907MOL0     C19629   2.781   2.194   2.087  0.9902 -0.7135  0.0647
  907MOL0     C19630   2.688   2.265   2.184  0.7356  0.3667  0.0064
  907MOL0     C19631   2.545   2.265   2.132 -1.5042 -0.4251 -0.1465
  907MOL0     C19632   2.444   2.331   2.222 -0.2350  0.0838 -0.4038
  907MOL0     C19633   2.305   2.332   2.153  0.4480  0.2488  0.3555
  907MOL0     C19634   2.197   2.386   2.241  0.1365 -0.0888 -0.1810
  907MOL0     C19635   2.075   2.289   2.255 -0.4748  0.1448 -0.3102
  907MOL0    Cl19636   2.130   2.140   2.343  0.8252  0.0293  0.3268
  907MOL0     C19637   3.190   2.218   2.216 -0.0204  0.1421 -0.5741
  907MOL0     C19638   3.325   2.208   2.254  0.1513 -0.3884 -0.5249
  907MOL0     O19639   3.536   2.388   2.203  0.5998 -0.3510 -0.2341
  907MOL0     C19640   3.807   2.431   2.232  0.7362 -0.0763 -0.4170
  907MOL0     C19641   3.935   2.463   2.283  0.4433  0.3459 -0.9887
  907MOL0     N19642   4.517   2.596   2.615  0.3059  0.4854  0.2252
  907MOL0     N19643   4.521   2.658   2.724  0.3174  0.1697  0.5261
  907MOL0     C19644   3.392   3.124   2.893  0.7255 -0.0173 -0.3154
  907MOL0     C19645   3.250   3.114   2.888  0.7051 -0.7394 -0.7480
  907MOL0     C19646   2.829   2.925   2.841  1.2056 -0.6298 -0.4645
  907MOL0     C19647   2.759   2.823   2.778  0.2029 -0.9196  0.1942
  907MOL0     C19648   2.621   2.840   2.753 -0.3322  0.5143  0.2693
  907MOL0     C19649   2.554   2.959   2.795 -0.1544  0.3554 -0.0135
  907MOL0     O19650   2.423   2.993   2.787 -0.4041 -0.1272  0.4378
  907MOL0     C19651   2.324   2.894   2.741  0.1465 -0.3038 -0.1853
  907MOL0     C19652   2.204   2.970   2.694  0.0805 -0.3996 -0.4452
  907MOL0     C19653   2.243   3.088   2.593 -0.2433  0.4504 -1.1542
  907MOL0     C19654   2.230   3.038   2.447 -0.1734  0.1811  0.0357
  907MOL0     C19655   2.278   3.128   2.343  0.5125 -0.3316 -0.0250
  907MOL0     C19656   2.322   3.201   2.260  0.3464 -0.3980  0.7832
  907MOL0     C19657   2.630   3.065   2.840  0.4907  0.2912  0.0402
  907MOL0     C19658   2.764   3.050   2.872 -0.1215 -0.1453 -0.5434
  907MOL0     H19659   3.229   2.791   2.974  2.0344 -0.7767 -0.9445
  907MOL0     H19660   3.447   2.802   2.975  2.8759  0.7212 -0.3944
  907MOL0     H19661   3.659   3.203   2.873 -1.5890 -1.0411  1.2735
  907MOL0     H19662   3.587   3.133   2.721  0.3614 -1.1738  0.1338
  907MOL0     H19663   3.827   3.157   2.702  0.4857  0.4833  1.5030
  907MOL0     H19664   3.784   2.980   2.713 -0.8050 -0.4975  0.1206
  907MOL0     H19665   3.836   2.989   2.948 -1.4863  2.4605  2.0757
  907MOL0     H19666   3.891   3.158   2.942  0.2144 -0.4098  0.1635
  907MOL0     H19667   4.022   2.924   2.798 -0.0996  1.5654 -4.3973
  907MOL0     H19668   4.057   3.086   2.743  0.0635  0.0980  0.1363
  907MOL0     H19669   4.127   2.981   3.015  0.3418  1.5320  1.7464
  907MOL0     H19670   4.111   3.156   2.976  1.9218  1.8043 -3.7488
  907MOL0     H19671   4.342   3.096   2.955  2.4844  1.1745 -1.8753
  907MOL0     H19672   4.280   3.131   2.797  1.9546 -1.4896 -0.9749
  907MOL0     H19673   4.298   2.847   2.901 -0.6684 -1.0413 -1.3046
  907MOL0     H19674   4.247   2.885   2.743  2.5912  0.5925 -2.5499
  907MOL0     H19675   4.523   2.879   2.883  0.8610 -0.7185 -1.4403
  907MOL0     H19676   4.509   2.993   2.761  2.1451 -1.4786 -2.8152
  907MOL0     H19677   4.414   2.898   2.516 -1.1805 -0.7563 -1.0591
  907MOL0     H19678   4.489   2.559   2.342 -1.6727 -1.0091  0.8468
  907MOL0     H19679   4.542   2.724   2.307  2.9620 -1.1987  0.7006
  907MOL0     H19680   4.311   2.682   2.208  0.8190 -3.3104 -0.7705
  907MOL0     H19681   4.315   2.807   2.332 -0.2306  0.2110 -0.2122
  907MOL0     H19682   4.217   2.645   2.502 -0.5685  1.2245 -0.1596
  907MOL0     H19683   4.118   2.678   2.379 -0.4188 -0.8009  0.9592
  907MOL0     H19684   4.305   2.438   2.409 -0.9716  0.4780  1.5182
  907MOL0     H19685   4.196   2.455   2.265 -0.0201 -1.7938  0.2310
  907MOL0     H19686   3.945   2.207   2.510 -1.4607 -0.7702 -0.3392
  907MOL0     H19687   3.712   2.164   2.405 -0.4048  0.8534 -1.3407
  907MOL0     H19688   3.452   2.059   1.977  0.5555  3.6434 -0.5270
  907MOL0     H19689   3.217   2.073   1.908 -1.3176  2.6425 -0.6880
  907MOL0     H19690   2.947   2.304   2.181 -0.3495  0.2664 -3.2056
  907MOL0     H19691   2.931   2.129   2.225  2.5457 -2.8840 -1.5220
  907MOL0     H19692   2.756   2.088   2.074 -0.8502 -0.4244  0.8360
  907MOL0     H19693   2.778   2.241   1.988 -0.4522 -0.8607  0.0068
  907MOL0     H19694   2.717   2.370   2.197 -0.6212  0.7933 -0.2411
  907MOL0     H19695   2.695   2.218   2.283  2.9695 -4.5623 -2.1725
  907MOL0     H19696   2.546   2.309   2.032 -0.0724  0.4188  0.2150
  907MOL0     H19697   2.514   2.163   2.107 -1.2472 -0.8606  1.2047
  907MOL0     H19698   2.478   2.432   2.249 -2.0288  0.8723 -0.9353
  907MOL0     H19699   2.433   2.269   2.311 -0.4646  1.7634  0.7905
  907MOL0     H19700   2.285   2.234   2.109 -0.8108 -1.3434  4.1282
  907MOL0     H19701   2.328   2.399   2.069  0.1205  1.0265  0.8702
  907MOL0     H19702   2.221   2.396   2.347 -2.0039 -1.5985  0.5065
  907MOL0     H19703   2.168   2.481   2.195  1.8352  0.9689  0.8063
  907MOL0     H19704   2.023   2.252   2.166 -1.2918 -0.2282  0.3089
  907MOL0     H19705   2.004   2.346   2.316  0.6436  1.7704 -0.4478
  907MOL0     H19706   3.124   2.268   2.287 -0.7623 -0.6833 -0.6645
  907MOL0     H19707   3.351   2.253   2.349 -3.1106 -1.3550  0.9802
  907MOL0     H19708   3.763   2.492   2.154 -0.9285 -1.7002 -0.8164
  907MOL0     H19709   3.979   2.560   2.264  1.5095  0.5056  1.7461
  907MOL0     H19710   3.448   3.216   2.882  1.4943 -0.4273  0.1208
  907MOL0     H19711   3.194   3.203   2.860  0.2090 -0.1417  1.8698
  907MOL0     H19712   2.813   2.734   2.748  0.2659 -1.7254  2.4849
  907MOL0     H19713   2.572   2.754   2.709  2.3588 -0.8296 -0.2920
  907MOL0     H19714   2.271   2.850   2.826 -0.5524  3.4388  1.5295
  907MOL0     H19715   2.359   2.818   2.670  0.7908 -0.9432  0.7928
  907MOL0     H19716   2.144   2.890   2.648  1.5124 -1.4562 -0.5232
  907MOL0     H19717   2.151   3.015   2.779  2.6130  0.1535  0.9384
  907MOL0     H19718   2.347   3.123   2.601  1.0364 -3.1423 -0.1292
  907MOL0     H19719   2.173   3.168   2.618 -2.5927 -2.0911  1.0354
  907MOL0     H19720   2.289   2.946   2.434  2.0488  1.5257  0.0886
  907MOL0     H19721   2.124   3.018   2.432 -0.7017  2.2338  0.7147
  907MOL0     H19722   2.372   3.277   2.204  1.8121 -2.1743 -0.4826
  907MOL0     H19723   2.579   3.156   2.870 -1.8007 -0.4922 -1.2401
  907MOL0     H19724   2.820   3.131   2.917 -0.1512  0.1870 -1.1021
  908MOL0     O19725   6.675   4.220   0.634 -0.4992  0.4322  0.3853
  908MOL0     C19726   6.670   4.133   0.546 -0.1119  0.4395  1.0137
  908MOL0     O19727   6.610   4.150   0.426  0.1843 -0.6747  0.6641
  908MOL0     C19728   6.553   4.276   0.394 -0.0204  0.0718  0.3132
  908MOL0     C19729   6.434   4.270   0.320 -0.4512 -0.2718  1.2816
  908MOL0     C19730   6.357   4.382   0.306 -0.3566  0.7777 -0.0251
  908MOL0     C19731   6.392   4.499   0.359  0.5468 -0.2362  0.7383
  908MOL0     O19732   6.308   4.603   0.341  0.3816 -0.5106 -0.4057
  908MOL0     C19733   6.205   4.611   0.441 -0.4054  0.2261  0.1628
  908MOL0     C19734   6.082   4.694   0.395 -0.5509  0.3118  0.8308
  908MOL0     C19735   6.000   4.604   0.309 -0.2594  0.7932 -0.3135
  908MOL0     C19736   5.880   4.680   0.262 -0.0245 -0.0079 -0.2391
  908MOL0     C19737   5.776   4.601   0.194 -0.1528  0.3214 -0.3762
  908MOL0     C19738   5.675   4.703   0.139 -0.3004 -0.3194 -1.0664
  908MOL0     C19739   5.563   4.632   0.056 -0.7400  0.3400  0.3485
  908MOL0     C19740   5.561   4.687  -0.086 -0.1379 -0.5051  0.7621
  908MOL0     N19741   5.447   4.638  -0.165  0.0968 -0.6156 -0.5730
  908MOL0     C19742   5.325   4.708  -0.172 -0.0713  0.2279  0.1121
  908MOL0     C19743   5.254   4.653  -0.278  1.0356  1.0539 -0.4695
  908MOL0     C19744   5.124   4.709  -0.333 -0.1216  1.1795 -0.1343
  908MOL0     C19745   5.041   4.593  -0.389  0.3700 -0.0884 -0.3727
  908MOL0     C19746   5.000   4.502  -0.264 -0.0951 -0.4348 -0.3569
  908MOL0     C19747   4.938   4.374  -0.321  0.1410 -0.8145 -0.4611
  908MOL0     O19748   4.854   4.300  -0.229 -0.1784  0.1652  0.7059
  908MOL0     C19749   4.719   4.299  -0.257 -0.5217 -1.0203  0.2783
  908MOL0     C19750   4.654   4.410  -0.316 -0.2474  0.5182 -0.4595
  908MOL0     C19751   4.512   4.403  -0.325 -0.4047  0.5634  1.0039
  908MOL0     C19752   4.448   4.284  -0.297  0.5531 -0.0541 -0.5903
  908MOL0     C19753   4.309   4.275  -0.337  1.1776 -0.3526  0.2042
  908MOL0     O19754   4.268   4.373  -0.414 -0.1307 -0.3301 -0.5474
  908MOL0     C19755   4.147   4.376  -0.480 -0.3857  0.3702  0.0750
  908MOL0     C19756   4.155   4.410  -0.617  0.7928  0.4653  0.5019
  908MOL0     C19757   4.040   4.407  -0.701  0.2195  0.1359  0.3528
  908MOL0     C19758   3.918   4.351  -0.641  0.0666 -0.2433  0.0619
  908MOL0     O19759   3.794   4.330  -0.706 -0.5601  0.1102 -0.4771
  908MOL0     C19760   3.778   4.319  -0.847 -0.2289  0.8732  0.5552
  908MOL0     C19761   3.632   4.287  -0.888 -0.7206 -0.0195  0.0224
  908MOL0     C19762   3.583   4.148  -0.846 -0.5459  0.5378 -0.3800
  908MOL0     C19763   3.437   4.127  -0.880 -0.3120  0.3387 -0.6035
  908MOL0     C19764   3.396   4.098  -1.028 -0.0351 -0.1787 -0.3607
  908MOL0     C19765   3.397   3.949  -1.057 -0.3380  0.4606  0.9593
  908MOL0     C19766   3.313   3.919  -1.184 -0.4385  0.7929 -1.3575
  908MOL0     C19767   3.378   3.938  -1.319 -0.2692  0.4019 -0.1155
  908MOL0    Cl19768   3.269   3.859  -1.450  0.0106  0.6078  0.2322
  908MOL0     C19769   3.916   4.316  -0.508  0.0190 -0.0632  0.0338
  908MOL0     C19770   4.026   4.331  -0.430  0.1639  0.4415 -0.6170
  908MOL0     O19771   4.241   4.179  -0.308 -0.0485  0.3280 -0.1550
  908MOL0     C19772   4.516   4.181  -0.230  1.4240 -0.7053  0.5318
  908MOL0     C19773   4.654   4.190  -0.220 -0.2176  0.2022  0.0206
  908MOL0     N19774   5.336   4.558  -0.333  0.4709  0.2475  0.4165
  908MOL0     N19775   5.452   4.543  -0.260  0.4500  0.4469 -1.0899
  908MOL0     C19776   6.510   4.516   0.421  0.0308 -0.2469 -0.2621
  908MOL0     C19777   6.585   4.404   0.447  0.0593  0.4347  0.1561
  908MOL0     C19778   6.764   4.023   0.558  0.9310 -0.3995  1.3326
  908MOL0     C19779   6.827   3.989   0.441 -0.5276  0.2794 -0.4090
  908MOL0     C19780   6.940   3.905   0.451  0.0506 -0.3278  0.3966
  908MOL0     C19781   6.987   3.855   0.572 -0.7114  0.0558  0.2327
  908MOL0     O19782   7.103   3.778   0.571  0.1785  0.6067 -0.3174
  908MOL0     C19783   7.181   3.755   0.692 -0.1193 -0.2184  0.7692
  908MOL0     C19784   7.259   3.879   0.718  0.9639  0.4418 -0.4890
  908MOL0     C19785   7.344   3.913   0.600  0.4428  0.2382 -0.4658
  908MOL0     C19786   7.450   4.027   0.628  0.7358 -0.6239 -0.4751
  908MOL0     C19787   7.567   3.985   0.701 -0.1091 -0.2113  0.3762
  908MOL0     C19788   7.653   3.935   0.773 -0.0745  0.2659 -0.1784
  908MOL0     C19789   6.915   3.892   0.690  0.6374 -0.2008 -0.2175
  908MOL0     C19790   6.811   3.983   0.680  0.1061  0.4458 -0.4415
  908MOL0     H19791   6.412   4.180   0.264 -1.4268  1.8275 -1.9479
  908MOL0     H19792   6.263   4.378   0.252 -0.5168  1.7735  0.1542
  908MOL0     H19793   6.245   4.656   0.533 -0.7790 -0.1325  0.5062
  908MOL0     H19794   6.163   4.516   0.475 -1.5759  0.0569 -1.6463
  908MOL0     H19795   6.115   4.784   0.341  1.5452 -0.5063  0.6620
  908MOL0     H19796   6.027   4.734   0.481 -2.3511 -2.8212  1.2861
  908MOL0     H19797   5.973   4.521   0.376  2.3524 -0.4073 -0.6057
  908MOL0     H19798   6.052   4.570   0.218  1.2873  0.1414  0.7722
  908MOL0     H19799   5.838   4.724   0.354  2.0991  1.1712  0.2312
  908MOL0     H19800   5.912   4.763   0.198  0.2845 -1.1324 -1.5832
  908MOL0     H19801   5.734   4.527   0.262  1.3667 -0.3064 -0.0809
  908MOL0     H19802   5.822   4.541   0.115 -1.3394  0.0454 -0.8720
  908MOL0     H19803   5.720   4.788   0.085  0.0534 -0.1323 -0.4875
  908MOL0     H19804   5.628   4.744   0.229 -0.1550 -0.5644 -0.8787
  908MOL0     H19805   5.568   4.523   0.066 -1.3444  0.3968  1.5058
  908MOL0     H19806   5.466   4.658   0.099 -1.1171 -2.1303  1.1297
  908MOL0     H19807   5.651   4.660  -0.142 -0.0430  1.8560 -0.3193
  908MOL0     H19808   5.559   4.796  -0.071  1.0110 -0.5935  1.7462
  908MOL0     H19809   5.285   4.790  -0.113  0.5808  2.2444 -2.0910
  908MOL0     H19810   5.150   4.777  -0.414 -2.5837  0.5335 -1.5914
  908MOL0     H19811   5.072   4.776  -0.264  0.1526  1.1219  0.1293
  908MOL0     H19812   5.102   4.541  -0.465  4.1007 -0.5058  2.5794
  908MOL0     H19813   4.949   4.627  -0.437  0.9251 -1.1581 -2.3355
  908MOL0     H19814   5.093   4.473  -0.215 -0.0785 -2.7827 -1.6403
  908MOL0     H19815   4.935   4.558  -0.195  0.7366  0.9163 -0.6397
  908MOL0     H19816   5.021   4.306  -0.343 -0.2416 -2.8951  3.5453
  908MOL0     H19817   4.885   4.388  -0.416 -2.7698  0.7166  1.2175
  908MOL0     H19818   4.699   4.501  -0.355  2.5928 -1.2005 -1.5323
  908MOL0     H19819   4.467   4.494  -0.364  0.4476  2.2977  3.8216
  908MOL0     H19820   4.257   4.437  -0.643  0.8883  1.3412  1.7094
  908MOL0     H19821   4.047   4.448  -0.801  0.6704 -1.1397 -0.1526
  908MOL0     H19822   3.840   4.235  -0.881  0.0320  0.4820  1.9263
  908MOL0     H19823   3.802   4.409  -0.904  1.1215  0.0953 -0.1520
  908MOL0     H19824   3.617   4.295  -0.996  0.8138 -1.3142 -0.3098
  908MOL0     H19825   3.559   4.359  -0.847 -2.3577 -1.9336  0.6293
  908MOL0     H19826   3.591   4.136  -0.737  0.4971 -2.0342 -0.6731
  908MOL0     H19827   3.646   4.081  -0.905 -0.4215 -1.2117  1.6067
  908MOL0     H19828   3.401   4.044  -0.818 -0.6732  0.0805 -1.1518
  908MOL0     H19829   3.385   4.217  -0.847 -0.3368  0.3125 -0.5711
  908MOL0     H19830   3.453   4.161  -1.098 -3.0236  4.5172  0.9765
  908MOL0     H19831   3.291   4.124  -1.036 -0.1310  0.3741  2.0824
  908MOL0     H19832   3.355   3.891  -0.974 -0.7697 -0.3082  0.2179
  908MOL0     H19833   3.499   3.918  -1.080 -1.0612 -0.9329 -0.6231
  908MOL0     H19834   3.285   3.814  -1.166 -0.9685  1.1843  0.2748
  908MOL0     H19835   3.220   3.976  -1.181  0.4065  2.2163 -1.6537
  908MOL0     H19836   3.480   3.897  -1.322 -0.4827 -0.0512 -2.0293
  908MOL0     H19837   3.382   4.046  -1.338  0.0742  0.4444  0.1751
  908MOL0     H19838   3.827   4.262  -0.479 -1.0917  1.7263  0.0651
  908MOL0     H19839   4.012   4.299  -0.327 -2.7797 -0.4691 -1.1996
  908MOL0     H19840   4.464   4.094  -0.190 -1.3097  2.1154  3.8538
  908MOL0     H19841   4.713   4.118  -0.164 -0.7330  2.6870  4.1918
  908MOL0     H19842   6.541   4.614   0.456  1.0466 -0.9820  0.9510
  908MOL0     H19843   6.674   4.424   0.506  0.2946  0.1015 -0.0768
  908MOL0     H19844   6.802   4.043   0.350  1.5462  4.7342  1.3807
  908MOL0     H19845   6.988   3.878   0.357 -3.6695  0.6222 -1.9647
  908MOL0     H19846   7.245   3.668   0.672  2.3840  1.4931  0.9691
  908MOL0     H19847   7.127   3.724   0.782 -2.6442  2.5600  0.3373
  908MOL0     H19848   7.186   3.959   0.736  0.0188  0.2057 -2.8018
  908MOL0     H19849   7.315   3.858   0.809 -0.3796 -0.2217  0.2170
  908MOL0     H19850   7.288   3.943   0.511  3.0043 -0.1972 -2.3261
  908MOL0     H19851   7.389   3.819   0.567 -0.9526 -1.9313  3.1315
  908MOL0     H19852   7.482   4.061   0.530  1.3661 -0.6722 -0.2863
  908MOL0     H19853   7.396   4.114   0.666  3.0714  2.6023 -3.8845
  908MOL0     H19854   7.729   3.888   0.833  0.8343  0.4141 -1.1779
  908MOL0     H19855   6.950   3.862   0.788 -2.3274 -1.8807  0.4524
  908MOL0     H19856   6.755   4.011   0.769  1.9529 -2.5405  1.8475
  909MOL0     O19857   2.075   1.546   7.854 -0.0657 -0.1314  0.1327
  909MOL0     C19858   2.086   1.617   7.952 -0.7270  0.5703  0.7882
  909MOL0     O19859   1.984   1.661   8.030  0.4680  0.0026  0.3098
  909MOL0     C19860   1.845   1.632   8.013  0.4573  0.9448  0.3581
  909MOL0     C19861   1.741   1.713   8.065 -0.4855 -0.3872  0.6107
  909MOL0     C19862   1.607   1.688   8.049 -0.1774 -1.2907  0.7909
  909MOL0     C19863   1.564   1.573   7.990 -0.8848 -0.2476 -1.0674
  909MOL0     O19864   1.431   1.528   7.996 -0.3902 -0.3651  0.3422
  909MOL0     C19865   1.333   1.617   8.043  0.6580  0.3166 -0.1327
  909MOL0     C19866   1.195   1.546   8.036 -0.2971 -0.0469 -0.2299
  909MOL0     C19867   1.074   1.636   8.070 -0.1244 -0.3981  0.4412
  909MOL0     C19868   0.938   1.561   8.108  0.5432 -1.2113  0.0297
  909MOL0     C19869   0.951   1.495   8.250  0.4106 -0.2193  0.3319
  909MOL0     C19870   0.818   1.426   8.303  0.3319  0.1001 -0.0766
  909MOL0     C19871   0.691   1.520   8.279  0.2485  0.1635 -1.1773
  909MOL0     C19872   0.576   1.468   8.363  0.7740 -0.3363  0.3885
  909MOL0     N19873   0.442   1.521   8.339 -0.1035  0.4690  0.7760
  909MOL0     C19874   0.386   1.504   8.219  0.4721  0.5541 -0.3790
  909MOL0     C19875   0.251   1.526   8.235  0.1087 -0.1000 -0.9869
  909MOL0     C19876   0.152   1.516   8.122  0.3490 -0.1045 -0.6110
  909MOL0     C19877   0.007   1.501   8.154  0.6200  0.0399 -0.5611
  909MOL0     C19878  -0.028   1.354   8.181 -0.7230 -1.0039 -0.2005
  909MOL0     C19879  -0.158   1.348   8.254 -0.1165  0.0865 -0.3656
  909MOL0     O19880  -0.263   1.388   8.167  0.8241  0.2352 -0.7368
  909MOL0     C19881  -0.394   1.361   8.197  0.1957 -0.4833  0.1452
  909MOL0     C19882  -0.482   1.360   8.091 -0.3390  0.1690  0.5371
  909MOL0     C19883  -0.612   1.335   8.109 -0.3293  0.3549 -0.5185
  909MOL0     C19884  -0.667   1.316   8.237 -0.4760 -0.0221  0.5547
  909MOL0     C19885  -0.808   1.301   8.265 -0.1374  0.1065 -0.7875
  909MOL0     O19886  -0.893   1.299   8.155  0.1608  0.2405 -0.3226
  909MOL0     C19887  -1.030   1.313   8.187  0.4803  0.1942  0.0889
  909MOL0     C19888  -1.105   1.405   8.119 -0.0799 -0.4019 -0.0209
  909MOL0     C19889  -1.238   1.430   8.139 -0.0664  0.4138 -0.3250
  909MOL0     C19890  -1.312   1.342   8.230  0.1343  0.2383 -0.2662
  909MOL0     O19891  -1.448   1.354   8.227 -0.2065 -0.5182 -0.6281
  909MOL0     C19892  -1.527   1.305   8.336 -0.9419  0.4383  0.6380
  909MOL0     C19893  -1.615   1.425   8.377 -0.0047 -0.2271 -1.2892
  909MOL0     C19894  -1.718   1.477   8.269  0.1886  0.1360  0.1022
  909MOL0     C19895  -1.834   1.568   8.317  0.4612  0.2514 -0.5318
  909MOL0     C19896  -1.950   1.580   8.218  0.4923  1.3076 -0.4293
  909MOL0     C19897  -2.055   1.672   8.277 -0.1036 -0.4221 -0.3652
  909MOL0     C19898  -2.191   1.658   8.204  0.0731 -0.9637 -0.2576
  909MOL0     C19899  -2.283   1.782   8.222 -0.0647  0.6885  0.6434
  909MOL0    Cl19900  -2.444   1.745   8.131  0.3604  0.0011 -0.3801
  909MOL0     C19901  -1.239   1.243   8.302 -0.6613  0.7008  0.6009
  909MOL0     C19902  -1.099   1.224   8.273  0.3942  0.5035 -0.0325
  909MOL0     O19903  -0.844   1.303   8.387 -0.5277  0.4998 -0.5392
  909MOL0     C19904  -0.582   1.324   8.351  0.2424  0.9776 -0.0010
  909MOL0     C19905  -0.450   1.343   8.328  0.3809 -0.5324  0.6381
  909MOL0     N19906   0.234   1.579   8.366 -0.1652  0.1171  0.9208
  909MOL0     N19907   0.347   1.569   8.427 -0.3391 -0.2343 -0.2690
  909MOL0     C19908   1.658   1.481   7.939 -0.1296  0.4887  0.2681
  909MOL0     C19909   1.796   1.519   7.941 -0.4107  0.4934 -0.5495
  909MOL0     C19910   2.222   1.670   7.986 -0.2427 -0.5318 -0.0142
  909MOL0     C19911   2.242   1.750   8.099  0.8881 -0.0224 -0.1068
  909MOL0     C19912   2.367   1.784   8.126 -0.5936 -0.5120 -0.7767
  909MOL0     C19913   2.487   1.750   8.056 -0.0542 -0.0321 -0.4419
  909MOL0     O19914   2.604   1.792   8.105 -0.0311  0.1182 -0.1791
  909MOL0     C19915   2.731   1.754   8.052  0.4454  0.5335 -1.0090
  909MOL0     C19916   2.834   1.715   8.164 -0.0020 -1.0742  0.4643
  909MOL0     C19917   2.889   1.837   8.238 -0.9456 -0.1246 -0.2727
  909MOL0     C19918   3.009   1.791   8.320 -0.2827  0.9469 -0.0489
  909MOL0     C19919   2.979   1.706   8.442 -0.2086 -1.3078  0.0060
  909MOL0     C19920   2.946   1.656   8.544  0.8871  0.1212  1.0010
  909MOL0     C19921   2.462   1.676   7.940  0.0978  0.3666  0.6275
  909MOL0     C19922   2.335   1.627   7.912  0.3661 -0.0034  0.0055
  909MOL0     H19923   1.768   1.792   8.135 -1.4482 -0.4932  1.1247
  909MOL0     H19924   1.538   1.751   8.105 -3.3980  0.3992 -4.3546
  909MOL0     H19925   1.316   1.703   7.977 -4.9277 -1.8266 -2.1613
  909MOL0     H19926   1.352   1.640   8.148  0.6936 -1.3255  0.2438
  909MOL0     H19927   1.195   1.466   8.111  0.1112  0.0063 -0.1754
  909MOL0     H19928   1.180   1.499   7.938 -0.2392  0.2704 -0.3917
  909MOL0     H19929   1.054   1.703   7.986  0.9729 -1.2992 -0.5625
  909MOL0     H19930   1.103   1.694   8.158  2.5497 -2.5527  1.1084
  909MOL0     H19931   0.864   1.641   8.099  1.0148 -0.5867  1.4418
  909MOL0     H19932   0.922   1.490   8.026  3.5563 -1.2935 -0.5761
  909MOL0     H19933   0.980   1.560   8.332  0.0839 -0.5879  0.7450
  909MOL0     H19934   1.029   1.420   8.234  0.1912 -0.3612 -0.0920
  909MOL0     H19935   0.832   1.411   8.410 -1.6902  1.3052  0.3956
  909MOL0     H19936   0.806   1.333   8.247  0.8601 -1.2915  2.0034
  909MOL0     H19937   0.716   1.619   8.318 -0.7346  0.9058 -2.3487
  909MOL0     H19938   0.672   1.527   8.172  1.7867  0.8676 -1.4201
  909MOL0     H19939   0.600   1.482   8.469 -0.7591  3.0321  0.4202
  909MOL0     H19940   0.568   1.362   8.339 -1.2904  0.0267 -0.7604
  909MOL0     H19941   0.423   1.487   8.118  0.3677  0.9432 -0.4875
  909MOL0     H19942   0.182   1.430   8.061 -0.1425 -0.5902 -0.1832
  909MOL0     H19943   0.166   1.609   8.066 -0.2935 -0.5970 -1.6179
  909MOL0     H19944  -0.043   1.537   8.064  0.7436  1.9964  0.0977
  909MOL0     H19945  -0.025   1.566   8.236  1.7936  0.7313 -0.6199
  909MOL0     H19946  -0.043   1.298   8.088 -0.4560  0.8643 -1.4314
  909MOL0     H19947   0.051   1.310   8.243  0.5917  0.4681 -0.7618
  909MOL0     H19948  -0.152   1.412   8.343  0.5382  0.5412 -0.7242
  909MOL0     H19949  -0.178   1.246   8.289  0.1884  1.1450  3.2421
  909MOL0     H19950  -0.437   1.386   7.996  1.3014 -0.7606  1.0278
  909MOL0     H19951  -0.682   1.339   8.027 -0.5518 -0.7154 -0.3954
  909MOL0     H19952  -1.055   1.472   8.050  0.9993  1.5993  2.5422
  909MOL0     H19953  -1.280   1.509   8.076 -2.7532 -0.0909  0.7204
  909MOL0     H19954  -1.459   1.289   8.419  2.4218  3.6175 -1.1850
  909MOL0     H19955  -1.585   1.221   8.296  1.3674 -0.7478 -0.4324
  909MOL0     H19956  -1.551   1.512   8.392 -0.9330  0.3605 -0.7331
  909MOL0     H19957  -1.673   1.407   8.467 -1.9496 -1.8575 -2.7584
  909MOL0     H19958  -1.767   1.385   8.235 -2.0129  0.9650  0.8821
  909MOL0     H19959  -1.661   1.532   8.193  1.5993 -2.0144 -0.5117
  909MOL0     H19960  -1.875   1.528   8.410  0.6177 -2.1048 -1.3835
  909MOL0     H19961  -1.789   1.665   8.340  3.3645 -0.9551 -0.7197
  909MOL0     H19962  -1.999   1.484   8.198 -1.3898  1.7320  1.6534
  909MOL0     H19963  -1.909   1.609   8.122  0.6340 -1.3591 -1.2648
  909MOL0     H19964  -2.017   1.774   8.286  0.0950 -0.4051 -1.3781
  909MOL0     H19965  -2.074   1.651   8.383  2.2052  0.5515  0.3058
  909MOL0     H19966  -2.152   1.656   8.102  5.2054  2.3698  1.2061
  909MOL0     H19967  -2.237   1.564   8.237 -0.7924 -0.2561  0.5758
  909MOL0     H19968  -2.242   1.871   8.174 -1.3805  0.2570 -1.4391
  909MOL0     H19969  -2.310   1.806   8.325 -2.3522  0.0506  0.2582
  909MOL0     H19970  -1.295   1.174   8.365 -0.7459  1.5058  1.4253
  909MOL0     H19971  -1.046   1.139   8.315 -1.1830 -2.0074 -2.7666
  909MOL0     H19972  -0.623   1.320   8.452 -0.0340 -0.5817 -0.1370
  909MOL0     H19973  -0.392   1.363   8.418  0.3431  1.9287  0.1879
  909MOL0     H19974   1.636   1.386   7.891  0.2015  0.3742  0.3429
  909MOL0     H19975   1.861   1.451   7.887  0.4226  2.7906 -2.6215
  909MOL0     H19976   2.157   1.787   8.154 -0.6532 -0.5513 -2.0274
  909MOL0     H19977   2.381   1.846   8.214 -1.5657 -2.4251  0.7851
  909MOL0     H19978   2.767   1.840   7.994 -0.6043  1.6770 -0.0278
  909MOL0     H19979   2.728   1.673   7.978  1.8182  1.3975 -2.0656
  909MOL0     H19980   2.774   1.668   8.243 -2.6938  3.4707  1.5040
  909MOL0     H19981   2.907   1.648   8.119  0.3895 -0.2969 -0.0786
  909MOL0     H19982   2.816   1.884   8.304  1.7972  1.0309  2.1486
  909MOL0     H19983   2.924   1.914   8.168 -1.3226 -0.4348 -0.8105
  909MOL0     H19984   3.077   1.735   8.256 -0.2339  0.5503  0.3478
  909MOL0     H19985   3.069   1.877   8.352  1.3033 -0.8518  2.1934
  909MOL0     H19986   2.907   1.618   8.637  3.0272  0.6897  2.2075
  909MOL0     H19987   2.553   1.647   7.888  2.0080 -0.3947  4.0464
  909MOL0     H19988   2.327   1.553   7.832  0.3690 -1.3242  1.1794
  910MOL0     O19989   0.671   4.285   6.068  0.2734 -0.1377  0.5863
  910MOL0     C19990   0.686   4.213   5.970  0.0053 -0.1251  0.5047
  910MOL0     O19991   0.593   4.177   5.880 -0.1180 -0.2959 -0.2305
  910MOL0     C19992   0.460   4.219   5.907  0.2277  0.5012 -1.2788
  910MOL0     C19993   0.382   4.304   5.827  0.4436 -0.4584 -0.4317
  910MOL0     C19994   0.260   4.355   5.884 -0.2287 -0.5907 -0.9984
  910MOL0     C19995   0.208   4.313   6.005 -0.7289 -0.1139  0.1030
  910MOL0     O19996   0.092   4.359   6.062  0.0438 -0.0600 -0.4182
  910MOL0     C19997  -0.019   4.348   5.985  0.7100  0.4498  0.0874
  910MOL0     C19998  -0.124   4.428   6.064 -0.0709  0.3107  0.1410
  910MOL0     C19999  -0.269   4.424   6.013  0.5477 -1.7133 -0.1233
  910MOL0     C20000  -0.294   4.541   5.904  0.0416  0.4110  0.3753
  910MOL0     C20001  -0.437   4.571   5.876  0.5572  0.7210 -0.7758
  910MOL0     C20002  -0.466   4.720   5.837 -0.5053  0.0861 -0.5890
  910MOL0     C20003  -0.615   4.735   5.857 -0.5404  0.1406  0.1128
  910MOL0     C20004  -0.668   4.873   5.817 -0.2856  0.9006 -0.1175
  910MOL0     N20005  -0.816   4.886   5.807  0.7204  0.6201 -0.0646
  910MOL0     C20006  -0.921   4.788   5.824 -0.8405 -1.1062  0.5021
  910MOL0     C20007  -1.040   4.858   5.813 -0.7863 -1.1670 -0.3933
  910MOL0     C20008  -1.177   4.810   5.827  0.2811  0.2745 -0.4830
  910MOL0     C20009  -1.279   4.904   5.890 -0.0061  0.5331 -0.1209
  910MOL0     C20010  -1.428   4.846   5.882  0.7940 -0.7272 -0.5327
  910MOL0     C20011  -1.528   4.945   5.948 -0.1563  0.1390  0.3765
  910MOL0     O20012  -1.659   4.902   5.915 -0.8027  0.1043 -0.4437
  910MOL0     C20013  -1.765   4.972   5.967  0.3061 -0.4871  0.3350
  910MOL0     C20014  -1.893   4.932   5.913 -0.2624 -0.0727  0.1052
  910MOL0     C20015  -2.006   4.997   5.962  0.3121  1.2359  0.3703
  910MOL0     C20016  -1.996   5.108   6.042  0.3450 -0.5337 -0.1637
  910MOL0     C20017  -2.117   5.188   6.074 -0.1375 -0.1930 -1.3610
  910MOL0     O20018  -2.236   5.138   6.032  0.1296 -0.6457 -0.0276
  910MOL0     C20019  -2.354   5.202   6.078 -0.3997 -0.1562 -0.0831
  910MOL0     C20020  -2.439   5.140   6.169 -0.2621  0.2907 -0.0486
  910MOL0     C20021  -2.550   5.205   6.224 -0.1708 -0.3719  0.5234
  910MOL0     C20022  -2.587   5.330   6.177 -0.9474  0.2217  0.1266
  910MOL0     O20023  -2.708   5.374   6.240  0.6048  0.5324  0.0707
  910MOL0     C20024  -2.755   5.505   6.203  0.6941 -0.4860  0.0307
  910MOL0     C20025  -2.894   5.529   6.263 -0.4142  0.5318  0.5358
  910MOL0     C20026  -2.935   5.676   6.235  0.8903  0.2473  1.6171
  910MOL0     C20027  -3.022   5.733   6.336  0.5706 -0.1757 -1.0331
  910MOL0     C20028  -3.038   5.884   6.302 -0.4894 -0.4781  0.4178
  910MOL0     C20029  -3.115   5.952   6.418  0.6699  0.0312  1.6904
  910MOL0     C20030  -3.133   6.100   6.403  0.4592 -1.6653 -0.5811
  910MOL0     C20031  -3.255   6.172   6.470 -0.4226  0.0890  0.1982
  910MOL0    Cl20032  -3.399   6.125   6.381 -0.0905  0.0800 -0.0692
  910MOL0     C20033  -2.506   5.395   6.081  0.4537  0.1233 -0.6206
  910MOL0     C20034  -2.387   5.329   6.034 -0.5379 -0.3442 -0.7195
  910MOL0     O20035  -2.109   5.291   6.140  0.7688  0.0667  0.5477
  910MOL0     C20036  -1.872   5.152   6.094  1.0865 -0.6421 -0.3277
  910MOL0     C20037  -1.761   5.076   6.066 -0.6900 -1.4646  0.5356
  910MOL0     N20038  -1.011   4.986   5.770  0.5526 -0.2116  0.4047
  910MOL0     N20039  -0.883   4.997   5.763 -0.0962  0.3801  0.3506
  910MOL0     C20040   0.279   4.217   6.074  0.0646  0.4321 -0.6254
  910MOL0     C20041   0.402   4.180   6.037 -0.3796 -0.5855  0.1460
  910MOL0     C20042   0.817   4.168   5.942 -0.1493 -0.5680  0.1897
  910MOL0     C20043   0.927   4.209   6.017  0.2156  0.4993 -0.6221
  910MOL0     C20044   1.050   4.178   5.966 -0.7581  0.3428 -0.1061
  910MOL0     C20045   1.073   4.101   5.855  0.1765  0.3924 -1.0508
  910MOL0     O20046   1.207   4.084   5.826  0.1833  0.8235  0.0921
  910MOL0     C20047   1.235   3.994   5.710 -0.4195 -0.5499  0.2477
  910MOL0     C20048   1.385   4.005   5.704 -0.5510  0.1759 -0.5892
  910MOL0     C20049   1.457   3.937   5.588 -0.6862 -0.1452  0.1763
  910MOL0     C20050   1.401   3.981   5.450 -0.9473  0.0788  0.4870
  910MOL0     C20051   1.477   3.924   5.339 -0.0374  0.1493  0.2377
  910MOL0     C20052   1.548   3.888   5.248  0.1081 -0.6426  0.7113
  910MOL0     C20053   0.961   4.052   5.787  0.4773 -0.2144 -0.1703
  910MOL0     C20054   0.835   4.080   5.838  0.1171  0.1708 -1.4957
  910MOL0     H20055   0.418   4.343   5.732  2.6123  1.4989  1.0666
  910MOL0     H20056   0.210   4.426   5.817 -1.1384 -1.4543 -1.2558
  910MOL0     H20057  -0.052   4.244   5.978  0.1420  0.4723  1.9868
  910MOL0     H20058  -0.007   4.394   5.886 -1.2309  0.1953 -0.3028
  910MOL0     H20059  -0.087   4.531   6.063 -1.7888  0.9694  0.2436
  910MOL0     H20060  -0.116   4.390   6.166  1.6475  0.5837  0.1437
  910MOL0     H20061  -0.342   4.433   6.094  0.5372 -1.3220 -0.1733
  910MOL0     H20062  -0.289   4.325   5.971 -0.8216 -2.1532  1.4628
  910MOL0     H20063  -0.248   4.634   5.938 -0.1470  0.2646  1.0413
  910MOL0     H20064  -0.253   4.517   5.806 -1.4950  0.2886 -0.2586
  910MOL0     H20065  -0.486   4.549   5.971  1.2997 -1.7518 -0.9024
  910MOL0     H20066  -0.463   4.499   5.798  0.8183 -0.7248  0.4453
  910MOL0     H20067  -0.445   4.742   5.732 -2.9504  0.1457 -1.1168
  910MOL0     H20068  -0.408   4.786   5.901 -2.8866 -0.5702  2.5009
  910MOL0     H20069  -0.674   4.662   5.802  0.3928 -1.7123  1.4338
  910MOL0     H20070  -0.630   4.719   5.965  2.0501 -1.9040  0.2746
  910MOL0     H20071  -0.629   4.883   5.715 -2.0188 -0.2647 -0.9484
  910MOL0     H20072  -0.627   4.946   5.888  1.7642  2.0693 -2.3526
  910MOL0     H20073  -0.906   4.683   5.847  0.0528 -0.9528  0.6426
  910MOL0     H20074  -1.171   4.714   5.878 -0.4387  1.4236  1.9288
  910MOL0     H20075  -1.217   4.807   5.725 -1.3649  2.3790  0.0318
  910MOL0     H20076  -1.275   4.995   5.831  0.1651  1.3530  1.1129
  910MOL0     H20077  -1.242   4.930   5.990 -1.7580 -1.2821  1.1042
  910MOL0     H20078  -1.450   4.834   5.775  1.7327 -3.2321 -0.4966
  910MOL0     H20079  -1.432   4.749   5.931  0.5114 -0.9155 -0.9282
  910MOL0     H20080  -1.501   5.042   5.905  1.1695 -1.3889 -2.5383
  910MOL0     H20081  -1.506   4.939   6.055  1.1080  1.4369  0.2289
  910MOL0     H20082  -1.897   4.851   5.840 -0.2809  0.0911 -0.0748
  910MOL0     H20083  -2.101   4.967   5.919  0.2278 -0.8104  1.8441
  910MOL0     H20084  -2.402   5.045   6.205  0.2250 -0.6871 -2.8640
  910MOL0     H20085  -2.601   5.150   6.302 -2.4007  1.8897  0.8083
  910MOL0     H20086  -2.768   5.507   6.094  4.0424  4.0453 -0.6013
  910MOL0     H20087  -2.686   5.585   6.234  0.3670  0.5071 -1.6665
  910MOL0     H20088  -2.899   5.521   6.372 -1.9001  0.3147  0.4743
  910MOL0     H20089  -2.955   5.446   6.227  3.2671 -0.8030 -3.5595
  910MOL0     H20090  -2.985   5.680   6.138  2.0026  0.7480  1.0498
  910MOL0     H20091  -2.842   5.730   6.218  0.9001 -0.6889 -2.1622
  910MOL0     H20092  -3.118   5.679   6.332  0.1364  0.2590  1.7611
  910MOL0     H20093  -2.987   5.736   6.439  0.5506  5.3493 -0.9124
  910MOL0     H20094  -3.094   5.901   6.210 -0.1257  1.7592  0.5536
  910MOL0     H20095  -2.935   5.916   6.286 -0.3582 -1.6971 -1.4752
  910MOL0     H20096  -3.064   5.931   6.513  3.1920 -1.7288  0.0744
  910MOL0     H20097  -3.211   5.899   6.421  1.7390 -2.5315 -2.2500
  910MOL0     H20098  -3.051   6.151   6.454 -0.3839  0.2104 -0.9989
  910MOL0     H20099  -3.130   6.130   6.298 -0.8141 -2.7471 -0.9477
  910MOL0     H20100  -3.239   6.280   6.461 -0.0962  0.3542  2.9774
  910MOL0     H20101  -3.254   6.144   6.575  0.7823 -1.7902 -0.2703
  910MOL0     H20102  -2.524   5.495   6.045  1.9252  0.0848 -1.5465
  910MOL0     H20103  -2.318   5.385   5.972  0.3270  1.8503  1.9768
  910MOL0     H20104  -1.879   5.236   6.164 -1.3320  0.2845 -1.5420
  910MOL0     H20105  -1.668   5.113   6.108  0.9422 -1.7004 -2.6226
  910MOL0     H20106   0.229   4.188   6.166 -0.0886 -1.6049 -1.2896
  910MOL0     H20107   0.453   4.121   6.113 -2.5149  2.0048  3.9275
  910MOL0     H20108   0.922   4.280   6.099 -1.7218 -0.2265 -0.0692
  910MOL0     H20109   1.131   4.223   6.022 -1.4291  0.0791  1.1201
  910MOL0     H20110   1.181   4.036   5.625 -0.7730 -0.1363  0.6683
  910MOL0     H20111   1.188   3.897   5.723 -1.2565 -0.8300 -3.6011
  910MOL0     H20112   1.409   4.112   5.708 -1.0693  0.2958 -0.6752
  910MOL0     H20113   1.417   3.947   5.791 -1.3965 -2.1791 -1.7685
  910MOL0     H20114   1.455   3.828   5.600  2.5666 -0.3158  0.2102
  910MOL0     H20115   1.565   3.953   5.597 -0.8961  0.1340  4.1290
  910MOL0     H20116   1.294   3.960   5.436 -1.5905  2.7825  0.7859
  910MOL0     H20117   1.415   4.089   5.440 -0.9413  0.0938  0.6543
  910MOL0     H20118   1.608   3.846   5.170 -3.9807 -1.7298 -2.1592
  910MOL0     H20119   0.968   3.997   5.694 -1.2897  1.4389 -1.3422
  910MOL0     H20120   0.753   4.037   5.780 -0.3534  0.8739 -1.3657
  911MOL0     O20121   3.530   5.405   4.998  0.7953 -0.3386 -0.0966
  911MOL0     C20122   3.511   5.485   5.083  1.5304 -0.1248 -0.4046
  911MOL0     O20123   3.388   5.513   5.136 -0.0767 -0.7906 -0.3689
  911MOL0     C20124   3.282   5.456   5.074  0.2391 -0.0691 -0.0429
  911MOL0     C20125   3.225   5.510   4.957  0.6188 -0.3012  0.2758
  911MOL0     C20126   3.103   5.462   4.901  0.6950 -0.4986  0.8360
  911MOL0     C20127   3.030   5.365   4.970  0.3553 -0.7422  0.0878
  911MOL0     O20128   2.902   5.329   4.930  0.1889 -0.1860 -0.8608
  911MOL0     C20129   2.810   5.442   4.899  0.2669 -0.9475 -0.0765
  911MOL0     C20130   2.665   5.408   4.932 -1.2169  0.1160  0.3647
  911MOL0     C20131   2.634   5.392   5.086 -0.4762 -0.2227 -0.3855
  911MOL0     C20132   2.486   5.358   5.102  0.7109  0.0482 -1.3570
  911MOL0     C20133   2.417   5.439   5.210  0.5520 -0.3580 -0.2035
  911MOL0     C20134   2.279   5.383   5.234  0.3103  0.5289  0.6391
  911MOL0     C20135   2.213   5.465   5.343  0.4448 -0.7278 -0.6589
  911MOL0     C20136   2.068   5.433   5.354  0.1138 -0.4502  0.1273
  911MOL0     N20137   1.997   5.476   5.476  1.2231 -0.2596  0.5465
  911MOL0     C20138   2.024   5.460   5.608 -0.9719  0.9215  0.0385
  911MOL0     C20139   1.928   5.518   5.677 -0.0475 -0.8961 -0.3820
  911MOL0     C20140   1.931   5.538   5.828  0.2214  0.4163 -0.3243
  911MOL0     C20141   1.784   5.512   5.887  0.2076 -0.2064 -0.7209
  911MOL0     C20142   1.774   5.493   6.035  0.0181  0.1842  0.6098
  911MOL0     C20143   1.627   5.468   6.068  0.4859 -0.1538 -0.1390
  911MOL0     O20144   1.532   5.578   6.036 -0.3266 -0.0821 -0.1763
  911MOL0     C20145   1.403   5.572   6.083  0.9288  0.1834  0.6338
  911MOL0     C20146   1.353   5.517   6.196  0.0436 -0.7443 -0.2622
  911MOL0     C20147   1.223   5.513   6.244  0.5181  0.2173 -0.6921
  911MOL0     C20148   1.133   5.583   6.154  0.4673 -0.2811  0.3611
  911MOL0     C20149   0.994   5.592   6.187 -0.3450 -0.7348  0.0170
  911MOL0     O20150   0.922   5.690   6.118  0.7455 -0.6483  0.2872
  911MOL0     C20151   0.785   5.691   6.126 -0.0970 -0.9341 -0.0757
  911MOL0     C20152   0.730   5.813   6.173 -0.9749  0.7036  0.9559
  911MOL0     C20153   0.591   5.822   6.187  0.0450  0.4351 -0.5132
  911MOL0     C20154   0.511   5.728   6.150 -1.4052 -0.2736 -0.2476
  911MOL0     O20155   0.380   5.748   6.164  0.2566 -0.3932 -0.1602
  911MOL0     C20156   0.285   5.635   6.173 -0.8326 -0.2003 -0.1793
  911MOL0     C20157   0.135   5.679   6.192 -0.3660 -0.5712 -1.0800
  911MOL0     C20158   0.054   5.551   6.205  0.0914 -0.3391  0.1594
  911MOL0     C20159  -0.093   5.595   6.175  0.1828  0.4366 -0.0019
  911MOL0     C20160  -0.177   5.503   6.259 -1.0694  0.4304  0.5067
  911MOL0     C20161  -0.321   5.485   6.205  0.7514 -0.6602 -0.1590
  911MOL0     C20162  -0.403   5.611   6.173 -0.4643  0.1097 -0.8259
  911MOL0     C20163  -0.551   5.585   6.137  0.7403 -0.4959  0.3407
  911MOL0    Cl20164  -0.628   5.517   6.276  0.4502  0.0578  0.0222
  911MOL0     C20165   0.560   5.606   6.097  0.3911  0.7175 -1.1331
  911MOL0     C20166   0.693   5.581   6.096 -0.5122  0.1471  0.6751
  911MOL0     O20167   0.958   5.521   6.276  0.7224  0.0641 -0.5282
  911MOL0     C20168   1.172   5.638   6.033  0.0202 -0.2791  0.5098
  911MOL0     C20169   1.305   5.633   5.999 -0.8869 -0.3593  0.3829
  911MOL0     N20170   1.838   5.577   5.585  0.2743 -0.3402  0.6212
  911MOL0     N20171   1.879   5.543   5.468 -0.4006 -1.0341  0.6131
  911MOL0     C20172   3.080   5.301   5.079 -0.8066 -0.2860 -0.5815
  911MOL0     C20173   3.206   5.353   5.130 -0.9654  0.9700  0.6611
  911MOL0     C20174   3.625   5.562   5.131  0.3478 -0.2344 -0.0965
  911MOL0     C20175   3.597   5.664   5.225  0.1046  0.1900 -0.6849
  911MOL0     C20176   3.695   5.735   5.291  0.4128 -0.1936 -0.0699
  911MOL0     C20177   3.830   5.700   5.269  0.2787 -0.1484 -0.9513
  911MOL0     O20178   3.928   5.774   5.337 -0.3166  0.1201 -0.0097
  911MOL0     C20179   4.061   5.738   5.314 -0.3323  0.7758  0.4277
  911MOL0     C20180   4.109   5.630   5.399  0.0029  0.1962  0.1239
  911MOL0     C20181   4.257   5.615   5.409 -2.1223 -0.3938  0.0401
  911MOL0     C20182   4.338   5.747   5.449 -0.7535 -0.6663 -0.0422
  911MOL0     C20183   4.477   5.713   5.480  0.6786 -0.2637  0.5241
  911MOL0     C20184   4.577   5.673   5.525  0.5669 -0.2089  0.1516
  911MOL0     C20185   3.856   5.599   5.175  1.1692  0.2598 -0.2680
  911MOL0     C20186   3.758   5.531   5.103  0.1367 -0.7189 -0.2847
  911MOL0     H20187   3.273   5.592   4.904 -0.7882  0.8078  0.6645
  911MOL0     H20188   3.072   5.495   4.803  4.0550  0.4369 -0.0424
  911MOL0     H20189   2.820   5.471   4.794 -1.6762  2.7080  0.5710
  911MOL0     H20190   2.832   5.534   4.955  2.4849 -1.8502  0.6502
  911MOL0     H20191   2.655   5.312   4.879 -0.7530  0.8657 -1.1169
  911MOL0     H20192   2.607   5.484   4.881 -0.0885  0.2779 -0.7159
  911MOL0     H20193   2.660   5.483   5.141  0.4011 -0.8493  0.2556
  911MOL0     H20194   2.704   5.325   5.137 -0.5723 -0.7135 -0.8851
  911MOL0     H20195   2.416   5.365   5.018 -1.2438 -1.8598  0.0090
  911MOL0     H20196   2.477   5.251   5.122 -1.7400  0.1042 -1.8277
  911MOL0     H20197   2.403   5.537   5.165 -0.4023 -0.9704 -1.2848
  911MOL0     H20198   2.474   5.445   5.304 -3.1657 -1.1522  2.3512
  911MOL0     H20199   2.268   5.278   5.262  1.4709  0.4490  0.8331
  911MOL0     H20200   2.224   5.388   5.139  0.1856 -2.8174  0.3830
  911MOL0     H20201   2.263   5.450   5.439  1.5055  0.2859 -1.0275
  911MOL0     H20202   2.218   5.570   5.314  0.5603 -1.4197 -3.3928
  911MOL0     H20203   2.051   5.325   5.350  1.0140 -0.7102  2.0586
  911MOL0     H20204   2.028   5.474   5.261  4.1010 -0.4890 -1.7705
  911MOL0     H20205   2.102   5.396   5.649 -0.9504 -0.6524 -2.2603
  911MOL0     H20206   1.970   5.638   5.847  5.6992 -0.8152 -3.0841
  911MOL0     H20207   1.996   5.464   5.875 -2.2267 -1.1591  0.7738
  911MOL0     H20208   1.734   5.420   5.853 -0.7453 -0.4873  1.2834
  911MOL0     H20209   1.722   5.601   5.869 -0.7425 -0.6770  0.0888
  911MOL0     H20210   1.835   5.411   6.072  0.0574  0.8447  2.0947
  911MOL0     H20211   1.812   5.585   6.081  1.6252 -0.4681  0.6268
  911MOL0     H20212   1.616   5.438   6.173  1.1120  0.1798  0.0259
  911MOL0     H20213   1.588   5.381   6.015 -2.1536 -0.6962  2.3770
  911MOL0     H20214   1.432   5.465   6.250  1.3509 -0.2585 -1.6261
  911MOL0     H20215   1.214   5.473   6.345 -0.6139  1.9325 -0.0598
  911MOL0     H20216   0.787   5.899   6.206  1.0473 -0.3929  0.4880
  911MOL0     H20217   0.550   5.917   6.221  2.4829  1.5064 -0.3234
  911MOL0     H20218   0.308   5.566   6.255 -0.2285  0.7434  0.4860
  911MOL0     H20219   0.289   5.577   6.081  2.3888 -1.9644  0.8841
  911MOL0     H20220   0.114   5.731   6.098  2.2338  0.0945 -1.3702
  911MOL0     H20221   0.110   5.745   6.275  0.9017 -0.5980 -0.6491
  911MOL0     H20222   0.079   5.513   6.304  2.2962  0.7860  0.1015
  911MOL0     H20223   0.063   5.474   6.127 -1.6781 -0.3514 -0.0728
  911MOL0     H20224  -0.106   5.699   6.207  2.6693  0.6188  0.6255
  911MOL0     H20225  -0.122   5.607   6.070 -0.2369  0.8511  0.1583
  911MOL0     H20226  -0.184   5.541   6.361 -0.7535  0.5954  0.4697
  911MOL0     H20227  -0.124   5.407   6.266 -0.8544  0.4237 -0.8993
  911MOL0     H20228  -0.372   5.413   6.269 -0.8216 -0.1503 -0.7916
  911MOL0     H20229  -0.306   5.439   6.107 -0.6705 -1.3345 -0.0865
  911MOL0     H20230  -0.412   5.670   6.265  3.1204 -1.8679  1.0239
  911MOL0     H20231  -0.348   5.662   6.095  0.5070 -1.2543 -1.0692
  911MOL0     H20232  -0.542   5.519   6.050  0.7412  0.7236 -0.6079
  911MOL0     H20233  -0.600   5.672   6.093  0.0416 -1.1122 -0.1019
  911MOL0     H20234   0.492   5.529   6.060 -0.1518  1.5651 -1.9483
  911MOL0     H20235   0.732   5.483   6.069 -0.9588  0.5180 -1.4106
  911MOL0     H20236   1.096   5.671   5.963 -0.2502 -3.4900 -0.8762
  911MOL0     H20237   1.338   5.696   5.918 -1.7742 -0.3528  0.0158
  911MOL0     H20238   3.039   5.222   5.140  2.1855 -0.6015  1.2101
  911MOL0     H20239   3.249   5.296   5.211  4.1410  1.2629 -1.4596
  911MOL0     H20240   3.494   5.692   5.243 -0.3224 -0.7521 -1.5748
  911MOL0     H20241   3.675   5.814   5.362  1.7585 -0.5838  0.7912
  911MOL0     H20242   4.116   5.832   5.329  1.9488 -0.3795 -0.2896
  911MOL0     H20243   4.085   5.723   5.208 -0.6960  2.2245  0.1131
  911MOL0     H20244   4.084   5.658   5.502 -0.1579  0.9621 -0.1188
  911MOL0     H20245   4.064   5.531   5.392  0.2880 -0.0260  1.1866
  911MOL0     H20246   4.310   5.578   5.321  0.9243 -1.4641  2.1672
  911MOL0     H20247   4.277   5.533   5.479  4.7287 -0.3746 -1.2295
  911MOL0     H20248   4.335   5.831   5.379  2.7912  2.5456  3.1490
  911MOL0     H20249   4.294   5.781   5.544  2.2121  0.1160  1.1623
  911MOL0     H20250   4.672   5.642   5.563  0.3786 -0.6947  0.2307
  911MOL0     H20251   3.953   5.554   5.154  0.9696  0.3705 -1.5291
  911MOL0     H20252   3.779   5.441   5.047 -1.2715 -2.5547  1.9566
  912MOL0     O20253   7.145   1.278   6.197  0.5560  0.0315 -0.3150
  912MOL0     C20254   7.215   1.342   6.280 -0.0774 -0.8842  0.0744
  912MOL0     O20255   7.188   1.367   6.415 -0.0055  0.4251 -0.1205
  912MOL0     C20256   7.078   1.313   6.475  0.4134 -0.0476 -0.0221
  912MOL0     C20257   6.955   1.368   6.460 -0.0353  0.2906 -0.0817
  912MOL0     C20258   6.845   1.314   6.525  0.0613  0.5453  0.3629
  912MOL0     C20259   6.868   1.210   6.620 -0.4776  0.5187 -0.4048
  912MOL0     O20260   6.766   1.140   6.679  0.4551 -0.5159  0.0642
  912MOL0     C20261   6.674   1.075   6.585  0.1386  0.2683 -0.1520
  912MOL0     C20262   6.592   0.962   6.669 -0.0368 -0.5866  0.4987
  912MOL0     C20263   6.496   1.031   6.777 -0.7014 -0.2733 -0.6013
  912MOL0     C20264   6.395   1.140   6.720  0.0592  0.4046  0.7859
  912MOL0     C20265   6.308   1.199   6.828 -0.2997 -0.5780  0.5730
  912MOL0     C20266   6.198   1.109   6.882 -0.4545  0.6819  0.5114
  912MOL0     C20267   6.100   1.070   6.773  1.4306  0.3065  0.5118
  912MOL0     C20268   6.027   1.179   6.687 -0.6910 -0.8213 -0.7742
  912MOL0     N20269   5.939   1.256   6.771  0.2533 -0.1694  0.1129
  912MOL0     C20270   5.977   1.353   6.868  0.0003  0.3256 -0.0523
  912MOL0     C20271   5.860   1.400   6.921 -0.5741  0.8942  0.4736
  912MOL0     C20272   5.859   1.512   7.022 -0.1328  0.1684 -0.1489
  912MOL0     C20273   5.773   1.470   7.138  0.6718  0.2547  0.1431
  912MOL0     C20274   5.621   1.475   7.124  0.4112 -0.2508  0.0458
  912MOL0     C20275   5.571   1.615   7.105  0.4990 -0.0763  0.2304
  912MOL0     O20276   5.428   1.608   7.110  0.2480  0.1057  0.1127
  912MOL0     C20277   5.361   1.582   7.231  0.0837  0.1768  0.5168
  912MOL0     C20278   5.430   1.592   7.356  0.5129  0.0722 -0.4915
  912MOL0     C20279   5.345   1.595   7.474 -0.4676  0.0671 -0.0444
  912MOL0     C20280   5.222   1.545   7.470  0.4386  0.3630 -0.8866
  912MOL0     C20281   5.149   1.516   7.600 -0.4331  0.8657 -0.0355
  912MOL0     O20282   5.221   1.523   7.718 -0.3829 -0.2477 -0.3150
  912MOL0     C20283   5.146   1.494   7.824 -0.3797  0.3536 -0.5153
  912MOL0     C20284   5.148   1.365   7.874 -0.2741  0.1663  0.6521
  912MOL0     C20285   5.069   1.340   7.994  0.2413 -0.4560 -0.2643
  912MOL0     C20286   4.974   1.429   8.046  0.4949 -0.5738 -0.2165
  912MOL0     O20287   4.892   1.402   8.156 -0.3794  0.7396 -0.3572
  912MOL0     C20288   4.823   1.269   8.151  0.1639 -0.2591 -1.3358
  912MOL0     C20289   4.728   1.260   8.279 -0.6564  0.1990  0.9129
  912MOL0     C20290   4.613   1.358   8.275  0.4071  0.5735 -0.1975
  912MOL0     C20291   4.496   1.327   8.185  0.3583 -0.8217 -0.3160
  912MOL0     C20292   4.415   1.201   8.221 -0.3022  0.2553 -0.2175
  912MOL0     C20293   4.285   1.155   8.137 -0.2624  0.5942  0.2528
  912MOL0     C20294   4.181   1.268   8.125  1.1342  0.8852  0.9683
  912MOL0     C20295   4.086   1.252   8.014 -0.3909  0.6158 -0.4527
  912MOL0    Cl20296   3.933   1.342   8.027 -0.1464 -0.2544  0.3467
  912MOL0     C20297   4.988   1.560   8.003 -0.3669 -0.0182  0.3369
  912MOL0     C20298   5.076   1.590   7.894 -0.6416 -0.7086 -0.0766
  912MOL0     O20299   5.027   1.490   7.600  0.0530 -0.3324  0.6293
  912MOL0     C20300   5.161   1.527   7.347 -0.1711  0.1575  0.4800
  912MOL0     C20301   5.229   1.556   7.228  0.1927 -0.1466  0.0946
  912MOL0     N20302   5.757   1.339   6.863  0.0586 -1.3780 -0.6606
  912MOL0     N20303   5.803   1.255   6.772  0.0460  0.5040 -0.9784
  912MOL0     C20304   6.997   1.162   6.632 -0.0926 -0.0917  0.8011
  912MOL0     C20305   7.101   1.209   6.562  0.2292 -0.4554  0.1537
  912MOL0     C20306   7.327   1.421   6.227 -0.2098 -0.9566 -0.4327
  912MOL0     C20307   7.411   1.502   6.313 -0.2059 -0.0417  0.4357
  912MOL0     C20308   7.519   1.574   6.256  0.5966 -0.5486  0.0501
  912MOL0     C20309   7.534   1.578   6.115  0.0857 -0.2017  0.0208
  912MOL0     O20310   7.617   1.663   6.055 -0.5776 -0.3903 -0.2459
  912MOL0     C20311   7.758   1.650   6.077 -0.2959  0.2974 -0.3835
  912MOL0     C20312   7.824   1.784   6.032 -0.6317  0.1798  0.6463
  912MOL0     C20313   7.806   1.811   5.882  0.3176 -1.1158 -0.6062
  912MOL0     C20314   7.908   1.732   5.803  0.3184  0.3257 -0.1094
  912MOL0     C20315   8.038   1.793   5.818  0.2042 -1.0739  0.6680
  912MOL0     C20316   8.146   1.844   5.815  0.0350 -0.0299 -0.1249
  912MOL0     C20317   7.451   1.499   6.031  0.1792  0.8431  0.2715
  912MOL0     C20318   7.340   1.436   6.090  0.1105  0.2955  0.4376
  912MOL0     H20319   6.947   1.444   6.383  0.9083 -0.7846 -1.2764
  912MOL0     H20320   6.741   1.345   6.512 -0.1191 -1.0421 -2.8677
  912MOL0     H20321   6.730   1.019   6.509  0.0685 -2.0319  1.3834
  912MOL0     H20322   6.605   1.144   6.536  1.8493  1.3089 -1.1913
  912MOL0     H20323   6.658   0.888   6.714 -1.1686 -0.4721  2.4790
  912MOL0     H20324   6.527   0.919   6.592  0.9300 -1.9817  0.4294
  912MOL0     H20325   6.572   1.078   6.840  0.9571 -1.9038 -1.2575
  912MOL0     H20326   6.436   0.958   6.834 -3.2794  3.8770  2.5756
  912MOL0     H20327   6.457   1.216   6.673 -0.4821 -0.3193 -1.1951
  912MOL0     H20328   6.326   1.113   6.640  1.3242  0.2592 -0.2849
  912MOL0     H20329   6.257   1.280   6.775 -0.0190 -0.5817  0.2988
  912MOL0     H20330   6.372   1.248   6.902  2.0903 -2.9583  0.2382
  912MOL0     H20331   6.136   1.149   6.963  0.2562  2.2251  0.3416
  912MOL0     H20332   6.240   1.017   6.922  3.4889  2.5785  1.2284
  912MOL0     H20333   6.133   0.989   6.708 -1.3470 -1.4870  1.1558
  912MOL0     H20334   6.015   1.024   6.825  0.8001  1.5322  0.5905
  912MOL0     H20335   5.953   1.135   6.618 -3.1139  1.7928  0.0032
  912MOL0     H20336   6.095   1.247   6.635 -0.3450 -0.0822  0.6027
  912MOL0     H20337   6.070   1.397   6.903 -0.3605  0.4752  0.7323
  912MOL0     H20338   5.812   1.594   6.967  2.0395  3.2470  2.2399
  912MOL0     H20339   5.959   1.543   7.054  1.0763 -3.7902  0.3685
  912MOL0     H20340   5.783   1.537   7.224  0.0732  0.5591 -0.0179
  912MOL0     H20341   5.801   1.367   7.163  0.3642 -0.0572 -0.7522
  912MOL0     H20342   5.583   1.422   7.035  0.0572  0.0592  0.0116
  912MOL0     H20343   5.579   1.427   7.213  0.4458  2.0708  1.3630
  912MOL0     H20344   5.604   1.643   7.005  0.4437  3.7036  1.1346
  912MOL0     H20345   5.598   1.686   7.184 -0.2561 -1.2068  1.5728
  912MOL0     H20346   5.529   1.633   7.369 -0.2239  1.5537  0.7496
  912MOL0     H20347   5.382   1.618   7.574 -3.9735 -4.2763  2.6189
  912MOL0     H20348   5.222   1.293   7.843 -0.8345 -0.7691  1.4408
  912MOL0     H20349   5.069   1.239   8.035  0.9711 -1.1170 -1.8073
  912MOL0     H20350   4.895   1.188   8.168  0.8671  0.9800  2.6690
  912MOL0     H20351   4.764   1.256   8.060 -1.5216  1.0099 -0.4667
  912MOL0     H20352   4.800   1.283   8.357 -1.0918  0.1004  1.3452
  912MOL0     H20353   4.696   1.156   8.294  3.4502 -1.4033 -0.1180
  912MOL0     H20354   4.645   1.457   8.242 -3.3719  1.4372 -1.8183
  912MOL0     H20355   4.579   1.355   8.379  0.3105 -1.7304 -0.2379
  912MOL0     H20356   4.439   1.420   8.192  3.7323  1.3967 -0.0367
  912MOL0     H20357   4.528   1.321   8.081 -2.2334 -1.9987 -1.1352
  912MOL0     H20358   4.390   1.210   8.327  0.5358 -0.5657  0.0619
  912MOL0     H20359   4.485   1.117   8.219 -0.7558 -0.1248 -0.8962
  912MOL0     H20360   4.233   1.072   8.185 -0.6275  1.5095  1.4755
  912MOL0     H20361   4.321   1.123   8.038  1.0250  1.0762  0.5438
  912MOL0     H20362   4.128   1.283   8.220  1.3795  0.2734  1.2069
  912MOL0     H20363   4.231   1.364   8.111 -0.1233  1.3822 -0.3605
  912MOL0     H20364   4.062   1.145   8.006 -0.5985  0.4789  1.4147
  912MOL0     H20365   4.131   1.285   7.920  1.4591 -1.7854 -0.5301
  912MOL0     H20366   4.934   1.647   8.041 -2.4507 -0.4410 -1.4212
  912MOL0     H20367   5.080   1.694   7.865 -0.7678 -0.9205 -0.8802
  912MOL0     H20368   5.058   1.494   7.333 -0.2418  0.4664  0.2674
  912MOL0     H20369   5.183   1.558   7.129 -0.7742  2.7916  0.5107
  912MOL0     H20370   7.022   1.081   6.700 -0.4032  0.0822  1.1188
  912MOL0     H20371   7.202   1.173   6.577 -0.3187 -1.3716  1.8611
  912MOL0     H20372   7.391   1.511   6.419  2.4834  2.3655  0.8698
  912MOL0     H20373   7.592   1.626   6.317 -0.3011 -0.9421  1.5064
  912MOL0     H20374   7.794   1.560   6.026 -5.3129 -2.4242  0.2600
  912MOL0     H20375   7.781   1.627   6.181  0.1775 -1.7012 -0.8730
  912MOL0     H20376   7.769   1.866   6.080  0.5653  1.6442 -0.3495
  912MOL0     H20377   7.928   1.790   6.067 -0.0563 -1.5057 -0.6588
  912MOL0     H20378   7.820   1.915   5.852  2.8134 -1.8442 -2.3227
  912MOL0     H20379   7.709   1.777   5.844 -0.6549  1.6738 -0.8324
  912MOL0     H20380   7.915   1.624   5.821 -1.1192  0.5947  2.5122
  912MOL0     H20381   7.879   1.735   5.697 -1.1804  0.6211  0.2818
  912MOL0     H20382   8.236   1.902   5.815 -0.7877  1.2906  0.5758
  912MOL0     H20383   7.469   1.488   5.925 -1.6426  0.2982 -0.0170
  912MOL0     H20384   7.264   1.402   6.021  2.3481  0.3968 -2.2560
  913MOL0     O20385   7.127   9.031   3.227 -0.5267  0.2113 -0.0277
  913MOL0     C20386   7.185   9.066   3.130  0.1459 -0.8322 -0.4446
  913MOL0     O20387   7.145   9.050   3.000 -0.0046 -0.1050  0.2621
  913MOL0     C20388   7.047   8.974   2.958  1.2915 -0.2564  0.9199
  913MOL0     C20389   7.047   8.947   2.816 -0.1640 -0.3837 -0.4119
  913MOL0     C20390   6.948   8.864   2.755 -0.2897  0.1338  0.6231
  913MOL0     C20391   6.843   8.823   2.830  0.2787  0.4303  0.3378
  913MOL0     O20392   6.727   8.758   2.781  0.5596  0.5494  0.4859
  913MOL0     C20393   6.693   8.778   2.644  0.6187 -0.5577 -0.0533
  913MOL0     C20394   6.565   8.693   2.618 -0.4387  0.0731  0.0966
  913MOL0     C20395   6.563   8.657   2.476  0.1834 -0.5656 -0.2367
  913MOL0     C20396   6.451   8.567   2.443  0.2219  0.1251 -0.1892
  913MOL0     C20397   6.420   8.589   2.296 -0.7599 -0.6587  0.2655
  913MOL0     C20398   6.319   8.496   2.243 -0.3015  0.4775  0.0993
  913MOL0     C20399   6.293   8.517   2.090 -0.4738  0.1331 -0.3232
  913MOL0     C20400   6.231   8.397   2.024  0.2281  0.6585  0.5649
  913MOL0     N20401   6.081   8.411   1.983 -0.3728 -0.0698 -0.4686
  913MOL0     C20402   6.034   8.501   1.899  0.3402 -0.7337  0.9313
  913MOL0     C20403   5.892   8.503   1.916  0.9619 -0.1199  1.0412
  913MOL0     C20404   5.795   8.557   1.818 -0.2130  0.0321 -0.4202
  913MOL0     C20405   5.651   8.496   1.842  0.2339 -0.3895  0.6131
  913MOL0     C20406   5.565   8.578   1.741  0.1573  0.8199 -0.2810
  913MOL0     C20407   5.425   8.523   1.727  0.7885 -0.6426  0.2907
  913MOL0     O20408   5.421   8.381   1.687  0.7872 -0.6913 -1.2094
  913MOL0     C20409   5.292   8.326   1.686  0.1711  0.8418 -0.0922
  913MOL0     C20410   5.289   8.189   1.648  0.5848 -0.2450 -0.1862
  913MOL0     C20411   5.171   8.110   1.617  0.4828 -0.0840 -0.0040
  913MOL0     C20412   5.049   8.170   1.640 -0.6271 -1.3719 -0.0041
  913MOL0     C20413   4.916   8.093   1.630 -0.1926 -0.7022 -0.7084
  913MOL0     O20414   4.809   8.151   1.701 -0.0036 -0.1928 -0.0759
  913MOL0     C20415   4.689   8.087   1.678 -0.3667 -0.7336  0.0836
  913MOL0     C20416   4.660   7.979   1.749  0.0272 -0.6435 -0.2160
  913MOL0     C20417   4.546   7.901   1.727 -0.2555  0.2678 -0.5422
  913MOL0     C20418   4.464   7.934   1.616  0.3173 -0.5505 -0.4134
  913MOL0     O20419   4.345   7.880   1.583  0.5345  0.2940  0.0080
  913MOL0     C20420   4.340   7.735   1.600  0.1664  0.5071  1.1341
  913MOL0     C20421   4.353   7.653   1.469 -0.4941  0.1215  0.3141
  913MOL0     C20422   4.231   7.659   1.375  0.0750 -0.0696 -0.5693
  913MOL0     C20423   4.083   7.619   1.434 -0.6860 -0.1037 -0.4004
  913MOL0     C20424   3.986   7.622   1.316  0.2374 -0.0488 -0.1617
  913MOL0     C20425   3.858   7.529   1.324  0.2941  0.1681 -0.1102
  913MOL0     C20426   3.750   7.592   1.415  0.1599  0.0836  1.1111
  913MOL0     C20427   3.656   7.503   1.497  0.8772 -0.4160  0.6245
  913MOL0    Cl20428   3.597   7.368   1.400 -0.1429 -0.3500  0.3574
  913MOL0     C20429   4.494   8.056   1.553 -0.0209 -0.0071  0.1078
  913MOL0     C20430   4.601   8.138   1.589  0.0232 -0.3797  0.5219
  913MOL0     O20431   4.920   7.985   1.575  0.3293  0.1731 -0.0970
  913MOL0     C20432   5.045   8.309   1.678 -0.0892 -0.0119  0.7974
  913MOL0     C20433   5.164   8.385   1.702 -0.3447  0.3917  0.5387
  913MOL0     N20434   5.868   8.429   2.029  0.1843 -0.0545 -0.2056
  913MOL0     N20435   5.976   8.371   2.063  0.1136 -0.2254 -0.1939
  913MOL0     C20436   6.844   8.835   2.970 -0.2058 -0.2239  0.2831
  913MOL0     C20437   6.944   8.916   3.034 -0.3283 -0.1104  0.1184
  913MOL0     C20438   7.306   9.148   3.153 -0.3380  0.0387 -0.5564
  913MOL0     C20439   7.315   9.221   3.267 -0.0312 -0.1486  0.4735
  913MOL0     C20440   7.425   9.304   3.294  0.6710 -0.6564 -0.2807
  913MOL0     C20441   7.527   9.303   3.208 -0.3314 -0.6534  0.5379
  913MOL0     O20442   7.637   9.383   3.219  0.8997 -0.3391  0.4975
  913MOL0     C20443   7.660   9.443   3.350 -0.3491  0.4879  0.2466
  913MOL0     C20444   7.806   9.484   3.355 -0.2475 -0.6373 -0.7361
  913MOL0     C20445   7.838   9.568   3.481 -0.1105 -0.2664  1.6800
  913MOL0     C20446   7.984   9.621   3.480  0.4452  0.2313 -0.5847
  913MOL0     C20447   8.022   9.676   3.607  0.6279 -0.0279  0.4512
  913MOL0     C20448   8.033   9.751   3.702 -0.4540  0.1334 -0.5252
  913MOL0     C20449   7.529   9.212   3.099  0.3760  0.5198 -0.9394
  913MOL0     C20450   7.413   9.149   3.067  1.3691  1.2207 -0.5293
  913MOL0     H20451   7.130   8.982   2.756 -1.2905  3.8902  0.2434
  913MOL0     H20452   6.956   8.849   2.648  1.3379 -0.2486  0.7753
  913MOL0     H20453   6.779   8.734   2.592  1.5609 -2.1092  2.5989
  913MOL0     H20454   6.686   8.883   2.616 -2.1773 -0.7492 -0.3371
  913MOL0     H20455   6.475   8.753   2.635 -0.2354  0.6919 -0.9204
  913MOL0     H20456   6.565   8.611   2.690  1.4911  0.8200  1.0176
  913MOL0     H20457   6.657   8.608   2.452  0.5580 -0.4750  0.9727
  913MOL0     H20458   6.542   8.749   2.420 -0.7054 -0.0178  0.9619
  913MOL0     H20459   6.480   8.465   2.469 -2.2416 -1.2781 -2.4442
  913MOL0     H20460   6.366   8.599   2.504 -0.7171  0.3138 -1.5522
  913MOL0     H20461   6.515   8.565   2.248  0.1410 -0.3292  1.8152
  913MOL0     H20462   6.388   8.691   2.274 -3.8110 -1.7501 -0.9255
  913MOL0     H20463   6.220   8.516   2.285 -1.2020 -2.8646 -0.1915
  913MOL0     H20464   6.344   8.395   2.277  0.7691  1.3688  2.1312
  913MOL0     H20465   6.225   8.601   2.075 -2.7957 -1.4567  0.8196
  913MOL0     H20466   6.387   8.549   2.043  0.0418 -1.8997 -0.7639
  913MOL0     H20467   6.237   8.317   2.098  0.6482  0.8933  0.7863
  913MOL0     H20468   6.294   8.363   1.942  2.6202  0.1060  2.5229
  913MOL0     H20469   6.095   8.552   1.826  0.3890 -0.0821  1.4227
  913MOL0     H20470   5.824   8.527   1.717  0.3835  0.1176 -0.2759
  913MOL0     H20471   5.789   8.667   1.822  0.2395  0.0296  0.6154
  913MOL0     H20472   5.626   8.516   1.946 -0.1152 -3.6769  1.2812
  913MOL0     H20473   5.653   8.387   1.832  0.9653 -0.3337  0.1057
  913MOL0     H20474   5.559   8.684   1.768  2.3282  1.0423 -0.4385
  913MOL0     H20475   5.602   8.566   1.639  0.5914  1.5713 -0.2143
  913MOL0     H20476   5.380   8.590   1.653  2.7198 -0.4999 -0.8135
  913MOL0     H20477   5.382   8.538   1.827  2.7125  1.1287  0.9102
  913MOL0     H20478   5.387   8.147   1.626  0.7950 -1.5642  2.7565
  913MOL0     H20479   5.188   8.011   1.574 -0.1458 -0.5617  0.8295
  913MOL0     H20480   4.741   7.945   1.814 -0.8178 -1.6166  0.3600
  913MOL0     H20481   4.514   7.822   1.795 -0.3671 -1.5140 -2.5683
  913MOL0     H20482   4.240   7.713   1.638 -2.0075 -0.8614 -4.3860
  913MOL0     H20483   4.409   7.701   1.678 -0.5357  3.0063  2.9728
  913MOL0     H20484   4.386   7.556   1.506 -0.9434  0.1965  0.9250
  913MOL0     H20485   4.442   7.687   1.415  2.3221  1.5926  5.2288
  913MOL0     H20486   4.251   7.590   1.293 -1.5260  0.6278 -1.5985
  913MOL0     H20487   4.224   7.754   1.321 -0.2764  0.9014  1.0899
  913MOL0     H20488   4.081   7.517   1.476 -1.3963  0.1307  0.1446
  913MOL0     H20489   4.049   7.679   1.519  0.3100 -1.1645  0.8192
  913MOL0     H20490   4.038   7.579   1.229 -0.5156 -3.0649  0.7455
  913MOL0     H20491   3.952   7.722   1.289 -0.1618 -0.2940 -0.5750
  913MOL0     H20492   3.898   7.434   1.361  2.9330  1.1621 -0.1628
  913MOL0     H20493   3.812   7.502   1.228 -2.5876 -2.4342  1.7883
  913MOL0     H20494   3.799   7.655   1.490  2.7001 -0.8136  0.3318
  913MOL0     H20495   3.687   7.656   1.353 -0.9490 -1.5795  0.4570
  913MOL0     H20496   3.572   7.558   1.539  0.7219 -3.6843  5.4253
  913MOL0     H20497   3.714   7.456   1.578  1.4586  1.5641  1.4219
  913MOL0     H20498   4.428   8.094   1.475  2.4231  0.3221 -1.9170
  913MOL0     H20499   4.625   8.228   1.532  1.1479  0.3595  2.0906
  913MOL0     H20500   4.948   8.351   1.703  0.5877  1.1006  1.6187
  913MOL0     H20501   5.144   8.485   1.738  0.3770  0.4253  0.8598
  913MOL0     H20502   6.752   8.812   3.022 -0.0518 -1.1948  0.1404
  913MOL0     H20503   6.916   8.946   3.135  0.5942  0.4279  0.2239
  913MOL0     H20504   7.234   9.227   3.338 -1.9907 -1.3935 -1.5181
  913MOL0     H20505   7.408   9.364   3.383 -1.2116 -2.2477  0.5320
  913MOL0     H20506   7.645   9.385   3.442 -0.1196  1.7569  1.1126
  913MOL0     H20507   7.597   9.533   3.347 -0.1259  0.6263 -0.2184
  913MOL0     H20508   7.878   9.402   3.359  1.0269  0.4578 -0.5553
  913MOL0     H20509   7.827   9.545   3.267  3.8000  0.2006  0.5696
  913MOL0     H20510   7.825   9.494   3.561  1.6963 -1.5432  0.8651
  913MOL0     H20511   7.768   9.650   3.498  1.5973  1.0840  2.4526
  913MOL0     H20512   8.059   9.541   3.474  2.5677  2.1400 -0.9696
  913MOL0     H20513   8.007   9.690   3.398  1.5801  0.1757 -0.3391
  913MOL0     H20514   8.026   9.833   3.772  0.7221  1.7151 -2.1551
  913MOL0     H20515   7.619   9.209   3.039 -1.2671 -0.4508 -3.5142
  913MOL0     H20516   7.412   9.084   2.980 -0.6506 -1.5002  1.3673
  914MOL0     O20517   9.652   6.664   9.615 -0.1839  0.5901 -0.0059
  914MOL0     C20518   9.705   6.707   9.511  0.2475 -0.1084 -0.0917
  914MOL0     O20519   9.643   6.753   9.401  0.0554 -0.3356  0.5049
  914MOL0     C20520   9.504   6.736   9.368 -0.3105  0.0249 -0.0278
  914MOL0     C20521   9.428   6.623   9.402  0.0085 -0.3202  0.0090
  914MOL0     C20522   9.292   6.628   9.385  0.5688 -0.3238 -0.1501
  914MOL0     C20523   9.231   6.733   9.330  0.1772 -1.4245  0.3999
  914MOL0     O20524   9.089   6.727   9.330  0.0875  0.1293 -0.8347
  914MOL0     C20525   9.001   6.850   9.304  1.4848 -0.3931  0.1483
  914MOL0     C20526   8.852   6.807   9.293 -0.0747 -0.1749  0.0061
  914MOL0     C20527   8.798   6.770   9.427  0.3460  1.4721  0.2025
  914MOL0     C20528   8.665   6.708   9.403  0.0472  0.7378 -0.1711
  914MOL0     C20529   8.558   6.788   9.479  0.9509 -0.1342 -0.4262
  914MOL0     C20530   8.538   6.931   9.415  0.2704  0.2103  0.1721
  914MOL0     C20531   8.393   6.994   9.429  0.3094 -0.1186  0.6186
  914MOL0     C20532   8.279   6.912   9.355 -0.0255  0.3165  0.4086
  914MOL0     N20533   8.168   7.006   9.320  0.3039  0.3789  0.7332
  914MOL0     C20534   8.093   7.085   9.404 -0.1911  0.3031  0.4242
  914MOL0     C20535   8.013   7.156   9.319  0.0797  0.8201  0.7606
  914MOL0     C20536   7.920   7.268   9.375  0.1984  0.3230 -0.4663
  914MOL0     C20537   7.780   7.202   9.406 -0.2893  1.0344  0.3360
  914MOL0     C20538   7.719   7.148   9.277  0.0808 -0.4988 -0.4254
  914MOL0     C20539   7.569   7.135   9.280  0.3016  0.9434 -0.4353
  914MOL0     O20540   7.513   7.261   9.279  0.3015 -0.5236  0.0058
  914MOL0     C20541   7.367   7.264   9.269 -0.5225  0.5263  0.3609
  914MOL0     C20542   7.273   7.165   9.303  0.4780  0.8364  0.2989
  914MOL0     C20543   7.139   7.182   9.276  0.4233  0.3185  0.4820
  914MOL0     C20544   7.088   7.298   9.220 -0.2157  0.1209 -0.6113
  914MOL0     C20545   6.941   7.326   9.195  0.0156  0.2293 -0.0962
  914MOL0     O20546   6.905   7.429   9.115  0.3549 -0.6602 -0.4122
  914MOL0     C20547   6.778   7.481   9.129  0.2884 -0.6595 -0.0208
  914MOL0     C20548   6.663   7.467   9.048  0.2111  0.3897  0.2966
  914MOL0     C20549   6.538   7.535   9.059  0.8825 -0.5435  0.1310
  914MOL0     C20550   6.531   7.634   9.158  0.9082  0.3178 -0.2678
  914MOL0     O20551   6.424   7.724   9.181  0.0380 -0.1013 -0.3635
  914MOL0     C20552   6.312   7.720   9.093  0.4668 -0.2500  0.5038
  914MOL0     C20553   6.208   7.818   9.134 -1.2469  0.1737  0.0948
  914MOL0     C20554   6.105   7.842   9.013 -0.8101 -0.0710 -0.4650
  914MOL0     C20555   5.969   7.908   9.056  0.1134  0.0889 -0.7484
  914MOL0     C20556   5.975   8.055   9.068  0.0835 -0.2341  0.7680
  914MOL0     C20557   5.978   8.117   8.931 -0.1961 -0.1477 -0.4760
  914MOL0     C20558   6.008   8.264   8.962  0.3429 -0.3629  0.9530
  914MOL0     C20559   6.056   8.339   8.844  0.4271  1.0741 -0.3589
  914MOL0    Cl20560   6.035   8.516   8.891 -0.2023  0.4967 -0.2666
  914MOL0     C20561   6.639   7.647   9.245  0.4231 -0.6109  0.0691
  914MOL0     C20562   6.751   7.574   9.229  0.3083 -0.0247 -0.0963
  914MOL0     O20563   6.867   7.246   9.245 -0.1884 -0.5792  0.0059
  914MOL0     C20564   7.184   7.397   9.184 -0.2424 -0.9869 -0.5985
  914MOL0     C20565   7.322   7.379   9.210  0.0295  0.5100  0.7235
  914MOL0     N20566   8.052   7.134   9.190  0.4850  0.0874  0.4777
  914MOL0     N20567   8.134   7.035   9.190  0.3980  0.8543 -0.7323
  914MOL0     C20568   9.309   6.841   9.280 -0.1129 -0.5950  0.2068
  914MOL0     C20569   9.450   6.841   9.292 -0.2626  0.7045 -0.4277
  914MOL0     C20570   9.854   6.730   9.501  0.5876 -0.0954  0.2161
  914MOL0     C20571   9.929   6.739   9.615  0.3608 -0.6257  0.9565
  914MOL0     C20572  10.070   6.764   9.605  0.9484 -0.2201 -1.0602
  914MOL0     C20573  10.128   6.777   9.482  0.0918 -0.0792 -0.8281
  914MOL0     O20574  10.259   6.802   9.454  0.4401 -0.9725  0.3518
  914MOL0     C20575  10.351   6.709   9.502 -0.5837  0.1158 -0.1539
  914MOL0     C20576  10.350   6.590   9.403 -0.2821 -0.0239 -0.3528
  914MOL0     C20577  10.402   6.466   9.489  0.3334  0.5629  0.4577
  914MOL0     C20578  10.327   6.344   9.443  0.5479 -0.7175 -0.0224
  914MOL0     C20579  10.183   6.351   9.459 -0.4530  0.0476  0.1393
  914MOL0     C20580  10.069   6.370   9.485  0.1281  0.5673 -0.0898
  914MOL0     C20581  10.046   6.785   9.369  0.0663  0.3123 -0.4321
  914MOL0     C20582   9.909   6.762   9.376  0.2764  0.5797 -0.4055
  914MOL0     H20583   9.469   6.533   9.447 -3.3413 -2.1266 -0.1921
  914MOL0     H20584   9.239   6.539   9.417  0.3389  0.3244  1.3983
  914MOL0     H20585   9.032   6.907   9.216  0.5137 -0.5991 -0.3432
  914MOL0     H20586   9.014   6.910   9.394 -0.3289 -0.8720  0.7870
  914MOL0     H20587   8.848   6.721   9.225  0.4524  0.6917 -1.1544
  914MOL0     H20588   8.789   6.888   9.256  1.7111  1.5730  0.6300
  914MOL0     H20589   8.783   6.858   9.490  1.2082  1.7867 -0.0241
  914MOL0     H20590   8.870   6.699   9.468 -1.7627 -1.7705 -1.2879
  914MOL0     H20591   8.638   6.693   9.298  0.4406  1.6159 -0.4017
  914MOL0     H20592   8.672   6.612   9.455 -1.7657  1.5375  1.6766
  914MOL0     H20593   8.580   6.792   9.586 -0.2557 -1.7897 -0.0743
  914MOL0     H20594   8.463   6.733   9.484  1.7193 -1.3716  1.4423
  914MOL0     H20595   8.567   6.922   9.310  2.5281  0.9011  0.6811
  914MOL0     H20596   8.616   6.992   9.461  0.4500  0.8478 -0.9211
  914MOL0     H20597   8.362   7.020   9.531 -1.6528  1.5408 -0.3227
  914MOL0     H20598   8.400   7.095   9.387  2.0867 -0.4985 -0.0701
  914MOL0     H20599   8.243   6.841   9.430 -1.0659  0.3552 -0.0425
  914MOL0     H20600   8.317   6.871   9.261 -1.4779  1.9423 -0.9484
  914MOL0     H20601   8.092   7.077   9.512 -0.2153 -1.4048  0.3211
  914MOL0     H20602   7.900   7.358   9.316 -1.5361 -0.1628 -0.6723
  914MOL0     H20603   7.960   7.309   9.468  0.7743 -3.6217  1.2061
  914MOL0     H20604   7.717   7.279   9.452  1.7249  0.8550  3.6623
  914MOL0     H20605   7.793   7.131   9.488  0.2576  0.7238 -0.0183
  914MOL0     H20606   7.741   7.208   9.188 -1.6607 -1.3663 -1.5082
  914MOL0     H20607   7.766   7.051   9.260  0.3828 -0.3262 -0.5694
  914MOL0     H20608   7.544   7.078   9.369 -1.9732 -2.8686 -3.2182
  914MOL0     H20609   7.540   7.079   9.190 -2.7441  3.3625 -1.1496
  914MOL0     H20610   7.301   7.065   9.334 -0.6794  0.6206  0.6776
  914MOL0     H20611   7.072   7.103   9.308 -0.5885  0.9416 -0.0187
  914MOL0     H20612   6.685   7.394   8.971  3.2540 -0.2664  1.6216
  914MOL0     H20613   6.456   7.511   8.992 -1.3923 -0.2317  2.6695
  914MOL0     H20614   6.269   7.620   9.087  1.4560 -0.7891  1.7104
  914MOL0     H20615   6.363   7.748   9.001  4.0711  2.4365  3.0018
  914MOL0     H20616   6.255   7.912   9.165 -0.1456  0.0042 -0.9904
  914MOL0     H20617   6.153   7.784   9.222  0.1860 -0.9156  0.6177
  914MOL0     H20618   6.088   7.744   8.967  0.9580  0.8306 -3.2795
  914MOL0     H20619   6.158   7.897   8.934 -0.0971 -0.2197 -0.0980
  914MOL0     H20620   5.893   7.878   8.983  2.1104 -1.7819 -2.1886
  914MOL0     H20621   5.947   7.856   9.150 -2.1165 -1.0317 -1.8125
  914MOL0     H20622   6.069   8.066   9.124  0.2989  0.4085  0.2910
  914MOL0     H20623   5.885   8.084   9.123  0.3765 -0.6393  1.4829
  914MOL0     H20624   5.878   8.110   8.887  0.5590 -1.3227 -2.1271
  914MOL0     H20625   6.055   8.078   8.862  0.8521  2.9767 -1.2262
  914MOL0     H20626   5.918   8.305   9.010  1.5879  2.1977  1.2526
  914MOL0     H20627   6.088   8.265   9.036 -0.5213 -0.3683  1.9204
  914MOL0     H20628   5.992   8.337   8.756 -0.3968 -2.5602  0.1844
  914MOL0     H20629   6.158   8.305   8.826 -0.0933  0.0956 -1.5654
  914MOL0     H20630   6.626   7.726   9.318 -3.0984 -1.6810  0.8207
  914MOL0     H20631   6.827   7.603   9.301 -0.8664 -1.5026  1.8155
  914MOL0     H20632   7.163   7.489   9.130 -1.4463 -0.9680 -0.1327
  914MOL0     H20633   7.396   7.453   9.179  2.5840 -2.4599 -0.8399
  914MOL0     H20634   9.260   6.918   9.221  1.7413 -0.0007 -0.6207
  914MOL0     H20635   9.506   6.927   9.256 -2.7896  3.5719  1.9551
  914MOL0     H20636   9.884   6.710   9.709  0.7888 -1.7062  0.8405
  914MOL0     H20637  10.133   6.780   9.691 -0.9362  5.0145 -0.2935
  914MOL0     H20638  10.328   6.687   9.606 -1.4980  0.5806 -0.2429
  914MOL0     H20639  10.447   6.761   9.510 -1.6257  1.8122  3.6514
  914MOL0     H20640  10.250   6.571   9.364 -0.3161 -1.4149  0.3469
  914MOL0     H20641  10.419   6.606   9.320  2.0958 -2.3957  1.0129
  914MOL0     H20642  10.371   6.478   9.593 -0.2636  0.1238  0.3349
  914MOL0     H20643  10.510   6.452   9.479  1.0844  2.7256  3.7573
  914MOL0     H20644  10.345   6.327   9.337 -1.8538 -1.0980 -0.4340
  914MOL0     H20645  10.360   6.251   9.489 -0.8678 -1.7039 -0.9167
  914MOL0     H20646   9.965   6.392   9.504  0.6978  2.2313  1.4644
  914MOL0     H20647  10.096   6.811   9.276 -0.1579  3.0831  0.1512
  914MOL0     H20648   9.854   6.758   9.282  1.1028  3.4425 -1.0993
  915MOL0     O20649   5.881   8.776   5.113 -0.0715 -0.2205 -0.2816
  915MOL0     C20650   5.980   8.716   5.080 -1.2479  1.5838 -1.0813
  915MOL0     O20651   5.983   8.588   5.030 -0.2312 -0.2535 -0.7683
  915MOL0     C20652   5.866   8.517   5.036 -0.3920 -0.5391  0.4611
  915MOL0     C20653   5.852   8.425   5.135 -0.3863 -0.5446  0.5771
  915MOL0     C20654   5.748   8.335   5.128 -0.2454  0.0388 -0.1489
  915MOL0     C20655   5.654   8.341   5.029 -0.7666 -0.3775 -1.0371
  915MOL0     O20656   5.547   8.255   5.019 -0.4037 -0.0407 -0.1007
  915MOL0     C20657   5.416   8.326   5.035 -0.0966  0.0556  0.9647
  915MOL0     C20658   5.299   8.232   5.021  1.1230 -0.6723  0.6448
  915MOL0     C20659   5.312   8.148   4.891  0.1651  0.3271 -0.0372
  915MOL0     C20660   5.211   8.038   4.869  0.2734 -0.6081 -0.0231
  915MOL0     C20661   5.062   8.083   4.865 -0.1186 -0.3677  0.2202
  915MOL0     C20662   4.963   7.963   4.842  0.3007 -0.2994  0.6369
  915MOL0     C20663   4.839   8.023   4.788  1.1441 -0.1576  0.2789
  915MOL0     C20664   4.760   7.920   4.702 -0.1878 -0.0728 -0.3081
  915MOL0     N20665   4.628   7.968   4.656  0.5530 -0.4927  0.3358
  915MOL0     C20666   4.532   7.997   4.751  0.2576 -0.1544  0.4472
  915MOL0     C20667   4.440   8.069   4.687  0.0854  0.0229  0.5479
  915MOL0     C20668   4.350   8.162   4.763 -0.2339 -0.2999  0.1244
  915MOL0     C20669   4.206   8.116   4.780  0.7078 -0.4315  0.1044
  915MOL0     C20670   4.119   8.243   4.797  0.2919  0.0117 -0.2424
  915MOL0     C20671   3.966   8.204   4.771  0.5356 -0.5535 -0.0868
  915MOL0     O20672   3.892   8.317   4.801  0.0030  0.5883 -0.2956
  915MOL0     C20673   3.758   8.302   4.807 -0.3060 -0.6838  0.6542
  915MOL0     C20674   3.688   8.189   4.756 -0.2943  1.0547 -0.6704
  915MOL0     C20675   3.550   8.171   4.788  0.9509 -0.1729 -0.1105
  915MOL0     C20676   3.478   8.273   4.837  0.1201 -0.1625  0.0289
  915MOL0     C20677   3.334   8.269   4.852 -0.3756  0.9070  0.2532
  915MOL0     O20678   3.271   8.389   4.880 -0.2405 -0.5143 -0.2638
  915MOL0     C20679   3.141   8.369   4.877  0.3385  0.1249 -0.9984
  915MOL0     C20680   3.068   8.340   4.993 -0.3442  1.0936  0.6757
  915MOL0     C20681   2.926   8.331   4.978 -0.2780  0.2303 -0.5614
  915MOL0     C20682   2.859   8.352   4.854 -0.3868 -0.3072 -0.0962
  915MOL0     O20683   2.727   8.325   4.825  0.6852 -0.1702  0.1742
  915MOL0     C20684   2.655   8.246   4.925 -0.6252  1.1544  0.3344
  915MOL0     C20685   2.506   8.253   4.914 -0.1257 -0.5940 -0.0376
  915MOL0     C20686   2.451   8.389   4.882  0.1166  0.3726 -0.1449
  915MOL0     C20687   2.302   8.370   4.869  0.3535 -0.1939  0.3993
  915MOL0     C20688   2.230   8.498   4.866  0.1731 -0.6510  0.2054
  915MOL0     C20689   2.082   8.462   4.909 -0.3343 -0.2743 -0.2974
  915MOL0     C20690   1.988   8.584   4.914 -1.5163  0.3423  0.2553
  915MOL0     C20691   1.974   8.665   4.787 -0.3696 -0.4356  0.2072
  915MOL0    Cl20692   1.850   8.788   4.820 -0.0494  0.3659 -0.7535
  915MOL0     C20693   2.933   8.401   4.748  0.1888  0.3557  0.1907
  915MOL0     C20694   3.071   8.394   4.758 -0.4947 -0.0064 -0.3060
  915MOL0     O20695   3.278   8.159   4.835 -0.4767 -0.4702  0.8286
  915MOL0     C20696   3.551   8.387   4.884  0.6484 -0.0690 -0.4504
  915MOL0     C20697   3.692   8.397   4.881 -1.0668 -0.7622 -0.2247
  915MOL0     N20698   4.466   8.056   4.547  0.8692  1.0345 -0.0779
  915MOL0     N20699   4.583   7.989   4.526  0.2058  0.5412  0.5102
  915MOL0     C20700   5.668   8.431   4.934 -0.2593  0.6504  0.5269
  915MOL0     C20701   5.777   8.522   4.932  0.0184 -0.2970  0.2301
  915MOL0     C20702   6.114   8.783   5.081 -0.2040 -0.0509  0.6386
  915MOL0     C20703   6.133   8.894   5.153  0.2578 -0.3510  0.9454
  915MOL0     C20704   6.256   8.958   5.153  0.0589  0.1026 -0.0896
  915MOL0     C20705   6.369   8.916   5.087  0.1050  0.2362  0.4173
  915MOL0     O20706   6.491   8.980   5.086  0.4208 -0.0944  0.5326
  915MOL0     C20707   6.610   8.919   5.133 -0.2586 -0.5933  0.4143
  915MOL0     C20708   6.607   8.913   5.287  0.2003 -0.1243  0.9036
  915MOL0     C20709   6.731   8.824   5.321 -0.9639 -0.7072 -1.0173
  915MOL0     C20710   6.831   8.884   5.417  0.2528 -0.4779 -0.2426
  915MOL0     C20711   6.938   8.949   5.351  0.0816  0.2359  0.2948
  915MOL0     C20712   7.022   9.017   5.298  0.9017  1.1507  0.5641
  915MOL0     C20713   6.347   8.809   4.998 -0.2281  0.1411 -0.6483
  915MOL0     C20714   6.226   8.738   5.004  0.3392 -0.0247 -0.0080
  915MOL0     H20715   5.922   8.430   5.218 -0.1620  0.5343  0.3317
  915MOL0     H20716   5.733   8.262   5.207  2.0493  0.3830  0.6878
  915MOL0     H20717   5.402   8.390   4.948  0.0844 -0.2386  0.7199
  915MOL0     H20718   5.401   8.370   5.134  1.6563  1.5253  0.6118
  915MOL0     H20719   5.205   8.289   5.019  2.3996  1.5423  0.1407
  915MOL0     H20720   5.296   8.159   5.102 -2.4395 -1.7435 -0.2505
  915MOL0     H20721   5.407   8.094   4.885  1.2223  2.2382 -2.7808
  915MOL0     H20722   5.323   8.227   4.815  2.6805 -0.5830 -0.7042
  915MOL0     H20723   5.235   7.994   4.772 -1.6886  0.2570 -0.9635
  915MOL0     H20724   5.230   7.958   4.941  1.8714 -1.4758 -1.3460
  915MOL0     H20725   5.052   8.159   4.787  0.0926  0.2395  0.7863
  915MOL0     H20726   5.037   8.117   4.965 -2.3287  0.6558 -0.6165
  915MOL0     H20727   4.953   7.908   4.936  0.7077 -0.4340  0.6028
  915MOL0     H20728   4.989   7.887   4.767  0.2617  0.0793  0.2366
  915MOL0     H20729   4.780   8.054   4.875 -1.1764  0.6065 -1.4629
  915MOL0     H20730   4.856   8.117   4.735 -2.4421  2.5444  3.3440
  915MOL0     H20731   4.745   7.836   4.769  1.4909  0.8500  1.3363
  915MOL0     H20732   4.820   7.888   4.616 -0.1947 -2.7196  0.5795
  915MOL0     H20733   4.544   8.008   4.858 -2.2390  0.7231  0.7052
  915MOL0     H20734   4.356   8.255   4.707  3.2581  0.3804  1.3826
  915MOL0     H20735   4.403   8.182   4.857  0.0217  2.7055 -0.5760
  915MOL0     H20736   4.218   8.048   4.864 -0.2812 -2.5615 -1.3747
  915MOL0     H20737   4.177   8.054   4.694  3.0039 -1.9418  0.3140
  915MOL0     H20738   4.121   8.280   4.899  2.5121 -2.1817  0.6172
  915MOL0     H20739   4.153   8.315   4.722 -0.0692 -2.4515 -2.9657
  915MOL0     H20740   3.937   8.110   4.820  0.7911  0.3313  1.8503
  915MOL0     H20741   3.962   8.183   4.664  1.7455 -0.1147 -0.2394
  915MOL0     H20742   3.735   8.109   4.700 -0.8812 -0.0170  0.3216
  915MOL0     H20743   3.498   8.080   4.764 -0.9415  0.6042  0.8241
  915MOL0     H20744   3.112   8.311   5.088 -1.6427  1.1222  1.3061
  915MOL0     H20745   2.875   8.313   5.072 -1.1581  3.5470 -0.2549
  915MOL0     H20746   2.684   8.274   5.027  4.5797  0.0488 -0.5237
  915MOL0     H20747   2.685   8.141   4.921 -1.7742  0.7921  1.0931
  915MOL0     H20748   2.475   8.221   5.014 -0.7008 -2.4324 -0.7723
  915MOL0     H20749   2.474   8.181   4.838  1.2048 -2.8899  1.4602
  915MOL0     H20750   2.496   8.434   4.793 -1.2760  2.2212  0.0185
  915MOL0     H20751   2.473   8.460   4.962  2.2307 -0.0964 -0.2639
  915MOL0     H20752   2.279   8.314   4.778 -0.9916  2.2004 -0.8233
  915MOL0     H20753   2.262   8.312   4.953  1.2058 -1.1530  0.1638
  915MOL0     H20754   2.234   8.534   4.763  0.5115 -1.5048 -0.0891
  915MOL0     H20755   2.273   8.564   4.941  2.5778 -2.6880  0.7571
  915MOL0     H20756   2.077   8.403   5.001 -0.0293 -3.1884 -2.0329
  915MOL0     H20757   2.044   8.398   4.830 -1.3829  0.0849 -0.0960
  915MOL0     H20758   1.891   8.543   4.945  0.0329 -2.3927  1.9300
  915MOL0     H20759   2.023   8.650   4.994  2.9442 -0.8991 -0.4290
  915MOL0     H20760   1.946   8.593   4.710 -1.1022  0.8628 -0.7795
  915MOL0     H20761   2.073   8.709   4.768  0.0890 -0.4860  2.2442
  915MOL0     H20762   2.877   8.426   4.658  0.1912  0.7483  0.2955
  915MOL0     H20763   3.129   8.418   4.669 -2.2378  0.7316 -1.3069
  915MOL0     H20764   3.493   8.472   4.920 -1.7953 -0.3817 -3.2381
  915MOL0     H20765   3.740   8.482   4.929 -0.8342 -1.0322  0.0240
  915MOL0     H20766   5.599   8.419   4.852  3.1030  0.4845 -2.5333
  915MOL0     H20767   5.782   8.605   4.862  2.6387 -0.2334  0.4230
  915MOL0     H20768   6.063   8.939   5.223 -1.8227 -2.9553  0.7103
  915MOL0     H20769   6.269   9.046   5.216  0.9453  0.1320 -0.3027
  915MOL0     H20770   6.690   8.982   5.092 -1.2708  0.3267 -0.2112
  915MOL0     H20771   6.629   8.819   5.094  4.7489  0.3199 -0.1705
  915MOL0     H20772   6.614   9.014   5.327  2.1893  0.7111 -1.3332
  915MOL0     H20773   6.511   8.865   5.310 -0.0970  1.3804  3.1910
  915MOL0     H20774   6.788   8.798   5.231  0.6541  0.6955 -0.4456
  915MOL0     H20775   6.694   8.730   5.363  1.2529 -2.1624 -2.1274
  915MOL0     H20776   6.787   8.953   5.489 -2.8302 -1.3704 -1.1206
  915MOL0     H20777   6.878   8.802   5.473  2.3183  0.7626 -0.0599
  915MOL0     H20778   7.102   9.087   5.284  0.2264  1.9507  0.6100
  915MOL0     H20779   6.424   8.758   4.941  2.2573  1.2170  1.5353
  915MOL0     H20780   6.200   8.660   4.933 -0.5288 -0.7098  1.0319
  916MOL0     O20781   0.854   4.662   1.931 -0.6170 -0.2968 -0.1151
  916MOL0     C20782   0.801   4.603   2.026 -1.0834 -0.8203 -0.4122
  916MOL0     O20783   0.868   4.542   2.132  0.3900 -0.0290  0.1239
  916MOL0     C20784   0.999   4.543   2.123  0.2923  0.4647  0.3488
  916MOL0     C20785   1.083   4.483   2.030  0.5051  0.6850  1.0082
  916MOL0     C20786   1.221   4.480   2.042  0.2325 -0.2673  0.0102
  916MOL0     C20787   1.283   4.563   2.134 -0.0659  0.2329 -0.4152
  916MOL0     O20788   1.417   4.556   2.143 -0.6737  0.2058 -0.6512
  916MOL0     C20789   1.488   4.634   2.237  0.1053  0.0947 -0.2651
  916MOL0     C20790   1.647   4.603   2.224  0.4874 -0.0693 -0.3044
  916MOL0     C20791   1.709   4.673   2.111  0.1102 -0.6813  0.0776
  916MOL0     C20792   1.825   4.601   2.049  1.2926 -1.0506 -0.3304
  916MOL0     C20793   1.864   4.667   1.918  0.5357  0.1122  0.3932
  916MOL0     C20794   1.936   4.799   1.938 -0.9584 -0.2294  0.7878
  916MOL0     C20795   2.072   4.796   2.000  0.6917  0.4503  0.2714
  916MOL0     C20796   2.194   4.812   1.909 -0.1924 -0.5176 -0.5010
  916MOL0     N20797   2.313   4.819   1.989 -0.9232  0.4870 -0.5969
  916MOL0     C20798   2.393   4.926   2.018 -0.0040 -0.4384  0.4333
  916MOL0     C20799   2.504   4.869   2.070  0.4078  0.0396 -0.1413
  916MOL0     C20800   2.619   4.955   2.100  0.3295  0.4728 -0.0812
  916MOL0     C20801   2.757   4.914   2.048  0.1289 -0.6932 -0.1430
  916MOL0     C20802   2.757   4.878   1.898 -1.8297 -0.1365 -0.0293
  916MOL0     C20803   2.695   4.998   1.821 -0.8341  0.0152  0.2019
  916MOL0     O20804   2.706   4.968   1.681 -0.3243 -0.1448 -0.6232
  916MOL0     C20805   2.591   4.931   1.603 -0.4310 -0.0444 -0.1004
  916MOL0     C20806   2.475   4.886   1.664  0.2626  0.5618 -0.0492
  916MOL0     C20807   2.353   4.858   1.584  0.0320  0.6409 -0.2910
  916MOL0     C20808   2.364   4.854   1.443 -0.2353  1.3192 -0.1908
  916MOL0     C20809   2.254   4.811   1.362 -0.2435  0.0445  0.3302
  916MOL0     O20810   2.148   4.765   1.428 -0.2895  0.4762 -0.1184
  916MOL0     C20811   2.039   4.715   1.368 -0.4331  0.8693 -0.5875
  916MOL0     C20812   1.964   4.631   1.454  0.0077  0.3006 -0.2244
  916MOL0     C20813   1.837   4.581   1.409 -0.2442  0.3218  0.3603
  916MOL0     C20814   1.798   4.612   1.284  0.3790 -0.3970  1.3965
  916MOL0     O20815   1.673   4.597   1.228  1.0554 -0.7916 -0.4607
  916MOL0     C20816   1.573   4.560   1.332 -1.0851 -0.2335  0.9308
  916MOL0     C20817   1.441   4.568   1.255 -0.3074  0.6959  0.6791
  916MOL0     C20818   1.325   4.531   1.348 -0.2514 -0.6803 -0.5141
  916MOL0     C20819   1.188   4.538   1.282 -0.5401 -0.2765  0.8222
  916MOL0     C20820   1.072   4.513   1.391 -0.5043 -0.4262 -1.0560
  916MOL0     C20821   0.924   4.527   1.331 -0.3343  1.0493 -0.7324
  916MOL0     C20822   0.887   4.400   1.254 -0.4163 -0.1107  0.3491
  916MOL0     C20823   0.739   4.384   1.244  0.9505  0.1911 -0.2736
  916MOL0    Cl20824   0.642   4.397   1.392 -0.6747  0.4624  0.1168
  916MOL0     C20825   1.878   4.688   1.195  0.8981 -0.1582 -0.6247
  916MOL0     C20826   2.003   4.732   1.236 -0.3589  0.2754 -0.2927
  916MOL0     O20827   2.276   4.795   1.242  0.6330 -0.4418  0.2602
  916MOL0     C20828   2.488   4.893   1.385  0.0109 -0.1690  0.4984
  916MOL0     C20829   2.599   4.931   1.461  0.3412 -0.1457 -0.2547
  916MOL0     N20830   2.504   4.733   2.071  0.2959 -0.4511  0.3930
  916MOL0     N20831   2.386   4.702   2.019  0.3982  0.2173  0.5405
  916MOL0     C20832   1.206   4.641   2.217  0.5541  0.1354 -0.3087
  916MOL0     C20833   1.059   4.627   2.217 -0.8094  0.1021 -0.5696
  916MOL0     C20834   0.654   4.606   2.044 -0.4961 -0.3070 -0.5596
  916MOL0     C20835   0.594   4.543   2.153 -0.5415 -1.1205  0.6147
  916MOL0     C20836   0.463   4.564   2.173 -0.1016  0.1838  0.1915
  916MOL0     C20837   0.382   4.631   2.082  0.8191  0.3078 -1.1537
  916MOL0     O20838   0.239   4.645   2.086  0.6700  0.1910  0.2685
  916MOL0     C20839   0.171   4.593   2.203  0.1255  0.0852  0.3971
  916MOL0     C20840   0.019   4.603   2.189 -0.2994  0.4171 -0.1043
  916MOL0     C20841  -0.066   4.555   2.303 -1.1239  0.3089  0.4165
  916MOL0     C20842  -0.216   4.553   2.268 -0.3101 -0.1687 -0.8367
  916MOL0     C20843  -0.295   4.565   2.398 -0.3585 -0.5833 -0.3177
  916MOL0     C20844  -0.367   4.571   2.501 -0.0049 -0.2126 -0.0002
  916MOL0     C20845   0.437   4.677   1.959  0.1558 -0.0914  0.0933
  916MOL0     C20846   0.577   4.674   1.946 -0.6375  0.2085 -0.9727
  916MOL0     H20847   1.034   4.429   1.950  2.4450  1.4004 -0.7437
  916MOL0     H20848   1.275   4.433   1.961 -0.8396  1.8227 -2.0244
  916MOL0     H20849   1.448   4.614   2.336 -0.0542 -1.0475 -0.5364
  916MOL0     H20850   1.475   4.737   2.204  1.3622  0.5722  0.6442
  916MOL0     H20851   1.638   4.497   2.198 -2.0424  0.1990 -0.8209
  916MOL0     H20852   1.697   4.621   2.320 -0.2941 -0.4040  0.1720
  916MOL0     H20853   1.746   4.770   2.148  4.2062 -2.3237  0.8606
  916MOL0     H20854   1.634   4.686   2.033  0.6945  3.9077  0.0066
  916MOL0     H20855   1.909   4.606   2.120  1.5950 -2.2716 -0.5710
  916MOL0     H20856   1.793   4.498   2.028  1.4783 -1.3380  0.7056
  916MOL0     H20857   1.778   4.676   1.852  2.0884 -1.9230 -2.1556
  916MOL0     H20858   1.943   4.605   1.874  2.2600  2.4268  0.0630
  916MOL0     H20859   1.869   4.860   1.999 -1.0044 -1.9196  2.5209
  916MOL0     H20860   1.953   4.850   1.842 -0.4005 -1.7423  0.0570
  916MOL0     H20861   2.076   4.887   2.061  0.5663  1.5575 -1.3009
  916MOL0     H20862   2.088   4.709   2.064 -1.3824 -0.1549  0.0438
  916MOL0     H20863   2.179   4.898   1.843 -0.9405 -0.8091 -0.7289
  916MOL0     H20864   2.191   4.724   1.844 -1.8907 -1.3935  0.6634
  916MOL0     H20865   2.364   5.030   2.009 -3.1646 -1.1504  1.2118
  916MOL0     H20866   2.621   4.959   2.210  0.3751  0.2515 -0.0733
  916MOL0     H20867   2.613   5.063   2.080  1.6747  1.0206  2.0410
  916MOL0     H20868   2.786   4.823   2.100 -0.0428 -1.2440 -0.9952
  916MOL0     H20869   2.824   4.999   2.068 -1.5680  0.6835 -0.0388
  916MOL0     H20870   2.858   4.858   1.864 -0.8672 -1.7250  3.3435
  916MOL0     H20871   2.707   4.784   1.876  0.9887 -1.3101 -1.9404
  916MOL0     H20872   2.769   5.074   1.845  0.5416 -1.3999  0.5756
  916MOL0     H20873   2.592   5.029   1.844 -1.4983 -2.2614  0.5645
  916MOL0     H20874   2.470   4.874   1.772 -2.5814  3.9571  0.3620
  916MOL0     H20875   2.269   4.814   1.638  1.3109  1.0857  2.2261
  916MOL0     H20876   1.994   4.609   1.556 -0.6347 -0.6434 -0.2169
  916MOL0     H20877   1.784   4.518   1.478  2.3418 -0.4679  1.7440
  916MOL0     H20878   1.576   4.622   1.422 -0.8402  0.7876  0.2431
  916MOL0     H20879   1.606   4.462   1.366 -2.6299 -0.4455  1.9194
  916MOL0     H20880   1.444   4.490   1.178  2.7367 -0.7433  2.0864
  916MOL0     H20881   1.428   4.665   1.207  1.7292  0.7303  0.0962
  916MOL0     H20882   1.313   4.602   1.430 -2.8026  1.2463 -2.3966
  916MOL0     H20883   1.348   4.432   1.389 -0.2843 -0.0077  1.2009
  916MOL0     H20884   1.171   4.625   1.218  1.7591 -0.0944  0.3825
  916MOL0     H20885   1.185   4.448   1.219 -0.2173 -2.7438  4.0792
  916MOL0     H20886   1.091   4.588   1.468 -0.8443  0.7599 -2.0880
  916MOL0     H20887   1.084   4.415   1.438  2.3207  0.2289 -0.2168
  916MOL0     H20888   0.905   4.611   1.265  0.1630  1.4510 -0.3710
  916MOL0     H20889   0.859   4.545   1.418  2.1710 -2.9051  2.3313
  916MOL0     H20890   0.927   4.394   1.152 -0.3848 -0.1853  0.3660
  916MOL0     H20891   0.924   4.317   1.314  0.2262  0.4559  0.7466
  916MOL0     H20892   0.724   4.279   1.218 -0.7158  0.4289 -0.3960
  916MOL0     H20893   0.687   4.445   1.169  0.9109 -1.4729 -1.6424
  916MOL0     H20894   1.835   4.725   1.103 -0.6650  1.5340  0.7082
  916MOL0     H20895   2.054   4.790   1.159 -2.6732 -1.2165 -3.1287
  916MOL0     H20896   2.505   4.881   1.279  0.1511 -1.4334  0.6442
  916MOL0     H20897   2.697   4.940   1.415  1.4043 -1.7533  1.5022
  916MOL0     H20898   1.252   4.694   2.299  0.9209 -0.2220 -0.2820
  916MOL0     H20899   0.990   4.681   2.281  1.6630 -0.4217  2.8679
  916MOL0     H20900   0.655   4.487   2.224  0.2262 -1.8937 -0.6273
  916MOL0     H20901   0.422   4.533   2.269 -2.5158 -0.5386 -0.9937
  916MOL0     H20902   0.187   4.665   2.284 -0.5942 -0.5356  1.0980
  916MOL0     H20903   0.200   4.499   2.250 -0.4120  0.1281  0.8207
  916MOL0     H20904  -0.008   4.708   2.170  0.0148  0.5758  0.3202
  916MOL0     H20905   0.005   4.555   2.091  3.1149 -0.6985 -0.1875
  916MOL0     H20906  -0.037   4.608   2.395  0.4284 -0.1703  0.2402
  916MOL0     H20907  -0.028   4.453   2.315  1.8241  1.4184  1.5512
  916MOL0     H20908  -0.245   4.644   2.214 -0.1184  0.0001 -0.6574
  916MOL0     H20909  -0.234   4.464   2.208  0.5166  0.4185 -2.0022
  916MOL0     H20910  -0.440   4.553   2.577 -1.8197  2.0497 -1.1159
  916MOL0     H20911   0.365   4.710   1.884 -1.1933 -0.5444  1.1621
  916MOL0     H20912   0.632   4.719   1.864  0.3506 -2.1287 -1.6565
  917MOL0     O20913   6.942  10.904  10.324  0.1601 -0.1444 -0.2518
  917MOL0     C20914   7.016  10.827  10.385  0.3934  0.6833  0.2450
  917MOL0     O20915   6.979  10.742  10.489 -0.0821 -0.0301  0.1452
  917MOL0     C20916   6.849  10.701  10.486 -1.1792 -1.3353  0.8924
  917MOL0     C20917   6.785  10.725  10.604 -0.3716  0.3248 -0.0076
  917MOL0     C20918   6.653  10.679  10.628  0.1067  0.1643 -0.0174
  917MOL0     C20919   6.591  10.608  10.529 -0.2890  1.3999  0.0353
  917MOL0     O20920   6.461  10.554  10.533  0.7415  0.1753 -0.1718
  917MOL0     C20921   6.366  10.610  10.621 -0.1379 -0.1647  0.0508
  917MOL0     C20922   6.224  10.563  10.586  0.4751 -0.1659 -0.7064
  917MOL0     C20923   6.210  10.418  10.638 -0.8537  0.3965  0.3805
  917MOL0     C20924   6.085  10.343  10.600 -0.2343 -0.0436  0.4808
  917MOL0     C20925   5.960  10.423  10.631 -0.1635 -1.5805 -0.3436
  917MOL0     C20926   5.845  10.325  10.615 -0.3043 -0.6002  0.5550
  917MOL0     C20927   5.723  10.417  10.602  1.1108 -0.5583 -0.3131
  917MOL0     C20928   5.603  10.353  10.543  0.0692 -0.1284  0.1508
  917MOL0     N20929   5.547  10.250  10.636  0.6784  0.3416 -0.5663
  917MOL0     C20930   5.568  10.111  10.628 -0.9407 -0.2324  0.5800
  917MOL0     C20931   5.473  10.063  10.709 -0.2172 -0.4001 -0.2965
  917MOL0     C20932   5.444   9.921  10.731 -0.1196 -0.1428  1.6980
  917MOL0     C20933   5.354   9.864  10.613  0.4270 -0.3071 -0.2805
  917MOL0     C20934   5.405   9.893  10.475  0.2115  0.9347  0.7741
  917MOL0     C20935   5.326   9.801  10.376 -0.1282  0.5776  0.9362
  917MOL0     O20936   5.192   9.815  10.397  1.0739 -0.1565 -0.5108
  917MOL0     C20937   5.097   9.736  10.340  0.0199 -0.4907 -0.9145
  917MOL0     C20938   4.970   9.722  10.399 -1.5064 -0.3988 -0.5401
  917MOL0     C20939   4.880   9.633  10.349  0.3426 -0.4024  0.2872
  917MOL0     C20940   4.905   9.571  10.220  0.5546  1.0897 -0.7926
  917MOL0     C20941   4.797   9.490  10.155  0.1534 -0.0521 -0.3736
  917MOL0     O20942   4.694   9.465  10.235  0.2698  0.2438 -0.6441
  917MOL0     C20943   4.598   9.375  10.193 -0.1666 -0.2311 -0.1285
  917MOL0     C20944   4.467   9.419  10.212  0.2137  0.4053  0.1458
  917MOL0     C20945   4.359   9.340  10.178  0.1402  0.1033 -0.4214
  917MOL0     C20946   4.381   9.210  10.139 -0.1526  0.6808  0.1110
  917MOL0     O20947   4.286   9.112  10.117  0.1462 -0.3245  0.1327
  917MOL0     C20948   4.150   9.153  10.118  0.1048 -0.5601  0.1223
  917MOL0     C20949   4.068   9.016  10.114 -0.1997 -0.6347 -0.0227
  917MOL0     C20950   3.915   9.019  10.127  0.5517 -0.0781 -0.8084
  917MOL0     C20951   3.848   8.881  10.116 -0.0786 -0.5160 -0.5008
  917MOL0     C20952   3.698   8.908  10.110 -0.0876 -0.0571 -0.4879
  917MOL0     C20953   3.609   8.791  10.074  0.1823  0.3327  0.9070
  917MOL0     C20954   3.615   8.673  10.166 -0.1194  0.5222 -0.2875
  917MOL0     C20955   3.559   8.541  10.104  0.8029  0.0104 -0.3152
  917MOL0    Cl20956   3.410   8.576  10.008 -0.1768  0.1955 -0.2311
  917MOL0     C20957   4.512   9.161  10.122 -0.0343 -0.2428  0.6660
  917MOL0     C20958   4.619   9.243  10.139  0.1531  0.0990 -0.3831
  917MOL0     O20959   4.810   9.438  10.042 -0.6342  0.4750  0.0734
  917MOL0     C20960   5.028   9.591  10.164 -0.2004  0.1983 -0.2574
  917MOL0     C20961   5.120   9.665  10.219  1.1392  0.5951 -0.5862
  917MOL0     N20962   5.419  10.165  10.787 -0.0443 -0.0278  0.2274
  917MOL0     N20963   5.462  10.275  10.741 -0.0944 -1.1093 -0.9113
  917MOL0     C20964   6.652  10.585  10.405  0.3595  1.0184  0.5856
  917MOL0     C20965   6.781  10.639  10.382 -0.2983 -0.1326 -0.5811
  917MOL0     C20966   7.162  10.838  10.364 -0.8040  1.4055 -0.4237
  917MOL0     C20967   7.226  10.924  10.272  0.2521  0.4195 -0.1332
  917MOL0     C20968   7.366  10.924  10.261  0.3968 -1.4136  0.0730
  917MOL0     C20969   7.449  10.847  10.340  0.1081 -0.5103 -0.3856
  917MOL0     O20970   7.588  10.832  10.335  0.3099 -0.3898  0.4124
  917MOL0     C20971   7.663  10.903  10.242 -0.3262  0.4513  0.6566
  917MOL0     C20972   7.667  11.049  10.283  0.1240  0.0742  0.2888
  917MOL0     C20973   7.766  11.059  10.398  1.0869 -0.3930 -0.5491
  917MOL0     C20974   7.798  11.203  10.434 -0.6575  0.1720  1.2581
  917MOL0     C20975   7.889  11.252  10.330  0.8985 -1.1560 -0.3203
  917MOL0     C20976   7.959  11.255  10.236 -0.1664  0.1910  0.5852
  917MOL0     C20977   7.390  10.764  10.433  0.0912 -0.8174 -0.1754
  917MOL0     C20978   7.249  10.767  10.445 -0.3825 -0.3225  0.3357
  917MOL0     H20979   6.837  10.778  10.683  0.5012 -0.4150 -0.0661
  917MOL0     H20980   6.599  10.697  10.721 -0.3366 -1.1958  0.0084
  917MOL0     H20981   6.367  10.719  10.632  0.3819  0.0744 -1.9074
  917MOL0     H20982   6.386  10.563  10.717 -0.4659 -3.5439 -1.3721
  917MOL0     H20983   6.211  10.558  10.478  2.3099 -1.0046 -0.9416
  917MOL0     H20984   6.138  10.618  10.624  0.9252  0.8803 -1.1669
  917MOL0     H20985   6.211  10.421  10.747  3.8659 -2.3038  0.6985
  917MOL0     H20986   6.291  10.354  10.601 -1.0391  0.7027 -0.5939
  917MOL0     H20987   6.090  10.302  10.498  1.0786 -1.2712  0.9995
  917MOL0     H20988   6.095  10.256  10.666  1.6752 -0.5271 -0.3687
  917MOL0     H20989   5.965  10.507  10.562 -0.1016 -1.3307 -0.0362
  917MOL0     H20990   5.952  10.461  10.733 -0.5241 -0.8996 -0.6194
  917MOL0     H20991   5.835  10.256  10.700 -0.8882 -1.4436 -0.1792
  917MOL0     H20992   5.852  10.257  10.530 -0.2945 -0.2401  0.2698
  917MOL0     H20993   5.695  10.439  10.705 -0.7070 -0.7689 -0.7371
  917MOL0     H20994   5.742  10.505  10.540  3.4456 -1.9679 -1.7712
  917MOL0     H20995   5.637  10.306  10.450  1.1594 -1.5565  1.2358
  917MOL0     H20996   5.519  10.423  10.537  1.2481  1.5115  1.6236
  917MOL0     H20997   5.631  10.059  10.556 -1.0723  1.5024 -0.8427
  917MOL0     H20998   5.390   9.912  10.826  0.4923  0.2461  2.0875
  917MOL0     H20999   5.536   9.862  10.728 -1.1076 -1.7347  1.3244
  917MOL0     H21000   5.252   9.900  10.633 -0.1648 -1.9140 -0.2434
  917MOL0     H21001   5.350   9.755  10.627 -1.2724  0.0507  2.9338
  917MOL0     H21002   5.397   9.999  10.447  1.7697  0.5285 -1.4228
  917MOL0     H21003   5.511   9.875  10.460 -0.0105 -1.5968  1.8570
  917MOL0     H21004   5.362   9.698  10.373 -0.4939  0.4663  0.0539
  917MOL0     H21005   5.352   9.837  10.276 -1.0160  0.9022  0.8214
  917MOL0     H21006   4.948   9.782  10.486  4.9573  2.9995 -0.6670
  917MOL0     H21007   4.788   9.614  10.404  1.2887 -1.8023  1.4536
  917MOL0     H21008   4.441   9.508  10.269 -2.5932 -1.5052  2.1366
  917MOL0     H21009   4.265   9.393  10.189  1.0121  1.2987  1.8712
  917MOL0     H21010   4.116   9.216  10.035 -0.6053 -0.8182  0.2067
  917MOL0     H21011   4.122   9.213  10.205  0.2449 -1.3711  0.7392
  917MOL0     H21012   4.110   8.947  10.186  3.7687  0.1385 -1.3554
  917MOL0     H21013   4.084   8.960  10.022  0.9958 -0.5635  0.1269
  917MOL0     H21014   3.883   9.087  10.047 -1.2833  2.6592  2.0277
  917MOL0     H21015   3.885   9.060  10.224  4.1468 -2.8413  1.7655
  917MOL0     H21016   3.882   8.831  10.025 -0.0388  0.8084 -1.2283
  917MOL0     H21017   3.872   8.826  10.208 -0.4959  0.9237  0.5141
  917MOL0     H21018   3.696   8.984  10.031  1.4485 -1.1602 -1.6427
  917MOL0     H21019   3.660   8.954  10.202 -2.4428 -2.1751 -0.2628
  917MOL0     H21020   3.646   8.761   9.976  1.0332 -2.2878  1.9568
  917MOL0     H21021   3.507   8.829  10.064  0.0612 -0.2327 -0.1058
  917MOL0     H21022   3.711   8.655  10.214  0.2929  1.7188 -0.6419
  917MOL0     H21023   3.553   8.688  10.256  2.4123 -0.9829  1.8508
  917MOL0     H21024   3.526   8.475  10.185  1.7643 -0.9887 -0.7267
  917MOL0     H21025   3.637   8.496  10.043  1.6335  2.1798 -0.9614
  917MOL0     H21026   4.531   9.059  10.090  1.0268  0.2083 -0.2092
  917MOL0     H21027   4.718   9.201  10.120 -1.8157 -5.0071 -0.8595
  917MOL0     H21028   5.049   9.546  10.067  0.2126  2.0892 -1.0984
  917MOL0     H21029   5.215   9.663  10.166  1.2433 -0.8414 -0.3788
  917MOL0     H21030   6.599  10.530  10.328  1.1219  0.1703  0.6488
  917MOL0     H21031   6.838  10.617  10.292  1.0951  0.2295  0.1985
  917MOL0     H21032   7.158  10.981  10.209 -1.6188  0.2560  1.6059
  917MOL0     H21033   7.416  10.996  10.197  0.6323  0.8721  2.6499
  917MOL0     H21034   7.625  10.898  10.139  0.7495  2.1142  0.1387
  917MOL0     H21035   7.759  10.856  10.220 -0.5954  0.9435 -1.9510
  917MOL0     H21036   7.696  11.107  10.195  0.4474 -0.5397 -0.0119
  917MOL0     H21037   7.567  11.081  10.315 -0.7504  0.7363 -2.7738
  917MOL0     H21038   7.858  11.011  10.364  2.8251 -1.1712  4.3612
  917MOL0     H21039   7.716  11.007  10.481  0.8131  1.7957  0.7646
  917MOL0     H21040   7.703  11.257  10.443 -1.8168 -1.2640 -1.2677
  917MOL0     H21041   7.854  11.216  10.526 -0.3403  2.1272  0.8346
  917MOL0     H21042   8.029  11.259  10.155 -1.5713 -0.9381 -0.7420
  917MOL0     H21043   7.451  10.693  10.488 -1.6946 -2.7863 -0.6082
  917MOL0     H21044   7.210  10.695  10.516  1.4131 -2.5386 -0.7656
  918MOL0     O21045   2.627   0.647   8.722  0.0891  0.0949  0.0669
  918MOL0     C21046   2.638   0.648   8.603 -0.0335  0.4396  0.3883
  918MOL0     O21047   2.562   0.568   8.514 -0.7238 -0.1831 -0.1534
  918MOL0     C21048   2.466   0.478   8.557  0.2360 -0.0248 -0.2054
  918MOL0     C21049   2.408   0.398   8.450  0.2603 -0.3548 -0.2718
  918MOL0     C21050   2.301   0.308   8.472  0.5145 -0.2413 -0.2040
  918MOL0     C21051   2.267   0.280   8.603  0.3350  0.3368  0.5107
  918MOL0     O21052   2.163   0.194   8.627  0.0601 -0.2268  0.2993
  918MOL0     C21053   2.034   0.272   8.638 -0.5935  0.7481  0.0341
  918MOL0     C21054   1.915   0.192   8.605 -0.1019 -0.1007  0.5600
  918MOL0     C21055   1.877   0.076   8.698 -0.0372  0.0679  0.1898
  918MOL0     C21056   1.751   0.014   8.641 -0.4603  0.0402 -0.6274
  918MOL0     C21057   1.689  -0.077   8.753 -0.3816 -0.0032 -0.5797
  918MOL0     C21058   1.548  -0.130   8.729  0.2319 -1.1491  0.3270
  918MOL0     C21059   1.535  -0.212   8.603  0.5992 -0.1045  0.5045
  918MOL0     C21060   1.589  -0.356   8.597  0.6291  0.6096 -0.5069
  918MOL0     N21061   1.535  -0.425   8.478 -0.0375 -1.5180 -0.2912
  918MOL0     C21062   1.576  -0.401   8.343 -0.0416  0.5138 -0.5900
  918MOL0     C21063   1.475  -0.452   8.265  0.3724 -0.1107 -0.2073
  918MOL0     C21064   1.495  -0.461   8.115 -0.1138 -0.3790  0.4975
  918MOL0     C21065   1.370  -0.434   8.027  0.1551 -0.4441  0.7129
  918MOL0     C21066   1.313  -0.290   8.053  0.0838 -0.2826 -0.2231
  918MOL0     C21067   1.407  -0.175   8.039 -0.0010 -0.1837  0.3839
  918MOL0     O21068   1.477  -0.179   7.916  0.2773  0.0551  0.2020
  918MOL0     C21069   1.559  -0.069   7.885  0.2380  0.2667  1.0049
  918MOL0     C21070   1.632  -0.080   7.763  0.4253 -1.3416 -0.0083
  918MOL0     C21071   1.698   0.034   7.717 -0.1036 -0.1623 -0.2563
  918MOL0     C21072   1.710   0.149   7.793  0.3213 -0.1129 -0.1251
  918MOL0     C21073   1.796   0.263   7.744 -0.0388  0.1061  0.6207
  918MOL0     O21074   1.890   0.228   7.642  0.0169  0.1214 -0.1527
  918MOL0     C21075   1.953   0.318   7.562 -0.8195  0.1222  0.5730
  918MOL0     C21076   2.060   0.252   7.495 -0.1404  0.7119 -0.1973
  918MOL0     C21077   2.145   0.324   7.413  0.3052 -0.6679 -0.2728
  918MOL0     C21078   2.117   0.453   7.376 -0.1365  0.1534  0.0251
  918MOL0     O21079   2.184   0.519   7.281  0.7092  0.0562  0.4462
  918MOL0     C21080   2.259   0.454   7.175  0.2817  0.4399  0.5483
  918MOL0     C21081   2.301   0.544   7.067 -0.3537 -0.6348  0.0129
  918MOL0     C21082   2.443   0.598   7.112  0.1868  0.1734  0.3898
  918MOL0     C21083   2.518   0.701   7.030 -0.9225 -0.9218  0.0691
  918MOL0     C21084   2.672   0.662   7.018  0.3164 -0.3130  0.2014
  918MOL0     C21085   2.748   0.682   7.155 -0.0272  0.5845 -0.3247
  918MOL0     C21086   2.902   0.694   7.133  0.0936  0.5951 -0.8268
  918MOL0     C21087   2.968   0.721   7.264 -0.2633 -0.9544 -0.4902
  918MOL0    Cl21088   3.157   0.698   7.251 -0.1680  0.7246 -0.0322
  918MOL0     C21089   2.016   0.520   7.446  0.7282  0.1712  0.0443
  918MOL0     C21090   1.943   0.448   7.540  0.5520 -0.2606  0.2434
  918MOL0     O21091   1.783   0.376   7.784  0.1312 -0.2722 -0.4044
  918MOL0     C21092   1.647   0.154   7.916  0.0270  0.2950  0.2793
  918MOL0     C21093   1.569   0.045   7.962  0.0552  0.2386 -0.1215
  918MOL0     N21094   1.387  -0.518   8.353 -0.1547  0.1209  0.0548
  918MOL0     N21095   1.424  -0.497   8.476 -0.0345  0.1098  0.3369
  918MOL0     C21096   2.336   0.342   8.707 -0.2225  0.4069 -0.2048
  918MOL0     C21097   2.432   0.432   8.681  0.1998 -0.4081  0.2111
  918MOL0     C21098   2.737   0.741   8.543  0.4558  0.1530 -0.2285
  918MOL0     C21099   2.842   0.789   8.623 -0.8275  1.3334 -1.2883
  918MOL0     C21100   2.936   0.882   8.565  0.1460 -0.0590  0.1098
  918MOL0     C21101   2.928   0.920   8.435 -0.1474  0.4461  0.5068
  918MOL0     O21102   3.018   1.014   8.400  0.4319 -0.3552  0.0128
  918MOL0     C21103   3.034   1.038   8.262  0.2238 -0.2214  0.6243
  918MOL0     C21104   3.081   0.923   8.178 -0.3414  0.1666  0.6998
  918MOL0     C21105   3.134   0.984   8.050 -0.0919  0.4879  0.4309
  918MOL0     C21106   3.183   0.879   7.948  0.0161 -0.5644 -1.1310
  918MOL0     C21107   3.316   0.832   7.966 -0.2834 -0.5477  0.1660
  918MOL0     C21108   3.427   0.800   7.998 -0.1876  0.7281 -1.4794
  918MOL0     C21109   2.824   0.870   8.354  0.4919 -0.4796 -0.0245
  918MOL0     C21110   2.735   0.775   8.404  0.9152  0.7371 -0.0710
  918MOL0     H21111   2.440   0.417   8.349  1.7029 -3.8777 -0.6103
  918MOL0     H21112   2.259   0.244   8.395 -0.7767  0.7601 -0.3670
  918MOL0     H21113   2.037   0.355   8.566 -0.1325  0.5136 -0.2244
  918MOL0     H21114   2.015   0.304   8.740 -1.9657  0.2061 -0.0273
  918MOL0     H21115   1.927   0.158   8.502 -0.9999  2.0282 -0.3120
  918MOL0     H21116   1.839   0.270   8.600 -0.6465 -0.6869 -0.9527
  918MOL0     H21117   1.858   0.112   8.800 -2.6608  0.8146 -0.5000
  918MOL0     H21118   1.953  -0.001   8.709 -1.0663 -0.7835  1.6713
  918MOL0     H21119   1.677   0.089   8.613  1.0274  1.3677 -1.1437
  918MOL0     H21120   1.767  -0.044   8.550 -1.0510 -1.1691  0.0202
  918MOL0     H21121   1.695  -0.019   8.845  1.6452 -0.9913 -0.0478
  918MOL0     H21122   1.757  -0.157   8.782  1.2668  2.4031  2.7866
  918MOL0     H21123   1.483  -0.043   8.723 -1.0096 -1.6869  3.7134
  918MOL0     H21124   1.508  -0.198   8.806 -1.7231 -2.7745 -1.9807
  918MOL0     H21125   1.427  -0.227   8.589  1.1997 -2.2473 -3.0458
  918MOL0     H21126   1.572  -0.163   8.513 -1.3086  0.2427 -0.1309
  918MOL0     H21127   1.561  -0.412   8.686  2.6339  3.5467  2.2007
  918MOL0     H21128   1.698  -0.351   8.592  0.5716  1.6433 -1.1234
  918MOL0     H21129   1.672  -0.354   8.325 -0.9266  2.8042  0.3577
  918MOL0     H21130   1.535  -0.561   8.101  2.7452 -0.4059  6.0748
  918MOL0     H21131   1.571  -0.392   8.078  0.8398 -1.4095  0.4882
  918MOL0     H21132   1.296  -0.514   8.034 -1.2410  0.6651 -0.6865
  918MOL0     H21133   1.399  -0.449   7.923 -1.1250  1.3376  0.0406
  918MOL0     H21134   1.235  -0.274   7.979  1.2033  0.4328 -1.2937
  918MOL0     H21135   1.263  -0.288   8.151  1.9517 -2.7152  0.8950
  918MOL0     H21136   1.484  -0.170   8.117 -0.4039  0.7440  0.7268
  918MOL0     H21137   1.345  -0.086   8.026  1.8561  0.9779 -1.3046
  918MOL0     H21138   1.611  -0.164   7.698  1.0670 -0.4409 -1.4387
  918MOL0     H21139   1.762   0.023   7.629  2.5873 -2.2168  1.7627
  918MOL0     H21140   2.070   0.144   7.499 -1.3129  0.4523 -2.5359
  918MOL0     H21141   2.222   0.268   7.361  1.5001  0.3198  0.3765
  918MOL0     H21142   2.199   0.377   7.125  2.4193 -0.0061 -1.5248
  918MOL0     H21143   2.353   0.407   7.208  1.7074  1.3697 -1.9433
  918MOL0     H21144   2.237   0.631   7.053  1.3236  0.6003 -0.3277
  918MOL0     H21145   2.310   0.490   6.972 -1.3692  2.2211 -1.8326
  918MOL0     H21146   2.507   0.509   7.112 -1.8490 -1.3914 -1.1375
  918MOL0     H21147   2.442   0.628   7.217  1.5538  1.7236  0.0021
  918MOL0     H21148   2.484   0.718   6.928 -0.0936 -0.7080 -0.1780
  918MOL0     H21149   2.497   0.799   7.075  2.2929 -0.0727  0.0202
  918MOL0     H21150   2.724   0.728   6.947 -2.2658  1.1450 -0.4372
  918MOL0     H21151   2.674   0.561   6.976 -1.8567  0.7101 -2.6549
  918MOL0     H21152   2.721   0.599   7.221 -0.5791  1.5217  0.6705
  918MOL0     H21153   2.719   0.777   7.201  0.6571  0.0893  1.2190
  918MOL0     H21154   2.944   0.606   7.085  1.0139 -1.1201  2.7702
  918MOL0     H21155   2.921   0.782   7.070  0.4374 -0.0708 -1.6616
  918MOL0     H21156   2.936   0.656   7.346 -0.9310 -0.2892 -0.2096
  918MOL0     H21157   2.941   0.820   7.302  2.2687 -0.0525 -0.8218
  918MOL0     H21158   2.003   0.627   7.430 -1.7946 -0.1060 -0.1729
  918MOL0     H21159   1.866   0.501   7.596  2.6104  1.6224  1.4615
  918MOL0     H21160   1.650   0.239   7.983 -0.4389 -1.2364  2.3415
  918MOL0     H21161   1.531   0.064   8.062  4.6551 -1.1245  2.1423
  918MOL0     H21162   2.327   0.306   8.808  2.6589 -2.3542 -0.7660
  918MOL0     H21163   2.493   0.463   8.765  0.9066  0.1239 -0.4902
  918MOL0     H21164   2.837   0.759   8.727  0.5187  0.7419 -1.3772
  918MOL0     H21165   3.010   0.934   8.625 -0.4433  2.5425 -1.2572
  918MOL0     H21166   3.115   1.112   8.263 -0.2373  0.3018  0.1872
  918MOL0     H21167   2.940   1.077   8.224  0.7506  1.4020  0.8843
  918MOL0     H21168   3.162   0.867   8.226  1.0008  0.2021 -1.3474
  918MOL0     H21169   3.001   0.852   8.155 -0.7436  1.4746 -2.4223
  918MOL0     H21170   3.219   1.048   8.078  0.3708  1.0300 -1.9788
  918MOL0     H21171   3.064   1.046   7.992  1.1824 -0.7797 -2.6970
  918MOL0     H21172   3.117   0.792   7.950  0.2699 -0.7483 -0.5962
  918MOL0     H21173   3.163   0.920   7.849  2.1218  0.3314 -1.2317
  918MOL0     H21174   3.522   0.776   8.042 -0.9744  3.4449  2.1980
  918MOL0     H21175   2.803   0.898   8.251 -0.6274 -2.0225 -0.2514
  918MOL0     H21176   2.657   0.728   8.345 -1.3759  2.0087  1.7664
  919MOL0     O21177  10.174   0.875   8.344 -0.1521  0.6418  0.3539
  919MOL0     C21178  10.232   0.791   8.411 -0.2281  1.1518  0.0315
  919MOL0     O21179  10.178   0.667   8.446 -0.3694 -0.0408 -0.0540
  919MOL0     C21180  10.056   0.625   8.400 -0.1706  1.2541  0.7549
  919MOL0     C21181  10.031   0.485   8.377  0.5538 -0.2464 -0.2475
  919MOL0     C21182   9.891   0.448   8.347  0.2205  0.1123 -0.6253
  919MOL0     C21183   9.782   0.539   8.349 -0.8009 -0.3372  0.1836
  919MOL0     O21184   9.656   0.494   8.324  0.3153  0.8186  0.4476
  919MOL0     C21185   9.532   0.566   8.347  0.1819  0.1041  0.1047
  919MOL0     C21186   9.522   0.593   8.497  0.3938  0.5127 -0.5139
  919MOL0     C21187   9.416   0.697   8.541 -0.3323 -0.4788  0.3276
  919MOL0     C21188   9.406   0.715   8.689  0.4784 -0.4088  0.5858
  919MOL0     C21189   9.333   0.851   8.728  0.7027  0.0819  0.6396
  919MOL0     C21190   9.180   0.843   8.691  0.4640  0.2443  0.5502
  919MOL0     C21191   9.088   0.958   8.728  0.6563 -0.1147  0.4022
  919MOL0     C21192   9.114   1.026   8.857 -0.3110  0.2881  0.0779
  919MOL0     N21193   9.023   1.136   8.881 -0.6309  0.1967 -0.5048
  919MOL0     C21194   8.890   1.116   8.912  0.9160 -0.0170 -0.1483
  919MOL0     C21195   8.840   1.241   8.922  0.7173 -0.0528 -0.9107
  919MOL0     C21196   8.705   1.292   8.963  0.3318  0.6060 -0.3838
  919MOL0     C21197   8.592   1.200   8.914  0.3480  0.0558 -0.1599
  919MOL0     C21198   8.572   1.230   8.764 -0.2762 -0.9649  0.2575
  919MOL0     C21199   8.469   1.153   8.699  0.3255  0.5017 -0.0314
  919MOL0     O21200   8.480   1.133   8.559  0.5923 -0.8566 -0.5734
  919MOL0     C21201   8.583   1.045   8.515  0.0414  0.0891  0.8401
  919MOL0     C21202   8.662   0.964   8.592 -0.3677 -0.6382  0.5991
  919MOL0     C21203   8.766   0.880   8.544 -0.5116  0.5526 -1.0030
  919MOL0     C21204   8.790   0.882   8.412  0.5351 -0.5520  0.3468
  919MOL0     C21205   8.890   0.787   8.352 -0.5777  0.2686  0.8203
  919MOL0     O21206   8.882   0.763   8.226  0.3435 -0.4020  0.6597
  919MOL0     C21207   8.977   0.673   8.175 -0.5979 -0.0717  0.4675
  919MOL0     C21208   8.933   0.557   8.113  0.3600  0.6872  1.0403
  919MOL0     C21209   9.023   0.467   8.058  0.0443 -0.8126  0.3549
  919MOL0     C21210   9.161   0.497   8.064  0.5218 -0.4880  0.8755
  919MOL0     O21211   9.236   0.404   8.003  0.3013 -0.2496  0.4279
  919MOL0     C21212   9.348   0.450   7.924  0.4303  1.0391  0.3605
  919MOL0     C21213   9.327   0.431   7.768  0.3719 -0.1159 -0.0763
  919MOL0     C21214   9.435   0.517   7.692  0.1723  0.4634 -0.4398
  919MOL0     C21215   9.578   0.444   7.701  0.2953 -0.6932  0.1166
  919MOL0     C21216   9.676   0.544   7.637 -0.2363  0.5720  0.1580
  919MOL0     C21217   9.820   0.474   7.642  0.5661  0.8712  0.0058
  919MOL0     C21218   9.925   0.575   7.601  0.6539  0.1654  0.3134
  919MOL0     C21219  10.066   0.536   7.607  0.1640  0.8137  1.0000
  919MOL0    Cl21220  10.096   0.384   7.508  0.0399  0.0797  0.2686
  919MOL0     C21221   9.199   0.625   8.122  0.9418  1.0242 -0.0618
  919MOL0     C21222   9.108   0.713   8.164 -0.3257 -0.0986 -0.3999
  919MOL0     O21223   8.969   0.735   8.433  0.1682 -0.1830 -0.2068
  919MOL0     C21224   8.721   0.976   8.326  0.7270  0.1891  0.4221
  919MOL0     C21225   8.624   1.060   8.387  0.5460  0.5399 -0.1601
  919MOL0     N21226   8.944   1.328   8.895  0.2501  0.4267  0.8024
  919MOL0     N21227   9.052   1.266   8.876  0.8221 -0.5241 -0.2091
  919MOL0     C21228   9.816   0.671   8.378 -0.0742  0.0891 -0.3152
  919MOL0     C21229   9.946   0.705   8.404 -0.4725  0.4512 -0.1093
  919MOL0     C21230  10.374   0.815   8.444  0.0375  0.3475 -0.0877
  919MOL0     C21231  10.424   0.749   8.564 -0.4404  0.4218  0.1663
  919MOL0     C21232  10.553   0.774   8.612 -0.3037 -0.2646 -0.8807
  919MOL0     C21233  10.622   0.883   8.554 -0.2189 -0.2149  0.7496
  919MOL0     O21234  10.737   0.937   8.605  0.4544 -0.8656  0.1014
  919MOL0     C21235  10.796   0.889   8.722  0.6747 -0.0613 -0.6146
  919MOL0     C21236  10.906   0.982   8.765 -0.6617  0.0637 -0.3304
  919MOL0     C21237  11.050   0.959   8.701  0.0532  0.6546 -0.1101
  919MOL0     C21238  11.060   1.044   8.580 -0.6958  0.5768  0.8829
  919MOL0     C21239  11.072   1.190   8.615 -0.0697  0.7096  0.0630
  919MOL0     C21240  11.087   1.309   8.648  0.0184  0.2354 -0.1171
  919MOL0     C21241  10.582   0.944   8.432 -0.1298 -0.3465  0.4475
  919MOL0     C21242  10.458   0.902   8.372 -0.9665 -0.3803  0.3625
  919MOL0     H21243  10.097   0.399   8.369 -1.0672 -1.7370  1.6201
  919MOL0     H21244   9.884   0.343   8.320 -1.2222  0.2099 -0.6648
  919MOL0     H21245   9.454   0.503   8.305  2.2701 -1.6337 -1.4258
  919MOL0     H21246   9.548   0.663   8.298  2.3810 -0.1416  0.2168
  919MOL0     H21247   9.618   0.618   8.544  0.0123 -1.1130  1.2587
  919MOL0     H21248   9.492   0.505   8.554 -0.6120 -0.2175 -2.1243
  919MOL0     H21249   9.318   0.689   8.493 -0.0827  0.2188 -0.3171
  919MOL0     H21250   9.454   0.796   8.514 -2.0792 -0.1116 -0.9096
  919MOL0     H21251   9.343   0.636   8.730 -0.0490 -0.9475 -1.1878
  919MOL0     H21252   9.506   0.719   8.735  0.1204  3.5094  1.4026
  919MOL0     H21253   9.385   0.924   8.666 -0.0731  0.9353  0.9844
  919MOL0     H21254   9.362   0.871   8.832  0.8768  0.3594  0.5386
  919MOL0     H21255   9.126   0.756   8.728 -0.0774 -0.2648 -1.3270
  919MOL0     H21256   9.173   0.823   8.584 -3.1520 -1.8702  1.0463
  919MOL0     H21257   9.091   1.034   8.648  1.5095  2.2423  2.5395
  919MOL0     H21258   8.987   0.916   8.722  1.1774 -1.1880 -2.1697
  919MOL0     H21259   9.214   1.063   8.835 -0.2942 -0.1585 -0.6249
  919MOL0     H21260   9.120   0.947   8.932  1.2114  0.5026  0.2113
  919MOL0     H21261   8.836   1.022   8.925 -0.7803  0.8874 -0.3935
  919MOL0     H21262   8.676   1.395   8.937 -0.1981  0.6817  0.4745
  919MOL0     H21263   8.722   1.296   9.071  2.1388 -2.2805 -0.4491
  919MOL0     H21264   8.499   1.219   8.968  0.5216  0.5336 -0.0203
  919MOL0     H21265   8.623   1.096   8.923  2.5076  0.5160 -1.6209
  919MOL0     H21266   8.540   1.333   8.747  0.4980 -0.8316 -0.4514
  919MOL0     H21267   8.666   1.217   8.711 -0.1954  1.6037 -0.3454
  919MOL0     H21268   8.370   1.194   8.721  1.3698  2.6511  1.0587
  919MOL0     H21269   8.469   1.055   8.748 -2.2431 -0.6014 -1.9817
  919MOL0     H21270   8.642   0.966   8.699  0.6533 -1.0296  0.8102
  919MOL0     H21271   8.820   0.812   8.610  1.4290  1.8118 -1.2031
  919MOL0     H21272   8.828   0.528   8.115  0.4672  0.1052 -0.3567
  919MOL0     H21273   8.994   0.376   8.006 -1.2984 -0.0311 -0.2920
  919MOL0     H21274   9.440   0.394   7.942  1.4654  3.2433  2.4928
  919MOL0     H21275   9.377   0.550   7.955  4.8223  0.0150  0.1385
  919MOL0     H21276   9.224   0.460   7.744  0.4364  0.8619  0.7863
  919MOL0     H21277   9.343   0.328   7.734  1.4841 -0.0716  0.2755
  919MOL0     H21278   9.429   0.621   7.726  0.3206  0.2868  0.1386
  919MOL0     H21279   9.411   0.523   7.585 -0.7997  1.3167 -0.1909
  919MOL0     H21280   9.603   0.424   7.805  0.9382 -1.1348 -0.1169
  919MOL0     H21281   9.581   0.343   7.658 -1.4183 -1.1216  0.8789
  919MOL0     H21282   9.690   0.628   7.705  1.1353  1.4585 -1.1396
  919MOL0     H21283   9.648   0.573   7.535  0.2831  2.2448  0.4615
  919MOL0     H21284   9.814   0.385   7.578 -0.6130 -0.2232  1.5519
  919MOL0     H21285   9.843   0.429   7.740 -0.3141 -0.7318 -0.4782
  919MOL0     H21286   9.897   0.604   7.499  1.9625 -1.3942 -0.5289
  919MOL0     H21287   9.910   0.656   7.672 -2.7918 -0.3784  0.3795
  919MOL0     H21288  10.085   0.499   7.708  0.5752 -0.8432  0.3508
  919MOL0     H21289  10.137   0.613   7.576 -1.7942  2.0734 -0.6595
  919MOL0     H21290   9.304   0.654   8.124  0.6209  2.2668 -0.5970
  919MOL0     H21291   9.135   0.813   8.199 -1.6080  0.8207 -1.9137
  919MOL0     H21292   8.731   0.977   8.218  1.2127 -1.4212  0.4377
  919MOL0     H21293   8.569   1.126   8.321 -1.0844 -0.1983  0.4071
  919MOL0     H21294   9.735   0.743   8.380  0.8110  1.3217 -3.3594
  919MOL0     H21295   9.959   0.804   8.447 -0.3462  0.9321 -1.2248
  919MOL0     H21296  10.363   0.674   8.614 -0.2651  0.5629  0.5896
  919MOL0     H21297  10.577   0.722   8.704 -3.5239  0.2433  0.3963
  919MOL0     H21298  10.834   0.787   8.711  2.6263  0.6340 -0.8505
  919MOL0     H21299  10.725   0.900   8.804  0.8958  2.5357 -0.6616
  919MOL0     H21300  10.881   1.087   8.749  2.1965  0.6248 -1.7701
  919MOL0     H21301  10.933   0.980   8.871  1.1043  1.6853 -0.7038
  919MOL0     H21302  11.065   0.852   8.682  0.3412  0.0678  2.8270
  919MOL0     H21303  11.134   0.979   8.768  2.2017 -2.9637 -1.3835
  919MOL0     H21304  11.150   1.016   8.525 -2.0209  2.4282 -2.4862
  919MOL0     H21305  10.976   1.020   8.514 -0.3107 -0.2244  0.6777
  919MOL0     H21306  11.094   1.410   8.681 -0.0644  0.3998 -0.5837
  919MOL0     H21307  10.646   1.015   8.380  1.1863 -1.8651 -0.0948
  919MOL0     H21308  10.428   0.942   8.276  2.6473  3.2708  0.4940
  920MOL0     O21309   8.996   6.336   7.567 -0.2850 -0.0525 -0.2518
  920MOL0     C21310   9.052   6.234   7.535 -0.6785  0.3006 -0.7398
  920MOL0     O21311   8.985   6.110   7.503 -0.0919  0.0766 -0.8558
  920MOL0     C21312   8.848   6.095   7.503 -0.1057 -0.0863  0.3741
  920MOL0     C21313   8.756   6.198   7.508 -0.3618 -0.5736  0.3778
  920MOL0     C21314   8.623   6.169   7.471 -0.1048 -0.0274 -0.7923
  920MOL0     C21315   8.581   6.037   7.452 -0.1050 -0.4426  0.1716
  920MOL0     O21316   8.444   6.017   7.441 -0.1984 -1.0476  0.1549
  920MOL0     C21317   8.396   5.894   7.490 -0.1192 -0.0454 -0.0265
  920MOL0     C21318   8.240   5.884   7.466  0.0112  0.0935 -0.8361
  920MOL0     C21319   8.207   5.879   7.315 -0.1732 -0.2899 -0.7243
  920MOL0     C21320   8.054   5.898   7.314 -0.6306 -0.0021 -1.0038
  920MOL0     C21321   7.999   5.855   7.175 -0.5310 -0.0914  0.2274
  920MOL0     C21322   7.865   5.925   7.148 -0.1226 -0.8258 -0.4232
  920MOL0     C21323   7.747   5.886   7.233  0.5223 -0.2557  0.3793
  920MOL0     C21324   7.618   5.945   7.182  0.0242  0.3042 -0.1986
  920MOL0     N21325   7.506   5.890   7.260  0.2877  0.3163 -0.0915
  920MOL0     C21326   7.446   5.766   7.238  0.7262 -0.4207  0.2760
  920MOL0     C21327   7.377   5.750   7.347 -0.0360 -1.0792 -0.8025
  920MOL0     C21328   7.270   5.644   7.361 -0.0248  0.8485 -0.5319
  920MOL0     C21329   7.136   5.696   7.311 -0.3326  0.4752 -0.4654
  920MOL0     C21330   7.026   5.595   7.328 -0.1104 -0.3241 -0.0062
  920MOL0     C21331   6.926   5.586   7.210 -0.5165  0.3076 -0.9864
  920MOL0     O21332   6.826   5.482   7.238 -0.1712  0.5763 -0.8616
  920MOL0     C21333   6.688   5.507   7.214  0.6143  0.3074  0.1777
  920MOL0     C21334   6.605   5.394   7.219 -0.5472  0.6406 -0.2738
  920MOL0     C21335   6.470   5.399   7.190  0.5720 -0.5764  0.8120
  920MOL0     C21336   6.411   5.528   7.159  0.0892  0.4277  0.6049
  920MOL0     C21337   6.273   5.537   7.121 -0.1960 -0.1725 -0.4808
  920MOL0     O21338   6.224   5.659   7.080  0.2828  0.2875  0.6029
  920MOL0     C21339   6.103   5.669   7.010  1.1355  0.6421 -0.8541
  920MOL0     C21340   6.048   5.572   6.912 -0.4335  0.5314 -0.1260
  920MOL0     C21341   5.923   5.586   6.846 -0.4495 -0.1400 -0.1724
  920MOL0     C21342   5.849   5.699   6.872 -0.0271 -0.0168  0.4874
  920MOL0     O21343   5.733   5.705   6.792  0.1506 -0.4919 -0.1685
  920MOL0     C21344   5.640   5.815   6.806 -0.8924  0.0255  0.5752
  920MOL0     C21345   5.594   5.846   6.661 -0.1328  0.2465  0.1924
  920MOL0     C21346   5.504   5.969   6.678 -0.1599 -1.2231  0.0997
  920MOL0     C21347   5.475   6.039   6.546 -0.2163  0.5814  0.7098
  920MOL0     C21348   5.365   6.148   6.535 -1.0701 -0.3045 -0.2868
  920MOL0     C21349   5.316   6.179   6.394  0.0675  0.7747  0.1510
  920MOL0     C21350   5.250   6.052   6.328 -0.0491 -0.8887  0.1774
  920MOL0     C21351   5.225   6.079   6.174 -0.4225  0.2332  0.0027
  920MOL0    Cl21352   5.236   5.932   6.082 -0.4741 -0.0639 -0.0434
  920MOL0     C21353   5.899   5.797   6.966  0.5702 -0.2645  0.1391
  920MOL0     C21354   6.023   5.772   7.033 -0.4064  0.4604 -0.2793
  920MOL0     O21355   6.216   5.432   7.114  0.2075  0.2678 -0.4072
  920MOL0     C21356   6.485   5.643   7.176 -0.2070  0.1977  0.3836
  920MOL0     C21357   6.620   5.630   7.201  0.6765 -0.5225 -0.8786
  920MOL0     N21358   7.388   5.861   7.434 -0.5737 -0.0542  0.2239
  920MOL0     N21359   7.467   5.944   7.384  0.2689  0.2845  0.5529
  920MOL0     C21360   8.678   5.928   7.442  0.4664 -0.2593  0.7182
  920MOL0     C21361   8.812   5.959   7.459 -0.4994 -0.0089 -0.2265
  920MOL0     C21362   9.206   6.240   7.518  0.3930  0.3549  0.7687
  920MOL0     C21363   9.270   6.361   7.528  0.5632 -0.0626  0.0343
  920MOL0     C21364   9.409   6.379   7.521 -0.3135 -0.4591 -1.0126
  920MOL0     C21365   9.485   6.273   7.490  0.3006  0.0078  0.3970
  920MOL0     O21366   9.621   6.297   7.463 -0.1785  0.3250 -0.3401
  920MOL0     C21367   9.695   6.183   7.437 -1.0702  0.2675 -0.3154
  920MOL0     C21368   9.845   6.223   7.425  0.2672 -0.2545  0.0966
  920MOL0     C21369   9.913   6.108   7.355  0.1564  0.1081 -0.0925
  920MOL0     C21370  10.053   6.151   7.325  0.1327 -0.1260  0.2729
  920MOL0     C21371  10.127   6.041   7.260 -0.2250 -0.4306  0.0652
  920MOL0     C21372  10.181   5.938   7.218  0.1276 -0.4461 -0.5033
  920MOL0     C21373   9.421   6.142   7.477 -0.1734  0.0256  0.6791
  920MOL0     C21374   9.278   6.125   7.496 -0.8460 -0.7032  0.3580
  920MOL0     H21375   8.776   6.303   7.528 -1.2476  0.1696 -2.1980
  920MOL0     H21376   8.551   6.250   7.478 -0.0339  0.2572 -2.9028
  920MOL0     H21377   8.422   5.890   7.596  4.3059 -0.0387 -0.9549
  920MOL0     H21378   8.442   5.814   7.432  2.2200  0.0958  1.4935
  920MOL0     H21379   8.202   5.974   7.514 -1.0475  0.7409 -2.8270
  920MOL0     H21380   8.201   5.798   7.521 -0.5788 -0.6464 -2.3510
  920MOL0     H21381   8.232   5.781   7.273  0.2289 -0.8308  0.7203
  920MOL0     H21382   8.257   5.958   7.257  1.9749  0.0732  1.4564
  920MOL0     H21383   8.004   5.843   7.394 -0.4202 -1.2265 -1.6767
  920MOL0     H21384   8.043   6.006   7.326  3.5149  0.3944  1.2678
  920MOL0     H21385   7.989   5.746   7.164  3.3700 -0.6094  0.4717
  920MOL0     H21386   8.064   5.901   7.101 -1.1406  1.2890  0.5273
  920MOL0     H21387   7.843   5.894   7.045  1.9406 -3.5004 -0.1575
  920MOL0     H21388   7.879   6.033   7.157  2.0715 -1.0612 -0.5213
  920MOL0     H21389   7.747   5.777   7.233  0.3784 -0.2725  2.1241
  920MOL0     H21390   7.761   5.927   7.333 -2.0343  0.8389  0.3647
  920MOL0     H21391   7.618   5.901   7.082  0.1268 -1.2437  0.4567
  920MOL0     H21392   7.605   6.054   7.188 -0.7783  0.1962  0.3186
  920MOL0     H21393   7.431   5.704   7.151 -0.0629  0.7379 -0.4448
  920MOL0     H21394   7.270   5.606   7.464 -2.3026 -1.0127 -1.1347
  920MOL0     H21395   7.307   5.554   7.309 -0.6029  0.6814 -0.6573
  920MOL0     H21396   7.144   5.729   7.207  3.6332 -1.8590 -1.1208
  920MOL0     H21397   7.103   5.779   7.373 -1.3395 -0.1387 -0.1596
  920MOL0     H21398   7.063   5.492   7.333 -3.1409 -1.4354  2.0268
  920MOL0     H21399   6.970   5.608   7.420  0.1572  1.1000 -0.0279
  920MOL0     H21400   6.979   5.549   7.122  0.0108  0.0842 -0.5854
  920MOL0     H21401   6.888   5.687   7.191 -1.4530  0.2017  0.2240
  920MOL0     H21402   6.643   5.293   7.233 -1.3488  0.0161 -2.3087
  920MOL0     H21403   6.419   5.303   7.197 -0.4484 -0.0570  0.5814
  920MOL0     H21404   6.103   5.485   6.877 -2.5742  0.6032 -4.2410
  920MOL0     H21405   5.879   5.521   6.772  2.0469  1.3304 -3.1835
  920MOL0     H21406   5.683   5.908   6.846  0.1486 -0.6220  1.0208
  920MOL0     H21407   5.560   5.786   6.874 -0.8735  1.3824  1.2049
  920MOL0     H21408   5.540   5.759   6.623 -1.3779  0.4662  1.3691
  920MOL0     H21409   5.673   5.871   6.589 -0.9778 -2.5955 -1.8984
  920MOL0     H21410   5.552   6.047   6.738 -1.4706 -0.0242 -0.3532
  920MOL0     H21411   5.416   5.940   6.735 -0.7919  2.0736  1.0038
  920MOL0     H21412   5.569   6.064   6.495 -0.6889 -1.4424 -1.3180
  920MOL0     H21413   5.434   5.957   6.486  0.6243  0.6971 -0.0437
  920MOL0     H21414   5.409   6.236   6.582  2.3193 -0.5488 -2.6617
  920MOL0     H21415   5.279   6.118   6.596  0.0382 -2.9765  0.0966
  920MOL0     H21416   5.390   6.221   6.325 -0.3783  1.3474  0.0172
  920MOL0     H21417   5.232   6.247   6.412 -3.0471 -2.9698  1.4066
  920MOL0     H21418   5.317   5.966   6.315  1.4542  0.2448  0.1038
  920MOL0     H21419   5.163   6.029   6.389  1.0064 -0.5028  1.8908
  920MOL0     H21420   5.295   6.152   6.133 -0.3257  0.4020  0.4628
  920MOL0     H21421   5.121   6.109   6.169 -1.2334 -1.5985  3.0664
  920MOL0     H21422   5.839   5.885   6.989  1.9569  1.3834 -2.0750
  920MOL0     H21423   6.055   5.856   7.093  0.0746  1.6650 -2.1132
  920MOL0     H21424   6.447   5.745   7.175  2.2214  1.1995  0.9012
  920MOL0     H21425   6.681   5.720   7.201 -1.8914  1.3306 -0.4596
  920MOL0     H21426   8.644   5.826   7.430  1.2603 -0.9240  3.4130
  920MOL0     H21427   8.889   5.883   7.456 -1.5831 -1.3297  2.2545
  920MOL0     H21428   9.208   6.450   7.517  2.1693  0.8886 -2.0189
  920MOL0     H21429   9.461   6.473   7.535  0.1033 -0.3700 -2.8579
  920MOL0     H21430   9.654   6.145   7.342 -0.7852  1.9427 -1.1386
  920MOL0     H21431   9.679   6.110   7.517 -0.2445  2.0289  1.5287
  920MOL0     H21432   9.858   6.314   7.365 -3.1095 -0.9962 -1.9817
  920MOL0     H21433   9.884   6.226   7.527  1.5396 -1.7322 -0.3176
  920MOL0     H21434   9.871   6.081   7.258  1.5126  0.0372 -0.6795
  920MOL0     H21435   9.907   6.020   7.420 -2.9549  1.6190  1.9149
  920MOL0     H21436  10.059   6.243   7.266 -1.1051 -1.0561 -1.4094
  920MOL0     H21437  10.101   6.163   7.423  2.0449 -1.5366 -0.4289
  920MOL0     H21438  10.238   5.857   7.178  0.5701 -0.9828  1.1271
  920MOL0     H21439   9.477   6.049   7.465 -0.5388 -0.0712 -0.4358
  920MOL0     H21440   9.229   6.028   7.500 -1.6723 -0.2875  0.6488
  921MOL0     O21441   8.302   4.502   1.514  0.5880 -1.4039 -0.0801
  921MOL0     C21442   8.381   4.512   1.423 -0.0158 -0.3815  0.5681
  921MOL0     O21443   8.356   4.498   1.283 -0.1211 -0.5214  0.3270
  921MOL0     C21444   8.235   4.458   1.243  0.1749  0.0054 -0.1448
  921MOL0     C21445   8.171   4.525   1.142  0.7958 -0.6157 -1.3897
  921MOL0     C21446   8.036   4.506   1.119  0.7590  0.3817 -0.2503
  921MOL0     C21447   7.973   4.402   1.182  0.1955  0.0369 -0.0715
  921MOL0     O21448   7.845   4.370   1.163 -0.1914  0.4850  0.1576
  921MOL0     C21449   7.765   4.465   1.235  0.0649 -0.4850 -0.6429
  921MOL0     C21450   7.664   4.389   1.324  1.3042 -1.0656  0.4310
  921MOL0     C21451   7.565   4.484   1.395  0.2118  0.4926  0.1386
  921MOL0     C21452   7.460   4.395   1.477  0.2740  0.1128 -1.2378
  921MOL0     C21453   7.323   4.376   1.420  0.5186 -0.2572  0.2556
  921MOL0     C21454   7.226   4.315   1.529  1.2478 -0.2841 -1.0916
  921MOL0     C21455   7.089   4.297   1.484 -0.6154 -0.1229  0.5130
  921MOL0     C21456   7.067   4.180   1.392  0.1636  0.2778  0.5314
  921MOL0     N21457   6.927   4.155   1.363  0.2982 -0.4951  0.6623
  921MOL0     C21458   6.856   4.072   1.437 -0.4374 -0.2888  0.0536
  921MOL0     C21459   6.730   4.103   1.410  0.5892  0.0606  0.4429
  921MOL0     C21460   6.618   4.034   1.484  0.3182  0.4749  0.2508
  921MOL0     C21461   6.481   4.063   1.412 -0.5273 -0.1459 -0.1120
  921MOL0     C21462   6.480   4.011   1.275  0.3111  0.7435  0.4455
  921MOL0     C21463   6.344   4.026   1.212 -0.4108  0.0586  0.9703
  921MOL0     O21464   6.268   3.911   1.247 -0.3642 -0.5225 -0.1291
  921MOL0     C21465   6.127   3.925   1.261 -0.4942 -0.2570 -0.1925
  921MOL0     C21466   6.070   3.819   1.325 -0.3634 -0.7974 -0.8910
  921MOL0     C21467   5.936   3.830   1.363  0.5728  0.3547  0.5855
  921MOL0     C21468   5.852   3.933   1.323 -0.1931  0.3353  0.1106
  921MOL0     C21469   5.708   3.943   1.351  0.1542  0.3071 -0.6880
  921MOL0     O21470   5.632   4.041   1.297  0.4119 -0.1920  0.4696
  921MOL0     C21471   5.504   4.060   1.346 -0.4109 -0.4039  0.3234
  921MOL0     C21472   5.486   4.115   1.471 -0.6261 -0.0988  0.5034
  921MOL0     C21473   5.363   4.136   1.522 -0.2690  0.5402  0.4291
  921MOL0     C21474   5.245   4.105   1.452  0.1614 -1.2486 -0.7525
  921MOL0     O21475   5.117   4.116   1.506  0.2245 -0.5463 -0.3974
  921MOL0     C21476   5.110   4.157   1.642 -0.4178  0.3421  0.5445
  921MOL0     C21477   4.966   4.190   1.674 -0.1054  1.0621  0.5523
  921MOL0     C21478   4.888   4.061   1.679 -0.0620  0.0608  0.3091
  921MOL0     C21479   4.750   4.103   1.751  0.7508 -0.8462 -0.1558
  921MOL0     C21480   4.657   3.986   1.748  0.8258  0.1786 -1.0836
  921MOL0     C21481   4.531   4.024   1.819  0.6468 -0.1856 -0.2519
  921MOL0     C21482   4.426   3.902   1.836 -0.8103 -0.1507 -0.3295
  921MOL0     C21483   4.341   3.911   1.961  0.8514  0.0254 -0.8335
  921MOL0    Cl21484   4.262   4.071   1.974 -0.4034 -0.6279 -0.0968
  921MOL0     C21485   5.266   4.049   1.328  0.8565 -0.1419  0.0132
  921MOL0     C21486   5.392   4.029   1.272 -0.8673  0.6851 -0.4492
  921MOL0     O21487   5.665   3.845   1.413 -0.2485  0.2602 -0.3250
  921MOL0     C21488   5.916   4.031   1.247  0.3117 -0.0087 -0.1754
  921MOL0     C21489   6.048   4.031   1.222 -0.1329 -0.2274 -0.0083
  921MOL0     N21490   6.723   4.213   1.332 -0.1176  0.0656 -0.0803
  921MOL0     N21491   6.841   4.245   1.298 -0.2710 -0.3945  1.0759
  921MOL0     C21492   8.032   4.331   1.278 -0.7089  0.7150  0.1663
  921MOL0     C21493   8.170   4.355   1.304  0.4923 -1.3446  0.0752
  921MOL0     C21494   8.512   4.561   1.468  0.4857 -0.2502 -0.1123
  921MOL0     C21495   8.521   4.636   1.586 -0.5705  0.3542 -0.6169
  921MOL0     C21496   8.646   4.687   1.624  0.1647  0.1444 -0.2965
  921MOL0     C21497   8.767   4.657   1.554  0.4552 -0.3467 -0.5889
  921MOL0     O21498   8.884   4.680   1.618 -0.2674  0.6534 -0.9388
  921MOL0     C21499   9.016   4.656   1.554  0.0608 -0.0535 -0.6780
  921MOL0     C21500   9.050   4.762   1.448 -0.3098  0.3989  0.1924
  921MOL0     C21501   9.159   4.707   1.359  0.2441  0.4168  0.0725
  921MOL0     C21502   9.303   4.751   1.410 -0.6733 -0.6069 -0.7052
  921MOL0     C21503   9.330   4.702   1.546  0.2255 -0.1887  0.4264
  921MOL0     C21504   9.354   4.636   1.643  0.0606  1.0378  0.0484
  921MOL0     C21505   8.758   4.595   1.430  0.1307 -0.3172 -0.5906
  921MOL0     C21506   8.622   4.557   1.384  0.0748  0.5130 -0.2405
  921MOL0     H21507   8.222   4.607   1.094  2.7611 -0.6079  0.5715
  921MOL0     H21508   7.973   4.574   1.063  1.9947  2.3456  0.6267
  921MOL0     H21509   7.712   4.526   1.161 -0.6942  0.0837  0.3377
  921MOL0     H21510   7.809   4.527   1.314 -5.0300  1.8766  0.7523
  921MOL0     H21511   7.714   4.333   1.403 -0.5449  0.9252  3.2315
  921MOL0     H21512   7.599   4.322   1.267  0.2975 -1.6977  2.2396
  921MOL0     H21513   7.506   4.544   1.324  1.3596  1.1594 -0.2790
  921MOL0     H21514   7.623   4.549   1.461  2.6074 -2.3103  1.0035
  921MOL0     H21515   7.507   4.298   1.497  2.0978  1.3593  0.9667
  921MOL0     H21516   7.455   4.444   1.574  1.5161 -0.5051 -0.8455
  921MOL0     H21517   7.329   4.317   1.329  1.1769 -0.3915  0.3842
  921MOL0     H21518   7.280   4.474   1.394  2.3147  0.1383 -1.4184
  921MOL0     H21519   7.230   4.383   1.615  2.4724 -1.1055 -0.4693
  921MOL0     H21520   7.264   4.220   1.568  4.0037  0.8987 -0.6608
  921MOL0     H21521   7.019   4.286   1.568 -0.7417 -2.6043  0.1599
  921MOL0     H21522   7.062   4.389   1.431  0.2483  0.3606  0.8870
  921MOL0     H21523   7.109   4.089   1.437 -0.1315 -0.6521 -0.9832
  921MOL0     H21524   7.124   4.199   1.301  1.2261 -0.2729  1.0640
  921MOL0     H21525   6.891   3.995   1.506 -1.6887 -1.9290 -1.0535
  921MOL0     H21526   6.611   4.070   1.587  0.9262 -2.8029  1.5578
  921MOL0     H21527   6.644   3.928   1.481 -2.0331 -0.1458 -0.6940
  921MOL0     H21528   6.457   4.169   1.403 -0.5382 -0.2074 -0.8576
  921MOL0     H21529   6.413   4.007   1.477 -0.1733 -2.5376 -1.6659
  921MOL0     H21530   6.550   4.059   1.205  0.0242  0.5693  0.0350
  921MOL0     H21531   6.501   3.905   1.287  1.4079  1.1131  2.0366
  921MOL0     H21532   6.343   4.050   1.105 -1.5577  3.0901  1.5517
  921MOL0     H21533   6.305   4.116   1.259  0.3596  0.0328  1.6815
  921MOL0     H21534   6.122   3.738   1.376 -0.0761  0.6001  1.1651
  921MOL0     H21535   5.899   3.753   1.429 -1.4695  0.6210 -0.1841
  921MOL0     H21536   5.568   4.135   1.539  0.5825 -0.2319 -0.8516
  921MOL0     H21537   5.361   4.167   1.626  3.0759 -1.1947  1.1578
  921MOL0     H21538   5.164   4.252   1.647  0.0558  0.2146 -1.3302
  921MOL0     H21539   5.156   4.085   1.710 -0.6889 -1.1817 -0.8066
  921MOL0     H21540   4.930   4.263   1.600 -0.5492 -1.0552 -1.4192
  921MOL0     H21541   4.955   4.241   1.770 -1.3401  1.4152  0.2439
  921MOL0     H21542   4.944   3.985   1.735 -0.3596 -0.0420  0.4656
  921MOL0     H21543   4.869   4.022   1.578  0.4200 -0.3151  0.3557
  921MOL0     H21544   4.774   4.140   1.851 -0.0797  0.2477 -0.3506
  921MOL0     H21545   4.696   4.178   1.693  0.1753 -0.0031  1.4236
  921MOL0     H21546   4.699   3.900   1.801 -0.6255 -0.2529 -0.5964
  921MOL0     H21547   4.639   3.962   1.643 -1.2713  1.7461 -1.1397
  921MOL0     H21548   4.485   4.110   1.769  1.2269 -0.7034 -1.7370
  921MOL0     H21549   4.557   4.057   1.920 -0.1428  3.5575 -1.1135
  921MOL0     H21550   4.363   3.918   1.749  2.1746 -0.5077 -2.7429
  921MOL0     H21551   4.481   3.807   1.834 -0.4074  0.0888 -1.8832
  921MOL0     H21552   4.411   3.905   2.045 -2.7881  1.8640  2.6411
  921MOL0     H21553   4.274   3.827   1.984  0.8334  0.4868  0.9466
  921MOL0     H21554   5.178   4.022   1.271 -0.4751 -0.5502  2.1857
  921MOL0     H21555   5.399   3.983   1.174  1.0959 -0.7576  0.3040
  921MOL0     H21556   5.861   4.115   1.205  0.1204 -0.3076 -0.5253
  921MOL0     H21557   6.088   4.121   1.176  0.0843  0.5710  1.6755
  921MOL0     H21558   7.980   4.261   1.344  1.7750 -3.2696 -1.7042
  921MOL0     H21559   8.230   4.308   1.381  3.9518  0.2696 -1.4257
  921MOL0     H21560   8.443   4.647   1.660 -1.8858  0.9739 -2.0440
  921MOL0     H21561   8.648   4.745   1.715 -1.7217  2.0352 -1.3581
  921MOL0     H21562   9.021   4.556   1.511  0.7650  0.0660 -0.8886
  921MOL0     H21563   9.095   4.660   1.629  0.1022 -0.1000 -0.7190
  921MOL0     H21564   8.958   4.792   1.398 -0.8866  2.1211  2.1456
  921MOL0     H21565   9.075   4.857   1.497  0.1578 -0.5469  1.8693
  921MOL0     H21566   9.156   4.749   1.258  0.8892 -0.8264 -0.4847
  921MOL0     H21567   9.155   4.600   1.338  1.7144  0.7451 -2.2228
  921MOL0     H21568   9.385   4.712   1.349  1.1781 -0.9398  1.8176
  921MOL0     H21569   9.313   4.859   1.410 -0.2307 -0.6450 -0.4512
  921MOL0     H21570   9.382   4.567   1.720 -0.0421  2.3901  1.3314
  921MOL0     H21571   8.844   4.580   1.366  0.5654 -1.0649  0.1442
  921MOL0     H21572   8.609   4.521   1.283 -0.9988 -1.0763  0.4224
  922MOL0     O21573   7.062   5.901   1.950 -0.4597 -0.1704  0.1804
  922MOL0     C21574   7.050   6.010   2.001  0.0569  0.1042  0.2120
  922MOL0     O21575   6.929   6.076   2.017  0.3201  0.1822 -0.1971
  922MOL0     C21576   6.819   6.003   1.970 -0.7499 -0.4130 -0.1515
  922MOL0     C21577   6.754   6.039   1.851  0.4825 -1.1770 -0.2592
  922MOL0     C21578   6.635   5.983   1.815  0.7589  0.4467  0.1876
  922MOL0     C21579   6.574   5.885   1.894  0.9451 -0.3465 -0.2096
  922MOL0     O21580   6.461   5.815   1.854 -0.0678 -0.0362  0.4751
  922MOL0     C21581   6.372   5.787   1.954 -0.2406 -0.3099  0.0550
  922MOL0     C21582   6.234   5.798   1.908  0.3030  0.1280  0.9928
  922MOL0     C21583   6.196   5.933   1.846  0.4436 -0.0087  0.9304
  922MOL0     C21584   6.199   6.062   1.931 -0.0384 -0.5269 -0.6549
  922MOL0     C21585   6.196   6.186   1.853  0.2525 -0.2309 -0.8569
  922MOL0     C21586   6.328   6.248   1.821 -0.1533  0.1689  0.8705
  922MOL0     C21587   6.328   6.367   1.725  0.2029 -0.4442 -0.0612
  922MOL0     C21588   6.462   6.427   1.705  0.5080  0.0115  0.5013
  922MOL0     N21589   6.560   6.357   1.616 -0.7440 -0.4083  0.1220
  922MOL0     C21590   6.535   6.302   1.486  0.3589 -0.4341  0.1077
  922MOL0     C21591   6.646   6.232   1.456 -0.1719 -0.2393 -0.7118
  922MOL0     C21592   6.673   6.169   1.324  0.8552  0.4960  0.5665
  922MOL0     C21593   6.634   6.024   1.330 -0.4245 -0.4597  0.9387
  922MOL0     C21594   6.490   5.992   1.343  0.4267  0.7907 -0.3307
  922MOL0     C21595   6.458   5.849   1.297 -0.8643 -0.1682 -0.6046
  922MOL0     O21596   6.553   5.755   1.363  0.7519 -0.6355  0.7531
  922MOL0     C21597   6.484   5.639   1.398  0.6005 -0.1811 -0.0565
  922MOL0     C21598   6.459   5.537   1.305  0.4487 -1.4150 -0.2775
  922MOL0     C21599   6.393   5.418   1.350 -0.1847 -0.4073 -0.3408
  922MOL0     C21600   6.332   5.414   1.475  0.3565 -1.2753  0.4324
  922MOL0     C21601   6.238   5.308   1.510  0.0324  0.5200 -0.2951
  922MOL0     O21602   6.209   5.210   1.426 -0.0800  0.4902  0.1199
  922MOL0     C21603   6.106   5.124   1.451  0.6985  0.2045  1.1823
  922MOL0     C21604   6.122   5.021   1.543  0.4073  0.6075 -0.6226
  922MOL0     C21605   6.024   4.914   1.550  0.0990  0.5315  0.4901
  922MOL0     C21606   5.892   4.927   1.491  0.4036 -0.3912  0.2618
  922MOL0     O21607   5.800   4.835   1.497 -0.2506  0.2769 -0.3258
  922MOL0     C21608   5.768   4.782   1.632  0.0801 -0.1655  0.1667
  922MOL0     C21609   5.715   4.649   1.614 -0.4205  0.0727 -0.7727
  922MOL0     C21610   5.679   4.589   1.756 -0.2231  0.1560 -0.1430
  922MOL0     C21611   5.646   4.438   1.753 -0.4804  0.7950  0.4414
  922MOL0     C21612   5.617   4.391   1.895  0.1425 -0.0640 -0.2676
  922MOL0     C21613   5.466   4.401   1.926 -0.0294  0.0265 -0.4353
  922MOL0     C21614   5.425   4.357   2.070  0.2776 -0.1479 -0.3487
  922MOL0     C21615   5.283   4.280   2.070 -0.1030  0.9733  0.3445
  922MOL0    Cl21616   5.261   4.150   1.954 -0.2665 -0.0727 -0.2784
  922MOL0     C21617   5.879   5.043   1.407 -0.3678 -0.2855  0.5195
  922MOL0     C21618   5.983   5.132   1.387  0.3231 -0.7554 -0.4841
  922MOL0     O21619   6.196   5.315   1.632  0.2788 -0.0275  0.3304
  922MOL0     C21620   6.355   5.517   1.566  0.3924  0.6015 -0.0854
  922MOL0     C21621   6.437   5.628   1.525  0.3596  1.6701 -0.1766
  922MOL0     N21622   6.735   6.248   1.561  0.3816  0.4612 -0.6442
  922MOL0     N21623   6.681   6.315   1.658  0.4404 -0.3277  1.0419
  922MOL0     C21624   6.634   5.846   2.014  0.4735  0.3824  0.1653
  922MOL0     C21625   6.755   5.905   2.046 -0.0689  0.1183  0.0521
  922MOL0     C21626   7.183   6.082   2.033  1.1260  0.2010  0.4915
  922MOL0     C21627   7.189   6.214   2.095 -0.2819  0.2425 -0.8643
  922MOL0     C21628   7.313   6.278   2.122 -0.2477  0.6910  0.4046
  922MOL0     C21629   7.433   6.228   2.088 -0.6311  0.3305 -0.3878
  922MOL0     O21630   7.547   6.297   2.125 -0.1807 -0.1614  0.0771
  922MOL0     C21631   7.652   6.218   2.180 -0.3304  0.2509 -0.0710
  922MOL0     C21632   7.768   6.310   2.231  0.3780  0.1695 -1.0279
  922MOL0     C21633   7.728   6.446   2.301  0.4557  0.7633  0.1305
  922MOL0     C21634   7.633   6.453   2.423  0.0062  0.7097 -0.2752
  922MOL0     C21635   7.580   6.590   2.439 -0.3980 -0.0974 -1.0532
  922MOL0     C21636   7.525   6.698   2.438 -0.0046 -0.2258 -0.2614
  922MOL0     C21637   7.429   6.093   2.031 -0.3600  0.3227  0.1721
  922MOL0     C21638   7.306   6.027   2.003 -0.3167  0.2138  0.2701
  922MOL0     H21639   6.794   6.115   1.785 -1.9339 -0.9405 -1.5965
  922MOL0     H21640   6.589   6.019   1.724 -1.6300  0.9391  1.4866
  922MOL0     H21641   6.384   5.823   2.056 -1.8733  2.7682 -0.7159
  922MOL0     H21642   6.398   5.681   1.962  2.7846  0.4111  1.5179
  922MOL0     H21643   6.167   5.781   1.993  2.1261  1.1151  2.6944
  922MOL0     H21644   6.218   5.720   1.833  0.4595 -0.3291  1.4322
  922MOL0     H21645   6.094   5.932   1.805  1.4874 -1.0515 -1.8630
  922MOL0     H21646   6.262   5.960   1.764 -0.7013  1.4030  0.4251
  922MOL0     H21647   6.119   6.047   2.005 -0.2159  0.0651 -0.7240
  922MOL0     H21648   6.296   6.056   1.980  0.7822 -2.1189 -2.3567
  922MOL0     H21649   6.141   6.250   1.922  0.8515 -2.3054  1.7507
  922MOL0     H21650   6.136   6.168   1.763 -1.0017 -0.1638 -0.0556
  922MOL0     H21651   6.388   6.182   1.757  0.1350  1.8720 -0.6764
  922MOL0     H21652   6.390   6.249   1.911 -1.5912 -2.1222  2.0051
  922MOL0     H21653   6.285   6.337   1.629 -2.7848  1.4368  0.5724
  922MOL0     H21654   6.259   6.442   1.766  1.4699  1.0325 -0.5356
  922MOL0     H21655   6.509   6.437   1.804  2.9270  0.6209 -0.6478
  922MOL0     H21656   6.452   6.526   1.660  2.6356 -0.8507 -2.0907
  922MOL0     H21657   6.447   6.293   1.424  0.2573 -3.7371  0.5836
  922MOL0     H21658   6.778   6.187   1.299  1.3743 -0.4788  1.9298
  922MOL0     H21659   6.619   6.222   1.245 -1.5517 -2.1983  0.2390
  922MOL0     H21660   6.687   5.980   1.416 -0.0300 -1.7049  0.0825
  922MOL0     H21661   6.675   5.969   1.245  1.9972  0.8982  1.1625
  922MOL0     H21662   6.460   6.010   1.447  0.3643  0.7792 -0.3464
  922MOL0     H21663   6.425   6.054   1.281 -0.8754  1.4554  1.6013
  922MOL0     H21664   6.462   5.843   1.188  1.2072  2.4223 -0.7845
  922MOL0     H21665   6.355   5.828   1.328 -0.5244  1.2038  1.6780
  922MOL0     H21666   6.492   5.546   1.202 -1.7652 -1.4229 -1.0320
  922MOL0     H21667   6.358   5.338   1.287 -1.4789  0.7971 -1.2128
  922MOL0     H21668   6.217   5.008   1.595  0.9123 -1.0816 -1.8911
  922MOL0     H21669   6.051   4.814   1.580 -0.6011 -0.4400 -1.8712
  922MOL0     H21670   5.704   4.862   1.669 -1.2890 -1.9640  1.8869
  922MOL0     H21671   5.856   4.770   1.695 -0.8632  1.1604  1.8044
  922MOL0     H21672   5.788   4.587   1.560 -1.0013 -0.3602 -1.0838
  922MOL0     H21673   5.622   4.659   1.557 -1.5489  0.7261  1.1172
  922MOL0     H21674   5.588   4.640   1.789  0.8858  1.8044  0.4765
  922MOL0     H21675   5.761   4.616   1.822 -1.2255  0.1316  1.1509
  922MOL0     H21676   5.577   4.396   1.680  1.3065 -0.4600 -0.6243
  922MOL0     H21677   5.745   4.393   1.736 -1.7606 -2.8813  1.8438
  922MOL0     H21678   5.683   4.447   1.963 -1.4775 -0.9746  2.1769
  922MOL0     H21679   5.645   4.286   1.899  0.7079 -0.1584 -3.7257
  922MOL0     H21680   5.395   4.358   1.855 -0.4299  0.4243 -0.2733
  922MOL0     H21681   5.424   4.502   1.919 -0.8568 -0.3749 -1.6839
  922MOL0     H21682   5.504   4.287   2.099  0.0129 -0.3679 -0.1553
  922MOL0     H21683   5.418   4.440   2.140  1.0882 -0.0342 -0.3980
  922MOL0     H21684   5.209   4.356   2.044  0.7313  0.7701 -3.0746
  922MOL0     H21685   5.265   4.249   2.174  2.3869 -3.2595 -0.2372
  922MOL0     H21686   5.783   5.068   1.363  0.3772  2.0631  0.0844
  922MOL0     H21687   5.959   5.219   1.325 -1.0737  0.4457  1.6136
  922MOL0     H21688   6.325   5.517   1.670  3.6155 -0.9288  0.9657
  922MOL0     H21689   6.463   5.706   1.596  2.9916  0.1129  0.7132
  922MOL0     H21690   6.584   5.768   2.070 -1.5563  1.0771 -0.5562
  922MOL0     H21691   6.804   5.896   2.142  0.9801  4.1831  0.0635
  922MOL0     H21692   7.094   6.262   2.118 -0.1918  0.3122 -0.6412
  922MOL0     H21693   7.305   6.374   2.172  0.7214  2.1019 -1.9954
  922MOL0     H21694   7.689   6.155   2.099  2.1578  3.8227 -1.9967
  922MOL0     H21695   7.613   6.141   2.248 -2.1947 -0.3018 -1.6575
  922MOL0     H21696   7.820   6.256   2.311  0.3224  2.0196  0.3253
  922MOL0     H21697   7.832   6.330   2.145  0.9666 -0.9476 -0.8731
  922MOL0     H21698   7.685   6.494   2.212 -2.8910 -2.3346 -0.1471
  922MOL0     H21699   7.822   6.496   2.325  1.6539 -2.4649  2.9306
  922MOL0     H21700   7.539   6.396   2.419 -0.4230  0.9794  3.3597
  922MOL0     H21701   7.691   6.432   2.513  3.4491  1.5624 -2.1020
  922MOL0     H21702   7.482   6.795   2.431 -1.0146 -0.6990 -0.8020
  922MOL0     H21703   7.524   6.047   2.004  0.6176  2.7052 -0.7763
  922MOL0     H21704   7.299   5.928   1.960  0.1825  1.2461 -2.3930
  923MOL0     O21705   2.747   8.598   9.806  0.3946 -0.2689 -0.2015
  923MOL0     C21706   2.791   8.574   9.692 -0.6351 -0.1304  0.5818
  923MOL0     O21707   2.722   8.555   9.576 -0.3781  0.6002  0.4424
  923MOL0     C21708   2.584   8.547   9.594  0.3280  0.4396  0.3791
  923MOL0     C21709   2.534   8.431   9.648 -0.1957  0.7392 -0.2146
  923MOL0     C21710   2.403   8.418   9.685  0.3032 -0.4495  0.5655
  923MOL0     C21711   2.310   8.523   9.663  0.0629 -0.7337 -0.1727
  923MOL0     O21712   2.172   8.522   9.683 -0.1037  0.1170 -0.4991
  923MOL0     C21713   2.115   8.400   9.727  0.6035  0.1120  0.8999
  923MOL0     C21714   1.972   8.428   9.762  0.5137  0.8008  0.2735
  923MOL0     C21715   1.890   8.496   9.645  0.0666  0.5849  0.0377
  923MOL0     C21716   1.742   8.482   9.682 -0.5349 -0.2890 -0.6563
  923MOL0     C21717   1.705   8.605   9.775  0.0173 -0.1479  0.3592
  923MOL0     C21718   1.580   8.579   9.868  0.0770 -0.1184  0.5940
  923MOL0     C21719   1.449   8.536   9.794 -0.1464 -0.1545  0.3973
  923MOL0     C21720   1.326   8.560   9.877  0.0743 -0.9142  0.0306
  923MOL0     N21721   1.202   8.493   9.837 -0.0460 -0.6926  0.2722
  923MOL0     C21722   1.100   8.575   9.778 -0.8709 -0.3054  0.0065
  923MOL0     C21723   0.993   8.487   9.771  0.9462  0.1831 -0.4308
  923MOL0     C21724   0.858   8.510   9.713 -0.0721 -0.5400  0.6251
  923MOL0     C21725   0.745   8.546   9.815  0.6955  0.1837  0.1380
  923MOL0     C21726   0.601   8.540   9.760  0.3181 -0.3501  0.2212
  923MOL0     C21727   0.503   8.567   9.874  0.6422 -1.2055  0.3428
  923MOL0     O21728   0.383   8.606   9.807  0.8534  0.7306  0.0547
  923MOL0     C21729   0.253   8.595   9.867  0.0478 -0.1779 -0.4902
  923MOL0     C21730   0.143   8.619   9.782 -0.1275 -0.5440  0.1571
  923MOL0     C21731   0.012   8.621   9.831 -0.3670  0.2050  0.4604
  923MOL0     C21732  -0.006   8.590   9.967  0.1920  0.4154 -0.4266
  923MOL0     C21733  -0.146   8.608  10.024  0.0777  0.3576 -0.3267
  923MOL0     O21734  -0.179   8.522  10.125 -0.3505 -0.1780  0.1971
  923MOL0     C21735  -0.299   8.513  10.194 -0.3246  0.2017  0.4270
  923MOL0     C21736  -0.311   8.422  10.293  0.1047  0.5702  0.4796
  923MOL0     C21737  -0.424   8.433  10.372  0.4401  0.7284 -0.3028
  923MOL0     C21738  -0.535   8.515  10.352 -0.3304  0.6497 -0.4281
  923MOL0     O21739  -0.663   8.504  10.417  0.2894 -0.6016  0.3323
  923MOL0     C21740  -0.669   8.466  10.552 -0.1019  0.0569 -0.0802
  923MOL0     C21741  -0.651   8.584  10.657  0.3640  0.7316  0.1396
  923MOL0     C21742  -0.755   8.693  10.652 -0.7196 -0.4530  0.3040
  923MOL0     C21743  -0.896   8.641  10.667 -0.3876  0.1049  0.5161
  923MOL0     C21744  -0.978   8.775  10.678  0.2938 -0.2177  0.1378
  923MOL0     C21745  -1.129   8.743  10.670  0.2327 -0.4991 -0.0897
  923MOL0     C21746  -1.200   8.870  10.673  0.0595 -0.1177 -0.5291
  923MOL0     C21747  -1.351   8.846  10.697 -0.4478 -0.0932  0.2747
  923MOL0    Cl21748  -1.416   8.761  10.557  0.3244  0.1321  0.0723
  923MOL0     C21749  -0.524   8.610  10.252  0.0449 -0.2800  0.4996
  923MOL0     C21750  -0.412   8.603  10.171 -0.7568 -1.0445  0.4939
  923MOL0     O21751  -0.212   8.699   9.971  0.6030 -0.5131  0.3315
  923MOL0     C21752   0.103   8.551  10.049 -0.1839  0.2604  0.3091
  923MOL0     C21753   0.233   8.565  10.003  0.2304  0.2266  1.0429
  923MOL0     N21754   1.028   8.374   9.842 -0.5984 -1.3855 -0.2018
  923MOL0     N21755   1.148   8.379   9.885  0.5150  0.0185  1.3778
  923MOL0     C21756   2.357   8.638   9.596  0.2147  0.2259 -1.0860
  923MOL0     C21757   2.491   8.642   9.556 -0.1252 -0.3330  0.7491
  923MOL0     C21758   2.941   8.579   9.692  0.0096  0.5351  0.9841
  923MOL0     C21759   3.016   8.622   9.798  0.1265 -0.6307  0.6084
  923MOL0     C21760   3.153   8.629   9.795 -0.3827 -0.1354 -0.1377
  923MOL0     C21761   3.228   8.588   9.688  0.3305  0.3512 -0.6576
  923MOL0     O21762   3.370   8.594   9.692  1.4559 -0.1973  0.8156
  923MOL0     C21763   3.441   8.522   9.594  0.1353  0.9814 -0.7154
  923MOL0     C21764   3.588   8.540   9.604 -0.7736 -0.2386 -0.5258
  923MOL0     C21765   3.631   8.508   9.746 -0.2588 -0.3115 -0.6566
  923MOL0     C21766   3.782   8.527   9.765 -1.0686  0.1160 -0.4881
  923MOL0     C21767   3.863   8.456   9.661 -1.1762 -0.1171  0.5409
  923MOL0     C21768   3.924   8.393   9.575 -0.5500 -0.6510 -0.7675
  923MOL0     C21769   3.159   8.544   9.576  0.3873 -0.3985  0.3798
  923MOL0     C21770   3.016   8.528   9.581  0.1560 -0.2347 -0.0885
  923MOL0     H21771   2.596   8.345   9.671 -1.7595 -0.8691 -1.6899
  923MOL0     H21772   2.373   8.324   9.732 -1.6621  0.2173  0.7447
  923MOL0     H21773   2.156   8.361   9.821 -1.0825 -1.7322  0.9389
  923MOL0     H21774   2.117   8.319   9.653 -0.6266  1.2560 -0.4257
  923MOL0     H21775   1.966   8.486   9.854 -1.0472 -0.9425  1.3437
  923MOL0     H21776   1.942   8.325   9.783  0.5024  0.5740 -0.7667
  923MOL0     H21777   1.911   8.435   9.557 -2.6573 -1.4764  0.6658
  923MOL0     H21778   1.922   8.600   9.631  0.2212  0.2397 -2.6361
  923MOL0     H21779   1.677   8.495   9.595  0.3639 -2.2461 -1.6847
  923MOL0     H21780   1.712   8.386   9.726  0.3092 -0.7121 -0.9756
  923MOL0     H21781   1.697   8.695   9.714 -1.4887 -0.9614 -0.7231
  923MOL0     H21782   1.789   8.632   9.839 -0.1706  1.8453 -0.1849
  923MOL0     H21783   1.560   8.665   9.933 -1.0124  0.8108 -0.8793
  923MOL0     H21784   1.604   8.497   9.936  0.9457  1.6667  2.5704
  923MOL0     H21785   1.439   8.596   9.703 -2.9584 -0.2494  0.5456
  923MOL0     H21786   1.464   8.429   9.780  2.6767  0.2051  0.0134
  923MOL0     H21787   1.301   8.667   9.880  0.8820 -0.7421  1.3857
  923MOL0     H21788   1.345   8.550   9.984 -0.4591  2.8764  0.6423
  923MOL0     H21789   1.098   8.673   9.730  0.0429  0.5579  1.6246
  923MOL0     H21790   0.815   8.427   9.657  0.7787 -0.6063  0.0491
  923MOL0     H21791   0.872   8.590   9.639  1.0165  1.2218  2.6108
  923MOL0     H21792   0.759   8.644   9.862 -0.1854 -0.7003  2.3764
  923MOL0     H21793   0.740   8.476   9.899 -1.1771 -1.6367 -1.3903
  923MOL0     H21794   0.595   8.621   9.687  0.9656  0.7298  1.3200
  923MOL0     H21795   0.578   8.456   9.694  1.3751  0.2574 -0.9863
  923MOL0     H21796   0.533   8.656   9.931  0.1326 -0.4248 -0.5730
  923MOL0     H21797   0.492   8.478   9.937  0.0426 -1.4646 -0.1114
  923MOL0     H21798   0.165   8.657   9.682 -3.6489 -1.8175 -1.2877
  923MOL0     H21799  -0.074   8.668   9.784 -0.8967  0.1707  1.3662
  923MOL0     H21800  -0.233   8.350  10.314 -0.6244  0.4551  3.0738
  923MOL0     H21801  -0.428   8.353  10.446 -1.4287  1.3993  0.3796
  923MOL0     H21802  -0.597   8.388  10.579 -0.4494 -0.2558 -0.0638
  923MOL0     H21803  -0.766   8.419  10.570  0.0528  0.1552  1.1487
  923MOL0     H21804  -0.552   8.623  10.633  0.3063 -0.9005 -3.3879
  923MOL0     H21805  -0.645   8.544  10.758  2.4826 -1.2606 -0.6825
  923MOL0     H21806  -0.765   8.741  10.554  2.4841  0.6612  0.4279
  923MOL0     H21807  -0.726   8.769  10.725  1.2667 -2.9136  2.2185
  923MOL0     H21808  -0.907   8.587  10.573 -0.3186 -1.9016  1.6003
  923MOL0     H21809  -0.917   8.577  10.753 -1.5468 -0.5942 -0.2592
  923MOL0     H21810  -0.958   8.838  10.590 -3.1491 -2.3385 -2.4157
  923MOL0     H21811  -0.951   8.827  10.770  0.8533 -1.5866  0.7675
  923MOL0     H21812  -1.153   8.693  10.764  1.7378  2.2706  1.9291
  923MOL0     H21813  -1.154   8.677  10.587  1.9054 -2.2257  0.7028
  923MOL0     H21814  -1.165   8.929  10.758 -1.1114 -2.0468  1.3927
  923MOL0     H21815  -1.190   8.918  10.576 -0.6825 -0.5972 -0.8543
  923MOL0     H21816  -1.411   8.935  10.715 -1.4387 -0.8753  0.9243
  923MOL0     H21817  -1.363   8.779  10.783 -0.3253 -1.1861 -0.5246
  923MOL0     H21818  -0.605   8.677  10.225 -1.0526 -1.9748 -0.5931
  923MOL0     H21819  -0.403   8.674  10.090 -0.4546  0.2155  1.6116
  923MOL0     H21820   0.078   8.524  10.151 -1.4336  0.5192  0.0936
  923MOL0     H21821   0.319   8.549  10.068  3.6872  3.7207 -2.1873
  923MOL0     H21822   2.284   8.715   9.572 -0.9110 -0.4080  0.1523
  923MOL0     H21823   2.531   8.729   9.506  2.3547  0.0248  3.1498
  923MOL0     H21824   2.967   8.666   9.885 -0.9333 -1.3911  0.4172
  923MOL0     H21825   3.209   8.671   9.878 -1.3111 -1.2364  1.0916
  923MOL0     H21826   3.416   8.554   9.492 -3.6032 -3.2234 -1.3994
  923MOL0     H21827   3.420   8.415   9.599  0.1873  1.0138  0.5479
  923MOL0     H21828   3.646   8.484   9.530  2.2281  2.2270 -0.2488
  923MOL0     H21829   3.603   8.646   9.580 -1.5858  0.3291  1.2747
  923MOL0     H21830   3.594   8.410   9.777  0.7314  0.0532  1.9202
  923MOL0     H21831   3.576   8.574   9.814 -0.5830  1.5770 -2.6533
  923MOL0     H21832   3.806   8.634   9.757  0.5575 -0.2275 -0.5550
  923MOL0     H21833   3.802   8.485   9.864 -0.7625 -0.9722 -1.0011
  923MOL0     H21834   3.968   8.336   9.496  1.7292  0.9830 -0.7686
  923MOL0     H21835   3.211   8.520   9.484 -0.7988  1.0635 -0.7196
  923MOL0     H21836   2.959   8.495   9.496 -0.6313 -5.2284  2.0166
  924MOL0     O21837   7.799  11.114   9.487  0.0387  0.0912  0.5784
  924MOL0     C21838   7.787  11.206   9.413  0.2704 -0.3092 -0.1488
  924MOL0     O21839   7.672  11.263   9.375 -0.2670 -0.3267 -0.5863
  924MOL0     C21840   7.556  11.190   9.393 -0.0286  0.3845 -0.8191
  924MOL0     C21841   7.530  11.053   9.367 -1.0554 -0.1329 -0.4847
  924MOL0     C21842   7.406  10.990   9.394  0.1839 -1.0209  0.2619
  924MOL0     C21843   7.297  11.071   9.435 -0.5809 -0.0646 -0.3814
  924MOL0     O21844   7.180  11.016   9.469 -0.4617  0.2163  0.4910
  924MOL0     C21845   7.095  10.980   9.350  0.0636  0.2390 -0.2593
  924MOL0     C21846   6.965  10.924   9.393 -1.1522 -0.0147 -0.2612
  924MOL0     C21847   6.867  11.031   9.449  0.2528 -0.9108  0.2909
  924MOL0     C21848   6.737  10.981   9.518  0.6654 -0.0808  0.6546
  924MOL0     C21849   6.659  11.102   9.576 -0.6700 -0.8904 -0.0817
  924MOL0     C21850   6.510  11.071   9.631 -0.2023  0.1178 -0.4059
  924MOL0     C21851   6.417  11.029   9.526  0.2623  0.0685 -0.5204
  924MOL0     C21852   6.263  11.053   9.558  0.1154 -0.3641  0.1206
  924MOL0     N21853   6.206  10.982   9.673 -0.9478 -1.9988 -0.6084
  924MOL0     C21854   6.212  10.848   9.705 -0.1690  0.1258  0.5188
  924MOL0     C21855   6.128  10.831   9.807  0.2183 -0.2981 -0.6470
  924MOL0     C21856   6.115  10.713   9.902  0.2131 -1.1434 -0.0651
  924MOL0     C21857   5.984  10.700   9.976  0.1555 -0.3849  0.7279
  924MOL0     C21858   5.881  10.652   9.880  0.5296 -0.0841  0.2564
  924MOL0     C21859   5.739  10.641   9.939  0.0717 -0.4374  0.0966
  924MOL0     O21860   5.665  10.567   9.831  0.4064  0.1928  0.1873
  924MOL0     C21861   5.532  10.545   9.855  0.0351  0.4311  0.6414
  924MOL0     C21862   5.480  10.446   9.774  0.6255  0.2033 -0.7137
  924MOL0     C21863   5.342  10.418   9.782 -0.5193  0.3729 -0.1509
  924MOL0     C21864   5.271  10.480   9.884  0.4037 -0.2702  0.2935
  924MOL0     C21865   5.126  10.449   9.898  0.0949  0.0417 -1.1454
  924MOL0     O21866   5.081  10.351   9.818  0.7650 -0.3358  0.0068
  924MOL0     C21867   4.941  10.340   9.823  0.6835 -0.1267 -0.1696
  924MOL0     C21868   4.867  10.355   9.699  0.0873  0.3532 -0.5777
  924MOL0     C21869   4.729  10.320   9.698 -0.1723 -0.3578  0.6993
  924MOL0     C21870   4.663  10.281   9.810 -0.3129 -0.3683 -0.1215
  924MOL0     O21871   4.532  10.237   9.804 -0.2334 -0.2444 -0.4171
  924MOL0     C21872   4.467  10.182   9.923 -0.3164  0.9829 -0.3615
  924MOL0     C21873   4.333  10.148   9.877 -0.1444  0.3667  0.7320
  924MOL0     C21874   4.266  10.100  10.008  0.2007 -0.4578  0.1143
  924MOL0     C21875   4.134  10.041   9.976 -0.4541 -0.3354  0.4038
  924MOL0     C21876   4.044  10.044  10.093 -0.6677 -1.4663 -0.7986
  924MOL0     C21877   4.086   9.952  10.215  0.0760 -0.0956  0.4521
  924MOL0     C21878   4.063  10.006  10.359  0.1175  0.7294  0.1489
  924MOL0     C21879   4.180  10.091  10.421  0.4757 -0.6273  0.6472
  924MOL0    Cl21880   4.135  10.173  10.575 -0.2916  0.2396  0.0850
  924MOL0     C21881   4.735  10.267   9.932 -0.0895 -0.7213 -0.4997
  924MOL0     C21882   4.875  10.291   9.938  0.2204 -0.3876  0.2032
  924MOL0     O21883   5.062  10.499   9.990  0.2546 -0.1634 -0.3043
  924MOL0     C21884   5.327  10.575   9.967 -0.1554  0.0026 -0.7670
  924MOL0     C21885   5.461  10.608   9.958  1.1591 -0.2301  0.1283
  924MOL0     N21886   6.051  10.947   9.822 -0.3615 -0.3759 -0.7429
  924MOL0     N21887   6.112  11.037   9.750  0.5086 -0.1943  0.4305
  924MOL0     C21888   7.315  11.206   9.448  0.9602  0.5613  0.3209
  924MOL0     C21889   7.444  11.263   9.434  0.0163  0.1218  0.3761
  924MOL0     C21890   7.910  11.256   9.347  0.1710  0.8804  0.0137
  924MOL0     C21891   8.040  11.217   9.381  0.3160 -0.2918  0.0471
  924MOL0     C21892   8.158  11.274   9.318  0.1874 -0.2181  0.2090
  924MOL0     C21893   8.140  11.369   9.220 -0.1855  0.4415 -0.2789
  924MOL0     O21894   8.255  11.411   9.150 -0.0076  0.0760 -0.0257
  924MOL0     C21895   8.248  11.468   9.021  0.4536 -0.0689  0.3955
  924MOL0     C21896   8.391  11.494   8.960 -1.3101  0.0092  0.0661
  924MOL0     C21897   8.461  11.593   9.048 -0.5592  0.3000  0.3269
  924MOL0     C21898   8.583  11.647   8.974  0.2497  0.2300  0.1415
  924MOL0     C21899   8.698  11.562   8.963 -1.0538  0.5042  0.3281
  924MOL0     C21900   8.803  11.495   8.958 -0.0623  0.2191 -1.0547
  924MOL0     C21901   8.009  11.416   9.189  0.0664  0.3579 -0.5555
  924MOL0     C21902   7.901  11.366   9.259  0.9050  0.4311 -0.2123
  924MOL0     H21903   7.616  10.999   9.328 -0.6906  0.2132 -0.1695
  924MOL0     H21904   7.406  10.882   9.380  0.8664 -0.8728 -1.0364
  924MOL0     H21905   7.145  10.909   9.284 -1.7933 -2.6995  1.2598
  924MOL0     H21906   7.081  11.080   9.308  4.6456  2.5587  2.8707
  924MOL0     H21907   6.989  10.847   9.466 -1.5016 -1.1586 -1.3212
  924MOL0     H21908   6.915  10.869   9.312 -0.6267 -0.1853 -0.4717
  924MOL0     H21909   6.849  11.101   9.367  6.7840 -1.5622 -2.3466
  924MOL0     H21910   6.912  11.099   9.523 -2.2122  1.7820 -0.5072
  924MOL0     H21911   6.684  10.915   9.448  2.6775 -2.4899  1.2537
  924MOL0     H21912   6.762  10.916   9.602  0.2676  1.0236  1.6359
  924MOL0     H21913   6.654  11.192   9.514 -3.0766  0.7168  2.1666
  924MOL0     H21914   6.712  11.149   9.659 -3.2470  1.0446  0.5964
  924MOL0     H21915   6.469  11.162   9.676 -0.8685 -1.6770  2.8973
  924MOL0     H21916   6.512  10.992   9.706  2.2120 -0.0792 -0.5784
  924MOL0     H21917   6.438  11.077   9.430 -0.6406  0.1316 -0.6941
  924MOL0     H21918   6.445  10.926   9.504 -0.0518  0.1842 -1.5183
  924MOL0     H21919   6.203  11.011   9.477 -0.8408  0.8406  0.1860
  924MOL0     H21920   6.246  11.159   9.579  2.7844  0.1939 -0.2357
  924MOL0     H21921   6.286  10.774   9.675  0.8513  0.3046  2.4146
  924MOL0     H21922   6.188  10.739   9.979 -1.3279  4.5455 -0.1208
  924MOL0     H21923   6.149  10.625   9.845  2.3529 -0.4880  0.1188
  924MOL0     H21924   5.958  10.795  10.023  0.7580 -0.1885  0.6645
  924MOL0     H21925   6.007  10.624  10.052  1.2944 -1.6452 -0.8076
  924MOL0     H21926   5.881  10.732   9.805 -1.7394 -1.0273 -0.8321
  924MOL0     H21927   5.907  10.561   9.825 -0.4388  0.2674 -0.8197
  924MOL0     H21928   5.696  10.742   9.947 -0.3629 -0.4804 -1.4055
  924MOL0     H21929   5.743  10.593  10.036 -0.9522  0.4111  0.5798
  924MOL0     H21930   5.535  10.398   9.694  2.8565 -0.0132  0.8534
  924MOL0     H21931   5.294  10.345   9.717  0.2695  0.8810 -1.3423
  924MOL0     H21932   4.924  10.383   9.611  2.9317  1.5933  1.5352
  924MOL0     H21933   4.687  10.312   9.598  0.7047  1.9454  0.0702
  924MOL0     H21934   4.445  10.248  10.008  1.7659  1.2898 -0.0260
  924MOL0     H21935   4.515  10.090   9.956 -1.1387  0.6859  0.0263
  924MOL0     H21936   4.332  10.065   9.806  0.8868  1.1837 -0.2831
  924MOL0     H21937   4.286  10.239   9.838 -3.2012 -2.1264 -2.0562
  924MOL0     H21938   4.257  10.186  10.074  2.4617 -2.1030  2.7744
  924MOL0     H21939   4.330  10.028  10.060  0.5540 -0.7527 -0.6956
  924MOL0     H21940   4.099  10.107   9.896  1.6260 -0.4872 -0.6858
  924MOL0     H21941   4.147   9.937   9.943  1.8793 -0.2004  0.7184
  924MOL0     H21942   3.946  10.014  10.056 -0.1865 -0.4747 -3.0261
  924MOL0     H21943   4.031  10.148  10.126 -1.0808 -1.4210 -1.0934
  924MOL0     H21944   4.187   9.913  10.211  0.2567  0.4431 -0.4089
  924MOL0     H21945   4.017   9.868  10.209 -1.8907  1.3779  1.0593
  924MOL0     H21946   3.977  10.073  10.354  0.0807  0.6592 -0.2063
  924MOL0     H21947   4.054   9.920  10.427  2.0584 -0.4269 -0.9759
  924MOL0     H21948   4.208  10.161  10.342 -2.0502 -1.2029 -0.8741
  924MOL0     H21949   4.271  10.036  10.447  1.0628  0.9831  2.1968
  924MOL0     H21950   4.686  10.236  10.023  0.1346 -1.4158 -0.6105
  924MOL0     H21951   4.928  10.281  10.032 -1.9704 -3.5123  1.2963
  924MOL0     H21952   5.262  10.611  10.046 -1.8181  0.9416 -2.4885
  924MOL0     H21953   5.508  10.669  10.035 -0.3942  0.5653  0.5026
  924MOL0     H21954   7.235  11.266   9.490 -0.5253  0.4038 -2.1264
  924MOL0     H21955   7.458  11.369   9.453 -0.0591  1.1367 -4.1253
  924MOL0     H21956   8.040  11.139   9.456  0.0933 -0.0014  0.3486
  924MOL0     H21957   8.260  11.247   9.344 -0.0402 -0.5673  0.7563
  924MOL0     H21958   8.185  11.556   9.036 -3.2024 -2.3522 -0.2515
  924MOL0     H21959   8.191  11.404   8.952 -1.4213  1.8456  0.0504
  924MOL0     H21960   8.442  11.397   8.964 -3.6715 -1.2984  0.8188
  924MOL0     H21961   8.395  11.533   8.858  4.0369  1.5317  0.5572
  924MOL0     H21962   8.494  11.555   9.145 -1.1342 -0.9736  0.0393
  924MOL0     H21963   8.389  11.675   9.053 -0.3087  0.7692 -2.4628
  924MOL0     H21964   8.560  11.688   8.875  0.1441  1.4880  0.6750
  924MOL0     H21965   8.608  11.735   9.035  2.3643 -1.8674  2.5455
  924MOL0     H21966   8.891  11.437   8.979 -0.0559 -0.0368 -1.7568
  924MOL0     H21967   7.999  11.500   9.121 -1.7461  0.4140 -0.2648
  924MOL0     H21968   7.803  11.410   9.242  1.8984  2.9306  0.0511
  925MOL0     O21969   9.834   2.110   1.643 -0.2909 -0.0710  0.5229
  925MOL0     C21970   9.882   2.197   1.568  0.4853  0.1392  0.5391
  925MOL0     O21971   9.811   2.295   1.503 -0.2747 -0.3361  0.9905
  925MOL0     C21972   9.679   2.288   1.498  0.8029 -0.7435 -0.0209
  925MOL0     C21973   9.597   2.327   1.604  0.4562  0.4715 -0.3937
  925MOL0     C21974   9.450   2.329   1.592 -0.1587  0.6397 -0.0280
  925MOL0     C21975   9.400   2.294   1.470  0.3004  0.7982 -0.4012
  925MOL0     O21976   9.267   2.294   1.441  0.4084  0.5700 -0.3332
  925MOL0     C21977   9.187   2.399   1.507 -0.2932  0.2634 -0.3040
  925MOL0     C21978   9.114   2.354   1.631 -0.4674  0.4138  1.1589
  925MOL0     C21979   8.974   2.298   1.587 -0.6131 -0.1191  0.0805
  925MOL0     C21980   8.883   2.279   1.708 -1.1772  1.2092 -0.1866
  925MOL0     C21981   8.768   2.190   1.658 -0.1752  0.1938  0.0204
  925MOL0     C21982   8.674   2.168   1.778  0.4943  0.1904  0.1752
  925MOL0     C21983   8.647   2.019   1.796  0.0596 -0.5088 -0.1427
  925MOL0     C21984   8.765   1.948   1.853 -0.7899 -0.8154 -0.5217
  925MOL0     N21985   8.760   1.921   2.001 -0.2202  0.3985  0.4240
  925MOL0     C21986   8.695   1.811   2.056 -0.6067 -0.3476  0.7413
  925MOL0     C21987   8.708   1.835   2.181 -0.2714  0.9933 -0.9640
  925MOL0     C21988   8.657   1.751   2.293 -0.2279 -0.0782  0.4952
  925MOL0     C21989   8.531   1.809   2.342  0.6395 -0.2567 -0.4175
  925MOL0     C21990   8.412   1.805   2.251  1.1299  0.7912 -0.7604
  925MOL0     C21991   8.290   1.852   2.328  0.7155  0.6678  0.9264
  925MOL0     O21992   8.165   1.839   2.253 -0.0023  0.0964 -0.0308
  925MOL0     C21993   8.045   1.848   2.328  0.2275  0.6733  0.0088
  925MOL0     C21994   8.049   1.899   2.456 -0.6193  0.1063  0.0909
  925MOL0     C21995   7.941   1.899   2.535  0.4778 -0.9776 -0.0780
  925MOL0     C21996   7.811   1.853   2.492  0.0384 -0.2952  0.4867
  925MOL0     C21997   7.700   1.865   2.583 -0.0956  0.7821 -0.2022
  925MOL0     O21998   7.584   1.839   2.520  0.1699 -0.3807 -0.3695
  925MOL0     C21999   7.468   1.853   2.589  1.0366  0.2413 -0.3334
  925MOL0     C22000   7.432   1.962   2.668 -0.1022  0.1086 -0.0234
  925MOL0     C22001   7.317   1.965   2.748  0.1253  0.4633  0.4785
  925MOL0     C22002   7.227   1.855   2.742  0.1346 -0.1509 -0.3518
  925MOL0     O22003   7.118   1.850   2.820 -0.2329 -0.4393  0.1822
  925MOL0     C22004   7.092   1.962   2.912  0.4984  0.4525 -1.0889
  925MOL0     C22005   6.956   1.942   2.994 -0.9319  0.2198 -0.5983
  925MOL0     C22006   6.961   2.037   3.108 -0.3381 -0.1885 -0.3686
  925MOL0     C22007   6.847   2.020   3.207 -0.1787 -0.0990  0.0813
  925MOL0     C22008   6.712   2.075   3.151 -0.3135  0.0052  0.5356
  925MOL0     C22009   6.610   2.059   3.263 -0.3734  0.6022 -0.2835
  925MOL0     C22010   6.474   2.114   3.215  0.2865  0.0471 -0.3197
  925MOL0     C22011   6.359   2.077   3.310 -0.3894 -1.0580  0.2839
  925MOL0    Cl22012   6.208   2.146   3.239 -0.2988 -0.1751 -0.2165
  925MOL0     C22013   7.254   1.746   2.655  0.5176  0.0332  0.1999
  925MOL0     C22014   7.376   1.742   2.577 -0.4913  0.7010 -0.0825
  925MOL0     O22015   7.710   1.882   2.701 -0.4753 -0.5145 -0.4970
  925MOL0     C22016   7.810   1.792   2.367  0.4318  0.2775 -0.1578
  925MOL0     C22017   7.927   1.785   2.287  0.8703 -0.7332 -0.2532
  925MOL0     N22018   8.778   1.949   2.203  0.4216 -0.3669 -0.5637
  925MOL0     N22019   8.808   2.009   2.093 -0.1526  0.2234  0.4895
  925MOL0     C22020   9.488   2.239   1.375  0.4532 -0.3656  0.1907
  925MOL0     C22021   9.626   2.239   1.385  0.6901 -0.4058  0.6435
  925MOL0     C22022  10.027   2.195   1.524 -0.2193 -0.7798  0.0370
  925MOL0     C22023  10.087   2.309   1.481 -0.6898  0.3317  1.1846
  925MOL0     C22024  10.223   2.313   1.445 -0.7066  0.7189 -0.5078
  925MOL0     C22025  10.300   2.191   1.449 -0.2700  0.7406  0.1777
  925MOL0     O22026  10.431   2.175   1.416  0.2807 -0.2998  0.2709
  925MOL0     C22027  10.513   2.288   1.378 -0.2243  0.8104 -0.8500
  925MOL0     C22028  10.644   2.231   1.321  0.2993 -0.6111 -0.3764
  925MOL0     C22029  10.766   2.255   1.405 -1.2081  0.3388  0.0511
  925MOL0     C22030  10.822   2.391   1.388 -0.6423  0.1059 -0.4784
  925MOL0     C22031  10.964   2.407   1.433 -0.1884  1.1436  0.5624
  925MOL0     C22032  11.073   2.440   1.472  0.5526 -0.6167  0.1586
  925MOL0     C22033  10.232   2.073   1.492  0.0076  0.1407 -1.5214
  925MOL0     C22034  10.099   2.076   1.536 -1.0584  0.5895 -0.7342
  925MOL0     H22035   9.654   2.352   1.692 -0.7164  0.6798  0.3224
  925MOL0     H22036   9.392   2.361   1.678 -2.3774 -1.8646 -0.4491
  925MOL0     H22037   9.116   2.443   1.436 -0.3626  0.7442  0.0566
  925MOL0     H22038   9.255   2.482   1.526  0.9874 -0.2899 -2.1701
  925MOL0     H22039   9.095   2.442   1.693 -4.0548  1.6878 -1.4076
  925MOL0     H22040   9.181   2.280   1.676 -1.7449 -1.3705  0.2527
  925MOL0     H22041   8.987   2.210   1.524 -0.0096  1.4866 -2.1336
  925MOL0     H22042   8.931   2.377   1.525  1.6992  1.1833  0.0276
  925MOL0     H22043   8.938   2.234   1.792  0.9611  0.6747 -1.7751
  925MOL0     H22044   8.842   2.373   1.745 -2.9309 -0.3275  2.0934
  925MOL0     H22045   8.808   2.092   1.629 -1.5401 -0.2610 -0.4031
  925MOL0     H22046   8.724   2.235   1.568  0.2041  0.6113  0.0399
  925MOL0     H22047   8.579   2.213   1.749  1.5094  1.5912 -1.0947
  925MOL0     H22048   8.706   2.216   1.871 -1.3681  2.5667 -0.3247
  925MOL0     H22049   8.566   2.003   1.868 -3.3911  2.2824 -3.0283
  925MOL0     H22050   8.614   1.976   1.701 -2.3896  0.6278  0.1048
  925MOL0     H22051   8.861   1.991   1.826  0.0646 -3.1409 -1.3919
  925MOL0     H22052   8.764   1.851   1.804  2.3296 -0.2422 -1.9639
  925MOL0     H22053   8.652   1.729   2.000 -0.7175  2.1530 -3.2328
  925MOL0     H22054   8.728   1.758   2.376  2.0110  0.9580 -1.3791
  925MOL0     H22055   8.652   1.644   2.270 -2.6497  0.1604 -0.3781
  925MOL0     H22056   8.551   1.911   2.374  2.0980 -0.2282 -1.3325
  925MOL0     H22057   8.497   1.754   2.430  0.1556  0.2291 -0.2984
  925MOL0     H22058   8.424   1.872   2.166  0.3616  0.5847 -1.0427
  925MOL0     H22059   8.398   1.700   2.224 -0.0253 -0.2533  3.1988
  925MOL0     H22060   8.308   1.956   2.355 -1.5660  0.6511  2.7558
  925MOL0     H22061   8.278   1.784   2.412 -0.2558  1.9903  1.8845
  925MOL0     H22062   8.139   1.948   2.492 -1.6678  2.6347 -0.5421
  925MOL0     H22063   7.960   1.937   2.635  1.8238 -2.5461  0.3037
  925MOL0     H22064   7.488   2.054   2.662 -1.4960  0.9243 -1.3865
  925MOL0     H22065   7.287   2.055   2.800  0.3220  0.6241  0.3125
  925MOL0     H22066   7.074   2.055   2.857  1.0167  2.2015  1.5027
  925MOL0     H22067   7.179   1.964   2.979  0.0284  0.3739 -0.4580
  925MOL0     H22068   6.959   1.846   3.046 -0.3701  0.7161  0.3085
  925MOL0     H22069   6.859   1.945   2.944 -1.8963  0.4024  1.2192
  925MOL0     H22070   6.966   2.138   3.067  0.2624  1.5444  3.4711
  925MOL0     H22071   7.056   2.029   3.161  0.1923  2.0571 -0.8858
  925MOL0     H22072   6.841   1.914   3.234  0.2207  0.1062  1.0105
  925MOL0     H22073   6.861   2.067   3.305  2.6738 -0.0293 -0.2853
  925MOL0     H22074   6.677   2.028   3.059 -1.1907  0.9725  0.3567
  925MOL0     H22075   6.729   2.181   3.130  1.0826 -0.7817 -2.9476
  925MOL0     H22076   6.632   2.105   3.360 -0.8624 -0.2635  0.2561
  925MOL0     H22077   6.597   1.951   3.274 -0.0730  0.6357  0.4482
  925MOL0     H22078   6.483   2.222   3.199  0.1113 -0.0398 -1.0363
  925MOL0     H22079   6.454   2.068   3.118  2.0321 -2.9210  0.6003
  925MOL0     H22080   6.382   2.136   3.399 -0.5641  0.2385 -0.5058
  925MOL0     H22081   6.347   1.973   3.343 -0.0276 -1.3010 -0.3184
  925MOL0     H22082   7.191   1.660   2.631  2.6527 -1.7265  0.5259
  925MOL0     H22083   7.395   1.671   2.497  1.1444  2.6144 -1.5207
  925MOL0     H22084   7.715   1.749   2.340  0.6630 -1.0606  1.0636
  925MOL0     H22085   7.912   1.735   2.192 -1.0595  1.8171 -1.4198
  925MOL0     H22086   9.441   2.213   1.281  2.2710 -1.5146 -0.4496
  925MOL0     H22087   9.676   2.192   1.301 -0.7933 -1.0699  0.0881
  925MOL0     H22088  10.035   2.403   1.465  1.6500  1.5997  0.6504
  925MOL0     H22089  10.271   2.407   1.418 -1.2261  0.9558 -0.6201
  925MOL0     H22090  10.541   2.351   1.463 -1.7542 -1.6362  1.6383
  925MOL0     H22091  10.453   2.342   1.305  0.6339  0.6730 -1.6883
  925MOL0     H22092  10.652   2.122   1.317  2.8756 -0.6029  1.6457
  925MOL0     H22093  10.652   2.285   1.226  0.1983 -0.1541 -0.1288
  925MOL0     H22094  10.851   2.186   1.393 -0.1399  1.5590  0.3153
  925MOL0     H22095  10.731   2.245   1.508 -1.4740  1.0523  0.0304
  925MOL0     H22096  10.827   2.417   1.282  1.5745 -0.2487 -0.5075
  925MOL0     H22097  10.755   2.466   1.430 -0.6530  0.8617 -1.7953
  925MOL0     H22098  11.167   2.472   1.511  1.8612 -2.0272 -1.6929
  925MOL0     H22099  10.289   1.981   1.493  3.7086  1.9718  3.9318
  925MOL0     H22100  10.051   1.990   1.582  0.7564  0.3794  0.9311
  926MOL0     O22101   3.444   1.177   5.706  0.5950  0.0296 -0.3212
  926MOL0     C22102   3.439   1.225   5.822  0.1291 -0.4526 -0.8754
  926MOL0     O22103   3.333   1.278   5.891  0.1193  0.2884 -0.1198
  926MOL0     C22104   3.209   1.278   5.836 -0.0327 -0.4937 -0.2409
  926MOL0     C22105   3.185   1.319   5.700  0.3341 -0.5106 -0.0953
  926MOL0     C22106   3.060   1.316   5.632 -0.6884 -0.1086 -0.1460
  926MOL0     C22107   2.941   1.289   5.714 -0.2707  0.2711  0.8574
  926MOL0     O22108   2.820   1.282   5.645 -0.1943  0.0057  0.1329
  926MOL0     C22109   2.702   1.268   5.726  0.8104 -0.6638 -0.0977
  926MOL0     C22110   2.589   1.338   5.636  0.3722 -0.3835 -0.2875
  926MOL0     C22111   2.574   1.271   5.501 -0.3534 -0.1228  0.8690
  926MOL0     C22112   2.478   1.342   5.405 -0.2093 -0.2102  0.8226
  926MOL0     C22113   2.334   1.291   5.430  0.1503 -0.2617 -0.2960
  926MOL0     C22114   2.229   1.352   5.332  0.7249  0.2084  0.0644
  926MOL0     C22115   2.089   1.340   5.383  0.4542 -0.1960 -0.0437
  926MOL0     C22116   1.991   1.379   5.273 -0.4055  0.3749  0.2719
  926MOL0     N22117   1.851   1.377   5.327 -0.4539  0.3120  0.2334
  926MOL0     C22118   1.789   1.479   5.396  1.7025 -0.6224  0.3903
  926MOL0     C22119   1.662   1.435   5.419  0.1168  0.7668 -0.8183
  926MOL0     C22120   1.545   1.501   5.481  0.1784  1.3130 -0.7332
  926MOL0     C22121   1.425   1.565   5.400 -0.6533  0.2187 -0.6357
  926MOL0     C22122   1.368   1.466   5.300 -0.5769  0.4494  0.1723
  926MOL0     C22123   1.226   1.483   5.254  0.3815 -0.1023  0.0994
  926MOL0     O22124   1.151   1.428   5.362 -0.5084 -0.4512 -0.1656
  926MOL0     C22125   1.021   1.451   5.372 -0.0294 -0.1980  0.3833
  926MOL0     C22126   0.940   1.509   5.280  0.6025 -0.1812 -0.3064
  926MOL0     C22127   0.795   1.508   5.299 -0.7699 -0.0055  0.1793
  926MOL0     C22128   0.734   1.456   5.417 -0.5352 -1.0287  0.0344
  926MOL0     C22129   0.589   1.487   5.443  0.5925  0.5082  0.2298
  926MOL0     O22130   0.517   1.394   5.517 -0.0566  0.1688 -0.2882
  926MOL0     C22131   0.379   1.412   5.544 -0.3509 -0.0227  0.0428
  926MOL0     C22132   0.293   1.518   5.490  0.2147 -0.5036 -0.6137
  926MOL0     C22133   0.167   1.541   5.554 -0.6613  0.4299  0.0254
  926MOL0     C22134   0.103   1.453   5.637  0.6823 -0.0701  0.0992
  926MOL0     O22135  -0.028   1.476   5.676  0.2706  0.6110  0.0547
  926MOL0     C22136  -0.066   1.448   5.808 -0.4087 -0.4981 -0.9423
  926MOL0     C22137  -0.218   1.469   5.823 -0.4340  0.2840  0.3693
  926MOL0     C22138  -0.253   1.603   5.773  0.6508 -0.8772 -0.0787
  926MOL0     C22139  -0.402   1.633   5.798  0.4514 -0.3586  0.2248
  926MOL0     C22140  -0.429   1.768   5.745 -0.0108  0.1721 -1.2234
  926MOL0     C22141  -0.561   1.821   5.809  0.3375  0.1273 -0.2473
  926MOL0     C22142  -0.690   1.755   5.760  0.3548 -0.0596  0.4918
  926MOL0     C22143  -0.795   1.857   5.781  0.8890  0.7789 -0.6177
  926MOL0    Cl22144  -0.947   1.760   5.786  0.0471  0.0424  0.2465
  926MOL0     C22145   0.185   1.347   5.680  0.1225 -0.3820 -0.1181
  926MOL0     C22146   0.321   1.329   5.635 -0.7298  0.5013 -0.6764
  926MOL0     O22147   0.548   1.587   5.385  0.2465  0.1389  0.1690
  926MOL0     C22148   0.814   1.393   5.503  0.0875  0.3797  0.5393
  926MOL0     C22149   0.954   1.398   5.486  0.6426 -0.1041 -1.2090
  926MOL0     N22150   1.647   1.312   5.355 -0.2023 -0.6969  0.1002
  926MOL0     N22151   1.759   1.281   5.299 -0.2790  0.0644  0.2079
  926MOL0     C22152   2.962   1.253   5.853 -0.0690 -0.6528 -0.1076
  926MOL0     C22153   3.097   1.244   5.916  0.1327  0.2793  0.2362
  926MOL0     C22154   3.576   1.232   5.889 -0.0076 -0.2853  0.5972
  926MOL0     C22155   3.589   1.286   6.019 -0.3466 -0.0276  0.9230
  926MOL0     C22156   3.718   1.293   6.079 -0.0924  0.9660 -0.2093
  926MOL0     C22157   3.829   1.229   6.021 -0.1238  0.1269  0.0313
  926MOL0     O22158   3.943   1.240   6.102 -0.1471 -0.1008  0.0079
  926MOL0     C22159   4.045   1.148   6.078  0.6358  0.3170 -0.7077
  926MOL0     C22160   4.147   1.129   6.193 -0.0888 -0.2906 -0.1337
  926MOL0     C22161   4.092   1.109   6.338  0.4628  0.1370  0.5253
  926MOL0     C22162   4.059   0.968   6.372 -0.9899 -0.0629 -0.1524
  926MOL0     C22163   4.188   0.886   6.395  0.2311 -0.3476 -0.3865
  926MOL0     C22164   4.283   0.830   6.430  0.4852 -1.6297  0.7999
  926MOL0     C22165   3.811   1.178   5.893  0.5776  0.5379  0.8441
  926MOL0     C22166   3.689   1.166   5.830 -0.4319 -0.4583 -0.5861
  926MOL0     H22167   3.271   1.340   5.637 -0.1828  1.9675 -0.0970
  926MOL0     H22168   3.044   1.343   5.529  0.4365 -0.6367 -0.4713
  926MOL0     H22169   2.705   1.328   5.817  0.4772  2.1045 -1.8169
  926MOL0     H22170   2.671   1.168   5.758 -0.7274  0.2762  1.4947
  926MOL0     H22171   2.613   1.441   5.607 -3.3650  1.2738  1.8487
  926MOL0     H22172   2.497   1.338   5.695  0.9156 -2.4988  0.6491
  926MOL0     H22173   2.549   1.167   5.522  0.4927 -0.0433  2.3465
  926MOL0     H22174   2.667   1.269   5.444 -1.0934 -1.0628 -0.3674
  926MOL0     H22175   2.462   1.450   5.418 -1.9894 -0.5463  1.8325
  926MOL0     H22176   2.499   1.324   5.299 -0.6503  1.4279  0.4261
  926MOL0     H22177   2.305   1.330   5.528  0.1070 -3.3173  1.0055
  926MOL0     H22178   2.322   1.183   5.425 -1.8543 -0.0164 -3.5279
  926MOL0     H22179   2.245   1.294   5.240  0.0570  1.3078 -0.7619
  926MOL0     H22180   2.246   1.457   5.307 -0.6998  0.3044 -0.6075
  926MOL0     H22181   2.071   1.236   5.412 -0.4023  0.0554  0.3859
  926MOL0     H22182   2.062   1.414   5.459  0.1704 -1.3788  1.0497
  926MOL0     H22183   1.993   1.315   5.185 -0.1848  0.9533 -0.1530
  926MOL0     H22184   2.021   1.480   5.242  1.4451 -0.3283 -0.3899
  926MOL0     H22185   1.824   1.571   5.442 -0.7614 -0.4816  2.1425
  926MOL0     H22186   1.592   1.585   5.533  0.9365  1.5310 -1.7431
  926MOL0     H22187   1.498   1.433   5.552  1.7597  2.7205  1.7840
  926MOL0     H22188   1.452   1.659   5.351 -0.2979 -1.4736 -3.9370
  926MOL0     H22189   1.345   1.580   5.473 -1.9638  0.2633 -2.0325
  926MOL0     H22190   1.428   1.466   5.208 -0.3309  1.1747  0.3264
  926MOL0     H22191   1.391   1.369   5.346  0.4599 -0.1176 -1.4402
  926MOL0     H22192   1.205   1.419   5.168 -0.9982  0.1753  0.2037
  926MOL0     H22193   1.207   1.582   5.211 -1.6672 -0.9193 -1.0391
  926MOL0     H22194   0.967   1.538   5.179 -0.6218  0.5167 -0.4599
  926MOL0     H22195   0.726   1.541   5.222 -1.7819  1.3029  1.5950
  926MOL0     H22196   0.325   1.589   5.415  2.3184 -1.6054 -0.8580
  926MOL0     H22197   0.113   1.630   5.527 -0.5424  0.4126 -0.2747
  926MOL0     H22198  -0.013   1.511   5.880  0.6630 -2.7877  0.3974
  926MOL0     H22199  -0.039   1.345   5.832  0.1748  0.0142  0.7085
  926MOL0     H22200  -0.237   1.473   5.930 -1.7279  4.1940  0.1623
  926MOL0     H22201  -0.267   1.382   5.778 -2.6984  0.7884  1.7264
  926MOL0     H22202  -0.236   1.614   5.666 -0.6589 -1.9283 -0.4331
  926MOL0     H22203  -0.180   1.669   5.819 -1.8833 -0.2259  3.4701
  926MOL0     H22204  -0.454   1.550   5.750  1.7661 -1.1930  0.1775
  926MOL0     H22205  -0.421   1.637   5.905  0.3489  1.4183  0.1779
  926MOL0     H22206  -0.435   1.762   5.636 -3.6202 -2.0342 -1.0833
  926MOL0     H22207  -0.344   1.833   5.765  0.0178  1.0010 -3.6794
  926MOL0     H22208  -0.563   1.927   5.779 -1.2916  0.1138 -0.2790
  926MOL0     H22209  -0.550   1.812   5.917  1.2894 -2.0003 -0.4841
  926MOL0     H22210  -0.679   1.723   5.656  0.8042 -1.1297  0.8497
  926MOL0     H22211  -0.717   1.672   5.826 -2.3504  0.5313  0.2505
  926MOL0     H22212  -0.798   1.935   5.703 -0.8773  1.1775 -0.1884
  926MOL0     H22213  -0.790   1.905   5.879  0.6157 -0.1719 -0.1266
  926MOL0     H22214   0.135   1.284   5.753 -2.6742  0.7325 -0.9456
  926MOL0     H22215   0.373   1.245   5.680 -0.8922  1.1378  0.7447
  926MOL0     H22216   0.770   1.328   5.578 -1.9766  0.1462 -0.8033
  926MOL0     H22217   1.020   1.349   5.557 -0.7288 -1.2403 -0.6658
  926MOL0     H22218   2.877   1.222   5.912 -1.0521 -3.6105 -2.7683
  926MOL0     H22219   3.094   1.202   6.016 -0.2992 -1.6665 -0.5505
  926MOL0     H22220   3.505   1.333   6.070 -0.6673  1.3697 -0.8098
  926MOL0     H22221   3.733   1.334   6.178  1.2450 -0.4852  0.2250
  926MOL0     H22222   4.099   1.165   5.985 -0.3694  1.9459 -1.0179
  926MOL0     H22223   4.002   1.051   6.052  1.6627  0.1681 -1.9516
  926MOL0     H22224   4.202   1.036   6.175  0.5345 -0.8258  3.6245
  926MOL0     H22225   4.205   1.222   6.194 -2.1093  1.1725 -3.1053
  926MOL0     H22226   3.999   1.167   6.348  1.6313  2.5558 -1.3967
  926MOL0     H22227   4.159   1.153   6.412 -0.5066  1.1450  0.8320
  926MOL0     H22228   3.993   0.971   6.459  0.6916 -2.7715  1.3697
  926MOL0     H22229   4.002   0.924   6.290  0.5906 -1.0768 -0.7752
  926MOL0     H22230   4.372   0.792   6.477  0.4880 -2.3462  0.2470
  926MOL0     H22231   3.898   1.150   5.834  0.4116 -0.2139  0.9369
  926MOL0     H22232   3.694   1.119   5.732  0.5038 -2.3682  0.3158
  927MOL0     O22233   1.080   3.591   9.351  0.4688  0.4172  0.3477
  927MOL0     C22234   1.145   3.553   9.449 -0.7304  0.6247 -0.1272
  927MOL0     O22235   1.119   3.589   9.584 -0.6002 -0.5365 -0.3828
  927MOL0     C22236   1.033   3.690   9.620 -1.3595 -0.3979 -0.0043
  927MOL0     C22237   0.922   3.731   9.544  0.3715  0.1371  0.2893
  927MOL0     C22238   0.836   3.822   9.599  0.5922  1.0096  0.9196
  927MOL0     C22239   0.846   3.863   9.729  0.0785 -0.4342 -0.2603
  927MOL0     O22240   0.747   3.945   9.782  0.2488 -0.2661 -0.0317
  927MOL0     C22241   0.801   4.077   9.785 -0.1726 -0.9251  0.0597
  927MOL0     C22242   0.762   4.144   9.911  1.2615  0.0618  0.9626
  927MOL0     C22243   0.824   4.080  10.040 -0.2508  0.5801 -0.4827
  927MOL0     C22244   0.800   4.167  10.160  0.6442 -0.9708 -0.4458
  927MOL0     C22245   0.649   4.171  10.206  0.3181 -0.1428 -0.3202
  927MOL0     C22246   0.591   4.029  10.224  0.2515  0.3116 -0.4034
  927MOL0     C22247   0.463   4.037  10.309 -1.0469  0.3240  0.0919
  927MOL0     C22248   0.334   4.059  10.224  0.0751 -0.2956  0.3045
  927MOL0     N22249   0.220   4.113  10.311  0.3525 -0.0625  0.4469
  927MOL0     C22250   0.134   4.042  10.390  0.6227 -0.2826 -0.5438
  927MOL0     C22251   0.026   4.131  10.417  0.2124  0.1087  0.6986
  927MOL0     C22252  -0.081   4.097  10.514 -0.1616  0.5536  0.4960
  927MOL0     C22253  -0.221   4.124  10.463  1.1103 -0.7048 -0.0977
  927MOL0     C22254  -0.324   4.050  10.550 -0.5463 -0.2045 -0.3725
  927MOL0     C22255  -0.465   4.091  10.515 -1.2432 -0.9574  0.1406
  927MOL0     O22256  -0.492   4.222  10.564  0.5583 -0.7701 -0.3756
  927MOL0     C22257  -0.625   4.263  10.595 -0.3825 -0.2331  0.7918
  927MOL0     C22258  -0.641   4.380  10.656 -0.5196 -0.3134 -0.7737
  927MOL0     C22259  -0.768   4.423  10.685  0.0874  0.6368 -0.2362
  927MOL0     C22260  -0.880   4.348  10.655 -0.6248  0.0179 -0.4189
  927MOL0     C22261  -1.017   4.397  10.705 -0.0803  0.0369  0.6027
  927MOL0     O22262  -1.033   4.530  10.711 -0.0075  0.0254 -0.3766
  927MOL0     C22263  -1.147   4.572  10.768  0.4426 -0.2893  0.0771
  927MOL0     C22264  -1.146   4.611  10.902 -0.6695 -0.4972 -0.2037
  927MOL0     C22265  -1.271   4.630  10.970  0.2128 -0.5037  0.7069
  927MOL0     C22266  -1.388   4.616  10.895 -0.2813 -0.6725 -0.6260
  927MOL0     O22267  -1.516   4.638  10.952  0.0128  0.2806  0.0887
  927MOL0     C22268  -1.537   4.592  11.086  0.3384 -0.6563 -0.5028
  927MOL0     C22269  -1.694   4.597  11.116  1.0149 -0.0684  0.0173
  927MOL0     C22270  -1.771   4.478  11.045  0.0210 -0.6324 -0.1494
  927MOL0     C22271  -1.743   4.350  11.125  0.3222 -0.7791  0.1664
  927MOL0     C22272  -1.834   4.241  11.068 -0.6351  0.1567 -0.6604
  927MOL0     C22273  -1.801   4.105  11.128  0.0449  0.2613  0.7710
  927MOL0     C22274  -1.891   3.988  11.061  0.9271  0.0917  0.9487
  927MOL0     C22275  -1.889   3.868  11.158  0.4965 -0.3720  0.5533
  927MOL0    Cl22276  -1.714   3.805  11.178  0.1646 -0.5995 -0.0488
  927MOL0     C22277  -1.392   4.598  10.759 -0.2693 -0.7060  0.5602
  927MOL0     C22278  -1.271   4.567  10.702  0.6339 -0.3915  0.2391
  927MOL0     O22279  -1.108   4.314  10.712  0.8553 -0.2533 -0.3586
  927MOL0     C22280  -0.870   4.227  10.587 -0.0681  0.3943  0.4391
  927MOL0     C22281  -0.735   4.190  10.558  0.5690 -0.0464  0.2423
  927MOL0     N22282   0.056   4.251  10.354 -0.0483  0.2296 -0.6012
  927MOL0     N22283   0.164   4.235  10.290  0.3009  0.0105 -0.2676
  927MOL0     C22284   0.946   3.818   9.811 -0.2158 -0.9493 -0.3107
  927MOL0     C22285   1.047   3.735   9.757  0.3785 -0.2420  0.0502
  927MOL0     C22286   1.274   3.491   9.427 -0.2437  0.0941 -0.0269
  927MOL0     C22287   1.324   3.441   9.309  0.1788  0.3637  0.3724
  927MOL0     C22288   1.446   3.370   9.296  0.0740  0.4388 -0.0500
  927MOL0     C22289   1.529   3.351   9.408 -0.1835  0.5773 -0.3310
  927MOL0     O22290   1.649   3.285   9.389 -0.3258 -0.3989  0.3663
  927MOL0     C22291   1.733   3.268   9.505  0.3495  0.5552 -0.4517
  927MOL0     C22292   1.859   3.202   9.454 -0.3579 -0.2917 -0.2760
  927MOL0     C22293   1.965   3.167   9.554 -0.5781  0.0523  0.2183
  927MOL0     C22294   1.983   3.260   9.676  0.6416  0.5278 -0.7901
  927MOL0     C22295   1.870   3.231   9.769  0.0128  0.7703 -0.2005
  927MOL0     C22296   1.773   3.201   9.833 -0.0007  0.0404 -0.7747
  927MOL0     C22297   1.485   3.395   9.531  0.6912  0.0086 -0.8956
  927MOL0     C22298   1.358   3.468   9.544 -0.3612  0.3921 -0.3625
  927MOL0     H22299   0.909   3.708   9.439 -0.8136 -3.3608  1.0475
  927MOL0     H22300   0.749   3.853   9.541 -0.9611 -1.0520  2.0010
  927MOL0     H22301   0.765   4.124   9.693  0.2198  0.5205  0.6076
  927MOL0     H22302   0.910   4.086   9.797 -0.5515  1.4785  2.9690
  927MOL0     H22303   0.652   4.147   9.916  1.2700  2.1744  0.4744
  927MOL0     H22304   0.783   4.250   9.902 -0.8932  0.4316 -0.3749
  927MOL0     H22305   0.932   4.071  10.023 -0.2370  2.7045 -1.9308
  927MOL0     H22306   0.780   3.981  10.051 -0.1558  0.6352  0.4945
  927MOL0     H22307   0.857   4.134  10.247  0.6599  0.1088 -0.0244
  927MOL0     H22308   0.825   4.271  10.135 -1.3217 -0.4911 -0.5316
  927MOL0     H22309   0.592   4.222  10.127  1.8008 -0.4320 -1.6296
  927MOL0     H22310   0.640   4.232  10.296  1.7042  3.0025 -2.1621
  927MOL0     H22311   0.665   3.983  10.290 -2.3436 -0.8227  1.9264
  927MOL0     H22312   0.566   3.981  10.129 -1.1202  1.3566 -0.6165
  927MOL0     H22313   0.443   3.948  10.370 -0.3143  2.0711  3.0740
  927MOL0     H22314   0.470   4.119  10.382  1.8111  0.5341 -0.3276
  927MOL0     H22315   0.309   3.972  10.163  0.1829  0.2699 -0.5755
  927MOL0     H22316   0.356   4.129  10.142  0.3983  0.3548  0.9339
  927MOL0     H22317   0.125   3.945  10.438  0.3004  0.7178  1.5320
  927MOL0     H22318  -0.060   4.164  10.597 -1.4941  1.7949 -0.1251
  927MOL0     H22319  -0.072   3.990  10.537 -2.8580  0.2383  0.3896
  927MOL0     H22320  -0.220   4.089  10.360  0.9919 -1.6242  0.2078
  927MOL0     H22321  -0.231   4.233  10.469 -1.5218 -0.8083 -1.2210
  927MOL0     H22322  -0.305   3.943  10.546 -2.2183 -0.5285 -0.6144
  927MOL0     H22323  -0.320   4.084  10.655 -0.1205  0.1635 -0.5058
  927MOL0     H22324  -0.531   4.016  10.560 -3.0053 -1.0940 -2.4491
  927MOL0     H22325  -0.482   4.081  10.408 -0.4486 -3.2807  0.1918
  927MOL0     H22326  -0.558   4.442  10.688  0.2663 -2.2976  1.3409
  927MOL0     H22327  -0.787   4.515  10.741 -3.9881 -0.8839  1.2366
  927MOL0     H22328  -1.053   4.609  10.958 -0.8613 -2.9114  0.1428
  927MOL0     H22329  -1.278   4.658  11.075 -1.5073  1.0362  0.2281
  927MOL0     H22330  -1.494   4.656  11.164 -0.8437  1.0052 -1.1650
  927MOL0     H22331  -1.496   4.492  11.105 -0.0343 -0.7258 -0.0309
  927MOL0     H22332  -1.731   4.694  11.079 -1.6808 -0.9548  0.1413
  927MOL0     H22333  -1.716   4.608  11.222 -0.4416 -1.2047 -0.1377
  927MOL0     H22334  -1.737   4.464  10.942 -3.2143  0.1848 -1.4400
  927MOL0     H22335  -1.878   4.497  11.039  0.0179 -1.0111 -2.4281
  927MOL0     H22336  -1.639   4.318  11.117 -0.5368 -3.9646  0.4977
  927MOL0     H22337  -1.779   4.367  11.227 -0.9918 -1.9335 -0.0676
  927MOL0     H22338  -1.826   4.237  10.959 -0.8645 -1.9901 -0.6221
  927MOL0     H22339  -1.939   4.261  11.093 -1.0611 -1.7896 -0.7672
  927MOL0     H22340  -1.810   4.110  11.236  1.1686 -0.3126  0.9069
  927MOL0     H22341  -1.696   4.078  11.115  1.7442  5.4230  1.6936
  927MOL0     H22342  -1.994   4.024  11.046  1.4206  1.6861  1.1448
  927MOL0     H22343  -1.859   3.964  10.960  0.9229  0.3199  0.8916
  927MOL0     H22344  -1.958   3.793  11.120  1.6468 -0.2070 -2.1398
  927MOL0     H22345  -1.936   3.891  11.254 -1.2473 -1.5218  0.0126
  927MOL0     H22346  -1.488   4.606  10.709 -0.3684  0.7478  0.9262
  927MOL0     H22347  -1.280   4.553  10.595 -0.1485  0.3076  0.2010
  927MOL0     H22348  -0.954   4.169  10.551  0.7221  0.1393 -1.0957
  927MOL0     H22349  -0.718   4.090  10.520 -1.5231  0.0949 -1.1949
  927MOL0     H22350   0.959   3.841   9.916 -0.6319 -1.5110 -0.1270
  927MOL0     H22351   1.134   3.694   9.806  0.6720 -0.2301 -0.4501
  927MOL0     H22352   1.263   3.449   9.220 -0.6275 -1.4660  0.6958
  927MOL0     H22353   1.475   3.334   9.198  2.6875  1.9204  0.0803
  927MOL0     H22354   1.682   3.206   9.579 -0.4254  1.9315  0.2172
  927MOL0     H22355   1.750   3.366   9.551 -4.8439  1.2857  0.6370
  927MOL0     H22356   1.836   3.110   9.400 -2.4727  0.4445 -0.7313
  927MOL0     H22357   1.903   3.271   9.381  2.7998 -1.0299  0.7994
  927MOL0     H22358   2.064   3.161   9.507 -1.7695  0.9307 -2.5619
  927MOL0     H22359   1.945   3.067   9.592 -2.7561  0.2455 -0.2861
  927MOL0     H22360   2.075   3.243   9.734 -0.5744  0.4400  1.2068
  927MOL0     H22361   1.974   3.365   9.645 -2.6867  0.0907 -1.6235
  927MOL0     H22362   1.682   3.174   9.883  0.5823  1.6561  1.3177
  927MOL0     H22363   1.545   3.398   9.621  3.8200  0.6210 -2.8656
  927MOL0     H22364   1.339   3.484   9.649  0.3007 -1.6949  0.1320
  928MOL0     O22365  10.650  11.064   4.778 -0.2836  0.6136 -0.0169
  928MOL0     C22366  10.595  11.151   4.717  0.0585 -0.1602  0.6869
  928MOL0     O22367  10.471  11.211   4.752 -0.0311  0.0335 -0.0246
  928MOL0     C22368  10.399  11.138   4.846  0.4032  0.6780 -0.2255
  928MOL0     C22369  10.439  11.124   4.977 -0.2155 -0.0047 -0.1786
  928MOL0     C22370  10.370  11.051   5.064 -0.5877  0.1959 -0.0691
  928MOL0     C22371  10.249  10.995   5.030 -0.1518 -0.0386 -0.1764
  928MOL0     O22372  10.164  10.929   5.120  0.7978  0.0111 -0.7407
  928MOL0     C22373  10.237  10.855   5.224 -0.0766 -0.6881 -0.0611
  928MOL0     C22374  10.136  10.767   5.298  0.0635  0.8388 -0.1149
  928MOL0     C22375  10.047  10.851   5.398 -0.0316  0.8478 -0.2580
  928MOL0     C22376   9.912  10.773   5.419  0.2756  0.7423 -0.0166
  928MOL0     C22377   9.829  10.838   5.533  1.7777  0.6767  0.1043
  928MOL0     C22378   9.685  10.780   5.532  0.5608  0.3682 -0.0540
  928MOL0     C22379   9.602  10.856   5.637  0.6927  0.2267 -0.4567
  928MOL0     C22380   9.520  10.749   5.708 -0.0073 -0.0849  0.9632
  928MOL0     N22381   9.406  10.809   5.776 -0.4156 -1.0439  0.4371
  928MOL0     C22382   9.277  10.795   5.731 -0.0113  0.0706  0.2735
  928MOL0     C22383   9.205  10.866   5.829 -0.3969 -0.4248  0.3644
  928MOL0     C22384   9.052  10.872   5.821  0.2417 -0.0943 -0.3690
  928MOL0     C22385   8.971  10.754   5.879 -0.1335 -0.1200  0.3785
  928MOL0     C22386   8.940  10.754   6.031  0.1794 -0.2945 -0.0699
  928MOL0     C22387   8.838  10.840   6.075  0.6796 -0.1190  0.1231
  928MOL0     O22388   8.718  10.837   5.988 -0.3490  0.4173 -0.5995
  928MOL0     C22389   8.629  10.732   6.007 -0.3446 -0.5066  0.1906
  928MOL0     C22390   8.591  10.651   5.903  0.3933 -1.1006 -0.0619
  928MOL0     C22391   8.507  10.535   5.926  0.5513 -0.0727 -0.1788
  928MOL0     C22392   8.463  10.499   6.049  0.0457 -0.5284  0.3651
  928MOL0     C22393   8.368  10.392   6.070 -0.1523 -1.2045  0.5213
  928MOL0     O22394   8.291  10.344   5.968  0.2042  0.1383 -0.3829
  928MOL0     C22395   8.188  10.254   5.986  0.0359  0.2710 -0.6626
  928MOL0     C22396   8.181  10.144   6.082  0.2139 -0.6945 -0.4789
  928MOL0     C22397   8.072  10.064   6.080 -0.1132 -0.1410 -0.4060
  928MOL0     C22398   7.972  10.066   5.983 -0.3790 -0.4502  0.4283
  928MOL0     O22399   7.871   9.971   5.984  0.1126 -0.6217  0.0876
  928MOL0     C22400   7.738  10.047   5.993 -0.5731 -0.5643 -0.4312
  928MOL0     C22401   7.632   9.943   6.021 -0.7353  0.9060 -0.0542
  928MOL0     C22402   7.495   9.999   6.021  0.3512 -0.3796  0.5057
  928MOL0     C22403   7.460  10.075   6.147  0.6644 -0.5578 -0.2334
  928MOL0     C22404   7.449   9.994   6.279  1.1813 -0.9983  0.6382
  928MOL0     C22405   7.325   9.899   6.292 -0.5244 -0.7534  1.0538
  928MOL0     C22406   7.194   9.978   6.306 -0.4185  0.0879  0.4261
  928MOL0     C22407   7.075   9.899   6.255  0.2741  0.1253 -0.3363
  928MOL0    Cl22408   7.081   9.895   6.075  0.4358 -0.1788 -0.1328
  928MOL0     C22409   7.975  10.171   5.891  0.0611 -0.6790 -0.3623
  928MOL0     C22410   8.084  10.266   5.892 -0.0431 -0.1371 -0.7105
  928MOL0     O22411   8.361  10.365   6.191 -0.3264  0.2729 -0.4036
  928MOL0     C22412   8.514  10.577   6.153 -0.5238 -0.6540  0.3871
  928MOL0     C22413   8.594  10.690   6.137 -0.5212  0.2798  1.0179
  928MOL0     N22414   9.292  10.909   5.929 -0.0433 -0.7163 -0.0324
  928MOL0     N22415   9.411  10.886   5.896 -0.2296 -0.7762  0.9675
  928MOL0     C22416  10.202  11.006   4.899  0.4206  0.5349  0.7153
  928MOL0     C22417  10.283  11.076   4.805  0.1262  0.0958 -0.4935
  928MOL0     C22418  10.675  11.229   4.621 -1.1231  0.3138  0.1905
  928MOL0     C22419  10.628  11.342   4.549 -0.1532  0.2367  0.2382
  928MOL0     C22420  10.709  11.423   4.469  0.1039  0.1482 -0.8083
  928MOL0     C22421  10.844  11.395   4.457  0.0024 -0.4837  0.1578
  928MOL0     O22422  10.913  11.481   4.372 -0.2518 -0.3872 -0.1481
  928MOL0     C22423  11.044  11.448   4.331  0.4076  1.1914  0.4606
  928MOL0     C22424  11.094  11.558   4.236 -0.3232 -0.4241 -1.1588
  928MOL0     C22425  11.133  11.502   4.103 -0.4755 -0.4594  0.1615
  928MOL0     C22426  11.258  11.421   4.104  0.5601  0.4789  0.4091
  928MOL0     C22427  11.284  11.352   3.978 -0.4207 -0.9755 -0.2929
  928MOL0     C22428  11.302  11.317   3.861 -0.2622 -0.1098 -0.2661
  928MOL0     C22429  10.894  11.281   4.523 -0.2415 -0.4547 -0.2237
  928MOL0     C22430  10.812  11.196   4.602  0.5346 -0.0206 -0.1952
  928MOL0     H22431  10.520  11.185   5.015  0.2804 -0.2144 -0.8954
  928MOL0     H22432  10.415  11.063   5.163 -0.3139  1.5077 -0.3312
  928MOL0     H22433  10.283  10.921   5.298  2.5384  0.7763 -2.8078
  928MOL0     H22434  10.309  10.801   5.163  0.0433  0.8773 -1.3484
  928MOL0     H22435  10.167  10.677   5.351 -4.0727 -0.4099  0.5050
  928MOL0     H22436  10.058  10.731   5.230 -1.6144 -1.0513  2.6263
  928MOL0     H22437  10.034  10.956   5.368  0.2754  1.5483  1.8706
  928MOL0     H22438  10.089  10.855   5.499  1.0919  0.9521 -0.7181
  928MOL0     H22439   9.858  10.772   5.324 -0.2986  1.1840  0.2951
  928MOL0     H22440   9.929  10.668   5.447 -1.6515  0.2544 -0.4540
  928MOL0     H22441   9.824  10.947   5.520 -1.2777  0.7430  0.9948
  928MOL0     H22442   9.878  10.816   5.628 -2.1308  2.3459  2.7584
  928MOL0     H22443   9.704  10.672   5.539 -2.0858 -0.1451 -0.0672
  928MOL0     H22444   9.624  10.783   5.442 -1.5136 -0.2735  1.2686
  928MOL0     H22445   9.672  10.904   5.706  2.0512 -0.1075 -1.5656
  928MOL0     H22446   9.537  10.935   5.598  0.0804 -0.6343 -1.2198
  928MOL0     H22447   9.582  10.702   5.785  0.6748 -1.5280 -0.4268
  928MOL0     H22448   9.488  10.670   5.640  0.7041 -0.5475  1.1557
  928MOL0     H22449   9.236  10.740   5.647 -2.0752  0.4451  0.9683
  928MOL0     H22450   9.031  10.887   5.714  1.6315  0.3285 -0.6122
  928MOL0     H22451   9.010  10.950   5.885 -1.8032 -4.3650  4.1370
  928MOL0     H22452   9.030  10.667   5.848 -1.6152 -0.8192 -0.6279
  928MOL0     H22453   8.878  10.744   5.822 -0.2846 -3.4040  1.0190
  928MOL0     H22454   8.929  10.654   6.073 -0.5491  0.6217  2.0846
  928MOL0     H22455   9.025  10.782   6.093 -1.4777  0.0544  2.1761
  928MOL0     H22456   8.879  10.941   6.082  0.6553 -0.0798 -0.3145
  928MOL0     H22457   8.821  10.805   6.177  1.8756  0.3349  0.4991
  928MOL0     H22458   8.636  10.669   5.806  2.8452  0.1427  1.2233
  928MOL0     H22459   8.489  10.470   5.842  2.5722 -1.6531  0.5323
  928MOL0     H22460   8.256  10.134   6.159  0.0816  3.9690  0.5874
  928MOL0     H22461   8.097   9.979   6.143 -2.2061 -4.1237 -4.3695
  928MOL0     H22462   7.717  10.112   5.907  0.9568  0.4135 -0.1095
  928MOL0     H22463   7.750  10.115   6.078  0.7672 -1.0197 -0.2453
  928MOL0     H22464   7.648   9.888   6.115 -3.5606 -4.3207 -2.2266
  928MOL0     H22465   7.643   9.868   5.942  0.9312  2.4108 -1.3378
  928MOL0     H22466   7.414   9.930   5.994  1.0649 -0.8920 -0.3513
  928MOL0     H22467   7.505  10.065   5.934 -0.2105 -1.0812 -0.1102
  928MOL0     H22468   7.547  10.140   6.162 -1.8427  3.0625 -0.1746
  928MOL0     H22469   7.373  10.141   6.143  0.9707 -0.0781  0.6208
  928MOL0     H22470   7.437  10.062   6.364  2.6008  0.9621 -0.6605
  928MOL0     H22471   7.538   9.931   6.295  2.5136  0.7943  0.5539
  928MOL0     H22472   7.337   9.827   6.374 -1.3598 -0.9651  0.9977
  928MOL0     H22473   7.332   9.847   6.196  0.5714  0.6945  0.3078
  928MOL0     H22474   7.177   9.995   6.413 -2.3256 -0.5962  0.2653
  928MOL0     H22475   7.194  10.072   6.249  1.4077 -0.6004 -0.7995
  928MOL0     H22476   6.983   9.951   6.281 -0.0870 -1.0180  0.7579
  928MOL0     H22477   7.059   9.800   6.297 -0.2752  1.3038  2.4106
  928MOL0     H22478   7.901  10.176   5.812 -2.4051  0.9245  1.8818
  928MOL0     H22479   8.103  10.335   5.810 -0.6250  2.3246  1.1352
  928MOL0     H22480   8.494  10.555   6.257  1.6081  3.3471  1.8335
  928MOL0     H22481   8.622  10.754   6.220  1.0211  0.5157  0.3705
  928MOL0     H22482  10.105  10.959   4.883  1.0100 -0.4053 -0.1504
  928MOL0     H22483  10.239  11.090   4.707 -3.2857 -1.4225  0.6612
  928MOL0     H22484  10.523  11.370   4.552 -0.9365 -1.8192 -2.7699
  928MOL0     H22485  10.668  11.510   4.419  1.0538 -0.1620 -2.1878
  928MOL0     H22486  11.022  11.349   4.291 -1.1053  1.0686  1.5033
  928MOL0     H22487  11.111  11.424   4.413 -2.7329 -3.7148  2.0034
  928MOL0     H22488  11.025  11.642   4.225 -0.4753 -0.3341  0.2601
  928MOL0     H22489  11.178  11.604   4.288 -0.2823  0.9116 -2.3647
  928MOL0     H22490  11.152  11.602   4.062 -1.5516 -0.1738  0.3066
  928MOL0     H22491  11.051  11.446   4.058 -2.1939 -0.2064  2.7556
  928MOL0     H22492  11.341  11.484   4.138  0.0151  1.7548 -0.5415
  928MOL0     H22493  11.243  11.340   4.176 -2.0593  1.8611  1.5600
  928MOL0     H22494  11.318  11.289   3.759  0.0495 -2.5074  0.3738
  928MOL0     H22495  10.999  11.257   4.508  0.2446 -0.1484  2.2077
  928MOL0     H22496  10.852  11.107   4.649  0.4537 -0.3211 -0.6871
  929MOL0     O22497   7.891   9.604   0.933  0.5854  0.0187  0.1584
  929MOL0     C22498   7.946   9.642   1.034 -0.9688 -0.4832  0.8781
  929MOL0     O22499   7.887   9.693   1.141  0.6245 -0.0354  1.2142
  929MOL0     C22500   7.761   9.737   1.150  1.0355  0.0372 -0.1955
  929MOL0     C22501   7.647   9.700   1.087  0.1983  1.1164  0.6538
  929MOL0     C22502   7.530   9.769   1.095 -0.2629 -0.1264 -0.3358
  929MOL0     C22503   7.513   9.884   1.180  0.6086 -0.1280  0.5974
  929MOL0     O22504   7.405   9.972   1.182 -0.7127  0.8961  0.1495
  929MOL0     C22505   7.280   9.915   1.138  0.7387 -1.0190  0.5942
  929MOL0     C22506   7.164  10.013   1.149 -0.2522 -0.4381  0.0629
  929MOL0     C22507   7.023   9.958   1.117  1.0476 -1.3297  0.7057
  929MOL0     C22508   6.922  10.072   1.144 -0.5723 -0.7170 -0.0103
  929MOL0     C22509   6.790  10.026   1.107 -0.0021  0.1111 -0.0916
  929MOL0     C22510   6.753  10.092   0.961  0.1434 -0.0700  0.2179
  929MOL0     C22511   6.617  10.053   0.896  0.1203 -0.1732 -0.6070
  929MOL0     C22512   6.621   9.930   0.808  0.1490  0.1478  1.0896
  929MOL0     N22513   6.488   9.875   0.791  0.5036 -0.6773 -0.3533
  929MOL0     C22514   6.387   9.942   0.723 -0.0703 -0.0201 -0.2197
  929MOL0     C22515   6.282   9.865   0.731 -0.1726  0.7069  0.8952
  929MOL0     C22516   6.145   9.882   0.670  0.0733 -0.1338 -0.2796
  929MOL0     C22517   6.082   9.756   0.622 -0.4674 -0.2747 -0.4472
  929MOL0     C22518   6.012   9.678   0.732 -0.1957  0.0164 -0.2405
  929MOL0     C22519   5.867   9.720   0.764 -0.3201 -0.5092 -0.3587
  929MOL0     O22520   5.767   9.672   0.672 -0.0609  0.1116 -0.0109
  929MOL0     C22521   5.638   9.702   0.701  0.1550 -0.2239  0.5546
  929MOL0     C22522   5.577   9.784   0.802  1.0112  0.2111  0.0236
  929MOL0     C22523   5.440   9.792   0.821 -0.5786  0.1984  0.2292
  929MOL0     C22524   5.350   9.732   0.733 -0.0848  0.9581 -0.7232
  929MOL0     C22525   5.205   9.742   0.745  0.3013  0.1717  0.1982
  929MOL0     O22526   5.126   9.691   0.651  0.0937  0.1402  0.2022
  929MOL0     C22527   4.985   9.704   0.631  0.2118  0.1781 -0.3608
  929MOL0     C22528   4.899   9.789   0.696 -0.3102 -0.0728 -0.2817
  929MOL0     C22529   4.764   9.793   0.662  0.4322 -0.8767 -0.4643
  929MOL0     C22530   4.705   9.702   0.565 -0.5100 -0.2632 -0.6594
  929MOL0     O22531   4.574   9.697   0.529  0.9265  0.4016  0.6127
  929MOL0     C22532   4.479   9.758   0.619 -0.1962  0.0343 -0.3504
  929MOL0     C22533   4.334   9.735   0.562  0.0700  0.8039 -0.6691
  929MOL0     C22534   4.218   9.802   0.643 -0.7146 -0.3713 -0.2198
  929MOL0     C22535   4.088   9.776   0.559 -0.1554 -0.2756  0.3199
  929MOL0     C22536   4.027   9.643   0.586  0.2593 -0.1676 -0.3042
  929MOL0     C22537   3.903   9.654   0.679  0.0453 -0.4916 -0.0070
  929MOL0     C22538   3.784   9.720   0.604  0.4061 -0.0869  0.2505
  929MOL0     C22539   3.642   9.657   0.639 -0.1239 -0.4156  0.4453
  929MOL0    Cl22540   3.622   9.647   0.806  0.1483  0.2472 -0.4047
  929MOL0     C22541   4.792   9.623   0.504  0.1962 -0.2826  0.2023
  929MOL0     C22542   4.926   9.625   0.533  0.3592 -0.1814  0.3738
  929MOL0     O22543   5.170   9.806   0.847 -0.0813  0.1727  0.1506
  929MOL0     C22544   5.405   9.650   0.630  0.5475 -0.9035 -0.8145
  929MOL0     C22545   5.543   9.643   0.614 -0.3837  0.1003  0.1563
  929MOL0     N22546   6.317   9.738   0.786  0.0229 -0.7463 -0.0833
  929MOL0     N22547   6.446   9.748   0.814 -0.3694  0.2453  0.0263
  929MOL0     C22548   7.626   9.937   1.229 -0.2508  0.2478  0.4950
  929MOL0     C22549   7.746   9.863   1.217 -0.4523  0.5346 -0.1407
  929MOL0     C22550   8.093   9.639   1.016 -0.3286 -0.2783  0.7127
  929MOL0     C22551   8.171   9.709   1.115  0.3219  0.4257 -0.0756
  929MOL0     C22552   8.310   9.694   1.097  0.0213  0.4361 -0.4636
  929MOL0     C22553   8.369   9.622   0.994 -0.1974  0.1674 -0.0496
  929MOL0     O22554   8.507   9.616   1.001  1.0459 -0.0079 -0.6619
  929MOL0     C22555   8.578   9.527   0.909 -0.9333  0.1421  0.3180
  929MOL0     C22556   8.725   9.532   0.939 -0.2920  0.4403  0.0088
  929MOL0     C22557   8.796   9.669   0.962 -0.3520  0.0080  0.2162
  929MOL0     C22558   8.785   9.756   0.839  0.0490  0.0679 -0.4174
  929MOL0     C22559   8.841   9.889   0.857  0.4067  0.5344  0.6490
  929MOL0     C22560   8.887  10.000   0.860  0.4970 -0.5664  0.2996
  929MOL0     C22561   8.294   9.570   0.894  0.1121  1.1279 -0.1275
  929MOL0     C22562   8.151   9.568   0.903 -0.7273 -0.0932  0.7161
  929MOL0     H22563   7.646   9.611   1.025  0.5717  0.8256  1.0560
  929MOL0     H22564   7.448   9.737   1.032 -1.7781  1.4145  0.7454
  929MOL0     H22565   7.239   9.838   1.205 -1.5828  0.5569  1.0855
  929MOL0     H22566   7.276   9.887   1.032 -2.0063 -0.6922  0.5426
  929MOL0     H22567   7.196  10.102   1.094  1.2331 -1.7065 -1.2354
  929MOL0     H22568   7.156  10.046   1.253  0.6938 -3.1111  1.0729
  929MOL0     H22569   7.006   9.868   1.177  0.0023 -1.9081 -0.4080
  929MOL0     H22570   7.029   9.921   1.014  4.2699 -1.2742  0.7680
  929MOL0     H22571   6.922  10.106   1.248 -4.6146  1.3638 -0.4964
  929MOL0     H22572   6.954  10.155   1.081  1.0690 -1.9250 -0.8283
  929MOL0     H22573   6.714  10.041   1.184  0.9789 -1.8654  1.3669
  929MOL0     H22574   6.793   9.918   1.087  0.5411  0.2822 -0.9956
  929MOL0     H22575   6.838  10.068   0.895  0.6737  0.9332  0.5268
  929MOL0     H22576   6.740  10.200   0.973  1.5746  0.1751 -0.2041
  929MOL0     H22577   6.552  10.029   0.980 -2.0818 -0.7212 -2.3983
  929MOL0     H22578   6.579  10.129   0.827  1.5149  0.6547 -0.5233
  929MOL0     H22579   6.688   9.858   0.856 -0.8832  0.7126  3.5622
  929MOL0     H22580   6.656   9.963   0.710 -1.0906  0.7505  0.8198
  929MOL0     H22581   6.393  10.046   0.692  2.9564  1.2986  3.9087
  929MOL0     H22582   6.149   9.947   0.582  1.3694 -1.0913 -0.9848
  929MOL0     H22583   6.096   9.925   0.757  3.5315 -1.1699  2.4449
  929MOL0     H22584   6.170   9.704   0.581  0.2026  2.2092 -2.4254
  929MOL0     H22585   6.009   9.777   0.544 -0.4245  1.6018 -0.0388
  929MOL0     H22586   6.001   9.575   0.698  1.1148 -0.9529  2.0109
  929MOL0     H22587   6.063   9.671   0.828 -2.3450  1.3357  1.0653
  929MOL0     H22588   5.871   9.830   0.767 -0.4523 -0.4319 -1.8759
  929MOL0     H22589   5.844   9.684   0.864 -1.8222 -1.3189 -0.9634
  929MOL0     H22590   5.646   9.833   0.870  2.0792 -0.9992 -0.1346
  929MOL0     H22591   5.419   9.852   0.908 -0.3142 -1.6363  1.6242
  929MOL0     H22592   4.932   9.866   0.765 -2.6048  1.4612 -0.7937
  929MOL0     H22593   4.698   9.867   0.707  2.4516  1.4015 -1.0262
  929MOL0     H22594   4.495   9.866   0.628  2.2733 -0.3624  0.7068
  929MOL0     H22595   4.482   9.715   0.719 -0.8071 -1.1422 -0.8209
  929MOL0     H22596   4.310   9.628   0.554 -3.6016  1.4598 -0.1035
  929MOL0     H22597   4.330   9.776   0.460 -0.5846  1.2725 -0.4578
  929MOL0     H22598   4.246   9.908   0.641  1.2359 -0.8426 -2.7095
  929MOL0     H22599   4.222   9.765   0.746  0.0313 -0.4534 -0.2731
  929MOL0     H22600   4.019   9.854   0.593  1.2852  1.3948 -0.4192
  929MOL0     H22601   4.116   9.790   0.454  0.8447 -0.1440  0.5956
  929MOL0     H22602   4.105   9.585   0.637  1.5055  1.2173 -0.5605
  929MOL0     H22603   4.010   9.586   0.494 -0.2576 -3.7696  1.8313
  929MOL0     H22604   3.935   9.707   0.769  3.8982  0.7119 -1.8755
  929MOL0     H22605   3.873   9.554   0.712 -0.3561 -0.3233  0.1321
  929MOL0     H22606   3.772   9.826   0.627 -0.6347 -0.6820  2.7430
  929MOL0     H22607   3.804   9.723   0.496  2.3264 -0.1947  0.5709
  929MOL0     H22608   3.646   9.557   0.597  3.2359 -0.2210 -0.0231
  929MOL0     H22609   3.561   9.714   0.593 -0.1470 -0.0292  0.9537
  929MOL0     H22610   4.757   9.552   0.431  2.7491 -1.3469 -0.0947
  929MOL0     H22611   4.999   9.560   0.486  3.6137  3.6082 -0.3998
  929MOL0     H22612   5.327   9.615   0.564 -3.9699  1.3643  2.7383
  929MOL0     H22613   5.592   9.587   0.536  2.0392  2.7375 -0.3831
  929MOL0     H22614   7.641  10.033   1.277 -0.4942  0.1191  0.8317
  929MOL0     H22615   7.840   9.904   1.252 -1.5740  0.4363  3.3497
  929MOL0     H22616   8.123   9.746   1.205 -1.3328  1.0542 -1.1648
  929MOL0     H22617   8.366   9.742   1.177  0.2933  0.7292 -0.8294
  929MOL0     H22618   8.562   9.561   0.807 -1.0560  0.6475  0.5017
  929MOL0     H22619   8.540   9.424   0.913 -1.5087  0.3741  1.2338
  929MOL0     H22620   8.739   9.481   1.035 -3.8118  2.7296  1.9607
  929MOL0     H22621   8.782   9.477   0.863  1.4965 -1.7638  2.7257
  929MOL0     H22622   8.899   9.643   0.988 -0.5313 -0.5861  0.3467
  929MOL0     H22623   8.754   9.727   1.045  1.6831  2.3534 -0.2869
  929MOL0     H22624   8.831   9.704   0.755  0.6312 -3.1044  1.6811
  929MOL0     H22625   8.680   9.765   0.811 -0.4999 -0.0378  1.4462
  929MOL0     H22626   8.937  10.095   0.855  0.8825 -0.6973  1.4089
  929MOL0     H22627   8.347   9.527   0.809 -1.2650 -2.4972  0.7023
  929MOL0     H22628   8.088   9.515   0.832 -0.9789  2.1417 -0.8288
  930MOL0     O22629   6.439   5.223   4.708  0.6489  0.5624 -0.3714
  930MOL0     C22630   6.480   5.236   4.826  0.3984  0.1813 -0.5127
  930MOL0     O22631   6.420   5.174   4.940 -0.1618 -0.4019 -0.0182
  930MOL0     C22632   6.304   5.105   4.924  0.0479 -0.6215  0.0943
  930MOL0     C22633   6.191   5.136   5.005 -0.1170  0.5066 -0.6712
  930MOL0     C22634   6.072   5.058   4.998 -0.0376 -0.7866  0.2245
  930MOL0     C22635   6.053   4.954   4.902 -0.6147 -0.1185  0.5250
  930MOL0     O22636   5.937   4.883   4.873 -0.1802  0.9838 -0.5094
  930MOL0     C22637   5.853   4.839   4.985 -0.4480 -0.0143  0.1638
  930MOL0     C22638   5.740   4.766   4.920  0.0245  0.7679  1.2290
  930MOL0     C22639   5.640   4.871   4.865 -0.6301  0.1405  1.1082
  930MOL0     C22640   5.519   4.799   4.807  0.2552 -0.0807 -0.1743
  930MOL0     C22641   5.435   4.895   4.718  0.0080 -0.5385  0.6047
  930MOL0     C22642   5.309   4.826   4.663  0.0061  0.3707  0.9773
  930MOL0     C22643   5.216   4.910   4.569 -0.1068  0.1724 -0.1005
  930MOL0     C22644   5.163   5.037   4.637  0.1365  0.9681 -0.4665
  930MOL0     N22645   5.054   5.096   4.556 -0.0139 -0.4470  0.2907
  930MOL0     C22646   5.070   5.171   4.443 -0.3980  0.3983  0.1081
  930MOL0     C22647   4.949   5.230   4.430  0.2931 -1.1627  0.0587
  930MOL0     C22648   4.901   5.308   4.311 -0.6748  0.1655 -0.0352
  930MOL0     C22649   4.794   5.222   4.238  0.8993  0.7494 -0.0440
  930MOL0     C22650   4.845   5.078   4.214 -0.3882 -0.6062 -0.7052
  930MOL0     C22651   4.735   4.992   4.163  0.2475 -0.7912 -0.2595
  930MOL0     O22652   4.658   5.044   4.047  0.3664  0.2573 -0.6755
  930MOL0     C22653   4.580   4.963   3.967 -0.6285 -0.7307  0.1853
  930MOL0     C22654   4.545   4.827   3.994  0.1781  0.1681 -0.3687
  930MOL0     C22655   4.461   4.756   3.912 -0.2908  0.0842  0.2087
  930MOL0     C22656   4.394   4.815   3.807 -0.0611  0.1157  0.0471
  930MOL0     C22657   4.291   4.753   3.728 -0.8330 -0.0736  0.5634
  930MOL0     O22658   4.238   4.828   3.626 -0.0785  0.5085 -0.1363
  930MOL0     C22659   4.175   4.770   3.514 -0.1549 -0.5478 -0.3679
  930MOL0     C22660   4.232   4.785   3.390 -1.0009  0.5222  0.4388
  930MOL0     C22661   4.180   4.725   3.279  0.3743 -0.2641 -0.3636
  930MOL0     C22662   4.053   4.665   3.287 -0.5123  0.1860  0.5041
  930MOL0     O22663   3.997   4.617   3.173  0.1245  0.6237  0.4013
  930MOL0     C22664   3.879   4.693   3.134 -0.4337 -0.0941  0.1659
  930MOL0     C22665   3.825   4.613   3.014  0.5209 -0.0440 -0.3276
  930MOL0     C22666   3.672   4.648   2.991 -0.4051  0.0309 -0.0538
  930MOL0     C22667   3.666   4.796   2.936 -0.1580  0.5276  0.4257
  930MOL0     C22668   3.523   4.825   2.889  0.3169  0.0949 -0.0913
  930MOL0     C22669   3.516   4.972   2.876 -0.5054  0.2666  0.3161
  930MOL0     C22670   3.381   5.028   2.850 -0.0515  0.3612 -0.6676
  930MOL0     C22671   3.396   5.167   2.787 -0.1527 -0.0030  0.1602
  930MOL0    Cl22672   3.253   5.213   2.689  0.1707  0.0120 -0.1906
  930MOL0     C22673   3.983   4.659   3.413 -0.5561  0.6210  0.5707
  930MOL0     C22674   4.050   4.715   3.527 -0.4546  0.0683 -0.0269
  930MOL0     O22675   4.260   4.644   3.760 -0.5742 -0.2961  0.4946
  930MOL0     C22676   4.431   4.947   3.772 -0.8100 -0.3232 -0.5266
  930MOL0     C22677   4.525   5.018   3.849  0.5779 -0.8623 -0.4200
  930MOL0     N22678   4.866   5.202   4.538  0.8464 -0.7332  0.0153
  930MOL0     N22679   4.928   5.119   4.604  0.3158 -0.3932 -0.0638
  930MOL0     C22680   6.169   4.929   4.826  0.8956 -0.1539  0.8433
  930MOL0     C22681   6.286   5.003   4.830  0.5400  0.3575  0.2889
  930MOL0     C22682   6.617   5.291   4.838  0.1931 -0.7333 -0.0659
  930MOL0     C22683   6.662   5.385   4.745  0.2241  0.8591 -0.2139
  930MOL0     C22684   6.787   5.452   4.760  0.2650  0.0875 -0.6972
  930MOL0     C22685   6.871   5.434   4.866 -0.4900 -0.5972  0.1747
  930MOL0     O22686   6.992   5.502   4.856 -0.3826 -0.9558 -0.3231
  930MOL0     C22687   7.085   5.495   4.965  0.6263 -0.4405  0.2156
  930MOL0     C22688   7.187   5.604   4.942 -0.7426  0.9552  1.6054
  930MOL0     C22689   7.276   5.570   4.818  0.0070  0.0125 -0.2400
  930MOL0     C22690   7.229   5.604   4.680 -0.7629 -0.2366  0.3656
  930MOL0     C22691   7.202   5.747   4.646 -0.6575  0.1174 -0.3478
  930MOL0     C22692   7.190   5.866   4.609  0.4432  0.3109  0.1500
  930MOL0     C22693   6.826   5.350   4.969 -0.0428  0.2934  0.8936
  930MOL0     C22694   6.704   5.272   4.944  0.3390  0.0953 -0.2472
  930MOL0     H22695   6.203   5.212   5.081 -0.6802  0.0689 -0.1374
  930MOL0     H22696   5.989   5.097   5.057 -0.4856  0.4507 -1.1493
  930MOL0     H22697   5.820   4.926   5.043 -0.9255  0.0311 -0.1691
  930MOL0     H22698   5.922   4.784   5.050 -0.3179 -0.4180 -0.3119
  930MOL0     H22699   5.695   4.695   4.989  1.2397 -1.7620 -0.4280
  930MOL0     H22700   5.779   4.702   4.840 -2.4079 -1.0464  1.3813
  930MOL0     H22701   5.676   4.939   4.786 -0.3491 -0.2407  0.9019
  930MOL0     H22702   5.612   4.931   4.951  1.4393  0.3848  1.6731
  930MOL0     H22703   5.552   4.724   4.734  0.2021  2.3800 -2.9011
  930MOL0     H22704   5.457   4.765   4.891 -2.7074  1.7298 -1.4610
  930MOL0     H22705   5.498   4.924   4.634 -3.0714 -1.3350 -2.1671
  930MOL0     H22706   5.411   4.982   4.780  0.2411 -0.0003 -0.0529
  930MOL0     H22707   5.246   4.782   4.741  0.2742 -1.2356  0.3356
  930MOL0     H22708   5.349   4.735   4.617 -1.1559  1.0889 -1.6885
  930MOL0     H22709   5.288   4.940   4.493  0.7629  0.5454  0.8435
  930MOL0     H22710   5.139   4.849   4.522  0.0872 -1.5985  1.7144
  930MOL0     H22711   5.240   5.105   4.673 -0.5523  1.0430  0.9515
  930MOL0     H22712   5.124   5.005   4.734  0.8611 -0.1978 -0.5433
  930MOL0     H22713   5.166   5.174   4.393  1.4352 -3.2078  2.9277
  930MOL0     H22714   4.979   5.325   4.237 -0.7813  0.6118 -0.0503
  930MOL0     H22715   4.860   5.404   4.346 -2.6897 -0.3953 -0.7115
  930MOL0     H22716   4.773   5.271   4.142 -0.6026  4.1743  1.8383
  930MOL0     H22717   4.695   5.214   4.283 -0.3672  0.2990 -2.7377
  930MOL0     H22718   4.934   5.077   4.150  1.4902  3.3607  1.4403
  930MOL0     H22719   4.873   5.035   4.310  0.8260 -1.7535 -1.5497
  930MOL0     H22720   4.663   4.968   4.241  0.9836  0.6893  0.9182
  930MOL0     H22721   4.782   4.898   4.131 -1.7418 -1.5594 -1.0971
  930MOL0     H22722   4.593   4.768   4.072  0.8007 -0.7001 -1.3796
  930MOL0     H22723   4.444   4.649   3.918 -1.8433  0.4126  2.9167
  930MOL0     H22724   4.331   4.829   3.385 -0.4943 -0.7014 -1.3562
  930MOL0     H22725   4.239   4.747   3.190  2.7114  1.5470  1.4971
  930MOL0     H22726   3.918   4.788   3.097  1.2281 -1.0644 -0.6975
  930MOL0     H22727   3.808   4.698   3.217 -1.1482 -1.6957 -0.3051
  930MOL0     H22728   3.834   4.507   3.041 -0.7269  0.5226  2.8014
  930MOL0     H22729   3.879   4.638   2.923 -2.4371 -1.8885 -2.7917
  930MOL0     H22730   3.612   4.622   3.079 -2.6397 -1.4168 -1.8921
  930MOL0     H22731   3.638   4.581   2.912  1.3104  0.2964 -1.0821
  930MOL0     H22732   3.695   4.860   3.020  1.4910  0.0552  0.2525
  930MOL0     H22733   3.731   4.809   2.848 -1.7416 -4.1290 -1.7855
  930MOL0     H22734   3.463   4.792   2.975  0.0663  0.7528 -0.0068
  930MOL0     H22735   3.494   4.771   2.799 -0.3427  2.0423 -1.1031
  930MOL0     H22736   3.588   5.007   2.802  0.6669 -0.1277  1.2542
  930MOL0     H22737   3.548   5.019   2.969 -1.2953  1.6921 -0.0984
  930MOL0     H22738   3.332   4.961   2.779  1.7751 -2.2446  0.3905
  930MOL0     H22739   3.314   5.026   2.936  0.4898  0.2014 -0.2476
  930MOL0     H22740   3.481   5.174   2.718  0.4159  0.0522  0.8529
  930MOL0     H22741   3.412   5.247   2.861  2.3855 -0.9516  0.7558
  930MOL0     H22742   3.887   4.608   3.421 -0.0797 -0.5530 -0.7429
  930MOL0     H22743   4.004   4.698   3.625  0.8602  1.0805  0.7972
  930MOL0     H22744   4.389   5.006   3.691  0.0015  2.6633  1.0967
  930MOL0     H22745   4.551   5.122   3.834  3.0119 -1.5493 -1.4815
  930MOL0     H22746   6.147   4.863   4.743 -0.2266 -1.1363  1.8678
  930MOL0     H22747   6.351   4.974   4.748 -2.0756 -1.5621 -1.2932
  930MOL0     H22748   6.607   5.408   4.655 -1.1166  3.4061  1.1226
  930MOL0     H22749   6.816   5.524   4.684  0.2783  1.0952  0.2569
  930MOL0     H22750   7.140   5.401   4.973  4.0596  1.0736 -2.8650
  930MOL0     H22751   7.027   5.512   5.056 -0.1536  1.5323 -0.5840
  930MOL0     H22752   7.139   5.702   4.935  1.1181  1.8554  0.5155
  930MOL0     H22753   7.249   5.597   5.032 -1.5601  0.0794  2.1186
  930MOL0     H22754   7.292   5.462   4.825 -0.7245 -0.0885 -0.0435
  930MOL0     H22755   7.375   5.617   4.824 -1.3205  2.9303  0.4945
  930MOL0     H22756   7.311   5.558   4.624  0.1871  0.1148  1.4345
  930MOL0     H22757   7.140   5.544   4.659 -0.8312 -0.8272  2.2056
  930MOL0     H22758   7.160   5.966   4.586 -1.7368 -0.0128  1.2623
  930MOL0     H22759   6.885   5.325   5.056 -2.5412 -0.7135  2.4249
  930MOL0     H22760   6.672   5.206   5.024 -0.8656  0.6215 -0.2656
  931MOL0     O22761   2.704   8.760   4.852  0.6125 -0.1130 -0.4213
  931MOL0     C22762   2.776   8.782   4.945 -0.2594 -0.0360 -0.3086
  931MOL0     O22763   2.739   8.822   5.068  0.0727  0.5631 -0.1100
  931MOL0     C22764   2.605   8.807   5.099 -0.1269  0.5776  0.0706
  931MOL0     C22765   2.498   8.838   5.017  0.2401  0.2540 -0.5579
  931MOL0     C22766   2.370   8.803   5.058 -0.2257 -0.2186  1.1086
  931MOL0     C22767   2.343   8.748   5.182  0.1824 -0.7432 -0.1441
  931MOL0     O22768   2.207   8.748   5.216 -0.2621 -0.2111  0.5899
  931MOL0     C22769   2.156   8.735   5.354 -0.2346 -0.3267  0.5241
  931MOL0     C22770   2.003   8.723   5.360  0.1786 -0.4891 -0.3805
  931MOL0     C22771   1.946   8.606   5.282 -0.1939 -0.3215 -0.3700
  931MOL0     C22772   1.795   8.623   5.271 -0.7055 -0.4472  0.2135
  931MOL0     C22773   1.735   8.484   5.240  0.1478  0.2621 -0.0827
  931MOL0     C22774   1.600   8.507   5.169 -0.5446  0.1997 -0.0372
  931MOL0     C22775   1.483   8.567   5.253  1.1116  0.0994  0.3481
  931MOL0     C22776   1.356   8.610   5.176 -0.6405  0.5062  0.1024
  931MOL0     N22777   1.278   8.490   5.164  0.3525  0.9793 -0.9698
  931MOL0     C22778   1.149   8.483   5.221  0.4924 -0.6715  0.4229
  931MOL0     C22779   1.098   8.368   5.177 -0.7523  0.1651 -0.9972
  931MOL0     C22780   0.952   8.315   5.190 -0.4102  0.0511  0.1958
  931MOL0     C22781   0.926   8.224   5.315  0.5417 -0.1204  0.6891
  931MOL0     C22782   1.028   8.101   5.327  0.9920  0.4348  0.2264
  931MOL0     C22783   0.965   7.962   5.324 -0.4227  0.6814  0.1376
  931MOL0     O22784   0.877   7.939   5.432 -0.2473  0.2962 -0.4185
  931MOL0     C22785   0.750   7.876   5.410 -0.4821  0.0622  0.2619
  931MOL0     C22786   0.643   7.902   5.492  0.4205 -0.0228 -0.0313
  931MOL0     C22787   0.518   7.850   5.470  0.5974 -0.3227 -0.8860
  931MOL0     C22788   0.497   7.758   5.369  0.5800 -0.0433  1.1930
  931MOL0     C22789   0.361   7.705   5.337 -0.6057 -0.2093  0.5798
  931MOL0     O22790   0.269   7.760   5.416  0.0641  0.2309  0.3752
  931MOL0     C22791   0.155   7.681   5.441 -0.1012 -0.0448 -0.0837
  931MOL0     C22792   0.124   7.657   5.575 -0.3960 -0.1597  0.2487
  931MOL0     C22793   0.005   7.592   5.607 -0.1261  0.3957  0.0470
  931MOL0     C22794  -0.073   7.541   5.503  0.7266 -0.6930 -0.3529
  931MOL0     O22795  -0.186   7.483   5.549 -0.5830 -0.1503  0.1251
  931MOL0     C22796  -0.279   7.411   5.459 -0.5542  0.2242 -0.6717
  931MOL0     C22797  -0.347   7.519   5.380  1.0089 -0.0443  0.0343
  931MOL0     C22798  -0.458   7.600   5.462 -0.0413  0.3337  0.1366
  931MOL0     C22799  -0.519   7.706   5.364 -0.2513  0.1899 -0.1500
  931MOL0     C22800  -0.638   7.779   5.419 -0.1711 -0.2034  0.1000
  931MOL0     C22801  -0.757   7.681   5.454 -0.6874 -1.1067  0.4255
  931MOL0     C22802  -0.878   7.770   5.497  0.3563 -0.2722  0.0925
  931MOL0     C22803  -0.985   7.681   5.551  0.5200 -0.1979 -0.7093
  931MOL0    Cl22804  -1.137   7.783   5.558 -0.4772  0.3250 -0.3461
  931MOL0     C22805  -0.028   7.544   5.371  1.0519  0.2000  0.3280
  931MOL0     C22806   0.077   7.628   5.338  0.4009  0.7867  0.0408
  931MOL0     O22807   0.347   7.626   5.251  0.1547  0.8324  0.5093
  931MOL0     C22808   0.609   7.717   5.294  1.1649  0.0272  0.1609
  931MOL0     C22809   0.736   7.775   5.315  0.0652 -0.6413 -0.7956
  931MOL0     N22810   1.198   8.305   5.098 -0.2388 -0.0335 -0.0658
  931MOL0     N22811   1.301   8.372   5.105  0.9578  0.0962 -0.4306
  931MOL0     C22812   2.449   8.732   5.273 -0.2101  0.3750  0.0566
  931MOL0     C22813   2.580   8.760   5.230  0.2985  0.4310  0.2595
  931MOL0     C22814   2.917   8.787   4.911  0.5463 -0.2516  0.2637
  931MOL0     C22815   2.970   8.778   4.786 -0.0324  0.4250  0.5847
  931MOL0     C22816   3.105   8.818   4.755 -0.1555 -0.5856  0.2841
  931MOL0     C22817   3.187   8.864   4.855 -1.6471  0.3009  0.1034
  931MOL0     O22818   3.322   8.882   4.843 -0.0702 -0.6887  0.0218
  931MOL0     C22819   3.387   8.892   4.714  0.2036  1.0479  0.3474
  931MOL0     C22820   3.336   9.014   4.637 -0.1018  0.2892 -0.4067
  931MOL0     C22821   3.388   9.009   4.485  0.0244 -0.4627  0.3700
  931MOL0     C22822   3.310   9.115   4.400  0.7224 -0.1080 -0.6325
  931MOL0     C22823   3.169   9.093   4.398 -0.1107  0.9348  0.9471
  931MOL0     C22824   3.049   9.070   4.402 -0.0771 -0.2266  0.3429
  931MOL0     C22825   3.130   8.871   4.981 -0.8435  0.7570  0.2817
  931MOL0     C22826   2.998   8.838   5.006 -0.3896 -0.1886 -0.6495
  931MOL0     H22827   2.517   8.887   4.923 -3.1571  4.2334  0.5401
  931MOL0     H22828   2.288   8.829   4.992 -0.7059 -1.0198  1.3732
  931MOL0     H22829   2.200   8.815   5.414  2.3658  1.1013 -2.9549
  931MOL0     H22830   2.195   8.643   5.398  1.5220  0.1483  0.0175
  931MOL0     H22831   1.966   8.819   5.324  3.4015  0.2964 -1.9450
  931MOL0     H22832   1.982   8.708   5.467  4.6865  0.7636  0.8977
  931MOL0     H22833   1.976   8.512   5.329  1.6352  0.4869  0.1802
  931MOL0     H22834   1.990   8.622   5.183 -1.4604  3.5595 -0.4936
  931MOL0     H22835   1.762   8.647   5.373 -1.4607  1.3435 -0.3968
  931MOL0     H22836   1.777   8.703   5.197 -0.8400  0.0052  0.7269
  931MOL0     H22837   1.724   8.427   5.332  0.6048  0.4257  0.0739
  931MOL0     H22838   1.792   8.434   5.161 -2.0096  0.0307 -1.5836
  931MOL0     H22839   1.576   8.405   5.138 -1.2385 -0.1410  1.5394
  931MOL0     H22840   1.609   8.571   5.080  1.6936  1.1347  0.7716
  931MOL0     H22841   1.446   8.499   5.331 -4.7589  1.1796 -1.0114
  931MOL0     H22842   1.526   8.653   5.304 -2.7284  0.1572  4.0050
  931MOL0     H22843   1.385   8.655   5.081 -1.6407  0.8790 -0.0396
  931MOL0     H22844   1.304   8.689   5.231 -1.7564 -0.2897  0.2192
  931MOL0     H22845   1.096   8.553   5.285  2.0953 -1.6499  3.0231
  931MOL0     H22846   0.930   8.246   5.108  1.0110 -1.7747  1.2734
  931MOL0     H22847   0.871   8.388   5.195 -0.2544  0.1367  1.9617
  931MOL0     H22848   0.821   8.196   5.329  0.5781 -1.6746 -1.6615
  931MOL0     H22849   0.958   8.281   5.403  1.2466 -3.5587  2.8974
  931MOL0     H22850   1.099   8.120   5.246  0.4391  1.1446 -0.1095
  931MOL0     H22851   1.081   8.104   5.423 -0.6191  0.5946  1.1434
  931MOL0     H22852   1.046   7.890   5.338  0.2565  0.8407 -2.5495
  931MOL0     H22853   0.917   7.942   5.228  0.3409  1.4247 -0.4117
  931MOL0     H22854   0.642   7.969   5.578 -2.2372 -0.4983  0.3789
  931MOL0     H22855   0.442   7.899   5.530  2.5252 -1.9178  3.2905
  931MOL0     H22856   0.202   7.688   5.645  1.6994 -3.5966 -0.3225
  931MOL0     H22857  -0.011   7.575   5.713  0.4980  1.7426  0.3756
  931MOL0     H22858  -0.354   7.355   5.515  0.9612  0.7048  2.0162
  931MOL0     H22859  -0.220   7.353   5.388 -1.0523 -0.5694 -0.4486
  931MOL0     H22860  -0.407   7.474   5.301 -1.2155  1.3462  0.8098
  931MOL0     H22861  -0.273   7.583   5.330 -3.2327  3.3155 -2.6595
  931MOL0     H22862  -0.404   7.639   5.549 -1.1491  0.8895  0.5894
  931MOL0     H22863  -0.532   7.527   5.496  1.0699 -1.4892 -1.1850
  931MOL0     H22864  -0.445   7.777   5.327 -0.5318  1.1469  1.0332
  931MOL0     H22865  -0.559   7.648   5.281 -0.8671 -1.1098  1.0134
  931MOL0     H22866  -0.667   7.867   5.360 -0.0844 -0.1226  0.1765
  931MOL0     H22867  -0.613   7.828   5.514 -2.5225 -1.3321  1.4012
  931MOL0     H22868  -0.727   7.622   5.541  0.4770  2.5551  2.7662
  931MOL0     H22869  -0.769   7.617   5.367  0.4232  3.0219 -3.1456
  931MOL0     H22870  -0.850   7.842   5.574 -0.9405 -0.4939  0.8039
  931MOL0     H22871  -0.922   7.821   5.410  1.7166 -0.9206 -1.0085
  931MOL0     H22872  -0.963   7.645   5.652  0.9086  1.4346 -0.1948
  931MOL0     H22873  -1.002   7.597   5.483  0.1906 -0.8520  0.1686
  931MOL0     H22874  -0.076   7.491   5.289 -1.1987  0.9511  1.0962
  931MOL0     H22875   0.099   7.638   5.232 -1.0413  2.4561 -0.1513
  931MOL0     H22876   0.611   7.631   5.228 -1.8680 -1.0382  1.2825
  931MOL0     H22877   0.820   7.742   5.255  0.6059  0.8039 -0.8752
  931MOL0     H22878   2.435   8.713   5.378 -1.1849  0.6382 -0.0161
  931MOL0     H22879   2.659   8.739   5.302  0.9712 -0.3026 -0.6671
  931MOL0     H22880   2.909   8.730   4.710  0.4480 -3.7777  2.5917
  931MOL0     H22881   3.146   8.802   4.655 -0.8016  2.2401 -0.4947
  931MOL0     H22882   3.386   8.803   4.650 -2.9454  1.5101 -0.4463
  931MOL0     H22883   3.490   8.916   4.741 -0.4405  3.6135  0.7802
  931MOL0     H22884   3.227   9.020   4.645 -0.0688 -1.4630  3.0575
  931MOL0     H22885   3.368   9.109   4.682 -2.2744  0.2403  1.4462
  931MOL0     H22886   3.361   8.909   4.450  0.4769 -0.7104  0.7230
  931MOL0     H22887   3.497   9.016   4.481  0.0567 -0.4938  1.0245
  931MOL0     H22888   3.323   9.208   4.455 -1.7845  0.5214 -0.9772
  931MOL0     H22889   3.341   9.125   4.295  0.3505 -0.3354 -0.7657
  931MOL0     H22890   2.945   9.045   4.404  0.0766 -1.1111 -1.0447
  931MOL0     H22891   3.201   8.914   5.051 -2.1187  2.5179  0.5662
  931MOL0     H22892   2.966   8.849   5.109  1.1702 -2.6559  0.1843
  932MOL0     O22893   9.611   8.718   1.270 -0.7437  0.5836  0.7316
  932MOL0     C22894   9.660   8.603   1.241  0.8335 -0.6531 -0.2788
  932MOL0     O22895   9.593   8.489   1.233  0.3724 -0.0038  0.3080
  932MOL0     C22896   9.465   8.472   1.272  0.7065 -0.0650  0.2924
  932MOL0     C22897   9.404   8.362   1.210  0.7358 -0.1540 -0.7375
  932MOL0     C22898   9.272   8.335   1.248  0.5925  0.0089  0.7291
  932MOL0     C22899   9.210   8.402   1.351  0.9369  0.3567 -0.0526
  932MOL0     O22900   9.095   8.362   1.410 -0.3852 -0.1482  0.9919
  932MOL0     C22901   8.986   8.322   1.329  0.5918  0.4887  0.6805
  932MOL0     C22902   8.851   8.371   1.382 -0.0034  0.7050 -0.0775
  932MOL0     C22903   8.828   8.338   1.532 -1.0016  0.9577 -0.4188
  932MOL0     C22904   8.708   8.411   1.598  0.0752 -0.4463  0.7718
  932MOL0     C22905   8.577   8.371   1.536  0.2881 -0.1336 -0.8432
  932MOL0     C22906   8.469   8.457   1.613  0.7106  0.2268  0.2894
  932MOL0     C22907   8.326   8.406   1.594  1.2347  0.1231  0.9470
  932MOL0     C22908   8.231   8.489   1.680 -0.3449 -1.3435  0.0674
  932MOL0     N22909   8.092   8.468   1.646 -0.4793  0.5775  0.3627
  932MOL0     C22910   8.000   8.397   1.721 -1.1232 -0.5065 -0.3105
  932MOL0     C22911   7.896   8.390   1.636  0.8975  0.1569 -0.0156
  932MOL0     C22912   7.763   8.307   1.665  0.2768  0.0214  0.4201
  932MOL0     C22913   7.639   8.408   1.696 -0.0972 -0.0042  0.3123
  932MOL0     C22914   7.576   8.446   1.561 -0.9779 -0.1831  0.1194
  932MOL0     C22915   7.425   8.451   1.568 -0.3206 -0.2935 -0.4127
  932MOL0     O22916   7.364   8.494   1.447  0.4802 -0.4790 -0.1893
  932MOL0     C22917   7.231   8.473   1.416 -0.4744 -0.0632 -0.0010
  932MOL0     C22918   7.186   8.474   1.280 -0.5513  0.1111  0.2256
  932MOL0     C22919   7.050   8.453   1.250 -0.3639  0.6446 -0.2222
  932MOL0     C22920   6.957   8.438   1.354  0.7904  0.1841  0.4696
  932MOL0     C22921   6.805   8.434   1.324 -0.3679 -0.3673  0.8296
  932MOL0     O22922   6.733   8.333   1.388 -0.2242  0.2190  0.7303
  932MOL0     C22923   6.607   8.316   1.352  0.8504 -0.0332 -0.2269
  932MOL0     C22924   6.502   8.406   1.364  0.4542 -0.2484  0.1150
  932MOL0     C22925   6.369   8.363   1.337 -0.6185  0.1344  0.5568
  932MOL0     C22926   6.347   8.239   1.272 -0.2778 -0.5077  0.5575
  932MOL0     O22927   6.215   8.219   1.246 -0.1924 -0.0701  0.1854
  932MOL0     C22928   6.171   8.080   1.220  0.3326 -0.3694  0.3605
  932MOL0     C22929   6.018   8.078   1.165  0.8610 -0.3418  0.0011
  932MOL0     C22930   6.001   8.155   1.037 -0.1286 -0.3797  0.1902
  932MOL0     C22931   5.870   8.100   0.965  0.7317 -0.8807 -0.7980
  932MOL0     C22932   5.849   8.182   0.835  1.1332 -0.0311 -0.5938
  932MOL0     C22933   5.944   8.136   0.723  0.3669  0.1523 -1.0157
  932MOL0     C22934   5.864   8.164   0.590  0.0971  0.4725 -0.1605
  932MOL0     C22935   5.827   8.308   0.573  0.2398 -1.4844 -0.6175
  932MOL0    Cl22936   5.962   8.426   0.577 -0.0064  0.0135  0.3168
  932MOL0     C22937   6.451   8.151   1.245  0.4154  0.1221  0.1274
  932MOL0     C22938   6.582   8.190   1.287 -0.0329 -0.1653 -0.0027
  932MOL0     O22939   6.767   8.503   1.226  0.6193 -0.8187  0.4380
  932MOL0     C22940   6.996   8.434   1.488 -0.2931  0.2628 -0.6134
  932MOL0     C22941   7.132   8.454   1.516 -0.8592  0.6319 -0.5493
  932MOL0     N22942   7.919   8.450   1.512  0.4100  0.1658 -0.6534
  932MOL0     N22943   8.038   8.494   1.525  0.5056  0.3490  0.0715
  932MOL0     C22944   9.265   8.514   1.397 -0.2263 -0.7632  0.1651
  932MOL0     C22945   9.393   8.555   1.370 -0.1880 -0.0181  0.6367
  932MOL0     C22946   9.790   8.592   1.178 -0.6433  0.0312  1.1700
  932MOL0     C22947   9.847   8.460   1.151  0.4498  0.5657  0.7525
  932MOL0     C22948   9.972   8.449   1.098  0.0278  0.2859 -0.0542
  932MOL0     C22949  10.051   8.552   1.060  0.4596  0.4671  0.1067
  932MOL0     O22950  10.181   8.517   1.023  0.5040  0.1663  0.6418
  932MOL0     C22951  10.276   8.631   0.992 -0.4490 -0.5342  0.3544
  932MOL0     C22952  10.426   8.580   0.987  0.2349 -0.1937  0.5972
  932MOL0     C22953  10.473   8.565   0.838  0.2925 -0.1067 -0.9981
  932MOL0     C22954  10.612   8.507   0.800 -0.5866  0.0084 -0.5646
  932MOL0     C22955  10.729   8.606   0.800 -0.1346  0.2337 -0.3728
  932MOL0     C22956  10.829   8.682   0.815  0.2852  0.5124 -0.4133
  932MOL0     C22957  10.002   8.680   1.088  0.0632  0.0718  0.2151
  932MOL0     C22958   9.876   8.702   1.138  0.8350 -0.5371 -0.9100
  932MOL0     H22959   9.455   8.299   1.138  0.5209 -1.9398  0.6000
  932MOL0     H22960   9.225   8.253   1.193 -1.3855  0.1274  2.1395
  932MOL0     H22961   8.972   8.214   1.320 -2.5227  0.7949  0.9472
  932MOL0     H22962   8.993   8.362   1.228 -2.0097 -0.7752 -0.0854
  932MOL0     H22963   8.773   8.332   1.317  1.1236  2.8068 -2.8849
  932MOL0     H22964   8.858   8.481   1.381  0.3959  0.7368  2.0522
  932MOL0     H22965   8.911   8.375   1.593 -2.2054  2.2381  0.5217
  932MOL0     H22966   8.818   8.231   1.548 -2.1157  1.0869 -0.1508
  932MOL0     H22967   8.702   8.399   1.706  1.2950 -0.6919  0.8300
  932MOL0     H22968   8.729   8.518   1.590  1.0055 -0.6968 -0.4135
  932MOL0     H22969   8.558   8.265   1.558  0.0186  0.3798  1.7661
  932MOL0     H22970   8.578   8.382   1.427 -0.8834 -0.6600 -0.9280
  932MOL0     H22971   8.468   8.559   1.574 -0.6348  0.1219  0.0272
  932MOL0     H22972   8.488   8.449   1.721 -0.1828 -3.8590  0.2888
  932MOL0     H22973   8.302   8.439   1.492 -0.7087  1.8773  1.8963
  932MOL0     H22974   8.300   8.300   1.609  3.8833 -0.5570  1.1661
  932MOL0     H22975   8.253   8.592   1.652 -0.7291 -0.8461  1.4935
  932MOL0     H22976   8.246   8.467   1.786  1.2006  0.2638  0.2180
  932MOL0     H22977   8.007   8.369   1.825  0.9803 -0.9273 -0.5207
  932MOL0     H22978   7.793   8.243   1.748  0.8524  0.8941  0.8976
  932MOL0     H22979   7.748   8.243   1.577  0.3549 -1.7992  1.6951
  932MOL0     H22980   7.664   8.502   1.745  0.4532  0.4690 -0.8522
  932MOL0     H22981   7.566   8.353   1.758 -1.4111  0.3780 -0.8360
  932MOL0     H22982   7.623   8.530   1.510 -0.8773 -0.2696  0.0699
  932MOL0     H22983   7.596   8.359   1.498 -0.8567  0.3093 -0.5261
  932MOL0     H22984   7.385   8.504   1.654 -1.5981  0.1822 -1.2730
  932MOL0     H22985   7.398   8.345   1.577  0.6327 -0.6052 -1.0283
  932MOL0     H22986   7.254   8.482   1.196 -1.8111  0.2818 -0.8228
  932MOL0     H22987   7.013   8.458   1.148 -2.8929  1.1562  0.6634
  932MOL0     H22988   6.517   8.509   1.393  2.0635 -0.3425 -0.2791
  932MOL0     H22989   6.290   8.438   1.333 -0.7121  0.0592  0.9836
  932MOL0     H22990   6.189   8.023   1.312 -0.4593 -0.8170  0.2467
  932MOL0     H22991   6.225   8.030   1.139 -0.1652  0.7279 -0.6699
  932MOL0     H22992   5.953   8.114   1.245  1.5606  1.0531 -0.0281
  932MOL0     H22993   5.997   7.973   1.142  0.6575 -1.0079  2.8306
  932MOL0     H22994   6.091   8.159   0.975 -0.1454  0.7662  0.2229
  932MOL0     H22995   5.980   8.261   1.053  0.3648 -0.1699 -0.5248
  932MOL0     H22996   5.892   7.995   0.941  3.7856  0.1193 -3.1034
  932MOL0     H22997   5.776   8.105   1.019 -0.4117 -0.8499 -2.6851
  932MOL0     H22998   5.853   8.288   0.859 -0.7149 -0.8256  4.3907
  932MOL0     H22999   5.747   8.164   0.798  2.0576  2.8590 -5.4655
  932MOL0     H23000   5.957   8.028   0.738  0.0567  0.4794  2.4259
  932MOL0     H23001   6.038   8.188   0.741 -0.1185  0.9929 -0.8708
  932MOL0     H23002   5.925   8.124   0.509 -1.4179 -0.5756 -0.8242
  932MOL0     H23003   5.770   8.109   0.580 -0.1506  1.1334 -1.7954
  932MOL0     H23004   5.761   8.338   0.655 -1.9570 -2.0586 -2.0932
  932MOL0     H23005   5.772   8.314   0.479 -0.6181 -0.2775 -0.0694
  932MOL0     H23006   6.435   8.050   1.211  1.7668 -0.2687  0.5637
  932MOL0     H23007   6.663   8.119   1.276 -2.2816 -2.5072 -3.3298
  932MOL0     H23008   6.923   8.420   1.567 -2.1386  3.3956 -1.6178
  932MOL0     H23009   7.149   8.449   1.623 -0.7909 -1.0434 -0.6100
  932MOL0     H23010   9.217   8.573   1.475 -1.3497 -0.3017 -0.8563
  932MOL0     H23011   9.433   8.646   1.414 -0.7914 -1.1636  3.8256
  932MOL0     H23012   9.790   8.372   1.178  0.1729  0.5373  0.0856
  932MOL0     H23013  10.014   8.349   1.103 -2.1916 -0.7285 -0.4993
  932MOL0     H23014  10.274   8.711   1.066  1.7854  0.2525 -0.3474
  932MOL0     H23015  10.245   8.672   0.895 -4.9709 -4.0133  0.0121
  932MOL0     H23016  10.494   8.653   1.032 -0.0004  0.1370  0.4189
  932MOL0     H23017  10.430   8.481   1.033  1.2695 -0.4090  0.0767
  932MOL0     H23018  10.452   8.653   0.777  0.0935 -1.5264 -3.0654
  932MOL0     H23019  10.401   8.493   0.798 -0.9244 -0.9232  2.3187
  932MOL0     H23020  10.644   8.433   0.874 -1.1950  1.7462  1.5395
  932MOL0     H23021  10.612   8.444   0.711  1.1257  0.2185 -0.7461
  932MOL0     H23022  10.905   8.752   0.841  0.4408 -0.5576  2.3466
  932MOL0     H23023  10.069   8.766   1.088  0.1353  0.1073  3.0550
  932MOL0     H23024   9.828   8.797   1.159  0.1446 -0.8461 -1.0518
  933MOL0     O23025   3.606  10.288   5.828  0.1690  0.5939 -0.3966
  933MOL0     C23026   3.601  10.366   5.919 -0.5603  0.2818 -0.2849
  933MOL0     O23027   3.497  10.388   6.008 -0.0890  0.5770 -0.9751
  933MOL0     C23028   3.368  10.360   5.972  0.0300  0.0797  0.6616
  933MOL0     C23029   3.321  10.351   5.840  0.4498  0.2588  0.5118
  933MOL0     C23030   3.180  10.342   5.823  0.3744 -0.0767 -0.0480
  933MOL0     C23031   3.094  10.320   5.933 -0.1134 -0.0436 -0.3813
  933MOL0     O23032   2.963  10.318   5.918 -0.1322 -0.3279 -0.7926
  933MOL0     C23033   2.872  10.339   6.027  0.3608 -0.2694 -0.3103
  933MOL0     C23034   2.816  10.202   6.069 -0.5125 -1.3651 -0.2985
  933MOL0     C23035   2.676  10.212   6.128  0.6720 -0.0727 -0.6249
  933MOL0     C23036   2.669  10.293   6.249 -0.0395 -0.3007 -0.1538
  933MOL0     C23037   2.536  10.284   6.326  0.0656 -0.2030  0.4587
  933MOL0     C23038   2.411  10.297   6.238  0.8161  0.6471 -0.7248
  933MOL0     C23039   2.301  10.362   6.317 -0.8037 -0.1333  0.1856
  933MOL0     C23040   2.157  10.336   6.258 -0.2934  0.1673 -0.0330
  933MOL0     N23041   2.050  10.421   6.312  0.5703 -0.8011  0.9526
  933MOL0     C23042   1.991  10.515   6.234  0.8130  0.0533 -0.4004
  933MOL0     C23043   1.891  10.561   6.308 -0.2362 -0.1160  0.0346
  933MOL0     C23044   1.790  10.667   6.276 -0.4052 -0.2435  0.6105
  933MOL0     C23045   1.784  10.760   6.394  0.0661 -0.8432  0.1759
  933MOL0     C23046   1.641  10.808   6.427 -0.7727  0.1385  0.0484
  933MOL0     C23047   1.541  10.847   6.311 -0.3239 -0.0678  0.2010
  933MOL0     O23048   1.443  10.949   6.350 -0.2883  0.8985  0.5862
  933MOL0     C23049   1.306  10.917   6.386  0.1197 -0.1249 -0.0237
  933MOL0     C23050   1.246  10.788   6.384  0.0494  0.1371 -0.5889
  933MOL0     C23051   1.115  10.755   6.414  0.0904 -1.1522  0.0431
  933MOL0     C23052   1.028  10.865   6.441 -0.1276 -0.4061 -0.0767
  933MOL0     C23053   0.880  10.832   6.438 -0.9362  0.3008  0.0827
  933MOL0     O23054   0.847  10.704   6.457  1.0846 -0.3125 -0.3365
  933MOL0     C23055   0.715  10.675   6.454  0.3011  0.6514  0.4456
  933MOL0     C23056   0.650  10.636   6.577  0.7118  0.5237  0.6045
  933MOL0     C23057   0.518  10.586   6.580 -0.0261 -0.6735 -0.2360
  933MOL0     C23058   0.449  10.575   6.456 -0.2658  0.8271 -0.1571
  933MOL0     O23059   0.310  10.549   6.453  0.1835  0.5030  0.3161
  933MOL0     C23060   0.268  10.460   6.554 -0.3130 -0.3250  0.0081
  933MOL0     C23061   0.112  10.439   6.542 -0.2756 -1.0522 -0.6606
  933MOL0     C23062   0.040  10.581   6.559  0.3441 -0.1194  0.6776
  933MOL0     C23063  -0.103  10.545   6.533  0.6775  0.7502  0.7230
  933MOL0     C23064  -0.147  10.544   6.381  0.8783 -0.0238 -0.1976
  933MOL0     C23065  -0.291  10.511   6.366 -0.3307 -0.2415 -0.0669
  933MOL0     C23066  -0.326  10.459   6.231  0.3775  0.5609  0.3351
  933MOL0     C23067  -0.476  10.443   6.220 -0.0731 -0.0765 -0.4874
  933MOL0    Cl23068  -0.563  10.596   6.200  0.1840  0.3386  0.2139
  933MOL0     C23069   0.514  10.602   6.338 -0.3623  0.5130  0.8070
  933MOL0     C23070   0.645  10.658   6.331  1.4870  0.3006  0.5083
  933MOL0     O23071   0.809  10.930   6.440  0.3019 -0.8466  0.3975
  933MOL0     C23072   1.077  10.995   6.429  0.4781 -0.3222 -0.6211
  933MOL0     C23073   1.217  11.026   6.417 -0.8339 -1.0777 -0.8232
  933MOL0     N23074   1.890  10.489   6.428 -0.1742 -0.7932 -0.1739
  933MOL0     N23075   1.989  10.401   6.431  0.4712 -0.3311  0.8034
  933MOL0     C23076   3.149  10.317   6.062  0.2196 -0.2540  1.6476
  933MOL0     C23077   3.288  10.339   6.085  0.1421 -0.4242 -0.5860
  933MOL0     C23078   3.716  10.447   5.942  0.1415 -0.2438 -0.5483
  933MOL0     C23079   3.847  10.419   5.877  0.3014 -0.5823  0.3799
  933MOL0     C23080   3.957  10.508   5.898 -0.1874 -0.5610  0.3799
  933MOL0     C23081   3.945  10.623   5.977  0.8529  0.1073  0.6695
  933MOL0     O23082   4.059  10.695   6.003 -0.0947 -0.6041  0.7574
  933MOL0     C23083   4.177  10.656   5.929 -0.6707 -1.5245 -0.3996
  933MOL0     C23084   4.298  10.753   5.962  0.5307  0.5308  1.0669
  933MOL0     C23085   4.330  10.746   6.107 -0.7944 -0.6920  0.3138
  933MOL0     C23086   4.459  10.832   6.136  0.3694  0.1205  0.1417
  933MOL0     C23087   4.432  10.973   6.095 -0.5493 -0.4187  0.8921
  933MOL0     C23088   4.427  11.086   6.055  0.5509 -0.0845  0.3493
  933MOL0     C23089   3.828  10.648   6.040  0.6165  0.7065 -0.2688
  933MOL0     C23090   3.710  10.564   6.021 -0.7619  0.7910 -0.4191
  933MOL0     H23091   3.379  10.356   5.748 -1.8350  1.8791 -0.9438
  933MOL0     H23092   3.131  10.346   5.726 -1.3033  0.4533  0.7754
  933MOL0     H23093   2.789  10.398   5.987 -0.2163 -0.4894  0.5281
  933MOL0     H23094   2.909  10.405   6.107 -0.3339  1.8113 -1.6311
  933MOL0     H23095   2.890  10.148   6.129  1.6484 -0.0950 -1.6598
  933MOL0     H23096   2.807  10.149   5.973  1.1961 -2.8304  0.2824
  933MOL0     H23097   2.648  10.107   6.146  1.5814 -0.2530 -0.1810
  933MOL0     H23098   2.612  10.244   6.046 -3.0173 -1.2847  1.5622
  933MOL0     H23099   2.756  10.262   6.308 -1.1942 -3.1720  0.1921
  933MOL0     H23100   2.678  10.400   6.227 -1.1860  0.7760  3.8058
  933MOL0     H23101   2.545  10.362   6.402 -2.2254  1.0077 -0.4465
  933MOL0     H23102   2.535  10.185   6.372 -0.0281  0.8381  2.8715
  933MOL0     H23103   2.377  10.206   6.188  1.3332  0.4880 -0.7922
  933MOL0     H23104   2.435  10.370   6.160  1.8090  1.0573 -0.0600
  933MOL0     H23105   2.291  10.325   6.420 -0.4212 -0.4903  0.0942
  933MOL0     H23106   2.324  10.469   6.330 -0.4510  0.0630 -1.8446
  933MOL0     H23107   2.150  10.231   6.287  0.5580 -0.1557 -0.9448
  933MOL0     H23108   2.158  10.336   6.149  1.3777  0.2568 -0.0557
  933MOL0     H23109   2.014  10.550   6.134 -1.3132  0.2738 -0.8594
  933MOL0     H23110   1.697  10.612   6.258  0.9895 -1.9466 -2.1106
  933MOL0     H23111   1.819  10.721   6.185 -1.1234  0.5410  0.8362
  933MOL0     H23112   1.854  10.843   6.388 -1.7526  0.7720  0.2662
  933MOL0     H23113   1.799  10.706   6.488 -1.2146 -0.5766  0.5557
  933MOL0     H23114   1.601  10.718   6.475 -1.2663 -0.2320 -1.0179
  933MOL0     H23115   1.651  10.892   6.495 -0.4994  0.0367  0.1379
  933MOL0     H23116   1.496  10.758   6.266 -3.0331  1.0027  0.6086
  933MOL0     H23117   1.603  10.889   6.232 -1.4789 -0.2309 -0.8201
  933MOL0     H23118   1.310  10.705   6.354  0.0941  0.9617 -3.0003
  933MOL0     H23119   1.084  10.651   6.409 -3.7874 -0.2171  1.0593
  933MOL0     H23120   0.710  10.642   6.667 -1.3758  1.8439  1.9899
  933MOL0     H23121   0.480  10.571   6.680 -0.7651 -0.2361 -0.4434
  933MOL0     H23122   0.281  10.514   6.648  3.1238  0.7574 -0.9439
  933MOL0     H23123   0.318  10.364   6.545 -0.3480 -0.1876 -2.1697
  933MOL0     H23124   0.079  10.380   6.628  1.8541 -3.3511 -1.2575
  933MOL0     H23125   0.100  10.389   6.445  3.7306 -2.8139 -0.4612
  933MOL0     H23126   0.061  10.654   6.481  0.1073 -1.3249 -0.5475
  933MOL0     H23127   0.066  10.617   6.659  0.7147 -1.9474  1.2873
  933MOL0     H23128  -0.132  10.451   6.581 -0.0651  0.2801 -0.6059
  933MOL0     H23129  -0.160  10.626   6.581  1.0857  0.8667  1.0194
  933MOL0     H23130  -0.086  10.475   6.322  1.5205  0.6305 -0.3160
  933MOL0     H23131  -0.124  10.645   6.346 -0.7291  0.4197 -0.0495
  933MOL0     H23132  -0.354  10.597   6.393 -1.0655 -1.0676  0.9425
  933MOL0     H23133  -0.327  10.427   6.426  1.1887 -1.1397 -0.3612
  933MOL0     H23134  -0.297  10.539   6.162  0.0228  0.1138 -0.3369
  933MOL0     H23135  -0.268  10.370   6.206 -1.7911 -1.4123  1.8196
  933MOL0     H23136  -0.513  10.386   6.306 -0.6520  0.7862 -0.1529
  933MOL0     H23137  -0.513  10.380   6.139 -2.5016  0.7652 -0.0871
  933MOL0     H23138   0.450  10.598   6.250  0.5883 -0.5183  0.1415
  933MOL0     H23139   0.691  10.669   6.234 -1.7577  2.1443 -0.9734
  933MOL0     H23140   1.012  11.081   6.442  0.3936 -0.5465  0.5933
  933MOL0     H23141   1.249  11.129   6.407 -2.1056 -0.6761 -0.9145
  933MOL0     H23142   3.090  10.281   6.145 -0.4344 -0.1542  1.2302
  933MOL0     H23143   3.334  10.348   6.183  0.2204  1.3609 -0.7722
  933MOL0     H23144   3.851  10.328   5.817  3.4746 -1.1063  1.1740
  933MOL0     H23145   4.050  10.485   5.849 -1.5998 -2.1371 -1.7510
  933MOL0     H23146   4.163  10.671   5.822  0.4536  2.9335 -0.1284
  933MOL0     H23147   4.210  10.556   5.960 -0.5758 -1.8675 -1.5795
  933MOL0     H23148   4.392  10.738   5.908  0.8474 -0.9389  1.9722
  933MOL0     H23149   4.255  10.852   5.942  1.6270  0.8194  0.0101
  933MOL0     H23150   4.338  10.642   6.141  3.2585  0.2694  3.0318
  933MOL0     H23151   4.247  10.791   6.161  0.2239  1.9160 -0.1457
  933MOL0     H23152   4.481  10.835   6.243 -2.7352  1.9883  0.8530
  933MOL0     H23153   4.543  10.784   6.085 -0.2603  0.1953 -1.0067
  933MOL0     H23154   4.424  11.180   6.003  3.5250 -0.3055 -0.4066
  933MOL0     H23155   3.811  10.740   6.095 -1.5321 -1.4122  2.9057
  933MOL0     H23156   3.621  10.590   6.078  0.3919  0.6985  1.4961
  934MOL0     O23157   1.849   4.701   8.931  0.2779  0.3913  0.0863
  934MOL0     C23158   1.829   4.743   8.820  0.1081 -0.0549 -0.1426
  934MOL0     O23159   1.717   4.703   8.743  0.0189 -0.4433 -0.0046
  934MOL0     C23160   1.596   4.670   8.802 -0.1859 -0.5365  0.5875
  934MOL0     C23161   1.545   4.704   8.925 -0.1406  1.3343 -0.9634
  934MOL0     C23162   1.414   4.672   8.970 -0.1160 -0.7453 -0.0127
  934MOL0     C23163   1.339   4.583   8.884 -0.3895  0.1147 -0.7511
  934MOL0     O23164   1.222   4.524   8.923  0.2434 -0.1911 -0.0641
  934MOL0     C23165   1.164   4.550   9.046 -0.1087 -0.8201 -0.6844
  934MOL0     C23166   1.012   4.508   9.041  0.3795  0.4098  0.4805
  934MOL0     C23167   0.985   4.357   9.055 -0.6191 -0.2349 -0.4318
  934MOL0     C23168   1.044   4.271   8.949  0.0323 -0.8121  0.5036
  934MOL0     C23169   1.023   4.127   9.000  0.2755  0.3188  0.7567
  934MOL0     C23170   0.893   4.063   8.953 -0.6968  0.2554  0.4143
  934MOL0     C23171   0.890   3.920   9.020 -0.6559 -0.3195  0.6019
  934MOL0     C23172   0.777   3.837   8.998 -0.1420  0.4371 -0.2954
  934MOL0     N23173   0.736   3.822   8.853 -0.3015 -0.4078 -0.2053
  934MOL0     C23174   0.629   3.891   8.795  0.0144  0.6466  0.2760
  934MOL0     C23175   0.615   3.836   8.669 -1.0129 -0.0271 -0.7947
  934MOL0     C23176   0.529   3.886   8.549 -0.6604  0.7173 -0.4043
  934MOL0     C23177   0.384   3.861   8.579  0.2495  0.9919  0.5411
  934MOL0     C23178   0.345   3.714   8.566  0.0166 -0.4982  0.0527
  934MOL0     C23179   0.201   3.695   8.527  0.4630  0.0422  0.4258
  934MOL0     O23180   0.179   3.733   8.391  0.7011 -0.2326  0.1884
  934MOL0     C23181   0.050   3.747   8.347  0.0220  0.8773 -0.2832
  934MOL0     C23182  -0.060   3.677   8.387  1.1885  0.8587 -1.3088
  934MOL0     C23183  -0.187   3.678   8.340  0.0115  0.7747 -0.9870
  934MOL0     C23184  -0.203   3.757   8.231  0.0545 -0.4107 -0.9890
  934MOL0     C23185  -0.339   3.758   8.170 -0.1316  0.0105  0.1458
  934MOL0     O23186  -0.419   3.651   8.213  0.6539 -0.3347  0.3034
  934MOL0     C23187  -0.549   3.658   8.180 -0.2609  0.4947  0.1461
  934MOL0     C23188  -0.641   3.730   8.252  0.5131 -0.3877  1.3466
  934MOL0     C23189  -0.784   3.722   8.214  0.1338 -0.3915 -0.1467
  934MOL0     C23190  -0.825   3.636   8.104  0.3799  0.3390  0.6907
  934MOL0     O23191  -0.947   3.600   8.068  0.6332 -0.4139 -0.0608
  934MOL0     C23192  -1.060   3.648   8.147  0.2382 -0.7854  0.1042
  934MOL0     C23193  -1.180   3.575   8.122  0.1890 -0.3918  0.3408
  934MOL0     C23194  -1.164   3.417   8.142 -0.5792 -0.1993 -0.0398
  934MOL0     C23195  -1.291   3.340   8.131 -0.3553 -0.4639  0.3449
  934MOL0     C23196  -1.336   3.319   7.980  0.6859 -1.2826  1.8222
  934MOL0     C23197  -1.477   3.255   7.961 -0.2074 -0.8203  0.0133
  934MOL0     C23198  -1.462   3.104   7.976 -0.1089 -0.1705 -0.1078
  934MOL0     C23199  -1.600   3.046   7.945  0.7462 -0.4926 -0.2057
  934MOL0    Cl23200  -1.720   3.039   8.078  0.1426 -0.0336 -0.3079
  934MOL0     C23201  -0.726   3.566   8.046 -0.3636  0.3327  0.5567
  934MOL0     C23202  -0.590   3.573   8.081 -0.5708  0.1079  0.1054
  934MOL0     O23203  -0.369   3.834   8.082  0.3033  0.1358  0.0012
  934MOL0     C23204  -0.105   3.845   8.175 -0.3104  0.5311 -0.7983
  934MOL0     C23205   0.018   3.830   8.237 -0.3151 -0.5711 -0.7298
  934MOL0     N23206   0.702   3.728   8.671 -0.2687  0.1830 -0.0781
  934MOL0     N23207   0.772   3.715   8.774 -0.8120 -0.3308  0.6402
  934MOL0     C23208   1.395   4.544   8.769  1.0604 -0.4709  0.5849
  934MOL0     C23209   1.521   4.585   8.727  0.5709 -0.5537 -0.8216
  934MOL0     C23210   1.938   4.824   8.759  0.6313  0.5842 -0.3644
  934MOL0     C23211   1.952   4.817   8.621 -0.0886 -0.2748  0.1990
  934MOL0     C23212   2.060   4.889   8.560 -0.0256  0.4076  0.4894
  934MOL0     C23213   2.153   4.967   8.629 -0.3303 -0.1652  0.1652
  934MOL0     O23214   2.256   5.039   8.576 -0.0692 -0.5961  0.5006
  934MOL0     C23215   2.313   5.016   8.444 -0.4274 -0.1280  0.1738
  934MOL0     C23216   2.455   5.082   8.454  0.1711 -1.1430 -0.0153
  934MOL0     C23217   2.470   5.224   8.484 -0.1643  0.6080  0.0338
  934MOL0     C23218   2.620   5.273   8.497  1.1068 -0.0263 -0.1534
  934MOL0     C23219   2.674   5.250   8.635  0.1350  0.7819  0.2087
  934MOL0     C23220   2.720   5.217   8.746 -0.4196  0.2714  0.3733
  934MOL0     C23221   2.137   4.954   8.768 -0.2661 -0.2250  0.9365
  934MOL0     C23222   2.037   4.884   8.835  0.4997  0.1808 -0.2294
  934MOL0     H23223   1.596   4.756   9.007 -3.6990  1.1354  1.6304
  934MOL0     H23224   1.377   4.701   9.068  1.6435 -4.7744  2.1241
  934MOL0     H23225   1.170   4.658   9.059  3.1383 -0.8589 -1.1533
  934MOL0     H23226   1.209   4.500   9.133  0.7428 -0.0374 -0.6641
  934MOL0     H23227   0.966   4.547   8.950  2.0129  2.0418  0.3021
  934MOL0     H23228   0.962   4.561   9.123 -0.3607  2.9763 -1.4846
  934MOL0     H23229   0.878   4.335   9.055 -0.2852 -2.0135  0.7818
  934MOL0     H23230   1.033   4.319   9.145 -1.0255 -0.9336 -0.5016
  934MOL0     H23231   0.983   4.280   8.859 -3.7990 -0.7699  2.8463
  934MOL0     H23232   1.151   4.292   8.937  0.3145 -0.8075  2.6609
  934MOL0     H23233   1.032   4.116   9.109 -1.7975  1.4045  1.0852
  934MOL0     H23234   1.100   4.061   8.958  0.8520  1.5199 -0.1255
  934MOL0     H23235   0.888   4.049   8.844 -0.7915 -0.7420  0.5313
  934MOL0     H23236   0.805   4.119   8.985 -0.8452 -0.6524  1.6627
  934MOL0     H23237   0.985   3.869   9.000 -0.0720  0.4380  1.3767
  934MOL0     H23238   0.905   3.942   9.126  1.9286  1.9744 -0.1389
  934MOL0     H23239   0.685   3.866   9.049 -0.3504  1.6612 -1.3039
  934MOL0     H23240   0.810   3.741   9.038 -1.1592  0.3317  0.3179
  934MOL0     H23241   0.583   3.980   8.835 -1.7743 -0.1227  0.0393
  934MOL0     H23242   0.559   3.833   8.459 -0.7068  0.2485 -0.1493
  934MOL0     H23243   0.557   3.990   8.532  0.8373  0.2365 -1.0364
  934MOL0     H23244   0.322   3.922   8.514 -3.4808  1.0490  3.7903
  934MOL0     H23245   0.351   3.882   8.681  1.0318 -3.0034  1.8122
  934MOL0     H23246   0.420   3.666   8.502  0.8540 -0.3276  0.8755
  934MOL0     H23247   0.366   3.668   8.663  0.9269 -1.4620 -0.5827
  934MOL0     H23248   0.138   3.760   8.588  0.1671 -0.6627  0.8834
  934MOL0     H23249   0.184   3.589   8.548  3.2212 -0.2739  1.4795
  934MOL0     H23250  -0.046   3.620   8.479  1.3469  2.0405 -0.5701
  934MOL0     H23251  -0.264   3.614   8.382  1.4035 -1.5085 -1.6736
  934MOL0     H23252  -0.615   3.802   8.329  0.1694  1.6936 -0.3960
  934MOL0     H23253  -0.861   3.772   8.273 -2.4592  0.2727 -3.7332
  934MOL0     H23254  -1.064   3.758   8.142  1.4213 -0.7025  0.5664
  934MOL0     H23255  -1.048   3.631   8.255 -1.1468 -0.4902  0.3256
  934MOL0     H23256  -1.208   3.603   8.020  0.1740 -1.5293  0.0198
  934MOL0     H23257  -1.261   3.620   8.180 -0.9356 -0.4015 -1.1644
  934MOL0     H23258  -1.124   3.395   8.241 -0.2705 -2.5309 -0.6249
  934MOL0     H23259  -1.089   3.377   8.073 -2.1098  0.3217 -2.1203
  934MOL0     H23260  -1.276   3.239   8.170 -1.2309 -1.6400 -2.1001
  934MOL0     H23261  -1.366   3.397   8.186  0.2156  1.5145 -0.8424
  934MOL0     H23262  -1.256   3.276   7.920 -1.6804 -0.2172 -2.5035
  934MOL0     H23263  -1.348   3.419   7.937 -1.2880 -0.2556  4.4699
  934MOL0     H23264  -1.519   3.292   7.867 -0.1687  1.3580  0.8112
  934MOL0     H23265  -1.548   3.288   8.038  1.0048  1.1895  0.3277
  934MOL0     H23266  -1.386   3.062   7.909 -0.4735 -2.8602  1.0192
  934MOL0     H23267  -1.440   3.074   8.079 -2.4095  0.5275  0.6465
  934MOL0     H23268  -1.591   2.950   7.893  0.8672  2.4660 -6.6203
  934MOL0     H23269  -1.656   3.108   7.875  0.4395  3.2338  3.0123
  934MOL0     H23270  -0.741   3.508   7.956 -1.6755  1.1636  0.2200
  934MOL0     H23271  -0.519   3.519   8.020  0.2217 -0.6795  1.6782
  934MOL0     H23272  -0.119   3.912   8.091  1.5772  0.5826 -1.1098
  934MOL0     H23273   0.095   3.891   8.192  0.1404 -0.7557 -0.2009
  934MOL0     H23274   1.352   4.469   8.704  2.1498  0.0500 -0.7647
  934MOL0     H23275   1.557   4.549   8.631  1.5838 -1.8557  0.0092
  934MOL0     H23276   1.884   4.757   8.561 -2.3556 -1.7407  3.8843
  934MOL0     H23277   2.066   4.871   8.453 -1.7182 -4.2594  0.9631
  934MOL0     H23278   2.259   5.079   8.373  0.2162  1.0244  0.6773
  934MOL0     H23279   2.314   4.910   8.416  0.9194 -0.0459 -0.1437
  934MOL0     H23280   2.512   5.021   8.524  1.2122  1.4210  1.5163
  934MOL0     H23281   2.496   5.066   8.354 -0.1850  0.0095 -0.3620
  934MOL0     H23282   2.413   5.257   8.571 -0.0671  0.9937 -0.0437
  934MOL0     H23283   2.427   5.283   8.402 -1.3610  0.7834  0.7629
  934MOL0     H23284   2.681   5.219   8.424 -0.5817 -1.2709 -0.7012
  934MOL0     H23285   2.615   5.382   8.484 -0.1694 -0.0649 -0.0694
  934MOL0     H23286   2.754   5.192   8.844  0.0571 -1.0979 -0.1037
  934MOL0     H23287   2.222   4.992   8.824  0.8185  0.9880 -1.3982
  934MOL0     H23288   2.038   4.876   8.943  1.7418 -0.7092 -0.2819
  935MOL0     O23289   8.804   1.761   1.031 -0.1629 -0.0163  0.3179
  935MOL0     C23290   8.832   1.645   1.035 -0.7652  0.2230  0.4571
  935MOL0     O23291   8.752   1.538   1.041  1.0987  0.2665  0.5257
  935MOL0     C23292   8.613   1.542   1.045  0.3875 -1.8438  0.0092
  935MOL0     C23293   8.537   1.638   0.974 -0.6027 -0.3473 -0.1490
  935MOL0     C23294   8.405   1.627   0.964  1.3801 -0.0137 -0.0702
  935MOL0     C23295   8.327   1.519   1.029 -1.2061  0.5205 -0.0733
  935MOL0     O23296   8.191   1.503   1.008  0.7216  0.1809  0.3316
  935MOL0     C23297   8.105   1.617   1.028  0.6781  0.1573 -0.5721
  935MOL0     C23298   8.089   1.650   1.173  0.2984 -0.4994  0.7288
  935MOL0     C23299   7.972   1.587   1.237 -0.0303 -0.1441 -0.8998
  935MOL0     C23300   7.964   1.656   1.380 -0.5622 -0.2911  0.0508
  935MOL0     C23301   7.895   1.568   1.474  0.4252  0.3514 -0.2781
  935MOL0     C23302   7.752   1.537   1.428  0.7037 -0.6600  0.0700
  935MOL0     C23303   7.669   1.469   1.547 -0.1154 -0.3208  0.0694
  935MOL0     C23304   7.516   1.463   1.501 -0.0348 -0.1992 -0.8172
  935MOL0     N23305   7.445   1.344   1.549  0.1506  1.3027 -0.8128
  935MOL0     C23306   7.393   1.338   1.674  0.5925 -0.0658 -0.1644
  935MOL0     C23307   7.339   1.212   1.681 -0.4272 -0.0575  0.4010
  935MOL0     C23308   7.269   1.148   1.797  0.2647  0.6559  0.2081
  935MOL0     C23309   7.152   1.236   1.851 -0.1657 -0.3637 -0.0016
  935MOL0     C23310   7.111   1.185   1.996 -0.7457 -0.3570 -0.5581
  935MOL0     C23311   7.032   1.054   1.990  0.7359  1.2526  0.6098
  935MOL0     O23312   6.942   1.042   2.103 -0.1434  0.2603 -0.0192
  935MOL0     C23313   6.857   0.938   2.106 -0.0755  0.0900  0.5019
  935MOL0     C23314   6.778   0.927   2.221 -1.0083 -0.0602  0.3434
  935MOL0     C23315   6.695   0.814   2.228 -0.1654 -0.1486  0.5807
  935MOL0     C23316   6.685   0.714   2.137 -0.2333  0.1949  0.0866
  935MOL0     C23317   6.589   0.597   2.153 -0.5270 -0.7093  0.4388
  935MOL0     O23318   6.555   0.521   2.047 -0.4383 -0.1385  0.0255
  935MOL0     C23319   6.469   0.417   2.074  0.2546 -0.8918  0.6582
  935MOL0     C23320   6.516   0.290   2.070  0.3718  0.9922 -0.1672
  935MOL0     C23321   6.440   0.180   2.110  0.7314 -0.4510  0.9258
  935MOL0     C23322   6.307   0.191   2.143  0.1572 -0.0252 -0.0756
  935MOL0     O23323   6.247   0.078   2.202 -0.2267 -0.0504  0.3486
  935MOL0     C23324   6.120   0.105   2.266  1.0067  0.8013 -0.0577
  935MOL0     C23325   6.067  -0.025   2.336 -0.4574  0.1099  0.2870
  935MOL0     C23326   5.919  -0.008   2.374  0.4795 -0.8841  0.4981
  935MOL0     C23327   5.891   0.109   2.467 -0.1113  0.4743  0.1588
  935MOL0     C23328   5.746   0.118   2.501  0.8316 -0.3928 -0.3290
  935MOL0     C23329   5.732   0.217   2.616 -1.3764 -0.0338  0.5720
  935MOL0     C23330   5.587   0.269   2.641 -0.5260  0.1285  0.4083
  935MOL0     C23331   5.506   0.171   2.725 -0.4874 -0.1429  0.0626
  935MOL0    Cl23332   5.348   0.252   2.771  0.0448 -0.4859  0.0868
  935MOL0     C23333   6.250   0.321   2.132 -0.4262 -0.6043 -0.6051
  935MOL0     C23334   6.330   0.435   2.096 -1.0055  0.8936  1.2529
  935MOL0     O23335   6.555   0.573   2.273 -0.1522  0.1059 -0.0930
  935MOL0     C23336   6.747   0.733   2.015  0.2432  0.2646  0.8967
  935MOL0     C23337   6.835   0.841   2.004 -0.5281  0.5016 -0.8046
  935MOL0     N23338   7.369   1.143   1.567 -0.9313  0.3767  0.3149
  935MOL0     N23339   7.442   1.220   1.494 -0.7734  0.8967  0.0226
  935MOL0     C23340   8.398   1.433   1.109  0.5873 -0.3185  0.6375
  935MOL0     C23341   8.537   1.446   1.111 -0.3549 -0.1359  1.0634
  935MOL0     C23342   8.984   1.628   1.018  0.1856 -0.5494  0.0582
  935MOL0     C23343   9.034   1.502   1.057 -0.6932  0.1105 -0.1575
  935MOL0     C23344   9.165   1.465   1.022 -1.0071  0.8601 -0.0230
  935MOL0     C23345   9.253   1.562   0.982  0.0840  0.0187 -0.1515
  935MOL0     O23346   9.387   1.532   0.964 -0.5156 -0.3024 -0.5265
  935MOL0     C23347   9.422   1.395   0.931 -0.4351 -0.0755  0.4329
  935MOL0     C23348   9.543   1.400   0.832 -0.2913 -0.1050 -0.3770
  935MOL0     C23349   9.576   1.257   0.788 -0.2484  0.4754  0.5627
  935MOL0     C23350   9.697   1.267   0.690 -0.2050  0.2065 -0.8095
  935MOL0     C23351   9.729   1.142   0.614  0.3844 -1.0520  0.8472
  935MOL0     C23352   9.740   1.036   0.566  0.1531 -0.7909 -0.0330
  935MOL0     C23353   9.208   1.694   0.953 -0.5138 -0.9936 -0.9353
  935MOL0     C23354   9.071   1.720   0.960 -0.2510  0.0669 -0.1161
  935MOL0     H23355   8.585   1.726   0.932 -1.3416  0.5406  0.7963
  935MOL0     H23356   8.347   1.701   0.909 -1.1865 -1.4054  0.5740
  935MOL0     H23357   8.009   1.599   0.978  2.2754 -1.4678 -3.2758
  935MOL0     H23358   8.148   1.704   0.977 -0.3223 -0.1603 -2.0388
  935MOL0     H23359   8.060   1.755   1.172  1.3995 -0.1845 -0.3390
  935MOL0     H23360   8.183   1.637   1.227  0.6976  2.1951  0.8042
  935MOL0     H23361   7.984   1.479   1.246 -0.1901  0.0035  2.1538
  935MOL0     H23362   7.880   1.617   1.184  0.4814  0.6051 -1.3835
  935MOL0     H23363   8.063   1.687   1.414 -0.2835 -0.2998 -0.7411
  935MOL0     H23364   7.906   1.748   1.363  0.1280  0.3209  0.8638
  935MOL0     H23365   7.884   1.594   1.579  0.5544 -6.0498  1.7551
  935MOL0     H23366   7.950   1.474   1.479  3.3972  1.9605 -0.3875
  935MOL0     H23367   7.756   1.476   1.338  0.8410 -1.4844  0.6174
  935MOL0     H23368   7.703   1.627   1.391  0.1491 -0.4399  1.2929
  935MOL0     H23369   7.693   1.363   1.560 -0.7691 -0.1590  3.3704
  935MOL0     H23370   7.680   1.523   1.641 -0.9895 -1.0785  0.6303
  935MOL0     H23371   7.519   1.457   1.391 -1.4995 -1.5068 -0.8255
  935MOL0     H23372   7.463   1.555   1.526 -0.5035 -0.2911 -1.4355
  935MOL0     H23373   7.393   1.415   1.750 -1.8899  0.4336 -0.5891
  935MOL0     H23374   7.343   1.118   1.872  0.9146 -0.6109 -0.8982
  935MOL0     H23375   7.230   1.052   1.763  2.8513 -0.2549 -0.4838
  935MOL0     H23376   7.073   1.230   1.776  0.6573  1.5940 -1.0804
  935MOL0     H23377   7.176   1.343   1.854 -1.8920  0.1688 -2.4900
  935MOL0     H23378   7.191   1.184   2.071 -0.2898 -1.7030 -1.0216
  935MOL0     H23379   7.043   1.251   2.050  2.0795 -0.9704  4.4447
  935MOL0     H23380   7.105   0.972   1.988 -0.8712 -0.2287 -2.0301
  935MOL0     H23381   6.968   1.046   1.902  1.2991 -0.5649  0.3306
  935MOL0     H23382   6.799   1.003   2.295  0.4969  1.7174 -1.8135
  935MOL0     H23383   6.629   0.801   2.314 -1.7545 -0.6859 -0.6776
  935MOL0     H23384   6.620   0.281   2.040  1.0667 -3.5759  2.6075
  935MOL0     H23385   6.485   0.082   2.116 -0.7028 -1.2254 -0.2628
  935MOL0     H23386   6.049   0.149   2.195  0.0971  0.2477  0.5002
  935MOL0     H23387   6.138   0.182   2.342  1.9186 -0.5435  1.1224
  935MOL0     H23388   6.126  -0.041   2.426  0.9936 -0.4781 -0.7239
  935MOL0     H23389   6.080  -0.108   2.265  3.7900 -0.4486  1.4678
  935MOL0     H23390   5.883  -0.104   2.411  0.2143 -0.5899  1.0199
  935MOL0     H23391   5.873   0.016   2.277  1.2558 -0.0705  0.3157
  935MOL0     H23392   5.954   0.090   2.554  2.1810  0.5970 -1.3909
  935MOL0     H23393   5.924   0.206   2.429  5.4903 -1.0418  0.3086
  935MOL0     H23394   5.714   0.017   2.531  0.3354 -0.2917 -0.5145
  935MOL0     H23395   5.684   0.144   2.415  0.9501  0.2845 -0.2099
  935MOL0     H23396   5.796   0.304   2.599  0.1091 -1.4414 -1.7026
  935MOL0     H23397   5.768   0.176   2.711 -0.9421 -2.0857 -0.4078
  935MOL0     H23398   5.590   0.361   2.699 -0.1107  1.0911 -1.0956
  935MOL0     H23399   5.541   0.278   2.543 -0.6528 -1.1061  0.3360
  935MOL0     H23400   5.569   0.157   2.813  1.5353 -0.1209 -1.3054
  935MOL0     H23401   5.493   0.078   2.668 -1.3464  0.5171 -0.8561
  935MOL0     H23402   6.144   0.325   2.156 -0.3616 -0.5638 -0.3318
  935MOL0     H23403   6.291   0.536   2.101 -4.2071  0.1197 -2.8679
  935MOL0     H23404   6.734   0.659   1.936  1.4246  1.4894 -0.5158
  935MOL0     H23405   6.884   0.840   1.908  1.2068 -4.3635 -0.1417
  935MOL0     H23406   8.351   1.356   1.170  3.4749  0.5774  4.4126
  935MOL0     H23407   8.595   1.379   1.174 -0.1630 -0.2224  0.8009
  935MOL0     H23408   8.971   1.435   1.115 -0.3054 -1.1787 -1.1803
  935MOL0     H23409   9.204   1.370   1.056 -0.6535  0.8074 -0.5593
  935MOL0     H23410   9.337   1.349   0.879 -2.5146  3.8731 -0.0816
  935MOL0     H23411   9.445   1.336   1.020  0.3361 -1.2693 -0.5333
  935MOL0     H23412   9.522   1.470   0.750  0.1176  0.9549  0.4108
  935MOL0     H23413   9.632   1.447   0.873 -1.1111  0.0648  1.2836
  935MOL0     H23414   9.492   1.222   0.725 -0.8537  0.1810  1.5102
  935MOL0     H23415   9.589   1.185   0.870  1.0538 -1.7142 -1.4332
  935MOL0     H23416   9.686   1.351   0.620  2.0247  0.3011 -1.1259
  935MOL0     H23417   9.783   1.289   0.754 -4.4802  0.0341  6.0211
  935MOL0     H23418   9.733   0.937   0.526  0.4598 -2.0977  2.8922
  935MOL0     H23419   9.270   1.779   0.928 -2.0921  0.3893 -0.3671
  935MOL0     H23420   9.031   1.819   0.937  0.4969  0.3295 -0.3356
  936MOL0     O23421   6.508  10.128   3.478  0.0631 -0.1949  1.0615
  936MOL0     C23422   6.543  10.245   3.489 -0.1830 -0.1543 -0.3316
  936MOL0     O23423   6.459  10.348   3.502  0.4437 -0.2771 -0.5714
  936MOL0     C23424   6.335  10.332   3.440  0.9061  0.6396 -0.2927
  936MOL0     C23425   6.299  10.427   3.350  0.4976 -0.3407  0.3679
  936MOL0     C23426   6.181  10.418   3.280 -0.5671  0.7995 -0.2107
  936MOL0     C23427   6.104  10.300   3.289 -0.2804 -0.2441  0.2758
  936MOL0     O23428   5.986  10.296   3.216 -0.0053  0.3744 -0.2663
  936MOL0     C23429   5.926  10.168   3.197  0.2884  0.1277 -0.5817
  936MOL0     C23430   5.809  10.183   3.092 -0.5208  0.3154  0.2176
  936MOL0     C23431   5.735  10.057   3.048 -0.5606  0.5444 -0.1439
  936MOL0     C23432   5.830   9.947   2.992  0.8761 -0.5427 -0.5782
  936MOL0     C23433   5.747   9.844   2.914  0.0366  0.8881  0.2576
  936MOL0     C23434   5.834   9.765   2.810  0.0974  0.4219  0.9035
  936MOL0     C23435   5.751   9.706   2.690 -0.0699  0.5252 -0.4975
  936MOL0     C23436   5.830   9.621   2.596  0.0586  0.3540  0.7856
  936MOL0     N23437   5.755   9.596   2.467  0.5042  0.4239 -0.3055
  936MOL0     C23438   5.645   9.511   2.456  0.0723 -0.0684 -0.1622
  936MOL0     C23439   5.610   9.530   2.328  0.3805  0.7778  0.3345
  936MOL0     C23440   5.485   9.466   2.269  0.5856 -1.3994  0.7086
  936MOL0     C23441   5.426   9.525   2.143 -0.4791  0.9881 -0.7100
  936MOL0     C23442   5.328   9.413   2.081 -0.7529  1.2104 -1.2046
  936MOL0     C23443   5.242   9.476   1.971 -0.0756  0.2134  0.1797
  936MOL0     O23444   5.165   9.363   1.933  0.2789  0.4715  0.6382
  936MOL0     C23445   5.077   9.366   1.826 -0.2961 -0.7170 -0.0076
  936MOL0     C23446   5.041   9.485   1.756 -0.5454 -0.1222 -0.0564
  936MOL0     C23447   4.936   9.484   1.661  0.4836 -1.0138 -0.3460
  936MOL0     C23448   4.870   9.368   1.624  0.1177  0.5580 -0.6244
  936MOL0     C23449   4.742   9.370   1.547 -0.2188 -0.0916 -0.0095
  936MOL0     O23450   4.689   9.250   1.516  0.1323 -0.0763  0.4509
  936MOL0     C23451   4.564   9.248   1.449  0.3795 -0.5208  0.5734
  936MOL0     C23452   4.453   9.210   1.516 -0.4689  0.1722  0.8235
  936MOL0     C23453   4.322   9.205   1.451  0.7076  0.3092  0.0861
  936MOL0     C23454   4.312   9.254   1.318  0.1142  0.1309 -0.1090
  936MOL0     O23455   4.192   9.271   1.260  1.0460  1.0361 -0.1021
  936MOL0     C23456   4.190   9.281   1.118 -0.6421  0.4946 -0.4706
  936MOL0     C23457   4.063   9.236   1.062 -0.1724  0.2682  0.2433
  936MOL0     C23458   3.952   9.331   1.108  0.4541  0.6577  0.0541
  936MOL0     C23459   3.819   9.272   1.063  0.7864  0.3271 -0.0419
  936MOL0     C23460   3.810   9.253   0.913  0.0028  0.0325  0.5980
  936MOL0     C23461   3.662   9.235   0.864  0.3158  0.3583  0.2313
  936MOL0     C23462   3.616   9.087   0.881 -0.1005  0.4389 -0.4811
  936MOL0     C23463   3.526   9.071   1.002  0.1387  0.5150 -0.1209
  936MOL0    Cl23464   3.575   8.918   1.080  0.2886  0.0219 -0.1833
  936MOL0     C23465   4.430   9.305   1.259 -0.1309  0.8107  0.1226
  936MOL0     C23466   4.556   9.297   1.322  1.0244  0.7237  0.6154
  936MOL0     O23467   4.698   9.477   1.510  0.4218  0.2656 -0.1712
  936MOL0     C23468   4.910   9.248   1.691 -0.7576 -0.3353 -0.4629
  936MOL0     C23469   5.015   9.247   1.788  0.5763  0.4316  0.2343
  936MOL0     N23470   5.691   9.622   2.261  0.3632  0.5976 -0.0315
  936MOL0     N23471   5.785   9.653   2.350 -0.3657 -0.3757  1.1129
  936MOL0     C23472   6.138  10.202   3.376  0.1430  0.0168  0.8663
  936MOL0     C23473   6.249  10.222   3.460 -0.2199  0.5274  0.3942
  936MOL0     C23474   6.679  10.287   3.505 -0.3359  0.5289 -0.0893
  936MOL0     C23475   6.785  10.196   3.489 -0.0693 -0.6135 -0.1829
  936MOL0     C23476   6.914  10.230   3.511  0.1375  0.3915  0.4480
  936MOL0     C23477   6.948  10.358   3.542 -0.4381 -0.5940 -0.1142
  936MOL0     O23478   7.080  10.403   3.568 -0.5547  0.1397 -0.1912
  936MOL0     C23479   7.180  10.299   3.542 -0.2439 -0.2260 -0.1054
  936MOL0     C23480   7.317  10.350   3.581 -0.0945 -0.2187 -0.2504
  936MOL0     C23481   7.425  10.257   3.631  0.4416 -0.1926 -0.6668
  936MOL0     C23482   7.464  10.161   3.523 -0.5637  0.3845 -0.2045
  936MOL0     C23483   7.579  10.083   3.564 -0.3863 -0.0165 -0.8801
  936MOL0     C23484   7.686  10.029   3.603 -0.3420  0.5904  0.2350
  936MOL0     C23485   6.848  10.455   3.545 -1.1282 -0.0740 -0.4659
  936MOL0     C23486   6.713  10.418   3.543 -0.2094 -0.5860 -0.4138
  936MOL0     H23487   6.366  10.511   3.336  2.5186 -1.3606  3.0326
  936MOL0     H23488   6.156  10.502   3.216 -1.5399 -1.0676 -2.4124
  936MOL0     H23489   5.883  10.134   3.291 -1.9867 -1.7332 -2.1638
  936MOL0     H23490   5.994  10.088   3.165  3.0293  2.2689 -0.4353
  936MOL0     H23491   5.864  10.223   3.006 -0.6263 -0.5624 -0.2751
  936MOL0     H23492   5.736  10.248   3.141  0.6106  1.4890  0.4093
  936MOL0     H23493   5.671  10.088   2.965 -0.6610 -1.4757 -0.8757
  936MOL0     H23494   5.672  10.030   3.134 -0.1033 -0.9609 -0.2629
  936MOL0     H23495   5.903   9.996   2.926 -0.9735  0.1114 -2.2327
  936MOL0     H23496   5.884   9.904   3.077  0.3166 -0.5891 -0.2391
  936MOL0     H23497   5.674   9.895   2.851  0.5997 -0.2769 -1.3859
  936MOL0     H23498   5.705   9.765   2.978  2.5145 -0.7210  0.0540
  936MOL0     H23499   5.903   9.696   2.859  1.6121  0.3309 -1.2150
  936MOL0     H23500   5.905   9.834   2.764 -0.4501 -1.0439 -2.3713
  936MOL0     H23501   5.668   9.642   2.721  1.1923 -1.2960 -0.7920
  936MOL0     H23502   5.704   9.789   2.636  2.9276  0.6579 -3.1399
  936MOL0     H23503   5.864   9.535   2.654 -0.0636 -0.3464 -0.1481
  936MOL0     H23504   5.917   9.684   2.579  2.6279 -2.7995  1.2636
  936MOL0     H23505   5.595   9.449   2.530 -2.3362  1.5809 -0.2915
  936MOL0     H23506   5.409   9.494   2.343 -0.0126 -0.8669 -0.0990
  936MOL0     H23507   5.501   9.360   2.248 -0.1749 -0.8742 -3.3690
  936MOL0     H23508   5.498   9.555   2.068 -0.2458  1.5743 -0.2529
  936MOL0     H23509   5.373   9.619   2.161  0.7565  1.5607  0.0894
  936MOL0     H23510   5.375   9.323   2.040  3.1854  1.8323  1.3527
  936MOL0     H23511   5.254   9.386   2.157  2.2280 -0.3374  1.3965
  936MOL0     H23512   5.295   9.509   1.881 -0.6066 -0.7313 -0.5102
  936MOL0     H23513   5.185   9.563   2.005 -0.6812 -0.0976 -0.0278
  936MOL0     H23514   5.083   9.577   1.795 -2.0832 -0.3848  2.4305
  936MOL0     H23515   4.915   9.579   1.612  0.7556  0.8885  2.8586
  936MOL0     H23516   4.457   9.179   1.619 -0.5066  0.5705  0.9472
  936MOL0     H23517   4.233   9.161   1.496 -0.3391  1.9833 -0.2561
  936MOL0     H23518   4.262   9.210   1.078 -0.3613 -0.1368  1.0954
  936MOL0     H23519   4.218   9.384   1.092  2.6349  0.2182  1.4443
  936MOL0     H23520   4.048   9.135   1.103 -0.9782 -0.2305 -1.2274
  936MOL0     H23521   4.077   9.227   0.954  1.3980 -1.5329  0.5302
  936MOL0     H23522   3.961   9.432   1.066 -0.6252  0.1702 -1.4383
  936MOL0     H23523   3.948   9.341   1.217  3.2570 -0.0097  0.2795
  936MOL0     H23524   3.800   9.177   1.114 -0.5333 -0.3033 -1.6139
  936MOL0     H23525   3.739   9.340   1.093 -1.4928 -1.5929 -1.3757
  936MOL0     H23526   3.867   9.176   0.859 -5.5664 -3.2395 -1.4992
  936MOL0     H23527   3.839   9.349   0.869  0.5035 -0.5838 -0.4808
  936MOL0     H23528   3.646   9.259   0.759 -0.9437  0.0467  0.3314
  936MOL0     H23529   3.593   9.308   0.908  0.4004  0.6409 -0.1040
  936MOL0     H23530   3.563   9.050   0.792 -0.2816 -0.6616  0.0657
  936MOL0     H23531   3.710   9.034   0.899  1.1727  3.3061  2.2600
  936MOL0     H23532   3.427   9.085   0.957  1.2263 -0.7213 -3.2513
  936MOL0     H23533   3.540   9.148   1.077  2.0066 -1.3685  1.5608
  936MOL0     H23534   4.425   9.352   1.161  0.9617  2.0556  0.6438
  936MOL0     H23535   4.635   9.351   1.270  0.4047 -0.1675 -1.3581
  936MOL0     H23536   4.855   9.159   1.664  1.5443 -2.0497  0.2631
  936MOL0     H23537   5.056   9.156   1.832 -1.7120  0.3743  2.4751
  936MOL0     H23538   6.078  10.114   3.393  0.7482 -0.2167  1.8765
  936MOL0     H23539   6.275  10.155   3.542  1.9865 -0.1391 -0.7607
  936MOL0     H23540   6.772  10.094   3.454 -0.3760  0.2847 -2.9810
  936MOL0     H23541   6.978  10.143   3.495 -1.9466 -0.6458 -3.7442
  936MOL0     H23542   7.185  10.274   3.436  0.2887 -0.2906 -0.0691
  936MOL0     H23543   7.155  10.213   3.604 -4.2009  2.3375  2.3167
  936MOL0     H23544   7.365  10.397   3.495 -0.9486 -1.7063 -1.5837
  936MOL0     H23545   7.310  10.424   3.662 -0.2319  0.0717 -0.5292
  936MOL0     H23546   7.383  10.209   3.720 -2.8259 -0.2213 -2.0803
  936MOL0     H23547   7.505  10.312   3.681 -2.3408  2.0121  1.7657
  936MOL0     H23548   7.374  10.103   3.500 -0.4850  0.9767 -2.2652
  936MOL0     H23549   7.495  10.216   3.433 -2.0443  2.1128  0.2723
  936MOL0     H23550   7.785  10.001   3.634 -0.9489 -0.4755  1.3200
  936MOL0     H23551   6.883  10.554   3.574 -1.5594  0.0065 -0.2158
  936MOL0     H23552   6.633  10.492   3.546  0.0915 -0.2716  0.9222
  937MOL0     O23553   4.199   3.148   7.555 -0.7667  0.6758 -0.2565
  937MOL0     C23554   4.281   3.111   7.640  0.1207  0.1790 -0.0147
  937MOL0     O23555   4.252   3.064   7.763 -0.4120 -0.3377 -0.4017
  937MOL0     C23556   4.122   3.048   7.797  0.2812  0.6248  0.3541
  937MOL0     C23557   4.064   2.919   7.804  0.1074 -0.6460 -0.3830
  937MOL0     C23558   3.930   2.891   7.824  0.3064  0.6331 -0.4977
  937MOL0     C23559   3.846   3.000   7.841  1.1089 -1.0811  0.4450
  937MOL0     O23560   3.711   2.974   7.841  0.4807  0.2013  0.3040
  937MOL0     C23561   3.622   3.086   7.814 -0.0185  0.4295 -0.2127
  937MOL0     C23562   3.475   3.045   7.785 -0.0561  0.0932 -0.0332
  937MOL0     C23563   3.482   2.910   7.709 -0.0416 -0.1610 -0.6106
  937MOL0     C23564   3.348   2.855   7.658 -0.5045 -0.1414 -0.3818
  937MOL0     C23565   3.244   2.815   7.760  0.4415  0.0751  0.2343
  937MOL0     C23566   3.296   2.704   7.848 -0.5373 -0.0805  0.3652
  937MOL0     C23567   3.183   2.623   7.915 -0.7098 -0.2168  0.0183
  937MOL0     C23568   3.231   2.548   8.034 -0.0052  0.2087  0.5779
  937MOL0     N23569   3.315   2.436   7.976 -0.5242 -0.3974 -0.9862
  937MOL0     C23570   3.450   2.440   7.948 -0.4836  0.4194  0.1215
  937MOL0     C23571   3.478   2.318   7.891 -0.1146  0.6610  0.2739
  937MOL0     C23572   3.610   2.244   7.901 -0.1781  0.5530 -0.0760
  937MOL0     C23573   3.731   2.315   7.843 -0.7740 -0.0010 -0.2547
  937MOL0     C23574   3.794   2.443   7.902  0.5524 -0.1699 -0.2089
  937MOL0     C23575   3.945   2.453   7.882  0.3605 -0.1235  0.0597
  937MOL0     O23576   3.983   2.574   7.946 -0.2101 -0.1976  0.2734
  937MOL0     C23577   4.114   2.610   7.945 -0.2565  0.1092  0.1660
  937MOL0     C23578   4.218   2.541   7.876 -0.5386 -0.2430 -0.0674
  937MOL0     C23579   4.352   2.566   7.885 -0.3069  0.0236  0.1539
  937MOL0     C23580   4.398   2.662   7.970 -0.5352 -0.4577  0.0863
  937MOL0     C23581   4.540   2.685   7.991 -0.1736 -0.0789  0.7023
  937MOL0     O23582   4.622   2.652   7.885 -0.7155  0.2657 -0.1652
  937MOL0     C23583   4.750   2.710   7.888  0.7302  0.6001 -0.5923
  937MOL0     C23584   4.764   2.847   7.863 -0.5016  0.6639 -0.0649
  937MOL0     C23585   4.892   2.909   7.865  0.0511  0.6716 -0.2112
  937MOL0     C23586   5.008   2.830   7.884  0.8966  0.2850 -0.8117
  937MOL0     O23587   5.126   2.902   7.877  0.0995  0.1446 -0.9060
  937MOL0     C23588   5.217   2.858   7.975 -0.1253 -0.1915  0.1106
  937MOL0     C23589   5.292   2.971   8.046  1.0648 -0.8885  0.0182
  937MOL0     C23590   5.187   3.083   8.090 -0.7702  0.4912  0.1887
  937MOL0     C23591   5.075   3.020   8.173 -0.2786  0.0479 -0.3022
  937MOL0     C23592   5.017   3.139   8.261 -0.5298  0.7448  0.8518
  937MOL0     C23593   4.883   3.107   8.314  0.7230 -0.7331  0.0174
  937MOL0     C23594   4.810   3.230   8.368  0.3116  0.4054  0.1731
  937MOL0     C23595   4.756   3.319   8.259  0.0327 -0.4817  0.4502
  937MOL0    Cl23596   4.670   3.239   8.130 -0.1112 -0.1945  0.2119
  937MOL0     C23597   4.996   2.687   7.916 -0.1415 -0.1155 -0.8763
  937MOL0     C23598   4.866   2.635   7.912  0.7150  0.4352  0.2836
  937MOL0     O23599   4.576   2.749   8.092  0.4563  0.1105 -0.1198
  937MOL0     C23600   4.301   2.744   8.037  1.1600 -0.0290  0.4693
  937MOL0     C23601   4.159   2.720   8.019  0.4091 -0.2500  0.5613
  937MOL0     N23602   3.355   2.245   7.880 -0.4818 -0.5124  0.4630
  937MOL0     N23603   3.262   2.320   7.930 -0.4525 -0.1484  0.3398
  937MOL0     C23604   3.906   3.133   7.849  0.2699  0.2356 -0.1241
  937MOL0     C23605   4.043   3.163   7.825  0.0952  1.0372  0.0138
  937MOL0     C23606   4.427   3.127   7.611 -0.2678  0.5290 -0.2219
  937MOL0     C23607   4.520   3.151   7.715 -0.0658  0.1476  0.1671
  937MOL0     C23608   4.658   3.161   7.691  0.5690  0.2526 -0.1343
  937MOL0     C23609   4.704   3.156   7.564 -0.6757 -0.7398 -0.7328
  937MOL0     O23610   4.841   3.197   7.554 -0.4037  0.6287 -0.0856
  937MOL0     C23611   4.887   3.241   7.428 -0.7841  0.2743 -0.4363
  937MOL0     C23612   4.846   3.384   7.398  0.0744  1.2872 -0.2742
  937MOL0     C23613   4.851   3.401   7.243 -0.5391 -0.2904  0.2370
  937MOL0     C23614   4.874   3.555   7.218 -0.4935  0.5333 -0.2761
  937MOL0     C23615   4.854   3.585   7.072 -0.4956  0.7656  0.1753
  937MOL0     C23616   4.827   3.606   6.954 -0.1643  0.3966 -0.1773
  937MOL0     C23617   4.618   3.133   7.457  0.7356  0.2795 -0.4432
  937MOL0     C23618   4.479   3.113   7.481 -0.3038  0.1156  0.5484
  937MOL0     H23619   4.135   2.839   7.786 -1.1053 -2.0622  0.8460
  937MOL0     H23620   3.898   2.789   7.807 -1.6733  1.3430 -1.4178
  937MOL0     H23621   3.657   3.146   7.730  2.6496 -0.4978  0.1438
  937MOL0     H23622   3.623   3.150   7.903  0.2524 -1.4643  1.2111
  937MOL0     H23623   3.432   3.125   7.725 -1.0755 -1.8755 -2.1013
  937MOL0     H23624   3.419   3.027   7.878  1.0794  4.3859  1.7185
  937MOL0     H23625   3.522   2.834   7.776 -0.9112  0.9692  1.2868
  937MOL0     H23626   3.553   2.926   7.627 -0.7008 -1.7213 -1.5196
  937MOL0     H23627   3.298   2.936   7.604  0.6969  0.4491 -0.6426
  937MOL0     H23628   3.366   2.768   7.594  2.5552  0.5482 -0.6076
  937MOL0     H23629   3.154   2.770   7.716  0.2457  0.8605 -0.1761
  937MOL0     H23630   3.212   2.901   7.820  2.3919  0.1028  1.3028
  937MOL0     H23631   3.372   2.743   7.917  0.4104 -1.6113  0.2349
  937MOL0     H23632   3.352   2.634   7.786  1.8410  1.0370  1.1169
  937MOL0     H23633   3.104   2.694   7.942  0.6480  0.5812  2.1050
  937MOL0     H23634   3.135   2.559   7.840 -0.1501  0.5669 -1.0562
  937MOL0     H23635   3.137   2.511   8.077  0.6793  0.4851  2.4124
  937MOL0     H23636   3.290   2.603   8.108  0.3679 -0.1155  0.5245
  937MOL0     H23637   3.529   2.512   7.969  0.5204 -0.4324 -0.5943
  937MOL0     H23638   3.603   2.140   7.867  0.5342 -0.5459  2.8065
  937MOL0     H23639   3.620   2.241   8.010 -1.8240 -1.0601  0.0716
  937MOL0     H23640   3.697   2.324   7.739 -3.4565  3.7414  0.7853
  937MOL0     H23641   3.813   2.242   7.845 -1.4313 -0.7339  0.3941
  937MOL0     H23642   3.746   2.527   7.850 -0.2161 -2.0663 -2.7846
  937MOL0     H23643   3.776   2.439   8.010 -3.1993  0.1428 -0.6945
  937MOL0     H23644   3.964   2.461   7.775  1.8469 -0.7841  0.2538
  937MOL0     H23645   4.006   2.370   7.920  2.2723  1.1856 -0.0492
  937MOL0     H23646   4.186   2.454   7.819 -2.0730  0.4332 -0.2661
  937MOL0     H23647   4.424   2.495   7.845 -1.8787 -1.4490 -0.1423
  937MOL0     H23648   4.677   2.912   7.861 -0.6323  0.5415  0.9585
  937MOL0     H23649   4.898   3.015   7.842  0.0287  0.6401 -0.3618
  937MOL0     H23650   5.284   2.784   7.930  1.3105  1.1741 -0.0623
  937MOL0     H23651   5.163   2.800   8.051 -1.3219 -2.2646 -2.1543
  937MOL0     H23652   5.369   3.014   7.981  0.2720  1.2375  0.3842
  937MOL0     H23653   5.320   2.927   8.142 -0.9640 -1.1091  0.5601
  937MOL0     H23654   5.137   3.130   8.006  0.8626  1.4335 -0.3055
  937MOL0     H23655   5.239   3.162   8.145  3.4416 -1.4052 -0.6765
  937MOL0     H23656   5.002   2.962   8.115  0.8743 -2.8789  0.9569
  937MOL0     H23657   5.111   2.942   8.242 -0.9611 -0.8128 -0.8957
  937MOL0     H23658   5.006   3.231   8.204 -0.1926 -1.5410 -3.2492
  937MOL0     H23659   5.094   3.153   8.337  3.5333  2.6365 -3.1453
  937MOL0     H23660   4.894   3.030   8.391  1.2197 -0.4076  0.2756
  937MOL0     H23661   4.819   3.066   8.236 -0.6544  0.9720  0.1855
  937MOL0     H23662   4.716   3.201   8.416 -4.3101  4.8305 -4.7806
  937MOL0     H23663   4.866   3.281   8.447 -1.7668  1.7293  0.8823
  937MOL0     H23664   4.829   3.383   8.208  0.0542 -0.1479  0.8985
  937MOL0     H23665   4.681   3.380   8.310  0.3997  1.7615 -1.4997
  937MOL0     H23666   5.073   2.612   7.932  0.4478  0.8003  0.7694
  937MOL0     H23667   4.857   2.528   7.928 -0.9512  0.6413  0.9523
  937MOL0     H23668   4.330   2.818   8.112 -2.0536 -1.4521  3.4084
  937MOL0     H23669   4.087   2.774   8.079  0.8468  0.1753  0.7158
  937MOL0     H23670   3.850   3.225   7.857 -0.5311 -0.3579  1.8151
  937MOL0     H23671   4.077   3.265   7.815  0.8415  0.6476 -1.8892
  937MOL0     H23672   4.476   3.158   7.814  1.1791  0.5220  0.7104
  937MOL0     H23673   4.722   3.180   7.777  1.0149 -1.4179 -0.0694
  937MOL0     H23674   4.845   3.182   7.346  0.6417  1.6483 -2.2486
  937MOL0     H23675   4.995   3.228   7.413 -0.9234 -0.2076 -1.1019
  937MOL0     H23676   4.745   3.403   7.435  0.3636  0.7267  0.8394
  937MOL0     H23677   4.919   3.445   7.452 -1.3036  1.5281  1.4074
  937MOL0     H23678   4.751   3.378   7.204 -0.3208  1.5646 -1.6177
  937MOL0     H23679   4.926   3.348   7.184 -1.1505 -1.1635  0.2287
  937MOL0     H23680   4.803   3.612   7.279 -0.9057  1.0821 -1.2444
  937MOL0     H23681   4.972   3.590   7.251 -1.1678  0.2521  2.2280
  937MOL0     H23682   4.811   3.626   6.850 -0.9505  0.7901  0.0086
  937MOL0     H23683   4.649   3.126   7.353 -1.1625 -0.6496 -0.9880
  937MOL0     H23684   4.440   3.068   7.391  0.8375  0.9232 -0.3786
  938MOL0     O23685   0.708   7.133   5.711 -0.5774  0.0984  0.6746
  938MOL0     C23686   0.768   7.089   5.810  0.7656  0.2044  0.3193
  938MOL0     O23687   0.745   6.959   5.877  0.4775 -0.1863 -0.3660
  938MOL0     C23688   0.641   6.882   5.826 -0.3050  0.0198  0.6152
  938MOL0     C23689   0.675   6.750   5.798  0.1815 -0.2865  0.6404
  938MOL0     C23690   0.587   6.679   5.715 -0.4250 -0.5587  0.2264
  938MOL0     C23691   0.461   6.722   5.687  0.6781 -0.3169 -0.7737
  938MOL0     O23692   0.392   6.638   5.611  0.3403 -0.3272  0.3335
  938MOL0     C23693   0.308   6.689   5.508  0.2047  0.1739 -0.6984
  938MOL0     C23694   0.186   6.604   5.466 -0.3113  0.2640 -0.3612
  938MOL0     C23695   0.060   6.636   5.548 -0.0238  0.9912 -0.0020
  938MOL0     C23696  -0.068   6.548   5.536  0.4621 -0.2689  0.2017
  938MOL0     C23697  -0.178   6.594   5.433 -0.1839  0.4847 -0.3843
  938MOL0     C23698  -0.305   6.517   5.470  1.1952  0.7547 -0.3449
  938MOL0     C23699  -0.377   6.540   5.598  0.2124 -0.0846 -0.0878
  938MOL0     C23700  -0.419   6.401   5.653 -1.0230 -0.0905 -0.3550
  938MOL0     N23701  -0.502   6.415   5.774 -0.2380 -0.2694 -0.6413
  938MOL0     C23702  -0.599   6.497   5.811  0.2045 -0.8787 -0.4417
  938MOL0     C23703  -0.640   6.446   5.935  0.7198 -0.1507 -0.2874
  938MOL0     C23704  -0.729   6.516   6.030  0.0426 -0.4046 -0.4313
  938MOL0     C23705  -0.872   6.482   5.997  0.3358 -0.0189  0.8363
  938MOL0     C23706  -0.931   6.594   5.907 -0.9751  0.2003  0.1809
  938MOL0     C23707  -1.085   6.588   5.902 -0.4594 -0.3511 -1.2106
  938MOL0     O23708  -1.137   6.627   6.034  0.3906 -0.3900  0.3968
  938MOL0     C23709  -1.272   6.625   6.046  0.5015  0.9931 -0.1920
  938MOL0     C23710  -1.316   6.667   6.175 -0.4534 -0.4587  0.9549
  938MOL0     C23711  -1.449   6.674   6.213 -0.0209  0.1804  0.7135
  938MOL0     C23712  -1.543   6.597   6.139 -0.4478  0.6036  0.0819
  938MOL0     C23713  -1.680   6.584   6.190  0.2576 -0.6623 -0.3651
  938MOL0     O23714  -1.713   6.679   6.288  0.2940  0.0328  0.0767
  938MOL0     C23715  -1.843   6.697   6.337  0.6078  0.6383  0.3412
  938MOL0     C23716  -1.873   6.623   6.456  0.5791 -0.6962  0.0006
  938MOL0     C23717  -2.014   6.611   6.487 -0.1502 -0.5019  0.4032
  938MOL0     C23718  -2.111   6.672   6.402 -0.0986 -0.8268 -0.4706
  938MOL0     O23719  -2.241   6.670   6.450 -0.3006  0.3925  0.5163
  938MOL0     C23720  -2.342   6.749   6.399 -0.2828 -0.4444 -0.6851
  938MOL0     C23721  -2.467   6.736   6.495  0.0423  0.2718  0.1797
  938MOL0     C23722  -2.577   6.843   6.452  0.2658  0.1801 -1.5860
  938MOL0     C23723  -2.690   6.828   6.546  0.2393 -0.3522 -0.5798
  938MOL0     C23724  -2.803   6.912   6.496 -0.1831 -0.0047 -0.3301
  938MOL0     C23725  -2.913   6.915   6.593  0.6657 -0.3391 -0.9475
  938MOL0     C23726  -3.030   7.006   6.552 -0.0382 -0.4429 -0.2417
  938MOL0     C23727  -3.100   7.067   6.673  0.2116 -0.0187 -0.2672
  938MOL0    Cl23728  -3.158   6.943   6.771 -0.0556 -0.1335 -0.5071
  938MOL0     C23729  -2.080   6.738   6.283  0.4609  0.4666  0.5901
  938MOL0     C23730  -1.945   6.745   6.255 -0.1570  0.3795 -0.9384
  938MOL0     O23731  -1.755   6.506   6.133  0.0987 -0.0156  0.7885
  938MOL0     C23732  -1.506   6.553   6.009 -0.0316  0.0775 -0.3684
  938MOL0     C23733  -1.372   6.568   5.966  0.2255  0.0867  0.5927
  938MOL0     N23734  -0.572   6.331   5.956  0.3025 -0.8580 -0.2876
  938MOL0     N23735  -0.487   6.312   5.863  0.3816  0.0559 -0.6111
  938MOL0     C23736   0.417   6.849   5.733 -0.2905  0.3258 -0.2858
  938MOL0     C23737   0.515   6.933   5.796 -0.2487 -1.0530  0.6036
  938MOL0     C23738   0.863   7.191   5.865  0.4890 -0.8118 -0.2356
  938MOL0     C23739   0.925   7.292   5.783  0.8937 -1.0641 -0.7749
  938MOL0     C23740   1.014   7.371   5.853 -0.3235 -1.1862  0.2452
  938MOL0     C23741   1.069   7.350   5.975  0.3443 -0.7127 -0.0825
  938MOL0     O23742   1.181   7.424   6.002  0.4593 -0.8243 -0.3143
  938MOL0     C23743   1.222   7.447   6.137  0.4679 -0.2126 -0.3466
  938MOL0     C23744   1.361   7.511   6.162  0.5668 -0.0968  0.1063
  938MOL0     C23745   1.472   7.457   6.068  0.3203  0.0379 -0.9307
  938MOL0     C23746   1.611   7.501   6.126 -0.0015 -0.2520 -0.8147
  938MOL0     C23747   1.724   7.469   6.037  0.5421 -0.0196  0.4939
  938MOL0     C23748   1.828   7.447   5.984  0.1133  1.0237  0.3420
  938MOL0     C23749   1.005   7.250   6.054 -0.1241 -0.6312 -0.2343
  938MOL0     C23750   0.899   7.185   6.001 -0.1083  0.7277  0.0770
  938MOL0     H23751   0.773   6.709   5.820 -0.4450 -2.5676 -0.4809
  938MOL0     H23752   0.626   6.586   5.675  0.8167  0.9725 -2.3885
  938MOL0     H23753   0.371   6.688   5.418 -1.2720  2.1518 -1.8222
  938MOL0     H23754   0.281   6.793   5.527 -0.2603 -0.3186  1.7339
  938MOL0     H23755   0.211   6.498   5.473 -1.9310 -0.0440  1.6432
  938MOL0     H23756   0.157   6.635   5.365 -2.9433  2.0430  0.8124
  938MOL0     H23757   0.040   6.743   5.536 -0.7050  1.0705  1.5886
  938MOL0     H23758   0.097   6.624   5.650  0.1761 -2.3890 -0.3357
  938MOL0     H23759  -0.052   6.443   5.512 -2.4853 -0.3109 -2.1288
  938MOL0     H23760  -0.103   6.537   5.639  2.1864 -4.1254  0.5638
  938MOL0     H23761  -0.137   6.567   5.336  1.3063 -0.8711  0.5642
  938MOL0     H23762  -0.203   6.701   5.440  4.2004  1.7620 -0.9078
  938MOL0     H23763  -0.279   6.411   5.468 -0.6398 -0.1231  4.9128
  938MOL0     H23764  -0.376   6.545   5.391  1.6138  1.2569 -0.5488
  938MOL0     H23765  -0.318   6.593   5.674  0.5576  0.2761 -0.5978
  938MOL0     H23766  -0.472   6.591   5.582  0.6062  0.4436 -0.8168
  938MOL0     H23767  -0.323   6.353   5.677  0.0786  2.0694 -0.1745
  938MOL0     H23768  -0.469   6.350   5.571  1.4883  1.4237 -3.0274
  938MOL0     H23769  -0.609   6.590   5.756  1.1791 -0.3660  0.2289
  938MOL0     H23770  -0.708   6.622   6.019 -1.3471 -0.1903 -1.2391
  938MOL0     H23771  -0.706   6.498   6.135 -0.2514 -2.1477 -0.6285
  938MOL0     H23772  -0.932   6.484   6.088 -0.9905 -1.0182  0.0118
  938MOL0     H23773  -0.882   6.384   5.951 -0.3401  0.4870 -0.1298
  938MOL0     H23774  -0.903   6.691   5.950 -0.5696 -1.3690  3.8490
  938MOL0     H23775  -0.885   6.585   5.809 -3.3971  2.8305 -1.3468
  938MOL0     H23776  -1.123   6.487   5.890 -0.4811 -0.8527  2.1973
  938MOL0     H23777  -1.129   6.648   5.822 -0.4981  2.1922  0.5756
  938MOL0     H23778  -1.253   6.710   6.252 -1.6650  1.4275  0.9689
  938MOL0     H23779  -1.472   6.719   6.309 -0.4058  1.0294  0.2336
  938MOL0     H23780  -1.790   6.584   6.514  1.1288  3.5666  2.4352
  938MOL0     H23781  -2.045   6.544   6.567  2.0374 -0.4801  1.3421
  938MOL0     H23782  -2.363   6.712   6.298 -2.2061 -1.3621  0.0006
  938MOL0     H23783  -2.310   6.854   6.396  0.1588 -0.4262  2.0272
  938MOL0     H23784  -2.437   6.760   6.597  2.1717  0.5321 -0.4564
  938MOL0     H23785  -2.500   6.632   6.481  1.5901  0.1490 -4.0056
  938MOL0     H23786  -2.596   6.802   6.352  0.7745 -1.4385 -1.0536
  938MOL0     H23787  -2.542   6.946   6.441 -1.4599  0.7999 -1.5309
  938MOL0     H23788  -2.722   6.727   6.572 -0.1776 -0.4031 -1.2511
  938MOL0     H23789  -2.668   6.879   6.641 -0.6603 -0.7559 -0.1508
  938MOL0     H23790  -2.852   6.871   6.407 -2.2195  0.6058  0.4528
  938MOL0     H23791  -2.761   7.011   6.474 -2.1974  0.8369 -0.5574
  938MOL0     H23792  -2.891   6.968   6.686 -1.1385  2.0501 -1.7660
  938MOL0     H23793  -2.953   6.815   6.611 -0.3968  0.0499 -1.0247
  938MOL0     H23794  -2.998   7.083   6.481  0.3115  0.0667  0.4543
  938MOL0     H23795  -3.102   6.946   6.496 -1.4184  0.3071  0.6817
  938MOL0     H23796  -3.179   7.138   6.646  1.7958  3.5791  3.4629
  938MOL0     H23797  -3.038   7.131   6.735 -0.2407  1.9900 -1.8034
  938MOL0     H23798  -2.149   6.773   6.207 -0.2148  0.9809  1.4348
  938MOL0     H23799  -1.903   6.788   6.165  1.2882 -0.1106 -0.5202
  938MOL0     H23800  -1.587   6.508   5.952 -2.9348  3.5884  0.6283
  938MOL0     H23801  -1.343   6.520   5.873  0.6861 -0.4759  1.0208
  938MOL0     H23802   0.329   6.905   5.701  1.0469  1.8912 -1.4162
  938MOL0     H23803   0.493   7.036   5.822  3.1614 -0.1690  0.5052
  938MOL0     H23804   0.884   7.304   5.683  0.4755 -1.6372 -0.6796
  938MOL0     H23805   1.058   7.456   5.803 -0.5982 -2.1051 -1.6375
  938MOL0     H23806   1.214   7.352   6.190  1.0591  0.4102  0.8904
  938MOL0     H23807   1.142   7.501   6.188 -2.3992 -1.7769 -2.8836
  938MOL0     H23808   1.340   7.616   6.141  2.5203  0.1566 -0.7832
  938MOL0     H23809   1.383   7.502   6.268  1.6596 -0.4066 -0.1325
  938MOL0     H23810   1.453   7.505   5.971 -2.1721  0.5815 -0.2357
  938MOL0     H23811   1.464   7.348   6.057  0.3557 -0.1530  0.6804
  938MOL0     H23812   1.605   7.610   6.133  3.0223  0.0545 -1.7896
  938MOL0     H23813   1.632   7.466   6.227 -0.4728 -1.5133 -1.1423
  938MOL0     H23814   1.925   7.426   5.942 -0.6749 -0.9608 -0.6475
  938MOL0     H23815   1.046   7.241   6.154  0.8235  0.6111 -0.4841
  938MOL0     H23816   0.861   7.106   6.066  0.7347  2.6763  3.0992
  939MOL0     O23817   3.121   3.465   7.645 -0.2283 -0.5566 -0.7136
  939MOL0     C23818   3.228   3.450   7.702 -0.0221 -0.0016 -0.2157
  939MOL0     O23819   3.268   3.339   7.769  0.1580 -0.3295  0.8240
  939MOL0     C23820   3.167   3.249   7.783  0.3816  0.8005 -0.0093
  939MOL0     C23821   3.126   3.174   7.671  0.3665  0.3353  1.1507
  939MOL0     C23822   3.016   3.089   7.672 -0.1449 -0.4298 -0.0201
  939MOL0     C23823   2.952   3.078   7.799  0.0526  0.0735 -0.3322
  939MOL0     O23824   2.834   3.011   7.802 -0.3868 -0.0285  0.0472
  939MOL0     C23825   2.815   2.919   7.912  0.0913 -0.4976  0.2705
  939MOL0     C23826   2.676   2.844   7.902 -0.0043  0.1877  1.1123
  939MOL0     C23827   2.669   2.747   7.769 -0.4826  0.2629 -0.3334
  939MOL0     C23828   2.532   2.683   7.753 -0.3298 -0.3588  0.1084
  939MOL0     C23829   2.421   2.778   7.707  0.4003 -0.5261  0.7526
  939MOL0     C23830   2.293   2.698   7.648  0.0072 -0.1795  0.3108
  939MOL0     C23831   2.183   2.789   7.590 -0.6155  0.0881  0.0018
  939MOL0     C23832   2.073   2.696   7.543 -0.5104 -0.1555 -0.1408
  939MOL0     N23833   1.947   2.766   7.496  0.2703 -0.1005 -0.5816
  939MOL0     C23834   1.819   2.718   7.484 -0.3230  0.1432  0.4699
  939MOL0     C23835   1.748   2.829   7.469  0.8762 -0.2087  0.0835
  939MOL0     C23836   1.598   2.826   7.443  0.2646 -0.2345 -0.3444
  939MOL0     C23837   1.577   2.848   7.291  0.1559 -0.1551  0.2856
  939MOL0     C23838   1.428   2.867   7.259 -1.3470  0.3029 -0.3895
  939MOL0     C23839   1.339   2.744   7.281 -0.1610  0.1045 -0.4381
  939MOL0     O23840   1.211   2.796   7.297 -0.2978  0.3471  0.7570
  939MOL0     C23841   1.109   2.708   7.267  0.0581  0.7106  0.7868
  939MOL0     C23842   1.002   2.713   7.362  0.5988  0.1195  0.4943
  939MOL0     C23843   0.892   2.620   7.348  0.3029 -0.8478  0.9656
  939MOL0     C23844   0.884   2.547   7.223 -0.0261  0.3996  0.2743
  939MOL0     C23845   0.759   2.466   7.200 -0.3036  0.5750 -0.4198
  939MOL0     O23846   0.655   2.500   7.289 -0.8239 -0.1568 -0.6686
  939MOL0     C23847   0.529   2.448   7.267 -1.3188  0.4613 -0.2270
  939MOL0     C23848   0.424   2.540   7.295  0.3596 -0.1908 -0.2435
  939MOL0     C23849   0.295   2.495   7.306  0.5913  0.2743  0.1946
  939MOL0     C23850   0.262   2.363   7.275 -0.4462  0.0121  0.3776
  939MOL0     O23851   0.131   2.315   7.275  0.4066  0.0468  0.2929
  939MOL0     C23852   0.022   2.400   7.260  0.1481 -1.1071  0.3713
  939MOL0     C23853  -0.110   2.333   7.227  0.8835 -0.0558 -0.4992
  939MOL0     C23854  -0.222   2.431   7.233  0.0717 -0.2942  0.8578
  939MOL0     C23855  -0.364   2.372   7.193 -1.0550  0.1128 -0.5143
  939MOL0     C23856  -0.479   2.465   7.176  0.2918 -0.8429  0.0403
  939MOL0     C23857  -0.598   2.385   7.123 -0.0720  0.0578 -0.2629
  939MOL0     C23858  -0.710   2.473   7.061 -0.0086 -0.3480  0.4295
  939MOL0     C23859  -0.828   2.400   6.996  0.6587 -0.1658  0.6642
  939MOL0    Cl23860  -0.906   2.509   6.872 -0.2929  0.2969 -0.2056
  939MOL0     C23861   0.360   2.274   7.250 -0.2288  0.4987  0.1384
  939MOL0     C23862   0.496   2.312   7.252 -0.8764 -0.2562  0.0568
  939MOL0     O23863   0.757   2.384   7.111  0.1734  0.2924  1.1610
  939MOL0     C23864   0.995   2.541   7.134  0.2915 -0.3201 -0.4632
  939MOL0     C23865   1.107   2.624   7.149 -0.7261  0.0001  0.2389
  939MOL0     N23866   1.827   2.938   7.465  0.2901  0.3225  0.3031
  939MOL0     N23867   1.952   2.900   7.479  0.5808  0.5213 -0.0467
  939MOL0     C23868   2.985   3.157   7.907  0.3440  0.3119 -0.0504
  939MOL0     C23869   3.095   3.240   7.895  0.2220 -0.6279 -0.8718
  939MOL0     C23870   3.316   3.564   7.689 -0.0735  0.8843  0.3428
  939MOL0     C23871   3.446   3.540   7.720 -0.1662  0.0559  0.3976
  939MOL0     C23872   3.536   3.644   7.717  0.5987 -0.5607 -0.7357
  939MOL0     C23873   3.491   3.771   7.670  0.5155  0.8473 -0.0308
  939MOL0     O23874   3.575   3.880   7.660 -0.9365  0.0048  0.3166
  939MOL0     C23875   3.707   3.895   7.720  0.2404 -0.9648  0.2570
  939MOL0     C23876   3.752   4.046   7.710 -0.5606  0.1807 -1.0058
  939MOL0     C23877   3.638   4.147   7.719 -0.4196 -0.2429  0.2491
  939MOL0     C23878   3.602   4.172   7.868  0.2427 -0.1832 -0.2768
  939MOL0     C23879   3.489   4.261   7.884 -0.4044  0.4282 -0.6102
  939MOL0     C23880   3.392   4.328   7.889 -0.3777 -0.0367 -0.0243
  939MOL0     C23881   3.361   3.792   7.630  1.0727  0.1404 -0.1615
  939MOL0     C23882   3.272   3.682   7.643  0.2410 -0.4227  0.5896
  939MOL0     H23883   3.174   3.202   7.578  0.9550  1.0840  1.6586
  939MOL0     H23884   2.976   3.033   7.588  1.1720  0.8380 -1.5536
  939MOL0     H23885   2.809   2.968   8.010  0.5426  0.7564 -0.3156
  939MOL0     H23886   2.905   2.857   7.917  1.8863  1.8515 -1.0136
  939MOL0     H23887   2.600   2.922   7.893  0.6792  0.8231  0.7536
  939MOL0     H23888   2.654   2.783   7.990 -0.7617 -1.5840 -0.2525
  939MOL0     H23889   2.745   2.670   7.788 -1.8747 -1.4562 -1.3932
  939MOL0     H23890   2.689   2.805   7.678  0.1542 -0.0958 -0.4246
  939MOL0     H23891   2.540   2.596   7.687  2.3402  0.9604 -1.4591
  939MOL0     H23892   2.509   2.643   7.852 -1.9429 -2.3963 -0.9933
  939MOL0     H23893   2.462   2.845   7.631 -1.0508 -1.9971 -1.4757
  939MOL0     H23894   2.396   2.849   7.787  1.2730 -2.5882  2.9886
  939MOL0     H23895   2.252   2.631   7.723 -1.9190 -1.9154 -2.1172
  939MOL0     H23896   2.326   2.630   7.568 -1.1133 -2.1104  1.4211
  939MOL0     H23897   2.134   2.842   7.672  0.1684  0.6816  0.0953
  939MOL0     H23898   2.216   2.850   7.505  0.2720 -0.4992 -0.0809
  939MOL0     H23899   2.047   2.632   7.627  0.6961 -0.4866 -0.0037
  939MOL0     H23900   2.105   2.631   7.461 -1.9171 -1.8648  0.6088
  939MOL0     H23901   1.778   2.619   7.504  0.7809 -0.4590 -0.1283
  939MOL0     H23902   1.558   2.911   7.499  0.0195 -1.5712  1.5972
  939MOL0     H23903   1.546   2.739   7.484  1.7172 -0.7410  0.4972
  939MOL0     H23904   1.609   2.756   7.243 -0.6628 -0.5475  0.4757
  939MOL0     H23905   1.649   2.923   7.258 -0.3395 -0.3979 -1.4372
  939MOL0     H23906   1.381   2.951   7.311 -0.4269 -0.5561  1.9639
  939MOL0     H23907   1.426   2.878   7.151 -0.3807 -1.7536 -0.6656
  939MOL0     H23908   1.365   2.693   7.375 -0.9821  0.3433 -0.0740
  939MOL0     H23909   1.353   2.676   7.197 -0.2569 -1.7485  0.9993
  939MOL0     H23910   0.996   2.765   7.457  1.8017 -0.6623  1.0191
  939MOL0     H23911   0.820   2.625   7.429  0.8418  0.2755  1.3988
  939MOL0     H23912   0.453   2.645   7.302 -0.5480 -0.0211  1.4731
  939MOL0     H23913   0.232   2.579   7.331  1.9691  1.6564 -0.8209
  939MOL0     H23914   0.040   2.462   7.172 -1.6412  1.7459  1.8592
  939MOL0     H23915   0.003   2.459   7.350  2.5962  0.8222 -0.2881
  939MOL0     H23916  -0.135   2.254   7.298  0.3073  0.8374  0.3094
  939MOL0     H23917  -0.102   2.287   7.127  1.9756  0.8941 -0.8728
  939MOL0     H23918  -0.193   2.503   7.156  1.2456 -0.4326  1.1578
  939MOL0     H23919  -0.224   2.476   7.332  0.4747 -0.0124  0.7435
  939MOL0     H23920  -0.354   2.293   7.118  2.4402  1.7132 -1.9745
  939MOL0     H23921  -0.386   2.315   7.284 -1.8245  1.3041  0.0594
  939MOL0     H23922  -0.450   2.542   7.105  0.5226 -1.6085 -0.7110
  939MOL0     H23923  -0.513   2.515   7.267  1.1022 -0.0610 -0.0734
  939MOL0     H23924  -0.637   2.326   7.207  2.9032  1.1362  2.1104
  939MOL0     H23925  -0.554   2.318   7.049  0.7530 -0.3930  0.6076
  939MOL0     H23926  -0.746   2.556   7.122  1.4210  0.8876 -0.3349
  939MOL0     H23927  -0.665   2.526   6.977 -1.4516  2.2822  1.2102
  939MOL0     H23928  -0.887   2.356   7.077 -0.3582  1.6171  0.9262
  939MOL0     H23929  -0.786   2.325   6.928 -0.9896  0.8445 -1.5900
  939MOL0     H23930   0.328   2.173   7.228 -1.3055  1.4961 -3.7202
  939MOL0     H23931   0.574   2.237   7.249  0.4882  0.9679  2.1570
  939MOL0     H23932   0.983   2.490   7.039 -3.0730  0.6202 -0.7002
  939MOL0     H23933   1.183   2.621   7.072 -0.0659 -2.4161  0.8946
  939MOL0     H23934   2.933   3.151   8.002  0.6068 -2.3030 -0.0115
  939MOL0     H23935   3.116   3.309   7.976 -0.3681  0.1426 -1.3633
  939MOL0     H23936   3.474   3.441   7.753  0.7127  1.0096  2.7227
  939MOL0     H23937   3.637   3.617   7.747  1.6811  0.7887 -2.9016
  939MOL0     H23938   3.770   3.828   7.660  0.2331 -0.5026 -0.2833
  939MOL0     H23939   3.711   3.856   7.822  1.3047 -1.5360  0.0108
  939MOL0     H23940   3.825   4.063   7.789 -1.3188 -2.4621  0.3761
  939MOL0     H23941   3.805   4.071   7.617  1.5142 -0.5016 -0.0551
  939MOL0     H23942   3.552   4.123   7.656 -0.7978  0.0625  0.6405
  939MOL0     H23943   3.676   4.242   7.681 -1.5445 -0.2012 -0.8238
  939MOL0     H23944   3.559   4.080   7.908 -1.3266  0.6168 -0.0361
  939MOL0     H23945   3.697   4.201   7.914  1.1869 -2.6806 -0.5122
  939MOL0     H23946   3.309   4.395   7.886  2.0008  3.1445 -2.4172
  939MOL0     H23947   3.319   3.889   7.606 -0.8343 -0.7758 -0.7553
  939MOL0     H23948   3.169   3.691   7.612 -0.1016  2.0119  2.1675
  940MOL0     O23949   3.440  11.219   8.321  0.2577  0.0262  0.9729
  940MOL0     C23950   3.399  11.318   8.376 -0.1401  0.5670 -0.2731
  940MOL0     O23951   3.269  11.344   8.424  0.7439  0.0754 -0.1225
  940MOL0     C23952   3.168  11.252   8.420  0.0421 -0.0547 -0.2569
  940MOL0     C23953   3.139  11.153   8.321  0.3526  0.8297  0.2794
  940MOL0     C23954   3.029  11.068   8.331  0.9437  0.2202  0.3380
  940MOL0     C23955   2.951  11.071   8.442 -1.2674 -0.0229 -0.1911
  940MOL0     O23956   2.847  10.985   8.462  0.9770 -1.1093  0.0487
  940MOL0     C23957   2.799  10.894   8.361 -0.2385  0.2881 -0.4400
  940MOL0     C23958   2.696  10.806   8.424  0.5830 -0.0613 -0.5186
  940MOL0     C23959   2.632  10.710   8.328  0.4554 -0.0850  0.3184
  940MOL0     C23960   2.516  10.624   8.387  0.2623  0.8596 -0.6426
  940MOL0     C23961   2.418  10.570   8.280 -0.5254  0.9717  0.2168
  940MOL0     C23962   2.326  10.472   8.352 -0.5071  0.1276  0.0705
  940MOL0     C23963   2.206  10.423   8.271  0.8603  0.3286  0.4460
  940MOL0     C23964   2.132  10.531   8.182 -0.0297  0.0635 -0.1900
  940MOL0     N23965   2.009  10.475   8.120 -0.3718 -0.2234 -0.2353
  940MOL0     C23966   1.919  10.413   8.192 -0.3718 -0.2043  0.0199
  940MOL0     C23967   1.810  10.390   8.110 -0.2018 -0.0771  0.3003
  940MOL0     C23968   1.680  10.315   8.138 -0.2188 -0.3579  0.1215
  940MOL0     C23969   1.561  10.424   8.148 -0.6759 -0.6910 -0.2784
  940MOL0     C23970   1.431  10.340   8.149 -0.5889  0.2915  0.3656
  940MOL0     C23971   1.312  10.432   8.165  0.4948  0.0907 -1.0402
  940MOL0     O23972   1.183  10.367   8.129  0.0525  0.7274  0.7332
  940MOL0     C23973   1.089  10.317   8.223 -0.6599  0.0559 -0.1442
  940MOL0     C23974   0.994  10.225   8.173 -0.5055  0.1558 -0.2543
  940MOL0     C23975   0.890  10.172   8.258 -0.5956 -0.3398 -0.4693
  940MOL0     C23976   0.872  10.230   8.388 -0.3756  0.6882  0.0467
  940MOL0     C23977   0.761  10.184   8.479  0.4833  0.4937  0.5251
  940MOL0     O23978   0.665  10.101   8.420 -0.2884  0.3677  0.3198
  940MOL0     C23979   0.561  10.066   8.500  0.0942  0.1105 -0.0545
  940MOL0     C23980   0.546   9.931   8.551  0.3340  0.2199  0.6820
  940MOL0     C23981   0.437   9.892   8.636 -0.6567 -0.3651  0.3153
  940MOL0     C23982   0.331   9.978   8.651  0.4167  0.1353  0.0888
  940MOL0     O23983   0.212   9.954   8.719 -0.4001 -0.7628  0.1374
  940MOL0     C23984   0.176   9.822   8.751 -0.0736  0.7557  0.2978
  940MOL0     C23985   0.137   9.743   8.629 -0.3529 -0.0070 -0.7890
  940MOL0     C23986   0.005   9.776   8.565  0.4949 -1.1115 -0.6693
  940MOL0     C23987  -0.115   9.724   8.638  0.0535 -0.2844  0.0901
  940MOL0     C23988  -0.246   9.756   8.572 -0.4238 -0.5563 -0.2520
  940MOL0     C23989  -0.272   9.906   8.595 -0.1603  0.5427  0.8159
  940MOL0     C23990  -0.414   9.943   8.564  0.1219 -0.0234  0.0161
  940MOL0     C23991  -0.509   9.927   8.689  0.1260 -0.1816  0.5542
  940MOL0    Cl23992  -0.657  10.009   8.652  0.2175 -0.2667 -0.0095
  940MOL0     C23993   0.340  10.103   8.590  0.0080  0.1193  0.5444
  940MOL0     C23994   0.455  10.156   8.525 -0.5344  0.2289 -0.0378
  940MOL0     O23995   0.769  10.211   8.598 -0.2862 -0.0366 -0.1765
  940MOL0     C23996   0.957  10.333   8.432 -0.7445  0.0595  1.0054
  940MOL0     C23997   1.066  10.376   8.348 -0.1695  0.5040 -0.8323
  940MOL0     N23998   1.850  10.447   7.989  0.0471  0.3939 -0.5692
  940MOL0     N23999   1.965  10.499   7.999  0.7796 -0.2999 -0.3035
  940MOL0     C24000   2.972  11.174   8.540  0.0367  1.4061 -0.4043
  940MOL0     C24001   3.087  11.250   8.536 -0.0284 -0.7476  0.2125
  940MOL0     C24002   3.506  11.420   8.410  0.5288  0.7483  1.0794
  940MOL0     C24003   3.492  11.523   8.496  0.3161 -0.2902 -0.4407
  940MOL0     C24004   3.584  11.624   8.510  0.1343 -0.3959  0.4182
  940MOL0     C24005   3.703  11.624   8.435  1.0058  0.4161 -0.1965
  940MOL0     O24006   3.796  11.733   8.442 -0.7296 -0.0548 -0.0009
  940MOL0     C24007   3.933  11.708   8.399  0.4214  0.3816 -1.1122
  940MOL0     C24008   4.025  11.819   8.433 -0.6954  0.2972 -0.5550
  940MOL0     C24009   4.042  11.868   8.583 -0.9969  0.0308  0.5180
  940MOL0     C24010   4.197  11.896   8.597  1.0459  0.6350  0.0504
  940MOL0     C24011   4.222  11.953   8.729 -0.4649 -0.5158  0.0583
  940MOL0     C24012   4.235  11.994   8.845  0.1499  0.1171 -0.1329
  940MOL0     C24013   3.723  11.516   8.349  0.7672  0.0747  0.2345
  940MOL0     C24014   3.629  11.421   8.324  0.7001  0.0030 -0.4175
  940MOL0     H24015   3.206  11.143   8.236  0.2554  0.5876  0.2302
  940MOL0     H24016   3.017  11.008   8.241  1.0982  1.5564 -0.6054
  940MOL0     H24017   2.878  10.827   8.325 -1.3996 -2.2863  1.5184
  940MOL0     H24018   2.758  10.947   8.275 -1.9002 -1.8689 -1.0376
  940MOL0     H24019   2.611  10.853   8.475  0.3127 -1.5358  0.4437
  940MOL0     H24020   2.738  10.750   8.508  0.7492  2.1831  1.0109
  940MOL0     H24021   2.708  10.635   8.306  0.5373 -0.2151  1.0339
  940MOL0     H24022   2.591  10.773   8.248 -0.1061  3.2260  2.9462
  940MOL0     H24023   2.573  10.546   8.438  0.4631  2.2201  1.2965
  940MOL0     H24024   2.461  10.676   8.466 -0.2853  0.4404 -0.7355
  940MOL0     H24025   2.471  10.523   8.197 -0.4573 -1.1352  1.3892
  940MOL0     H24026   2.367  10.654   8.233 -1.9187  0.1007  0.1365
  940MOL0     H24027   2.282  10.518   8.441 -1.3462 -2.7669  1.2526
  940MOL0     H24028   2.373  10.381   8.389 -0.6442  0.3756  0.8624
  940MOL0     H24029   2.232  10.346   8.199 -0.5510  0.8006 -0.6132
  940MOL0     H24030   2.132  10.376   8.336  1.8133 -1.3639  0.3669
  940MOL0     H24031   2.192  10.572   8.101 -1.2216  2.5613  0.0901
  940MOL0     H24032   2.115  10.621   8.243  0.6020 -0.5706  0.9667
  940MOL0     H24033   1.921  10.394   8.299 -3.0347  0.1018  0.1934
  940MOL0     H24034   1.679  10.266   8.236 -0.5293  1.4767  1.0778
  940MOL0     H24035   1.646  10.239   8.067 -5.5482  1.5468  0.1953
  940MOL0     H24036   1.563  10.483   8.056 -1.6339 -0.8856 -0.4318
  940MOL0     H24037   1.567  10.492   8.234  0.5536  1.1980 -1.7660
  940MOL0     H24038   1.426  10.296   8.049  2.6216  2.0655 -0.7167
  940MOL0     H24039   1.434  10.262   8.226 -2.6372  2.2693  2.6403
  940MOL0     H24040   1.320  10.526   8.111  1.4733  0.2036 -0.7116
  940MOL0     H24041   1.307  10.463   8.270  4.1213 -0.8862 -0.4357
  940MOL0     H24042   1.010  10.188   8.072 -3.2801 -2.5539  0.1538
  940MOL0     H24043   0.829  10.093   8.215 -1.4972  0.5327 -0.8420
  940MOL0     H24044   0.619   9.855   8.527  1.0031  1.6217 -2.0537
  940MOL0     H24045   0.445   9.792   8.676  1.0156 -0.9379 -1.2571
  940MOL0     H24046   0.092   9.833   8.820 -1.0231 -3.1241 -0.0292
  940MOL0     H24047   0.251   9.766   8.808 -1.3720 -0.4837  0.8432
  940MOL0     H24048   0.135   9.638   8.661  1.8513  0.3249  0.5985
  940MOL0     H24049   0.217   9.757   8.556 -1.0255  1.4051 -1.2897
  940MOL0     H24050   0.011   9.746   8.460  2.5981  1.2071 -1.3183
  940MOL0     H24051  -0.010   9.884   8.551 -0.2407 -1.2046 -0.6517
  940MOL0     H24052  -0.111   9.614   8.639  0.2147 -0.2781  0.3670
  940MOL0     H24053  -0.122   9.758   8.742  0.9092  0.0653  0.0383
  940MOL0     H24054  -0.326   9.701   8.623  0.5180 -0.8527  0.9593
  940MOL0     H24055  -0.254   9.730   8.466 -0.8215  1.0934 -0.6618
  940MOL0     H24056  -0.215   9.970   8.527 -0.7498  0.2737  0.0544
  940MOL0     H24057  -0.240   9.940   8.693  1.1595 -1.5342  1.1800
  940MOL0     H24058  -0.410  10.051   8.550 -0.5180 -0.0589 -0.5043
  940MOL0     H24059  -0.460   9.897   8.476 -2.6104  2.6786 -0.0976
  940MOL0     H24060  -0.466   9.975   8.777 -4.0778  2.1107  1.5861
  940MOL0     H24061  -0.525   9.822   8.716  1.2215 -0.8066 -1.0718
  940MOL0     H24062   0.258  10.171   8.611  1.0467  0.8005  2.6622
  940MOL0     H24063   0.461  10.258   8.491  1.2203  1.0671  2.4355
  940MOL0     H24064   0.934  10.388   8.523  2.2263  1.1321  1.2311
  940MOL0     H24065   1.136  10.451   8.383 -0.5350  0.9434 -1.0301
  940MOL0     H24066   2.907  11.176   8.627 -1.4195 -0.9312 -1.3638
  940MOL0     H24067   3.109  11.333   8.603  0.2511  1.2023 -2.1683
  940MOL0     H24068   3.407  11.526   8.565  0.6587 -1.3658  0.0485
  940MOL0     H24069   3.569  11.711   8.573  0.0955 -0.1925  0.1320
  940MOL0     H24070   3.939  11.678   8.294 -0.5733 -2.2738 -0.4947
  940MOL0     H24071   3.968  11.617   8.449 -4.5560 -0.0419  2.3601
  940MOL0     H24072   4.121  11.779   8.400  1.1489  4.8848 -1.4895
  940MOL0     H24073   4.001  11.896   8.358 -2.2910  1.4876  1.0674
  940MOL0     H24074   4.003  11.786   8.644 -1.7888 -1.3738 -1.7675
  940MOL0     H24075   3.994  11.964   8.603 -0.9108 -0.1582  1.6969
  940MOL0     H24076   4.244  11.798   8.588 -1.5255 -0.5822 -1.3162
  940MOL0     H24077   4.229  11.952   8.509  1.5904 -0.1195 -0.2405
  940MOL0     H24078   4.244  12.015   8.950  1.0585  0.5705 -0.2910
  940MOL0     H24079   3.819  11.504   8.299  1.6314  1.1606  1.5520
  940MOL0     H24080   3.664  11.348   8.251 -1.2104 -2.2803  0.8011
  941MOL0     O24081   2.293   4.865   4.634  0.8870  0.2484  0.3464
  941MOL0     C24082   2.356   4.867   4.528 -0.1833  0.6154  0.6274
  941MOL0     O24083   2.314   4.914   4.410 -0.1281  0.3218  0.1495
  941MOL0     C24084   2.178   4.937   4.406 -0.2951  0.0042 -0.0600
  941MOL0     C24085   2.071   4.869   4.472  0.0651  1.1372 -0.5694
  941MOL0     C24086   1.945   4.906   4.435  0.1245 -0.0800 -0.4808
  941MOL0     C24087   1.912   5.006   4.343  0.2758 -1.1896  0.3194
  941MOL0     O24088   1.781   5.049   4.316 -0.4923 -0.1532  0.3418
  941MOL0     C24089   1.676   5.013   4.406  0.1811  0.4651  0.0286
  941MOL0     C24090   1.544   5.078   4.359 -0.1333 -0.1720  0.0888
  941MOL0     C24091   1.478   4.996   4.247 -0.1116 -0.7247 -0.3065
  941MOL0     C24092   1.347   5.067   4.198 -0.1578  0.7427  0.3946
  941MOL0     C24093   1.267   4.981   4.103  0.4557 -0.9918 -0.6183
  941MOL0     C24094   1.335   4.949   3.967  0.2311 -0.5389 -0.9312
  941MOL0     C24095   1.230   4.884   3.880  0.2783  1.0902 -0.0728
  941MOL0     C24096   1.283   4.826   3.758 -0.1626 -0.6486 -0.5874
  941MOL0     N24097   1.319   4.921   3.653 -0.4954 -0.1248 -0.4616
  941MOL0     C24098   1.238   5.016   3.607  0.8066  0.4689  0.5227
  941MOL0     C24099   1.309   5.093   3.517  0.3560  0.0668  0.3162
  941MOL0     C24100   1.258   5.221   3.453 -0.1146  0.1470 -0.2270
  941MOL0     C24101   1.347   5.262   3.332  0.4919 -0.3872 -0.7303
  941MOL0     C24102   1.306   5.401   3.271 -1.0115 -0.5301 -0.3361
  941MOL0     C24103   1.414   5.469   3.180  0.2289  0.5236  0.9460
  941MOL0     O24104   1.389   5.606   3.151  0.2089 -0.3212 -0.1695
  941MOL0     C24105   1.499   5.685   3.149 -0.2033 -0.5899 -0.1646
  941MOL0     C24106   1.477   5.817   3.099  1.2580 -0.0297 -0.1170
  941MOL0     C24107   1.570   5.913   3.080  0.5124  0.0871 -0.8149
  941MOL0     C24108   1.694   5.897   3.145 -0.3083 -0.0202 -0.3821
  941MOL0     C24109   1.796   6.003   3.140 -0.7139  0.3851 -0.2987
  941MOL0     O24110   1.896   5.994   3.230 -0.1938  0.3195 -0.2521
  941MOL0     C24111   1.988   6.089   3.241 -0.5880 -0.5313 -0.1453
  941MOL0     C24112   2.013   6.118   3.376 -0.9203 -0.7941  0.0544
  941MOL0     C24113   2.099   6.222   3.423  0.8772  0.4632  0.3110
  941MOL0     C24114   2.184   6.284   3.335  0.1317  0.4799  0.4740
  941MOL0     O24115   2.235   6.403   3.375 -0.1674 -0.1417  0.1793
  941MOL0     C24116   2.346   6.448   3.296 -0.6786 -0.1599  0.0461
  941MOL0     C24117   2.477   6.373   3.331  0.0412  0.5974  0.6711
  941MOL0     C24118   2.528   6.383   3.476 -0.1968 -0.8280  0.0635
  941MOL0     C24119   2.608   6.253   3.506  0.1559  0.2749  0.3801
  941MOL0     C24120   2.726   6.239   3.609  0.3668  0.3186  0.9510
  941MOL0     C24121   2.849   6.324   3.564 -0.2218 -0.6517  0.0428
  941MOL0     C24122   2.953   6.341   3.677  0.0118 -0.8448  0.4416
  941MOL0     C24123   2.903   6.364   3.822  0.5588  0.0632  0.1788
  941MOL0    Cl24124   2.869   6.229   3.918 -0.0239  0.0603 -0.0269
  941MOL0     C24125   2.176   6.244   3.197 -0.4343 -0.2211  0.1656
  941MOL0     C24126   2.083   6.144   3.150  0.3169 -1.7025  0.1423
  941MOL0     O24127   1.771   6.099   3.063  0.4174 -0.0327 -0.4149
  941MOL0     C24128   1.721   5.774   3.208 -1.1032 -0.4731  0.7372
  941MOL0     C24129   1.624   5.672   3.209  0.2031 -0.0951  0.3578
  941MOL0     N24130   1.433   5.034   3.506 -0.5578 -0.1194  0.1114
  941MOL0     N24131   1.447   4.940   3.601  0.1698  0.7253 -0.1097
  941MOL0     C24132   2.018   5.072   4.281 -0.6092 -0.6622  1.2987
  941MOL0     C24133   2.147   5.041   4.311 -0.5388 -0.2169 -0.6290
  941MOL0     C24134   2.480   4.782   4.526 -0.2961  0.3623  0.0954
  941MOL0     C24135   2.557   4.752   4.415  0.5681  0.2399 -0.2949
  941MOL0     C24136   2.677   4.682   4.420 -0.2735  0.2888 -0.4375
  941MOL0     C24137   2.733   4.638   4.537  0.5238 -0.0622 -0.9701
  941MOL0     O24138   2.847   4.566   4.535 -0.2469  0.0921  1.1320
  941MOL0     C24139   2.920   4.557   4.658  0.4034  0.2473  0.1693
  941MOL0     C24140   3.059   4.500   4.638 -0.6952 -0.2170 -0.2270
  941MOL0     C24141   3.060   4.362   4.583  0.2626  0.7891 -0.6978
  941MOL0     C24142   3.202   4.284   4.580  0.4941 -1.1480  0.4122
  941MOL0     C24143   3.185   4.153   4.506 -0.2337  0.4082  0.7000
  941MOL0     C24144   3.169   4.047   4.445 -1.0523  0.1880  0.3068
  941MOL0     C24145   2.655   4.668   4.655  0.3431  0.3052 -0.8292
  941MOL0     C24146   2.531   4.744   4.653  0.1683  0.5917  0.4603
  941MOL0     H24147   2.085   4.784   4.538  0.0802  0.1796 -1.7750
  941MOL0     H24148   1.864   4.866   4.495 -0.0982  1.1663  0.0817
  941MOL0     H24149   1.686   5.036   4.513 -3.3768 -1.5474  0.9864
  941MOL0     H24150   1.662   4.905   4.406 -0.4525  0.4973  1.8796
  941MOL0     H24151   1.561   5.179   4.318  1.4282 -0.3838  0.1603
  941MOL0     H24152   1.473   5.090   4.442 -1.1538 -1.0337 -0.6239
  941MOL0     H24153   1.463   4.894   4.283  1.7038 -0.7522  0.4636
  941MOL0     H24154   1.539   4.995   4.156 -0.4088 -2.6871 -0.5188
  941MOL0     H24155   1.298   5.093   4.292 -0.1874  0.0010  0.5961
  941MOL0     H24156   1.370   5.155   4.138  1.6563 -0.9366 -1.5282
  941MOL0     H24157   1.182   5.045   4.077  1.9617  0.8616 -1.2284
  941MOL0     H24158   1.238   4.888   4.153  2.2906  0.4323  3.5475
  941MOL0     H24159   1.422   4.885   3.981 -0.4600 -1.7094 -1.8704
  941MOL0     H24160   1.352   5.040   3.909 -1.1436  0.3527 -0.0162
  941MOL0     H24161   1.191   4.801   3.938  1.2225 -0.1458 -1.1451
  941MOL0     H24162   1.150   4.957   3.863 -0.9379  0.5664  2.9120
  941MOL0     H24163   1.201   4.758   3.731  0.4720 -1.6005 -0.2059
  941MOL0     H24164   1.366   4.758   3.780  1.1774  0.7168 -1.2460
  941MOL0     H24165   1.135   5.027   3.640  0.7820  2.4949 -0.0928
  941MOL0     H24166   1.252   5.299   3.530  2.0710 -0.8219  1.0313
  941MOL0     H24167   1.156   5.200   3.421  0.2298 -1.4160 -0.3866
  941MOL0     H24168   1.335   5.186   3.255 -0.9402  0.1450 -1.0789
  941MOL0     H24169   1.448   5.262   3.373 -0.1555  0.7585  0.9900
  941MOL0     H24170   1.209   5.381   3.224 -0.5209 -0.7982 -1.2534
  941MOL0     H24171   1.300   5.464   3.360 -0.1977 -2.6431  1.3217
  941MOL0     H24172   1.434   5.408   3.091 -0.4603  0.6084  0.7280
  941MOL0     H24173   1.510   5.451   3.230  1.4970 -2.2679 -2.0916
  941MOL0     H24174   1.376   5.833   3.062  1.3812  0.5852 -0.1980
  941MOL0     H24175   1.536   6.006   3.037 -2.2725 -0.6407 -0.4126
  941MOL0     H24176   1.948   6.062   3.443 -2.1997  0.0133 -0.4713
  941MOL0     H24177   2.100   6.253   3.527  2.7824  0.4231  0.3449
  941MOL0     H24178   2.356   6.553   3.325  0.2294 -0.4097  0.7184
  941MOL0     H24179   2.335   6.461   3.188 -3.2391 -1.4159  0.0822
  941MOL0     H24180   2.557   6.419   3.273  1.2816 -0.3453  1.5795
  941MOL0     H24181   2.458   6.269   3.302  0.1742  1.5029 -3.1615
  941MOL0     H24182   2.440   6.374   3.540 -1.9824  1.6601 -1.8277
  941MOL0     H24183   2.579   6.477   3.498 -1.9623 -0.3595  2.5621
  941MOL0     H24184   2.531   6.183   3.540 -0.0478  0.7549  0.9339
  941MOL0     H24185   2.650   6.215   3.413  0.4511  0.7780  0.3044
  941MOL0     H24186   2.763   6.138   3.624  2.2113  0.7154 -0.5867
  941MOL0     H24187   2.692   6.278   3.706 -0.8026 -1.2367  1.2020
  941MOL0     H24188   2.815   6.427   3.548 -1.0411 -0.4530  2.5758
  941MOL0     H24189   2.895   6.311   3.466  3.5210 -0.1183  1.5640
  941MOL0     H24190   3.021   6.257   3.691 -1.1591 -1.8227  0.4799
  941MOL0     H24191   3.019   6.424   3.648 -0.7981 -0.8225 -1.5486
  941MOL0     H24192   2.812   6.425   3.814 -1.9492 -3.0533  2.3566
  941MOL0     H24193   2.979   6.421   3.875  1.0038  1.0369 -1.4348
  941MOL0     H24194   2.230   6.313   3.133 -1.9393  3.9941  3.0233
  941MOL0     H24195   2.069   6.117   3.046 -3.4089  1.8460 -0.5612
  941MOL0     H24196   1.817   5.765   3.258  0.3278 -0.0415 -1.7637
  941MOL0     H24197   1.652   5.580   3.259 -2.2915 -1.8427 -1.2304
  941MOL0     H24198   2.001   5.152   4.210 -0.4400  0.8337  2.8749
  941MOL0     H24199   2.225   5.101   4.267 -0.6325  1.2982  1.1150
  941MOL0     H24200   2.512   4.789   4.323  1.2943  1.4537 -0.1836
  941MOL0     H24201   2.725   4.667   4.324  1.8740  0.6890  0.4930
  941MOL0     H24202   2.867   4.483   4.719 -2.6375  0.5205 -1.9309
  941MOL0     H24203   2.926   4.654   4.709  0.1784  0.2242  0.2408
  941MOL0     H24204   3.127   4.564   4.581  0.7304 -1.3044  0.2069
  941MOL0     H24205   3.119   4.495   4.729  0.6351  2.4600 -0.8488
  941MOL0     H24206   3.014   4.372   4.485 -2.2412  2.5039  0.5522
  941MOL0     H24207   2.979   4.307   4.632 -2.0422  2.4428 -2.4615
  941MOL0     H24208   3.283   4.336   4.528  0.9271 -3.2148 -1.0835
  941MOL0     H24209   3.252   4.252   4.672  0.0442  0.6254  1.3133
  941MOL0     H24210   3.160   3.951   4.399 -0.0177 -0.0029  0.4759
  941MOL0     H24211   2.677   4.638   4.757 -2.5958  3.3292  0.8508
  941MOL0     H24212   2.479   4.757   4.748  1.8850  0.9482  1.4124
  942MOL0     O24213   7.798  10.255   1.976  0.0177  0.3011 -0.3521
  942MOL0     C24214   7.796  10.307   1.865  0.0232  0.7374  0.5687
  942MOL0     O24215   7.682  10.348   1.807 -0.0716 -0.4528  0.0469
  942MOL0     C24216   7.589  10.383   1.892 -0.5829 -0.6119 -0.0766
  942MOL0     C24217   7.480  10.289   1.905 -0.0394 -0.1482  0.4913
  942MOL0     C24218   7.370  10.324   1.983  0.6122 -0.0174  0.8063
  942MOL0     C24219   7.368  10.448   2.049  0.5021  0.1372 -0.0370
  942MOL0     O24220   7.264  10.484   2.132 -0.6368 -0.0232 -0.0918
  942MOL0     C24221   7.134  10.453   2.087  0.2166 -0.6431  0.4377
  942MOL0     C24222   7.023  10.551   2.139  0.2744  0.1731  0.0783
  942MOL0     C24223   6.879  10.499   2.117 -0.4872 -1.2046  0.6287
  942MOL0     C24224   6.773  10.607   2.122  0.1756 -0.2378 -0.4910
  942MOL0     C24225   6.631  10.548   2.106  1.0985 -0.2418  0.1776
  942MOL0     C24226   6.535  10.655   2.069  0.5574 -0.1794 -0.3106
  942MOL0     C24227   6.387  10.598   2.056 -0.5406 -0.8804 -0.2602
  942MOL0     C24228   6.372  10.511   1.936 -0.0986  0.3752  0.5205
  942MOL0     N24229   6.232  10.471   1.920 -0.6853 -0.2022 -0.9052
  942MOL0     C24230   6.145  10.533   1.841  0.1060  0.9299  0.7030
  942MOL0     C24231   6.027  10.470   1.861  0.1347  0.3368  0.7496
  942MOL0     C24232   5.887  10.501   1.798 -0.2939  0.3227 -0.2411
  942MOL0     C24233   5.765  10.498   1.904 -0.3161 -0.1482 -0.3372
  942MOL0     C24234   5.659  10.588   1.860  0.6031  0.2114 -0.4208
  942MOL0     C24235   5.536  10.579   1.960 -1.3966 -0.2618  0.1998
  942MOL0     O24236   5.578  10.614   2.095 -0.0762  0.5457  0.2224
  942MOL0     C24237   5.475  10.609   2.176  0.2417  0.2902 -0.9716
  942MOL0     C24238   5.398  10.727   2.193  0.1155  1.3016 -0.0700
  942MOL0     C24239   5.271  10.720   2.255 -0.6629  0.4427  0.0738
  942MOL0     C24240   5.235  10.596   2.321 -0.0737 -0.0084  0.6309
  942MOL0     C24241   5.106  10.590   2.379 -0.3070  0.2827 -0.0240
  942MOL0     O24242   5.062  10.699   2.449 -0.0919  0.0422 -0.7495
  942MOL0     C24243   4.944  10.700   2.507  0.5249 -0.1877  0.8016
  942MOL0     C24244   4.829  10.629   2.457 -1.2018 -0.4771  0.4373
  942MOL0     C24245   4.709  10.616   2.534 -0.0027 -0.0816 -1.4961
  942MOL0     C24246   4.688  10.690   2.658  0.1303 -0.1331  1.5602
  942MOL0     O24247   4.576  10.694   2.735  0.3468  0.0400  0.0256
  942MOL0     C24248   4.473  10.596   2.727  0.3063  0.5347 -0.5240
  942MOL0     C24249   4.479  10.499   2.849 -0.2011  0.5161  0.8301
  942MOL0     C24250   4.467  10.564   2.983 -0.5419 -0.0274  0.6523
  942MOL0     C24251   4.431  10.445   3.085 -0.2134 -0.6383  0.7160
  942MOL0     C24252   4.549  10.369   3.137  0.3111 -0.3397 -0.3308
  942MOL0     C24253   4.521  10.293   3.269 -0.0407 -0.5929 -0.3739
  942MOL0     C24254   4.428  10.167   3.263  0.7526 -0.0722 -0.1263
  942MOL0     C24255   4.407  10.095   3.395  0.1468 -0.0258  0.1134
  942MOL0    Cl24256   4.565  10.019   3.452 -0.0141  0.2135 -0.1125
  942MOL0     C24257   4.800  10.752   2.701 -0.5923 -0.5573  0.3121
  942MOL0     C24258   4.923  10.763   2.632 -0.8322 -0.1123 -0.5829
  942MOL0     O24259   5.058  10.479   2.379 -0.3524 -0.2315  0.1943
  942MOL0     C24260   5.319  10.483   2.304  0.1712  0.5397 -0.2123
  942MOL0     C24261   5.437  10.480   2.226  0.1103 -0.0612 -0.6264
  942MOL0     N24262   6.047  10.373   1.955  0.2067  0.0848  0.6183
  942MOL0     N24263   6.170  10.374   1.990 -0.3229 -0.5880  0.1824
  942MOL0     C24264   7.477  10.535   2.034  0.0469  0.4023 -0.1665
  942MOL0     C24265   7.580  10.507   1.945 -0.1996 -0.4611 -0.9587
  942MOL0     C24266   7.913  10.322   1.776 -0.4303 -0.4319 -0.7271
  942MOL0     C24267   8.013  10.226   1.779 -0.1843 -0.4559  0.0846
  942MOL0     C24268   8.125  10.238   1.693  0.6806 -0.0675  0.1022
  942MOL0     C24269   8.135  10.349   1.611 -0.2239  0.1246 -0.4148
  942MOL0     O24270   8.244  10.348   1.533 -0.5737 -0.4952  0.5557
  942MOL0     C24271   8.259  10.445   1.420 -0.5259  0.5127 -0.5251
  942MOL0     C24272   8.338  10.352   1.316  0.2845 -0.4827 -0.8948
  942MOL0     C24273   8.370  10.423   1.191  0.3141  0.0001 -0.7835
  942MOL0     C24274   8.244  10.455   1.112  0.3611 -0.9878  0.5805
  942MOL0     C24275   8.277  10.521   0.986 -0.0619 -0.2369  0.9012
  942MOL0     C24276   8.290  10.583   0.884 -0.4045 -1.2587 -0.8991
  942MOL0     C24277   8.032  10.453   1.611  0.3329  1.0717  0.7077
  942MOL0     C24278   7.922  10.434   1.692  0.1640 -0.1049  0.1354
  942MOL0     H24279   7.477  10.198   1.846  2.0302 -0.8824  1.3988
  942MOL0     H24280   7.299  10.242   1.988 -1.0509  1.3869  2.1111
  942MOL0     H24281   7.106  10.349   2.108  0.7455 -0.7607  0.5766
  942MOL0     H24282   7.143  10.459   1.978 -0.2786  0.5603  0.4549
  942MOL0     H24283   7.037  10.638   2.074  0.0451  0.0847 -0.0951
  942MOL0     H24284   7.038  10.568   2.246  2.8122 -0.2090 -0.1542
  942MOL0     H24285   6.861  10.427   2.197 -1.3496 -0.2826  1.2873
  942MOL0     H24286   6.872  10.454   2.017 -0.0943 -0.6192  0.3338
  942MOL0     H24287   6.778  10.648   2.224  0.4723 -3.0425  0.7193
  942MOL0     H24288   6.802  10.687   2.053  0.5393 -1.6108 -1.9802
  942MOL0     H24289   6.598  10.495   2.196  0.3333 -1.1559 -0.6086
  942MOL0     H24290   6.632  10.463   2.037 -1.8476 -1.0628  1.0029
  942MOL0     H24291   6.550  10.696   1.969 -1.4234 -2.2071 -1.5299
  942MOL0     H24292   6.555  10.736   2.141  1.3414 -0.4337 -0.2363
  942MOL0     H24293   6.353  10.536   2.139  0.6897 -1.5214 -0.2050
  942MOL0     H24294   6.325  10.687   2.040  1.1260  0.1474 -1.2897
  942MOL0     H24295   6.429  10.418   1.940 -1.3368 -0.5133 -1.2135
  942MOL0     H24296   6.404  10.571   1.850 -2.3430  0.8022 -0.0787
  942MOL0     H24297   6.160  10.612   1.768  0.9169  0.2006  0.0537
  942MOL0     H24298   5.870  10.415   1.732 -0.3507  0.4270 -0.3617
  942MOL0     H24299   5.887  10.593   1.740  0.3047 -0.7442 -2.0111
  942MOL0     H24300   5.807  10.543   1.994 -1.9267  0.7470  0.0162
  942MOL0     H24301   5.725  10.400   1.930  0.7212 -0.4818  0.0348
  942MOL0     H24302   5.698  10.690   1.856  1.4535  0.0478  2.0129
  942MOL0     H24303   5.624  10.554   1.762  0.5536  1.2963 -0.7911
  942MOL0     H24304   5.507  10.473   1.958  3.6205 -1.9150  0.7664
  942MOL0     H24305   5.456  10.649   1.934 -2.1099  0.1313  3.0846
  942MOL0     H24306   5.437  10.824   2.165  1.1103  1.3382  1.3440
  942MOL0     H24307   5.211  10.810   2.259 -0.5969  0.5793 -1.2934
  942MOL0     H24308   4.830  10.574   2.364 -0.0052 -1.2600  0.8859
  942MOL0     H24309   4.643  10.539   2.495  1.4589 -3.3738  1.9942
  942MOL0     H24310   4.480  10.545   2.630  1.4613  1.9267 -1.2170
  942MOL0     H24311   4.377  10.649   2.734  1.0710  1.9277 -0.2205
  942MOL0     H24312   4.571  10.440   2.845 -1.3297 -1.4274  2.1271
  942MOL0     H24313   4.387  10.441   2.842 -0.8617  1.5846  0.4354
  942MOL0     H24314   4.393  10.644   2.991 -0.1067  0.2409  2.1685
  942MOL0     H24315   4.562  10.610   3.010 -0.4703 -2.0656  4.5504
  942MOL0     H24316   4.385  10.511   3.159  0.0547 -0.0692  0.3899
  942MOL0     H24317   4.355  10.382   3.039  0.0363 -1.4428  1.3999
  942MOL0     H24318   4.622  10.449   3.147 -0.6286  0.3874  0.9968
  942MOL0     H24319   4.591  10.304   3.060  1.9737  0.9693 -0.5890
  942MOL0     H24320   4.475  10.354   3.346  0.9245 -1.2598  0.7620
  942MOL0     H24321   4.623  10.266   3.298  0.3531  0.2363 -0.9357
  942MOL0     H24322   4.335  10.208   3.223  1.0436  0.2041 -0.5324
  942MOL0     H24323   4.469  10.093   3.193  0.0680 -0.5850  0.0129
  942MOL0     H24324   4.320  10.032   3.372 -0.6585  1.1979 -0.3364
  942MOL0     H24325   4.375  10.173   3.464 -0.9934  1.7792 -2.2857
  942MOL0     H24326   4.799  10.814   2.790  2.7510 -0.8084  0.6512
  942MOL0     H24327   5.000  10.828   2.671 -0.5328 -0.9570  0.2684
  942MOL0     H24328   5.305  10.386   2.351  0.4190  0.5651 -0.0851
  942MOL0     H24329   5.503  10.394   2.212  0.5385 -0.2284  1.9246
  942MOL0     H24330   7.470  10.630   2.086  2.0376  0.0043  0.9145
  942MOL0     H24331   7.640  10.586   1.901 -1.1944  0.2464 -1.0633
  942MOL0     H24332   8.014  10.136   1.840 -0.0196  1.2257  2.6988
  942MOL0     H24333   8.202  10.161   1.691 -0.8312 -1.6406  0.3893
  942MOL0     H24334   8.311  10.539   1.443 -1.7659  0.8609  1.0386
  942MOL0     H24335   8.162  10.473   1.378 -0.9305  1.2478  0.8302
  942MOL0     H24336   8.435  10.318   1.354  0.2258 -2.6305 -2.4830
  942MOL0     H24337   8.276  10.264   1.294 -0.9682  0.4049 -1.0640
  942MOL0     H24338   8.438  10.362   1.132 -0.2276 -0.1367 -1.2800
  942MOL0     H24339   8.424  10.516   1.213  1.0930 -0.9789  1.7858
  942MOL0     H24340   8.191  10.366   1.077  0.7478 -1.8926  2.1995
  942MOL0     H24341   8.178  10.520   1.170  0.9291 -1.4300  1.7501
  942MOL0     H24342   8.312  10.643   0.798  0.1661  0.9425  0.7095
  942MOL0     H24343   8.040  10.549   1.560  1.3664  0.8853  0.5056
  942MOL0     H24344   7.842  10.507   1.696 -0.0394 -0.2470 -0.9524
  943MOL0     O24345   5.338   1.591   4.933 -0.1099  0.4946 -0.9444
  943MOL0     C24346   5.387   1.534   5.036 -1.6567 -0.4527  0.2188
  943MOL0     O24347   5.322   1.497   5.145 -0.1346  0.0002 -0.3537
  943MOL0     C24348   5.188   1.494   5.139  0.2742  0.0774  0.4555
  943MOL0     C24349   5.115   1.425   5.044 -0.0402 -1.1824  0.3659
  943MOL0     C24350   4.976   1.417   5.050  0.1141 -0.2566 -0.4262
  943MOL0     C24351   4.905   1.478   5.159 -1.1878 -0.7191 -0.5594
  943MOL0     O24352   4.769   1.479   5.155  0.1021 -0.3391  0.7231
  943MOL0     C24353   4.713   1.607   5.182  0.2324 -0.0934  0.5611
  943MOL0     C24354   4.573   1.622   5.129  0.0039 -0.3169  0.2281
  943MOL0     C24355   4.573   1.628   4.972  0.2132 -0.2192 -0.1900
  943MOL0     C24356   4.427   1.635   4.912 -0.1540 -0.1034  0.0736
  943MOL0     C24357   4.334   1.509   4.916 -0.6169  0.6162  0.1071
  943MOL0     C24358   4.208   1.508   4.823 -0.8165 -0.5514  0.2570
  943MOL0     C24359   4.095   1.431   4.887 -0.2547  0.6979 -0.0418
  943MOL0     C24360   3.969   1.442   4.797  0.2684 -0.3864  0.6202
  943MOL0     N24361   3.863   1.345   4.826 -0.3640 -0.1417  0.3138
  943MOL0     C24362   3.853   1.219   4.760  0.4374 -0.8053 -0.5146
  943MOL0     C24363   3.730   1.172   4.801  0.0970  0.1559 -0.1288
  943MOL0     C24364   3.665   1.033   4.776  0.0064 -0.8226 -0.1362
  943MOL0     C24365   3.623   0.952   4.895 -0.3797 -0.3760 -0.2248
  943MOL0     C24366   3.738   0.904   4.983 -0.5175  0.3829  0.2534
  943MOL0     C24367   3.866   0.981   5.005 -0.1082 -0.1562  0.1034
  943MOL0     O24368   3.959   0.908   5.080 -0.9820  0.2165 -0.1746
  943MOL0     C24369   4.063   0.980   5.133  0.3378 -0.0008  0.0395
  943MOL0     C24370   4.106   1.108   5.087  0.3054  0.4410 -0.3661
  943MOL0     C24371   4.206   1.178   5.145  0.6440  0.3980 -0.4380
  943MOL0     C24372   4.278   1.123   5.257 -0.2926  0.2788  0.3338
  943MOL0     C24373   4.381   1.204   5.321 -0.1310  0.9777 -0.8825
  943MOL0     O24374   4.483   1.132   5.375  0.1310 -0.4354 -0.2425
  943MOL0     C24375   4.583   1.210   5.428 -0.2927 -0.0756 -0.0075
  943MOL0     C24376   4.569   1.288   5.546 -1.0732  0.2827 -0.2373
  943MOL0     C24377   4.665   1.374   5.591  0.5094  0.1752 -0.0714
  943MOL0     C24378   4.786   1.375   5.535 -0.6200 -0.5397 -0.8457
  943MOL0     O24379   4.879   1.448   5.594  0.2548  0.2190  0.4364
  943MOL0     C24380   4.946   1.387   5.698  0.5377  0.4154  0.5826
  943MOL0     C24381   5.063   1.305   5.647  0.4296 -0.0195 -0.1262
  943MOL0     C24382   5.195   1.381   5.686 -0.5007 -0.3012 -0.4261
  943MOL0     C24383   5.215   1.495   5.583  0.8316  0.1800  0.5306
  943MOL0     C24384   5.342   1.579   5.608 -0.5429 -0.1192 -0.0987
  943MOL0     C24385   5.463   1.502   5.542 -0.9273  0.2220 -0.2808
  943MOL0     C24386   5.585   1.569   5.602 -0.3985 -0.0369  0.1073
  943MOL0     C24387   5.717   1.503   5.545 -0.0160 -0.1722  0.5520
  943MOL0    Cl24388   5.739   1.528   5.370 -0.2190 -0.0288 -0.2575
  943MOL0     C24389   4.816   1.293   5.427  0.1909  0.5153  0.5998
  943MOL0     C24390   4.711   1.202   5.369  0.0657 -0.4931 -0.4681
  943MOL0     O24391   4.361   1.322   5.327  0.4243 -0.2526  0.0739
  943MOL0     C24392   4.241   0.995   5.300 -0.8543 -0.2688  0.0882
  943MOL0     C24393   4.146   0.919   5.233 -0.3380 -0.7265  0.0069
  943MOL0     N24394   3.669   1.269   4.882  0.0378 -0.1393  0.2629
  943MOL0     N24395   3.750   1.365   4.894  0.1617  0.5806 -0.0629
  943MOL0     C24396   4.980   1.539   5.260  0.1381 -0.0297 -0.2044
  943MOL0     C24397   5.118   1.551   5.246 -0.4673 -0.1622  0.8418
  943MOL0     C24398   5.531   1.524   5.043 -0.4163 -0.3582  0.5588
  943MOL0     C24399   5.597   1.408   5.083 -0.0674 -0.0073  0.2746
  943MOL0     C24400   5.740   1.405   5.093  0.1710  0.0671  0.0731
  943MOL0     C24401   5.822   1.511   5.058  0.8819  0.1605 -0.0976
  943MOL0     O24402   5.957   1.514   5.081 -0.1252  0.2774  0.5993
  943MOL0     C24403   6.044   1.621   5.048 -0.1324 -0.1916  0.5996
  943MOL0     C24404   6.017   1.729   5.150  0.6637 -0.1356  0.1759
  943MOL0     C24405   6.115   1.837   5.158 -0.2522  0.8930 -0.5833
  943MOL0     C24406   6.104   1.922   5.030  0.0772 -0.0827  0.1955
  943MOL0     C24407   6.241   1.933   4.969  0.1069 -0.1765 -0.3305
  943MOL0     C24408   6.348   1.965   4.908  0.5024 -0.1005 -0.4516
  943MOL0     C24409   5.755   1.622   4.998  0.0409 -0.3101 -1.2713
  943MOL0     C24410   5.615   1.637   4.991 -0.2940  0.1777  0.1635
  943MOL0     H24411   5.177   1.384   4.965  1.3775 -1.2100  1.4339
  943MOL0     H24412   4.919   1.374   4.968  1.9752  0.7353 -2.3517
  943MOL0     H24413   4.771   1.691   5.143 -3.2738  2.5871  0.5486
  943MOL0     H24414   4.699   1.630   5.288 -0.7118  2.1189  0.0145
  943MOL0     H24415   4.526   1.715   5.162  1.2273  1.9692 -3.7448
  943MOL0     H24416   4.519   1.534   5.166  2.3127 -3.1788 -2.6151
  943MOL0     H24417   4.619   1.535   4.935 -0.8645 -1.5923  1.7399
  943MOL0     H24418   4.631   1.717   4.945  1.8413 -1.6504 -1.6676
  943MOL0     H24419   4.377   1.717   4.964  0.3022 -1.2785  2.5637
  943MOL0     H24420   4.438   1.652   4.805  3.3539 -2.8020 -0.1817
  943MOL0     H24421   4.306   1.503   5.021  0.9770 -3.1039  0.5002
  943MOL0     H24422   4.393   1.420   4.893  1.1976  2.1305 -1.4635
  943MOL0     H24423   4.232   1.458   4.729 -1.1908  2.9766 -1.9080
  943MOL0     H24424   4.178   1.609   4.792  3.1678 -0.0161 -2.6870
  943MOL0     H24425   4.112   1.324   4.897 -0.7319  0.5624 -0.6138
  943MOL0     H24426   4.069   1.465   4.987 -1.1585 -0.4863  0.1448
  943MOL0     H24427   4.005   1.418   4.696  1.0515  3.5475 -0.1776
  943MOL0     H24428   3.927   1.542   4.804 -3.2844 -1.7739  1.3565
  943MOL0     H24429   3.925   1.171   4.695  1.7275  0.4431 -0.0344
  943MOL0     H24430   3.745   0.981   4.723  2.6038  1.8254  0.9114
  943MOL0     H24431   3.582   1.038   4.705  0.6136 -0.8358 -0.8546
  943MOL0     H24432   3.583   0.857   4.857 -1.1825  0.4203 -1.4476
  943MOL0     H24433   3.546   1.004   4.952  1.2412 -1.2012  2.9003
  943MOL0     H24434   3.689   0.857   5.069 -0.3844  1.5597  0.9927
  943MOL0     H24435   3.778   0.815   4.933  1.8670  0.9516  1.0365
  943MOL0     H24436   3.841   1.078   5.047 -0.8321  0.0338 -0.7346
  943MOL0     H24437   3.923   1.009   4.915  1.7263 -2.1786  0.5470
  943MOL0     H24438   4.062   1.158   5.002  0.0328 -1.2758 -1.2689
  943MOL0     H24439   4.224   1.278   5.105 -1.3211  0.2705 -1.7640
  943MOL0     H24440   4.472   1.292   5.593 -1.0947  1.2267 -0.3542
  943MOL0     H24441   4.638   1.424   5.683 -2.5142 -1.7844  0.2639
  943MOL0     H24442   4.877   1.336   5.765  0.9230  0.0706  0.7229
  943MOL0     H24443   4.990   1.461   5.766 -2.0498  2.0768  0.5933
  943MOL0     H24444   5.051   1.281   5.541  2.3294 -2.8825  0.2021
  943MOL0     H24445   5.059   1.208   5.696 -0.3931 -0.7939 -1.6622
  943MOL0     H24446   5.280   1.314   5.670  1.0191  1.0710  1.3757
  943MOL0     H24447   5.185   1.416   5.790  1.4150 -1.3420  0.1525
  943MOL0     H24448   5.214   1.453   5.482 -0.6737  1.5561 -0.0950
  943MOL0     H24449   5.130   1.564   5.572  2.2139  2.0691  1.0850
  943MOL0     H24450   5.354   1.592   5.716 -1.6559 -0.1379  0.0426
  943MOL0     H24451   5.345   1.675   5.556  3.0528 -1.3976 -2.6474
  943MOL0     H24452   5.463   1.523   5.435 -0.0036  1.7763 -0.0062
  943MOL0     H24453   5.459   1.393   5.555 -0.1343 -0.0612 -2.0329
  943MOL0     H24454   5.591   1.672   5.565 -0.7083  0.1754  0.6247
  943MOL0     H24455   5.601   1.558   5.710 -0.3377  0.6765  0.1730
  943MOL0     H24456   5.724   1.398   5.574  2.6837 -0.8285 -1.9725
  943MOL0     H24457   5.802   1.557   5.587 -0.0499 -0.2948  0.7801
  943MOL0     H24458   4.916   1.310   5.389  0.2033  1.2961  0.9588
  943MOL0     H24459   4.734   1.140   5.283  2.2649 -1.0998  0.4880
  943MOL0     H24460   4.292   0.946   5.383 -0.3608  1.2272  0.7040
  943MOL0     H24461   4.113   0.824   5.273 -1.8434  0.2518  1.2348
  943MOL0     H24462   4.943   1.581   5.353  1.9389  0.1057  0.4864
  943MOL0     H24463   5.178   1.607   5.319 -0.1845  1.9865 -0.9206
  943MOL0     H24464   5.536   1.322   5.111 -1.8391  1.0377 -0.1952
  943MOL0     H24465   5.788   1.316   5.133 -0.6230 -1.1419 -1.5387
  943MOL0     H24466   6.016   1.655   4.948 -2.0590 -0.9923  0.8190
  943MOL0     H24467   6.149   1.591   5.052 -0.7395 -2.4546  1.2318
  943MOL0     H24468   5.920   1.774   5.127  1.4687  1.3084 -0.5150
  943MOL0     H24469   6.009   1.691   5.252 -0.0460  0.4025  0.3300
  943MOL0     H24470   6.212   1.788   5.174 -1.2225 -0.1079  3.3346
  943MOL0     H24471   6.103   1.910   5.239 -0.7078  0.6354 -0.4210
  943MOL0     H24472   6.035   1.864   4.967  0.4495 -0.5969  0.2506
  943MOL0     H24473   6.068   2.022   5.051 -1.8548 -0.9078  1.0358
  943MOL0     H24474   6.422   2.006   4.842 -1.6535  1.9083 -1.7954
  943MOL0     H24475   5.804   1.707   4.952 -0.1743 -0.7370 -2.3170
  943MOL0     H24476   5.557   1.718   4.949 -2.7571 -0.9710  1.1383
  944MOL0     O24477   3.958   5.454   6.568  0.2595 -0.2158  0.4438
  944MOL0     C24478   3.863   5.523   6.602 -0.7330  0.3001  0.1929
  944MOL0     O24479   3.849   5.658   6.587 -0.8296  0.3777  0.4234
  944MOL0     C24480   3.960   5.720   6.533 -0.5089 -0.3399 -0.8288
  944MOL0     C24481   4.030   5.805   6.617  0.1288 -0.4876 -0.5124
  944MOL0     C24482   4.139   5.875   6.567 -0.5358 -1.1067 -1.3897
  944MOL0     C24483   4.178   5.885   6.434  0.3814 -0.4625  0.1295
  944MOL0     O24484   4.296   5.951   6.404  0.0452 -0.0928  0.1485
  944MOL0     C24485   4.370   5.911   6.288  0.5107  0.2256 -0.2946
  944MOL0     C24486   4.475   6.026   6.277 -0.6865  0.0385 -1.0668
  944MOL0     C24487   4.584   6.019   6.385 -0.2701 -0.0934 -0.8499
  944MOL0     C24488   4.715   6.097   6.352 -0.8422  0.2120 -0.3407
  944MOL0     C24489   4.796   6.104   6.481 -0.1194 -0.1710 -0.2011
  944MOL0     C24490   4.915   6.208   6.466 -0.3214 -0.0185  0.9759
  944MOL0     C24491   4.873   6.349   6.482  0.5868 -1.4719  0.8441
  944MOL0     C24492   4.806   6.391   6.617 -0.4134  0.4987  0.2569
  944MOL0     N24493   4.662   6.374   6.631  0.4658  0.1157  0.5825
  944MOL0     C24494   4.598   6.279   6.704 -0.1639  0.2451 -0.3903
  944MOL0     C24495   4.465   6.281   6.672  0.3706 -0.2592 -0.3585
  944MOL0     C24496   4.368   6.184   6.725 -0.0969  0.3506  0.3267
  944MOL0     C24497   4.276   6.245   6.827 -0.2754  1.0935 -0.3247
  944MOL0     C24498   4.178   6.134   6.861 -0.3585 -1.0403 -0.1682
  944MOL0     C24499   4.057   6.182   6.951 -0.6152 -0.4344  0.1514
  944MOL0     O24500   3.992   6.067   6.999  0.1318  0.1817 -0.0151
  944MOL0     C24501   3.871   6.084   7.062 -0.3059 -0.3397  0.8934
  944MOL0     C24502   3.809   5.977   7.121  0.5606 -0.1498 -0.4635
  944MOL0     C24503   3.682   5.983   7.185 -0.2395 -0.4812  0.1432
  944MOL0     C24504   3.612   6.106   7.186  0.2880 -0.5270  0.3241
  944MOL0     C24505   3.465   6.118   7.214  0.4277  0.2319  0.3221
  944MOL0     O24506   3.396   5.999   7.237 -0.3576 -0.0353 -0.1451
  944MOL0     C24507   3.270   6.000   7.271  0.3174 -0.7314  0.3778
  944MOL0     C24508   3.242   5.905   7.365 -0.0013  0.4458  1.2425
  944MOL0     C24509   3.110   5.889   7.405 -0.6706  0.1197 -0.2512
  944MOL0     C24510   3.011   5.969   7.344  1.1018 -0.0454 -0.6589
  944MOL0     O24511   2.879   5.965   7.380  0.4460 -0.2196 -0.5499
  944MOL0     C24512   2.828   5.883   7.492  0.0892 -1.1390  0.3287
  944MOL0     C24513   2.777   5.748   7.449  0.1884  1.0380  0.1554
  944MOL0     C24514   2.762   5.653   7.573 -0.1451  0.0285  0.9116
  944MOL0     C24515   2.657   5.701   7.663 -0.9242  0.3112 -0.1145
  944MOL0     C24516   2.597   5.598   7.754 -0.4242  1.1928  0.1147
  944MOL0     C24517   2.702   5.517   7.835  0.0651  0.0193 -0.3806
  944MOL0     C24518   2.636   5.399   7.911  1.2580 -0.1327 -0.6774
  944MOL0     C24519   2.580   5.464   8.044 -1.2979  0.1348 -0.4303
  944MOL0    Cl24520   2.504   5.329   8.141 -0.4816 -0.5322  0.0670
  944MOL0     C24521   3.037   6.038   7.227 -0.0680  0.0259  0.3399
  944MOL0     C24522   3.167   6.058   7.190 -0.2343  0.7184 -0.7399
  944MOL0     O24523   3.413   6.229   7.210 -0.0067  0.1790 -0.0641
  944MOL0     C24524   3.682   6.221   7.137 -0.6125 -0.1921 -0.0113
  944MOL0     C24525   3.810   6.211   7.071 -0.1324 -0.2258 -0.4030
  944MOL0     N24526   4.449   6.401   6.600  0.0785  0.4267 -0.1730
  944MOL0     N24527   4.561   6.459   6.580 -0.7515 -0.0783 -0.5934
  944MOL0     C24528   4.092   5.814   6.342 -0.5003  0.3875  0.9883
  944MOL0     C24529   3.983   5.741   6.397  0.0933 -0.3994  1.0326
  944MOL0     C24530   3.756   5.467   6.684  0.6849  0.4761 -0.3961
  944MOL0     C24531   3.655   5.560   6.725  0.4835  0.3175 -0.0755
  944MOL0     C24532   3.549   5.512   6.807 -0.2937  1.1050 -0.6173
  944MOL0     C24533   3.558   5.377   6.853  0.2924 -0.6110 -0.0862
  944MOL0     O24534   3.437   5.336   6.908 -0.4636 -0.1884 -0.3750
  944MOL0     C24535   3.423   5.209   6.967  0.2202  0.8402 -0.7401
  944MOL0     C24536   3.343   5.215   7.093 -0.4791 -0.6880 -0.4804
  944MOL0     C24537   3.200   5.255   7.066 -0.0345 -0.2306  0.4962
  944MOL0     C24538   3.109   5.169   7.148 -0.2701 -0.3427 -0.0647
  944MOL0     C24539   2.969   5.180   7.132 -0.1481  0.0585  0.8366
  944MOL0     C24540   2.850   5.201   7.110 -0.8515  0.0615 -0.0554
  944MOL0     C24541   3.670   5.295   6.827  0.0011  0.2237 -0.5037
  944MOL0     C24542   3.774   5.337   6.752  1.0372 -0.0611 -0.8033
  944MOL0     H24543   4.003   5.823   6.721 -0.4435  0.7722 -0.8598
  944MOL0     H24544   4.204   5.929   6.635  2.7795 -2.9785 -2.8246
  944MOL0     H24545   4.302   5.915   6.202  1.0019 -1.5265 -0.8063
  944MOL0     H24546   4.406   5.807   6.289 -1.0910 -0.3756 -1.0996
  944MOL0     H24547   4.421   6.121   6.279 -1.5315 -0.4100  1.3517
  944MOL0     H24548   4.527   6.016   6.182  0.2096  1.2846 -0.7287
  944MOL0     H24549   4.609   5.915   6.406  1.1195 -0.0932 -2.3031
  944MOL0     H24550   4.547   6.055   6.481 -0.3882 -2.4159  0.0178
  944MOL0     H24551   4.768   6.044   6.272 -0.6989  1.4755 -1.1085
  944MOL0     H24552   4.684   6.197   6.320  0.6682  1.1164  0.8629
  944MOL0     H24553   4.836   6.006   6.507  2.0302  1.0657  1.5390
  944MOL0     H24554   4.750   6.135   6.576  2.0264 -0.6252  1.0539
  944MOL0     H24555   4.966   6.205   6.370 -0.3911  2.0317  0.8257
  944MOL0     H24556   4.990   6.197   6.546  1.5071 -0.1654 -0.6778
  944MOL0     H24557   4.959   6.416   6.472  0.6269 -1.8808 -3.3343
  944MOL0     H24558   4.807   6.376   6.399  0.3542 -3.3896  0.3590
  944MOL0     H24559   4.839   6.495   6.626  0.3604  0.2515  0.3451
  944MOL0     H24560   4.850   6.325   6.692  0.3251  2.2188  1.4063
  944MOL0     H24561   4.641   6.202   6.768 -0.5722 -0.3230 -0.7887
  944MOL0     H24562   4.425   6.103   6.771 -0.3183  0.7587  1.3546
  944MOL0     H24563   4.311   6.145   6.640 -1.2802  1.0676  0.7549
  944MOL0     H24564   4.229   6.334   6.783 -2.6809  0.7393  1.3252
  944MOL0     H24565   4.336   6.276   6.913  4.0470 -0.1176 -2.5979
  944MOL0     H24566   4.135   6.089   6.771  1.4620 -0.3808 -1.4212
  944MOL0     H24567   4.227   6.049   6.909  0.3650 -0.1723  0.6826
  944MOL0     H24568   3.990   6.243   6.889  2.8107  0.0500 -3.4932
  944MOL0     H24569   4.099   6.245   7.030 -1.5354  2.2846 -1.3942
  944MOL0     H24570   3.863   5.884   7.114 -0.7174 -1.0737  1.1424
  944MOL0     H24571   3.649   5.896   7.241  1.5217 -1.3170 -0.0586
  944MOL0     H24572   3.330   5.857   7.405 -0.0320 -2.6877 -1.8999
  944MOL0     H24573   3.086   5.828   7.491  1.5338 -2.3615 -1.2618
  944MOL0     H24574   2.745   5.930   7.543  1.2506 -0.3994  1.6036
  944MOL0     H24575   2.905   5.874   7.570 -0.3734  3.4488  1.6133
  944MOL0     H24576   2.856   5.690   7.399 -0.7930  1.5550 -2.1071
  944MOL0     H24577   2.692   5.747   7.381  1.0730 -1.1672 -1.0295
  944MOL0     H24578   2.861   5.647   7.619  0.5990  1.2717 -0.4473
  944MOL0     H24579   2.745   5.550   7.540  0.2540 -0.5091  2.3164
  944MOL0     H24580   2.702   5.779   7.724 -2.1428  1.5884 -0.8022
  944MOL0     H24581   2.571   5.743   7.610 -2.1214 -1.2547  0.4965
  944MOL0     H24582   2.546   5.524   7.693  0.2352  1.3440 -0.6362
  944MOL0     H24583   2.531   5.647   7.826  1.0858  2.0456  0.9786
  944MOL0     H24584   2.756   5.574   7.912 -0.3929  0.0697 -0.0952
  944MOL0     H24585   2.778   5.475   7.768 -1.5343 -4.1645  0.1342
  944MOL0     H24586   2.556   5.361   7.846  0.0590 -0.3768  0.8755
  944MOL0     H24587   2.709   5.322   7.940 -1.2760 -1.6427  2.3769
  944MOL0     H24588   2.514   5.550   8.027  1.7037  3.2147  1.9160
  944MOL0     H24589   2.659   5.497   8.113 -2.3447  0.2623  0.7440
  944MOL0     H24590   2.962   6.099   7.177  0.2699  0.9053  0.8896
  944MOL0     H24591   3.180   6.127   7.107 -1.5211 -0.4692 -1.9830
  944MOL0     H24592   3.635   6.318   7.150 -0.6381 -0.2220  0.1159
  944MOL0     H24593   3.846   6.305   7.030 -4.5517  2.0970  0.4525
  944MOL0     H24594   4.098   5.813   6.233 -0.1314  0.6677  1.0052
  944MOL0     H24595   3.908   5.712   6.324  0.8580  3.6908 -1.7208
  944MOL0     H24596   3.652   5.659   6.680  1.2293  0.7696  0.8433
  944MOL0     H24597   3.466   5.578   6.831 -0.5103 -0.2112  2.8547
  944MOL0     H24598   3.525   5.179   6.990 -0.0486 -0.0769 -0.7001
  944MOL0     H24599   3.383   5.132   6.899 -1.0887  1.5455 -0.7904
  944MOL0     H24600   3.345   5.123   7.152 -1.6197 -0.2648  0.2471
  944MOL0     H24601   3.386   5.288   7.163 -0.1778 -2.9112  1.8366
  944MOL0     H24602   3.173   5.257   6.960  0.6501  1.5422  0.3231
  944MOL0     H24603   3.173   5.358   7.093 -0.6739 -0.7184  1.8272
  944MOL0     H24604   3.125   5.063   7.128 -2.0286 -0.4741 -0.9702
  944MOL0     H24605   3.130   5.191   7.253 -0.6202 -1.3115  0.2138
  944MOL0     H24606   2.754   5.222   7.069 -1.1047  0.6581  0.8203
  944MOL0     H24607   3.682   5.192   6.858  2.0570  0.0007 -1.8605
  944MOL0     H24608   3.857   5.269   6.736  0.8491  0.4088 -4.4507
  945MOL0     O24609   7.674   8.583   3.160  1.0364  0.3489  0.1774
  945MOL0     C24610   7.659   8.695   3.112  0.4483 -0.0875  0.4379
  945MOL0     O24611   7.551   8.745   3.037 -0.7180  0.0331  0.5177
  945MOL0     C24612   7.442   8.679   2.995 -0.7752 -0.4752  0.4610
  945MOL0     C24613   7.399   8.546   3.023 -0.3716 -0.4391  0.0523
  945MOL0     C24614   7.275   8.496   2.966 -0.2887 -0.0246 -0.4861
  945MOL0     C24615   7.192   8.572   2.887  0.1930  0.5034 -0.7074
  945MOL0     O24616   7.082   8.530   2.827  0.3079  0.1777 -0.7217
  945MOL0     C24617   6.977   8.480   2.911 -0.8066  0.6869  0.1072
  945MOL0     C24618   6.861   8.419   2.824  0.1199 -0.6811  0.2564
  945MOL0     C24619   6.767   8.351   2.921  0.0198  0.1511  0.2801
  945MOL0     C24620   6.677   8.245   2.851  0.3804 -0.1882  0.1449
  945MOL0     C24621   6.585   8.176   2.962  0.0765 -0.3069 -0.3690
  945MOL0     C24622   6.468   8.098   2.908  1.2026  0.8334  0.2220
  945MOL0     C24623   6.336   8.183   2.888 -0.5260  0.5943  0.6377
  945MOL0     C24624   6.287   8.259   3.014  0.2364  0.7065  0.1726
  945MOL0     N24625   6.151   8.300   2.986  0.0549  0.5598 -0.1751
  945MOL0     C24626   6.118   8.363   2.872  0.3298 -0.0941  0.6229
  945MOL0     C24627   5.979   8.374   2.885  0.1553 -0.3934  0.1381
  945MOL0     C24628   5.878   8.439   2.792 -0.2625  0.4272  0.7060
  945MOL0     C24629   5.757   8.344   2.787 -0.5391 -0.3393 -0.2716
  945MOL0     C24630   5.639   8.415   2.703 -1.1151 -0.4119 -0.5452
  945MOL0     C24631   5.520   8.318   2.677  0.2425  0.5266 -0.1942
  945MOL0     O24632   5.412   8.349   2.766 -0.0122 -0.2053  0.4182
  945MOL0     C24633   5.278   8.321   2.752  0.3655  1.5027  0.7404
  945MOL0     C24634   5.199   8.328   2.868 -0.2893 -0.3385  0.1905
  945MOL0     C24635   5.056   8.297   2.870 -0.2292  0.5144  0.6595
  945MOL0     C24636   4.996   8.264   2.750 -0.8750 -0.3598  0.6941
  945MOL0     C24637   4.853   8.247   2.733 -0.4552 -0.5297 -0.2427
  945MOL0     O24638   4.822   8.240   2.599 -0.4398 -0.4127  0.4533
  945MOL0     C24639   4.696   8.205   2.559 -0.9191  0.2600 -0.4955
  945MOL0     C24640   4.604   8.306   2.533  0.4263 -0.8347 -1.2746
  945MOL0     C24641   4.467   8.286   2.517  0.5661  0.6212  0.5178
  945MOL0     C24642   4.426   8.154   2.525 -0.2882 -0.4820 -0.5302
  945MOL0     O24643   4.299   8.115   2.517 -0.0557  0.1123  0.0656
  945MOL0     C24644   4.196   8.209   2.481  0.5399 -1.1804 -0.0614
  945MOL0     C24645   4.073   8.121   2.493  0.4555  0.3471 -0.4100
  945MOL0     C24646   3.956   8.201   2.472  0.3007  0.7756  0.4719
  945MOL0     C24647   3.828   8.121   2.506 -0.2789  0.4916 -0.2478
  945MOL0     C24648   3.704   8.200   2.508  0.7601 -0.2312  0.2463
  945MOL0     C24649   3.688   8.260   2.377  0.3288  0.8302  0.5152
  945MOL0     C24650   3.554   8.328   2.354 -0.0233  0.3364 -0.0907
  945MOL0     C24651   3.437   8.225   2.350  0.6912 -0.1773 -0.0010
  945MOL0    Cl24652   3.292   8.314   2.298  0.3309 -0.0522  0.0704
  945MOL0     C24653   4.520   8.056   2.548  0.2816  1.0455 -0.2048
  945MOL0     C24654   4.653   8.070   2.566 -0.0508  0.0848 -0.0412
  945MOL0     O24655   4.770   8.246   2.824  0.4773 -0.3700  0.0497
  945MOL0     C24656   5.079   8.244   2.634 -0.2053 -0.4883 -0.5176
  945MOL0     C24657   5.217   8.270   2.637 -0.4292 -0.2710  0.3522
  945MOL0     N24658   5.933   8.321   3.004  0.6554  0.0577  0.3513
  945MOL0     N24659   6.037   8.283   3.064  0.3276 -0.7299 -0.3741
  945MOL0     C24660   7.255   8.696   2.854  0.4844 -0.8221 -0.0636
  945MOL0     C24661   7.364   8.752   2.906  0.3908 -0.6465  0.7591
  945MOL0     C24662   7.769   8.790   3.133  0.9695  0.1778 -0.0621
  945MOL0     C24663   7.738   8.925   3.129 -0.6622 -0.6107 -0.0894
  945MOL0     C24664   7.839   9.014   3.153 -0.3107  0.3950  0.3103
  945MOL0     C24665   7.971   8.972   3.175  0.6237 -0.0720  0.3547
  945MOL0     O24666   8.072   9.057   3.208 -0.6909 -0.1234 -0.1204
  945MOL0     C24667   8.143   9.112   3.093 -0.3302 -0.2262  0.0377
  945MOL0     C24668   8.124   9.262   3.073 -0.5082  0.0102 -0.6043
  945MOL0     C24669   8.142   9.347   3.207  1.0322  0.0942  0.3313
  945MOL0     C24670   8.290   9.349   3.241  0.1424 -0.2394  0.3630
  945MOL0     C24671   8.329   9.459   3.331 -0.5950 -0.4343 -0.2537
  945MOL0     C24672   8.371   9.534   3.412 -0.8090  0.0557  0.9026
  945MOL0     C24673   8.004   8.842   3.173 -0.0334  0.0957 -0.2055
  945MOL0     C24674   7.901   8.748   3.159 -0.6522  0.4113 -0.3349
  945MOL0     H24675   7.459   8.473   3.076  0.6712  1.2526  1.2767
  945MOL0     H24676   7.247   8.395   2.993 -1.6570  1.0199  2.4100
  945MOL0     H24677   6.938   8.550   2.985  1.3170 -0.0571  2.0492
  945MOL0     H24678   7.021   8.395   2.965  1.0426  2.3437  1.3254
  945MOL0     H24679   6.907   8.340   2.764  2.6282  0.0442  1.0818
  945MOL0     H24680   6.812   8.489   2.756  0.7032 -1.0188 -0.5291
  945MOL0     H24681   6.718   8.426   2.983  0.7256  1.1454 -0.3328
  945MOL0     H24682   6.824   8.285   2.987  1.2657  3.0275  2.3253
  945MOL0     H24683   6.606   8.293   2.783  0.7603  0.8038  0.4242
  945MOL0     H24684   6.725   8.170   2.788 -0.1980  0.3486 -0.9485
  945MOL0     H24685   6.541   8.256   3.022 -0.5653 -0.1680 -1.0184
  945MOL0     H24686   6.636   8.111   3.034  1.0910 -0.4701 -1.2100
  945MOL0     H24687   6.459   8.019   2.984  1.7724  1.0273  0.5015
  945MOL0     H24688   6.486   8.059   2.808 -4.1355  0.8903 -1.0628
  945MOL0     H24689   6.362   8.251   2.806  4.6397 -1.8658 -0.1450
  945MOL0     H24690   6.262   8.109   2.858 -0.3191  0.9044 -0.6711
  945MOL0     H24691   6.352   8.344   3.036 -1.4807  1.6877  1.7787
  945MOL0     H24692   6.296   8.198   3.105  0.8850  0.9362  0.2658
  945MOL0     H24693   6.182   8.405   2.796  0.4577 -0.0812  0.7387
  945MOL0     H24694   5.939   8.445   2.701 -0.1068 -2.2208  0.5423
  945MOL0     H24695   5.850   8.539   2.824 -0.1200  0.6459  0.1452
  945MOL0     H24696   5.734   8.303   2.886 -0.6720 -1.6082 -0.8030
  945MOL0     H24697   5.784   8.252   2.734 -0.6055  1.0122 -2.7779
  945MOL0     H24698   5.600   8.495   2.767  1.5353 -0.1094  0.8507
  945MOL0     H24699   5.687   8.456   2.613  1.2849 -0.4016  0.6429
  945MOL0     H24700   5.543   8.211   2.684 -2.3709 -0.3734 -2.9659
  945MOL0     H24701   5.487   8.338   2.574  1.3350  3.1257 -0.1029
  945MOL0     H24702   5.239   8.350   2.966 -0.4762  0.2703  0.1363
  945MOL0     H24703   4.995   8.305   2.960  2.7039  0.5652  2.7923
  945MOL0     H24704   4.646   8.405   2.517  0.0795 -0.4367  0.1691
  945MOL0     H24705   4.407   8.376   2.504 -1.0088 -0.5349 -0.6309
  945MOL0     H24706   4.208   8.257   2.384  0.2536  0.8468  0.8594
  945MOL0     H24707   4.187   8.292   2.552 -1.0783 -1.2904 -0.0976
  945MOL0     H24708   4.068   8.095   2.599 -1.5043  1.7812 -0.0976
  945MOL0     H24709   4.073   8.050   2.410  3.9277  1.0068 -1.1256
  945MOL0     H24710   3.951   8.236   2.368 -1.0320  0.4010  0.3883
  945MOL0     H24711   3.960   8.297   2.525  1.5820  2.0319 -1.7278
  945MOL0     H24712   3.817   8.025   2.456  2.8390 -1.1454  1.8305
  945MOL0     H24713   3.850   8.100   2.612  0.1399  1.1659 -0.1899
  945MOL0     H24714   3.711   8.285   2.577  2.2067  0.1805 -0.3499
  945MOL0     H24715   3.626   8.129   2.535 -2.1974  3.5623  2.7200
  945MOL0     H24716   3.684   8.180   2.302  2.5989  0.6296  0.5483
  945MOL0     H24717   3.765   8.332   2.347 -1.4066  2.7452  0.3760
  945MOL0     H24718   3.549   8.395   2.441  0.0737 -2.4179  2.1789
  945MOL0     H24719   3.558   8.391   2.265  2.0694 -1.3169 -1.2575
  945MOL0     H24720   3.418   8.198   2.454 -1.0783 -1.8366 -0.6937
  945MOL0     H24721   3.468   8.140   2.288 -1.1131  0.2331 -1.5641
  945MOL0     H24722   4.471   7.961   2.564  1.0315  0.3512 -1.7738
  945MOL0     H24723   4.720   7.988   2.593 -0.7973  0.0703  1.8931
  945MOL0     H24724   5.039   8.215   2.538 -0.3498  4.3445 -2.1812
  945MOL0     H24725   5.270   8.242   2.547  1.4419 -0.3514  1.4164
  945MOL0     H24726   7.207   8.754   2.775 -0.7105 -0.6916  0.7273
  945MOL0     H24727   7.403   8.844   2.865 -0.6279  0.1284  1.4750
  945MOL0     H24728   7.639   8.965   3.113 -1.1630  0.1194  3.7800
  945MOL0     H24729   7.821   9.121   3.156 -1.5448  0.1945  3.0043
  945MOL0     H24730   8.122   9.062   2.998  0.5219 -3.0348  1.2070
  945MOL0     H24731   8.249   9.093   3.110 -0.3006 -0.5316 -0.4827
  945MOL0     H24732   8.189   9.303   2.994  0.6066  1.1729  0.8544
  945MOL0     H24733   8.020   9.272   3.042 -0.4931 -1.7742 -1.3304
  945MOL0     H24734   8.075   9.304   3.282 -1.7366  1.3515 -1.2603
  945MOL0     H24735   8.119   9.452   3.185 -0.3180  0.0409  1.3698
  945MOL0     H24736   8.311   9.253   3.290 -1.1296  0.0729  1.5772
  945MOL0     H24737   8.349   9.358   3.149 -1.3797  1.8916 -0.4817
  945MOL0     H24738   8.421   9.603   3.477 -0.0941 -1.0879  1.5891
  945MOL0     H24739   8.106   8.814   3.195 -0.7007 -0.9887  1.7304
  945MOL0     H24740   7.921   8.643   3.174 -2.7040  0.3065  2.4770
  946MOL0     O24741  10.140   6.233   9.048 -0.4268  0.2288  0.0560
  946MOL0     C24742  10.077   6.130   9.076 -0.0558  0.1351  0.0482
  946MOL0     O24743  10.114   6.036   9.166 -0.8988  0.5999 -1.1612
  946MOL0     C24744  10.249   6.037   9.216  0.0562  0.1863 -0.6337
  946MOL0     C24745  10.258   5.975   9.345  0.2686  0.8472  0.2100
  946MOL0     C24746  10.374   5.972   9.418 -1.3063 -0.7838  0.5863
  946MOL0     C24747  10.490   6.023   9.360 -0.4165  0.4402  0.8339
  946MOL0     O24748  10.612   6.032   9.426  1.0480 -0.1373  0.0092
  946MOL0     C24749  10.646   5.946   9.532 -0.7790  0.2179 -0.3630
  946MOL0     C24750  10.797   5.950   9.570 -0.7898  0.1201  0.7828
  946MOL0     C24751  10.840   6.085   9.612  0.0492 -0.0298 -0.1788
  946MOL0     C24752  10.992   6.089   9.623 -0.4162  0.9288  0.5901
  946MOL0     C24753  11.058   6.217   9.642  0.0766  0.2524 -0.2973
  946MOL0     C24754  11.216   6.215   9.633 -0.2997  0.6928 -0.1890
  946MOL0     C24755  11.273   6.357   9.653  0.8289  0.2872 -0.1728
  946MOL0     C24756  11.275   6.433   9.516  0.0113 -0.6397  0.2511
  946MOL0     N24757  11.303   6.582   9.525  0.4402 -0.0336 -0.2246
  946MOL0     C24758  11.408   6.652   9.592  0.5045  0.1105 -0.3254
  946MOL0     C24759  11.386   6.784   9.571  0.0113 -0.7895 -0.0617
  946MOL0     C24760  11.480   6.896   9.604 -0.4919 -1.2350  0.2456
  946MOL0     C24761  11.614   6.852   9.647  0.9376 -0.0628 -0.1951
  946MOL0     C24762  11.685   6.792   9.521  0.0557 -0.5847 -0.1273
  946MOL0     C24763  11.812   6.728   9.570 -0.6284 -0.4649  0.7238
  946MOL0     O24764  11.900   6.752   9.461  0.0526  0.1489  0.3570
  946MOL0     C24765  12.037   6.749   9.474 -0.8446  0.3062  0.1519
  946MOL0     C24766  12.098   6.669   9.573 -0.5113 -0.8630 -0.2114
  946MOL0     C24767  12.233   6.647   9.571 -0.0864 -0.5373 -1.0937
  946MOL0     C24768  12.316   6.696   9.465  0.8490 -0.0603  0.4455
  946MOL0     C24769  12.465   6.667   9.460 -0.5571  0.4868 -0.0210
  946MOL0     O24770  12.542   6.705   9.354  0.1858  0.0008  0.7403
  946MOL0     C24771  12.673   6.660   9.347 -0.2085  0.0377 -0.7613
  946MOL0     C24772  12.712   6.530   9.314  0.3776 -0.0959  0.1810
  946MOL0     C24773  12.838   6.488   9.318 -0.8880 -0.7052 -0.3317
  946MOL0     C24774  12.946   6.561   9.365 -0.0768 -0.2730  1.0088
  946MOL0     O24775  13.075   6.513   9.380  0.2531 -0.0353  0.0239
  946MOL0     C24776  13.124   6.451   9.252 -0.8043 -0.4046 -1.1520
  946MOL0     C24777  13.277   6.453   9.247 -1.4728  0.7335  0.1977
  946MOL0     C24778  13.346   6.409   9.379 -0.3061 -0.4741 -0.2926
  946MOL0     C24779  13.322   6.266   9.407 -0.3365  0.5344 -0.7435
  946MOL0     C24780  13.416   6.201   9.520  0.9283 -0.2419  0.4306
  946MOL0     C24781  13.564   6.221   9.498 -0.1200  0.8210 -0.4548
  946MOL0     C24782  13.632   6.165   9.367 -0.5394 -0.5548 -0.5132
  946MOL0     C24783  13.776   6.216   9.375  0.1287 -0.3877  0.4865
  946MOL0    Cl24784  13.850   6.125   9.519 -0.7175 -0.0590 -0.0787
  946MOL0     C24785  12.917   6.697   9.389 -0.1688 -0.5913  0.4774
  946MOL0     C24786  12.782   6.751   9.384 -0.3631  0.7596 -0.4152
  946MOL0     O24787  12.505   6.602   9.554  0.6339  0.9059  1.0001
  946MOL0     C24788  12.257   6.782   9.372 -0.4156 -1.1259 -0.5663
  946MOL0     C24789  12.117   6.801   9.373 -0.2703  0.3051 -0.6249
  946MOL0     N24790  11.265   6.794   9.501  0.4774  0.3136 -1.4150
  946MOL0     N24791  11.211   6.674   9.478 -0.3582  0.7143  0.0472
  946MOL0     C24792  10.486   6.073   9.229 -1.1266 -0.0670 -0.3786
  946MOL0     C24793  10.366   6.081   9.152 -0.7751  0.0197 -0.8764
  946MOL0     C24794   9.942   6.126   9.006 -0.0324 -0.0539 -0.2769
  946MOL0     C24795   9.836   6.044   9.051 -0.1688 -0.4076 -0.4477
  946MOL0     C24796   9.712   6.038   8.990  0.0716 -0.0250  0.6349
  946MOL0     C24797   9.683   6.110   8.875 -0.5706  0.2733 -0.0622
  946MOL0     O24798   9.554   6.105   8.831  0.4046 -0.4556  0.1844
  946MOL0     C24799   9.518   6.131   8.698 -0.4819 -0.3852  0.6123
  946MOL0     C24800   9.372   6.125   8.672  0.4873 -0.8725  0.4212
  946MOL0     C24801   9.310   5.986   8.693  0.2729  0.7104 -0.1574
  946MOL0     C24802   9.158   5.997   8.670  0.1478  0.3433  0.5000
  946MOL0     C24803   9.096   5.866   8.653  0.7204  0.2604 -0.8072
  946MOL0     C24804   9.038   5.757   8.642  0.3288  0.5282 -0.9491
  946MOL0     C24805   9.770   6.208   8.850  0.4277  0.0376 -0.0528
  946MOL0     C24806   9.900   6.214   8.907 -0.0197  0.1114 -0.5417
  946MOL0     H24807  10.164   5.932   9.380 -1.0265  2.8774 -0.6400
  946MOL0     H24808  10.355   5.945   9.522 -1.4518 -2.1884  0.2196
  946MOL0     H24809  10.628   5.844   9.497 -1.5479 -0.2065  1.1819
  946MOL0     H24810  10.586   5.969   9.620  0.9025  0.5215  0.7519
  946MOL0     H24811  10.846   5.922   9.476 -2.9553 -1.8410  0.1304
  946MOL0     H24812  10.832   5.873   9.639  1.6152 -0.3958 -0.8930
  946MOL0     H24813  10.790   6.109   9.706  2.9166 -0.5860  1.5841
  946MOL0     H24814  10.809   6.157   9.536 -1.6348 -0.7240 -0.1981
  946MOL0     H24815  11.015   6.024   9.708 -2.6559  0.3677  0.8148
  946MOL0     H24816  11.039   6.048   9.533  1.2919  1.5880  1.1393
  946MOL0     H24817  11.020   6.264   9.733  1.0045  0.3641  0.0505
  946MOL0     H24818  11.014   6.282   9.566 -1.4569  2.7743  2.5431
  946MOL0     H24819  11.242   6.167   9.538 -1.7033 -2.8609  1.0654
  946MOL0     H24820  11.260   6.150   9.709 -1.4473  0.5613  0.3850
  946MOL0     H24821  11.210   6.413   9.724  0.2017 -2.8630  1.9687
  946MOL0     H24822  11.369   6.347   9.705  0.2059 -0.8322  0.8153
  946MOL0     H24823  11.178   6.423   9.468 -0.2847 -2.4314  1.1409
  946MOL0     H24824  11.348   6.377   9.457  0.3399 -2.7668  2.4787
  946MOL0     H24825  11.498   6.610   9.635 -0.5314 -1.5544  0.2922
  946MOL0     H24826  11.443   6.959   9.686  1.1418 -0.9562  0.8095
  946MOL0     H24827  11.479   6.963   9.518  0.4477 -0.3700  0.8919
  946MOL0     H24828  11.612   6.772   9.722 -1.3661 -1.4186 -1.5497
  946MOL0     H24829  11.677   6.933   9.683  3.1400 -1.8897  0.3282
  946MOL0     H24830  11.621   6.720   9.469 -2.3176  1.1335  0.2015
  946MOL0     H24831  11.708   6.877   9.456 -1.0688 -0.4812 -0.4165
  946MOL0     H24832  11.804   6.625   9.607  5.1675 -2.0319 -1.3946
  946MOL0     H24833  11.853   6.787   9.653 -0.1149  0.9967 -0.5294
  946MOL0     H24834  12.040   6.637   9.659 -0.7007 -0.7923 -0.3128
  946MOL0     H24835  12.271   6.580   9.648  2.6759 -1.5424 -3.1760
  946MOL0     H24836  12.635   6.463   9.278 -1.3701 -1.1003  4.9698
  946MOL0     H24837  12.868   6.389   9.283  0.8137  0.4047 -2.2176
  946MOL0     H24838  13.067   6.494   9.170  0.6049 -0.9102 -2.4418
  946MOL0     H24839  13.092   6.346   9.256  1.6101 -1.1783  1.3905
  946MOL0     H24840  13.322   6.547   9.216  2.7581 -1.7469 -2.0804
  946MOL0     H24841  13.304   6.381   9.170 -1.7153 -0.8115  1.4913
  946MOL0     H24842  13.303   6.464   9.463 -3.0299  0.9705 -2.4198
  946MOL0     H24843  13.453   6.425   9.367 -0.4614  1.2127  0.2657
  946MOL0     H24844  13.220   6.265   9.447 -0.4539 -0.8019 -1.0540
  946MOL0     H24845  13.336   6.203   9.320  1.6922 -0.1749  0.0374
  946MOL0     H24846  13.394   6.094   9.522 -1.3937  0.1524 -0.2094
  946MOL0     H24847  13.393   6.243   9.619 -0.6857  1.9410 -0.7869
  946MOL0     H24848  13.597   6.153   9.577 -1.2287  0.2339 -0.4759
  946MOL0     H24849  13.593   6.325   9.514  1.9646  0.2094  0.1194
  946MOL0     H24850  13.627   6.056   9.358  0.7083 -0.8435  1.5485
  946MOL0     H24851  13.578   6.216   9.287 -2.0245 -2.0104 -0.4965
  946MOL0     H24852  13.785   6.324   9.391 -1.3033 -0.3537  1.2475
  946MOL0     H24853  13.823   6.199   9.278 -1.2098  1.1653 -0.4909
  946MOL0     H24854  12.997   6.764   9.419 -1.4237  1.9499 -1.3899
  946MOL0     H24855  12.774   6.858   9.400  0.2927  0.7290  0.1454
  946MOL0     H24856  12.311   6.820   9.287 -1.4081 -0.7699 -1.0548
  946MOL0     H24857  12.064   6.844   9.288 -0.9175  0.7378 -0.0087
  946MOL0     H24858  10.582   6.116   9.202 -2.3716  2.0359 -1.7954
  946MOL0     H24859  10.372   6.127   9.054  0.9289  2.7639  0.3787
  946MOL0     H24860   9.855   5.969   9.127  1.7917  0.5010 -0.0011
  946MOL0     H24861   9.640   5.964   9.025  0.4507 -0.4080  0.6201
  946MOL0     H24862   9.577   6.066   8.633  1.5733  1.1992  0.7585
  946MOL0     H24863   9.542   6.235   8.673  1.3081 -1.0165 -0.5097
  946MOL0     H24864   9.335   6.196   8.747 -0.5528 -1.9708  0.9824
  946MOL0     H24865   9.346   6.152   8.569 -1.0154 -1.5427  0.5883
  946MOL0     H24866   9.315   5.955   8.798  0.7964  0.4937 -0.2412
  946MOL0     H24867   9.340   5.898   8.635  1.0567 -1.0775  2.7651
  946MOL0     H24868   9.105   6.033   8.759  0.8672  3.5468 -0.2467
  946MOL0     H24869   9.128   6.046   8.577  0.5045  0.1305  0.2705
  946MOL0     H24870   8.986   5.668   8.612 -2.0336  1.4000  0.3304
  946MOL0     H24871   9.745   6.284   8.778 -0.2455  0.2119  0.3569
  946MOL0     H24872   9.960   6.295   8.866 -1.3946  2.4037  1.6745
  947MOL0     O24873   8.515   2.435   0.448  0.1233 -0.1827 -0.2958
  947MOL0     C24874   8.600   2.364   0.495  0.3581 -0.3070 -0.3275
  947MOL0     O24875   8.586   2.286   0.611  1.1505  0.8468 -0.0564
  947MOL0     C24876   8.486   2.318   0.702 -0.1297  0.8961  0.7221
  947MOL0     C24877   8.516   2.403   0.807  0.0823  0.4369  0.5298
  947MOL0     C24878   8.419   2.423   0.899  0.9731 -0.7668  0.4540
  947MOL0     C24879   8.285   2.375   0.893 -0.0982 -0.1444  0.9274
  947MOL0     O24880   8.200   2.415   0.988 -0.3949  0.4491  0.4289
  947MOL0     C24881   8.063   2.380   0.985  0.1904  0.5577  0.0334
  947MOL0     C24882   7.989   2.457   1.097 -0.5561 -0.5305 -0.5791
  947MOL0     C24883   7.841   2.470   1.062  0.3600 -0.4724 -0.1239
  947MOL0     C24884   7.767   2.338   1.081  0.0395 -0.5357  0.2007
  947MOL0     C24885   7.618   2.351   1.047 -0.1343  0.3786  0.0915
  947MOL0     C24886   7.535   2.268   1.145 -0.4736  0.1617  0.1848
  947MOL0     C24887   7.382   2.302   1.123  0.0992 -0.0724 -0.6753
  947MOL0     C24888   7.304   2.235   1.244  0.6214 -0.4477  0.3078
  947MOL0     N24889   7.164   2.212   1.214  0.6949  0.1866  0.5182
  947MOL0     C24890   7.070   2.302   1.245 -0.2800 -0.5531 -0.2988
  947MOL0     C24891   6.960   2.255   1.177 -0.0833  0.3212 -0.2035
  947MOL0     C24892   6.819   2.308   1.179 -1.1107 -0.2486  0.9083
  947MOL0     C24893   6.729   2.245   1.282  0.0693  0.5361 -0.8823
  947MOL0     C24894   6.769   2.276   1.429 -0.5869  0.1740  0.2243
  947MOL0     C24895   6.663   2.222   1.527 -1.0870 -0.2881 -1.0448
  947MOL0     O24896   6.532   2.278   1.499  0.5646 -0.1074  0.5198
  947MOL0     C24897   6.429   2.209   1.562  0.6304  0.4175  0.7145
  947MOL0     C24898   6.437   2.133   1.682  0.5704  0.6475 -0.3544
  947MOL0     C24899   6.325   2.061   1.726 -0.5905  0.3457  0.7064
  947MOL0     C24900   6.199   2.074   1.669 -0.9232 -0.2589 -0.6470
  947MOL0     C24901   6.084   2.001   1.720  1.1709 -0.0331  0.3153
  947MOL0     O24902   6.097   1.943   1.842  0.2596 -0.2097 -0.0310
  947MOL0     C24903   5.999   1.876   1.903 -0.4622  0.0584 -0.2606
  947MOL0     C24904   5.887   1.944   1.940  0.1098  0.0494  0.5211
  947MOL0     C24905   5.780   1.875   1.999  0.3466  1.3756 -0.7237
  947MOL0     C24906   5.786   1.733   2.019  0.6564 -0.6780 -0.4505
  947MOL0     O24907   5.677   1.671   2.071 -0.2706  0.8438  0.3377
  947MOL0     C24908   5.656   1.538   2.018 -0.4822  0.2727 -1.6089
  947MOL0     C24909   5.512   1.483   2.065 -0.9754  0.3593  0.1081
  947MOL0     C24910   5.463   1.359   1.985 -0.8898 -0.5042  0.0372
  947MOL0     C24911   5.324   1.316   2.045 -0.4770 -0.2760  0.0959
  947MOL0     C24912   5.245   1.200   1.997 -0.8216 -0.3106  0.7240
  947MOL0     C24913   5.119   1.172   2.081  0.0544 -0.1674 -0.6924
  947MOL0     C24914   5.023   1.296   2.117 -1.1577  0.9830  0.7044
  947MOL0     C24915   4.895   1.279   2.208  0.4603  0.4899  0.7072
  947MOL0    Cl24916   4.800   1.432   2.194  0.0552 -0.3792 -0.1442
  947MOL0     C24917   5.905   1.672   1.979  0.2534  0.3983  0.1407
  947MOL0     C24918   6.014   1.739   1.922  1.2717 -0.0024 -0.1692
  947MOL0     O24919   5.987   1.972   1.640 -0.7844 -0.2555 -0.4199
  947MOL0     C24920   6.191   2.154   1.550 -0.1119  0.5714  0.1245
  947MOL0     C24921   6.304   2.219   1.501  0.5939 -0.2363 -0.1708
  947MOL0     N24922   6.991   2.135   1.110 -0.4805 -0.3941 -0.7752
  947MOL0     N24923   7.109   2.107   1.144 -0.0159  0.1085  0.0766
  947MOL0     C24924   8.261   2.282   0.793 -0.7699 -0.2750  0.0419
  947MOL0     C24925   8.358   2.249   0.699  0.4252  0.2739 -0.1103
  947MOL0     C24926   8.720   2.334   0.409 -0.0933  0.3337 -0.5413
  947MOL0     C24927   8.742   2.403   0.283  0.0330 -0.0903  0.4619
  947MOL0     C24928   8.854   2.377   0.207  0.1907 -0.1454  0.5789
  947MOL0     C24929   8.941   2.276   0.244 -0.1068 -0.0863 -0.6049
  947MOL0     O24930   9.038   2.237   0.148  0.4138  0.0450 -0.1182
  947MOL0     C24931   9.108   2.110   0.156  0.0723  0.0003  0.8859
  947MOL0     C24932   9.234   2.143   0.233 -0.2748 -0.4557 -0.8657
  947MOL0     C24933   9.360   2.059   0.206  0.5459 -1.1625 -0.0027
  947MOL0     C24934   9.345   1.904   0.233 -0.9991 -0.3192 -0.1602
  947MOL0     C24935   9.301   1.880   0.371  0.1721 -1.0073 -1.1418
  947MOL0     C24936   9.257   1.839   0.482 -0.4617 -0.5792  0.2340
  947MOL0     C24937   8.925   2.210   0.371  0.0519 -0.3914  0.0777
  947MOL0     C24938   8.819   2.246   0.451  0.8885  0.2945 -0.2918
  947MOL0     H24939   8.619   2.438   0.805 -0.6637  2.8589  0.6626
  947MOL0     H24940   8.448   2.477   0.989 -3.6129 -0.0176  1.7341
  947MOL0     H24941   8.059   2.271   0.993 -1.7741  0.0563 -4.6261
  947MOL0     H24942   8.016   2.402   0.888  1.1588 -0.9186 -0.8094
  947MOL0     H24943   8.041   2.553   1.098  2.5025 -1.9844 -2.4764
  947MOL0     H24944   8.015   2.422   1.198  1.0951 -0.6330 -1.0037
  947MOL0     H24945   7.820   2.503   0.960  0.7281  1.0083  0.2512
  947MOL0     H24946   7.795   2.541   1.132  0.0453 -0.0961 -0.7049
  947MOL0     H24947   7.813   2.257   1.024 -0.8330  0.1280 -1.5399
  947MOL0     H24948   7.781   2.304   1.184  0.6103  0.5484  0.4932
  947MOL0     H24949   7.609   2.317   0.943  3.1367 -0.3205 -0.0642
  947MOL0     H24950   7.589   2.456   1.058  2.2305  1.0089  0.7978
  947MOL0     H24951   7.565   2.294   1.247 -0.9447 -0.5671  0.5154
  947MOL0     H24952   7.555   2.163   1.125 -0.2957  0.6947 -3.0692
  947MOL0     H24953   7.373   2.411   1.115 -1.5869 -0.1600 -0.3090
  947MOL0     H24954   7.359   2.256   1.026 -1.4730  2.1013 -1.3917
  947MOL0     H24955   7.309   2.304   1.329  2.3523  0.9564 -0.8617
  947MOL0     H24956   7.352   2.139   1.264  0.6240 -0.6098 -0.4614
  947MOL0     H24957   7.081   2.389   1.309  0.7700  0.0534 -1.2737
  947MOL0     H24958   6.776   2.283   1.082 -0.7896  0.0958  0.6783
  947MOL0     H24959   6.820   2.417   1.180 -3.7774 -0.0136 -2.5883
  947MOL0     H24960   6.726   2.137   1.272 -1.4818  0.2372  1.7463
  947MOL0     H24961   6.626   2.279   1.269 -0.1848 -0.6361 -2.1475
  947MOL0     H24962   6.866   2.227   1.440  0.8278  2.2966 -1.6941
  947MOL0     H24963   6.785   2.384   1.438 -1.1562  0.1512  1.8307
  947MOL0     H24964   6.690   2.255   1.628 -1.7308 -0.4497 -0.8163
  947MOL0     H24965   6.673   2.113   1.518 -0.5566 -0.3005 -0.4196
  947MOL0     H24966   6.537   2.114   1.721 -0.7194 -2.2711  1.9631
  947MOL0     H24967   6.334   1.999   1.814  3.2484  0.9710  0.9233
  947MOL0     H24968   5.883   2.051   1.927  1.9486  0.1607  0.6702
  947MOL0     H24969   5.690   1.927   2.030  0.7198  0.7074  1.6578
  947MOL0     H24970   5.730   1.470   2.060 -1.1114  0.8841  0.6917
  947MOL0     H24971   5.666   1.539   1.909  0.6831  1.7005 -1.5207
  947MOL0     H24972   5.435   1.557   2.047 -0.5429  0.9112  0.4785
  947MOL0     H24973   5.504   1.447   2.168  1.7080 -0.5915  0.0817
  947MOL0     H24974   5.535   1.278   1.994 -1.0601 -0.3892  3.9660
  947MOL0     H24975   5.458   1.389   1.880 -3.6023  0.6563  0.4174
  947MOL0     H24976   5.342   1.300   2.152  0.6327  0.6813  0.0654
  947MOL0     H24977   5.257   1.402   2.050 -1.2104 -0.8300  0.0027
  947MOL0     H24978   5.302   1.107   1.992  4.2859  2.3662  2.0575
  947MOL0     H24979   5.218   1.229   1.895 -0.9838  4.6369  1.9104
  947MOL0     H24980   5.155   1.136   2.178 -0.1440  0.1759 -0.4887
  947MOL0     H24981   5.060   1.093   2.034  1.9684 -0.1637 -3.3210
  947MOL0     H24982   5.074   1.371   2.178  2.5418 -1.8627  1.4841
  947MOL0     H24983   4.998   1.352   2.026 -1.5347 -0.9225 -0.4072
  947MOL0     H24984   4.925   1.273   2.313  0.1962  2.4780  0.9440
  947MOL0     H24985   4.842   1.195   2.162  1.9996 -0.5798  0.7985
  947MOL0     H24986   5.911   1.566   1.999 -0.2628  0.5953  1.4503
  947MOL0     H24987   6.100   1.683   1.887  0.1879  0.1065 -3.3067
  947MOL0     H24988   6.098   2.183   1.501  1.9280 -0.1275 -4.6807
  947MOL0     H24989   6.292   2.282   1.413  1.1955 -1.2349 -1.0064
  947MOL0     H24990   8.163   2.234   0.795 -0.0933 -1.7236  0.9494
  947MOL0     H24991   8.337   2.167   0.632  1.2847 -2.7606  3.0379
  947MOL0     H24992   8.672   2.482   0.261  0.5027  0.4558  0.9019
  947MOL0     H24993   8.874   2.428   0.113  0.8594 -0.7723  0.3658
  947MOL0     H24994   9.146   2.082   0.057  1.8098 -0.7163  1.7171
  947MOL0     H24995   9.046   2.033   0.202  2.3656 -2.4237  0.1665
  947MOL0     H24996   9.260   2.248   0.220  0.0057 -0.3273  0.5549
  947MOL0     H24997   9.202   2.128   0.337 -2.1443 -0.1850 -1.3745
  947MOL0     H24998   9.440   2.100   0.270 -1.9793  1.0185  2.0031
  947MOL0     H24999   9.392   2.086   0.105 -2.0986  2.0853 -0.1232
  947MOL0     H25000   9.280   1.847   0.167 -0.1657  1.7493 -2.9356
  947MOL0     H25001   9.443   1.855   0.237 -0.0101  1.5790 -0.0706
  947MOL0     H25002   9.210   1.802   0.570 -1.1236 -0.9068 -0.2457
  947MOL0     H25003   9.002   2.141   0.402 -1.7787 -1.9192  1.4684
  947MOL0     H25004   8.808   2.199   0.548 -1.1028 -0.6555 -0.9302
  948MOL0     O25005   4.547   0.259   7.438 -0.1232  0.0248  0.2476
  948MOL0     C25006   4.501   0.146   7.458 -0.3383  0.0934 -0.0853
  948MOL0     O25007   4.569   0.042   7.505  0.7449 -0.3320  0.8778
  948MOL0     C25008   4.701   0.073   7.526 -0.4954 -0.0364 -0.0715
  948MOL0     C25009   4.801   0.039   7.433  0.2646 -1.0620  0.3002
  948MOL0     C25010   4.927   0.077   7.446  0.0894  0.3372  0.5550
  948MOL0     C25011   4.958   0.146   7.560  0.6456 -0.7573 -0.2157
  948MOL0     O25012   5.085   0.190   7.585 -0.1080 -0.1821 -0.1808
  948MOL0     C25013   5.193   0.205   7.487 -0.9024 -0.0335 -0.2511
  948MOL0     C25014   5.309   0.121   7.546 -0.6907  0.1361 -0.0194
  948MOL0     C25015   5.318  -0.023   7.490 -0.5757 -0.6797  0.5974
  948MOL0     C25016   5.463  -0.083   7.496  0.2972 -0.6918  0.0081
  948MOL0     C25017   5.478  -0.215   7.411  0.6791 -0.1065  0.2454
  948MOL0     C25018   5.620  -0.288   7.417  0.9579  0.2633 -0.5641
  948MOL0     C25019   5.633  -0.403   7.303  0.1993  1.6549  0.2008
  948MOL0     C25020   5.762  -0.490   7.327 -0.0488  0.0821 -0.4047
  948MOL0     N25021   5.779  -0.573   7.207 -0.3944  0.3095  0.1476
  948MOL0     C25022   5.704  -0.685   7.174  0.4708  0.6410  0.3400
  948MOL0     C25023   5.725  -0.715   7.042 -0.7512  0.7253 -1.0827
  948MOL0     C25024   5.678  -0.832   6.955  0.1331 -0.4260 -0.0992
  948MOL0     C25025   5.577  -0.791   6.853  0.5457 -0.6532  0.6647
  948MOL0     C25026   5.429  -0.765   6.911  0.1614  0.4515  0.4185
  948MOL0     C25027   5.349  -0.716   6.797 -0.4629  0.0467 -0.5402
  948MOL0     O25028   5.209  -0.690   6.818  0.5001 -0.0288  0.3036
  948MOL0     C25029   5.116  -0.798   6.824  0.2850  0.8129 -0.6595
  948MOL0     C25030   4.972  -0.769   6.832 -0.7513  0.3208  0.1419
  948MOL0     C25031   4.884  -0.873   6.816 -0.2160 -0.7327 -0.2063
  948MOL0     C25032   4.922  -1.009   6.813 -0.2016 -0.3639 -0.2456
  948MOL0     C25033   4.817  -1.116   6.788 -0.6598 -0.8060  0.7411
  948MOL0     O25034   4.687  -1.075   6.762 -0.0831 -0.1642 -0.3683
  948MOL0     C25035   4.583  -1.171   6.734  0.0598  0.2317  0.2140
  948MOL0     C25036   4.570  -1.298   6.795 -0.5045 -0.2482 -0.1460
  948MOL0     C25037   4.462  -1.375   6.764  0.3937 -0.1210  0.6257
  948MOL0     C25038   4.361  -1.348   6.679  0.3332 -1.0000  0.0930
  948MOL0     O25039   4.261  -1.430   6.653 -0.5117 -0.0775  0.1288
  948MOL0     C25040   4.168  -1.429   6.757 -0.6503  0.8443 -0.3153
  948MOL0     C25041   4.085  -1.555   6.730 -0.9165  0.3018  0.2355
  948MOL0     C25042   3.978  -1.567   6.831  0.3523  0.0329  0.3446
  948MOL0     C25043   3.887  -1.682   6.813 -0.0433  0.6182 -0.1585
  948MOL0     C25044   3.773  -1.680   6.918 -0.6341  0.7915 -0.0035
  948MOL0     C25045   3.684  -1.809   6.909 -0.4162 -0.1040 -1.1441
  948MOL0     C25046   3.569  -1.791   6.808  0.0184 -0.4603 -0.1627
  948MOL0     C25047   3.475  -1.908   6.784 -0.9880 -0.2980  0.8265
  948MOL0    Cl25048   3.399  -1.975   6.933  0.4114 -0.4254  0.3218
  948MOL0     C25049   4.366  -1.224   6.617 -0.2879 -1.1083 -0.3003
  948MOL0     C25050   4.472  -1.131   6.650 -0.1843  0.5635 -0.3527
  948MOL0     O25051   4.861  -1.231   6.777  0.3687 -0.4547 -0.3458
  948MOL0     C25052   5.058  -1.037   6.809 -0.7242  1.1418  0.1694
  948MOL0     C25053   5.157  -0.935   6.819  0.5904  0.1697 -0.4617
  948MOL0     N25054   5.807  -0.621   6.992 -0.1639  0.1286  0.0678
  948MOL0     N25055   5.830  -0.536   7.088 -0.7525 -0.7387  0.2346
  948MOL0     C25056   4.863   0.181   7.657  0.8136 -0.3432  0.7141
  948MOL0     C25057   4.733   0.139   7.647 -0.4769  0.1086 -0.2252
  948MOL0     C25058   4.359   0.125   7.452  0.1633 -0.2242  0.1774
  948MOL0     C25059   4.305  -0.005   7.449  1.0284 -0.0656 -0.0150
  948MOL0     C25060   4.169  -0.018   7.428  0.2774  0.1296  0.3332
  948MOL0     C25061   4.078   0.083   7.403  0.1648 -0.6851 -1.5323
  948MOL0     O25062   3.942   0.063   7.371  0.7613 -0.7107 -0.3983
  948MOL0     C25063   3.886  -0.066   7.374  0.1743  0.1498  0.1136
  948MOL0     C25064   3.729  -0.058   7.376  0.5926  0.0739  0.4634
  948MOL0     C25065   3.674  -0.197   7.408  0.4589  0.1769  0.2055
  948MOL0     C25066   3.528  -0.186   7.436 -0.1962  0.0076  0.0855
  948MOL0     C25067   3.476  -0.314   7.504 -1.1423 -0.2732  0.3464
  948MOL0     C25068   3.437  -0.399   7.577 -0.7409  0.1281  0.6610
  948MOL0     C25069   4.130   0.210   7.402  0.0379  0.2110  0.1993
  948MOL0     C25070   4.269   0.231   7.421  0.1831 -0.0606 -0.0130
  948MOL0     H25071   4.776   0.012   7.331 -0.1111  5.5709 -1.8327
  948MOL0     H25072   4.998   0.060   7.366 -1.1784 -2.7578 -0.0561
  948MOL0     H25073   5.226   0.309   7.494  0.7903 -0.5988  1.2696
  948MOL0     H25074   5.177   0.181   7.382  0.6465 -3.3641  0.1343
  948MOL0     H25075   5.304   0.108   7.655 -0.2264 -2.0135 -0.2076
  948MOL0     H25076   5.402   0.173   7.520 -0.3805  0.6253  1.9020
  948MOL0     H25077   5.284  -0.023   7.387 -0.4524 -1.5764  0.5470
  948MOL0     H25078   5.253  -0.082   7.555 -1.1578  0.8480  1.4675
  948MOL0     H25079   5.524  -0.007   7.445 -0.3868 -0.1464 -0.0076
  948MOL0     H25080   5.498  -0.096   7.599 -1.0138 -1.6686  0.3466
  948MOL0     H25081   5.462  -0.202   7.303  1.2396  2.7797  0.4396
  948MOL0     H25082   5.402  -0.287   7.439 -0.1040  1.2049  1.6053
  948MOL0     H25083   5.632  -0.329   7.518 -0.0415  1.4288  0.0628
  948MOL0     H25084   5.703  -0.219   7.401  2.8824 -2.1054 -1.4564
  948MOL0     H25085   5.550  -0.475   7.303  2.7053 -1.4819  0.9157
  948MOL0     H25086   5.628  -0.354   7.205 -0.3102 -2.4955 -2.1269
  948MOL0     H25087   5.744  -0.551   7.416  0.0407  0.8688  0.1643
  948MOL0     H25088   5.849  -0.431   7.357 -1.3492  1.0628  1.5948
  948MOL0     H25089   5.645  -0.744   7.243 -2.9678  0.7575 -2.2468
  948MOL0     H25090   5.630  -0.907   7.019 -1.6722 -0.6062 -1.5979
  948MOL0     H25091   5.768  -0.868   6.904 -1.7314 -3.8241 -1.3134
  948MOL0     H25092   5.576  -0.863   6.771 -1.5489 -1.2624  1.1658
  948MOL0     H25093   5.603  -0.688   6.824 -1.1275 -0.6409 -0.9733
  948MOL0     H25094   5.383  -0.862   6.934  0.0341  0.5055  0.3859
  948MOL0     H25095   5.438  -0.695   6.994 -1.7100  1.6607 -0.3404
  948MOL0     H25096   5.365  -0.791   6.719  1.4329 -0.2223  0.0722
  948MOL0     H25097   5.391  -0.618   6.773  0.9340 -0.9658 -2.4562
  948MOL0     H25098   4.936  -0.667   6.843 -1.1887  0.1487  0.3238
  948MOL0     H25099   4.779  -0.849   6.810 -0.4444 -1.3580  0.9214
  948MOL0     H25100   4.643  -1.341   6.863  0.2331 -2.1115 -2.0155
  948MOL0     H25101   4.447  -1.472   6.810 -0.0422  0.0706  0.8989
  948MOL0     H25102   4.105  -1.340   6.756  0.9081  1.9910 -0.7010
  948MOL0     H25103   4.218  -1.434   6.855  0.6714  3.6853 -0.7367
  948MOL0     H25104   4.146  -1.644   6.712  0.4408  0.8413  1.8682
  948MOL0     H25105   4.030  -1.543   6.637 -0.2088 -2.0955 -0.5618
  948MOL0     H25106   3.914  -1.479   6.823  1.4737  0.9287  0.9333
  948MOL0     H25107   4.015  -1.575   6.934 -1.7577  0.8230  1.2419
  948MOL0     H25108   3.851  -1.693   6.710 -0.0227  4.1028 -0.6578
  948MOL0     H25109   3.945  -1.773   6.828  0.8852  0.9088 -1.7182
  948MOL0     H25110   3.712  -1.594   6.889 -0.0218  0.8649 -1.1287
  948MOL0     H25111   3.818  -1.665   7.016  2.1247  3.8492 -1.5303
  948MOL0     H25112   3.646  -1.836   7.008  0.6086  1.0851 -0.3876
  948MOL0     H25113   3.740  -1.899   6.885 -2.0682 -1.4928 -0.0277
  948MOL0     H25114   3.516  -1.699   6.831  0.1767 -0.5817  0.7205
  948MOL0     H25115   3.620  -1.777   6.712  0.0901  1.4937  0.1342
  948MOL0     H25116   3.519  -1.993   6.732  2.2859  2.1739 -0.8385
  948MOL0     H25117   3.400  -1.876   6.711  0.4145 -2.4269 -1.7161
  948MOL0     H25118   4.276  -1.205   6.560 -2.4672 -3.3410  2.1798
  948MOL0     H25119   4.459  -1.035   6.602 -0.8977  0.5399 -0.2295
  948MOL0     H25120   5.092  -1.140   6.798  0.1470  1.5711 -1.3779
  948MOL0     H25121   5.259  -0.961   6.794  0.7822  1.9116 -1.6104
  948MOL0     H25122   4.903   0.245   7.734 -1.2685  2.0114 -0.0264
  948MOL0     H25123   4.666   0.174   7.724  2.8255 -1.5341  3.8112
  948MOL0     H25124   4.367  -0.093   7.465  0.3769 -0.5421 -0.0758
  948MOL0     H25125   4.129  -0.117   7.448 -0.4250  0.3291 -0.0476
  948MOL0     H25126   3.920  -0.131   7.455 -1.0180 -0.3334  0.2480
  948MOL0     H25127   3.920  -0.119   7.285 -2.2308  0.3120 -0.9919
  948MOL0     H25128   3.692   0.005   7.458 -2.4439  0.4349 -1.0586
  948MOL0     H25129   3.694  -0.001   7.290 -1.2451  0.8504  1.6764
  948MOL0     H25130   3.730  -0.249   7.487 -0.9221 -1.2877  0.2771
  948MOL0     H25131   3.682  -0.262   7.320 -2.3536  2.0233 -1.5658
  948MOL0     H25132   3.511  -0.102   7.503 -1.2736 -1.1475  1.3172
  948MOL0     H25133   3.478  -0.155   7.343  2.1000  1.3289 -0.7992
  948MOL0     H25134   3.421  -0.493   7.627  2.3755  0.3047  2.2365
  948MOL0     H25135   4.062   0.290   7.378  0.3843  0.1506 -1.0418
  948MOL0     H25136   4.306   0.330   7.400  2.8383 -0.9768  0.0142
  949MOL0     O25137   1.602   8.094   4.414 -0.1957 -0.0560  0.3361
  949MOL0     C25138   1.583   8.077   4.290  0.9213 -1.0339 -0.9344
  949MOL0     O25139   1.460   8.043   4.233  0.4761 -0.1279 -0.0660
  949MOL0     C25140   1.340   8.054   4.298  0.0055  0.2865  0.4458
  949MOL0     C25141   1.233   7.996   4.239  0.1277  0.1117 -0.4265
  949MOL0     C25142   1.109   8.011   4.293 -0.0027  0.3288  0.3331
  949MOL0     C25143   1.090   8.089   4.400  0.0280 -0.6379  0.7909
  949MOL0     O25144   0.962   8.113   4.443  0.2863  0.0395  0.1745
  949MOL0     C25145   0.932   8.141   4.582 -0.1967 -0.3097  0.3722
  949MOL0     C25146   0.787   8.112   4.618 -0.4074  0.0307 -0.9022
  949MOL0     C25147   0.689   8.209   4.558  0.4483 -0.7722 -0.0103
  949MOL0     C25148   0.549   8.172   4.603  0.2605 -0.3436  0.0672
  949MOL0     C25149   0.438   8.275   4.545 -0.0924 -0.6568 -0.9946
  949MOL0     C25150   0.308   8.205   4.541  0.5956  0.5695 -0.0940
  949MOL0     C25151   0.192   8.296   4.508  0.6083 -0.5988  0.3578
  949MOL0     C25152   0.062   8.222   4.492  0.3246 -0.2321  0.3103
  949MOL0     N25153  -0.047   8.322   4.487 -0.5315 -0.0794  0.7353
  949MOL0     C25154  -0.116   8.363   4.591  1.0018  0.6321  0.0011
  949MOL0     C25155  -0.214   8.432   4.546 -0.5318  0.5096  0.1268
  949MOL0     C25156  -0.321   8.478   4.633  0.6897  0.1814 -0.7546
  949MOL0     C25157  -0.388   8.360   4.717 -0.8354 -0.2361 -0.1307
  949MOL0     C25158  -0.530   8.378   4.743  0.3094 -0.3861 -0.1955
  949MOL0     C25159  -0.621   8.369   4.616  0.0755  0.2365  0.0163
  949MOL0     O25160  -0.748   8.353   4.674  0.5650  0.0291  0.1047
  949MOL0     C25161  -0.833   8.450   4.720 -0.3879 -0.0346 -0.8777
  949MOL0     C25162  -0.810   8.584   4.699 -0.0093 -0.7121 -0.6336
  949MOL0     C25163  -0.899   8.684   4.752 -0.2077 -0.1952 -0.0190
  949MOL0     C25164  -1.013   8.643   4.816 -0.5805  0.2010  0.3815
  949MOL0     C25165  -1.116   8.738   4.851  0.0864 -0.0325  0.0013
  949MOL0     O25166  -1.227   8.677   4.906 -0.3083  0.0673  0.0883
  949MOL0     C25167  -1.332   8.754   4.956  0.4021  0.0288 -0.3565
  949MOL0     C25168  -1.324   8.886   5.007 -0.1772  0.1442  0.5126
  949MOL0     C25169  -1.437   8.952   5.048 -0.2314  0.3426 -0.3618
  949MOL0     C25170  -1.559   8.898   5.043 -0.6669  0.0418 -0.2149
  949MOL0     O25171  -1.674   8.958   5.078 -0.4620  0.3954  0.6670
  949MOL0     C25172  -1.660   9.100   5.080 -0.6005  0.2319 -0.2945
  949MOL0     C25173  -1.798   9.152   5.114 -0.1684 -0.3661 -0.0987
  949MOL0     C25174  -1.841   9.159   5.258  0.5740  0.1046 -0.7613
  949MOL0     C25175  -1.988   9.219   5.277  0.3772 -0.7088  0.1412
  949MOL0     C25176  -2.023   9.270   5.419  0.7929  0.2218  0.3046
  949MOL0     C25177  -2.148   9.367   5.414  0.0811  0.5267 -0.4806
  949MOL0     C25178  -2.163   9.440   5.551 -0.3276  0.1517 -0.2879
  949MOL0     C25179  -2.227   9.353   5.654  0.8677  0.1475 -0.3338
  949MOL0    Cl25180  -2.389   9.286   5.602  0.7208  0.8963  0.1073
  949MOL0     C25181  -1.573   8.766   5.004  0.0267  0.2346 -0.0257
  949MOL0     C25182  -1.460   8.694   4.948 -0.4635 -0.9646  0.0493
  949MOL0     O25183  -1.094   8.859   4.830  0.0042  0.1665 -0.2205
  949MOL0     C25184  -1.038   8.507   4.832  0.2625 -0.7019  0.5157
  949MOL0     C25185  -0.951   8.416   4.793 -1.6765 -1.5310  1.6763
  949MOL0     N25186  -0.198   8.434   4.403 -0.3687 -0.8530  0.1649
  949MOL0     N25187  -0.099   8.366   4.368 -0.3932 -0.4339  0.6355
  949MOL0     C25188   1.190   8.153   4.464 -0.0777  0.3645 -0.0442
  949MOL0     C25189   1.317   8.136   4.408 -0.3468 -0.4523 -0.9149
  949MOL0     C25190   1.699   8.101   4.196 -0.2387 -0.6403  0.2271
  949MOL0     C25191   1.680   8.121   4.052  0.3363  0.3808  0.2568
  949MOL0     C25192   1.790   8.159   3.974 -0.4603  0.4159  0.3289
  949MOL0     C25193   1.923   8.163   4.031  0.3401 -0.6111 -0.0809
  949MOL0     O25194   2.018   8.211   3.945  0.0084 -0.2834 -0.4215
  949MOL0     C25195   2.151   8.247   3.993  0.3224 -0.2635 -1.1360
  949MOL0     C25196   2.240   8.297   3.871 -0.0505 -0.0611 -1.2582
  949MOL0     C25197   2.381   8.348   3.894  0.2664  0.0284 -0.4706
  949MOL0     C25198   2.462   8.231   3.953  0.0360  0.8880 -0.1002
  949MOL0     C25199   2.609   8.243   3.951  0.0905  0.2567 -1.2424
  949MOL0     C25200   2.728   8.248   3.963 -0.5089  0.2668  0.3523
  949MOL0     C25201   1.942   8.136   4.168  0.2446 -0.4855 -1.1636
  949MOL0     C25202   1.833   8.099   4.251  0.9167 -0.3155  0.0797
  949MOL0     H25203   1.241   7.937   4.148  1.1653  0.0152 -0.2913
  949MOL0     H25204   1.029   7.955   4.247  0.5393 -0.3114  0.1592
  949MOL0     H25205   0.950   8.246   4.610 -2.1670 -0.4095  2.2695
  949MOL0     H25206   0.999   8.084   4.647  2.1574  0.3232 -1.3624
  949MOL0     H25207   0.779   8.121   4.726 -1.4937 -0.0445 -0.9653
  949MOL0     H25208   0.764   8.014   4.576  0.1407 -0.1819 -0.7201
  949MOL0     H25209   0.700   8.203   4.449  0.0901 -2.0611  0.0139
  949MOL0     H25210   0.713   8.314   4.579 -1.2621  0.2708 -2.7089
  949MOL0     H25211   0.522   8.068   4.581 -0.6319 -0.6621  2.3719
  949MOL0     H25212   0.525   8.175   4.710  0.2796 -0.8943  0.0903
  949MOL0     H25213   0.461   8.318   4.447  1.0807  3.4730  0.8406
  949MOL0     H25214   0.432   8.363   4.610  3.8137  1.0689 -2.6696
  949MOL0     H25215   0.277   8.180   4.643  4.8078  2.9549  2.0312
  949MOL0     H25216   0.306   8.116   4.477 -2.1847  0.0694  0.5445
  949MOL0     H25217   0.187   8.379   4.579  0.8473 -0.7277  0.5275
  949MOL0     H25218   0.213   8.345   4.412  1.5834 -1.8397 -0.0921
  949MOL0     H25219   0.051   8.155   4.577  1.0831  1.9770  2.2803
  949MOL0     H25220   0.071   8.165   4.399 -0.1516 -0.7809  0.5960
  949MOL0     H25221  -0.089   8.338   4.693 -0.6170 -1.1444  0.0541
  949MOL0     H25222  -0.404   8.527   4.581  0.1606  1.0127  0.7983
  949MOL0     H25223  -0.272   8.554   4.695  0.5680  0.5423 -1.0936
  949MOL0     H25224  -0.330   8.354   4.810  4.0417  3.1195 -2.5400
  949MOL0     H25225  -0.368   8.263   4.671 -0.1374 -0.6187  0.9346
  949MOL0     H25226  -0.568   8.302   4.812 -3.2097  0.3665 -1.1375
  949MOL0     H25227  -0.547   8.475   4.791  2.6241 -0.1548  0.3137
  949MOL0     H25228  -0.590   8.280   4.560 -0.2644  1.4244 -2.1675
  949MOL0     H25229  -0.611   8.454   4.548 -2.1171 -0.9753 -1.9465
  949MOL0     H25230  -0.723   8.630   4.653 -0.2916 -1.2638 -1.7638
  949MOL0     H25231  -0.881   8.790   4.732  0.9082 -0.2340  0.7370
  949MOL0     H25232  -1.224   8.923   5.030  1.1041 -3.6658  1.8896
  949MOL0     H25233  -1.411   9.052   5.081 -1.7104  1.1516 -1.4960
  949MOL0     H25234  -1.614   9.138   4.988  2.2612  0.9047  1.2707
  949MOL0     H25235  -1.597   9.143   5.158  0.7250  1.4205 -1.9313
  949MOL0     H25236  -1.872   9.100   5.051 -1.9532  0.1548  1.4769
  949MOL0     H25237  -1.793   9.253   5.072 -1.6454 -0.4658 -0.5835
  949MOL0     H25238  -1.771   9.221   5.314  0.6192  0.0645 -0.7744
  949MOL0     H25239  -1.848   9.060   5.303  0.9517 -0.0782 -1.0975
  949MOL0     H25240  -1.990   9.306   5.210 -1.5016 -2.2222 -1.8868
  949MOL0     H25241  -2.065   9.147   5.250 -0.1235 -0.6880  1.4697
  949MOL0     H25242  -1.944   9.328   5.469  1.9601 -2.4956  1.8152
  949MOL0     H25243  -2.048   9.185   5.484 -0.3490 -2.8348 -3.7661
  949MOL0     H25244  -2.238   9.308   5.393  1.5178 -1.0542 -2.5647
  949MOL0     H25245  -2.132   9.441   5.336 -1.2725  0.8839 -0.4522
  949MOL0     H25246  -2.068   9.480   5.585 -1.1114  2.1651 -0.3285
  949MOL0     H25247  -2.227   9.526   5.526  2.1879  2.4594  0.7276
  949MOL0     H25248  -2.254   9.418   5.738 -1.5055 -0.0214 -0.8724
  949MOL0     H25249  -2.157   9.274   5.682 -0.2585  0.2152  3.0811
  949MOL0     H25250  -1.669   8.715   5.006 -0.5597  1.3306  1.3585
  949MOL0     H25251  -1.465   8.591   4.915 -0.0014 -1.8039  2.3463
  949MOL0     H25252  -1.117   8.473   4.898  0.3685 -2.3060 -0.1413
  949MOL0     H25253  -0.970   8.309   4.806 -1.7437 -1.5918  1.1099
  949MOL0     H25254   1.180   8.217   4.551 -1.0464 -0.1253  0.2180
  949MOL0     H25255   1.401   8.190   4.450 -3.2401  2.5625  1.4914
  949MOL0     H25256   1.577   8.114   4.018  0.8687 -2.2472 -1.0940
  949MOL0     H25257   1.777   8.187   3.870  0.5280  0.6935  0.2733
  949MOL0     H25258   2.196   8.163   4.047 -1.9775  0.3152  1.9785
  949MOL0     H25259   2.143   8.328   4.066 -0.0216  1.4402 -2.9866
  949MOL0     H25260   2.242   8.218   3.795  2.0547 -1.4949  0.1699
  949MOL0     H25261   2.188   8.386   3.835 -2.4301 -0.4288  1.0086
  949MOL0     H25262   2.396   8.437   3.955 -1.4126  1.5517 -2.1545
  949MOL0     H25263   2.415   8.374   3.793  0.3521  3.8104  0.3965
  949MOL0     H25264   2.421   8.215   4.053 -1.5807  0.5438 -0.7946
  949MOL0     H25265   2.431   8.140   3.901 -2.3454  1.6302 -0.0790
  949MOL0     H25266   2.833   8.264   3.980  0.2567 -2.0870 -1.5846
  949MOL0     H25267   2.035   8.146   4.223  0.1647 -2.0817 -0.6833
  949MOL0     H25268   1.848   8.079   4.356  0.6209  1.9827  0.6002
  950MOL0     O25269   6.789  11.040   4.016  0.8131  0.0841 -1.1921
  950MOL0     C25270   6.876  10.975   4.079  0.4475 -0.2813  0.5106
  950MOL0     O25271   6.887  10.840   4.098  0.0725 -0.6055  0.3390
  950MOL0     C25272   6.795  10.762   4.037 -0.5298  0.3950  1.2510
  950MOL0     C25273   6.672  10.754   4.085  0.3293 -0.3670  0.0250
  950MOL0     C25274   6.592  10.659   4.029  0.6580  0.2268 -1.0089
  950MOL0     C25275   6.619  10.584   3.908 -0.5658 -0.5045 -0.4532
  950MOL0     O25276   6.537  10.491   3.844  0.5161 -0.2592  0.1746
  950MOL0     C25277   6.398  10.485   3.882 -0.3390 -0.2189 -0.5194
  950MOL0     C25278   6.312  10.395   3.793  0.1210 -0.5123 -0.6193
  950MOL0     C25279   6.161  10.395   3.852 -0.5918  0.0133 -0.3393
  950MOL0     C25280   6.075  10.315   3.741 -0.6395 -0.3762 -0.7086
  950MOL0     C25281   5.918  10.323   3.781 -1.4811  0.1929 -0.1920
  950MOL0     C25282   5.888  10.240   3.908  0.5771  0.2017  0.2282
  950MOL0     C25283   5.902  10.088   3.882 -0.1830  0.5995  0.2678
  950MOL0     C25284   5.861  10.019   4.016 -0.0158 -0.8639  0.1277
  950MOL0     N25285   5.727  10.049   4.059  0.6308 -0.6240 -0.2403
  950MOL0     C25286   5.700  10.134   4.170 -0.2570  0.2785  1.8749
  950MOL0     C25287   5.596  10.080   4.235  0.1650  0.5186 -0.0618
  950MOL0     C25288   5.551  10.122   4.371  0.3612  0.4748 -0.3904
  950MOL0     C25289   5.464  10.015   4.436  0.1052 -0.2738 -0.5806
  950MOL0     C25290   5.549   9.892   4.497  0.1079 -0.0609  0.2766
  950MOL0     C25291   5.496   9.762   4.446 -0.1950 -0.4424 -0.2830
  950MOL0     O25292   5.370   9.744   4.515  0.1296 -0.6594  0.0255
  950MOL0     C25293   5.251   9.712   4.449  0.4348 -0.7625 -0.8797
  950MOL0     C25294   5.224   9.734   4.312 -0.0860  0.3020  0.0810
  950MOL0     C25295   5.104   9.695   4.260 -0.5324 -0.0699  0.2886
  950MOL0     C25296   5.000   9.656   4.343  0.6274  0.0740 -0.0817
  950MOL0     C25297   4.865   9.638   4.286 -0.4840 -0.9581 -1.1434
  950MOL0     O25298   4.824   9.726   4.190  0.2532 -0.1755  0.3863
  950MOL0     C25299   4.699   9.731   4.131 -0.2744  0.2999 -0.5356
  950MOL0     C25300   4.599   9.634   4.127 -0.1329 -0.2110 -0.1448
  950MOL0     C25301   4.479   9.652   4.057 -0.2410  0.7184  0.4754
  950MOL0     C25302   4.451   9.772   3.985 -0.5209  0.4551  0.0492
  950MOL0     O25303   4.333   9.790   3.934  0.7982 -0.1099  0.5581
  950MOL0     C25304   4.291   9.919   3.903  0.2352  0.1600  1.5399
  950MOL0     C25305   4.145   9.907   3.854 -0.4359  0.3266 -0.6869
  950MOL0     C25306   4.050   9.842   3.962  0.3680  0.4820 -0.3261
  950MOL0     C25307   3.903   9.879   3.932 -0.8851  0.7767 -0.6914
  950MOL0     C25308   3.814   9.892   4.056 -0.7391  0.0558 -0.2314
  950MOL0     C25309   3.680   9.955   4.024  0.3960 -0.1413  0.3377
  950MOL0     C25310   3.586   9.936   4.136  0.5119  0.0132 -0.7894
  950MOL0     C25311   3.509   9.810   4.127 -0.2133 -0.5459 -0.1136
  950MOL0    Cl25312   3.386   9.800   3.998  0.5024  0.2438 -0.3899
  950MOL0     C25313   4.552   9.868   3.987 -1.2718  0.1926  1.1870
  950MOL0     C25314   4.668   9.846   4.060 -0.1532  0.2688  0.3149
  950MOL0     O25315   4.788   9.557   4.336  0.1958  0.1337 -0.3255
  950MOL0     C25316   5.022   9.633   4.478 -0.3215 -0.0647  0.8936
  950MOL0     C25317   5.148   9.662   4.529 -0.0484  0.0953  0.9464
  950MOL0     N25318   5.547   9.985   4.147  0.0475 -0.2974  0.4623
  950MOL0     N25319   5.627   9.958   4.056 -0.0307 -0.0660  0.2797
  950MOL0     C25320   6.741  10.612   3.850 -0.6514 -0.2644 -0.3075
  950MOL0     C25321   6.829  10.687   3.920 -0.9565  0.3364 -0.2592
  950MOL0     C25322   6.983  11.059   4.135  0.1679  0.4299  0.2340
  950MOL0     C25323   7.095  11.002   4.201 -0.0302  0.1692  0.8054
  950MOL0     C25324   7.196  11.076   4.256  0.0500  1.0620  0.5959
  950MOL0     C25325   7.203  11.205   4.229  0.1057 -0.1324  0.5212
  950MOL0     O25326   7.304  11.278   4.273  0.1137 -0.1963 -0.3058
  950MOL0     C25327   7.366  11.354   4.164 -0.0237  0.1718 -0.1218
  950MOL0     C25328   7.518  11.357   4.190  0.2819 -0.5898  0.4175
  950MOL0     C25329   7.586  11.418   4.068 -0.2037  0.3886  0.0533
  950MOL0     C25330   7.741  11.407   4.081  0.3141  0.0792  0.4932
  950MOL0     C25331   7.813  11.461   3.973 -0.7433  0.4344 -0.3390
  950MOL0     C25332   7.869  11.513   3.879 -0.3227 -0.0352  0.2677
  950MOL0     C25333   7.091  11.265   4.170  0.3275  0.0658 -0.1654
  950MOL0     C25334   6.978  11.194   4.124 -0.2723  1.1875 -0.7557
  950MOL0     H25335   6.629  10.823   4.157 -2.8602 -0.5141 -1.5470
  950MOL0     H25336   6.500  10.639   4.083  2.6546 -0.0033  2.6055
  950MOL0     H25337   6.353  10.585   3.885  1.0725  0.4099  0.4120
  950MOL0     H25338   6.389  10.440   3.981 -0.7108  0.4853 -0.2305
  950MOL0     H25339   6.349  10.292   3.785 -0.4020 -0.6171 -1.8651
  950MOL0     H25340   6.307  10.440   3.693 -2.1896  0.6582 -0.0554
  950MOL0     H25341   6.122  10.495   3.868 -1.5254 -0.6159  1.5798
  950MOL0     H25342   6.172  10.355   3.953 -1.1480  0.4303 -0.1167
  950MOL0     H25343   6.086  10.364   3.644 -0.0974 -0.9741 -0.9585
  950MOL0     H25344   6.109  10.211   3.736  0.4669 -0.0227 -0.7866
  950MOL0     H25345   5.856  10.287   3.699 -2.1013 -0.2280  0.4572
  950MOL0     H25346   5.899  10.429   3.804 -0.7376  0.0702  1.0982
  950MOL0     H25347   5.789  10.259   3.950  0.7210  2.1148 -0.2272
  950MOL0     H25348   5.964  10.266   3.982  0.0557  1.2863  0.3913
  950MOL0     H25349   5.837  10.051   3.802  1.2397  1.1572 -1.1983
  950MOL0     H25350   6.001  10.054   3.850 -0.7460 -0.3288 -0.5411
  950MOL0     H25351   5.931  10.049   4.095 -0.0465 -0.6018  0.0559
  950MOL0     H25352   5.861   9.911   4.002 -0.5172 -1.0223  1.2350
  950MOL0     H25353   5.769  10.211   4.204  1.3724 -1.1065  1.8069
  950MOL0     H25354   5.491  10.214   4.375 -0.7939 -0.1932  5.2181
  950MOL0     H25355   5.639  10.136   4.434 -0.2784 -5.0375  2.3371
  950MOL0     H25356   5.390   9.983   4.361  0.5622 -2.0136 -0.3335
  950MOL0     H25357   5.409  10.066   4.516 -0.7390  1.6893 -2.3326
  950MOL0     H25358   5.654   9.903   4.469  0.2418 -1.5425  0.1456
  950MOL0     H25359   5.547   9.882   4.606  0.6268 -0.3670  0.2619
  950MOL0     H25360   5.567   9.683   4.472  0.6191  0.7592  1.3315
  950MOL0     H25361   5.488   9.772   4.337 -1.0086 -1.2903 -0.3084
  950MOL0     H25362   5.306   9.782   4.259 -1.3110  1.0361 -1.2258
  950MOL0     H25363   5.093   9.700   4.153  2.4462 -0.0855 -0.0835
  950MOL0     H25364   4.613   9.535   4.169 -3.3465  1.0839  4.7089
  950MOL0     H25365   4.402   9.576   4.059  0.6809 -0.2646 -0.3153
  950MOL0     H25366   4.355   9.951   3.820  1.2414 -2.0590  1.3754
  950MOL0     H25367   4.307   9.991   3.983 -2.9113  0.0591  2.3810
  950MOL0     H25368   4.146   9.854   3.758  2.7652 -1.1315  0.0400
  950MOL0     H25369   4.119  10.012   3.842 -1.0535  0.3426  0.6380
  950MOL0     H25370   4.088   9.874   4.060 -0.8446  0.8099  0.0568
  950MOL0     H25371   4.068   9.735   3.953  3.4096  0.8505  0.3054
  950MOL0     H25372   3.897   9.979   3.887 -2.2581  1.0577  0.0489
  950MOL0     H25373   3.848   9.814   3.862 -2.2628  1.3195 -0.1549
  950MOL0     H25374   3.859   9.941   4.143 -2.0419 -1.3240  1.2653
  950MOL0     H25375   3.796   9.789   4.088 -0.9510 -0.3141 -1.4942
  950MOL0     H25376   3.644   9.920   3.927  2.7512 -0.3894 -0.5322
  950MOL0     H25377   3.684  10.064   4.020 -0.2661 -0.1274 -0.0860
  950MOL0     H25378   3.647   9.941   4.227 -1.1161  1.8672  0.2894
  950MOL0     H25379   3.526  10.027   4.126  0.4664 -0.0178 -0.7985
  950MOL0     H25380   3.456   9.820   4.222  5.8995 -0.3313  3.8546
  950MOL0     H25381   3.579   9.726   4.127  0.0311 -0.3463 -0.4305
  950MOL0     H25382   4.543   9.962   3.933  0.8121  0.7302  1.6474
  950MOL0     H25383   4.735   9.931   4.045 -4.2386  3.3756 -2.5344
  950MOL0     H25384   4.944   9.605   4.547 -3.3404 -1.1360 -2.6334
  950MOL0     H25385   5.170   9.654   4.635  3.1077 -0.8361  0.3158
  950MOL0     H25386   6.772  10.568   3.756  0.5026  2.0302 -1.0686
  950MOL0     H25387   6.926  10.701   3.873  0.6337  3.9637  3.4105
  950MOL0     H25388   7.105  10.894   4.215 -1.4184  0.1052  1.4619
  950MOL0     H25389   7.269  11.023   4.316  0.2824  0.2673 -0.3545
  950MOL0     H25390   7.330  11.457   4.176  0.0349  0.1729  0.0438
  950MOL0     H25391   7.334  11.312   4.068  1.6070  0.6161 -0.8902
  950MOL0     H25392   7.541  11.404   4.286 -0.1210 -1.5758  1.0058
  950MOL0     H25393   7.550  11.252   4.193  2.8217 -0.0193 -2.0995
  950MOL0     H25394   7.558  11.523   4.057 -2.0991 -0.2824 -2.4044
  950MOL0     H25395   7.559  11.365   3.976  1.7020 -2.5679  1.0326
  950MOL0     H25396   7.770  11.457   4.174  0.1767  1.1651 -0.0315
  950MOL0     H25397   7.755  11.300   4.097  0.6110  0.1376  0.6224
  950MOL0     H25398   7.923  11.553   3.796 -1.0694 -0.6472 -0.5289
  950MOL0     H25399   7.099  11.373   4.161  1.2805  0.3013  2.6167
  950MOL0     H25400   6.900  11.241   4.065 -2.2302 -0.8094  0.1172
  951MOL0     O25401   5.262   4.344   8.130 -0.5032 -0.2447 -0.1509
  951MOL0     C25402   5.253   4.297   8.016 -0.2122  0.1276 -0.3603
  951MOL0     O25403   5.136   4.238   7.963 -1.0138 -0.5424 -0.1776
  951MOL0     C25404   5.023   4.247   8.044  0.2915  0.4405 -0.1657
  951MOL0     C25405   5.015   4.203   8.177 -0.5257 -0.5068  0.8176
  951MOL0     C25406   4.898   4.207   8.248  0.7545 -0.3246 -0.3744
  951MOL0     C25407   4.780   4.255   8.201  0.2190 -0.6537 -0.2512
  951MOL0     O25408   4.669   4.262   8.285 -0.2394 -0.0089 -0.0079
  951MOL0     C25409   4.552   4.298   8.210  0.5306  0.8858 -0.8409
  951MOL0     C25410   4.425   4.296   8.293 -0.3107 -0.3020  0.1071
  951MOL0     C25411   4.407   4.431   8.365  0.5703  0.4894 -0.1560
  951MOL0     C25412   4.259   4.423   8.410 -0.2117  0.7173  0.8512
  951MOL0     C25413   4.234   4.556   8.486 -0.1546 -0.0851  0.4983
  951MOL0     C25414   4.083   4.584   8.508 -0.3957  0.0197 -1.0607
  951MOL0     C25415   4.057   4.732   8.560 -0.2398  0.4813  0.9154
  951MOL0     C25416   3.917   4.755   8.636  0.4911 -0.8016 -0.5702
  951MOL0     N25417   3.812   4.751   8.534  0.0025 -0.6271  0.6060
  951MOL0     C25418   3.681   4.717   8.555  0.2988  1.0112  0.2628
  951MOL0     C25419   3.613   4.770   8.442  0.3303 -0.5565  0.0233
  951MOL0     C25420   3.467   4.783   8.419  0.2166 -0.1544  0.4581
  951MOL0     C25421   3.412   4.891   8.516  0.4849  0.3351 -0.0800
  951MOL0     C25422   3.267   4.887   8.546  0.5400  0.3187  0.3996
  951MOL0     C25423   3.179   4.864   8.428  0.5825  0.0674  0.4767
  951MOL0     O25424   3.042   4.907   8.460 -0.0964  0.0999  0.0504
  951MOL0     C25425   2.958   4.818   8.533 -0.9250  0.2966 -0.2730
  951MOL0     C25426   2.998   4.689   8.576 -0.7534  0.1634 -0.4551
  951MOL0     C25427   2.906   4.623   8.663  0.1717  0.4081  0.3712
  951MOL0     C25428   2.798   4.682   8.722  0.1818 -1.6466  0.1451
  951MOL0     C25429   2.702   4.623   8.814  0.8652 -0.8522 -0.3215
  951MOL0     O25430   2.747   4.500   8.856  0.3321  0.1198  0.0912
  951MOL0     C25431   2.662   4.427   8.933 -0.3170 -0.2698  0.2786
  951MOL0     C25432   2.695   4.404   9.070  0.0538  0.5207  0.3599
  951MOL0     C25433   2.609   4.328   9.141  0.1278  0.3510 -0.5819
  951MOL0     C25434   2.502   4.262   9.082 -0.1251 -0.6183 -0.4650
  951MOL0     O25435   2.418   4.184   9.161 -0.0280 -0.2426  1.0924
  951MOL0     C25436   2.434   4.195   9.305  0.1315  0.4662  0.2853
  951MOL0     C25437   2.344   4.094   9.374 -0.3273  0.4380  0.3383
  951MOL0     C25438   2.198   4.152   9.387  0.2643 -0.4470  0.8466
  951MOL0     C25439   2.105   4.039   9.445 -0.0583 -0.9598 -0.2649
  951MOL0     C25440   2.060   3.933   9.339  0.4765  0.2823  0.3159
  951MOL0     C25441   1.969   3.978   9.224  0.4617  0.3661  0.1986
  951MOL0     C25442   2.031   4.036   9.097 -0.5184  0.1248  0.8147
  951MOL0     C25443   1.923   4.058   8.988  0.6804 -0.0114  0.2006
  951MOL0    Cl25444   1.821   4.193   9.029 -0.0448 -0.0943  0.1168
  951MOL0     C25445   2.486   4.273   8.942 -0.2478  0.9873  0.1772
  951MOL0     C25446   2.567   4.361   8.871  0.3508  0.0285 -0.7510
  951MOL0     O25447   2.598   4.676   8.839  0.0640 -0.3211  0.4258
  951MOL0     C25448   2.764   4.805   8.678  0.9745  0.0176  0.9159
  951MOL0     C25449   2.841   4.871   8.587 -0.1759 -0.8869  0.1106
  951MOL0     N25450   3.705   4.845   8.370  0.0060 -0.0937 -0.3117
  951MOL0     N25451   3.821   4.818   8.416  0.1568 -0.4313 -1.0159
  951MOL0     C25452   4.782   4.302   8.074 -0.4268 -0.5943 -0.4723
  951MOL0     C25453   4.901   4.294   7.993  0.5831 -0.1193  0.3128
  951MOL0     C25454   5.377   4.311   7.929  0.1748 -0.2444  0.5265
  951MOL0     C25455   5.390   4.226   7.822 -0.3419  0.2342 -0.8148
  951MOL0     C25456   5.501   4.224   7.728 -0.1404 -0.2388  0.2597
  951MOL0     C25457   5.604   4.313   7.745  0.6495  0.0737 -1.6530
  951MOL0     O25458   5.703   4.311   7.653 -0.9876  0.3845  0.0362
  951MOL0     C25459   5.842   4.331   7.697  0.7938 -0.0504  0.0112
  951MOL0     C25460   5.931   4.286   7.586 -0.1440  0.0129  0.6410
  951MOL0     C25461   6.077   4.307   7.621  0.3425  1.1155 -0.5914
  951MOL0     C25462   6.163   4.283   7.498 -0.5429  0.5576 -0.1040
  951MOL0     C25463   6.302   4.294   7.539 -0.5939 -0.2417 -0.9193
  951MOL0     C25464   6.421   4.310   7.557 -0.2118 -0.0330 -1.3782
  951MOL0     C25465   5.596   4.394   7.863 -0.1623 -0.0327 -0.1476
  951MOL0     C25466   5.488   4.394   7.945 -0.7261  0.3744 -0.5651
  951MOL0     H25467   5.102   4.150   8.214 -1.0298 -3.9001 -2.2407
  951MOL0     H25468   4.880   4.143   8.334  2.7432 -0.9880 -0.4096
  951MOL0     H25469   4.533   4.229   8.128  2.5230 -3.9754  2.3208
  951MOL0     H25470   4.565   4.405   8.190 -1.3428  1.3271  0.0401
  951MOL0     H25471   4.433   4.211   8.362  1.6013  0.1683  0.5129
  951MOL0     H25472   4.342   4.280   8.223 -0.5408 -0.1889  0.3495
  951MOL0     H25473   4.423   4.519   8.301 -2.3113  0.9727 -0.3518
  951MOL0     H25474   4.465   4.441   8.457 -2.7713 -0.0604  2.1943
  951MOL0     H25475   4.206   4.425   8.315  3.5340  2.7711 -1.4187
  951MOL0     H25476   4.238   4.339   8.477  1.6035 -1.5436 -1.2612
  951MOL0     H25477   4.273   4.635   8.421 -0.6277 -0.2783 -0.0288
  951MOL0     H25478   4.300   4.561   8.573 -0.1348  0.0520  0.4747
  951MOL0     H25479   4.052   4.518   8.590 -0.5154  0.9615 -0.3303
  951MOL0     H25480   4.032   4.560   8.415 -2.1911 -0.7144  0.0620
  951MOL0     H25481   4.138   4.765   8.626  0.4195 -1.2884  1.0229
  951MOL0     H25482   4.069   4.800   8.475 -0.5630 -1.0123 -0.3701
  951MOL0     H25483   3.921   4.855   8.680 -1.2523 -0.7652 -0.4309
  951MOL0     H25484   3.895   4.685   8.717 -1.0137  2.5134  2.1330
  951MOL0     H25485   3.644   4.660   8.640 -0.8742  1.7143  0.2467
  951MOL0     H25486   3.421   4.689   8.451 -0.7067 -0.1477 -0.7980
  951MOL0     H25487   3.447   4.817   8.317  2.3928 -4.4968 -1.7103
  951MOL0     H25488   3.433   4.994   8.485 -2.5518  0.9065 -0.5715
  951MOL0     H25489   3.453   4.884   8.617 -2.4374 -2.5976  1.0925
  951MOL0     H25490   3.235   4.817   8.623  0.1018 -1.1947 -1.1063
  951MOL0     H25491   3.251   4.990   8.581  0.7077  1.1475 -1.7727
  951MOL0     H25492   3.184   4.760   8.393 -1.6910 -0.2440  0.8851
  951MOL0     H25493   3.218   4.916   8.341  0.6835 -0.2385  0.3374
  951MOL0     H25494   3.088   4.638   8.542 -0.3332  0.3345  0.3670
  951MOL0     H25495   2.940   4.526   8.698  1.5178  0.8757  0.3925
  951MOL0     H25496   2.784   4.433   9.125 -0.0282 -1.6773  1.7580
  951MOL0     H25497   2.636   4.316   9.246 -1.0786  0.4496 -0.2397
  951MOL0     H25498   2.407   4.297   9.336  1.3947  0.3665  1.8708
  951MOL0     H25499   2.536   4.169   9.335 -0.7013 -2.0702  1.1822
  951MOL0     H25500   2.377   4.077   9.477  1.0385  0.5371 -0.0583
  951MOL0     H25501   2.340   3.996   9.326  3.6301 -0.1195  0.8067
  951MOL0     H25502   2.152   4.180   9.291 -0.1035 -0.5202  0.9986
  951MOL0     H25503   2.192   4.239   9.453  0.9489  0.4118 -0.1831
  951MOL0     H25504   2.154   3.983   9.525  0.6670  1.3008  0.9591
  951MOL0     H25505   2.009   4.075   9.483 -0.4351 -2.4480  0.2727
  951MOL0     H25506   2.010   3.857   9.399  0.4020  0.6508  0.7204
  951MOL0     H25507   2.142   3.875   9.295 -0.8417 -0.1588 -1.7115
  951MOL0     H25508   1.893   4.046   9.265  0.2757  0.2820 -0.0075
  951MOL0     H25509   1.917   3.889   9.190  1.7801 -0.1574 -0.5375
  951MOL0     H25510   2.088   4.128   9.110 -0.7637  0.2472  1.0459
  951MOL0     H25511   2.098   3.958   9.060 -0.0771  1.3746 -1.2017
  951MOL0     H25512   1.854   3.974   8.980 -1.7477  1.9332 -0.3085
  951MOL0     H25513   1.967   4.076   8.889 -0.7539  0.4090 -0.3739
  951MOL0     H25514   2.408   4.215   8.895  0.3174  0.4663 -0.1224
  951MOL0     H25515   2.550   4.392   8.768 -0.6384 -0.8932 -0.8879
  951MOL0     H25516   2.678   4.860   8.712 -0.3792  0.6838 -3.0371
  951MOL0     H25517   2.809   4.975   8.577  3.5876  0.2272 -2.2969
  951MOL0     H25518   4.702   4.356   8.025 -0.0563 -2.4018 -3.2284
  951MOL0     H25519   4.910   4.321   7.888  1.6045  0.3531  0.5105
  951MOL0     H25520   5.306   4.158   7.816 -1.0831  1.0840 -0.2674
  951MOL0     H25521   5.507   4.170   7.634  3.7990  0.5582 -0.1456
  951MOL0     H25522   5.867   4.279   7.789 -1.2524  0.8404  1.1536
  951MOL0     H25523   5.856   4.439   7.712  1.6409 -0.2842  0.9870
  951MOL0     H25524   5.918   4.181   7.560  1.4216  0.5681 -3.0769
  951MOL0     H25525   5.915   4.335   7.489 -0.9567 -5.0026 -2.0829
  951MOL0     H25526   6.107   4.229   7.692  0.1172  1.2611 -0.3332
  951MOL0     H25527   6.082   4.410   7.658 -0.2077  1.0125 -0.2193
  951MOL0     H25528   6.146   4.180   7.464  3.1372 -0.4011  0.4620
  951MOL0     H25529   6.141   4.353   7.417  0.7422  3.4599  1.9210
  951MOL0     H25530   6.527   4.318   7.555 -0.1331 -0.6682 -0.5797
  951MOL0     H25531   5.687   4.447   7.891  0.7887  0.1906 -3.2566
  951MOL0     H25532   5.481   4.459   8.031  2.2303 -1.1455  0.9725
  952MOL0     O25533   2.877   4.412   3.609  0.3441 -0.1858 -0.5375
  952MOL0     C25534   2.824   4.451   3.502 -0.3092  0.2237 -0.0481
  952MOL0     O25535   2.703   4.516   3.492  0.0411  0.1433 -0.1865
  952MOL0     C25536   2.644   4.548   3.610  0.2842  0.0786  0.5587
  952MOL0     C25537   2.612   4.682   3.627 -0.4709 -0.5852  0.3665
  952MOL0     C25538   2.552   4.735   3.743 -0.7694  0.3199 -0.2236
  952MOL0     C25539   2.506   4.653   3.844 -0.3785  0.1078  0.8648
  952MOL0     O25540   2.434   4.692   3.956  0.4521  0.0751  0.2976
  952MOL0     C25541   2.382   4.820   3.956 -0.0251  0.6732 -0.2060
  952MOL0     C25542   2.299   4.815   4.085  0.7517  0.4431 -0.9544
  952MOL0     C25543   2.148   4.784   4.073  0.1069 -0.4471 -0.1213
  952MOL0     C25544   2.136   4.628   4.056  0.0110 -0.1305  0.3248
  952MOL0     C25545   1.996   4.585   4.011 -0.2987  0.5976  0.1708
  952MOL0     C25546   1.897   4.640   4.115 -0.6783  0.4295 -0.9596
  952MOL0     C25547   1.762   4.588   4.077  0.8217 -0.3460  0.0223
  952MOL0     C25548   1.688   4.627   3.947  0.2666  0.0080 -0.5469
  952MOL0     N25549   1.570   4.538   3.941  0.1474  0.2938 -0.0036
  952MOL0     C25550   1.536   4.470   3.827 -0.1876 -0.6388 -0.4470
  952MOL0     C25551   1.409   4.426   3.850 -0.0171  0.0579 -1.4086
  952MOL0     C25552   1.336   4.347   3.751  0.5091  0.4850 -0.2994
  952MOL0     C25553   1.239   4.443   3.673 -0.0424  0.5453  0.0276
  952MOL0     C25554   1.105   4.363   3.644 -0.5147 -0.3106 -1.0118
  952MOL0     C25555   1.016   4.422   3.532  0.4061 -0.1918  0.1128
  952MOL0     O25556   0.962   4.542   3.589 -0.4253  0.1499 -0.6185
  952MOL0     C25557   0.843   4.587   3.541 -0.1206 -0.4555  0.1165
  952MOL0     C25558   0.758   4.643   3.634  0.5860  0.2210 -0.1178
  952MOL0     C25559   0.640   4.688   3.584 -0.5799 -0.4576  0.0231
  952MOL0     C25560   0.606   4.692   3.447  0.5170  0.2902  0.1059
  952MOL0     C25561   0.479   4.753   3.405  1.1407 -0.0661  1.0257
  952MOL0     O25562   0.384   4.768   3.501  0.3984 -0.1284  0.0070
  952MOL0     C25563   0.259   4.806   3.462 -0.2054  0.3877 -0.2944
  952MOL0     C25564   0.237   4.934   3.406 -0.5923  0.5363 -0.3368
  952MOL0     C25565   0.108   4.981   3.378  0.4739 -0.1931 -0.2294
  952MOL0     C25566  -0.001   4.902   3.412  0.1485  0.0348  0.4870
  952MOL0     O25567  -0.126   4.958   3.396  0.2765  0.4829  0.1894
  952MOL0     C25568  -0.252   4.876   3.408  1.0614 -0.7472 -0.0077
  952MOL0     C25569  -0.374   4.961   3.362 -0.2008 -0.2017 -0.2717
  952MOL0     C25570  -0.492   4.870   3.325  0.6448  0.5433  0.0561
  952MOL0     C25571  -0.614   4.963   3.282  0.3109  0.3428  0.4450
  952MOL0     C25572  -0.732   4.871   3.239 -0.4797  0.8204 -0.4445
  952MOL0     C25573  -0.833   4.944   3.152  0.4604 -0.7454  0.1999
  952MOL0     C25574  -0.913   5.046   3.231 -0.9113  0.2986  0.2026
  952MOL0     C25575  -0.987   5.145   3.144  0.4437  0.6119  0.2680
  952MOL0    Cl25576  -1.117   5.058   3.066  0.7538  0.4222  0.1068
  952MOL0     C25577   0.020   4.773   3.461 -0.4190 -0.2486 -0.5004
  952MOL0     C25578   0.147   4.728   3.484 -0.3784  0.1088  0.1841
  952MOL0     O25579   0.468   4.793   3.287  0.4256  0.5093  0.7852
  952MOL0     C25580   0.692   4.646   3.353 -0.7680 -0.0760 -0.1883
  952MOL0     C25581   0.810   4.591   3.401 -0.4106 -0.1325 -0.2760
  952MOL0     N25582   1.368   4.469   3.982 -0.2222  0.6342  0.2166
  952MOL0     N25583   1.466   4.542   4.033  0.2356  0.0894  0.1646
  952MOL0     C25584   2.540   4.520   3.829  0.0934  0.2570 -0.1869
  952MOL0     C25585   2.603   4.466   3.713  0.0038  0.1390 -0.2645
  952MOL0     C25586   2.882   4.412   3.369 -0.3365  0.4106  0.4292
  952MOL0     C25587   3.012   4.343   3.356  0.3640  0.3468 -0.0501
  952MOL0     C25588   3.052   4.308   3.226  0.2033  0.0481 -0.3293
  952MOL0     C25589   2.973   4.341   3.116  0.5994 -0.5348  0.3218
  952MOL0     O25590   3.019   4.324   2.990  0.1495 -0.1287  0.1115
  952MOL0     C25591   2.947   4.225   2.915  0.0587 -0.1170 -0.2128
  952MOL0     C25592   3.033   4.104   2.876  0.0473 -0.0078  0.2261
  952MOL0     C25593   3.151   4.137   2.788 -0.2011 -0.2002  0.5493
  952MOL0     C25594   3.218   4.014   2.741  0.1247 -0.5323  0.0062
  952MOL0     C25595   3.151   3.957   2.638 -0.2480  0.4243  0.4788
  952MOL0     C25596   3.107   3.899   2.543  0.0985 -0.2706  0.2146
  952MOL0     C25597   2.852   4.410   3.126  0.1860  0.3489 -0.5962
  952MOL0     C25598   2.803   4.442   3.251  0.5121  0.5710 -0.5737
  952MOL0     H25599   2.643   4.747   3.546 -3.8812  1.7002  0.6782
  952MOL0     H25600   2.532   4.841   3.731  0.4091  0.3338 -2.7077
  952MOL0     H25601   2.314   4.834   3.871  0.8352  0.7482 -0.9000
  952MOL0     H25602   2.458   4.898   3.957  0.2177  0.4576 -1.0474
  952MOL0     H25603   2.307   4.916   4.125 -0.2286 -0.8567  2.9521
  952MOL0     H25604   2.347   4.755   4.163 -1.6137 -0.5592 -0.1789
  952MOL0     H25605   2.110   4.838   3.986  2.7509  0.8538 -0.5608
  952MOL0     H25606   2.097   4.813   4.165  0.1450 -3.9055  1.1275
  952MOL0     H25607   2.206   4.599   3.978  0.4624  1.2435  0.1924
  952MOL0     H25608   2.172   4.589   4.152  0.7541 -0.9880 -0.2845
  952MOL0     H25609   1.989   4.476   4.014  4.1449  0.0076 -2.2891
  952MOL0     H25610   1.981   4.617   3.908  2.1007  3.8709  0.6709
  952MOL0     H25611   1.893   4.749   4.123 -0.8377  0.4165 -0.8518
  952MOL0     H25612   1.931   4.602   4.212  1.6345  0.4662 -1.6912
  952MOL0     H25613   1.767   4.479   4.083 -3.3620 -0.7306 -0.2380
  952MOL0     H25614   1.696   4.622   4.158  0.1035 -0.2168 -0.6107
  952MOL0     H25615   1.752   4.611   3.860  0.9176  2.5729 -0.6109
  952MOL0     H25616   1.675   4.736   3.944 -1.4200 -0.1687 -3.4182
  952MOL0     H25617   1.593   4.454   3.737  2.4918  1.2715  0.7838
  952MOL0     H25618   1.285   4.264   3.801 -0.5061 -0.1167 -2.2317
  952MOL0     H25619   1.405   4.306   3.677  0.1557 -0.3726 -0.1661
  952MOL0     H25620   1.285   4.460   3.575  1.7209  1.0001  0.8962
  952MOL0     H25621   1.204   4.529   3.730 -0.5650 -0.1719  0.8121
  952MOL0     H25622   1.129   4.259   3.619  0.2011 -0.2308 -0.7098
  952MOL0     H25623   1.046   4.353   3.735  1.6361  0.7618  0.6194
  952MOL0     H25624   0.942   4.346   3.508  1.4870 -0.3363 -3.4818
  952MOL0     H25625   1.058   4.444   3.433 -5.4170  0.7694 -2.5844
  952MOL0     H25626   0.796   4.647   3.736  0.6872 -0.8127 -0.1097
  952MOL0     H25627   0.577   4.739   3.657  2.0364  0.6486  1.6577
  952MOL0     H25628   0.328   4.991   3.394 -0.4667  0.4744  0.2801
  952MOL0     H25629   0.079   5.081   3.350 -0.0758  0.3417  2.0468
  952MOL0     H25630  -0.262   4.843   3.511  0.6084 -0.0187  0.1897
  952MOL0     H25631  -0.227   4.801   3.332  3.4242 -1.5348  1.4557
  952MOL0     H25632  -0.352   5.014   3.269  0.4321  1.4621  0.7841
  952MOL0     H25633  -0.399   5.029   3.444 -1.1127 -2.6482  1.6150
  952MOL0     H25634  -0.516   4.797   3.404  1.1968  0.8144  0.4786
  952MOL0     H25635  -0.469   4.817   3.232 -1.1425 -0.8599  0.3555
  952MOL0     H25636  -0.636   5.042   3.355  3.9757  2.7811 -0.8680
  952MOL0     H25637  -0.583   5.024   3.198 -0.1367 -0.5872 -0.4142
  952MOL0     H25638  -0.767   4.824   3.331  0.7230  2.9636  1.2132
  952MOL0     H25639  -0.691   4.783   3.188 -1.4134 -0.5638  1.1023
  952MOL0     H25640  -0.895   4.874   3.095 -2.0441 -1.0184  2.9913
  952MOL0     H25641  -0.775   5.004   3.082  0.0489 -1.7901 -1.0830
  952MOL0     H25642  -0.981   5.007   3.308 -2.7489 -0.4466 -1.6968
  952MOL0     H25643  -0.842   5.113   3.280 -0.0305  0.6260 -1.4538
  952MOL0     H25644  -0.923   5.193   3.068  0.4735  2.9839  1.6877
  952MOL0     H25645  -1.023   5.228   3.206  2.4345 -0.1498  2.6341
  952MOL0     H25646  -0.062   4.709   3.489 -2.2376  2.3851  0.5791
  952MOL0     H25647   0.162   4.630   3.529  1.0284 -0.0636 -0.6182
  952MOL0     H25648   0.672   4.648   3.247 -1.8289  1.4559  0.0041
  952MOL0     H25649   0.884   4.561   3.328 -0.4412 -1.2546  0.1392
  952MOL0     H25650   2.508   4.448   3.904  0.8404 -1.4884 -1.4629
  952MOL0     H25651   2.627   4.361   3.711 -0.8857 -0.0914  0.2995
  952MOL0     H25652   3.068   4.320   3.446 -1.3654  0.8524  1.2086
  952MOL0     H25653   3.153   4.268   3.216  1.6188  2.7398  1.8816
  952MOL0     H25654   2.907   4.269   2.823  0.4661  1.0758  0.1646
  952MOL0     H25655   2.855   4.188   2.961  0.1158  0.3785  0.3196
  952MOL0     H25656   3.061   4.071   2.976  0.3999 -1.8685 -0.4420
  952MOL0     H25657   2.967   4.028   2.833 -1.6068 -0.3487  3.0813
  952MOL0     H25658   3.223   4.195   2.847 -0.6561 -0.4119  1.3244
  952MOL0     H25659   3.113   4.203   2.710  1.3284  1.0210  0.7881
  952MOL0     H25660   3.319   4.033   2.703  1.6216 -3.4724  2.1219
  952MOL0     H25661   3.239   3.938   2.817  0.4792  0.5178  0.9904
  952MOL0     H25662   3.053   3.833   2.478  1.2901  0.8450 -2.0445
  952MOL0     H25663   2.806   4.442   3.033 -0.4870  0.5160 -0.2181
  952MOL0     H25664   2.705   4.488   3.249 -0.3042 -1.0962 -0.4817
  953MOL0     O25665   5.710   7.675   6.672  0.1438 -0.4240 -0.5250
  953MOL0     C25666   5.778   7.679   6.568 -0.1450 -0.1960  0.4465
  953MOL0     O25667   5.724   7.666   6.430 -0.2129 -0.6835  0.9235
  953MOL0     C25668   5.592   7.637   6.407 -0.4213  0.3687  1.0290
  953MOL0     C25669   5.529   7.509   6.425  0.1976 -0.3844  0.2126
  953MOL0     C25670   5.388   7.496   6.394 -0.7672 -0.5330 -0.3920
  953MOL0     C25671   5.321   7.612   6.344 -0.9041 -0.0407  0.4160
  953MOL0     O25672   5.191   7.600   6.304  0.1270  0.5926 -0.2354
  953MOL0     C25673   5.110   7.522   6.394  0.8485  0.7355  0.2066
  953MOL0     C25674   4.966   7.560   6.362  0.2589  0.2658 -0.4746
  953MOL0     C25675   4.862   7.452   6.403  0.3556  0.4764 -0.3628
  953MOL0     C25676   4.735   7.493   6.341 -0.1056  0.4006  0.0117
  953MOL0     C25677   4.600   7.421   6.388 -0.1803  0.1861 -0.2953
  953MOL0     C25678   4.587   7.277   6.341  0.0060  0.0418 -0.5599
  953MOL0     C25679   4.485   7.193   6.430  0.3100  0.4169  0.0215
  953MOL0     C25680   4.341   7.236   6.414  0.4744  0.8945  0.5161
  953MOL0     N25681   4.248   7.138   6.478  0.4664 -0.8461 -0.4987
  953MOL0     C25682   4.210   7.135   6.612  0.4354  1.0111  0.5299
  953MOL0     C25683   4.119   7.035   6.625 -0.1893 -0.7341  1.1468
  953MOL0     C25684   4.047   6.979   6.744 -0.3750  0.4397 -0.0313
  953MOL0     C25685   3.925   7.065   6.776  0.0005  0.9236  0.0784
  953MOL0     C25686   3.842   6.982   6.868  0.7518 -0.1643 -0.0845
  953MOL0     C25687   3.694   7.024   6.858 -1.1305  0.2547  0.3011
  953MOL0     O25688   3.621   6.943   6.948 -0.2608  0.4409 -0.2040
  953MOL0     C25689   3.487   6.949   6.924 -0.5425  0.1817  0.7276
  953MOL0     C25690   3.413   7.057   6.975 -0.7813 -0.8042  0.2990
  953MOL0     C25691   3.271   7.046   6.963  0.5209  0.0840  0.8461
  953MOL0     C25692   3.205   6.927   6.914  0.5044  0.7828 -0.1625
  953MOL0     C25693   3.057   6.924   6.893 -0.2769 -0.5319 -0.0023
  953MOL0     O25694   3.005   6.807   6.846 -0.3959 -0.1843 -0.1007
  953MOL0     C25695   2.872   6.795   6.870 -0.0073  0.3211 -0.4380
  953MOL0     C25696   2.786   6.811   6.759 -0.4918  0.1416  0.0409
  953MOL0     C25697   2.650   6.781   6.774  0.6390  0.2011 -1.2466
  953MOL0     C25698   2.599   6.748   6.895  0.3695 -0.0226  0.0570
  953MOL0     O25699   2.456   6.728   6.889  0.6339  0.5051  0.1870
  953MOL0     C25700   2.389   6.656   6.988 -0.3195  0.2600  0.3761
  953MOL0     C25701   2.243   6.688   6.969 -0.4702  0.3668  0.3531
  953MOL0     C25702   2.161   6.633   7.086  0.3764 -0.4282  0.5876
  953MOL0     C25703   2.009   6.631   7.053  0.3783  0.0648  0.1678
  953MOL0     C25704   1.942   6.557   7.158  0.1697  0.1651  0.4291
  953MOL0     C25705   1.791   6.597   7.179 -0.1709 -0.4255  0.0400
  953MOL0     C25706   1.743   6.540   7.306 -0.3480 -0.6247 -0.4988
  953MOL0     C25707   1.609   6.599   7.343 -0.2272 -0.4212  0.2551
  953MOL0    Cl25708   1.464   6.577   7.225  0.7175  0.0742 -0.2709
  953MOL0     C25709   2.682   6.738   7.010 -1.0487 -0.1762 -0.3601
  953MOL0     C25710   2.820   6.757   6.995  0.3264  0.5340  0.9100
  953MOL0     O25711   2.998   7.026   6.929  0.3361 -0.6595  0.0280
  953MOL0     C25712   3.289   6.821   6.862  1.2778  0.1229 -0.5911
  953MOL0     C25713   3.423   6.840   6.870  0.3002 -0.7277  0.0054
  953MOL0     N25714   4.102   6.987   6.500  1.1866  0.4479 -0.2385
  953MOL0     N25715   4.169   7.045   6.412  0.4885 -0.3135  0.4532
  953MOL0     C25716   5.386   7.738   6.348  0.1472 -0.3294  0.4562
  953MOL0     C25717   5.519   7.749   6.375  0.0715 -0.4462  0.0044
  953MOL0     C25718   5.923   7.707   6.597  0.6595 -0.9900  0.8170
  953MOL0     C25719   6.005   7.752   6.494 -1.2484  1.1380 -0.3225
  953MOL0     C25720   6.139   7.794   6.513  0.1367  0.1550  0.3972
  953MOL0     C25721   6.200   7.769   6.642 -0.5573  0.2381  0.5466
  953MOL0     O25722   6.331   7.799   6.671  0.1323  0.0643 -0.4118
  953MOL0     C25723   6.423   7.782   6.557  0.3095 -0.1938 -0.4895
  953MOL0     C25724   6.571   7.785   6.611  0.1159  0.5933  0.3320
  953MOL0     C25725   6.605   7.892   6.718 -0.0046 -0.6052  0.2080
  953MOL0     C25726   6.629   8.020   6.635  0.3617 -0.1942  0.3259
  953MOL0     C25727   6.632   8.129   6.728 -0.8916 -0.0739 -0.3857
  953MOL0     C25728   6.631   8.206   6.823 -1.2305 -0.2429 -0.1461
  953MOL0     C25729   6.113   7.724   6.742 -0.8614 -0.1257  0.0992
  953MOL0     C25730   5.974   7.704   6.726 -0.0719  0.0128 -0.8035
  953MOL0     H25731   5.582   7.422   6.461  2.2023  0.2180 -1.0803
  953MOL0     H25732   5.345   7.397   6.407 -1.8636 -0.1149 -0.7664
  953MOL0     H25733   5.138   7.540   6.499  1.1240 -0.1144  0.2846
  953MOL0     H25734   5.115   7.414   6.379 -0.5264  0.6158  0.5020
  953MOL0     H25735   4.964   7.582   6.255 -0.4466  0.2312 -0.4726
  953MOL0     H25736   4.953   7.657   6.411  0.8784  0.5886 -0.9365
  953MOL0     H25737   4.850   7.441   6.512 -1.8816 -2.3267 -0.8015
  953MOL0     H25738   4.897   7.357   6.361  1.3287  0.3563  0.6533
  953MOL0     H25739   4.722   7.598   6.370 -2.8117 -0.2777  1.6433
  953MOL0     H25740   4.746   7.490   6.232 -2.5748 -0.0737 -0.2895
  953MOL0     H25741   4.524   7.487   6.347  1.3191  2.7374  0.7841
  953MOL0     H25742   4.589   7.434   6.496 -1.7189  2.5421 -0.6665
  953MOL0     H25743   4.682   7.224   6.342  0.9457  1.6071  2.0633
  953MOL0     H25744   4.549   7.285   6.238  0.0845  2.5922 -0.4704
  953MOL0     H25745   4.496   7.089   6.398  3.6201  0.5545  0.3290
  953MOL0     H25746   4.517   7.181   6.535 -0.7061  2.0885  0.5553
  953MOL0     H25747   4.324   7.246   6.307 -0.1646 -1.1889  0.3826
  953MOL0     H25748   4.325   7.336   6.458  0.4927  1.7420 -1.3217
  953MOL0     H25749   4.249   7.197   6.692  1.8365 -2.5442  2.8626
  953MOL0     H25750   4.122   6.975   6.823  0.6944 -0.1647 -1.0477
  953MOL0     H25751   4.035   6.875   6.712 -0.2319 -0.1114  1.6307
  953MOL0     H25752   3.878   7.089   6.681 -0.2426 -1.5015 -0.4842
  953MOL0     H25753   3.964   7.154   6.825  3.7298 -1.1738  1.2973
  953MOL0     H25754   3.840   6.875   6.847  3.0522 -0.3423  0.3369
  953MOL0     H25755   3.884   6.996   6.968  0.0812 -0.0100  0.1782
  953MOL0     H25756   3.671   6.998   6.754  0.6702 -0.7444  0.0999
  953MOL0     H25757   3.680   7.130   6.879 -3.1971  0.5183 -1.9752
  953MOL0     H25758   3.457   7.139   7.031 -1.3035 -0.8581  0.8014
  953MOL0     H25759   3.213   7.134   6.986 -3.1461 -0.9964 -2.9394
  953MOL0     H25760   2.818   6.846   6.662 -2.2819 -0.1092 -0.6802
  953MOL0     H25761   2.591   6.795   6.684  0.8687  1.5694 -1.2029
  953MOL0     H25762   2.425   6.693   7.085  1.2291  1.2206 -0.5301
  953MOL0     H25763   2.408   6.549   6.981 -1.8768 -0.3533  3.4530
  953MOL0     H25764   2.208   6.640   6.877 -0.5764 -1.0721  1.1110
  953MOL0     H25765   2.217   6.794   6.964 -3.0407 -0.2288 -3.3291
  953MOL0     H25766   2.184   6.698   7.171  0.4405 -1.3171  1.2630
  953MOL0     H25767   2.195   6.535   7.122 -1.8837 -1.7787 -0.7616
  953MOL0     H25768   1.963   6.731   7.050 -1.5036 -0.7068  1.1968
  953MOL0     H25769   1.988   6.579   6.959 -2.7594  0.9459  0.2596
  953MOL0     H25770   1.998   6.586   7.247  2.2546 -5.8776  1.5583
  953MOL0     H25771   1.945   6.449   7.140 -0.1354  0.2647 -0.2820
  953MOL0     H25772   1.739   6.546   7.098  0.5708 -0.9387 -0.1257
  953MOL0     H25773   1.770   6.704   7.173  0.4127 -0.2918  0.2774
  953MOL0     H25774   1.738   6.432   7.292 -0.8021 -0.8444  1.1939
  953MOL0     H25775   1.814   6.550   7.388  0.9457  2.2427 -1.8062
  953MOL0     H25776   1.637   6.704   7.353  1.1896 -0.9864  3.2803
  953MOL0     H25777   1.576   6.565   7.441  0.1297 -1.0351  0.1642
  953MOL0     H25778   2.659   6.712   7.113  1.2491  0.3810  0.3400
  953MOL0     H25779   2.879   6.747   7.086 -0.9104  1.4252  1.8417
  953MOL0     H25780   3.253   6.731   6.813  1.0546  1.2650 -2.6330
  953MOL0     H25781   3.475   6.757   6.823  0.6170 -0.5559  0.0499
  953MOL0     H25782   5.332   7.823   6.307  1.7412 -0.1475 -1.3981
  953MOL0     H25783   5.579   7.839   6.382 -0.7257  0.0146  1.5610
  953MOL0     H25784   5.963   7.743   6.394  0.5079  0.1876 -1.0158
  953MOL0     H25785   6.199   7.820   6.426 -0.5796 -0.9788 -0.4539
  953MOL0     H25786   6.424   7.865   6.487  6.2939  1.3361  0.8347
  953MOL0     H25787   6.406   7.687   6.504 -0.0147 -0.6802  0.4568
  953MOL0     H25788   6.579   7.684   6.652  3.2545  0.4510 -0.4113
  953MOL0     H25789   6.628   7.793   6.518 -0.9867 -2.1390 -0.7034
  953MOL0     H25790   6.693   7.864   6.776  0.4604 -1.9475 -1.0683
  953MOL0     H25791   6.520   7.907   6.785  0.9021 -2.4508  1.8793
  953MOL0     H25792   6.725   8.001   6.585  2.2966 -1.1420  3.9763
  953MOL0     H25793   6.542   8.038   6.572 -0.8711 -0.3675  1.9045
  953MOL0     H25794   6.626   8.277   6.903  1.4840 -0.2028  0.0692
  953MOL0     H25795   6.160   7.717   6.840 -0.2577  0.0920 -0.1679
  953MOL0     H25796   5.909   7.689   6.811  0.6679  1.9261  0.1599
  954MOL0     O25797   6.557   3.881   8.838 -1.2009  0.4459  0.4322
  954MOL0     C25798   6.611   3.904   8.731 -0.4772 -0.0382  0.2371
  954MOL0     O25799   6.545   3.945   8.612 -0.0880  0.7908  0.2856
  954MOL0     C25800   6.417   3.962   8.628 -0.3795 -0.3220 -0.4069
  954MOL0     C25801   6.320   3.858   8.617 -0.3538  0.8252  0.3563
  954MOL0     C25802   6.187   3.885   8.620  0.2385 -0.1789  0.8975
  954MOL0     C25803   6.137   4.012   8.633  0.6143 -0.3386  0.3971
  954MOL0     O25804   5.999   4.018   8.632 -0.0658  0.1896 -0.0229
  954MOL0     C25805   5.936   4.146   8.636  0.1615  0.5378  0.9144
  954MOL0     C25806   5.785   4.129   8.665 -0.3525  0.4435  0.0781
  954MOL0     C25807   5.775   4.031   8.784 -0.1980 -0.0354 -0.2300
  954MOL0     C25808   5.635   4.026   8.846 -0.0150 -0.4113  0.5069
  954MOL0     C25809   5.632   3.954   8.983 -0.2825  0.3927 -0.1986
  954MOL0     C25810   5.655   3.803   8.979  0.9037 -0.2951 -0.2137
  954MOL0     C25811   5.797   3.765   9.016 -0.2352 -0.2309 -0.3890
  954MOL0     C25812   5.819   3.621   8.980 -0.6236  0.1815  0.6077
  954MOL0     N25813   5.966   3.580   9.000  0.5224  0.0718 -1.2748
  954MOL0     C25814   6.075   3.643   8.942 -0.7212  0.6377 -0.2042
  954MOL0     C25815   6.184   3.581   8.986  0.1966  0.4799 -0.0326
  954MOL0     C25816   6.327   3.613   8.937  0.4060  0.5036 -0.3377
  954MOL0     C25817   6.372   3.514   8.828  0.6717 -0.4997  0.0956
  954MOL0     C25818   6.278   3.499   8.708  0.1802  0.2113 -0.4254
  954MOL0     C25819   6.352   3.423   8.581  0.5334 -0.0016 -0.2575
  954MOL0     O25820   6.435   3.516   8.527  0.4332  0.8641  0.3875
  954MOL0     C25821   6.564   3.489   8.498  0.0732 -0.5507  0.6202
  954MOL0     C25822   6.647   3.421   8.586 -0.6702 -1.3756 -0.4548
  954MOL0     C25823   6.790   3.417   8.563 -0.1080  0.5479 -0.2468
  954MOL0     C25824   6.841   3.479   8.444 -0.6386  0.3088  0.0797
  954MOL0     C25825   6.992   3.467   8.420  0.4057  0.1279 -1.1760
  954MOL0     O25826   7.033   3.470   8.293 -0.3679 -0.6467  0.1384
  954MOL0     C25827   7.164   3.451   8.250  0.2607 -0.3405  0.7325
  954MOL0     C25828   7.192   3.475   8.112  0.3695 -0.5474 -0.3527
  954MOL0     C25829   7.308   3.444   8.055 -1.7011  0.0732 -0.1719
  954MOL0     C25830   7.408   3.387   8.135 -0.6835 -1.1647 -0.1033
  954MOL0     O25831   7.533   3.360   8.087 -0.0167  0.4877 -0.4236
  954MOL0     C25832   7.657   3.397   8.165  0.4061 -1.1128  0.1663
  954MOL0     C25833   7.653   3.547   8.202 -0.1642  0.1932 -0.3359
  954MOL0     C25834   7.784   3.590   8.271 -0.5817 -0.6451  0.0887
  954MOL0     C25835   7.902   3.588   8.167  0.1469  0.6055  0.2631
  954MOL0     C25836   8.033   3.629   8.231  0.0681 -0.8362 -0.5074
  954MOL0     C25837   8.138   3.637   8.123  0.3860  0.0719  0.3355
  954MOL0     C25838   8.267   3.711   8.161 -0.5011 -0.1918 -0.4321
  954MOL0     C25839   8.374   3.699   8.057 -0.4071 -0.3666  0.4350
  954MOL0    Cl25840   8.322   3.784   7.899 -0.6155  0.2416 -0.0020
  954MOL0     C25841   7.383   3.353   8.268 -0.0912 -0.0461 -0.5613
  954MOL0     C25842   7.253   3.379   8.324 -0.1346 -0.3095 -0.0940
  954MOL0     O25843   7.067   3.462   8.520 -0.1987 -0.7086  0.0428
  954MOL0     C25844   6.754   3.536   8.352 -0.0971  0.7157  0.5027
  954MOL0     C25845   6.616   3.543   8.378 -0.2066 -1.2682 -0.2496
  954MOL0     N25846   6.144   3.480   9.070  0.2102 -0.9744  0.0377
  954MOL0     N25847   6.007   3.484   9.086 -0.6057  0.7589  0.2139
  954MOL0     C25848   6.227   4.116   8.646  0.2541  0.4598  0.2066
  954MOL0     C25849   6.371   4.093   8.646 -0.2039 -0.3515  0.4230
  954MOL0     C25850   6.752   3.896   8.725 -0.9364  0.4130  0.4502
  954MOL0     C25851   6.817   3.778   8.790 -0.2183 -0.0952  0.3231
  954MOL0     C25852   6.946   3.774   8.798 -1.7136 -0.5431  0.5367
  954MOL0     C25853   7.030   3.873   8.748  0.2046 -0.4645  0.2355
  954MOL0     O25854   7.169   3.876   8.759  0.2461 -0.7490  0.1698
  954MOL0     C25855   7.249   3.874   8.639 -0.9041 -0.1263 -0.1896
  954MOL0     C25856   7.255   3.733   8.572 -0.8357 -0.2197 -0.2906
  954MOL0     C25857   7.311   3.624   8.673 -0.3257  0.5013  0.0202
  954MOL0     C25858   7.463   3.635   8.683  0.2088  0.4136 -0.7679
  954MOL0     C25859   7.502   3.540   8.788  0.1833 -0.3863 -0.9050
  954MOL0     C25860   7.544   3.453   8.869  1.1375  0.2542  0.4293
  954MOL0     C25861   6.979   3.987   8.694 -0.6011 -0.6827 -1.0367
  954MOL0     C25862   6.836   4.002   8.686 -0.7045 -0.3249 -0.0745
  954MOL0     H25863   6.355   3.757   8.596 -0.2527  1.4705 -3.0799
  954MOL0     H25864   6.118   3.803   8.602  1.1873 -0.7721 -0.1676
  954MOL0     H25865   5.940   4.202   8.542 -1.2104  0.2344  0.6514
  954MOL0     H25866   5.976   4.211   8.714 -1.2589  0.4549  1.7381
  954MOL0     H25867   5.738   4.090   8.574  1.1251 -4.3921  1.0736
  954MOL0     H25868   5.748   4.230   8.685  0.8714  1.3484 -1.9001
  954MOL0     H25869   5.849   4.058   8.860  0.3231 -1.9242  0.0030
  954MOL0     H25870   5.800   3.929   8.751 -0.3674 -1.0259  2.4431
  954MOL0     H25871   5.608   4.131   8.860  0.8194 -0.3672  2.0025
  954MOL0     H25872   5.553   3.988   8.784 -0.3711  1.3709 -0.1709
  954MOL0     H25873   5.536   3.973   9.031  1.0227  3.0739  1.6539
  954MOL0     H25874   5.713   3.993   9.047 -0.3608  1.8135 -0.9263
  954MOL0     H25875   5.623   3.759   8.884  1.3128  1.9535 -1.4548
  954MOL0     H25876   5.596   3.753   9.057  0.8134 -1.4498 -1.0052
  954MOL0     H25877   5.869   3.831   8.968  1.6915 -0.4270  2.0745
  954MOL0     H25878   5.820   3.772   9.123  0.9284 -0.6739 -0.5936
  954MOL0     H25879   5.795   3.618   8.874 -0.6360  0.6530  0.5958
  954MOL0     H25880   5.749   3.558   9.035 -1.4060  0.5737  0.0744
  954MOL0     H25881   6.076   3.728   8.875 -1.5934 -0.4386 -1.6296
  954MOL0     H25882   6.393   3.605   9.024 -0.1860  0.8251  0.1505
  954MOL0     H25883   6.334   3.716   8.902  1.5406  0.0996 -1.3433
  954MOL0     H25884   6.385   3.417   8.878 -1.5549 -0.3953  0.9807
  954MOL0     H25885   6.475   3.532   8.797 -0.6400  2.1542 -3.2627
  954MOL0     H25886   6.198   3.432   8.741 -0.4423 -1.3527 -4.4336
  954MOL0     H25887   6.231   3.593   8.678 -0.7713 -0.0575  0.1513
  954MOL0     H25888   6.286   3.388   8.501  3.0185 -0.6777 -2.1413
  954MOL0     H25889   6.399   3.332   8.619  1.5517  0.3101 -0.7461
  954MOL0     H25890   6.617   3.372   8.679 -2.7965 -1.4554 -1.1379
  954MOL0     H25891   6.856   3.378   8.640  1.0548  1.2026 -0.8737
  954MOL0     H25892   7.108   3.502   8.049  1.8878 -2.0366 -3.2368
  954MOL0     H25893   7.324   3.460   7.949 -0.1743  0.5957  0.1128
  954MOL0     H25894   7.744   3.391   8.098  0.5563  1.2964  0.0429
  954MOL0     H25895   7.657   3.329   8.250 -0.5036  0.1702  1.2377
  954MOL0     H25896   7.575   3.561   8.277  0.5493 -3.1545  1.2334
  954MOL0     H25897   7.637   3.596   8.106 -1.7986 -1.1664 -0.8093
  954MOL0     H25898   7.796   3.523   8.357 -1.3244  0.8295  1.3936
  954MOL0     H25899   7.769   3.688   8.316  3.1097 -0.9254  2.3660
  954MOL0     H25900   7.913   3.488   8.126 -1.4261 -0.0200  1.2628
  954MOL0     H25901   7.886   3.665   8.091  3.5017  1.1587 -0.0120
  954MOL0     H25902   8.068   3.560   8.309  0.2729 -0.9328 -0.6844
  954MOL0     H25903   8.021   3.730   8.273  0.4188 -0.8896 -0.2772
  954MOL0     H25904   8.104   3.680   8.028  0.6972 -1.8944 -0.7309
  954MOL0     H25905   8.168   3.536   8.092 -0.0562 -0.2660  0.9848
  954MOL0     H25906   8.242   3.815   8.181  0.5328 -0.2113  1.0436
  954MOL0     H25907   8.303   3.679   8.259  1.1099  1.4915 -0.4292
  954MOL0     H25908   8.384   3.591   8.045 -0.1974 -0.4850  1.5388
  954MOL0     H25909   8.463   3.752   8.094 -0.8439  0.3019  0.5539
  954MOL0     H25910   7.454   3.291   8.321 -1.3519 -0.4105  0.7646
  954MOL0     H25911   7.237   3.342   8.424 -1.3557 -1.4545 -0.6850
  954MOL0     H25912   6.783   3.569   8.253 -3.9249  1.2752 -0.6066
  954MOL0     H25913   6.550   3.603   8.316 -0.5434  0.0408  1.3243
  954MOL0     H25914   6.192   4.218   8.649  1.3729  0.8529  0.3148
  954MOL0     H25915   6.443   4.174   8.643 -0.4501 -0.1538 -1.7093
  954MOL0     H25916   6.748   3.703   8.830  1.6482 -1.8380  0.4021
  954MOL0     H25917   7.009   3.693   8.832  0.2412  0.6244 -0.1000
  954MOL0     H25918   7.355   3.896   8.658 -0.7197 -1.2139  0.1150
  954MOL0     H25919   7.205   3.948   8.572 -1.3246  0.3628  0.6201
  954MOL0     H25920   7.154   3.695   8.556 -0.7153 -1.2294  1.1433
  954MOL0     H25921   7.315   3.728   8.481  1.1808 -1.0721  1.0084
  954MOL0     H25922   7.289   3.528   8.624 -1.3972  0.6106  0.2664
  954MOL0     H25923   7.256   3.629   8.767 -0.9659 -0.8306 -0.2481
  954MOL0     H25924   7.505   3.602   8.587 -0.5954 -0.6776 -0.7592
  954MOL0     H25925   7.506   3.734   8.703  1.2351  0.4867 -2.9690
  954MOL0     H25926   7.595   3.383   8.931 -0.5716 -0.3324  1.2535
  954MOL0     H25927   7.049   4.066   8.668  0.4902 -0.4541  2.1924
  954MOL0     H25928   6.794   4.094   8.649  0.7768  0.7918  0.9166
  955MOL0     O25929   1.240   5.917   8.781 -0.3401  0.1392 -0.6796
  955MOL0     C25930   1.326   5.854   8.720  0.2989  0.2469  0.3974
  955MOL0     O25931   1.301   5.803   8.595  0.2701  0.7425  0.1519
  955MOL0     C25932   1.167   5.791   8.560 -0.1820  0.1030  0.4050
  955MOL0     C25933   1.118   5.864   8.459 -0.1616  0.1180 -0.2281
  955MOL0     C25934   0.987   5.871   8.427 -0.1760 -0.3035 -0.3746
  955MOL0     C25935   0.896   5.802   8.513 -0.5228  0.0734 -0.1670
  955MOL0     O25936   0.767   5.783   8.498 -0.2495  0.2553 -0.7628
  955MOL0     C25937   0.693   5.880   8.423  0.8993 -0.1109 -0.4678
  955MOL0     C25938   0.548   5.835   8.431 -0.2682  0.9990 -0.4084
  955MOL0     C25939   0.471   5.881   8.310  0.0234  0.3913  0.3764
  955MOL0     C25940   0.320   5.853   8.332 -0.6680 -0.5459  0.0573
  955MOL0     C25941   0.244   5.864   8.201 -0.0831 -0.1172  0.0791
  955MOL0     C25942   0.092   5.812   8.223 -0.2820 -0.0403  0.5821
  955MOL0     C25943   0.030   5.818   8.083 -1.1170 -0.4200 -0.4330
  955MOL0     C25944  -0.103   5.746   8.066 -0.1497 -0.8669  0.1844
  955MOL0     N25945  -0.177   5.799   7.953  0.2562 -0.8292  0.1368
  955MOL0     C25946  -0.283   5.880   7.979 -0.1340 -0.0046 -0.1294
  955MOL0     C25947  -0.313   5.935   7.862 -0.6551 -0.2704  0.0200
  955MOL0     C25948  -0.407   6.049   7.837  0.4445 -0.4781  0.7916
  955MOL0     C25949  -0.517   6.028   7.732 -0.3082 -0.0720 -0.2980
  955MOL0     C25950  -0.592   6.154   7.686 -0.5398 -0.5495 -0.3926
  955MOL0     C25951  -0.730   6.114   7.644 -0.1347  0.2709 -0.3110
  955MOL0     O25952  -0.794   6.042   7.754 -0.4919 -0.0945 -0.2066
  955MOL0     C25953  -0.930   6.009   7.745  0.0725  1.0447  0.3167
  955MOL0     C25954  -0.988   5.985   7.872  1.0700  0.4580 -0.0600
  955MOL0     C25955  -1.123   5.939   7.881 -0.5111  0.0666 -0.0525
  955MOL0     C25956  -1.193   5.909   7.769  0.0407 -1.3983 -0.5971
  955MOL0     C25957  -1.332   5.852   7.784  0.2590 -0.5369  1.0577
  955MOL0     O25958  -1.362   5.800   7.900 -0.2516  0.5917  0.7807
  955MOL0     C25959  -1.485   5.737   7.903  0.4999 -0.1683 -0.3753
  955MOL0     C25960  -1.500   5.594   7.910  0.0849 -0.4114  0.5822
  955MOL0     C25961  -1.624   5.535   7.936  0.2207 -0.2522 -0.1030
  955MOL0     C25962  -1.731   5.620   7.956 -0.2673 -0.6943  0.6092
  955MOL0     O25963  -1.859   5.580   7.982 -0.2716 -0.3310  0.5170
  955MOL0     C25964  -1.896   5.451   7.940  0.1424 -0.0335  0.0884
  955MOL0     C25965  -2.046   5.412   7.959 -0.3729 -0.1675  0.1015
  955MOL0     C25966  -2.127   5.502   8.052  0.9197 -0.1413  0.0676
  955MOL0     C25967  -2.278   5.485   8.030 -0.2655 -0.7602  1.0201
  955MOL0     C25968  -2.356   5.583   8.127 -0.1333 -0.7005  0.1356
  955MOL0     C25969  -2.505   5.546   8.138 -0.0957  0.3790 -0.1567
  955MOL0     C25970  -2.564   5.651   8.221  0.0731  0.5720  0.1545
  955MOL0     C25971  -2.689   5.623   8.304  0.2931 -0.1891  0.2444
  955MOL0    Cl25972  -2.665   5.495   8.427 -0.4363  0.1972 -0.2977
  955MOL0     C25973  -1.721   5.759   7.968  0.5993 -0.6962  0.9567
  955MOL0     C25974  -1.594   5.815   7.940 -1.4923 -0.0480 -0.6691
  955MOL0     O25975  -1.410   5.861   7.686 -0.6374 -1.2904  0.2541
  955MOL0     C25976  -1.134   5.936   7.639  0.7799  0.1023 -1.0687
  955MOL0     C25977  -1.008   5.986   7.620  0.0400 -0.4369  0.3662
  955MOL0     N25978  -0.220   5.891   7.768  0.3707 -0.0613 -0.1883
  955MOL0     N25979  -0.145   5.804   7.820  0.8788  0.5408  0.5403
  955MOL0     C25980   0.945   5.720   8.618 -0.8511  0.3045 -0.0415
  955MOL0     C25981   1.080   5.718   8.639 -0.3993 -0.4221 -0.4608
  955MOL0     C25982   1.460   5.847   8.769  0.7653 -0.5096  0.3486
  955MOL0     C25983   1.558   5.787   8.692 -0.3990 -0.5286 -0.2330
  955MOL0     C25984   1.681   5.756   8.750  0.0722 -0.1603  0.1583
  955MOL0     C25985   1.724   5.808   8.870 -0.0592 -0.5852 -0.0847
  955MOL0     O25986   1.853   5.780   8.905  1.0089  0.1281 -0.3848
  955MOL0     C25987   1.893   5.793   9.047 -0.7250  0.0466 -0.5635
  955MOL0     C25988   1.821   5.687   9.144  0.7491 -0.3986  0.3418
  955MOL0     C25989   1.813   5.537   9.094  0.0001 -0.9475 -0.1384
  955MOL0     C25990   1.780   5.442   9.218  0.0477 -0.9419 -0.1953
  955MOL0     C25991   1.650   5.483   9.284 -0.3129 -0.0141 -0.4448
  955MOL0     C25992   1.542   5.526   9.322  0.2833  0.1011 -0.8438
  955MOL0     C25993   1.627   5.882   8.945  0.1748  0.8141 -0.1534
  955MOL0     C25994   1.499   5.901   8.893  0.4416 -1.1925 -0.2380
  955MOL0     H25995   1.191   5.911   8.394 -1.8212 -0.5797 -2.7861
  955MOL0     H25996   0.949   5.930   8.344  0.6825 -0.9297 -1.2247
  955MOL0     H25997   0.723   5.884   8.318 -1.0476  0.0284 -1.0637
  955MOL0     H25998   0.707   5.981   8.461  1.1461 -0.2477 -0.1871
  955MOL0     H25999   0.513   5.877   8.525  2.2202 -0.5955  1.3764
  955MOL0     H26000   0.536   5.727   8.439 -2.4279  1.0833 -1.7612
  955MOL0     H26001   0.506   5.822   8.224 -0.6323 -1.3594  1.2532
  955MOL0     H26002   0.474   5.989   8.294 -3.5443  0.5276 -0.2075
  955MOL0     H26003   0.302   5.750   8.366 -0.7675 -1.1644 -1.7730
  955MOL0     H26004   0.287   5.922   8.410  1.7393  2.5205 -1.4267
  955MOL0     H26005   0.301   5.820   8.118 -1.0578  0.9832 -1.2332
  955MOL0     H26006   0.231   5.969   8.175 -2.0486 -0.1201  0.8757
  955MOL0     H26007   0.027   5.859   8.296  1.3424  0.0019  2.0725
  955MOL0     H26008   0.093   5.706   8.249 -2.2733 -0.3520 -0.4330
  955MOL0     H26009   0.027   5.924   8.054 -0.8940 -0.2431  0.1630
  955MOL0     H26010   0.092   5.775   8.004  0.2674  1.6942 -0.5847
  955MOL0     H26011  -0.160   5.737   8.159 -1.3792 -2.5240 -0.6660
  955MOL0     H26012  -0.078   5.645   8.031  0.6183 -0.0843 -1.6251
  955MOL0     H26013  -0.324   5.915   8.074  0.1012 -1.5920  0.5957
  955MOL0     H26014  -0.360   6.142   7.804 -2.4328  0.2001 -1.7985
  955MOL0     H26015  -0.459   6.079   7.928 -1.4327 -2.8372  0.5769
  955MOL0     H26016  -0.575   5.952   7.785 -0.2420  2.4142  3.7500
  955MOL0     H26017  -0.470   5.981   7.645  1.4317 -1.1996  1.1695
  955MOL0     H26018  -0.589   6.235   7.759  0.5454  0.1325 -1.1699
  955MOL0     H26019  -0.528   6.198   7.609 -1.4981  0.3129 -0.7228
  955MOL0     H26020  -0.741   6.060   7.549 -1.5596  0.7482 -0.4347
  955MOL0     H26021  -0.783   6.209   7.638  1.8747  1.4837  0.0676
  955MOL0     H26022  -0.933   6.009   7.962 -1.1341  1.0968  1.1990
  955MOL0     H26023  -1.156   5.930   7.984  4.5688 -3.4780  1.6803
  955MOL0     H26024  -1.417   5.527   7.888  1.0453  1.1229 -0.7318
  955MOL0     H26025  -1.632   5.427   7.941  2.4159 -0.4134  1.2848
  955MOL0     H26026  -1.839   5.372   7.990  1.2037  0.0854 -0.9058
  955MOL0     H26027  -1.868   5.450   7.834 -1.6834  2.2650 -0.5003
  955MOL0     H26028  -2.052   5.307   7.989 -0.4040  0.7413  3.8324
  955MOL0     H26029  -2.095   5.399   7.863  0.8195  1.3375 -0.7613
  955MOL0     H26030  -2.123   5.610   8.033  0.0038 -0.0185  0.5277
  955MOL0     H26031  -2.096   5.493   8.156 -0.8022 -0.6034  0.5605
  955MOL0     H26032  -2.305   5.499   7.925  2.5084 -0.9195  0.2149
  955MOL0     H26033  -2.306   5.382   8.054 -0.5118 -1.1026 -0.6636
  955MOL0     H26034  -2.339   5.686   8.095 -0.7411 -0.0796  1.7135
  955MOL0     H26035  -2.304   5.570   8.222  1.2646 -1.2876 -0.6787
  955MOL0     H26036  -2.506   5.450   8.190  0.0131  2.3283  3.7946
  955MOL0     H26037  -2.554   5.543   8.040 -1.2925 -1.6927  0.4454
  955MOL0     H26038  -2.488   5.676   8.296 -0.7901 -2.3819  2.1740
  955MOL0     H26039  -2.588   5.740   8.161 -0.9827 -0.6491 -1.3285
  955MOL0     H26040  -2.764   5.589   8.231  0.2948  1.0799 -0.3934
  955MOL0     H26041  -2.720   5.716   8.353  0.6091  1.2265 -2.0701
  955MOL0     H26042  -1.809   5.819   7.988 -1.4493 -3.3966  0.6343
  955MOL0     H26043  -1.582   5.921   7.960  0.3436 -0.5226  1.0377
  955MOL0     H26044  -1.192   5.918   7.548 -0.0651 -3.1349 -0.0571
  955MOL0     H26045  -0.981   6.004   7.516  0.2053 -0.0492  0.4721
  955MOL0     H26046   0.873   5.673   8.684  0.5346  0.2661  1.4971
  955MOL0     H26047   1.130   5.663   8.718  0.0604  1.6548  0.7712
  955MOL0     H26048   1.543   5.751   8.591  0.1355 -0.5015 -0.3258
  955MOL0     H26049   1.755   5.696   8.697  2.0130  0.9954  1.4571
  955MOL0     H26050   1.875   5.897   9.076 -1.9464 -0.3121  0.0837
  955MOL0     H26051   2.000   5.777   9.059 -0.8777  0.3866  1.7078
  955MOL0     H26052   1.868   5.701   9.242 -3.5374  1.4844  2.4177
  955MOL0     H26053   1.716   5.711   9.165  0.8407  0.6798 -0.3653
  955MOL0     H26054   1.911   5.510   9.053  0.4468 -0.2172  0.4408
  955MOL0     H26055   1.737   5.533   9.015  1.8282  0.6304 -2.0818
  955MOL0     H26056   1.773   5.334   9.204 -2.9479 -1.1471  1.9047
  955MOL0     H26057   1.866   5.457   9.284  2.2343 -0.8771 -2.9020
  955MOL0     H26058   1.454   5.580   9.351  0.4132 -0.4260  0.6259
  955MOL0     H26059   1.657   5.917   9.043  0.5464  0.6968 -0.2260
  955MOL0     H26060   1.432   5.945   8.967  2.7047 -1.6965  2.2366
  956MOL0     O26061   3.687   7.596   5.327 -0.1993 -0.5004  0.7108
  956MOL0     C26062   3.683   7.608   5.204 -0.3754  0.6961 -0.0593
  956MOL0     O26063   3.566   7.620   5.127  0.1512  0.5516  0.4664
  956MOL0     C26064   3.438   7.623   5.178 -0.2763 -0.2839 -0.9021
  956MOL0     C26065   3.339   7.661   5.084 -0.9355 -0.3317 -0.1468
  956MOL0     C26066   3.205   7.665   5.116 -0.4459  0.0867 -1.0660
  956MOL0     C26067   3.151   7.634   5.243 -0.0908 -0.8536  0.0213
  956MOL0     O26068   3.017   7.655   5.254 -0.0544  0.1070  0.0069
  956MOL0     C26069   2.946   7.580   5.353  0.1923  0.8866 -0.0286
  956MOL0     C26070   2.787   7.590   5.343  0.3840  0.9091 -0.2402
  956MOL0     C26071   2.724   7.531   5.218  1.0799 -0.2379  0.7653
  956MOL0     C26072   2.570   7.560   5.204  0.6104  0.4674 -0.6872
  956MOL0     C26073   2.512   7.486   5.088 -1.0056  0.7172 -0.2525
  956MOL0     C26074   2.374   7.529   5.067 -0.0306 -1.1025 -0.6093
  956MOL0     C26075   2.300   7.435   4.979 -0.4402 -0.0171  0.3894
  956MOL0     C26076   2.165   7.487   4.941 -1.2150  0.3133 -0.4582
  956MOL0     N26077   2.055   7.390   4.947 -0.1002 -0.3811 -0.4719
  956MOL0     C26078   2.000   7.332   4.836  0.0332 -0.0179  0.0434
  956MOL0     C26079   1.909   7.239   4.879 -0.7996 -0.9618  0.0127
  956MOL0     C26080   1.808   7.168   4.797  0.3453  0.3705  0.5248
  956MOL0     C26081   1.843   7.019   4.798  0.0926 -0.4946 -1.1223
  956MOL0     C26082   1.737   6.942   4.720  0.2718 -0.6950  0.2600
  956MOL0     C26083   1.711   6.976   4.576  0.1031  0.1826  0.2041
  956MOL0     O26084   1.594   6.901   4.535 -0.0724  0.6222 -0.2354
  956MOL0     C26085   1.549   6.922   4.408 -0.3813  0.3643  0.6125
  956MOL0     C26086   1.599   7.019   4.324 -0.1604  0.5340  0.1235
  956MOL0     C26087   1.538   7.050   4.199 -0.0728 -0.3538 -0.1050
  956MOL0     C26088   1.432   6.974   4.145 -0.4849  0.8062  0.1422
  956MOL0     C26089   1.364   7.001   4.018 -0.6940  0.5508 -0.6067
  956MOL0     O26090   1.233   6.976   4.007  0.3269 -0.0698 -0.0006
  956MOL0     C26091   1.178   6.985   3.883  0.1138 -0.1146  0.0756
  956MOL0     C26092   1.108   6.873   3.836 -0.2676 -0.3335  0.2852
  956MOL0     C26093   1.049   6.888   3.709  1.2761 -0.6291  0.3269
  956MOL0     C26094   1.075   7.004   3.629  0.2026  0.1675 -0.5835
  956MOL0     O26095   1.011   7.018   3.507  0.0064 -0.0597 -0.5971
  956MOL0     C26096   0.927   6.910   3.453 -0.6555 -0.0214  0.1552
  956MOL0     C26097   0.879   6.938   3.307 -0.3557 -0.7001 -0.7956
  956MOL0     C26098   0.833   7.093   3.279 -0.1931  0.5524  0.6678
  956MOL0     C26099   0.759   7.107   3.145 -1.1734 -0.4058 -0.4761
  956MOL0     C26100   0.732   7.255   3.127 -0.0392 -0.3375  0.5941
  956MOL0     C26101   0.649   7.291   3.005  0.4386  0.1674  0.1446
  956MOL0     C26102   0.737   7.287   2.878 -0.0613  0.8410 -0.9613
  956MOL0     C26103   0.652   7.312   2.754 -0.3680 -0.4631 -0.1345
  956MOL0    Cl26104   0.524   7.200   2.712 -0.0144  0.1386 -0.3221
  956MOL0     C26105   1.135   7.112   3.682 -0.3054 -1.0459 -0.2312
  956MOL0     C26106   1.180   7.109   3.812 -0.4926  0.7585  0.0169
  956MOL0     O26107   1.445   7.020   3.926  0.6302 -0.4046  0.4432
  956MOL0     C26108   1.381   6.881   4.243  0.5873 -0.1600  0.6916
  956MOL0     C26109   1.439   6.845   4.369  0.8526  0.4751 -0.4788
  956MOL0     N26110   1.904   7.248   5.013 -0.4960 -0.7994 -0.9974
  956MOL0     N26111   1.992   7.339   5.051 -0.3947  0.8431  0.4669
  956MOL0     C26112   3.249   7.594   5.338  0.2264  0.5145 -0.5456
  956MOL0     C26113   3.387   7.598   5.306  0.3608 -0.1778  0.6301
  956MOL0     C26114   3.820   7.606   5.143  0.4238 -0.7643 -0.8662
  956MOL0     C26115   3.938   7.612   5.220 -0.2706  0.5609  0.0064
  956MOL0     C26116   4.053   7.620   5.146 -0.1424 -0.0976  0.4698
  956MOL0     C26117   4.056   7.614   5.005  0.1183  0.0410 -0.0955
  956MOL0     O26118   4.177   7.615   4.943 -0.0667 -0.5748  0.4570
  956MOL0     C26119   4.189   7.657   4.807  0.0900  1.0099 -0.3863
  956MOL0     C26120   4.248   7.539   4.732  1.0140 -0.4444 -0.0112
  956MOL0     C26121   4.317   7.577   4.592 -0.0966  0.5329 -0.3012
  956MOL0     C26122   4.441   7.665   4.607  0.2515  0.3956 -0.4966
  956MOL0     C26123   4.544   7.596   4.678 -1.5238  0.9795 -0.6381
  956MOL0     C26124   4.642   7.539   4.740 -0.3522  0.6332 -0.6122
  956MOL0     C26125   3.933   7.606   4.937 -0.3287 -0.7386  0.4285
  956MOL0     C26126   3.815   7.600   5.005 -0.1254 -0.4399 -0.6018
  956MOL0     H26127   3.383   7.698   4.992  2.2864 -0.3416  1.2746
  956MOL0     H26128   3.141   7.688   5.031 -2.3652 -1.5648 -0.1751
  956MOL0     H26129   2.965   7.620   5.453  0.5330  0.2924  0.1508
  956MOL0     H26130   2.975   7.475   5.346 -0.3261  0.7269  0.1855
  956MOL0     H26131   2.752   7.693   5.356 -1.5631  0.2707 -0.0393
  956MOL0     H26132   2.732   7.531   5.417  1.5414  0.3004  0.1555
  956MOL0     H26133   2.757   7.428   5.207 -0.2653 -0.8846  2.3881
  956MOL0     H26134   2.770   7.587   5.135 -0.5096 -2.0616 -1.4536
  956MOL0     H26135   2.516   7.517   5.289 -0.1396  0.2274 -1.2744
  956MOL0     H26136   2.556   7.669   5.199  0.0505  0.5116  1.0216
  956MOL0     H26137   2.524   7.382   5.119  0.5740  1.1332  0.6507
  956MOL0     H26138   2.574   7.506   5.000  1.5226  0.4643  1.3527
  956MOL0     H26139   2.367   7.631   5.030 -1.4620 -1.2052 -0.6887
  956MOL0     H26140   2.312   7.525   5.158 -4.0610 -1.3178 -3.1088
  956MOL0     H26141   2.351   7.430   4.883 -2.4759 -0.0553 -0.7380
  956MOL0     H26142   2.291   7.329   5.006  0.1046 -0.4978 -1.2174
  956MOL0     H26143   2.179   7.530   4.842  3.2086  3.0046  1.0360
  956MOL0     H26144   2.139   7.573   5.004  0.9039  1.3760 -0.9639
  956MOL0     H26145   2.012   7.379   4.739  1.9447  2.7755  1.5072
  956MOL0     H26146   1.811   7.208   4.695 -0.5010 -0.1989  0.2659
  956MOL0     H26147   1.707   7.190   4.834  0.7330  0.6693  1.4093
  956MOL0     H26148   1.846   6.975   4.898 -0.8229  1.5655 -0.1209
  956MOL0     H26149   1.934   7.015   4.736  0.3651  1.3885 -0.8997
  956MOL0     H26150   1.775   6.840   4.722 -0.3401 -1.0342 -2.1530
  956MOL0     H26151   1.647   6.933   4.782  0.4714 -1.4973  0.4453
  956MOL0     H26152   1.798   6.949   4.516 -0.4214  0.0516 -0.5231
  956MOL0     H26153   1.679   7.081   4.575 -1.2714 -0.2099  0.1233
  956MOL0     H26154   1.674   7.087   4.365  1.7838 -1.0079 -0.7373
  956MOL0     H26155   1.580   7.129   4.137  0.9536 -0.9358 -0.1709
  956MOL0     H26156   1.091   6.791   3.905  0.7572 -0.7371  0.0676
  956MOL0     H26157   0.990   6.805   3.671  1.7226 -0.8908  0.1935
  956MOL0     H26158   0.846   6.883   3.521  1.6797  0.5857  3.4577
  956MOL0     H26159   0.985   6.818   3.445 -1.4980 -0.3942 -3.6228
  956MOL0     H26160   0.797   6.868   3.288 -0.4660 -0.5389 -0.9208
  956MOL0     H26161   0.968   6.927   3.244  0.2362  1.3638 -0.3995
  956MOL0     H26162   0.915   7.163   3.296  0.0889  0.5454 -0.5593
  956MOL0     H26163   0.763   7.121   3.358  1.6224  0.7204  2.2857
  956MOL0     H26164   0.831   7.065   3.074  1.2774  1.2244  0.9007
  956MOL0     H26165   0.666   7.050   3.150 -0.7086 -1.3775 -2.0874
  956MOL0     H26166   0.823   7.317   3.119 -2.4172  3.4596  0.2107
  956MOL0     H26167   0.681   7.297   3.215 -1.7537 -0.5322 -0.2670
  956MOL0     H26168   0.603   7.390   3.012 -0.6401 -0.3283  0.2417
  956MOL0     H26169   0.567   7.219   3.003  0.7942 -0.2374 -1.0998
  956MOL0     H26170   0.822   7.356   2.884 -1.2546  2.2471  0.6507
  956MOL0     H26171   0.778   7.188   2.859  3.0248  2.1808 -2.0510
  956MOL0     H26172   0.719   7.313   2.668 -1.0262 -0.4245 -0.6580
  956MOL0     H26173   0.612   7.414   2.766 -0.4185 -0.3328 -1.3216
  956MOL0     H26174   1.135   7.208   3.631 -2.7892 -0.2104  1.1530
  956MOL0     H26175   1.236   7.192   3.854  1.3156 -1.2535  1.7951
  956MOL0     H26176   1.289   6.827   4.220 -1.1989  1.3515  3.6596
  956MOL0     H26177   1.400   6.771   4.438  3.9328  2.0498  3.3353
  956MOL0     H26178   3.221   7.585   5.442  2.7637  1.1277  0.2846
  956MOL0     H26179   3.456   7.566   5.383  0.6230 -0.5794  0.2325
  956MOL0     H26180   3.945   7.609   5.329 -1.8294 -4.3424  0.2346
  956MOL0     H26181   4.150   7.624   5.195 -0.8958  0.8183  1.9491
  956MOL0     H26182   4.262   7.738   4.795  1.3712  0.3233  2.1548
  956MOL0     H26183   4.103   7.684   4.745  0.6395 -0.9873 -2.1322
  956MOL0     H26184   4.320   7.509   4.808  0.8137  0.6826  0.6496
  956MOL0     H26185   4.170   7.465   4.714  1.7170 -1.6155  1.5082
  956MOL0     H26186   4.241   7.632   4.536  0.5370  1.3887 -0.3369
  956MOL0     H26187   4.338   7.482   4.542 -2.3275 -0.2382  0.1308
  956MOL0     H26188   4.470   7.701   4.508 -0.9195  0.1989 -0.9264
  956MOL0     H26189   4.434   7.757   4.667 -1.0203 -0.3199  0.5128
  956MOL0     H26190   4.724   7.485   4.781 -0.2362  0.7752 -0.6583
  956MOL0     H26191   3.935   7.622   4.830  0.7308 -0.8107  0.4307
  956MOL0     H26192   3.721   7.601   4.951 -0.3376  0.3964 -0.2266
  957MOL0     O26193   5.583   4.779   6.182 -0.2853  0.0942  0.1597
  957MOL0     C26194   5.591   4.899   6.148 -0.6883 -0.0091  0.1174
  957MOL0     O26195   5.489   4.979   6.095  0.6791  0.0808 -0.7062
  957MOL0     C26196   5.381   4.906   6.063 -0.2245  0.2818  0.5118
  957MOL0     C26197   5.282   4.876   6.159 -0.0025 -0.2467 -0.2186
  957MOL0     C26198   5.164   4.812   6.117 -0.8042 -0.8816  0.2987
  957MOL0     C26199   5.162   4.765   5.975 -0.6239 -0.0231  0.0081
  957MOL0     O26200   5.062   4.697   5.914 -0.4178  0.0089 -0.0901
  957MOL0     C26201   4.966   4.640   6.006  0.4969 -0.7790  0.3324
  957MOL0     C26202   4.860   4.572   5.912  0.3103 -0.0687 -0.6528
  957MOL0     C26203   4.768   4.480   5.989 -0.0404  1.0614 -1.0927
  957MOL0     C26204   4.624   4.467   5.929 -0.0813  0.5618 -0.0785
  957MOL0     C26205   4.521   4.387   6.017  0.4463  0.6014 -0.4881
  957MOL0     C26206   4.376   4.445   5.996 -0.6470 -0.1397 -0.2622
  957MOL0     C26207   4.329   4.419   5.854 -0.0559 -0.5629 -0.1846
  957MOL0     C26208   4.184   4.475   5.834 -0.0585  0.1237  0.7513
  957MOL0     N26209   4.080   4.426   5.926 -0.3755 -0.5423  0.0069
  957MOL0     C26210   4.038   4.300   5.935 -0.2945  0.0740 -0.4129
  957MOL0     C26211   3.940   4.297   6.031  0.7271 -0.6816  0.7706
  957MOL0     C26212   3.861   4.169   6.065 -0.3743 -0.3330  0.0610
  957MOL0     C26213   3.720   4.174   6.013  0.5174 -0.1219  0.5974
  957MOL0     C26214   3.655   4.038   6.011 -0.4083  1.0347 -0.3224
  957MOL0     C26215   3.502   4.042   5.995 -0.2757  0.2747 -0.3042
  957MOL0     O26216   3.451   4.101   5.881 -0.1334 -0.5216 -0.0872
  957MOL0     C26217   3.315   4.093   5.863  0.5487  1.2258  0.2783
  957MOL0     C26218   3.259   3.972   5.799 -0.4478  0.3948 -0.1724
  957MOL0     C26219   3.124   3.956   5.782  0.7689 -0.0997  0.0585
  957MOL0     C26220   3.027   4.054   5.829  0.2739 -0.5957  0.0480
  957MOL0     C26221   2.883   4.032   5.829  0.8741  0.4250 -0.1637
  957MOL0     O26222   2.801   4.117   5.889  0.1955 -0.3685  0.2237
  957MOL0     C26223   2.671   4.087   5.875 -0.4657 -0.5765  0.0468
  957MOL0     C26224   2.601   4.015   5.973  0.5576 -0.1222  0.2373
  957MOL0     C26225   2.465   3.996   5.952  0.2471 -0.1262  0.6089
  957MOL0     C26226   2.394   4.059   5.846  0.4327 -0.1692 -0.4504
  957MOL0     O26227   2.260   4.041   5.854 -0.2061 -0.1052  0.4952
  957MOL0     C26228   2.181   4.129   5.765  0.1440  0.0275 -0.0654
  957MOL0     C26229   2.036   4.078   5.763  0.0916  0.4349 -0.1629
  957MOL0     C26230   2.024   3.972   5.662 -0.0713  0.4587 -0.0424
  957MOL0     C26231   1.876   3.933   5.663  0.0772 -0.0460  0.1059
  957MOL0     C26232   1.852   3.805   5.578  0.1794 -0.5930 -0.6269
  957MOL0     C26233   1.873   3.832   5.431 -0.2720  1.1451  0.6828
  957MOL0     C26234   1.818   3.711   5.356 -0.6012 -0.1782  0.1358
  957MOL0     C26235   1.840   3.711   5.205 -0.4472  0.2430  0.2608
  957MOL0    Cl26236   2.001   3.665   5.145  0.4706  0.2771  0.0657
  957MOL0     C26237   2.463   4.139   5.751  0.6268 -0.3663 -1.2967
  957MOL0     C26238   2.599   4.146   5.770  1.2665 -0.0281  0.8626
  957MOL0     O26239   2.852   3.930   5.778  0.5300  0.7031  0.4037
  957MOL0     C26240   3.087   4.172   5.886 -0.5578  0.0655  0.8462
  957MOL0     C26241   3.225   4.195   5.892 -1.2888 -0.5197  0.3894
  957MOL0     N26242   3.926   4.429   6.066 -0.2432 -0.1080 -0.6831
  957MOL0     N26243   4.009   4.505   6.007 -0.0965 -0.4490  0.2520
  957MOL0     C26244   5.261   4.788   5.888  0.1529 -0.0583  0.6006
  957MOL0     C26245   5.371   4.849   5.931 -0.2203  0.0610 -0.7060
  957MOL0     C26246   5.723   4.967   6.161 -0.0111 -0.5479 -0.5145
  957MOL0     C26247   5.731   5.106   6.170 -0.6801  0.0139  0.3891
  957MOL0     C26248   5.848   5.176   6.171  0.2309  0.2670 -0.3483
  957MOL0     C26249   5.973   5.109   6.171  0.8127  0.1638  0.7317
  957MOL0     O26250   6.084   5.176   6.171  0.0195 -0.1824 -0.3504
  957MOL0     C26251   6.217   5.122   6.174 -1.0677 -0.6825 -0.0661
  957MOL0     C26252   6.311   5.195   6.264  0.2264  0.0939 -0.2894
  957MOL0     C26253   6.304   5.347   6.244  0.3213  0.5544 -0.0080
  957MOL0     C26254   6.403   5.402   6.338  0.6104  0.1271  0.2738
  957MOL0     C26255   6.416   5.552   6.331  0.2062  0.8231 -0.6791
  957MOL0     C26256   6.422   5.670   6.318  0.2714 -0.0391  0.2747
  957MOL0     C26257   5.968   4.975   6.160  0.1230  0.3806 -1.1931
  957MOL0     C26258   5.848   4.899   6.155  0.1271  0.1394 -0.1443
  957MOL0     H26259   5.294   4.901   6.264  1.6763  0.6140 -0.5859
  957MOL0     H26260   5.081   4.799   6.185 -1.3815  1.1584  0.0608
  957MOL0     H26261   4.915   4.722   6.058 -2.9017 -0.7769 -2.6124
  957MOL0     H26262   4.995   4.566   6.081 -3.5248 -2.7779  0.1653
  957MOL0     H26263   4.914   4.504   5.846  0.3918 -0.8099  0.1611
  957MOL0     H26264   4.801   4.651   5.864  0.2844  0.3118  0.0023
  957MOL0     H26265   4.754   4.529   6.086  1.9753  2.1885 -1.3204
  957MOL0     H26266   4.814   4.381   5.997  1.0628  1.6152 -0.3743
  957MOL0     H26267   4.585   4.568   5.912 -0.3453  0.4848  0.0613
  957MOL0     H26268   4.641   4.415   5.834 -0.3828  3.3440 -1.7840
  957MOL0     H26269   4.546   4.386   6.123  0.1256  0.8322 -0.4078
  957MOL0     H26270   4.518   4.280   5.992  1.7008  0.7480 -1.3440
  957MOL0     H26271   4.365   4.548   6.031 -2.1094  0.5912 -2.6111
  957MOL0     H26272   4.315   4.391   6.068 -2.5226  2.5747  0.3143
  957MOL0     H26273   4.404   4.457   5.784  0.6764 -2.3395 -0.4047
  957MOL0     H26274   4.319   4.312   5.834 -1.9101 -0.5514  0.4297
  957MOL0     H26275   4.148   4.441   5.737  1.0067 -2.2561  1.1353
  957MOL0     H26276   4.191   4.585   5.835 -0.9825  0.2324 -0.9856
  957MOL0     H26277   4.072   4.218   5.872  1.6585  0.3175  0.2483
  957MOL0     H26278   3.849   4.166   6.173  1.3975 -1.5198  0.2756
  957MOL0     H26279   3.918   4.086   6.023  1.6597  1.5380 -1.1306
  957MOL0     H26280   3.717   4.225   5.916  2.2638  0.6196  0.8912
  957MOL0     H26281   3.658   4.235   6.079  2.9554  1.8347  1.2334
  957MOL0     H26282   3.689   3.986   5.921 -0.6517 -1.0946  0.7477
  957MOL0     H26283   3.693   3.978   6.094 -2.3534  1.5735  1.0379
  957MOL0     H26284   3.468   4.097   6.083 -1.1681 -1.1789  0.2871
  957MOL0     H26285   3.463   3.942   6.011 -0.7200  0.5370  0.3035
  957MOL0     H26286   3.338   3.900   5.778 -1.1008 -1.1452  2.2413
  957MOL0     H26287   3.075   3.870   5.738 -0.4232  0.6145 -0.0610
  957MOL0     H26288   2.645   3.976   6.065 -0.8422  2.2541  2.0312
  957MOL0     H26289   2.409   3.940   6.026 -3.5008  1.2321 -0.9473
  957MOL0     H26290   2.218   4.133   5.662  0.8397  0.8576  0.1997
  957MOL0     H26291   2.190   4.229   5.809 -0.7582 -0.5486  1.5144
  957MOL0     H26292   1.973   4.164   5.742  1.1193  1.0382 -0.8740
  957MOL0     H26293   2.018   4.050   5.867  2.5729  4.5951  1.6250
  957MOL0     H26294   2.078   3.881   5.688 -2.1635  0.1357  3.8394
  957MOL0     H26295   2.063   4.009   5.567 -0.4775 -0.6654 -0.6725
  957MOL0     H26296   1.828   3.912   5.758 -0.4563  0.4324 -0.0532
  957MOL0     H26297   1.826   4.025   5.632 -0.7695  0.6240  3.1675
  957MOL0     H26298   1.752   3.763   5.590  0.4089 -0.7454  1.0547
  957MOL0     H26299   1.924   3.730   5.612  0.9938 -0.2054 -1.4341
  957MOL0     H26300   1.979   3.844   5.407  0.1006 -1.6192  0.6504
  957MOL0     H26301   1.816   3.922   5.407  0.3900  1.5735  0.6950
  957MOL0     H26302   1.849   3.611   5.388 -5.8236 -2.8646 -1.8999
  957MOL0     H26303   1.711   3.716   5.382 -0.3759  0.6828  0.9755
  957MOL0     H26304   1.839   3.814   5.169  0.1890 -0.6391 -2.4827
  957MOL0     H26305   1.773   3.660   5.135  0.1250  0.9463 -0.8127
  957MOL0     H26306   2.416   4.197   5.673  0.2007 -0.5133 -1.1567
  957MOL0     H26307   2.658   4.202   5.698  2.1278 -1.9265  0.0407
  957MOL0     H26308   3.022   4.255   5.915  1.6776  1.9776  0.6545
  957MOL0     H26309   3.281   4.282   5.922 -2.6712  1.3838 -2.2329
  957MOL0     H26310   5.257   4.741   5.789 -1.1492 -1.2957  1.2028
  957MOL0     H26311   5.458   4.878   5.872 -0.1718  3.7870  0.8929
  957MOL0     H26312   5.641   5.159   6.201 -0.4254  1.2577 -0.9249
  957MOL0     H26313   5.844   5.284   6.171 -3.6590  0.2817  0.2010
  957MOL0     H26314   6.246   5.130   6.069  0.0001 -1.7964  0.1268
  957MOL0     H26315   6.216   5.018   6.207  2.0151 -1.1213 -0.9868
  957MOL0     H26316   6.288   5.168   6.368 -1.2119  2.5876  0.1146
  957MOL0     H26317   6.414   5.169   6.240  0.3047  0.7038 -0.6284
  957MOL0     H26318   6.206   5.393   6.263 -0.2147  0.0720 -1.4629
  957MOL0     H26319   6.323   5.360   6.137 -1.1971 -4.4323 -1.1680
  957MOL0     H26320   6.378   5.373   6.440  2.0563  1.1542  0.9412
  957MOL0     H26321   6.499   5.351   6.325 -0.5064 -2.1802  0.5854
  957MOL0     H26322   6.431   5.777   6.316  0.2785 -0.0481 -0.3883
  957MOL0     H26323   6.048   4.902   6.166  0.7269  1.1279  0.2659
  957MOL0     H26324   5.844   4.791   6.158 -1.2566  0.1474 -0.6762
  958MOL0     O26325   0.506   4.742   4.362 -0.1394 -0.0735 -0.2127
  958MOL0     C26326   0.496   4.793   4.475 -0.3426 -0.5247  0.3173
  958MOL0     O26327   0.393   4.878   4.518 -0.4748 -0.2209 -0.4728
  958MOL0     C26328   0.292   4.903   4.437  0.6198  0.6000  1.0028
  958MOL0     C26329   0.208   4.810   4.388  0.3295  0.0638  0.2704
  958MOL0     C26330   0.086   4.848   4.317 -0.6402 -0.3695  0.6929
  958MOL0     C26331   0.057   4.979   4.277 -0.3068  0.1878 -0.2782
  958MOL0     O26332  -0.052   5.007   4.202  0.4064 -0.6519 -0.4546
  958MOL0     C26333  -0.185   4.974   4.254  0.3648  0.0644 -0.4623
  958MOL0     C26334  -0.291   5.022   4.151 -0.1988  0.1890 -0.1612
  958MOL0     C26335  -0.419   4.948   4.166 -0.0455  0.0419 -1.1258
  958MOL0     C26336  -0.410   4.794   4.130  0.1413  0.7743 -0.0337
  958MOL0     C26337  -0.552   4.748   4.081 -0.0399 -0.1014  0.4088
  958MOL0     C26338  -0.662   4.755   4.179  0.6060  1.0439  0.6940
  958MOL0     C26339  -0.800   4.727   4.117  0.8903  0.9035 -0.7524
  958MOL0     C26340  -0.884   4.689   4.242  0.1826  0.0879 -0.8169
  958MOL0     N26341  -1.033   4.700   4.203 -1.0389  0.2238 -0.6451
  958MOL0     C26342  -1.105   4.611   4.135  0.3682  0.8491  0.6719
  958MOL0     C26343  -1.233   4.628   4.169 -0.0908 -0.3567 -0.5178
  958MOL0     C26344  -1.355   4.550   4.116  1.1371 -0.0868  0.4141
  958MOL0     C26345  -1.458   4.509   4.217 -0.0540 -0.4572  0.4945
  958MOL0     C26346  -1.570   4.613   4.220  0.2547  0.6393  0.6345
  958MOL0     C26347  -1.679   4.574   4.320  0.5786  0.4590 -0.0580
  958MOL0     O26348  -1.737   4.445   4.308 -0.5944 -0.5091  0.0342
  958MOL0     C26349  -1.825   4.402   4.404 -0.3396  0.4384  0.3086
  958MOL0     C26350  -1.848   4.455   4.533 -0.2789  0.0479  0.8467
  958MOL0     C26351  -1.946   4.412   4.609  1.2894 -0.0558 -0.7274
  958MOL0     C26352  -2.033   4.309   4.560 -0.3622  0.8146 -1.1307
  958MOL0     C26353  -2.157   4.274   4.645 -0.6538  0.3080  0.6084
  958MOL0     O26354  -2.179   4.356   4.757  0.1310 -0.0619 -0.3606
  958MOL0     C26355  -2.292   4.362   4.826 -0.4977 -0.6781 -0.3646
  958MOL0     C26356  -2.424   4.312   4.793 -0.0081  0.1596 -0.4718
  958MOL0     C26357  -2.532   4.328   4.883 -1.0168  0.4906 -0.5709
  958MOL0     C26358  -2.517   4.402   5.005  0.0594  0.6266  0.6778
  958MOL0     O26359  -2.618   4.399   5.104 -0.2110 -0.1433 -0.3762
  958MOL0     C26360  -2.652   4.526   5.161  0.5759  0.5383  0.0498
  958MOL0     C26361  -2.805   4.545   5.170  0.1654  0.5192  0.6527
  958MOL0     C26362  -2.861   4.437   5.268  1.0582  0.9410 -0.0828
  958MOL0     C26363  -3.010   4.422   5.269 -0.4621  0.0085  0.0841
  958MOL0     C26364  -3.072   4.371   5.402 -0.2157  0.3668 -0.2584
  958MOL0     C26365  -3.227   4.370   5.387  0.3963 -0.9601 -0.3171
  958MOL0     C26366  -3.298   4.312   5.503 -0.0512 -0.2020 -0.1651
  958MOL0     C26367  -3.257   4.358   5.636  0.7331  0.2624 -0.3219
  958MOL0    Cl26368  -3.368   4.262   5.741 -0.1611  0.5224  0.4377
  958MOL0     C26369  -2.393   4.459   5.025  0.2794 -0.9752 -1.1164
  958MOL0     C26370  -2.279   4.436   4.944  0.0302 -0.2074  0.6089
  958MOL0     O26371  -2.218   4.173   4.617  0.4177 -0.3552  0.3401
  958MOL0     C26372  -2.005   4.250   4.439  0.1710 -0.2173  0.2389
  958MOL0     C26373  -1.903   4.293   4.359 -0.1397  0.1230 -0.1284
  958MOL0     N26374  -1.245   4.734   4.253 -1.0884 -0.6338 -0.7031
  958MOL0     N26375  -1.120   4.779   4.274 -0.2804 -0.6434 -0.4827
  958MOL0     C26376   0.148   5.073   4.315 -0.1166 -0.7623 -1.2486
  958MOL0     C26377   0.260   5.037   4.396 -0.5162  0.5286  0.8491
  958MOL0     C26378   0.624   4.787   4.560  0.4832  0.0721 -0.6772
  958MOL0     C26379   0.721   4.691   4.545 -0.1136  0.3655  0.3008
  958MOL0     C26380   0.837   4.685   4.620 -0.0124 -0.5966  0.8702
  958MOL0     C26381   0.852   4.765   4.737 -0.2729 -0.2394  0.9514
  958MOL0     O26382   0.948   4.755   4.834 -0.5104  0.1290 -0.2193
  958MOL0     C26383   1.028   4.635   4.837 -0.4515 -0.2950 -0.1233
  958MOL0     C26384   1.091   4.625   4.980  0.6708  0.6126  0.1849
  958MOL0     C26385   1.125   4.481   5.000 -0.6730  0.2050  0.4047
  958MOL0     C26386   1.158   4.432   5.147 -0.0049  0.1368  0.3920
  958MOL0     C26387   1.303   4.463   5.183  0.3239  0.1987  0.3511
  958MOL0     C26388   1.417   4.492   5.219  0.1190  0.2292  0.0421
  958MOL0     C26389   0.745   4.856   4.755  0.4909 -1.1882  0.3630
  958MOL0     C26390   0.638   4.868   4.667  0.4486  0.6098 -0.7128
  958MOL0     H26391   0.246   4.708   4.392  0.4493  0.1433  3.1606
  958MOL0     H26392   0.023   4.766   4.282 -1.4171  0.6280 -0.3043
  958MOL0     H26393  -0.208   5.021   4.350  1.7129 -2.0282  0.9577
  958MOL0     H26394  -0.206   4.868   4.269  1.9220 -0.3216 -0.8191
  958MOL0     H26395  -0.252   5.017   4.049 -1.3108 -0.0393 -0.5945
  958MOL0     H26396  -0.314   5.128   4.166 -1.0291 -0.2319  1.7995
  958MOL0     H26397  -0.501   4.990   4.107 -1.3370 -1.2459 -0.3152
  958MOL0     H26398  -0.463   4.966   4.265  2.2752  2.2235 -0.4000
  958MOL0     H26399  -0.329   4.782   4.058 -1.3898  3.0377 -2.2802
  958MOL0     H26400  -0.375   4.733   4.214  2.4182 -0.8907 -2.0376
  958MOL0     H26401  -0.530   4.654   4.031  2.5903  0.5963  0.0856
  958MOL0     H26402  -0.577   4.815   3.998  0.3417  1.1307  1.2563
  958MOL0     H26403  -0.660   4.859   4.212 -0.7602  1.4619 -0.4552
  958MOL0     H26404  -0.632   4.684   4.257 -0.0309  2.2305  2.0712
  958MOL0     H26405  -0.828   4.820   4.068 -0.2397  0.2615 -1.3581
  958MOL0     H26406  -0.797   4.636   4.057  2.3975  0.5449 -0.1733
  958MOL0     H26407  -0.874   4.746   4.335 -2.1545 -0.5797 -0.0719
  958MOL0     H26408  -0.870   4.582   4.261 -2.3034  0.2249  2.9498
  958MOL0     H26409  -1.074   4.532   4.067 -0.5772  2.5316 -1.8438
  958MOL0     H26410  -1.315   4.473   4.050  0.3468  0.2614 -0.4998
  958MOL0     H26411  -1.395   4.619   4.040  5.5142  1.4992 -0.7477
  958MOL0     H26412  -1.404   4.498   4.312 -2.7169  0.1922  2.2016
  958MOL0     H26413  -1.503   4.415   4.184  1.2108 -1.5800  1.8398
  958MOL0     H26414  -1.545   4.714   4.252  0.7373  1.2685 -1.5395
  958MOL0     H26415  -1.604   4.617   4.116 -0.5843 -0.8561  0.8175
  958MOL0     H26416  -1.760   4.646   4.305  1.0175  0.2965 -4.3548
  958MOL0     H26417  -1.640   4.582   4.422  0.2540  1.3282 -0.0008
  958MOL0     H26418  -1.795   4.533   4.588 -5.4239  2.1532  3.5402
  958MOL0     H26419  -1.964   4.455   4.707 -0.0197 -1.9081 -0.1000
  958MOL0     H26420  -2.450   4.257   4.703  2.8328 -1.2615 -0.5131
  958MOL0     H26421  -2.628   4.282   4.860 -0.0927 -1.7109 -0.2550
  958MOL0     H26422  -2.615   4.602   5.092 -0.1533  0.3532 -0.5576
  958MOL0     H26423  -2.606   4.548   5.258  3.5443  1.3296 -1.4513
  958MOL0     H26424  -2.857   4.525   5.076 -0.8359 -1.4746  1.5759
  958MOL0     H26425  -2.832   4.647   5.200 -0.0645  0.1598  1.6976
  958MOL0     H26426  -2.833   4.460   5.371 -0.8105 -0.4974  0.8109
  958MOL0     H26427  -2.807   4.345   5.244  0.0495  0.5485 -0.9136
  958MOL0     H26428  -3.056   4.516   5.237  1.6305  0.8323 -0.6765
  958MOL0     H26429  -3.038   4.349   5.193 -5.0478  0.3373  1.1495
  958MOL0     H26430  -3.042   4.443   5.480 -1.4087  0.5552  0.0524
  958MOL0     H26431  -3.026   4.274   5.424 -1.1259  0.3298  1.7791
  958MOL0     H26432  -3.254   4.308   5.300 -1.4438  1.6861 -1.7672
  958MOL0     H26433  -3.265   4.471   5.373 -1.6459 -0.9596  3.7532
  958MOL0     H26434  -3.406   4.326   5.495  0.0998  0.6518 -0.8558
  958MOL0     H26435  -3.285   4.204   5.496 -3.3043 -0.6105 -2.0962
  958MOL0     H26436  -3.284   4.462   5.656 -2.2538  0.1895 -3.2018
  958MOL0     H26437  -3.156   4.322   5.659  0.1394 -0.7706  0.7845
  958MOL0     H26438  -2.369   4.512   5.116  4.7428  1.9723 -3.5988
  958MOL0     H26439  -2.184   4.468   4.986 -0.3296  1.9309 -0.1327
  958MOL0     H26440  -2.069   4.170   4.402  1.3079 -1.5704  1.1079
  958MOL0     H26441  -1.884   4.255   4.259  1.6654  3.0991 -1.0558
  958MOL0     H26442   0.128   5.177   4.292 -0.0753 -0.4122  0.2205
  958MOL0     H26443   0.324   5.116   4.434 -0.3386  0.6760  0.2554
  958MOL0     H26444   0.708   4.617   4.466 -1.6092  0.9009  0.0070
  958MOL0     H26445   0.918   4.619   4.591  3.0666  2.8335  0.9644
  958MOL0     H26446   1.094   4.626   4.750  1.5994 -2.2104  1.5180
  958MOL0     H26447   0.962   4.549   4.829  0.6286 -1.1054 -0.5376
  958MOL0     H26448   1.184   4.683   4.973  1.7750 -1.0326  0.5453
  958MOL0     H26449   1.023   4.668   5.054  0.1570  1.7530 -0.9018
  958MOL0     H26450   1.212   4.442   4.946  1.4653  1.3238  2.8187
  958MOL0     H26451   1.045   4.422   4.954 -1.0615  0.3409  0.8991
  958MOL0     H26452   1.094   4.483   5.219 -0.7258  0.8388 -0.7121
  958MOL0     H26453   1.150   4.322   5.146 -1.2644  0.1685 -2.0593
  958MOL0     H26454   1.516   4.513   5.255  0.1685  1.0433 -0.5576
  958MOL0     H26455   0.754   4.923   4.840  0.8140 -2.5160  1.4235
  958MOL0     H26456   0.571   4.952   4.687 -1.9682 -1.2854 -0.2950
  959MOL0     O26457   6.635   8.357   4.674 -0.1660  0.7313  0.2986
  959MOL0     C26458   6.657   8.475   4.632 -0.4433 -0.3469  0.1666
  959MOL0     O26459   6.560   8.563   4.595  0.1906 -0.2379  0.5868
  959MOL0     C26460   6.432   8.513   4.596 -0.1827  0.3621  0.6407
  959MOL0     C26461   6.348   8.520   4.703 -0.0668 -0.0661 -0.3752
  959MOL0     C26462   6.218   8.468   4.701  0.2839 -0.0978 -0.6019
  959MOL0     C26463   6.179   8.397   4.589 -0.4950 -0.3322 -0.1024
  959MOL0     O26464   6.058   8.345   4.603  0.5679  0.4428  0.3636
  959MOL0     C26465   6.001   8.287   4.485  0.0009 -0.1911 -0.2161
  959MOL0     C26466   5.873   8.206   4.519  0.0948 -1.2020 -0.1511
  959MOL0     C26467   5.800   8.160   4.398 -0.3216  0.1599  0.2167
  959MOL0     C26468   5.683   8.057   4.437  0.3926  0.2516  0.8087
  959MOL0     C26469   5.576   8.052   4.326  0.8704 -0.4813 -0.0602
  959MOL0     C26470   5.437   8.016   4.377  0.2633 -0.3089 -0.1672
  959MOL0     C26471   5.325   8.047   4.277 -1.4929  0.9769  0.3644
  959MOL0     C26472   5.313   7.924   4.189 -0.1408  0.3830 -0.4354
  959MOL0     N26473   5.180   7.908   4.121 -0.5002 -0.8759 -0.6098
  959MOL0     C26474   5.141   7.803   4.042 -0.4597 -0.0637  0.1103
  959MOL0     C26475   5.007   7.811   4.035  0.2517  0.8197  0.2301
  959MOL0     C26476   4.911   7.721   3.965  0.5077 -0.2706 -0.2778
  959MOL0     C26477   4.911   7.718   3.813  0.1640 -0.1479 -0.4393
  959MOL0     C26478   5.035   7.653   3.755  0.5372 -0.0387 -0.1253
  959MOL0     C26479   5.009   7.601   3.608  0.3577  0.6103 -0.8645
  959MOL0     O26480   4.923   7.482   3.612  0.3762  0.0378  0.1852
  959MOL0     C26481   4.818   7.465   3.523  0.2188  0.2393 -0.1483
  959MOL0     C26482   4.752   7.575   3.461 -0.4240  0.5977  0.0307
  959MOL0     C26483   4.664   7.539   3.358  0.2791 -0.5320 -0.0133
  959MOL0     C26484   4.614   7.402   3.334 -0.3841 -0.2187  0.3316
  959MOL0     C26485   4.527   7.373   3.219 -0.9854 -1.0125  0.2288
  959MOL0     O26486   4.488   7.245   3.201 -0.2665  0.1928  0.4623
  959MOL0     C26487   4.361   7.227   3.165 -0.3607  0.4775  0.3691
  959MOL0     C26488   4.260   7.320   3.162 -0.0467  0.0370 -0.0364
  959MOL0     C26489   4.132   7.295   3.105  0.6344 -0.0282 -0.5057
  959MOL0     C26490   4.103   7.170   3.057  0.1344  0.7617 -0.4311
  959MOL0     O26491   3.980   7.123   3.016 -0.3004 -0.8435 -1.0012
  959MOL0     C26492   3.864   7.179   3.087 -0.2271  0.0386  0.3777
  959MOL0     C26493   3.737   7.143   3.008  0.2406 -0.7274  0.4476
  959MOL0     C26494   3.622   7.238   3.048 -0.9433  0.0725 -0.0830
  959MOL0     C26495   3.501   7.193   2.978 -0.0841  0.1141  0.2599
  959MOL0     C26496   3.386   7.293   3.017 -0.1764  0.3099 -0.2158
  959MOL0     C26497   3.257   7.258   2.941  0.8603  0.4730  0.4363
  959MOL0     C26498   3.133   7.357   2.950  0.1762  0.5550 -0.3092
  959MOL0     C26499   3.007   7.299   2.884  0.4211 -0.6040 -0.4573
  959MOL0    Cl26500   2.863   7.407   2.922  0.4366  0.0227 -0.3036
  959MOL0     C26501   4.205   7.078   3.062  0.0643 -0.0873  0.3216
  959MOL0     C26502   4.329   7.099   3.110  0.1487 -0.8123 -0.2752
  959MOL0     O26503   4.486   7.475   3.159  0.5599 -0.6759  0.0985
  959MOL0     C26504   4.673   7.303   3.414  0.2444  0.1392 -0.2959
  959MOL0     C26505   4.780   7.331   3.494  0.0668  1.0806  0.0326
  959MOL0     N26506   4.963   7.919   4.101  0.5638  0.5166 -0.6477
  959MOL0     N26507   5.069   7.979   4.156  0.6069  0.0367 -0.1174
  959MOL0     C26508   6.263   8.386   4.476  0.3446 -0.0343 -0.8000
  959MOL0     C26509   6.388   8.448   4.480  0.7147  0.1489  0.1085
  959MOL0     C26510   6.796   8.519   4.638 -0.4418 -0.0413 -0.5954
  959MOL0     C26511   6.892   8.428   4.658  0.2793  0.7474 -0.0722
  959MOL0     C26512   7.028   8.476   4.660  0.2564  1.0210  0.3776
  959MOL0     C26513   7.066   8.610   4.664 -0.1014 -0.9683  0.0391
  959MOL0     O26514   7.194   8.664   4.680 -0.0497  0.4613 -0.5975
  959MOL0     C26515   7.299   8.585   4.722  1.1308  0.2695  0.1303
  959MOL0     C26516   7.428   8.661   4.741  0.3429 -0.2238  0.1824
  959MOL0     C26517   7.497   8.706   4.612  0.3537 -0.0704 -0.0361
  959MOL0     C26518   7.530   8.595   4.512  0.3303  0.0715  0.4799
  959MOL0     C26519   7.610   8.494   4.577 -0.1709 -0.3783  0.6091
  959MOL0     C26520   7.698   8.419   4.627  1.1795  0.8330  0.2261
  959MOL0     C26521   6.965   8.701   4.631  0.3193 -0.1245 -0.3652
  959MOL0     C26522   6.835   8.656   4.614  0.4446  0.5002 -0.0446
  959MOL0     H26523   6.380   8.584   4.785  0.4009 -0.1738 -0.4685
  959MOL0     H26524   6.158   8.477   4.791  1.7953 -0.8547  0.5176
  959MOL0     H26525   6.074   8.217   4.442  0.9567  0.0600  0.9540
  959MOL0     H26526   5.988   8.371   4.417  1.7121  0.7618  0.5721
  959MOL0     H26527   5.804   8.260   4.584 -4.1577 -2.1243 -3.4571
  959MOL0     H26528   5.901   8.119   4.579 -3.4594 -2.2061  0.2572
  959MOL0     H26529   5.871   8.115   4.328 -1.9915  0.8094 -2.0118
  959MOL0     H26530   5.761   8.252   4.355 -0.3751  0.0794  0.0932
  959MOL0     H26531   5.713   7.952   4.446  0.3147 -0.1000 -2.1306
  959MOL0     H26532   5.636   8.095   4.529  0.3854  1.3316  0.3712
  959MOL0     H26533   5.599   7.975   4.252  2.0422 -0.5433  0.3460
  959MOL0     H26534   5.554   8.156   4.300 -3.1859 -1.3025 -0.5255
  959MOL0     H26535   5.407   8.067   4.469 -1.0588 -1.1909 -0.0704
  959MOL0     H26536   5.425   7.909   4.395  0.7903 -0.8293 -2.5278
  959MOL0     H26537   5.231   8.053   4.333 -2.2536 -0.2571 -0.7120
  959MOL0     H26538   5.340   8.131   4.208 -0.1628 -1.3707 -2.4469
  959MOL0     H26539   5.313   7.833   4.250 -0.7897  0.3497 -0.4854
  959MOL0     H26540   5.394   7.928   4.115 -1.4957  3.7214 -1.9739
  959MOL0     H26541   5.218   7.733   4.013 -2.0362 -2.7197  1.9983
  959MOL0     H26542   4.808   7.753   3.986  0.7726 -0.9190  2.3230
  959MOL0     H26543   4.927   7.619   4.002 -0.2676 -0.8562 -1.5005
  959MOL0     H26544   4.906   7.820   3.773  2.1739  0.2272  0.1803
  959MOL0     H26545   4.819   7.668   3.781 -1.8500  2.2089  1.2051
  959MOL0     H26546   5.114   7.729   3.754  0.3294  0.1833 -0.7693
  959MOL0     H26547   5.058   7.561   3.809 -1.9670 -0.6072  0.0816
  959MOL0     H26548   5.105   7.575   3.563  0.8703  2.3466 -0.8513
  959MOL0     H26549   4.982   7.680   3.537  1.3043  1.1172 -0.6763
  959MOL0     H26550   4.770   7.681   3.473  1.0080  0.1113  3.3657
  959MOL0     H26551   4.608   7.619   3.310  0.5704  1.8275  3.2841
  959MOL0     H26552   4.271   7.415   3.214  0.3222  0.7826 -1.4448
  959MOL0     H26553   4.055   7.371   3.114  0.5176  0.0193 -1.7078
  959MOL0     H26554   3.872   7.288   3.094  0.9007  0.1963 -2.1169
  959MOL0     H26555   3.862   7.132   3.185  2.7286 -0.1768  0.4340
  959MOL0     H26556   3.716   7.037   3.023  0.8715 -1.4650 -2.9280
  959MOL0     H26557   3.764   7.152   2.902  0.7049  1.5099  0.7117
  959MOL0     H26558   3.643   7.340   3.016  0.7724  0.1944  1.2910
  959MOL0     H26559   3.617   7.244   3.157  2.7066  2.5285  0.1265
  959MOL0     H26560   3.522   7.192   2.871 -2.6395 -0.5372 -0.2793
  959MOL0     H26561   3.466   7.094   3.007  0.8712 -0.1470  0.5680
  959MOL0     H26562   3.416   7.395   2.992  0.2494  0.0724 -0.6854
  959MOL0     H26563   3.363   7.288   3.124 -0.0009  1.1844 -0.1337
  959MOL0     H26564   3.213   7.161   2.969  2.3389 -0.5026 -0.4694
  959MOL0     H26565   3.279   7.245   2.835  0.0620  0.9735  0.2042
  959MOL0     H26566   3.110   7.364   3.057  1.4141  1.8413 -0.0876
  959MOL0     H26567   3.156   7.458   2.915 -1.0017 -0.2219 -3.6423
  959MOL0     H26568   2.977   7.199   2.918  1.8991 -0.6283  0.9249
  959MOL0     H26569   3.021   7.306   2.775 -1.2971 -1.7983 -0.7902
  959MOL0     H26570   4.186   6.977   3.029 -2.2677  1.2850 -3.1456
  959MOL0     H26571   4.409   7.025   3.109 -0.5096 -1.5270 -0.4542
  959MOL0     H26572   4.642   7.201   3.397 -0.6936  0.5848 -1.3916
  959MOL0     H26573   4.816   7.242   3.544 -0.3336  0.1197 -1.3135
  959MOL0     H26574   6.230   8.341   4.383  0.7065  1.4191 -1.6636
  959MOL0     H26575   6.456   8.456   4.395  0.6295  2.5423  0.1875
  959MOL0     H26576   6.872   8.322   4.663  1.7722  0.3587 -1.3465
  959MOL0     H26577   7.095   8.392   4.674 -0.9101 -0.0051 -0.0215
  959MOL0     H26578   7.314   8.501   4.653 -1.0896  0.0144 -0.1201
  959MOL0     H26579   7.256   8.547   4.816 -1.4380 -0.3892 -1.2170
  959MOL0     H26580   7.396   8.755   4.788 -0.9357  0.3051 -1.6109
  959MOL0     H26581   7.506   8.603   4.791  3.0566  1.6897 -1.5789
  959MOL0     H26582   7.582   8.768   4.641  1.1426  0.0070 -2.2624
  959MOL0     H26583   7.417   8.762   4.562  1.8788  0.0581 -2.5207
  959MOL0     H26584   7.438   8.547   4.477 -0.1128  0.6471  0.8494
  959MOL0     H26585   7.587   8.630   4.425  2.6427  1.4908  2.4189
  959MOL0     H26586   7.759   8.341   4.669 -0.8013  0.4381  2.5845
  959MOL0     H26587   6.971   8.809   4.623  0.0288 -0.1713 -1.2170
  959MOL0     H26588   6.750   8.721   4.592 -0.6939 -0.8714  0.1244
  960MOL0     O26589   8.341   6.745   2.530 -0.2759  0.1518 -0.4327
  960MOL0     C26590   8.392   6.657   2.461 -0.7440  0.1863  0.0952
  960MOL0     O26591   8.332   6.586   2.362 -0.1797 -0.2812 -0.0718
  960MOL0     C26592   8.208   6.619   2.302 -0.4189 -0.2545 -0.7104
  960MOL0     C26593   8.145   6.746   2.295  0.1283  0.4791 -0.2403
  960MOL0     C26594   8.033   6.764   2.215 -0.3939 -0.0643 -0.1212
  960MOL0     C26595   7.973   6.656   2.145 -0.8041  0.1883 -0.1803
  960MOL0     O26596   7.858   6.650   2.066 -0.0550 -0.4649  0.1463
  960MOL0     C26597   7.760   6.756   2.078  0.6301 -0.2487 -0.0080
  960MOL0     C26598   7.664   6.733   1.960 -0.5187 -0.7615 -0.5324
  960MOL0     C26599   7.597   6.593   1.944  0.2635  0.0561 -0.1804
  960MOL0     C26600   7.479   6.623   1.840 -0.4216 -0.1619 -0.6132
  960MOL0     C26601   7.380   6.514   1.818  0.2545  0.7239  0.2709
  960MOL0     C26602   7.269   6.559   1.721  0.1995  0.0087  0.7090
  960MOL0     C26603   7.196   6.438   1.651  0.6079  0.5418 -0.0075
  960MOL0     C26604   7.113   6.469   1.528 -0.4008  0.2396 -0.1088
  960MOL0     N26605   7.027   6.583   1.542  0.1850  0.3860  1.1143
  960MOL0     C26606   6.892   6.569   1.542  0.5882  0.6024  0.2229
  960MOL0     C26607   6.851   6.696   1.526 -0.1856 -0.3624 -0.8317
  960MOL0     C26608   6.711   6.750   1.539 -0.2078 -0.0443 -0.6732
  960MOL0     C26609   6.651   6.769   1.679  1.1002 -0.3391  0.0078
  960MOL0     C26610   6.557   6.898   1.688  0.3000 -0.3709 -0.0299
  960MOL0     C26611   6.466   6.887   1.808 -0.5808 -0.2757 -0.9537
  960MOL0     O26612   6.362   6.786   1.789  1.1512 -0.1603  0.0333
  960MOL0     C26613   6.237   6.839   1.811  0.0636  0.5160  0.1326
  960MOL0     C26614   6.142   6.837   1.711  0.7792  0.3359  0.5518
  960MOL0     C26615   6.010   6.867   1.736 -0.1004 -0.5925 -0.1230
  960MOL0     C26616   5.979   6.921   1.859  1.1385 -0.9157 -0.6856
  960MOL0     C26617   5.840   6.966   1.882 -0.0887 -0.0272 -0.6750
  960MOL0     O26618   5.756   6.969   1.772  0.5747 -0.1213  0.6168
  960MOL0     C26619   5.621   6.951   1.784 -0.5415  0.9981  0.3330
  960MOL0     C26620   5.555   6.884   1.890 -0.2028  1.0486  0.4223
  960MOL0     C26621   5.410   6.891   1.899 -0.2422  0.4840  0.0024
  960MOL0     C26622   5.337   6.959   1.797 -0.4759  0.4770 -0.1593
  960MOL0     O26623   5.203   6.957   1.816 -0.0205 -0.3820  0.1687
  960MOL0     C26624   5.125   7.042   1.730  0.6789 -0.5825 -0.0696
  960MOL0     C26625   4.973   7.002   1.733  0.9919  0.0534  0.3093
  960MOL0     C26626   4.955   6.850   1.720  1.0603 -0.6674  0.6879
  960MOL0     C26627   4.805   6.816   1.714  0.4999 -0.1970 -0.2838
  960MOL0     C26628   4.775   6.687   1.639  0.4880 -1.1083  0.0038
  960MOL0     C26629   4.631   6.638   1.654  0.3074  0.5229 -1.3936
  960MOL0     C26630   4.548   6.678   1.535  0.1192 -0.8121 -0.3974
  960MOL0     C26631   4.405   6.679   1.558  0.2498 -0.9639 -0.4071
  960MOL0    Cl26632   4.353   6.829   1.650  0.3056  0.0718  0.0627
  960MOL0     C26633   5.406   7.006   1.686  0.7827 -1.0246 -0.1197
  960MOL0     C26634   5.545   7.005   1.680 -0.4901 -0.6248 -0.8682
  960MOL0     O26635   5.818   7.009   2.000 -0.1593 -0.0783  1.4977
  960MOL0     C26636   6.069   6.914   1.959 -0.4392 -0.3572 -0.4533
  960MOL0     C26637   6.203   6.878   1.943  0.2604  0.4129  0.1402
  960MOL0     N26638   6.960   6.780   1.511 -0.5976  0.6707 -0.7040
  960MOL0     N26639   7.064   6.711   1.513 -0.1316 -0.6631  0.1638
  960MOL0     C26640   8.043   6.536   2.154 -0.5244  0.2760  0.4286
  960MOL0     C26641   8.154   6.514   2.228 -0.3899  0.1547  0.7599
  960MOL0     C26642   8.534   6.619   2.505 -0.2371  0.5044 -0.4131
  960MOL0     C26643   8.605   6.698   2.606  0.7815  0.3094 -0.1582
  960MOL0     C26644   8.730   6.656   2.658 -0.1698 -0.3869 -0.3643
  960MOL0     C26645   8.792   6.534   2.619  0.0988  0.6403 -0.1887
  960MOL0     O26646   8.899   6.481   2.673 -1.0658 -0.3980 -0.6600
  960MOL0     C26647   8.977   6.549   2.776  1.1495 -0.3966  0.4808
  960MOL0     C26648   9.110   6.474   2.785  0.4706 -0.7738 -0.5557
  960MOL0     C26649   9.095   6.339   2.848 -0.2465 -0.1300  0.4220
  960MOL0     C26650   9.228   6.271   2.887  0.2659 -0.0912 -0.0333
  960MOL0     C26651   9.288   6.345   2.992 -0.1489  0.4771 -0.3753
  960MOL0     C26652   9.349   6.394   3.086  0.0913  0.0547  0.3595
  960MOL0     C26653   8.731   6.458   2.520 -0.3848 -0.0467 -0.1608
  960MOL0     C26654   8.606   6.489   2.470 -0.6596  0.7287 -0.8336
  960MOL0     H26655   8.194   6.830   2.343  0.9067  0.7332 -1.4254
  960MOL0     H26656   7.989   6.859   2.187  2.2832  0.7855 -1.8949
  960MOL0     H26657   7.813   6.851   2.072  2.7326 -1.3702 -0.1230
  960MOL0     H26658   7.705   6.728   2.168 -0.6697 -2.9337 -1.4948
  960MOL0     H26659   7.718   6.759   1.868 -0.7850 -0.9936 -0.7528
  960MOL0     H26660   7.593   6.815   1.967 -0.5271 -0.5158 -2.7798
  960MOL0     H26661   7.566   6.554   2.041  1.4157 -0.5560 -0.0412
  960MOL0     H26662   7.674   6.523   1.910 -0.6016 -0.3075 -1.4783
  960MOL0     H26663   7.424   6.710   1.879  1.4621  0.0285  1.8478
  960MOL0     H26664   7.517   6.658   1.743 -0.1498  0.4456 -0.2893
  960MOL0     H26665   7.335   6.489   1.915 -0.2592 -2.9214 -0.7547
  960MOL0     H26666   7.420   6.423   1.773 -1.6761 -0.0835  0.0923
  960MOL0     H26667   7.316   6.601   1.632 -1.9192 -1.5794 -1.2718
  960MOL0     H26668   7.204   6.632   1.770  0.0715 -0.0492  0.6255
  960MOL0     H26669   7.264   6.357   1.621 -0.3107 -0.3157  0.1862
  960MOL0     H26670   7.121   6.399   1.720  1.0612  0.1536  0.2726
  960MOL0     H26671   7.053   6.380   1.510  0.1998 -0.3548  0.7546
  960MOL0     H26672   7.186   6.473   1.446 -1.6287 -1.0243 -1.3294
  960MOL0     H26673   6.824   6.485   1.549 -0.8932  1.7947  0.7488
  960MOL0     H26674   6.646   6.684   1.480  0.2618 -0.8939 -0.2648
  960MOL0     H26675   6.708   6.846   1.487  2.1413  1.2780  1.4224
  960MOL0     H26676   6.727   6.776   1.757 -1.3926  0.2417  2.5438
  960MOL0     H26677   6.593   6.681   1.707  0.7394 -0.1840 -0.2439
  960MOL0     H26678   6.622   6.985   1.696 -2.0513  1.3347  2.1989
  960MOL0     H26679   6.504   6.902   1.592 -2.1559  0.3893  1.2719
  960MOL0     H26680   6.425   6.984   1.837  0.5953  0.1945 -0.8128
  960MOL0     H26681   6.527   6.865   1.895 -0.4654 -1.9004 -1.4232
  960MOL0     H26682   6.179   6.806   1.613 -0.4816  0.6540 -0.0423
  960MOL0     H26683   5.943   6.850   1.653 -0.1524 -0.1008 -0.1878
  960MOL0     H26684   5.608   6.855   1.981 -2.8943  4.1729  3.2640
  960MOL0     H26685   5.357   6.844   1.981  0.9145 -1.0652 -0.0811
  960MOL0     H26686   5.154   7.032   1.625 -0.8431  1.2501 -0.7115
  960MOL0     H26687   5.134   7.148   1.755 -2.7782  0.8632 -3.7735
  960MOL0     H26688   4.926   7.049   1.646 -0.5711 -0.1762  0.9978
  960MOL0     H26689   4.927   7.041   1.825  3.1897  0.4625  1.2973
  960MOL0     H26690   4.999   6.798   1.806  1.3691  0.1376  1.0270
  960MOL0     H26691   5.002   6.820   1.626  1.4735  2.6190 -0.2744
  960MOL0     H26692   4.757   6.814   1.812 -2.0754 -0.2976 -1.4549
  960MOL0     H26693   4.751   6.899   1.666  0.9060  0.6231  0.6440
  960MOL0     H26694   4.849   6.617   1.679 -0.4119 -0.6747  2.6448
  960MOL0     H26695   4.801   6.708   1.534 -0.5427 -1.8508 -0.4112
  960MOL0     H26696   4.581   6.685   1.739  0.3735  0.1409 -1.1439
  960MOL0     H26697   4.635   6.531   1.676 -1.9863  1.3563  5.4753
  960MOL0     H26698   4.566   6.782   1.507  2.0908 -1.0326 -0.0793
  960MOL0     H26699   4.572   6.617   1.448 -2.4340  1.4928 -2.9242
  960MOL0     H26700   4.374   6.588   1.611  1.0026 -0.2488  1.3462
  960MOL0     H26701   4.354   6.686   1.461  0.4064  2.1970 -0.3753
  960MOL0     H26702   5.352   7.057   1.607 -0.7196  0.4514  1.7344
  960MOL0     H26703   5.589   7.077   1.612  0.1415 -0.1697  0.0085
  960MOL0     H26704   6.037   6.960   2.052 -2.1748 -0.4299 -0.9836
  960MOL0     H26705   6.278   6.881   2.021 -0.2293  0.1823  0.6291
  960MOL0     H26706   8.003   6.451   2.099 -2.2737 -0.2486  2.3839
  960MOL0     H26707   8.204   6.418   2.239 -0.8723  0.1866  5.2199
  960MOL0     H26708   8.552   6.784   2.648 -1.8905 -1.8532  1.2502
  960MOL0     H26709   8.787   6.705   2.737 -0.4202 -1.2414  0.3585
  960MOL0     H26710   8.928   6.564   2.872 -0.2874 -0.0378 -0.2889
  960MOL0     H26711   9.001   6.651   2.745  1.4865 -0.2783  1.1169
  960MOL0     H26712   9.164   6.478   2.690 -0.5414 -0.8137 -1.1449
  960MOL0     H26713   9.175   6.536   2.847 -0.2381 -0.5175 -0.0606
  960MOL0     H26714   9.043   6.270   2.779 -0.5070 -1.4243  1.8506
  960MOL0     H26715   9.036   6.340   2.941  0.6993  1.4485  1.0329
  960MOL0     H26716   9.199   6.177   2.935  0.3745  0.5273  1.2907
  960MOL0     H26717   9.294   6.257   2.801 -0.5382 -3.5713 -0.2282
  960MOL0     H26718   9.404   6.440   3.166 -1.5478  1.1389  0.9164
  960MOL0     H26719   8.785   6.369   2.489 -0.1952  0.3262 -0.9460
  960MOL0     H26720   8.562   6.421   2.397  3.6201 -1.6879 -1.4926
  961MOL0     O26721   5.082   1.651  10.578 -1.3466 -0.3268  0.3772
  961MOL0     C26722   5.086   1.625  10.458  0.2974 -0.3395  0.0803
  961MOL0     O26723   4.986   1.582  10.379  0.0719  0.3114  0.5197
  961MOL0     C26724   4.875   1.532  10.446  0.5642  1.1133  0.2191
  961MOL0     C26725   4.763   1.533  10.364  0.5887  0.1847 -0.0093
  961MOL0     C26726   4.650   1.459  10.396  1.0566  0.5266 -0.0086
  961MOL0     C26727   4.641   1.375  10.502 -0.3117  0.2737 -0.1466
  961MOL0     O26728   4.516   1.316  10.528 -0.2778  0.5017 -0.0171
  961MOL0     C26729   4.484   1.200  10.442  0.0078  0.5640 -0.3850
  961MOL0     C26730   4.362   1.139  10.497 -0.4588 -0.0511 -1.0799
  961MOL0     C26731   4.234   1.214  10.471  0.5043  0.0821 -0.1109
  961MOL0     C26732   4.114   1.134  10.533  0.1130 -0.3517 -0.9503
  961MOL0     C26733   3.969   1.176  10.498  0.3824  0.7747  0.5245
  961MOL0     C26734   3.888   1.245  10.603  0.5385 -0.8529  0.5324
  961MOL0     C26735   3.744   1.236  10.571  0.2730  0.1423  0.6061
  961MOL0     C26736   3.648   1.311  10.667  0.5529  0.7911  0.2978
  961MOL0     N26737   3.509   1.280  10.623  0.5683  0.0615  0.3112
  961MOL0     C26738   3.406   1.220  10.694 -2.0830  0.4015 -0.0991
  961MOL0     C26739   3.309   1.213  10.606 -0.2697  0.7081 -0.4401
  961MOL0     C26740   3.179   1.155  10.628 -0.2089 -0.5412  0.2882
  961MOL0     C26741   3.090   1.275  10.652  0.3050  0.4082 -0.4584
  961MOL0     C26742   2.942   1.250  10.651 -0.2796 -0.2701  0.7688
  961MOL0     C26743   2.887   1.216  10.511  0.7161 -0.0225  0.1575
  961MOL0     O26744   2.757   1.274  10.495  0.5650  0.4017  0.4030
  961MOL0     C26745   2.649   1.202  10.543  0.1727 -0.0944 -0.1602
  961MOL0     C26746   2.606   1.083  10.487  0.4287 -0.9658  0.4904
  961MOL0     C26747   2.509   1.003  10.544  0.0601 -0.4894  0.2835
  961MOL0     C26748   2.443   1.048  10.659 -0.4548  0.5389  0.1016
  961MOL0     C26749   2.337   0.962  10.713 -0.2126  0.5546  0.1528
  961MOL0     O26750   2.260   1.018  10.812 -0.3728  0.5980 -0.6307
  961MOL0     C26751   2.155   0.953  10.883 -0.0365  0.2064  0.3753
  961MOL0     C26752   2.045   1.033  10.917 -0.5636  0.0261  0.0780
  961MOL0     C26753   1.933   0.973  10.980 -0.3234 -0.3605 -0.0574
  961MOL0     C26754   1.948   0.846  11.039 -0.6811  0.1144 -0.6189
  961MOL0     O26755   1.854   0.808  11.130  0.4214  0.5751 -0.5135
  961MOL0     C26756   1.892   0.698  11.218  0.4231  0.0462 -0.0891
  961MOL0     C26757   1.782   0.693  11.319 -0.4558 -0.1017 -0.8769
  961MOL0     C26758   1.745   0.547  11.368  0.2236 -1.4250 -0.4985
  961MOL0     C26759   1.854   0.500  11.468  0.7051  0.0864  0.0084
  961MOL0     C26760   1.812   0.364  11.531 -0.1168 -0.4342 -0.0431
  961MOL0     C26761   1.943   0.289  11.571 -0.0613 -0.2700 -0.3676
  961MOL0     C26762   1.896   0.151  11.609 -0.3234 -1.4685 -0.9803
  961MOL0     C26763   2.017   0.079  11.690  0.6677  0.2986  0.6712
  961MOL0    Cl26764   2.028   0.145  11.847 -0.1535  0.3336 -0.0864
  961MOL0     C26765   2.067   0.772  11.005  0.2695  0.3858 -0.5663
  961MOL0     C26766   2.169   0.818  10.923  0.6311 -1.0204  0.6930
  961MOL0     O26767   2.322   0.846  10.668 -0.6760 -0.7620  0.0784
  961MOL0     C26768   2.478   1.174  10.711 -0.6850 -0.7021  0.1457
  961MOL0     C26769   2.583   1.250  10.652  0.5723 -0.0559 -0.3854
  961MOL0     N26770   3.344   1.268  10.493 -0.5240  0.8424  0.1169
  961MOL0     N26771   3.468   1.314  10.501  0.0224  0.2164  0.1640
  961MOL0     C26772   4.751   1.383  10.591  0.1017  0.4315 -0.4801
  961MOL0     C26773   4.871   1.454  10.563 -0.1573 -0.3048 -0.6852
  961MOL0     C26774   5.216   1.652  10.402 -0.7263 -0.2552 -0.2282
  961MOL0     C26775   5.242   1.635  10.269  0.6028 -0.4493  0.5264
  961MOL0     C26776   5.368   1.644  10.210  0.1143 -0.0038 -0.1957
  961MOL0     C26777   5.485   1.675  10.282 -0.2972  0.2807 -1.4110
  961MOL0     O26778   5.607   1.684  10.225 -0.6305 -0.3371  0.5005
  961MOL0     C26779   5.702   1.574  10.248  0.6824 -0.1239 -0.2612
  961MOL0     C26780   5.845   1.635  10.247  0.3534  0.2463  0.1631
  961MOL0     C26781   5.862   1.732  10.126 -1.2583  0.2056  0.2285
  961MOL0     C26782   6.002   1.714  10.055  0.1651 -1.2420  0.6629
  961MOL0     C26783   6.117   1.750  10.140  0.0855 -0.6029  0.3871
  961MOL0     C26784   6.206   1.777  10.213  0.0166 -0.3590 -0.9779
  961MOL0     C26785   5.464   1.709  10.424  0.8010 -0.5328 -0.0565
  961MOL0     C26786   5.335   1.704  10.480  0.4069  0.0495  0.0604
  961MOL0     H26787   4.760   1.582  10.268  0.7480  1.5035  0.6433
  961MOL0     H26788   4.564   1.461  10.329  1.1182  4.1690 -0.1562
  961MOL0     H26789   4.555   1.117  10.449  0.0775  0.7098  0.7357
  961MOL0     H26790   4.471   1.222  10.335  0.6435  0.3963 -0.5026
  961MOL0     H26791   4.364   1.147  10.607  0.1381  0.9052 -1.1501
  961MOL0     H26792   4.343   1.036  10.465  0.7458 -0.7190  0.2114
  961MOL0     H26793   4.224   1.222  10.363  2.9206  2.3212 -0.2486
  961MOL0     H26794   4.225   1.320  10.495 -4.4853  0.1457 -1.2156
  961MOL0     H26795   4.125   1.033  10.493 -3.4661 -0.6859 -1.4493
  961MOL0     H26796   4.122   1.143  10.642  0.4793 -3.5402 -0.6146
  961MOL0     H26797   3.924   1.080  10.469 -0.5619  0.5250  2.6673
  961MOL0     H26798   3.964   1.233  10.405 -2.4388 -0.1618 -0.0033
  961MOL0     H26799   3.912   1.352  10.604 -2.1702 -0.1714  1.4791
  961MOL0     H26800   3.893   1.206  10.705 -0.8917 -0.6266  0.7163
  961MOL0     H26801   3.735   1.275  10.469  0.7547  2.0453  1.2323
  961MOL0     H26802   3.727   1.129  10.580 -1.7308  0.2608 -1.1139
  961MOL0     H26803   3.677   1.415  10.655 -0.0873  0.7712 -2.0863
  961MOL0     H26804   3.672   1.263  10.762  0.0979 -4.4285 -1.8688
  961MOL0     H26805   3.401   1.181  10.795 -1.2560 -0.5120 -0.4003
  961MOL0     H26806   3.177   1.080  10.707 -1.5735 -1.0842 -0.2311
  961MOL0     H26807   3.156   1.103  10.535  0.9385 -2.1446  0.8564
  961MOL0     H26808   3.115   1.361  10.589  1.6441  0.5067  0.1574
  961MOL0     H26809   3.120   1.308  10.752 -1.0523 -2.6792  1.1171
  961MOL0     H26810   2.914   1.172  10.722 -2.1604  1.6397  2.2638
  961MOL0     H26811   2.905   1.342  10.697  1.1436  0.1400  1.1422
  961MOL0     H26812   2.877   1.107  10.521  0.4382  0.1308  1.9762
  961MOL0     H26813   2.963   1.243  10.438  1.7927 -2.1363  0.4404
  961MOL0     H26814   2.654   1.052  10.395 -1.3456 -0.4234 -0.6775
  961MOL0     H26815   2.486   0.910  10.493 -0.1225  0.4816 -1.4923
  961MOL0     H26816   2.034   1.135  10.883 -0.3228 -0.1794 -0.6347
  961MOL0     H26817   1.842   1.030  10.992 -0.0248 -0.0312  0.6468
  961MOL0     H26818   1.989   0.715  11.267  0.4453 -2.8685  1.0532
  961MOL0     H26819   1.904   0.599  11.174  1.0642 -1.2167  2.7139
  961MOL0     H26820   1.691   0.729  11.271 -0.4674  2.9363  1.1328
  961MOL0     H26821   1.793   0.765  11.401 -0.5854 -1.1492  0.0854
  961MOL0     H26822   1.741   0.482  11.280  0.5521 -2.5669  0.3148
  961MOL0     H26823   1.649   0.537  11.419  0.5901 -1.2131  0.2398
  961MOL0     H26824   1.945   0.485  11.410 -0.9049 -1.4495 -2.3311
  961MOL0     H26825   1.873   0.579  11.540  1.1643 -0.3810  0.4038
  961MOL0     H26826   1.745   0.308  11.464 -1.6688  2.2399 -0.9084
  961MOL0     H26827   1.751   0.377  11.621  0.4750 -2.6671  0.7261
  961MOL0     H26828   2.011   0.344  11.638  2.2842 -2.8636 -0.4526
  961MOL0     H26829   2.002   0.277  11.480 -0.2408  1.4513 -0.7502
  961MOL0     H26830   1.808   0.163  11.673  1.3445 -1.3028  1.3921
  961MOL0     H26831   1.854   0.084  11.533 -0.5195 -3.7059  1.0038
  961MOL0     H26832   2.109   0.092  11.632  0.3259  1.6191  0.3911
  961MOL0     H26833   2.001  -0.029  11.700 -0.3317  0.4075  0.4073
  961MOL0     H26834   2.098   0.678  11.050  2.2061  1.4725  0.5300
  961MOL0     H26835   2.262   0.772  10.892  1.2366  2.1125 -2.9194
  961MOL0     H26836   2.433   1.211  10.802  2.6860  1.6019  1.0904
  961MOL0     H26837   2.612   1.335  10.712 -0.1977  0.5438 -0.8487
  961MOL0     H26838   4.738   1.339  10.689 -1.0092  2.3854  0.3062
  961MOL0     H26839   4.960   1.430  10.620  1.0797 -2.0450 -3.1797
  961MOL0     H26840   5.168   1.611  10.192  1.0299  1.1628 -0.4493
  961MOL0     H26841   5.374   1.617  10.105  0.0743 -1.5162  0.1602
  961MOL0     H26842   5.684   1.499  10.170  1.1891 -2.3462  1.6249
  961MOL0     H26843   5.680   1.522  10.342  1.2070 -1.7902 -1.0247
  961MOL0     H26844   5.849   1.691  10.341 -3.4426 -0.4954  0.8900
  961MOL0     H26845   5.920   1.556  10.242 -0.9324 -1.0468  0.7002
  961MOL0     H26846   5.845   1.839  10.145  1.7263  1.0178 -1.1055
  961MOL0     H26847   5.786   1.722  10.048  0.2547  2.7474 -1.7687
  961MOL0     H26848   6.010   1.612  10.017  0.6673 -0.5932 -1.0577
  961MOL0     H26849   5.995   1.785   9.972 -2.7084 -0.4509  1.4645
  961MOL0     H26850   6.291   1.787  10.276 -1.1429  0.1560  0.5664
  961MOL0     H26851   5.549   1.732  10.488  2.4840 -1.2010 -1.9273
  961MOL0     H26852   5.320   1.722  10.586 -0.1639 -2.1600  0.4140
  962MOL0     O26853   6.084   0.555  10.024  0.4196  0.2964  0.4073
  962MOL0     C26854   6.092   0.471  10.111  0.1036  0.1783  0.0616
  962MOL0     O26855   5.988   0.393  10.161 -0.6803 -0.1589 -0.1588
  962MOL0     C26856   5.863   0.420  10.121  0.3340 -0.2585  0.4754
  962MOL0     C26857   5.785   0.309  10.075  0.0368  0.5491 -0.0271
  962MOL0     C26858   5.646   0.317  10.041  0.6638  0.5331  0.3885
  962MOL0     C26859   5.580   0.446  10.051  0.5086  1.0542 -0.1311
  962MOL0     O26860   5.448   0.466  10.005 -0.2875 -0.6406 -0.1946
  962MOL0     C26861   5.344   0.379  10.062 -0.2309 -0.0494  0.1883
  962MOL0     C26862   5.258   0.451  10.173  0.2597 -0.1161 -0.0416
  962MOL0     C26863   5.156   0.365  10.238 -0.2323 -0.6819  0.2039
  962MOL0     C26864   5.030   0.359  10.150 -0.6938  0.6740 -0.0327
  962MOL0     C26865   4.921   0.267  10.210 -0.3737 -0.4204  0.0278
  962MOL0     C26866   4.796   0.291  10.131 -0.2147  0.7004 -0.3353
  962MOL0     C26867   4.684   0.181  10.139 -0.5894  0.2258 -0.1374
  962MOL0     C26868   4.619   0.196  10.290 -0.3067  0.0309  0.4589
  962MOL0     N26869   4.524   0.306  10.293 -1.3413  0.3645  0.2615
  962MOL0     C26870   4.412   0.304  10.372 -0.0915 -0.7561  0.2546
  962MOL0     C26871   4.354   0.421  10.358  0.3445  0.0928  0.0689
  962MOL0     C26872   4.237   0.467  10.434  0.4957 -0.5035 -0.3997
  962MOL0     C26873   4.108   0.403  10.398  0.1259 -0.6201  0.6805
  962MOL0     C26874   4.000   0.495  10.459  0.3427 -0.2303  0.2783
  962MOL0     C26875   3.861   0.462  10.412  0.3479 -0.9916 -0.3312
  962MOL0     O26876   3.773   0.579  10.420 -0.1288  0.4026 -0.5348
  962MOL0     C26877   3.648   0.541  10.465  1.0040 -0.2400  0.1754
  962MOL0     C26878   3.535   0.566  10.386 -0.9936 -0.2973 -0.1142
  962MOL0     C26879   3.404   0.544  10.436  0.1661  0.1666  1.3574
  962MOL0     C26880   3.381   0.482  10.557  0.0792 -0.0076 -0.1145
  962MOL0     C26881   3.252   0.428  10.612 -0.3698  0.4258 -0.4085
  962MOL0     O26882   3.242   0.370  10.734  0.1171  0.4244  1.3252
  962MOL0     C26883   3.118   0.336  10.767  0.3022  0.0873 -0.4840
  962MOL0     C26884   3.022   0.432  10.818 -0.2585 -0.5069 -0.1925
  962MOL0     C26885   2.899   0.378  10.858  0.7546 -0.2336  0.5370
  962MOL0     C26886   2.858   0.240  10.851 -0.9677 -0.0194  0.9138
  962MOL0     O26887   2.736   0.183  10.884 -0.1155 -0.4644 -0.4906
  962MOL0     C26888   2.617   0.259  10.852  0.6145 -0.0473  0.9259
  962MOL0     C26889   2.497   0.185  10.913  0.7819  0.4547 -0.4836
  962MOL0     C26890   2.484   0.036  10.853  0.0039  0.2537 -0.4321
  962MOL0     C26891   2.338  -0.028  10.851  0.1324  0.5395  0.7363
  962MOL0     C26892   2.283  -0.062  10.999 -0.3940 -0.5372  0.3054
  962MOL0     C26893   2.135  -0.108  10.977 -0.4360 -0.1787 -0.1143
  962MOL0     C26894   2.070  -0.167  11.100 -1.0421 -0.5763  0.1125
  962MOL0     C26895   1.923  -0.183  11.061 -0.0372  0.0937 -0.1035
  962MOL0    Cl26896   1.817  -0.243  11.191 -0.5015  0.2851  0.0925
  962MOL0     C26897   2.956   0.146  10.810  0.7433 -0.1555  0.3264
  962MOL0     C26898   3.077   0.198  10.763 -0.5822 -0.4429  0.1643
  962MOL0     O26899   3.158   0.451  10.537  0.5032 -0.5133 -0.0380
  962MOL0     C26900   3.495   0.440  10.629 -0.6059  0.1401 -0.1894
  962MOL0     C26901   3.626   0.474  10.586  0.2599  0.4617 -0.1974
  962MOL0     N26902   4.411   0.493  10.260 -0.3607 -0.4221 -0.0053
  962MOL0     N26903   4.513   0.426  10.223  0.2807  0.4604  0.6613
  962MOL0     C26904   5.660   0.555  10.091 -0.4257 -0.2180  0.6719
  962MOL0     C26905   5.796   0.549  10.127 -0.0396 -0.5495 -0.3687
  962MOL0     C26906   6.225   0.459  10.175 -0.2290  0.5074 -0.0676
  962MOL0     C26907   6.229   0.407  10.306  0.2201  0.5612 -0.1484
  962MOL0     C26908   6.351   0.411  10.376  1.0801  0.8907 -0.0782
  962MOL0     C26909   6.465   0.457  10.323  0.1658  0.1387  0.7178
  962MOL0     O26910   6.574   0.450  10.392 -0.5652 -0.9022 -0.3526
  962MOL0     C26911   6.586   0.551  10.492 -0.1947  0.4035  0.1395
  962MOL0     C26912   6.707   0.510  10.583  0.3158  0.5331  0.4953
  962MOL0     C26913   6.837   0.584  10.529 -0.3211  0.6430 -0.4290
  962MOL0     C26914   6.955   0.555  10.628 -0.2378 -0.1170  0.0534
  962MOL0     C26915   6.991   0.415  10.631  0.1022 -0.3514  0.0861
  962MOL0     C26916   7.015   0.299  10.650  0.6403  0.6472 -0.2149
  962MOL0     C26917   6.466   0.496  10.193 -0.1814  0.0907 -0.2922
  962MOL0     C26918   6.346   0.509  10.122 -0.7624 -0.1748 -1.1029
  962MOL0     H26919   5.832   0.212  10.067  2.4219  1.6309  0.0121
  962MOL0     H26920   5.603   0.228   9.995  0.3492  0.4093  0.9195
  962MOL0     H26921   5.394   0.294  10.108 -0.6650 -1.1359 -1.2810
  962MOL0     H26922   5.281   0.337   9.983  1.8926  0.2138 -1.7270
  962MOL0     H26923   5.207   0.532  10.121 -2.2386  0.0299  2.3808
  962MOL0     H26924   5.323   0.496  10.249  0.2960  1.5758 -1.0475
  962MOL0     H26925   5.137   0.407  10.337  3.5615 -0.2519  0.8775
  962MOL0     H26926   5.199   0.264  10.239  0.7093 -0.2895 -0.0865
  962MOL0     H26927   4.985   0.458  10.143 -1.2005  0.5019  0.6387
  962MOL0     H26928   5.059   0.321  10.052  1.0321 -2.0626  1.3870
  962MOL0     H26929   4.909   0.294  10.316 -1.2842 -3.0070  0.6583
  962MOL0     H26930   4.941   0.160  10.197 -2.8256 -0.8212 -0.8287
  962MOL0     H26931   4.829   0.294  10.027 -2.2332  1.9493 -0.9925
  962MOL0     H26932   4.756   0.392  10.146 -0.5142  0.5320  0.0260
  962MOL0     H26933   4.609   0.204  10.062 -1.1931  2.9560  1.1496
  962MOL0     H26934   4.712   0.076  10.127  1.7095  0.8464 -0.5842
  962MOL0     H26935   4.697   0.210  10.366 -0.8950  0.2614  1.0230
  962MOL0     H26936   4.570   0.100  10.307 -1.6300  0.1491 -2.2294
  962MOL0     H26937   4.378   0.226  10.438 -0.8078  0.1679  1.0058
  962MOL0     H26938   4.230   0.575  10.419  2.8426  0.7305  4.9920
  962MOL0     H26939   4.258   0.452  10.541  2.3870  0.0526 -0.6453
  962MOL0     H26940   4.094   0.303  10.440 -0.3466 -1.6009 -1.6735
  962MOL0     H26941   4.101   0.395  10.289  1.0602  1.9671  0.3715
  962MOL0     H26942   4.004   0.489  10.568 -2.8002 -0.3078  0.4997
  962MOL0     H26943   4.026   0.593  10.417 -0.0824  0.5725  1.7909
  962MOL0     H26944   3.821   0.381  10.475 -0.6899 -0.0823  0.2049
  962MOL0     H26945   3.868   0.430  10.308  2.7543 -2.0001  0.0694
  962MOL0     H26946   3.552   0.615  10.290  0.4663  1.3340  0.9212
  962MOL0     H26947   3.319   0.583  10.381 -1.7092 -1.4191  2.9321
  962MOL0     H26948   3.056   0.533  10.835  1.2771 -1.1235  0.5853
  962MOL0     H26949   2.823   0.443  10.900 -0.4799 -0.1083 -1.6964
  962MOL0     H26950   2.609   0.267  10.743  2.6806  0.5266  0.7670
  962MOL0     H26951   2.609   0.358  10.898 -2.6743 -1.1158  3.0351
  962MOL0     H26952   2.404   0.238  10.891  1.1385  1.7944  1.0375
  962MOL0     H26953   2.503   0.180  11.022 -0.9338 -2.0679 -0.4162
  962MOL0     H26954   2.547  -0.032  10.910  1.1142 -1.3958 -3.4013
  962MOL0     H26955   2.524   0.032  10.751 -0.2637 -0.3059 -0.5183
  962MOL0     H26956   2.270   0.040  10.798 -0.7913  0.1360  1.3910
  962MOL0     H26957   2.346  -0.118  10.789  2.1789  1.0218  0.2371
  962MOL0     H26958   2.293   0.027  11.063 -1.9223 -1.5933  2.1345
  962MOL0     H26959   2.335  -0.139  11.056 -1.3811  0.6861  3.0132
  962MOL0     H26960   2.138  -0.185  10.900 -0.4846 -0.5385  0.2393
  962MOL0     H26961   2.093  -0.010  10.952  2.5439  1.4298  0.7324
  962MOL0     H26962   2.123  -0.257  11.132  0.9729  1.0815  1.7450
  962MOL0     H26963   2.077  -0.089  11.177 -1.8440  1.5797 -1.8559
  962MOL0     H26964   1.928  -0.264  10.987 -3.4290  1.5438 -2.1576
  962MOL0     H26965   1.890  -0.088  11.018 -0.3180 -0.1253 -0.3758
  962MOL0     H26966   2.913   0.046  10.800 -0.2298  0.3577 -0.8367
  962MOL0     H26967   3.157   0.131  10.734  1.0766  1.0165  1.2165
  962MOL0     H26968   3.491   0.362  10.705  4.9161 -1.7452 -1.3082
  962MOL0     H26969   3.710   0.433  10.642  0.3537 -0.5578 -1.0463
  962MOL0     H26970   5.603   0.647  10.083 -1.1748 -0.5946  1.4498
  962MOL0     H26971   5.845   0.644  10.144  1.9670 -1.3844 -1.1678
  962MOL0     H26972   6.137   0.379  10.356 -0.9073  0.2639 -2.2798
  962MOL0     H26973   6.351   0.378  10.479  2.2698  1.4973  0.1385
  962MOL0     H26974   6.497   0.561  10.554  0.7736  1.2681  1.4699
  962MOL0     H26975   6.616   0.646  10.446  1.1163 -0.0029  0.0965
  962MOL0     H26976   6.689   0.533  10.688 -3.3958  3.2222 -0.5084
  962MOL0     H26977   6.722   0.401  10.579 -0.7262  0.3356  1.6725
  962MOL0     H26978   6.815   0.691  10.523 -0.0823  0.7338  0.1886
  962MOL0     H26979   6.864   0.540  10.433  4.4213  0.4993  0.7417
  962MOL0     H26980   7.043   0.620  10.615 -1.2361  1.0948 -0.8110
  962MOL0     H26981   6.925   0.579  10.731  1.4083  1.4938  0.2072
  962MOL0     H26982   7.037   0.200  10.682 -0.5132  0.1277 -0.9577
  962MOL0     H26983   6.552   0.531  10.137 -1.1731  0.8507 -1.4034
  962MOL0     H26984   6.337   0.551  10.022 -0.5690  0.0649 -1.0202
  963MOL0     O26985   4.088   3.703   0.581  0.0630 -0.5524  0.1433
  963MOL0     C26986   4.047   3.601   0.525 -0.1765 -0.0445  0.0178
  963MOL0     O26987   3.923   3.545   0.543 -0.4213 -0.5004 -0.3517
  963MOL0     C26988   3.825   3.591   0.634  0.2661 -0.4537  0.4192
  963MOL0     C26989   3.808   3.722   0.672 -0.4443 -1.2154 -0.0868
  963MOL0     C26990   3.700   3.769   0.746 -0.6245  0.4350 -0.4146
  963MOL0     C26991   3.600   3.680   0.787 -0.2411 -0.6606  1.2233
  963MOL0     O26992   3.510   3.741   0.874  0.4684  0.0236 -0.0646
  963MOL0     C26993   3.415   3.651   0.928  0.2899  0.8936 -0.0001
  963MOL0     C26994   3.288   3.620   0.837  0.3603  0.3608 -0.9944
  963MOL0     C26995   3.190   3.513   0.894  0.7952 -0.3749 -0.4663
  963MOL0     C26996   3.163   3.535   1.043 -0.7184  0.2832 -0.3081
  963MOL0     C26997   3.034   3.457   1.086 -0.8634  0.3848  0.5568
  963MOL0     C26998   3.052   3.307   1.062  0.2882  0.5078 -0.1910
  963MOL0     C26999   3.160   3.233   1.142 -0.1502 -0.2255 -0.9689
  963MOL0     C27000   3.149   3.243   1.301  0.0269  0.3615  0.2615
  963MOL0     N27001   3.037   3.161   1.345 -0.7182  0.4014  0.3270
  963MOL0     C27002   3.018   3.027   1.320  0.0421 -0.8597  0.3562
  963MOL0     C27003   2.896   3.009   1.377  0.1601 -0.9111 -1.4050
  963MOL0     C27004   2.827   2.876   1.385  0.0884 -0.0095  0.4101
  963MOL0     C27005   2.912   2.751   1.381 -0.4153 -0.4408 -0.3303
  963MOL0     C27006   2.845   2.628   1.323 -0.3275  1.0616 -0.0867
  963MOL0     C27007   2.932   2.495   1.337  0.0343  0.0186  0.9307
  963MOL0     O27008   2.908   2.447   1.470  0.0944 -0.3674 -0.1058
  963MOL0     C27009   2.924   2.310   1.494 -0.7790 -0.2165 -0.4975
  963MOL0     C27010   2.998   2.215   1.410  0.0798 -0.3304 -0.1406
  963MOL0     C27011   3.004   2.085   1.459 -1.2680 -1.1179  0.0317
  963MOL0     C27012   2.959   2.050   1.587 -0.3947  0.9330  0.3823
  963MOL0     C27013   2.966   1.910   1.645 -0.6194  0.0456  0.2874
  963MOL0     O27014   3.033   1.817   1.561  0.1858 -0.6196 -0.4475
  963MOL0     C27015   3.050   1.694   1.614  0.1778  0.4587 -0.0726
  963MOL0     C27016   3.153   1.659   1.712  0.6110  0.9550 -0.1651
  963MOL0     C27017   3.150   1.531   1.775  0.3223 -0.9117 -0.4079
  963MOL0     C27018   3.065   1.430   1.728 -0.1194  0.0268 -0.1266
  963MOL0     O27019   3.084   1.316   1.796 -0.0273 -0.1187 -0.3731
  963MOL0     C27020   2.969   1.229   1.812  0.0570  0.2450 -0.0018
  963MOL0     C27021   2.868   1.277   1.924 -0.1702  0.2822 -0.0424
  963MOL0     C27022   2.745   1.178   1.912 -1.0465 -0.4977 -0.7160
  963MOL0     C27023   2.747   1.060   2.011 -0.3107  0.6182  0.1658
  963MOL0     C27024   2.697   0.926   1.948  0.7909  0.2344 -0.4698
  963MOL0     C27025   2.550   0.933   1.893 -0.7876  0.5656  0.1299
  963MOL0     C27026   2.528   0.800   1.816 -0.5119 -0.7676 -0.8671
  963MOL0     C27027   2.390   0.782   1.769  0.0709  1.1189  0.2120
  963MOL0    Cl27028   2.378   0.885   1.623 -0.4575 -0.2427 -0.3017
  963MOL0     C27029   2.969   1.467   1.635  0.5447  0.2215  0.6194
  963MOL0     C27030   2.967   1.587   1.563 -0.0570 -0.0160 -0.1366
  963MOL0     O27031   2.927   1.886   1.762  0.4121  0.0936 -0.4255
  963MOL0     C27032   2.895   2.145   1.664  0.5607  0.7965  0.0982
  963MOL0     C27033   2.876   2.274   1.624 -0.0382  0.2142 -0.4061
  963MOL0     N27034   2.846   3.127   1.439 -0.3372 -0.2913 -0.2700
  963MOL0     N27035   2.937   3.217   1.424 -0.2726  0.0793  0.3289
  963MOL0     C27036   3.622   3.548   0.753 -0.5168  0.5133  0.5972
  963MOL0     C27037   3.730   3.501   0.676 -0.7237 -1.0816  0.0897
  963MOL0     C27038   4.150   3.530   0.443 -0.4946 -0.6208  0.4684
  963MOL0     C27039   4.112   3.432   0.355 -0.5449  0.4128 -0.4773
  963MOL0     C27040   4.195   3.363   0.273  0.1059 -0.7228  1.0776
  963MOL0     C27041   4.330   3.401   0.270 -0.2493 -0.9509 -0.4540
  963MOL0     O27042   4.425   3.362   0.175 -0.3138  0.1759  0.8584
  963MOL0     C27043   4.384   3.250   0.093  0.7040  0.4037 -0.3008
  963MOL0     C27044   4.488   3.199  -0.006 -0.7973  0.3887  0.0711
  963MOL0     C27045   4.559   3.305  -0.084  0.0925  0.1307  0.3620
  963MOL0     C27046   4.688   3.255  -0.152 -0.0749 -0.5313 -1.1479
  963MOL0     C27047   4.759   3.370  -0.198 -0.0926  0.0764 -0.7476
  963MOL0     C27048   4.811   3.475  -0.231  0.2890  0.0417  0.1605
  963MOL0     C27049   4.382   3.498   0.362 -0.6327 -0.3788  0.2355
  963MOL0     C27050   4.286   3.561   0.446 -0.1458  0.3856 -0.6721
  963MOL0     H27051   3.880   3.798   0.642  2.0484 -2.4652  2.3200
  963MOL0     H27052   3.695   3.872   0.780 -1.0909 -0.6532  3.1857
  963MOL0     H27053   3.387   3.694   1.024  1.3633 -0.4965  0.9635
  963MOL0     H27054   3.463   3.555   0.949 -0.3074  0.2979 -1.2176
  963MOL0     H27055   3.328   3.589   0.740  0.6583  0.0238 -0.7641
  963MOL0     H27056   3.235   3.716   0.830 -1.4873 -0.5842 -0.5864
  963MOL0     H27057   3.238   3.415   0.889 -0.2788 -1.0093  0.9865
  963MOL0     H27058   3.098   3.513   0.836  2.2053 -1.1065 -2.8579
  963MOL0     H27059   3.255   3.503   1.094  0.5612  1.0324 -2.0283
  963MOL0     H27060   3.147   3.641   1.065  0.2334  0.3319  0.2128
  963MOL0     H27061   2.947   3.486   1.026 -1.4641  0.2159  1.3193
  963MOL0     H27062   3.006   3.483   1.189  2.9862  4.6062  0.8429
  963MOL0     H27063   3.065   3.292   0.955  0.2789  0.5930 -0.2045
  963MOL0     H27064   2.953   3.272   1.091  0.1260  1.0998 -0.0032
  963MOL0     H27065   3.146   3.128   1.112 -2.5756 -0.3071  0.2758
  963MOL0     H27066   3.249   3.282   1.100 -1.0052  0.7777 -1.6349
  963MOL0     H27067   3.131   3.346   1.331  3.2950  0.3516  2.8081
  963MOL0     H27068   3.239   3.205   1.350 -0.6709 -1.9400 -0.1186
  963MOL0     H27069   3.083   2.956   1.270 -1.2688 -1.3649 -0.6909
  963MOL0     H27070   2.748   2.862   1.310 -0.3210 -0.2127  0.8714
  963MOL0     H27071   2.775   2.875   1.481  0.1168  2.1155  0.4963
  963MOL0     H27072   2.931   2.734   1.488 -1.4603 -0.1243 -0.0860
  963MOL0     H27073   3.008   2.774   1.335  0.3381 -1.1332  0.8307
  963MOL0     H27074   2.744   2.603   1.358 -0.0964 -1.5213 -1.0357
  963MOL0     H27075   2.820   2.646   1.218  0.6614 -0.3790 -0.5994
  963MOL0     H27076   3.036   2.509   1.306  0.4455 -0.5260  2.0256
  963MOL0     H27077   2.896   2.416   1.270  0.8914 -0.0561  0.5491
  963MOL0     H27078   3.029   2.251   1.313  2.4680  1.6740  1.2403
  963MOL0     H27079   3.026   2.007   1.386 -1.8060 -1.2944  0.0528
  963MOL0     H27080   3.223   1.732   1.754  1.0442 -0.8200  2.4142
  963MOL0     H27081   3.219   1.504   1.854 -2.7531  0.0532  2.8458
  963MOL0     H27082   2.992   1.127   1.842 -3.0563  0.2477  3.0739
  963MOL0     H27083   2.914   1.221   1.718 -2.0642 -2.0391  1.3139
  963MOL0     H27084   2.838   1.380   1.903  0.7278  0.7552  0.9412
  963MOL0     H27085   2.916   1.285   2.021 -0.0174 -0.4101 -0.0598
  963MOL0     H27086   2.726   1.159   1.806  0.2590 -0.2767 -1.0188
  963MOL0     H27087   2.666   1.234   1.962 -2.2519 -2.3881 -0.3783
  963MOL0     H27088   2.852   1.041   2.038  0.1720  1.8630 -0.7735
  963MOL0     H27089   2.691   1.089   2.100  2.6053 -1.0807  2.7368
  963MOL0     H27090   2.706   0.843   2.018 -1.4342 -1.7403 -2.3213
  963MOL0     H27091   2.763   0.899   1.865  0.9374  0.7620 -0.5274
  963MOL0     H27092   2.542   1.014   1.820 -1.7071  0.2636 -0.1264
  963MOL0     H27093   2.481   0.941   1.978  0.6344 -0.7212  1.4839
  963MOL0     H27094   2.593   0.809   1.729  2.4453  1.3605  1.3242
  963MOL0     H27095   2.559   0.717   1.880  0.9915 -0.9089 -1.7244
  963MOL0     H27096   2.316   0.821   1.840 -1.2207  2.0185 -1.5323
  963MOL0     H27097   2.368   0.678   1.743  1.8417  0.2130  2.1060
  963MOL0     H27098   2.892   1.396   1.606  3.1086 -2.0222 -1.2490
  963MOL0     H27099   2.890   1.596   1.487 -1.6319 -0.1405  1.3857
  963MOL0     H27100   2.859   2.121   1.763  1.8961  1.0014  0.6450
  963MOL0     H27101   2.823   2.347   1.685  1.2791  0.7550  0.1165
  963MOL0     H27102   3.550   3.472   0.783  0.1781 -0.7579 -0.8267
  963MOL0     H27103   3.741   3.396   0.653 -2.3782 -0.7573 -2.4945
  963MOL0     H27104   4.007   3.406   0.350 -0.2952 -1.0008  0.9523
  963MOL0     H27105   4.161   3.290   0.200  0.5389  0.1368 -0.0285
  963MOL0     H27106   4.307   3.290   0.027 -1.1760 -0.1967  1.4294
  963MOL0     H27107   4.344   3.173   0.159 -0.2607  1.5578  0.5138
  963MOL0     H27108   4.557   3.136   0.051 -1.0002 -0.7971 -0.9573
  963MOL0     H27109   4.442   3.144  -0.089 -1.7157  0.4893  0.5031
  963MOL0     H27110   4.588   3.386  -0.017  0.8275  1.5425 -1.5606
  963MOL0     H27111   4.488   3.353  -0.152  0.9117 -0.6030 -1.0693
  963MOL0     H27112   4.756   3.205  -0.081 -0.5049 -2.4807 -2.0382
  963MOL0     H27113   4.658   3.192  -0.237  2.1697  1.1372 -3.3220
  963MOL0     H27114   4.872   3.556  -0.268  1.2315 -0.0509  1.4403
  963MOL0     H27115   4.488   3.522   0.362 -0.9127  0.9208  0.2444
  963MOL0     H27116   4.315   3.649   0.502  3.7478 -0.4533 -1.0880
  964MOL0     O27117   4.658   0.255   9.802  0.9250  0.1292 -0.0504
  964MOL0     C27118   4.714   0.235   9.692  0.3191  0.5003  0.0364
  964MOL0     O27119   4.665   0.138   9.604 -0.2312  0.4668  0.5009
  964MOL0     C27120   4.569   0.048   9.654  0.2117  0.5603 -0.3419
  964MOL0     C27121   4.434   0.086   9.679  0.1416 -0.3887  0.1626
  964MOL0     C27122   4.343  -0.015   9.715 -0.5579 -0.1949  0.7809
  964MOL0     C27123   4.376  -0.152   9.709 -0.5901 -0.2910 -0.2842
  964MOL0     O27124   4.299  -0.259   9.724  0.4090 -0.6758 -0.2265
  964MOL0     C27125   4.156  -0.251   9.715 -0.4849 -0.3614 -0.8755
  964MOL0     C27126   4.100  -0.203   9.579  0.0015 -1.1698 -0.4831
  964MOL0     C27127   3.942  -0.188   9.581  0.2278 -1.0596  0.6623
  964MOL0     C27128   3.868  -0.327   9.584  0.0743  0.6781 -0.1031
  964MOL0     C27129   3.718  -0.301   9.578  0.0127  0.6996 -0.3663
  964MOL0     C27130   3.675  -0.270   9.431  0.3641  0.5919 -0.1558
  964MOL0     C27131   3.518  -0.258   9.412 -0.4918 -0.0432 -0.6533
  964MOL0     C27132   3.467  -0.269   9.267  0.2608 -1.0459  0.2400
  964MOL0     N27133   3.322  -0.296   9.248  0.4605  0.3050  0.5206
  964MOL0     C27134   3.258  -0.417   9.221 -0.2573 -0.3346 -0.5980
  964MOL0     C27135   3.129  -0.374   9.199  0.8479 -0.0120 -0.1176
  964MOL0     C27136   3.010  -0.462   9.158  0.0908  0.6047 -0.1886
  964MOL0     C27137   2.982  -0.586   9.242 -0.2316 -0.0797 -0.3628
  964MOL0     C27138   2.862  -0.675   9.207 -0.3674 -0.3814 -0.0432
  964MOL0     C27139   2.724  -0.618   9.214 -0.1259 -0.6722 -0.5665
  964MOL0     O27140   2.623  -0.719   9.181  0.0169  0.0864 -0.5067
  964MOL0     C27141   2.491  -0.680   9.178 -0.0928 -0.7145 -0.2706
  964MOL0     C27142   2.417  -0.796   9.181  0.4226 -0.3736  0.6521
  964MOL0     C27143   2.279  -0.785   9.167  0.0122 -0.4117 -0.7792
  964MOL0     C27144   2.221  -0.656   9.129 -0.4944  0.3185  0.3622
  964MOL0     C27145   2.075  -0.642   9.110  0.0066  0.1580  0.2774
  964MOL0     O27146   2.007  -0.756   9.078 -0.1636  0.3313  0.2261
  964MOL0     C27147   1.892  -0.742   9.009 -0.1125  0.1542 -0.3499
  964MOL0     C27148   1.846  -0.650   8.917 -0.4332 -0.2751  0.6304
  964MOL0     C27149   1.718  -0.636   8.882  0.2068 -0.2708  1.0101
  964MOL0     C27150   1.619  -0.733   8.912 -0.3476 -0.1077 -0.1387
  964MOL0     O27151   1.494  -0.719   8.856  0.6744 -0.2832 -0.6541
  964MOL0     C27152   1.379  -0.789   8.916 -0.7950  0.1655  0.0271
  964MOL0     C27153   1.255  -0.728   8.862  0.2155 -0.1887  0.7173
  964MOL0     C27154   1.146  -0.827   8.885  0.2408  0.7005  0.0346
  964MOL0     C27155   1.012  -0.754   8.902 -0.4036 -0.5236  0.1854
  964MOL0     C27156   0.898  -0.857   8.931  0.6765 -1.0871  0.5303
  964MOL0     C27157   0.904  -0.920   9.071 -0.3813 -0.1556 -0.5078
  964MOL0     C27158   0.828  -0.845   9.175  0.2402  0.1017  0.1462
  964MOL0     C27159   0.844  -0.887   9.322  0.4727  0.3381  0.4122
  964MOL0    Cl27160   0.792  -1.065   9.341 -0.1648  0.1723 -0.1151
  964MOL0     C27161   1.665  -0.839   8.994  0.3052  0.5031  0.3033
  964MOL0     C27162   1.798  -0.843   9.037  0.4852 -0.3854 -0.8358
  964MOL0     O27163   2.029  -0.526   9.107 -0.5474  0.0625 -0.0675
  964MOL0     C27164   2.305  -0.542   9.134  0.1889 -0.1273 -0.0360
  964MOL0     C27165   2.441  -0.553   9.155  0.5599 -0.7097  0.4066
  964MOL0     N27166   3.116  -0.242   9.217  0.0641 -0.9116  0.5226
  964MOL0     N27167   3.235  -0.193   9.232 -0.2651  0.1464  0.4294
  964MOL0     C27168   4.501  -0.188   9.676 -0.2561 -0.1808 -0.0865
  964MOL0     C27169   4.601  -0.087   9.657  0.3090 -0.3545 -0.2315
  964MOL0     C27170   4.844   0.306   9.657  1.0210 -0.6787  0.1712
  964MOL0     C27171   4.892   0.409   9.730  0.3520 -0.7159 -0.0895
  964MOL0     C27172   4.989   0.491   9.678 -0.4639  0.3519  0.3201
  964MOL0     C27173   5.039   0.471   9.542  0.5268  0.3119 -0.4693
  964MOL0     O27174   5.137   0.542   9.482 -0.3489 -0.3434 -0.1848
  964MOL0     C27175   5.129   0.686   9.500  0.4494 -0.5976  0.3177
  964MOL0     C27176   5.222   0.754   9.388 -0.4833 -1.0988 -0.6013
  964MOL0     C27177   5.213   0.910   9.405 -0.2306  1.3677 -0.1920
  964MOL0     C27178   5.309   0.982   9.309 -0.4081 -0.8886  0.0796
  964MOL0     C27179   5.285   0.964   9.161 -0.6431 -0.2793 -0.0833
  964MOL0     C27180   5.257   0.965   9.044 -0.4694  0.6985 -0.9927
  964MOL0     C27181   4.996   0.363   9.472  0.2350 -0.2984  0.0383
  964MOL0     C27182   4.897   0.282   9.533 -0.4775  0.3347  0.2465
  964MOL0     H27183   4.404   0.190   9.687  1.6349  0.1521 -0.9371
  964MOL0     H27184   4.240   0.013   9.731 -1.0758 -1.8729  0.6207
  964MOL0     H27185   4.116  -0.174   9.780  0.4642  0.1341 -0.8624
  964MOL0     H27186   4.122  -0.354   9.733  0.8203 -0.9662 -1.6511
  964MOL0     H27187   4.135  -0.268   9.498 -0.6608 -0.6562 -1.1903
  964MOL0     H27188   4.131  -0.099   9.566  1.5740 -1.2783  1.7727
  964MOL0     H27189   3.907  -0.133   9.493 -0.8756  1.3006  2.4653
  964MOL0     H27190   3.914  -0.117   9.659  0.4551  3.1207 -2.6866
  964MOL0     H27191   3.898  -0.395   9.504 -0.1248 -0.2706  0.6050
  964MOL0     H27192   3.882  -0.386   9.676 -2.6841  0.1126  0.0574
  964MOL0     H27193   3.684  -0.226   9.650  0.7459 -0.1470  0.9033
  964MOL0     H27194   3.681  -0.401   9.603  2.5136  0.2494  2.0100
  964MOL0     H27195   3.713  -0.349   9.366  1.0535  1.5195 -0.9105
  964MOL0     H27196   3.722  -0.175   9.404 -2.4649  1.5112 -2.4182
  964MOL0     H27197   3.479  -0.341   9.471 -1.5239  0.0817 -1.1339
  964MOL0     H27198   3.472  -0.166   9.451 -0.9823 -0.2130 -0.8265
  964MOL0     H27199   3.521  -0.349   9.216  2.1485  0.5197 -0.3175
  964MOL0     H27200   3.483  -0.180   9.205  0.9214 -1.4867 -0.2347
  964MOL0     H27201   3.292  -0.520   9.227 -0.0905 -0.1998  2.1450
  964MOL0     H27202   3.028  -0.499   9.057 -2.9738 -0.5367 -0.3966
  964MOL0     H27203   2.919  -0.402   9.165 -1.4557 -1.7905  2.1214
  964MOL0     H27204   2.972  -0.557   9.347 -0.1013 -0.7506 -0.1612
  964MOL0     H27205   3.068  -0.652   9.225  0.2043  0.8374 -1.8723
  964MOL0     H27206   2.871  -0.715   9.106  0.1274  0.1809 -0.2268
  964MOL0     H27207   2.870  -0.751   9.286  1.1373  0.7294  0.9342
  964MOL0     H27208   2.708  -0.523   9.163 -0.4169 -0.2413  0.2990
  964MOL0     H27209   2.707  -0.577   9.314  1.8674  2.7402 -1.4935
  964MOL0     H27210   2.449  -0.894   9.215 -0.0958 -1.6723 -2.3135
  964MOL0     H27211   2.219  -0.875   9.163 -0.9566  0.1546  0.4863
  964MOL0     H27212   1.909  -0.569   8.883 -3.4424  0.5480 -3.7413
  964MOL0     H27213   1.696  -0.542   8.834  0.6548 -0.6256  0.0865
  964MOL0     H27214   1.385  -0.774   9.024  0.7321 -1.6130  0.2322
  964MOL0     H27215   1.382  -0.896   8.892 -0.0189  0.5251 -1.6341
  964MOL0     H27216   1.270  -0.690   8.761  3.3713  0.3022  1.2708
  964MOL0     H27217   1.223  -0.637   8.914 -1.8600 -0.2737 -0.3086
  964MOL0     H27218   1.166  -0.886   8.975  3.3443  0.3862 -0.7177
  964MOL0     H27219   1.139  -0.902   8.806 -1.9345  2.5006 -1.6304
  964MOL0     H27220   1.015  -0.674   8.977  2.6314  0.1235 -0.4849
  964MOL0     H27221   0.987  -0.721   8.801 -2.7398 -4.1009 -0.5671
  964MOL0     H27222   0.907  -0.931   8.850 -0.3978  0.9859 -1.5963
  964MOL0     H27223   0.803  -0.805   8.919  1.1198  0.3361  2.6885
  964MOL0     H27224   1.003  -0.946   9.108 -0.0018 -1.6869 -2.4138
  964MOL0     H27225   0.850  -1.014   9.058 -0.2441 -0.2413 -0.4558
  964MOL0     H27226   0.880  -0.749   9.182  2.4713 -1.1689  2.7446
  964MOL0     H27227   0.724  -0.824   9.148  1.3479  1.7146 -3.4965
  964MOL0     H27228   0.781  -0.830   9.392 -1.9359  0.3859 -1.6395
  964MOL0     H27229   0.949  -0.878   9.349  1.6342 -2.7760 -2.3388
  964MOL0     H27230   1.595  -0.916   9.025  1.4505 -0.9727 -0.6337
  964MOL0     H27231   1.816  -0.921   9.109 -3.3873  0.6698  1.6047
  964MOL0     H27232   2.250  -0.449   9.136  1.0424  0.3761  1.4994
  964MOL0     H27233   2.496  -0.459   9.158  0.6376 -0.7634  0.6524
  964MOL0     H27234   4.531  -0.293   9.677  2.0374  0.4039 -0.6120
  964MOL0     H27235   4.703  -0.106   9.627 -0.9238 -1.9891 -3.9646
  964MOL0     H27236   4.838   0.448   9.816 -0.5686  0.4465 -1.1507
  964MOL0     H27237   5.014   0.580   9.736 -1.8606  1.5781 -0.8497
  964MOL0     H27238   5.156   0.712   9.603 -1.7086 -2.4996  1.4587
  964MOL0     H27239   5.030   0.721   9.473 -0.0867 -2.4091 -0.2070
  964MOL0     H27240   5.328   0.727   9.399 -0.3964  0.2330  4.0798
  964MOL0     H27241   5.186   0.743   9.286 -0.2584  5.0843 -1.7332
  964MOL0     H27242   5.243   0.943   9.505  0.5296  3.1468 -0.9707
  964MOL0     H27243   5.111   0.941   9.383 -0.4046  0.1113 -1.2684
  964MOL0     H27244   5.306   1.087   9.338  0.5500 -1.5399  2.8602
  964MOL0     H27245   5.413   0.957   9.331  0.1762 -0.4896 -1.9970
  964MOL0     H27246   5.232   0.953   8.941 -2.0615 -0.6598 -0.5091
  964MOL0     H27247   5.038   0.342   9.375  1.6365  1.1343  0.3069
  964MOL0     H27248   4.861   0.194   9.482  1.6712 -0.8565  0.6396
  965MOL0     O27249   0.653   0.614  10.338 -0.3046  0.7117  0.3432
  965MOL0     C27250   0.660   0.733  10.308 -0.2886  0.0664 -0.4756
  965MOL0     O27251   0.558   0.806  10.268  0.1308 -1.0594  0.6553
  965MOL0     C27252   0.431   0.751  10.255  0.1274 -0.6533  0.6983
  965MOL0     C27253   0.359   0.797  10.141 -0.0030 -0.1153 -0.2195
  965MOL0     C27254   0.223   0.776  10.122  0.7578  0.8096 -0.4805
  965MOL0     C27255   0.144   0.729  10.233 -0.2730  0.1442  0.4066
  965MOL0     O27256   0.008   0.737  10.243 -0.2044 -0.1130 -0.2650
  965MOL0     C27257  -0.074   0.720  10.130 -0.3344  0.2775 -0.3255
  965MOL0     C27258  -0.213   0.681  10.175 -1.0772  0.1489  0.6278
  965MOL0     C27259  -0.221   0.534  10.230  0.1436 -0.3335  0.6300
  965MOL0     C27260  -0.214   0.427  10.123 -0.3684  0.4452  0.3634
  965MOL0     C27261  -0.199   0.280  10.171  0.1036 -0.6300  0.3777
  965MOL0     C27262  -0.089   0.252  10.278 -0.9329 -0.4500 -1.1358
  965MOL0     C27263  -0.093   0.094  10.319  0.4382  0.0069 -0.2316
  965MOL0     C27264  -0.035  -0.004  10.202  0.0633  0.1730  0.1783
  965MOL0     N27265   0.002  -0.135  10.262 -0.5143  0.4082 -0.1192
  965MOL0     C27266   0.129  -0.161  10.310 -0.7345 -0.7897 -0.6607
  965MOL0     C27267   0.128  -0.290  10.338  0.0175  0.5387 -0.2250
  965MOL0     C27268   0.239  -0.364  10.395  0.5232  0.3222  0.4615
  965MOL0     C27269   0.236  -0.516  10.359 -0.4568 -0.3730  0.3397
  965MOL0     C27270   0.268  -0.605  10.480 -0.2085  1.4355  1.0700
  965MOL0     C27271   0.415  -0.598  10.530  0.3596  0.3527 -0.0209
  965MOL0     O27272   0.491  -0.680  10.435 -0.1483 -0.7109  0.2968
  965MOL0     C27273   0.607  -0.732  10.489  0.4508  0.4777  0.5458
  965MOL0     C27274   0.691  -0.657  10.565  0.7819 -0.5364  0.4851
  965MOL0     C27275   0.798  -0.707  10.633  0.5084 -0.1344 -0.0365
  965MOL0     C27276   0.831  -0.850  10.605 -0.1470  0.8346 -0.5263
  965MOL0     C27277   0.954  -0.919  10.668  0.3150 -0.2032  0.6126
  965MOL0     O27278   0.968  -1.043  10.619  0.8713 -0.2259 -0.9804
  965MOL0     C27279   1.082  -1.113  10.627  0.2889  0.5039 -0.0629
  965MOL0     C27280   1.182  -1.088  10.532 -0.1285 -0.0003 -0.0653
  965MOL0     C27281   1.300  -1.167  10.525 -0.4968 -0.7145 -0.9237
  965MOL0     C27282   1.326  -1.262  10.623  0.2931 -1.5633  0.1018
  965MOL0     O27283   1.444  -1.325  10.620  0.9871  0.3466 -0.7330
  965MOL0     C27284   1.477  -1.419  10.727 -0.4581  0.1246  0.5363
  965MOL0     C27285   1.629  -1.436  10.726 -0.0039 -0.9799 -0.6647
  965MOL0     C27286   1.688  -1.539  10.819  0.0897  0.5698  0.4541
  965MOL0     C27287   1.840  -1.530  10.837 -0.1660  0.4580  0.1374
  965MOL0     C27288   1.900  -1.640  10.922  0.4566  0.5168 -1.1902
  965MOL0     C27289   1.873  -1.779  10.881 -0.6177  0.5612 -0.0355
  965MOL0     C27290   1.935  -1.891  10.972 -0.3302 -0.1480 -0.5560
  965MOL0     C27291   1.915  -2.033  10.920 -0.3865 -0.5199  0.7561
  965MOL0    Cl27292   1.947  -2.028  10.739  0.0489 -0.0520  0.2106
  965MOL0     C27293   1.227  -1.281  10.726  0.3399 -0.7253 -0.4194
  965MOL0     C27294   1.100  -1.217  10.722 -0.0051  0.5083  0.4248
  965MOL0     O27295   1.042  -0.862  10.742  0.0276  0.6480 -0.4627
  965MOL0     C27296   0.754  -0.928  10.517 -0.6340 -0.1854  0.9783
  965MOL0     C27297   0.638  -0.864  10.462 -1.0493  0.1697  0.2905
  965MOL0     N27298  -0.005  -0.343  10.316 -0.2129  0.6272 -0.7391
  965MOL0     N27299  -0.082  -0.243  10.278  0.0237  0.4843 -0.1626
  965MOL0     C27300   0.215   0.691  10.352  0.1940  0.4211  0.4316
  965MOL0     C27301   0.356   0.684  10.358  0.7275  0.7333 -0.4965
  965MOL0     C27302   0.797   0.797  10.294 -0.0486  0.4380 -0.2530
  965MOL0     C27303   0.805   0.928  10.273 -0.3703 -0.8903 -0.3858
  965MOL0     C27304   0.934   0.987  10.268 -0.2215  0.6929  0.1500
  965MOL0     C27305   1.049   0.919  10.236 -0.0486  1.4857 -0.1766
  965MOL0     O27306   1.178   0.967  10.221  0.1917 -0.1118  0.4101
  965MOL0     C27307   1.180   1.105  10.196 -0.5712 -0.7632 -0.3642
  965MOL0     C27308   1.321   1.150  10.163 -0.2955 -0.6755 -0.1993
  965MOL0     C27309   1.411   1.156  10.291 -0.2767  0.0778 -0.5705
  965MOL0     C27310   1.435   1.030  10.365 -0.1180  0.5248 -0.1483
  965MOL0     C27311   1.514   0.944  10.273  0.6465 -1.1687  0.2654
  965MOL0     C27312   1.577   0.889  10.190 -1.2733 -0.1000 -0.5598
  965MOL0     C27313   1.034   0.784  10.256 -0.1645  0.3505 -0.5415
  965MOL0     C27314   0.910   0.723  10.292 -1.3337 -0.5362  0.2087
  965MOL0     H27315   0.421   0.848  10.067  1.8944  1.3819  2.2287
  965MOL0     H27316   0.175   0.820  10.036  2.4137  1.9171 -0.8770
  965MOL0     H27317  -0.036   0.648  10.058  0.5754 -0.5950  0.9682
  965MOL0     H27318  -0.074   0.820  10.085  1.3457  0.4876  0.0728
  965MOL0     H27319  -0.276   0.680  10.085 -1.4431  3.4209  0.7287
  965MOL0     H27320  -0.265   0.752  10.240 -1.5253  0.0633  0.3687
  965MOL0     H27321  -0.314   0.516  10.285 -0.1376 -1.8577 -0.2858
  965MOL0     H27322  -0.146   0.535  10.309 -0.5388  2.9756  1.3759
  965MOL0     H27323  -0.305   0.441  10.065 -0.0095 -1.4943 -0.7469
  965MOL0     H27324  -0.122   0.446  10.067  1.1330 -1.5272  2.0125
  965MOL0     H27325  -0.187   0.209  10.089  1.1560  0.6359 -0.5945
  965MOL0     H27326  -0.293   0.254  10.221 -0.5350  0.1777 -0.3689
  965MOL0     H27327  -0.096   0.322  10.362  3.0112 -1.1400  0.0127
  965MOL0     H27328   0.004   0.272  10.222 -1.6921  1.8776 -1.6910
  965MOL0     H27329  -0.038   0.087  10.413 -1.6700  0.8324  1.1436
  965MOL0     H27330  -0.196   0.068  10.345 -0.0214 -0.1684 -2.0522
  965MOL0     H27331   0.049   0.044  10.152 -1.3521  0.5608 -2.0083
  965MOL0     H27332  -0.114  -0.020  10.128 -0.4232 -0.5254  0.8237
  965MOL0     H27333   0.213  -0.093  10.318 -1.3565 -0.1039  0.1452
  965MOL0     H27334   0.228  -0.348  10.503  2.7475 -0.4654  0.8481
  965MOL0     H27335   0.334  -0.323  10.360 -0.7463  2.0671 -1.0824
  965MOL0     H27336   0.317  -0.513  10.285  0.3480  0.6276  1.2299
  965MOL0     H27337   0.146  -0.549  10.306 -0.0462  1.0195 -1.3287
  965MOL0     H27338   0.200  -0.580  10.562  0.7306 -0.9750  2.6831
  965MOL0     H27339   0.256  -0.709  10.451  3.6760  0.4977  2.1786
  965MOL0     H27340   0.424  -0.631  10.633 -1.2353 -3.9783 -1.0513
  965MOL0     H27341   0.450  -0.495  10.532 -0.2369  0.5434  0.6740
  965MOL0     H27342   0.670  -0.555  10.595 -0.4233 -1.1689  1.8757
  965MOL0     H27343   0.860  -0.663  10.710  1.2102 -1.0002 -0.0927
  965MOL0     H27344   1.175  -1.014  10.453  2.8418  0.5505  0.0628
  965MOL0     H27345   1.371  -1.150  10.445 -0.0745 -1.5318 -0.7310
  965MOL0     H27346   1.420  -1.512  10.728  0.0142 -0.1591  1.4004
  965MOL0     H27347   1.452  -1.376  10.824 -2.3083  0.1980  0.0665
  965MOL0     H27348   1.675  -1.344  10.766 -1.2492 -1.7657  2.9152
  965MOL0     H27349   1.664  -1.457  10.625  4.0973 -2.4795  0.8673
  965MOL0     H27350   1.663  -1.635  10.772  2.6067  0.8473 -1.7106
  965MOL0     H27351   1.636  -1.526  10.914 -0.8768  0.5529 -0.0664
  965MOL0     H27352   1.888  -1.527  10.738 -0.7816 -0.6005 -0.2119
  965MOL0     H27353   1.850  -1.432  10.884 -6.9343 -0.0290  3.7656
  965MOL0     H27354   1.838  -1.627  11.011 -0.1234  1.1913 -1.6776
  965MOL0     H27355   2.007  -1.631  10.939  0.4770 -0.6423 -0.6570
  965MOL0     H27356   1.925  -1.793  10.786 -1.2546 -1.4381 -0.1281
  965MOL0     H27357   1.766  -1.796  10.868 -0.4287 -1.5097  0.7770
  965MOL0     H27358   2.043  -1.875  10.984 -0.3653 -0.2023 -0.1763
  965MOL0     H27359   1.892  -1.880  11.072  0.5480 -0.8404 -0.0873
  965MOL0     H27360   1.813  -2.066  10.941 -0.2088  0.8286  4.5184
  965MOL0     H27361   1.989  -2.104  10.958 -0.9611 -2.3059 -1.2565
  965MOL0     H27362   1.250  -1.356  10.802 -0.4344 -0.3495  0.2025
  965MOL0     H27363   1.027  -1.246  10.797 -1.1502  1.0807 -0.4417
  965MOL0     H27364   0.774  -1.028  10.483 -3.0359  0.1914 -1.8917
  965MOL0     H27365   0.569  -0.919  10.399 -0.9436  0.7270 -0.3138
  965MOL0     H27366   0.145   0.647  10.421 -3.0509 -0.6586 -3.1708
  965MOL0     H27367   0.397   0.659  10.456  1.1954  0.1421 -0.8307
  965MOL0     H27368   0.724   1.000  10.277  0.8153  0.3943  2.1436
  965MOL0     H27369   0.937   1.095  10.276  2.6124  0.5952  1.7770
  965MOL0     H27370   1.143   1.154  10.286  3.9060  0.4772  1.0870
  965MOL0     H27371   1.120   1.123  10.107 -0.5268  0.1445 -0.2204
  965MOL0     H27372   1.364   1.078  10.094  1.4731 -0.5612  0.7151
  965MOL0     H27373   1.320   1.249  10.117 -1.3540  0.1482  1.4662
  965MOL0     H27374   1.378   1.232  10.362 -0.8364 -1.4849  0.8881
  965MOL0     H27375   1.508   1.192  10.255 -0.1750  0.0261 -0.3445
  965MOL0     H27376   1.489   1.046  10.460  1.9377 -2.3028 -0.7108
  965MOL0     H27377   1.337   0.988  10.387 -0.3027  0.9966 -0.0653
  965MOL0     H27378   1.641   0.833  10.124  1.4755 -0.4039  2.1130
  965MOL0     H27379   1.117   0.713  10.250 -0.1357  0.3031  0.3472
  965MOL0     H27380   0.902   0.615  10.306 -2.9124 -0.7688 -1.9810
  966MOL0     O27381   1.397   8.684   7.385 -0.2336  0.0645 -0.5185
  966MOL0     C27382   1.399   8.787   7.324 -0.6962  0.1347 -1.4591
  966MOL0     O27383   1.295   8.833   7.250 -0.6364 -0.1556 -0.3868
  966MOL0     C27384   1.175   8.776   7.268 -0.7377 -0.6483 -0.7300
  966MOL0     C27385   1.152   8.638   7.286  0.3417 -0.5487  0.1224
  966MOL0     C27386   1.017   8.591   7.278 -0.1352 -0.6863  1.4098
  966MOL0     C27387   0.912   8.681   7.250 -0.7874 -0.5195 -0.0368
  966MOL0     O27388   0.791   8.622   7.252  0.6901 -0.0646  0.5961
  966MOL0     C27389   0.679   8.700   7.298  0.6201  0.2046 -0.2096
  966MOL0     C27390   0.569   8.606   7.362  0.0297 -0.4705  0.3242
  966MOL0     C27391   0.484   8.683   7.458  0.1670 -0.6109  0.3519
  966MOL0     C27392   0.422   8.802   7.390 -0.1150 -0.0864  0.4269
  966MOL0     C27393   0.267   8.821   7.422 -0.0895 -0.4194 -0.9906
  966MOL0     C27394   0.207   8.952   7.356 -0.0677  0.6178  1.1572
  966MOL0     C27395   0.065   8.984   7.388  0.7663  0.8481 -0.7571
  966MOL0     C27396  -0.047   8.922   7.302 -0.3217 -0.0169 -0.0732
  966MOL0     N27397  -0.177   8.901   7.373 -0.8792  0.6186  0.1251
  966MOL0     C27398  -0.267   8.995   7.398  0.8956 -0.6910  0.2222
  966MOL0     C27399  -0.351   8.938   7.490 -0.4247  0.3770  0.6111
  966MOL0     C27400  -0.478   9.002   7.549 -0.5966  0.5107  0.3810
  966MOL0     C27401  -0.476   8.997   7.702  0.2491  0.2041 -0.4054
  966MOL0     C27402  -0.527   8.868   7.765 -0.4682  0.1779 -1.2410
  966MOL0     C27403  -0.674   8.846   7.764  0.2831  0.2863 -0.0130
  966MOL0     O27404  -0.747   8.966   7.788 -0.6214 -0.4924 -1.4737
  966MOL0     C27405  -0.884   8.966   7.809 -0.2655  0.3732  0.3239
  966MOL0     C27406  -0.928   9.052   7.904 -0.0711 -0.7702  0.1869
  966MOL0     C27407  -1.068   9.057   7.936 -0.5789 -0.0655 -0.0292
  966MOL0     C27408  -1.151   8.971   7.864  0.3761  0.5098  0.2526
  966MOL0     C27409  -1.296   8.965   7.901  0.2049  0.4054 -0.5489
  966MOL0     O27410  -1.326   9.020   8.025  0.0924  0.9494  0.0723
  966MOL0     C27411  -1.455   9.016   8.067  0.0522  0.4086 -0.6585
  966MOL0     C27412  -1.566   9.065   7.990 -0.3221 -0.4099 -0.1423
  966MOL0     C27413  -1.696   9.045   8.041  0.5525  0.5654  0.1262
  966MOL0     C27414  -1.714   9.023   8.176  0.5686  0.8469 -0.4310
  966MOL0     O27415  -1.845   8.990   8.220 -0.3801 -0.4602  0.4021
  966MOL0     C27416  -1.858   8.968   8.360  0.1567  0.0292 -0.0686
  966MOL0     C27417  -2.000   8.937   8.417 -0.0711  0.3554  0.5613
  966MOL0     C27418  -2.068   8.820   8.327  0.0263 -0.7793 -0.8145
  966MOL0     C27419  -2.188   8.757   8.397  0.0784 -0.5640 -0.4839
  966MOL0     C27420  -2.250   8.642   8.308 -0.7201 -0.2568 -0.0095
  966MOL0     C27421  -2.294   8.693   8.173  0.4711 -0.1686  0.4323
  966MOL0     C27422  -2.368   8.587   8.083  0.3688 -0.9412 -1.2116
  966MOL0     C27423  -2.494   8.540   8.140 -0.0577 -0.5011 -0.1295
  966MOL0    Cl27424  -2.579   8.441   8.024  0.3521 -0.4422 -0.2900
  966MOL0     C27425  -1.592   9.002   8.255 -0.3317 -0.0770  0.1945
  966MOL0     C27426  -1.462   8.990   8.198  0.0959 -0.4082  0.8942
  966MOL0     O27427  -1.375   8.910   7.824  0.2163 -1.3736 -0.0081
  966MOL0     C27428  -1.100   8.872   7.778  0.0790 -0.7358  0.2596
  966MOL0     C27429  -0.970   8.878   7.749 -0.0345  0.1461  0.5775
  966MOL0     N27430  -0.305   8.808   7.509  0.5950  0.2983 -0.5683
  966MOL0     N27431  -0.202   8.788   7.438  0.4804  0.0489 -0.8765
  966MOL0     C27432   0.937   8.817   7.242 -0.2331  0.9035 -0.1211
  966MOL0     C27433   1.065   8.869   7.245  0.1374  0.5740  0.5295
  966MOL0     C27434   1.530   8.855   7.316 -0.6094  0.8951  0.6053
  966MOL0     C27435   1.644   8.812   7.393 -0.1640  0.5688 -0.4994
  966MOL0     C27436   1.763   8.876   7.382 -0.3407  0.0273  0.1902
  966MOL0     C27437   1.781   8.986   7.298  0.0222 -0.5500 -0.6852
  966MOL0     O27438   1.904   9.052   7.273  0.2423 -0.0214  0.1006
  966MOL0     C27439   2.011   9.031   7.365 -0.5244  0.4710  0.0202
  966MOL0     C27440   2.134   9.115   7.320  0.3932  0.0636  0.8659
  966MOL0     C27441   2.168   9.097   7.171  0.0565  0.6599  0.2446
  966MOL0     C27442   2.302   9.131   7.129 -0.2074  0.4950  0.0095
  966MOL0     C27443   2.323   9.273   7.144 -0.6214 -0.1035 -0.3117
  966MOL0     C27444   2.347   9.390   7.171  0.3723  0.3822  0.0107
  966MOL0     C27445   1.666   9.037   7.234 -0.0319 -0.2441 -0.7745
  966MOL0     C27446   1.547   8.966   7.235  0.0553  0.0494 -0.2508
  966MOL0     H27447   1.236   8.570   7.280  2.2928  1.7885 -0.6929
  966MOL0     H27448   0.979   8.492   7.299 -4.3880  0.3040 -0.4165
  966MOL0     H27449   0.643   8.763   7.216 -2.4930  2.3834  2.5580
  966MOL0     H27450   0.713   8.767   7.377 -1.6388  0.7772  0.3674
  966MOL0     H27451   0.620   8.521   7.408  1.6053  0.8881  1.2045
  966MOL0     H27452   0.507   8.571   7.279 -1.9843  2.3980  0.4723
  966MOL0     H27453   0.535   8.718   7.548 -1.5272  0.6548  0.8724
  966MOL0     H27454   0.412   8.607   7.490  1.9368 -3.6244 -2.2194
  966MOL0     H27455   0.481   8.889   7.419  1.2883 -0.2748 -1.6561
  966MOL0     H27456   0.427   8.803   7.280 -0.7941 -2.4128  0.3294
  966MOL0     H27457   0.266   8.825   7.531  1.5258 -2.2203 -0.8527
  966MOL0     H27458   0.203   8.735   7.404 -0.7984 -0.5218  1.5769
  966MOL0     H27459   0.217   8.945   7.247  1.2745  0.0068  1.2966
  966MOL0     H27460   0.267   9.041   7.373 -0.4011  1.5177 -1.7252
  966MOL0     H27461   0.062   8.951   7.492  1.5012 -1.9369 -1.5382
  966MOL0     H27462   0.057   9.093   7.380 -2.0603  0.6156 -2.3030
  966MOL0     H27463  -0.011   8.829   7.259 -3.1812 -1.4965  0.4474
  966MOL0     H27464  -0.058   8.969   7.204  1.0399 -0.2858 -0.3627
  966MOL0     H27465  -0.280   9.092   7.350  0.2117  0.3334  2.3211
  966MOL0     H27466  -0.568   8.951   7.514  1.5554 -2.2624 -1.5960
  966MOL0     H27467  -0.486   9.105   7.512  3.1622  0.6397 -0.4450
  966MOL0     H27468  -0.531   9.084   7.740  0.0591 -0.5445  1.1056
  966MOL0     H27469  -0.371   9.014   7.727  0.8553 -1.9219 -1.2588
  966MOL0     H27470  -0.476   8.783   7.719 -0.1397  0.4127 -1.3194
  966MOL0     H27471  -0.488   8.882   7.867 -0.3524 -1.0268 -1.1054
  966MOL0     H27472  -0.712   8.768   7.831 -4.3280  0.9247 -1.5437
  966MOL0     H27473  -0.710   8.813   7.666 -4.9543  2.1288  0.9715
  966MOL0     H27474  -0.858   9.126   7.940 -0.2644 -1.5533  2.2624
  966MOL0     H27475  -1.103   9.132   8.007 -0.3783  0.7384 -0.7602
  966MOL0     H27476  -1.549   9.100   7.889  1.4744 -1.1485 -0.1270
  966MOL0     H27477  -1.776   9.062   7.970  2.3115 -0.0492 -2.1469
  966MOL0     H27478  -1.809   9.050   8.412  3.9217 -2.8648  1.4608
  966MOL0     H27479  -1.802   8.877   8.385  1.1503  1.3155  2.7534
  966MOL0     H27480  -2.064   9.024   8.398  1.2344  0.9943 -1.2853
  966MOL0     H27481  -1.997   8.918   8.524 -2.4216 -2.8974  0.2004
  966MOL0     H27482  -1.995   8.742   8.306 -1.5039 -1.8231 -2.5241
  966MOL0     H27483  -2.100   8.857   8.230  1.1918 -1.7424 -1.5890
  966MOL0     H27484  -2.162   8.712   8.493 -0.2030  1.7639  0.7589
  966MOL0     H27485  -2.250   8.845   8.418  3.2391  1.5197  1.0448
  966MOL0     H27486  -2.323   8.586   8.366 -0.4774  0.4828  1.0473
  966MOL0     H27487  -2.173   8.569   8.279 -1.5021 -0.6610 -1.1253
  966MOL0     H27488  -2.201   8.718   8.121  1.8762 -2.7608  1.5287
  966MOL0     H27489  -2.360   8.780   8.184 -2.1156 -1.9485  0.1399
  966MOL0     H27490  -2.391   8.646   7.994  0.5307  2.7209  0.9288
  966MOL0     H27491  -2.304   8.513   8.034  1.4427  0.5879 -2.2225
  966MOL0     H27492  -2.553   8.623   8.181  0.0672 -0.3263 -0.3014
  966MOL0     H27493  -2.474   8.477   8.227  0.4844 -0.7775 -0.4447
  966MOL0     H27494  -1.604   8.989   8.362  0.2616  0.1329  0.2921
  966MOL0     H27495  -1.371   8.978   8.257  0.3882  0.3557  0.6105
  966MOL0     H27496  -1.164   8.806   7.720 -1.9983  0.8408  0.6113
  966MOL0     H27497  -0.935   8.808   7.674 -1.0614  0.4221 -0.1893
  966MOL0     H27498   0.851   8.883   7.236 -0.9600 -0.0878 -1.1318
  966MOL0     H27499   1.070   8.977   7.233  1.2346  0.8070  2.6334
  966MOL0     H27500   1.630   8.721   7.450 -4.0068  1.1321 -0.2554
  966MOL0     H27501   1.846   8.835   7.440  1.5617  2.8891 -0.2792
  966MOL0     H27502   2.042   8.927   7.350  2.7206  1.4276 -0.8557
  966MOL0     H27503   1.969   9.049   7.464 -1.0884 -0.3638 -0.0587
  966MOL0     H27504   2.106   9.221   7.325 -0.2497  0.0799 -1.7920
  966MOL0     H27505   2.218   9.089   7.385  0.9432 -1.3126 -0.3535
  966MOL0     H27506   2.091   9.142   7.108 -0.7210  1.3108  1.6223
  966MOL0     H27507   2.154   8.995   7.133  0.5368  1.3494 -1.9685
  966MOL0     H27508   2.375   9.077   7.189 -0.1660  0.7851  0.2236
  966MOL0     H27509   2.316   9.119   7.021  1.9644 -0.2720  0.3291
  966MOL0     H27510   2.376   9.488   7.204 -0.6181  0.4860  0.6202
  966MOL0     H27511   1.674   9.124   7.169 -1.9836 -0.3357 -1.1851
  966MOL0     H27512   1.461   9.008   7.182  0.5965  2.1842  0.4661
  967MOL0     O27513   7.620   4.246   9.338 -0.7998  0.2239  0.5454
  967MOL0     C27514   7.715   4.172   9.328 -0.2499 -0.5806 -0.8377
  967MOL0     O27515   7.718   4.050   9.381  0.1243  0.0041  0.3514
  967MOL0     C27516   7.595   3.977   9.419  0.2151  0.9897  0.1788
  967MOL0     C27517   7.612   3.867   9.495 -0.3567  0.3588 -1.1367
  967MOL0     C27518   7.510   3.785   9.532 -0.0042  1.2217 -0.0504
  967MOL0     C27519   7.371   3.804   9.497  0.2122  1.0123  0.5197
  967MOL0     O27520   7.285   3.713   9.545  0.4740  0.4507 -0.2209
  967MOL0     C27521   7.144   3.756   9.547  0.0556 -0.1881 -0.0200
  967MOL0     C27522   7.074   3.736   9.412 -0.0518  0.6050 -0.8127
  967MOL0     C27523   6.946   3.825   9.406 -0.3851 -0.5982  0.0318
  967MOL0     C27524   6.862   3.798   9.292  0.3753  0.2514 -0.8081
  967MOL0     C27525   6.738   3.890   9.307  0.2998 -0.1041 -0.0705
  967MOL0     C27526   6.642   3.859   9.177  0.0911  0.3343  0.0428
  967MOL0     C27527   6.522   3.957   9.169 -0.0120 -0.5113  0.0679
  967MOL0     C27528   6.400   3.906   9.236  1.0896 -0.0817 -0.2825
  967MOL0     N27529   6.310   4.022   9.259  0.9443  0.0187 -0.1781
  967MOL0     C27530   6.234   4.090   9.164 -0.1311  0.1386 -0.1103
  967MOL0     C27531   6.147   4.168   9.239  0.3479 -0.3272  1.6224
  967MOL0     C27532   6.039   4.255   9.187  1.0802  0.1511 -0.3679
  967MOL0     C27533   6.076   4.397   9.216  0.1617 -0.4896 -0.8783
  967MOL0     C27534   6.041   4.435   9.361  1.0983 -0.7025 -0.6933
  967MOL0     C27535   5.900   4.399   9.423 -0.4424 -0.4687  1.0494
  967MOL0     O27536   5.786   4.443   9.331 -0.3340 -0.5628 -0.1188
  967MOL0     C27537   5.667   4.436   9.396 -0.2075  0.3035 -0.6908
  967MOL0     C27538   5.613   4.549   9.450  0.1392  0.2498  0.5379
  967MOL0     C27539   5.488   4.539   9.511  0.2250 -0.7638 -0.2970
  967MOL0     C27540   5.417   4.416   9.529 -0.1942 -1.0145  1.0222
  967MOL0     C27541   5.288   4.404   9.591  0.1503 -0.3550 -0.6298
  967MOL0     O27542   5.240   4.287   9.612  0.4233 -0.3030 -0.4627
  967MOL0     C27543   5.101   4.256   9.630 -0.6978  0.8856  0.1545
  967MOL0     C27544   5.057   4.151   9.707 -0.1033  0.0597 -0.6236
  967MOL0     C27545   4.916   4.119   9.715  0.4440 -0.1453  0.1861
  967MOL0     C27546   4.821   4.197   9.647  0.4922  0.1381  0.7231
  967MOL0     O27547   4.685   4.180   9.627 -0.5831  0.1565  0.4406
  967MOL0     C27548   4.615   4.109   9.727 -0.3697  0.0854 -0.0770
  967MOL0     C27549   4.464   4.139   9.723 -1.0793 -0.3587  0.7561
  967MOL0     C27550   4.421   4.136   9.872  0.6137  0.1064  1.4438
  967MOL0     C27551   4.268   4.136   9.866  0.2677  0.5323 -0.4188
  967MOL0     C27552   4.217   4.072   9.993  0.1144 -0.4720 -0.3807
  967MOL0     C27553   4.055   4.062   9.999  0.6940  0.7000  0.8866
  967MOL0     C27554   4.010   4.008  10.131 -0.2039 -0.0603  0.1006
  967MOL0     C27555   3.853   3.969  10.125 -0.3966  0.2829  0.6672
  967MOL0    Cl27556   3.757   4.117  10.099 -0.4424  0.1062  0.3256
  967MOL0     C27557   4.865   4.303   9.573 -0.1747  0.1034  0.2796
  967MOL0     C27558   5.003   4.325   9.560  0.1099 -1.0506 -0.2194
  967MOL0     O27559   5.225   4.508   9.620 -0.1002 -0.5197  0.2452
  967MOL0     C27560   5.485   4.295   9.490 -0.3540  0.0631  0.5615
  967MOL0     C27561   5.598   4.312   9.408 -1.2627 -0.1168 -0.4656
  967MOL0     N27562   6.168   4.136   9.370  0.5107  0.5104 -0.9528
  967MOL0     N27563   6.262   4.053   9.380  0.7007 -0.3346 -0.5636
  967MOL0     C27564   7.348   3.921   9.421  0.5564 -0.1428  0.6164
  967MOL0     C27565   7.459   4.008   9.386  0.3669 -0.0533 -0.9601
  967MOL0     C27566   7.843   4.212   9.258  0.4050 -0.2034 -0.3055
  967MOL0     C27567   7.836   4.321   9.170  0.0192 -0.2028 -0.3935
  967MOL0     C27568   7.942   4.353   9.093  0.1269 -0.4349  0.6772
  967MOL0     C27569   8.067   4.279   9.100  0.2282 -0.2865 -0.6856
  967MOL0     O27570   8.172   4.328   9.028 -0.1040  0.0489 -0.4601
  967MOL0     C27571   8.187   4.282   8.900 -0.6332 -0.0900 -0.0627
  967MOL0     C27572   8.258   4.144   8.900 -0.5661  0.6313 -0.9207
  967MOL0     C27573   8.414   4.165   8.919 -0.0760  0.6735  0.2121
  967MOL0     C27574   8.438   4.113   9.060 -0.4802 -0.3998  0.2955
  967MOL0     C27575   8.424   3.966   9.072  0.8605 -0.2256  0.4656
  967MOL0     C27576   8.434   3.845   9.055  0.2153 -0.6896  0.4241
  967MOL0     C27577   8.079   4.176   9.193  1.0297  0.0831 -0.2326
  967MOL0     C27578   7.964   4.142   9.271  0.9665 -0.3663 -0.0866
  967MOL0     H27579   7.714   3.841   9.522 -0.9970 -0.7783  0.3260
  967MOL0     H27580   7.540   3.697   9.587  0.3468  3.0863  3.0026
  967MOL0     H27581   7.139   3.863   9.564  0.7376  0.1028 -1.4569
  967MOL0     H27582   7.095   3.701   9.627 -2.4589  0.1091 -1.2462
  967MOL0     H27583   7.043   3.634   9.389  1.4462  0.7521 -3.9529
  967MOL0     H27584   7.143   3.756   9.329 -1.2146 -1.0702 -2.2609
  967MOL0     H27585   6.973   3.930   9.399 -1.0235 -0.5187 -3.7471
  967MOL0     H27586   6.898   3.818   9.503  0.2182  2.4348  0.6538
  967MOL0     H27587   6.915   3.827   9.201  1.6657 -0.3269 -0.2615
  967MOL0     H27588   6.844   3.690   9.287  3.8028 -0.7151  3.1959
  967MOL0     H27589   6.775   3.993   9.306 -0.6887  0.2580  0.4158
  967MOL0     H27590   6.672   3.867   9.390 -2.3854  1.7321 -1.5644
  967MOL0     H27591   6.608   3.756   9.191 -1.7650  0.9028  0.0130
  967MOL0     H27592   6.708   3.872   9.091  0.3615 -1.6137 -0.0887
  967MOL0     H27593   6.552   4.055   9.207  1.4206 -0.4175 -1.2147
  967MOL0     H27594   6.503   3.967   9.061  1.8023 -3.6026 -0.6696
  967MOL0     H27595   6.420   3.865   9.335 -1.2677  0.5947  0.5606
  967MOL0     H27596   6.361   3.822   9.178  3.4812 -0.6769 -1.1210
  967MOL0     H27597   6.241   4.098   9.056  2.0005  3.7465  0.1349
  967MOL0     H27598   5.940   4.229   9.227  0.1823 -0.4724 -2.8144
  967MOL0     H27599   6.019   4.248   9.080  0.8087  0.4431 -0.3362
  967MOL0     H27600   6.030   4.474   9.153  1.5456 -1.1125 -2.7329
  967MOL0     H27601   6.183   4.401   9.195 -0.2575  0.1062 -3.1211
  967MOL0     H27602   6.118   4.398   9.430 -1.3025 -2.2514  1.3187
  967MOL0     H27603   6.045   4.544   9.365 -1.2772 -0.4889 -2.4006
  967MOL0     H27604   5.891   4.457   9.515  2.1967 -1.5224  2.0579
  967MOL0     H27605   5.901   4.293   9.449  2.7579 -1.0191 -0.7691
  967MOL0     H27606   5.663   4.643   9.434  0.0854  0.1451 -0.2561
  967MOL0     H27607   5.449   4.632   9.552  0.6508 -1.3437  1.4916
  967MOL0     H27608   5.126   4.088   9.762 -1.8643 -1.1496  0.3150
  967MOL0     H27609   4.881   4.034   9.772 -1.2462 -0.9816 -1.9204
  967MOL0     H27610   4.663   4.137   9.821  1.6414 -0.6792 -0.8200
  967MOL0     H27611   4.618   4.000   9.716 -1.8000  0.1357 -1.3348
  967MOL0     H27612   4.420   4.066   9.654  2.5789 -1.5112 -0.6567
  967MOL0     H27613   4.456   4.238   9.677  0.0135 -0.1652  0.9556
  967MOL0     H27614   4.460   4.224   9.923 -0.5183  2.5042 -1.5144
  967MOL0     H27615   4.458   4.039   9.908  1.1631  0.8858  3.0532
  967MOL0     H27616   4.235   4.240   9.857  0.8431  0.8298  0.6631
  967MOL0     H27617   4.226   4.079   9.783 -1.4101 -1.5857  1.7514
  967MOL0     H27618   4.250   4.135  10.076 -3.0231  0.3605  0.3760
  967MOL0     H27619   4.254   3.970   9.998 -1.9535 -1.2262  1.5757
  967MOL0     H27620   4.017   4.009   9.911  0.7353  3.3955 -0.9096
  967MOL0     H27621   4.022   4.167   9.995  2.1905  1.2127  1.1959
  967MOL0     H27622   4.080   3.928  10.156  0.4654  0.3231 -0.4839
  967MOL0     H27623   4.020   4.080  10.213 -3.1992  0.1596  0.3768
  967MOL0     H27624   3.829   3.927  10.223 -3.0129  0.6713  0.2666
  967MOL0     H27625   3.825   3.900  10.046 -3.0264 -0.5045  2.1595
  967MOL0     H27626   4.799   4.374   9.523  0.5504 -1.2402 -2.8582
  967MOL0     H27627   5.035   4.415   9.509  0.6153 -0.8493  0.4356
  967MOL0     H27628   5.448   4.195   9.512  1.4475 -0.6854  0.3808
  967MOL0     H27629   5.644   4.223   9.368 -0.4936 -0.8455  1.8488
  967MOL0     H27630   7.249   3.940   9.379  0.5602 -2.0546 -0.3741
  967MOL0     H27631   7.440   4.099   9.331 -3.4227 -0.5298 -0.6653
  967MOL0     H27632   7.741   4.372   9.156 -0.7895 -1.0642  1.4660
  967MOL0     H27633   7.943   4.434   9.021 -1.6072  0.0489  1.1367
  967MOL0     H27634   8.244   4.347   8.833  0.0661  0.5188  1.0999
  967MOL0     H27635   8.086   4.279   8.857 -1.0662  0.1198  0.9151
  967MOL0     H27636   8.222   4.073   8.975  3.2741  0.0911  0.6367
  967MOL0     H27637   8.240   4.094   8.805  0.7223 -4.0326  1.0035
  967MOL0     H27638   8.442   4.271   8.924  2.8015  0.1006 -1.2489
  967MOL0     H27639   8.466   4.111   8.839 -1.4140  1.5585 -1.3147
  967MOL0     H27640   8.542   4.132   9.086 -0.2697 -1.1528  0.0295
  967MOL0     H27641   8.388   4.171   9.139 -0.0228 -0.5282  0.6814
  967MOL0     H27642   8.429   3.738   9.064  0.7040 -0.5240  4.1431
  967MOL0     H27643   8.173   4.121   9.190  1.1524  0.3262 -2.4562
  967MOL0     H27644   7.973   4.052   9.331  2.6143 -0.9375 -1.1215
  968MOL0     O27645   2.655   4.121   1.268 -0.1357 -0.0476 -0.5361
  968MOL0     C27646   2.667   4.219   1.193 -0.9614 -0.5884 -0.4587
  968MOL0     O27647   2.567   4.275   1.119 -0.1087  0.8780 -1.1927
  968MOL0     C27648   2.442   4.275   1.178  0.7084  0.2302  0.3635
  968MOL0     C27649   2.360   4.163   1.205  0.1598  0.4049 -0.1289
  968MOL0     C27650   2.217   4.178   1.222  0.8499 -0.3583 -0.6254
  968MOL0     C27651   2.160   4.308   1.215  0.3928 -0.2387 -0.0107
  968MOL0     O27652   2.023   4.341   1.244 -0.4826 -0.1097  0.4199
  968MOL0     C27653   1.926   4.280   1.154  0.5528 -0.4010 -0.3774
  968MOL0     C27654   1.791   4.259   1.229 -0.4010 -0.6046 -0.3713
  968MOL0     C27655   1.684   4.209   1.123  0.5981  0.0479  1.0121
  968MOL0     C27656   1.550   4.157   1.194 -1.1023  0.0941 -0.8842
  968MOL0     C27657   1.433   4.155   1.107  1.4707  0.2294 -0.2984
  968MOL0     C27658   1.299   4.128   1.182 -0.1692 -0.0084  0.1029
  968MOL0     C27659   1.196   4.068   1.087  0.4136  0.0396  0.7650
  968MOL0     C27660   1.088   4.003   1.169  0.0356 -1.0101 -0.3899
  968MOL0     N27661   0.994   3.930   1.084 -0.1723 -0.6221  0.9010
  968MOL0     C27662   1.014   3.803   1.032  0.4539  0.8422  0.5357
  968MOL0     C27663   0.905   3.780   0.970  0.1444 -0.7435  0.8349
  968MOL0     C27664   0.887   3.668   0.877  0.1580  0.0460  0.9787
  968MOL0     C27665   0.753   3.655   0.804  0.8937 -0.6473 -0.8344
  968MOL0     C27666   0.663   3.571   0.896  0.1292  0.7499  0.0947
  968MOL0     C27667   0.523   3.543   0.845  0.7501  0.5949  0.7587
  968MOL0     O27668   0.465   3.435   0.919 -0.6614  0.2168  0.4254
  968MOL0     C27669   0.340   3.465   0.968 -0.3143  0.0554 -0.7958
  968MOL0     C27670   0.306   3.476   1.104  0.0416 -0.1873 -0.1695
  968MOL0     C27671   0.172   3.502   1.136 -0.7364  0.7609 -0.6611
  968MOL0     C27672   0.078   3.522   1.040  0.3143 -0.1198 -0.9192
  968MOL0     C27673  -0.060   3.562   1.089  0.2112  0.2036 -0.4657
  968MOL0     O27674  -0.140   3.623   0.997 -0.8234 -0.2500 -0.4449
  968MOL0     C27675  -0.266   3.655   1.014 -0.0528 -1.2887  0.0797
  968MOL0     C27676  -0.321   3.699   1.136 -0.1711  0.4365 -1.2987
  968MOL0     C27677  -0.457   3.742   1.142 -0.4415  0.3208 -0.2744
  968MOL0     C27678  -0.528   3.753   1.025  0.2629 -0.0710 -0.1373
  968MOL0     O27679  -0.662   3.797   1.036 -0.0327  0.5471 -0.2090
  968MOL0     C27680  -0.739   3.835   0.918 -1.3726 -0.4268  0.9620
  968MOL0     C27681  -0.857   3.927   0.949  0.1246 -0.5566  0.5969
  968MOL0     C27682  -0.963   3.855   1.018  0.3554 -0.5194 -0.3885
  968MOL0     C27683  -1.072   3.954   1.068  0.1189  0.2330  0.9947
  968MOL0     C27684  -1.198   3.890   1.103 -0.4225  1.1180  0.2023
  968MOL0     C27685  -1.189   3.777   1.204 -0.1072  0.0708 -0.2646
  968MOL0     C27686  -1.173   3.849   1.337  0.0519 -0.2589 -0.4583
  968MOL0     C27687  -1.191   3.743   1.447 -0.2675 -0.4448 -0.1340
  968MOL0    Cl27688  -1.162   3.805   1.613  0.2458 -0.5951  0.0756
  968MOL0     C27689  -0.477   3.700   0.897 -0.0621 -0.5337 -0.5659
  968MOL0     C27690  -0.345   3.657   0.903  0.0389 -0.4266  0.9837
  968MOL0     O27691  -0.093   3.539   1.209 -0.0386  1.1632  0.6277
  968MOL0     C27692   0.105   3.501   0.908 -0.4404 -0.2647 -0.0921
  968MOL0     C27693   0.234   3.467   0.870  0.2114  0.1667  0.2368
  968MOL0     N27694   0.809   3.880   1.001  0.1667  0.7028  0.4411
  968MOL0     N27695   0.865   3.967   1.074  0.5158  0.3714 -0.7872
  968MOL0     C27696   2.242   4.419   1.195  1.0533  0.7690  0.7942
  968MOL0     C27697   2.381   4.404   1.174  0.7462 -0.5056 -0.0445
  968MOL0     C27698   2.798   4.292   1.192 -0.3043 -0.4644  0.1386
  968MOL0     C27699   2.902   4.262   1.283 -0.3287  0.6123  0.0917
  968MOL0     C27700   3.025   4.327   1.275  0.5935  0.2156  0.0761
  968MOL0     C27701   3.042   4.427   1.177 -0.5170  0.0055 -0.7382
  968MOL0     O27702   3.156   4.514   1.166  0.5409 -0.2508 -0.4051
  968MOL0     C27703   3.266   4.470   1.240 -1.3016 -0.2246 -0.0814
  968MOL0     C27704   3.398   4.539   1.196  0.6156  0.1319  0.0724
  968MOL0     C27705   3.525   4.491   1.269  0.1789  0.0358 -0.1895
  968MOL0     C27706   3.633   4.598   1.240  0.6208 -0.1044  0.2328
  968MOL0     C27707   3.627   4.700   1.341 -0.4171  0.0764 -0.4929
  968MOL0     C27708   3.631   4.768   1.440  0.2934  0.2409  0.3666
  968MOL0     C27709   2.939   4.451   1.088  0.7549 -0.2805  0.2334
  968MOL0     C27710   2.819   4.385   1.094  1.2206 -0.1527  0.0293
  968MOL0     H27711   2.382   4.056   1.204 -1.3348  0.0855 -1.3460
  968MOL0     H27712   2.159   4.088   1.237  2.2550 -1.4738 -1.6179
  968MOL0     H27713   1.958   4.180   1.122 -0.0379 -2.3671  4.3193
  968MOL0     H27714   1.917   4.347   1.068  0.1634  1.4888  1.0715
  968MOL0     H27715   1.760   4.356   1.268  0.5718 -0.8811  1.1975
  968MOL0     H27716   1.796   4.206   1.325 -1.6884  1.2536  0.7812
  968MOL0     H27717   1.719   4.129   1.057 -0.3200  0.0958  0.4523
  968MOL0     H27718   1.674   4.293   1.054  1.2743 -1.2724 -0.7779
  968MOL0     H27719   1.572   4.058   1.234  2.7425  0.4318 -1.8098
  968MOL0     H27720   1.537   4.224   1.280 -0.6842  1.4806 -1.8612
  968MOL0     H27721   1.461   4.084   1.028  2.2764  0.5790 -0.3435
  968MOL0     H27722   1.435   4.251   1.055  5.8315 -0.1326 -1.1765
  968MOL0     H27723   1.247   4.215   1.224 -0.9610 -0.1188 -0.5945
  968MOL0     H27724   1.331   4.062   1.263 -1.8703 -1.1509 -0.1045
  968MOL0     H27725   1.157   4.133   1.008  0.1602  0.3922  1.1687
  968MOL0     H27726   1.249   3.992   1.030  0.6414  0.2203  0.7325
  968MOL0     H27727   1.040   4.081   1.228  1.4088 -1.5477  1.5498
  968MOL0     H27728   1.134   3.943   1.249  1.8036 -0.6923 -1.1228
  968MOL0     H27729   1.095   3.732   1.025 -1.0208 -0.8737  0.2681
  968MOL0     H27730   0.907   3.573   0.928 -2.0055 -0.2075  1.4493
  968MOL0     H27731   0.966   3.667   0.801 -0.8354 -2.4060 -0.1516
  968MOL0     H27732   0.781   3.608   0.709  1.5929 -0.5713 -0.6741
  968MOL0     H27733   0.701   3.750   0.786 -0.8894 -0.7115  2.9812
  968MOL0     H27734   0.726   3.484   0.916  0.7861  1.1276 -0.2751
  968MOL0     H27735   0.645   3.619   0.993 -1.9964 -1.6087  0.9694
  968MOL0     H27736   0.517   3.518   0.739 -0.3520  0.8254  0.7531
  968MOL0     H27737   0.472   3.640   0.848  0.4774  0.4586  0.5475
  968MOL0     H27738   0.379   3.456   1.182  0.6072  0.1963 -0.5914
  968MOL0     H27739   0.145   3.515   1.241 -2.0317  3.1454 -1.2191
  968MOL0     H27740  -0.265   3.676   1.226 -1.8932 -0.3352 -0.3796
  968MOL0     H27741  -0.501   3.751   1.240 -1.3791 -0.9587 -0.5454
  968MOL0     H27742  -0.775   3.744   0.870 -1.3585 -1.2478  2.4528
  968MOL0     H27743  -0.670   3.880   0.845 -1.6262  0.1521  1.0823
  968MOL0     H27744  -0.900   3.976   0.862 -0.4622  1.1880  1.8110
  968MOL0     H27745  -0.816   4.009   1.009  1.4739 -2.1560  1.9738
  968MOL0     H27746  -0.926   3.799   1.105 -2.2143 -0.1082  1.0649
  968MOL0     H27747  -0.996   3.782   0.944  2.3053 -1.5709 -0.2810
  968MOL0     H27748  -1.043   4.020   1.151  0.3182 -1.0081  1.9306
  968MOL0     H27749  -1.112   4.022   0.992  0.9317 -0.5995 -0.2062
  968MOL0     H27750  -1.226   3.853   1.004 -0.4367  2.8361 -0.4834
  968MOL0     H27751  -1.273   3.967   1.126  1.1136  2.6820  0.1835
  968MOL0     H27752  -1.112   3.699   1.198 -0.8132 -0.8034  1.2191
  968MOL0     H27753  -1.286   3.725   1.202  0.2002 -0.6036  1.1638
  968MOL0     H27754  -1.075   3.899   1.336 -0.4911  0.8135 -0.9939
  968MOL0     H27755  -1.251   3.924   1.349 -1.7131 -2.1400  0.3401
  968MOL0     H27756  -1.125   3.657   1.438  0.7200  0.5019 -3.1649
  968MOL0     H27757  -1.292   3.700   1.445 -0.7785  0.5934  1.2259
  968MOL0     H27758  -0.526   3.697   0.801  1.1447  1.8725 -1.3577
  968MOL0     H27759  -0.293   3.626   0.812 -0.9213 -1.9436  0.9228
  968MOL0     H27760   0.020   3.515   0.842 -1.9543 -1.5882  1.4346
  968MOL0     H27761   0.258   3.448   0.766 -1.8293  1.1296 -0.4679
  968MOL0     H27762   2.195   4.514   1.174  0.2843  0.1805 -0.2783
  968MOL0     H27763   2.440   4.495   1.165 -1.0132  0.8810  1.5380
  968MOL0     H27764   2.886   4.189   1.362 -1.1238  0.7227  0.0442
  968MOL0     H27765   3.094   4.320   1.359  1.0311 -0.8743 -0.3633
  968MOL0     H27766   3.287   4.363   1.225 -1.9390 -0.3864  0.1516
  968MOL0     H27767   3.238   4.494   1.343 -0.5973 -1.3033  0.3809
  968MOL0     H27768   3.409   4.512   1.090 -0.9618  1.8924 -0.5912
  968MOL0     H27769   3.377   4.647   1.196  0.7292  0.2009 -1.7635
  968MOL0     H27770   3.546   4.386   1.248 -0.4280 -0.6687  2.4034
  968MOL0     H27771   3.496   4.492   1.374  1.7469  1.9046  0.2849
  968MOL0     H27772   3.723   4.537   1.258 -1.0726 -2.2841  1.8177
  968MOL0     H27773   3.615   4.636   1.139 -1.7112 -0.3275  0.5224
  968MOL0     H27774   3.621   4.828   1.528  1.8181 -0.7880  1.2862
  968MOL0     H27775   2.969   4.519   1.009 -2.6906 -1.1252 -2.0340
  968MOL0     H27776   2.738   4.405   1.025 -0.1185 -2.2556  0.9192
  969MOL0     O27777   0.699  11.172   8.776 -0.1897  0.0843  0.3351
  969MOL0     C27778   0.656  11.285   8.753 -0.4813  0.4724 -0.3793
  969MOL0     O27779   0.737  11.398   8.756  0.1876  0.2592 -0.4428
  969MOL0     C27780   0.864  11.409   8.809 -0.5773 -0.3991 -0.4263
  969MOL0     C27781   0.945  11.299   8.849 -0.4636  0.0336  0.5973
  969MOL0     C27782   1.058  11.319   8.920 -0.4399 -0.9439  0.2308
  969MOL0     C27783   1.100  11.452   8.957  0.2788  0.0657  0.5307
  969MOL0     O27784   1.223  11.480   9.011 -0.5296 -0.7459  0.4223
  969MOL0     C27785   1.332  11.391   8.993  0.4014 -0.0686 -0.0419
  969MOL0     C27786   1.455  11.461   8.956 -0.5371 -0.3304  0.7142
  969MOL0     C27787   1.433  11.507   8.805  0.3298  0.6607  0.3857
  969MOL0     C27788   1.542  11.589   8.746  0.0267 -0.3812 -0.7071
  969MOL0     C27789   1.522  11.600   8.591 -0.6253 -0.4410  0.4418
  969MOL0     C27790   1.383  11.646   8.561  0.7336  0.5203 -0.1022
  969MOL0     C27791   1.379  11.708   8.420  0.4495  0.0344 -0.6184
  969MOL0     C27792   1.419  11.612   8.313  0.7338 -0.2282  1.0091
  969MOL0     N27793   1.345  11.482   8.308 -0.6426 -0.3802  0.6369
  969MOL0     C27794   1.215  11.462   8.289 -0.0763  0.1795  1.2014
  969MOL0     C27795   1.197  11.325   8.272  0.1193  0.4142 -0.2712
  969MOL0     C27796   1.083  11.227   8.238  0.4010  0.1019  0.3201
  969MOL0     C27797   1.053  11.242   8.089 -0.6408 -0.2770 -0.0676
  969MOL0     C27798   0.915  11.187   8.055  0.3843  0.0195 -0.3180
  969MOL0     C27799   0.872  11.183   7.910 -0.2454  0.6066 -0.2185
  969MOL0     O27800   0.825  11.053   7.865 -0.0763  0.2040  0.3976
  969MOL0     C27801   0.699  11.015   7.886 -0.7950  0.0049 -0.1645
  969MOL0     C27802   0.604  11.020   7.780 -0.2759 -0.0065 -0.4445
  969MOL0     C27803   0.478  10.963   7.808 -0.2063 -0.1000  0.4910
  969MOL0     C27804   0.438  10.923   7.933 -0.2116  0.4922  0.4047
  969MOL0     C27805   0.293  10.901   7.957 -0.2647 -0.5490  0.5027
  969MOL0     O27806   0.203  10.907   7.853 -0.3495 -0.3192  0.9368
  969MOL0     C27807   0.086  10.834   7.859 -0.5488 -0.2500  0.2058
  969MOL0     C27808  -0.033  10.889   7.815 -0.6198 -0.3591 -0.3042
  969MOL0     C27809  -0.145  10.817   7.805 -0.6731  0.5753  0.1052
  969MOL0     C27810  -0.144  10.679   7.831  0.1648  0.8808  0.0344
  969MOL0     O27811  -0.259  10.602   7.810 -0.5699 -0.0511  0.0036
  969MOL0     C27812  -0.331  10.577   7.929  0.6960  0.0426  0.4742
  969MOL0     C27813  -0.469  10.529   7.891 -0.6261  0.0077  0.4786
  969MOL0     C27814  -0.555  10.470   8.006 -0.1119 -0.2649  0.4369
  969MOL0     C27815  -0.684  10.417   7.942 -1.3417  0.1197  0.3949
  969MOL0     C27816  -0.788  10.369   8.041 -1.4754 -0.8182 -0.2801
  969MOL0     C27817  -0.910  10.321   7.961 -0.7837  0.2317 -0.0041
  969MOL0     C27818  -1.031  10.387   8.021 -0.0296 -0.4036  0.1726
  969MOL0     C27819  -1.167  10.331   7.957 -0.0885 -0.2424  0.4366
  969MOL0    Cl27820  -1.166  10.356   7.777 -0.0838 -0.1726  0.1774
  969MOL0     C27821  -0.022  10.614   7.868 -0.1032 -0.4500 -0.0169
  969MOL0     C27822   0.092  10.692   7.879  1.0306 -0.4108  0.7897
  969MOL0     O27823   0.272  10.860   8.072 -0.6289  0.4271  0.3248
  969MOL0     C27824   0.535  10.916   8.040 -0.4629 -0.3264 -0.2212
  969MOL0     C27825   0.662  10.964   8.008 -0.1280 -0.0768 -0.0260
  969MOL0     N27826   1.321  11.276   8.290  0.3023  0.3614 -0.0301
  969MOL0     N27827   1.408  11.366   8.306  0.1803 -0.2302 -0.2851
  969MOL0     C27828   1.021  11.558   8.909 -0.2325  0.5164  0.1082
  969MOL0     C27829   0.906  11.538   8.839  0.7889  0.4597  0.4020
  969MOL0     C27830   0.513  11.303   8.730  0.4020  0.7367 -0.8342
  969MOL0     C27831   0.469  11.426   8.689 -0.3020  0.0997  0.0671
  969MOL0     C27832   0.328  11.447   8.653 -0.3676  0.4913  0.3434
  969MOL0     C27833   0.239  11.335   8.664  0.2091  0.0697 -0.7557
  969MOL0     O27834   0.111  11.321   8.600 -0.1962  0.4767 -0.3374
  969MOL0     C27835   0.058  11.440   8.528 -1.1537 -0.3122  0.3237
  969MOL0     C27836  -0.089  11.409   8.491 -0.1546  0.2313  0.0229
  969MOL0     C27837  -0.180  11.465   8.596  0.0791  0.2601 -0.3085
  969MOL0     C27838  -0.325  11.463   8.543 -0.1427 -0.4780 -0.5006
  969MOL0     C27839  -0.425  11.548   8.607 -0.3715 -0.4668 -0.3837
  969MOL0     C27840  -0.507  11.629   8.652 -0.5745 -0.2540  0.0331
  969MOL0     C27841   0.291  11.208   8.694  0.9254 -0.6598 -0.2168
  969MOL0     C27842   0.422  11.193   8.726  0.6520 -0.4822 -0.6721
  969MOL0     H27843   0.922  11.199   8.815  2.3555 -1.2892  2.2098
  969MOL0     H27844   1.125  11.241   8.955 -0.4026  0.0108  2.4819
  969MOL0     H27845   1.311  11.318   8.914  0.9906  0.1908 -0.4535
  969MOL0     H27846   1.345  11.340   9.089  0.1148 -1.3729 -0.6723
  969MOL0     H27847   1.543  11.396   8.959 -1.6133 -1.8247  1.6059
  969MOL0     H27848   1.486  11.544   9.019  0.3768  2.2103 -2.7780
  969MOL0     H27849   1.341  11.566   8.805 -1.0333 -1.2745  2.6929
  969MOL0     H27850   1.411  11.427   8.734  0.0974  1.2608 -0.2355
  969MOL0     H27851   1.550  11.689   8.789  1.5186 -0.7756 -0.0122
  969MOL0     H27852   1.624  11.521   8.774 -3.6015 -5.2942 -0.6810
  969MOL0     H27853   1.542  11.501   8.548 -0.2570 -1.9409  3.7607
  969MOL0     H27854   1.587  11.678   8.549 -0.8922 -1.0385 -1.1307
  969MOL0     H27855   1.353  11.722   8.633  0.7830  0.7891 -0.3645
  969MOL0     H27856   1.320  11.557   8.567  0.7255  0.5650  0.5028
  969MOL0     H27857   1.279  11.750   8.412 -0.6387 -1.8349  1.7975
  969MOL0     H27858   1.438  11.800   8.410 -1.6088  1.8603  2.3993
  969MOL0     H27859   1.528  11.600   8.314  1.2149  2.4899 -2.1857
  969MOL0     H27860   1.414  11.654   8.212  3.0310  1.0474  1.3619
  969MOL0     H27861   1.144  11.542   8.268  0.7748  0.6387 -0.0344
  969MOL0     H27862   0.995  11.252   8.297 -1.0521 -1.6358 -0.9940
  969MOL0     H27863   1.107  11.123   8.263 -0.0931 -0.3336 -0.9352
  969MOL0     H27864   1.134  11.203   8.028 -0.7295 -0.4986 -0.0435
  969MOL0     H27865   1.043  11.346   8.056 -3.5150 -0.8910 -1.3905
  969MOL0     H27866   0.906  11.083   8.085  0.8417 -1.0367 -3.4964
  969MOL0     H27867   0.837  11.233   8.117 -0.1267  1.5240 -1.9702
  969MOL0     H27868   0.964  11.202   7.855 -0.3497  1.3042 -0.1629
  969MOL0     H27869   0.797  11.260   7.889 -0.2941  0.4988 -0.4405
  969MOL0     H27870   0.633  11.043   7.678 -3.5331  1.2042 -1.2145
  969MOL0     H27871   0.408  10.955   7.726  1.2429  0.9372 -0.9073
  969MOL0     H27872  -0.037  10.996   7.799 -1.5311 -0.3659 -0.1776
  969MOL0     H27873  -0.239  10.856   7.768  0.2710  0.1007 -3.0622
  969MOL0     H27874  -0.331  10.672   7.983  4.3765  1.2329 -1.3259
  969MOL0     H27875  -0.291  10.497   7.993 -1.7216 -0.1373  1.8973
  969MOL0     H27876  -0.461  10.455   7.811  2.1108 -0.2082  0.8539
  969MOL0     H27877  -0.518  10.620   7.854  2.1109  0.6040 -2.0210
  969MOL0     H27878  -0.570  10.553   8.076 -0.3293 -0.6577  0.8619
  969MOL0     H27879  -0.506  10.390   8.063  0.5372 -0.8927 -0.9319
  969MOL0     H27880  -0.728  10.490   7.875  0.0267  2.1578  1.5941
  969MOL0     H27881  -0.650  10.326   7.891 -3.3754 -1.8485  2.3197
  969MOL0     H27882  -0.809  10.450   8.111 -0.7646 -1.1226  0.2960
  969MOL0     H27883  -0.735  10.284   8.084 -1.1091 -0.8460 -0.7706
  969MOL0     H27884  -0.921  10.213   7.951  1.3103  0.0479 -0.8588
  969MOL0     H27885  -0.903  10.354   7.857  0.7600 -2.9654 -1.0253
  969MOL0     H27886  -1.057  10.358   8.124 -2.8350 -0.3487 -0.4605
  969MOL0     H27887  -1.019  10.495   8.015  2.0512 -0.5492  0.7214
  969MOL0     H27888  -1.245  10.391   8.003  0.7570  3.3634 -2.3734
  969MOL0     H27889  -1.185  10.225   7.977  2.3482 -0.4432  1.9845
  969MOL0     H27890  -0.029  10.506   7.870  0.1667 -0.4715 -0.2244
  969MOL0     H27891   0.188  10.648   7.902  1.4152 -0.5037 -0.8442
  969MOL0     H27892   0.516  10.882   8.142  4.6438  0.8356  1.4337
  969MOL0     H27893   0.732  10.949   8.090  2.0896 -1.9220 -2.1159
  969MOL0     H27894   1.041  11.659   8.942  0.0796 -0.4299  3.1203
  969MOL0     H27895   0.839  11.620   8.813 -1.5803 -0.2503  3.6370
  969MOL0     H27896   0.547  11.500   8.677 -0.2563  0.1540  0.6523
  969MOL0     H27897   0.298  11.543   8.613 -1.0286  0.5065  0.8647
  969MOL0     H27898   0.120  11.462   8.441 -0.5458 -0.6391  0.6663
  969MOL0     H27899   0.059  11.527   8.594 -2.0337  1.1161 -1.4642
  969MOL0     H27900  -0.098  11.470   8.401  3.3249  1.0134  0.0441
  969MOL0     H27901  -0.112  11.306   8.465 -2.2721  0.5632  0.4307
  969MOL0     H27902  -0.154  11.568   8.622  0.3376  0.2267 -0.4281
  969MOL0     H27903  -0.173  11.400   8.684  0.3265 -2.1265 -2.0038
  969MOL0     H27904  -0.329  11.494   8.438 -0.0027  0.2158 -0.3036
  969MOL0     H27905  -0.357  11.358   8.546  2.3669 -1.3027  0.5346
  969MOL0     H27906  -0.593  11.687   8.681  0.4565  0.4600  1.8391
  969MOL0     H27907   0.224  11.123   8.684 -0.1154  0.2772 -1.4329
  969MOL0     H27908   0.458  11.093   8.750 -1.1682 -0.5616  2.1313
  970MOL0     O27909   8.309  10.027   9.472 -0.3167  0.2167 -0.0799
  970MOL0     C27910   8.397  10.076   9.393  0.7901 -0.1997 -0.3358
  970MOL0     O27911   8.370  10.169   9.293  0.5587 -0.0345  0.5129
  970MOL0     C27912   8.243  10.210   9.282 -0.4093 -0.6889 -0.1584
  970MOL0     C27913   8.194  10.304   9.373 -0.1472  0.4296  1.0113
  970MOL0     C27914   8.061  10.345   9.364  0.3281  0.0368  0.0524
  970MOL0     C27915   7.983  10.298   9.259 -0.0403 -0.3838  1.0155
  970MOL0     O27916   7.854  10.344   9.248 -1.1580  0.3640  0.1792
  970MOL0     C27917   7.751  10.243   9.233 -0.2549 -0.3191 -0.7204
  970MOL0     C27918   7.753  10.124   9.327  0.1297  0.1920 -0.3743
  970MOL0     C27919   7.722  10.160   9.471  0.0328 -0.0640 -0.0924
  970MOL0     C27920   7.639  10.054   9.545 -0.1783 -0.2660  0.0256
  970MOL0     C27921   7.506  10.011   9.493  0.3262  0.0673  0.1081
  970MOL0     C27922   7.408  10.130   9.442  0.5756 -0.9374  0.7783
  970MOL0     C27923   7.279  10.065   9.392 -0.1276 -0.1221  0.0713
  970MOL0     C27924   7.180  10.046   9.504  0.1937 -0.4513 -0.1262
  970MOL0     N27925   7.052  10.021   9.430  0.0603  0.1966 -0.5010
  970MOL0     C27926   7.010   9.907   9.366  0.8033 -0.9439  0.0454
  970MOL0     C27927   6.882   9.926   9.356  0.1864 -0.3230  0.1724
  970MOL0     C27928   6.785   9.827   9.306  0.0911 -0.2998  0.6629
  970MOL0     C27929   6.724   9.750   9.419 -1.1802 -0.1898  0.2118
  970MOL0     C27930   6.614   9.651   9.372 -1.3252  0.1740  0.5546
  970MOL0     C27931   6.490   9.720   9.306  0.9072  0.0118  0.2088
  970MOL0     O27932   6.438   9.833   9.380 -0.7116  0.3476 -0.0429
  970MOL0     C27933   6.308   9.832   9.414  0.2761 -0.4278 -0.5780
  970MOL0     C27934   6.263   9.870   9.538  0.3334 -0.4682 -0.7693
  970MOL0     C27935   6.131   9.873   9.581  0.5918  0.8496 -0.2782
  970MOL0     C27936   6.037   9.835   9.480  0.4172  0.0971 -0.0152
  970MOL0     C27937   5.895   9.810   9.517 -0.0991 -0.0524  0.2693
  970MOL0     O27938   5.808   9.782   9.412 -0.2290 -0.6893 -0.0962
  970MOL0     C27939   5.675   9.764   9.432 -0.0902  0.7722  0.4878
  970MOL0     C27940   5.605   9.706   9.327  0.8161  0.1054  0.6431
  970MOL0     C27941   5.466   9.687   9.320 -0.4099 -0.7501 -0.3389
  970MOL0     C27942   5.387   9.733   9.429 -0.8734 -0.0017  0.0734
  970MOL0     O27943   5.253   9.736   9.425 -0.6398 -0.9182  0.1899
  970MOL0     C27944   5.189   9.673   9.307  0.2555 -0.0897 -0.2647
  970MOL0     C27945   5.053   9.635   9.358  0.6137  0.9497  0.3734
  970MOL0     C27946   4.970   9.580   9.241 -0.6493  0.5529  0.0673
  970MOL0     C27947   4.972   9.671   9.117 -0.0966 -0.5399 -0.5701
  970MOL0     C27948   4.867   9.631   9.009 -0.0561  0.6733  0.1664
  970MOL0     C27949   4.849   9.479   8.984  0.1838  0.3568  0.1062
  970MOL0     C27950   4.976   9.413   8.940  0.7563  0.3740  0.2311
  970MOL0     C27951   4.950   9.312   8.821 -0.6430 -0.5685  0.7784
  970MOL0    Cl27952   4.921   9.396   8.667 -0.1593 -0.0255  0.0024
  970MOL0     C27953   5.457   9.778   9.541 -0.5146 -0.5336  0.3517
  970MOL0     C27954   5.599   9.797   9.545  0.0507  1.0325 -1.0079
  970MOL0     O27955   5.863   9.810   9.636 -0.6753 -0.2946 -0.1070
  970MOL0     C27956   6.079   9.803   9.348 -0.4848  0.0344  0.4774
  970MOL0     C27957   6.218   9.793   9.321  0.1822 -0.0159  0.0457
  970MOL0     N27958   6.850  10.050   9.404  0.4235 -0.6158  0.7129
  970MOL0     N27959   6.952  10.110   9.446  0.6811 -0.2355  0.0867
  970MOL0     C27960   8.040  10.223   9.161 -0.6335  0.3191 -0.0124
  970MOL0     C27961   8.168  10.182   9.172  0.3084 -0.7055  0.1547
  970MOL0     C27962   8.535  10.023   9.406  0.7365 -0.3028 -0.2938
  970MOL0     C27963   8.634  10.046   9.312 -0.0844 -0.0372 -0.4757
  970MOL0     C27964   8.759   9.995   9.345  0.2398  0.1012  0.0230
  970MOL0     C27965   8.791   9.910   9.455 -1.2291  0.4562  0.4374
  970MOL0     O27966   8.921   9.872   9.474  0.4460 -0.7406  0.0927
  970MOL0     C27967   8.951   9.768   9.573 -0.3440  0.1561  0.0533
  970MOL0     C27968   9.098   9.725   9.565  0.2914  0.8865 -0.2837
  970MOL0     C27969   9.182   9.834   9.633 -0.8534  0.4876 -0.2632
  970MOL0     C27970   9.320   9.776   9.678 -0.1162  0.2037 -0.0762
  970MOL0     C27971   9.424   9.878   9.728  0.0722 -1.2264  0.7791
  970MOL0     C27972   9.514   9.964   9.745  0.1860  1.6385 -0.3719
  970MOL0     C27973   8.685   9.877   9.540 -0.6641  0.1578 -0.1264
  970MOL0     C27974   8.556   9.938   9.521 -0.2072 -0.0536  0.4147
  970MOL0     H27975   8.261  10.343   9.449  1.2991 -1.7907  0.9711
  970MOL0     H27976   8.021  10.426   9.425 -0.0276 -1.5829  2.0720
  970MOL0     H27977   7.757  10.212   9.128 -0.2750 -0.2888 -0.7307
  970MOL0     H27978   7.659  10.300   9.250  2.0995  2.7731  3.5693
  970MOL0     H27979   7.854  10.083   9.332 -0.2079 -0.4960  2.1891
  970MOL0     H27980   7.693  10.042   9.287  1.0489 -1.7842  2.0886
  970MOL0     H27981   7.662  10.251   9.475 -0.3124 -0.3149  0.7103
  970MOL0     H27982   7.825  10.172   9.508 -0.6000  1.7961  1.2077
  970MOL0     H27983   7.703   9.965   9.542 -0.1043 -0.2043 -0.2126
  970MOL0     H27984   7.639  10.073   9.653 -0.9819  0.9826 -0.1819
  970MOL0     H27985   7.457   9.952   9.571 -1.1881 -0.1557 -0.9753
  970MOL0     H27986   7.534   9.944   9.411  1.1981  1.3937 -0.7132
  970MOL0     H27987   7.449  10.187   9.358 -0.7062 -1.5950 -0.3256
  970MOL0     H27988   7.383  10.213   9.510  0.8049  2.4821 -2.9487
  970MOL0     H27989   7.241  10.120   9.305 -0.4334  0.2693  0.4479
  970MOL0     H27990   7.309   9.970   9.346 -0.3652  0.6641 -1.7861
  970MOL0     H27991   7.158  10.141   9.553  0.2473 -1.1857  1.3749
  970MOL0     H27992   7.209   9.963   9.569  1.1010 -0.2508 -0.2521
  970MOL0     H27993   7.059   9.812   9.351  0.7168 -0.9331 -0.3383
  970MOL0     H27994   6.838   9.757   9.242 -2.3276 -3.6974  2.0590
  970MOL0     H27995   6.705   9.884   9.257 -1.8347 -0.9476  2.8197
  970MOL0     H27996   6.688   9.828   9.487 -3.0850 -1.2790  0.5349
  970MOL0     H27997   6.799   9.689   9.471 -1.0394 -1.0124 -0.9308
  970MOL0     H27998   6.655   9.586   9.294 -1.2607  1.7787 -0.7931
  970MOL0     H27999   6.587   9.594   9.461  0.5875 -2.1408 -0.2407
  970MOL0     H28000   6.409   9.649   9.287  0.5641  0.5039 -0.1826
  970MOL0     H28001   6.513   9.765   9.209  0.4716  0.1449  0.1646
  970MOL0     H28002   6.333   9.900   9.616 -1.7125 -0.8682  1.3573
  970MOL0     H28003   6.087   9.891   9.679 -3.9921  0.7544 -2.0963
  970MOL0     H28004   5.665   9.684   9.239  2.5461 -0.5776  1.9456
  970MOL0     H28005   5.423   9.648   9.227 -0.5139 -0.5482 -0.3756
  970MOL0     H28006   5.243   9.583   9.275  0.1705 -0.9338  1.8578
  970MOL0     H28007   5.185   9.753   9.232  0.9891 -0.1086 -0.3315
  970MOL0     H28008   5.000   9.712   9.414  0.4998 -1.5084  4.0181
  970MOL0     H28009   5.063   9.548   9.424  0.0080 -0.6017 -1.4738
  970MOL0     H28010   4.874   9.551   9.285  0.3172 -0.2104  1.7941
  970MOL0     H28011   5.015   9.485   9.213  0.6627  0.9368  0.7758
  970MOL0     H28012   4.963   9.775   9.152 -1.7037 -0.0901 -2.1861
  970MOL0     H28013   5.070   9.654   9.070 -0.1583 -3.3423  0.1740
  970MOL0     H28014   4.908   9.665   8.913 -3.6198 -1.0344 -2.1809
  970MOL0     H28015   4.774   9.685   9.028 -0.0782  1.8673 -2.7292
  970MOL0     H28016   4.772   9.457   8.909  0.1974 -4.1775  1.1217
  970MOL0     H28017   4.804   9.430   9.072 -4.0984  0.8265 -1.6037
  970MOL0     H28018   5.055   9.480   8.906  0.4225  0.2975 -0.7161
  970MOL0     H28019   5.016   9.363   9.029  1.8085 -1.6481 -1.2962
  970MOL0     H28020   4.867   9.250   8.857  0.2935 -2.5290 -0.3213
  970MOL0     H28021   5.032   9.243   8.803 -0.1670  0.5818 -1.8398
  970MOL0     H28022   5.392   9.802   9.625  0.7450 -0.0540  1.2055
  970MOL0     H28023   5.626   9.847   9.637 -2.2085  2.7945 -1.2099
  970MOL0     H28024   6.010   9.766   9.273 -0.9075 -0.2647  1.0068
  970MOL0     H28025   6.252   9.744   9.230 -1.0443 -1.3922  0.2843
  970MOL0     H28026   7.970  10.189   9.085 -2.5658  0.5470  1.6001
  970MOL0     H28027   8.219  10.127   9.094  2.7495  2.3512 -0.5792
  970MOL0     H28028   8.615  10.117   9.232  1.1030  0.8377 -0.0111
  970MOL0     H28029   8.838  10.022   9.276 -0.3274  2.3822  0.1829
  970MOL0     H28030   8.882   9.684   9.563 -1.6266  1.1145  0.5475
  970MOL0     H28031   8.920   9.808   9.670 -2.1013 -0.4712 -0.2083
  970MOL0     H28032   9.114   9.625   9.606 -0.7813  0.8937  0.1819
  970MOL0     H28033   9.111   9.719   9.457 -0.6839  3.3460 -0.6053
  970MOL0     H28034   9.128   9.869   9.721  2.2257 -2.0238  2.9175
  970MOL0     H28035   9.201   9.912   9.558 -2.6106  1.7020  0.4968
  970MOL0     H28036   9.303   9.705   9.759  0.4425  0.5426  0.3385
  970MOL0     H28037   9.373   9.726   9.596  1.1349  0.7363  0.3884
  970MOL0     H28038   9.577  10.050   9.756  0.1477  1.7625 -1.0836
  970MOL0     H28039   8.691   9.797   9.613 -0.9608 -1.9691 -2.2989
  970MOL0     H28040   8.484   9.905   9.596  0.3618 -2.6990 -0.0997
  971MOL0     O28041   5.590   7.319   8.455 -0.7898  0.8463 -0.6421
  971MOL0     C28042   5.624   7.261   8.557  0.6376  0.9203 -0.3243
  971MOL0     O28043   5.540   7.192   8.633  0.2019  0.1602  0.1757
  971MOL0     C28044   5.399   7.188   8.625  1.1965 -0.3709 -0.6078
  971MOL0     C28045   5.310   7.247   8.527  0.0386  0.6518 -0.1989
  971MOL0     C28046   5.176   7.239   8.551  0.2201 -0.2529 -0.8921
  971MOL0     C28047   5.111   7.170   8.652  0.5966 -0.1440 -0.4476
  971MOL0     O28048   4.974   7.149   8.642 -0.0743  0.2777  0.0078
  971MOL0     C28049   4.896   7.086   8.747 -0.8836 -0.5553  0.2494
  971MOL0     C28050   4.740   7.088   8.722 -0.0617 -0.5853  0.0056
  971MOL0     C28051   4.695   7.210   8.638  0.2321  0.7437 -0.2041
  971MOL0     C28052   4.540   7.232   8.631 -0.0455  0.2680  0.2757
  971MOL0     C28053   4.493   7.249   8.478 -0.0840  0.3600 -0.2478
  971MOL0     C28054   4.431   7.120   8.421 -0.1303  0.3596 -0.2432
  971MOL0     C28055   4.397   7.119   8.272 -0.4308  0.4746 -0.6065
  971MOL0     C28056   4.511   7.131   8.173  0.6321  0.3442  0.2658
  971MOL0     N28057   4.554   7.256   8.113 -0.1312  0.8802 -0.9975
  971MOL0     C28058   4.471   7.359   8.088  0.3693  0.1169  0.1161
  971MOL0     C28059   4.552   7.469   8.084  0.5297 -0.5721 -0.4144
  971MOL0     C28060   4.507   7.610   8.041  0.1731  0.8801 -0.1726
  971MOL0     C28061   4.498   7.645   7.891  0.2138  0.0927 -0.2641
  971MOL0     C28062   4.414   7.542   7.817 -0.0061  0.3049  0.0885
  971MOL0     C28063   4.264   7.582   7.831  0.3602  0.0328  0.3312
  971MOL0     O28064   4.199   7.534   7.947  0.4470  0.3391  0.0926
  971MOL0     C28065   4.105   7.623   7.991 -0.0275  0.3565 -0.5630
  971MOL0     C28066   3.975   7.628   7.937 -0.1817  0.1515  0.1879
  971MOL0     C28067   3.869   7.705   7.996  0.0776 -0.2424  0.2747
  971MOL0     C28068   3.899   7.777   8.115  0.3732  0.7826  0.0989
  971MOL0     C28069   3.788   7.830   8.196  0.8466  0.0017 -0.2112
  971MOL0     O28070   3.816   7.872   8.328  0.2002  0.0791 -0.1006
  971MOL0     C28071   3.736   7.878   8.437  0.4739 -0.0130 -0.2610
  971MOL0     C28072   3.792   7.899   8.562 -0.2455  0.8376  0.7701
  971MOL0     C28073   3.713   7.923   8.677 -0.3298  0.4929 -1.1683
  971MOL0     C28074   3.581   7.903   8.675 -0.8615  0.0384  0.0424
  971MOL0     O28075   3.514   7.928   8.789  0.7050  0.3700 -0.5099
  971MOL0     C28076   3.383   7.990   8.784 -0.5591 -0.6458 -0.9734
  971MOL0     C28077   3.269   7.885   8.782 -0.2281 -0.7083  0.4070
  971MOL0     C28078   3.166   7.939   8.882  0.1289 -0.0396 -0.3180
  971MOL0     C28079   3.040   7.843   8.865 -0.8772 -1.2014  0.2545
  971MOL0     C28080   2.928   7.891   8.969 -0.3165  1.0673 -0.2186
  971MOL0     C28081   2.797   7.827   8.912  0.7330 -0.8933 -0.7237
  971MOL0     C28082   2.687   7.868   9.006  0.0677 -0.3581  0.1632
  971MOL0     C28083   2.553   7.814   8.955  1.3368 -0.3383  0.3365
  971MOL0    Cl28084   2.428   7.848   9.090  0.4552 -0.4334  0.1208
  971MOL0     C28085   3.517   7.883   8.548  0.2490  0.4084 -1.4149
  971MOL0     C28086   3.597   7.878   8.435  0.3704  0.2429  0.2066
  971MOL0     O28087   3.677   7.816   8.146  0.6260 -0.5746  0.4273
  971MOL0     C28088   4.033   7.786   8.164 -0.4010 -0.5741  0.3618
  971MOL0     C28089   4.133   7.707   8.107  0.6977 -0.9200 -0.5341
  971MOL0     N28090   4.679   7.433   8.126 -0.0874  0.5146  0.0685
  971MOL0     N28091   4.680   7.307   8.138 -0.0099  0.7489 -0.0646
  971MOL0     C28092   5.196   7.095   8.735  0.5492  0.2457  0.3275
  971MOL0     C28093   5.332   7.122   8.734 -0.0535 -0.5980 -0.1034
  971MOL0     C28094   5.766   7.246   8.592 -0.8007  0.3566 -0.2144
  971MOL0     C28095   5.855   7.339   8.545  0.1910  0.5190 -0.3724
  971MOL0     C28096   5.992   7.330   8.562  0.7932 -0.5704 -0.6069
  971MOL0     C28097   6.051   7.209   8.608  0.4493  0.5337  0.0405
  971MOL0     O28098   6.180   7.199   8.637 -0.3370 -0.0861  0.0962
  971MOL0     C28099   6.265   7.224   8.520  0.3201 -0.3895 -0.2375
  971MOL0     C28100   6.278   7.095   8.440  0.1275  0.5456 -0.4576
  971MOL0     C28101   6.370   6.993   8.500  0.3056  0.5426 -1.2039
  971MOL0     C28102   6.337   6.852   8.460  0.2888 -0.2048  0.6133
  971MOL0     C28103   6.381   6.819   8.324  1.1369  0.3778  0.7943
  971MOL0     C28104   6.424   6.779   8.208 -0.2972 -0.1519  0.0559
  971MOL0     C28105   5.965   7.111   8.656  0.2484 -0.0699  0.3947
  971MOL0     C28106   5.821   7.135   8.654  0.1610 -0.4050  0.2921
  971MOL0     H28107   5.355   7.292   8.439  1.6050  1.8196  1.1167
  971MOL0     H28108   5.126   7.288   8.468  2.1955  1.3159 -1.2323
  971MOL0     H28109   4.915   7.131   8.845  2.7578  1.5639 -1.2398
  971MOL0     H28110   4.934   6.984   8.737 -0.1946 -0.2921  0.1202
  971MOL0     H28111   4.682   7.079   8.814 -0.3951 -0.9512 -0.2376
  971MOL0     H28112   4.717   7.000   8.662  0.1462 -0.5671 -0.1022
  971MOL0     H28113   4.742   7.193   8.541  0.2568 -1.7644  0.1952
  971MOL0     H28114   4.739   7.299   8.685  0.0219  0.5349  0.4081
  971MOL0     H28115   4.490   7.152   8.687  2.5661  0.0305  2.4888
  971MOL0     H28116   4.521   7.329   8.677 -0.5829  0.1638  0.2864
  971MOL0     H28117   4.573   7.290   8.417  1.4425 -0.0100  1.4265
  971MOL0     H28118   4.405   7.314   8.480 -0.6706 -0.4235 -0.1197
  971MOL0     H28119   4.337   7.104   8.473  0.2306 -1.6108 -0.1008
  971MOL0     H28120   4.497   7.033   8.428  0.3118  0.6042 -1.1268
  971MOL0     H28121   4.353   7.022   8.247  0.9523 -0.7555  1.4310
  971MOL0     H28122   4.329   7.205   8.266  0.1387  1.5833  4.6339
  971MOL0     H28123   4.480   7.082   8.080  0.5719 -1.7055  1.3036
  971MOL0     H28124   4.596   7.077   8.215 -0.9682 -2.2152  0.4508
  971MOL0     H28125   4.362   7.363   8.080  0.4314  4.0447 -1.0855
  971MOL0     H28126   4.578   7.676   8.090  1.6605  1.5748 -3.0359
  971MOL0     H28127   4.408   7.638   8.079  0.3353  3.9579 -1.6855
  971MOL0     H28128   4.599   7.641   7.849 -0.0700 -0.5397 -0.9104
  971MOL0     H28129   4.466   7.747   7.872  0.2337  0.6526  2.3272
  971MOL0     H28130   4.452   7.537   7.714  0.1965  4.6754 -0.2202
  971MOL0     H28131   4.417   7.438   7.853 -0.2687 -0.9197 -3.0677
  971MOL0     H28132   4.216   7.527   7.749  0.3198 -0.8228  0.9167
  971MOL0     H28133   4.253   7.689   7.811 -2.7686 -0.5755 -2.0236
  971MOL0     H28134   3.949   7.560   7.857 -5.4435  0.6540  1.1637
  971MOL0     H28135   3.765   7.690   7.969 -0.3655 -0.8080  2.1552
  971MOL0     H28136   3.900   7.894   8.569  0.0254 -1.5816 -2.5184
  971MOL0     H28137   3.766   7.955   8.766 -1.1009  0.8280 -0.8211
  971MOL0     H28138   3.378   8.067   8.706 -0.0097 -1.2608 -1.6305
  971MOL0     H28139   3.373   8.044   8.878  1.8474  0.9592 -1.5679
  971MOL0     H28140   3.310   7.786   8.804 -1.6720 -2.3755 -3.4031
  971MOL0     H28141   3.216   7.867   8.687  1.6901 -2.8184 -0.3655
  971MOL0     H28142   3.139   8.043   8.861 -1.5625 -1.0217 -3.7167
  971MOL0     H28143   3.209   7.946   8.982 -2.8739 -0.3223  1.1151
  971MOL0     H28144   3.000   7.852   8.763  1.0516  2.4144 -0.3287
  971MOL0     H28145   3.071   7.740   8.885  1.4960 -1.1822 -2.6511
  971MOL0     H28146   2.934   7.999   8.982  1.8132  0.8600  1.0361
  971MOL0     H28147   2.955   7.848   9.066 -0.3585 -0.3880 -0.8166
  971MOL0     H28148   2.794   7.718   8.915  1.6930 -0.9591  3.3258
  971MOL0     H28149   2.778   7.877   8.816  0.9339 -1.0971 -0.8701
  971MOL0     H28150   2.704   7.834   9.108 -1.4677 -0.0249  0.5475
  971MOL0     H28151   2.674   7.976   9.009  0.3497 -0.3394  0.7478
  971MOL0     H28152   2.554   7.708   8.927  0.0673 -0.3209  0.1384
  971MOL0     H28153   2.519   7.855   8.860  0.8363  0.2800  0.7689
  971MOL0     H28154   3.408   7.885   8.544  0.1668  0.8781  0.4800
  971MOL0     H28155   3.538   7.863   8.344 -1.6118  0.1201  1.4460
  971MOL0     H28156   4.059   7.842   8.254  0.4827  0.7964 -0.7007
  971MOL0     H28157   4.232   7.716   8.152  0.8761 -2.8905 -0.4296
  971MOL0     H28158   5.153   7.047   8.822 -2.5725 -0.8272 -1.6244
  971MOL0     H28159   5.375   7.072   8.820 -0.8542 -0.5827  0.3190
  971MOL0     H28160   5.808   7.428   8.505 -2.5173  0.2659  1.8703
  971MOL0     H28161   6.055   7.417   8.544  0.7417  0.0816  2.0772
  971MOL0     H28162   6.367   7.253   8.549 -0.2073  2.9541 -1.3348
  971MOL0     H28163   6.217   7.294   8.451 -1.3432 -1.2035  0.0371
  971MOL0     H28164   6.179   7.051   8.425  0.5397 -0.7915  0.4975
  971MOL0     H28165   6.316   7.129   8.343  1.5383  3.1719  0.8998
  971MOL0     H28166   6.368   6.999   8.609 -3.3277  3.3579 -1.2598
  971MOL0     H28167   6.473   7.024   8.481  0.6047  0.8639  0.7242
  971MOL0     H28168   6.378   6.784   8.535 -0.4262  0.9022  2.0559
  971MOL0     H28169   6.228   6.851   8.474  0.3188 -2.7055  1.2274
  971MOL0     H28170   6.463   6.747   8.114  0.8616 -0.6389  0.6793
  971MOL0     H28171   6.012   7.022   8.697  1.9602  1.2405  1.3911
  971MOL0     H28172   5.747   7.062   8.684  0.8093 -0.8020  0.9902
  972MOL0     O28173   2.520   2.709  10.929  0.8192 -0.0348  0.2364
  972MOL0     C28174   2.576   2.686  11.033 -0.1505 -0.4763 -0.1835
  972MOL0     O28175   2.516   2.675  11.160 -0.0874 -0.4224 -0.1133
  972MOL0     C28176   2.387   2.709  11.178 -0.7259  0.7065  0.0901
  972MOL0     C28177   2.285   2.640  11.121  0.3084  0.3506  0.2626
  972MOL0     C28178   2.155   2.683  11.130 -0.3098 -0.4056 -0.2805
  972MOL0     C28179   2.116   2.786  11.216  0.1887 -0.3856  0.5373
  972MOL0     O28180   1.981   2.815  11.238  0.1805 -0.5982 -0.5255
  972MOL0     C28181   1.875   2.788  11.141 -0.0400 -0.1304 -0.8438
  972MOL0     C28182   1.904   2.865  11.017 -0.0559 -0.7315  0.0696
  972MOL0     C28183   1.808   2.842  10.891 -0.4935 -0.3195 -0.3781
  972MOL0     C28184   1.849   2.924  10.766  0.4756  0.3376 -0.5850
  972MOL0     C28185   1.869   3.070  10.786 -0.1670 -0.3667 -0.3051
  972MOL0     C28186   1.875   3.146  10.655 -0.4947  0.4986 -0.5077
  972MOL0     C28187   1.894   3.302  10.674 -0.1050 -0.3115  0.4236
  972MOL0     C28188   1.770   3.386  10.717 -0.0916  0.2502  0.4926
  972MOL0     N28189   1.647   3.353  10.649  0.1343 -0.2291 -0.7052
  972MOL0     C28190   1.546   3.266  10.679  0.2338 -0.0886  0.1043
  972MOL0     C28191   1.441   3.305  10.606  1.0130 -0.2984 -0.2273
  972MOL0     C28192   1.301   3.241  10.597  0.2701  0.5109  0.1706
  972MOL0     C28193   1.189   3.287  10.688  0.3865  0.0317 -0.1627
  972MOL0     C28194   1.072   3.189  10.685  0.4440  0.1788 -0.1309
  972MOL0     C28195   0.958   3.238  10.764  0.1735  0.2208  0.6544
  972MOL0     O28196   0.861   3.303  10.683 -0.0473  0.1566 -0.7927
  972MOL0     C28197   0.737   3.320  10.734 -0.1240  0.1834 -0.1556
  972MOL0     C28198   0.691   3.306  10.869  0.6783  0.2038 -1.2399
  972MOL0     C28199   0.554   3.324  10.901 -0.5651 -0.1785 -0.1699
  972MOL0     C28200   0.464   3.367  10.798  0.3257 -0.0665  0.2774
  972MOL0     C28201   0.322   3.409  10.828 -0.9078  0.2835 -0.0237
  972MOL0     O28202   0.263   3.479  10.721  0.6081  1.0741  0.5178
  972MOL0     C28203   0.133   3.517  10.734  1.0417 -0.0552  0.4819
  972MOL0     C28204   0.091   3.600  10.847 -0.1372  0.0329  0.8216
  972MOL0     C28205  -0.042   3.651  10.848  0.0249  0.1647  0.1047
  972MOL0     C28206  -0.130   3.621  10.751 -0.6076  0.1167 -0.3111
  972MOL0     O28207  -0.257   3.664  10.773  0.4696 -0.8832  0.2382
  972MOL0     C28208  -0.368   3.659  10.678 -0.0876 -0.2014  0.5794
  972MOL0     C28209  -0.495   3.704  10.749  0.4583 -0.2142  0.5954
  972MOL0     C28210  -0.490   3.846  10.809  0.0618 -0.4585  0.0362
  972MOL0     C28211  -0.632   3.892  10.837 -0.3992 -0.0943  0.4311
  972MOL0     C28212  -0.623   4.020  10.911  0.1640 -0.0280  0.0961
  972MOL0     C28213  -0.763   4.076  10.934 -0.5794 -0.2115 -0.0298
  972MOL0     C28214  -0.750   4.205  11.019 -0.2282 -0.2645 -0.1538
  972MOL0     C28215  -0.883   4.257  11.044 -0.6032  0.0713 -0.6129
  972MOL0    Cl28216  -0.866   4.429  11.018  0.2671 -0.0338  0.5029
  972MOL0     C28217  -0.092   3.535  10.646  0.3722  0.1423 -0.3857
  972MOL0     C28218   0.033   3.479  10.640 -0.3880 -0.1117  0.6960
  972MOL0     O28219   0.267   3.353  10.923  0.5415 -0.6583  0.2710
  972MOL0     C28220   0.513   3.390  10.665  0.2906  0.3491 -0.7312
  972MOL0     C28221   0.640   3.350  10.633  0.1253 -0.3062  0.0418
  972MOL0     N28222   1.467   3.421  10.536 -0.4396  0.5112 -0.5644
  972MOL0     N28223   1.593   3.450  10.567 -0.3587  0.2727  0.3285
  972MOL0     C28224   2.222   2.857  11.283  0.3201 -0.0687  0.8877
  972MOL0     C28225   2.357   2.826  11.248  0.8318 -0.9808 -0.9144
  972MOL0     C28226   2.722   2.659  11.026 -0.0546 -0.4655 -0.2474
  972MOL0     C28227   2.813   2.722  10.935  0.2550  0.4161 -0.1920
  972MOL0     C28228   2.944   2.694  10.935 -0.6046  0.0387 -0.9653
  972MOL0     C28229   2.997   2.607  11.034  0.4883  0.4646  0.0200
  972MOL0     O28230   3.129   2.581  11.044 -0.2676  0.0300  0.2272
  972MOL0     C28231   3.195   2.643  11.153 -0.4809  0.3389 -0.0199
  972MOL0     C28232   3.344   2.666  11.097 -0.9055  1.1495  0.0254
  972MOL0     C28233   3.416   2.554  11.022 -0.5410 -0.4097  0.9793
  972MOL0     C28234   3.452   2.595  10.875 -0.1552 -0.1432  0.2584
  972MOL0     C28235   3.562   2.507  10.840 -0.3220  0.6965 -0.2995
  972MOL0     C28236   3.649   2.422  10.811 -0.3878 -0.4780  0.1740
  972MOL0     C28237   2.913   2.549  11.125 -0.1032 -0.3913  0.4039
  972MOL0     C28238   2.775   2.566  11.120 -0.1055  0.3132  0.9566
  972MOL0     H28239   2.296   2.550  11.061  1.6145  1.5950 -1.4455
  972MOL0     H28240   2.073   2.621  11.094 -1.5977  0.6239  0.7547
  972MOL0     H28241   1.776   2.810  11.180  0.7610 -1.9231  2.6155
  972MOL0     H28242   1.874   2.680  11.121 -0.3835 -0.5722  1.3520
  972MOL0     H28243   2.009   2.853  10.987  0.1483  1.0994 -0.0594
  972MOL0     H28244   1.897   2.973  11.033 -0.9641 -0.6683 -0.6813
  972MOL0     H28245   1.709   2.876  10.925  0.7594  1.7916  1.4129
  972MOL0     H28246   1.805   2.734  10.879  0.7166 -0.6137  1.5997
  972MOL0     H28247   1.946   2.880  10.742  0.3726  0.1992 -0.7435
  972MOL0     H28248   1.778   2.910  10.684 -1.1371  2.0748  0.4209
  972MOL0     H28249   1.961   3.084  10.843 -0.7213  1.0158  0.2834
  972MOL0     H28250   1.792   3.109  10.853  1.3672  0.8177  0.8306
  972MOL0     H28251   1.786   3.125  10.595 -1.5476  0.2199  1.0725
  972MOL0     H28252   1.963   3.106  10.603 -0.1063 -2.1355  1.9034
  972MOL0     H28253   1.973   3.329  10.743 -0.0278  1.9765 -0.4740
  972MOL0     H28254   1.930   3.342  10.579  2.1781 -0.6443  1.0964
  972MOL0     H28255   1.786   3.494  10.715  0.6625  0.1420  0.3373
  972MOL0     H28256   1.757   3.356  10.821  3.3903 -1.6951  0.5351
  972MOL0     H28257   1.547   3.186  10.752  0.0281  0.6144  0.9050
  972MOL0     H28258   1.310   3.134  10.617  1.4740  0.6388  0.3418
  972MOL0     H28259   1.257   3.254  10.498 -0.6584  0.4705  0.5602
  972MOL0     H28260   1.145   3.382  10.656 -0.2978  0.4568  1.8567
  972MOL0     H28261   1.224   3.306  10.790  2.5588 -1.9786 -0.4575
  972MOL0     H28262   1.044   3.157  10.585 -2.7969 -2.2114  1.3570
  972MOL0     H28263   1.099   3.097  10.739 -0.0703  2.3213  4.2591
  972MOL0     H28264   0.985   3.287  10.858 -0.0688 -0.5693  1.1440
  972MOL0     H28265   0.904   3.148  10.796  1.1623  0.1937  2.3641
  972MOL0     H28266   0.756   3.282  10.953  0.5560  0.9094 -0.9290
  972MOL0     H28267   0.516   3.305  11.001 -2.1632 -0.8550 -0.8704
  972MOL0     H28268   0.159   3.636  10.924 -0.2114 -1.8500  1.8448
  972MOL0     H28269  -0.084   3.691  10.940 -1.6247 -2.5421  0.6296
  972MOL0     H28270  -0.387   3.557  10.644  2.4991 -1.1553  1.7698
  972MOL0     H28271  -0.340   3.734  10.603  0.0636  0.9409  1.7380
  972MOL0     H28272  -0.538   3.629  10.815  0.5167 -1.5474 -0.8142
  972MOL0     H28273  -0.563   3.718  10.665  0.2972  1.3156  0.9543
  972MOL0     H28274  -0.434   3.922  10.753 -0.0373 -0.4235 -0.0157
  972MOL0     H28275  -0.440   3.827  10.904  1.0365 -1.4094 -0.6461
  972MOL0     H28276  -0.683   3.897  10.740 -0.9571 -0.5327  0.6951
  972MOL0     H28277  -0.685   3.813  10.891  0.7936 -0.7281  0.7029
  972MOL0     H28278  -0.570   4.092  10.846 -1.1311  1.8720  1.0406
  972MOL0     H28279  -0.570   4.002  11.005  0.4917 -1.1957 -0.2955
  972MOL0     H28280  -0.824   4.004  10.991  0.2921 -1.8276 -1.0449
  972MOL0     H28281  -0.812   4.108  10.842 -2.7160  1.8647  1.7148
  972MOL0     H28282  -0.702   4.186  11.116  1.5539 -1.6984 -1.2530
  972MOL0     H28283  -0.696   4.270  10.950 -1.9913  0.9206 -0.4648
  972MOL0     H28284  -0.917   4.244  11.147 -1.1506  0.0811 -0.7913
  972MOL0     H28285  -0.956   4.209  10.978 -0.5029 -1.8527  0.6328
  972MOL0     H28286  -0.164   3.507  10.570  1.3338 -0.0014 -1.2687
  972MOL0     H28287   0.057   3.414  10.557 -0.6982  0.3307  0.2508
  972MOL0     H28288   0.456   3.421  10.578  1.0415  0.9169 -1.0421
  972MOL0     H28289   0.678   3.365  10.532  0.0991 -1.3689 -0.1293
  972MOL0     H28290   2.188   2.929  11.356  0.5387  2.7803 -1.6260
  972MOL0     H28291   2.443   2.879  11.288  0.4315  1.0435 -2.5786
  972MOL0     H28292   2.760   2.788  10.867 -0.2029  1.2675  0.9421
  972MOL0     H28293   3.019   2.739  10.871 -1.2457 -0.2676 -1.9392
  972MOL0     H28294   3.187   2.564  11.229  1.9818 -1.3755 -1.3987
  972MOL0     H28295   3.144   2.734  11.184  0.8077  0.5820  1.5007
  972MOL0     H28296   3.348   2.760  11.041  0.3420  1.4416  0.5669
  972MOL0     H28297   3.399   2.686  11.189 -1.9684 -1.3505  1.3092
  972MOL0     H28298   3.355   2.463  11.020 -1.2053  0.0362  0.1198
  972MOL0     H28299   3.513   2.534  11.068  0.6668  0.8460 -0.9182
  972MOL0     H28300   3.365   2.589  10.810 -1.4535 -2.1542  2.0646
  972MOL0     H28301   3.492   2.696  10.863  2.0479 -1.1833 -2.2102
  972MOL0     H28302   3.708   2.337  10.783  0.1887  0.7172 -2.5092
  972MOL0     H28303   2.962   2.483  11.196 -2.0634  0.1211  2.3415
  972MOL0     H28304   2.716   2.504  11.187 -1.8782 -0.0830 -0.8617
  973MOL0     O28305   2.358   0.383   1.806 -0.8760  0.5108 -0.0248
  973MOL0     C28306   2.300   0.320   1.720  0.0537  0.5699 -0.8057
  973MOL0     O28307   2.328   0.337   1.589  0.3612  0.4028 -0.0401
  973MOL0     C28308   2.409   0.432   1.540 -0.6567  0.3227  0.4453
  973MOL0     C28309   2.395   0.469   1.406 -0.6068  0.6123 -0.1371
  973MOL0     C28310   2.476   0.558   1.338  0.3788 -0.2099 -0.7169
  973MOL0     C28311   2.586   0.611   1.405 -0.3212 -0.2793 -0.3153
  973MOL0     O28312   2.688   0.676   1.342  0.3109  0.1097  0.2187
  973MOL0     C28313   2.696   0.665   1.194 -0.8235 -0.2446 -0.2159
  973MOL0     C28314   2.807   0.749   1.136 -0.1436  0.2903 -0.0771
  973MOL0     C28315   2.943   0.700   1.206 -0.3133 -0.4090 -0.1062
  973MOL0     C28316   3.063   0.791   1.161 -0.9543  0.9663 -0.4284
  973MOL0     C28317   3.196   0.727   1.201 -0.0846  0.1177 -0.8138
  973MOL0     C28318   3.298   0.845   1.197  0.0020 -0.0797 -0.6884
  973MOL0     C28319   3.438   0.785   1.174 -1.8156 -0.2077  0.2354
  973MOL0     C28320   3.524   0.891   1.107  0.2933  0.3739 -0.7426
  973MOL0     N28321   3.655   0.835   1.077  0.2325 -0.5178 -0.1464
  973MOL0     C28322   3.691   0.743   0.977  0.6814  0.1499 -0.6704
  973MOL0     C28323   3.825   0.713   1.007  0.4927 -0.0229 -0.3694
  973MOL0     C28324   3.926   0.614   0.938 -0.4071 -0.3626  0.0777
  973MOL0     C28325   3.862   0.510   0.846  0.2909  0.2951  0.6469
  973MOL0     C28326   3.967   0.456   0.756 -0.4440  0.4325  0.7205
  973MOL0     C28327   3.911   0.347   0.655  0.1658  0.1174  0.0746
  973MOL0     O28328   3.865   0.229   0.716  0.1499  0.5895 -0.3099
  973MOL0     C28329   3.797   0.129   0.643  0.2378 -0.3852  0.0401
  973MOL0     C28330   3.745   0.141   0.519  0.1239  0.0808 -0.0587
  973MOL0     C28331   3.678   0.041   0.448  0.2289  0.0962 -1.2435
  973MOL0     C28332   3.651  -0.086   0.510  0.4520 -0.0537 -0.4520
  973MOL0     C28333   3.574  -0.195   0.441  0.8067 -0.2760 -0.6290
  973MOL0     O28334   3.509  -0.172   0.328  0.3620 -0.4824  0.1054
  973MOL0     C28335   3.428  -0.274   0.276 -0.9564 -0.0320  0.1736
  973MOL0     C28336   3.313  -0.302   0.353 -0.4413  0.5012 -0.3942
  973MOL0     C28337   3.223  -0.395   0.304 -0.0142 -0.7827 -0.2728
  973MOL0     C28338   3.241  -0.444   0.175  0.7197  0.5500 -0.1606
  973MOL0     O28339   3.142  -0.530   0.117  0.6429  0.6501  0.6903
  973MOL0     C28340   3.104  -0.652   0.193 -0.0205 -0.6909  0.7094
  973MOL0     C28341   3.025  -0.760   0.118 -0.1769 -0.1464 -0.0714
  973MOL0     C28342   2.978  -0.877   0.204  0.3022 -0.5462 -0.1014
  973MOL0     C28343   2.911  -0.992   0.123  0.0351 -0.4049 -0.3194
  973MOL0     C28344   2.828  -1.084   0.210  0.3443  0.2317 -0.1108
  973MOL0     C28345   2.778  -1.203   0.124 -0.1331  0.7161 -0.1107
  973MOL0     C28346   2.701  -1.302   0.206 -0.9205  0.5411  0.4367
  973MOL0     C28347   2.603  -1.391   0.130 -0.1150  0.6144  0.6653
  973MOL0    Cl28348   2.461  -1.316   0.054 -0.6671  0.3745  0.4898
  973MOL0     C28349   3.356  -0.415   0.097  0.4683  0.1918 -0.1465
  973MOL0     C28350   3.447  -0.324   0.147 -0.1836  0.3241  0.8296
  973MOL0     O28351   3.565  -0.306   0.500 -0.1141 -0.3288  0.2969
  973MOL0     C28352   3.723  -0.103   0.634 -0.0853  0.2188  0.7888
  973MOL0     C28353   3.791   0.001   0.702  0.0647  0.2909  0.5564
  973MOL0     N28354   3.860   0.797   1.110 -0.0128 -0.0625  0.8904
  973MOL0     N28355   3.759   0.861   1.160  0.5214 -0.4097 -0.2010
  973MOL0     C28356   2.601   0.592   1.544  0.2342 -0.1439  0.6133
  973MOL0     C28357   2.515   0.499   1.604  0.2896  0.0278 -0.0666
  973MOL0     C28358   2.194   0.230   1.768  0.8033  0.5198 -0.2574
  973MOL0     C28359   2.161   0.219   1.907  0.3485 -0.0831  0.6426
  973MOL0     C28360   2.054   0.149   1.947 -0.0104  0.3891 -0.5341
  973MOL0     C28361   1.969   0.088   1.847  0.4885  0.0308 -0.8224
  973MOL0     O28362   1.854   0.009   1.871 -0.0858 -0.1315  0.2565
  973MOL0     C28363   1.787   0.025   1.998  0.1895  0.1049  0.1107
  973MOL0     C28364   1.650  -0.045   1.993  1.3071 -0.3172  0.8293
  973MOL0     C28365   1.644  -0.171   1.904 -0.8131 -0.4403  0.1536
  973MOL0     C28366   1.534  -0.271   1.958 -1.2052 -0.5876  0.2282
  973MOL0     C28367   1.406  -0.209   1.954  1.0214 -0.1924 -0.3216
  973MOL0     C28368   1.289  -0.166   1.955  0.1025  0.0879  0.5867
  973MOL0     C28369   2.010   0.080   1.719  0.2567 -0.9720 -0.3194
  973MOL0     C28370   2.119   0.159   1.679  0.6534 -0.3449  0.1936
  973MOL0     H28371   2.322   0.408   1.354 -0.6585 -2.2870  3.0154
  973MOL0     H28372   2.456   0.560   1.231 -0.8947  0.0995 -0.4888
  973MOL0     H28373   2.609   0.696   1.134 -0.5143 -0.8616 -0.9939
  973MOL0     H28374   2.723   0.565   1.159  0.1348  0.8988 -3.0995
  973MOL0     H28375   2.788   0.850   1.173 -1.2797 -0.4710  1.5178
  973MOL0     H28376   2.817   0.740   1.027  2.9858  0.2422  0.1194
  973MOL0     H28377   2.966   0.597   1.178  2.3261 -0.2997  1.3239
  973MOL0     H28378   2.934   0.687   1.315  0.5163 -3.1436 -0.2934
  973MOL0     H28379   3.068   0.794   1.052  1.8007 -2.6188 -0.5708
  973MOL0     H28380   3.053   0.893   1.201 -2.0762  0.9441 -0.6271
  973MOL0     H28381   3.234   0.649   1.135  2.3401  0.0508  0.5615
  973MOL0     H28382   3.194   0.680   1.299  0.7326 -1.2354 -1.4270
  973MOL0     H28383   3.301   0.891   1.296  0.4682  0.5211 -0.9755
  973MOL0     H28384   3.264   0.915   1.120 -1.2387  0.6397  0.4678
  973MOL0     H28385   3.476   0.752   1.271 -0.7028  1.0368  0.2446
  973MOL0     H28386   3.437   0.698   1.108  0.2311  1.2265 -1.8243
  973MOL0     H28387   3.547   0.978   1.170  1.7050  0.2416 -1.0357
  973MOL0     H28388   3.480   0.927   1.014 -0.9137 -0.5467 -0.5455
  973MOL0     H28389   3.620   0.693   0.912  2.6146 -0.7395 -2.2506
  973MOL0     H28390   3.984   0.563   1.015  2.0667  1.5795 -0.3679
  973MOL0     H28391   3.995   0.676   0.881 -0.9048  2.6144  2.4949
  973MOL0     H28392   3.792   0.560   0.780  0.2192  1.3836  1.5094
  973MOL0     H28393   3.811   0.433   0.904  0.2565 -1.6535 -1.7988
  973MOL0     H28394   4.007   0.532   0.689 -2.7122  3.1148  2.2020
  973MOL0     H28395   4.054   0.423   0.813 -1.4000  0.8127  2.4646
  973MOL0     H28396   3.991   0.317   0.586  1.0801  1.0223  0.7238
  973MOL0     H28397   3.838   0.404   0.597  1.0549  0.7479 -0.4402
  973MOL0     H28398   3.776   0.236   0.476 -0.8188 -0.0559 -1.0931
  973MOL0     H28399   3.635   0.080   0.356 -0.3318  3.4404  0.3144
  973MOL0     H28400   3.297  -0.241   0.442  0.8642  2.3412 -1.3370
  973MOL0     H28401   3.131  -0.404   0.361  0.8805  0.8060  1.4992
  973MOL0     H28402   3.040  -0.624   0.278  0.3796  1.0510  0.4918
  973MOL0     H28403   3.195  -0.698   0.233  0.5933 -1.0031 -0.9550
  973MOL0     H28404   3.081  -0.795   0.031 -1.0898  0.5670 -0.9711
  973MOL0     H28405   2.927  -0.731   0.077  0.5928 -2.2855 -3.9478
  973MOL0     H28406   2.910  -0.836   0.279  0.7632  1.2109 -0.5955
  973MOL0     H28407   3.060  -0.917   0.263 -0.4078 -1.3842  0.3358
  973MOL0     H28408   2.848  -0.938   0.052 -1.8888 -1.5221  0.4389
  973MOL0     H28409   2.981  -1.059   0.073 -0.4500 -0.7242 -0.5796
  973MOL0     H28410   2.747  -1.023   0.250 -2.2469 -0.5040 -3.7057
  973MOL0     H28411   2.878  -1.132   0.294  0.9043  1.0226  0.0172
  973MOL0     H28412   2.857  -1.244   0.062 -0.0998  2.7239 -1.5113
  973MOL0     H28413   2.699  -1.162   0.060 -0.2531  1.9303  0.7701
  973MOL0     H28414   2.763  -1.378   0.256 -2.3293  0.8208  2.7259
  973MOL0     H28415   2.634  -1.251   0.275  0.5111 -2.0395  4.0243
  973MOL0     H28416   2.561  -1.463   0.202 -1.9700 -0.5327 -1.4156
  973MOL0     H28417   2.665  -1.448   0.061 -2.6463  1.9829 -3.0561
  973MOL0     H28418   3.364  -0.461  -0.001  2.6833  2.4529 -1.1477
  973MOL0     H28419   3.535  -0.289   0.095  0.9903 -3.8198 -0.2899
  973MOL0     H28420   3.729  -0.208   0.663 -1.2952  0.1700  0.9388
  973MOL0     H28421   3.829  -0.020   0.801 -1.9322  0.1996  1.3466
  973MOL0     H28422   2.688   0.631   1.596  0.9843 -5.0764  3.7431
  973MOL0     H28423   2.538   0.480   1.709 -0.9736 -1.6577 -0.0476
  973MOL0     H28424   2.211   0.274   1.987  4.3172  1.0165 -2.2553
  973MOL0     H28425   2.047   0.154   2.055  1.7048  0.2981 -0.3933
  973MOL0     H28426   1.777   0.129   2.029  1.4049  0.9275 -2.0361
  973MOL0     H28427   1.842  -0.031   2.074 -1.5318  1.5505  2.5574
  973MOL0     H28428   1.631  -0.084   2.093  2.7483  0.4259  1.4183
  973MOL0     H28429   1.569   0.015   1.949  1.6286  0.3522  1.1416
  973MOL0     H28430   1.744  -0.214   1.914 -0.1396  0.4164 -2.2006
  973MOL0     H28431   1.629  -0.153   1.797  3.5143 -0.0778 -0.5739
  973MOL0     H28432   1.529  -0.363   1.899  2.3349 -0.3089 -0.7730
  973MOL0     H28433   1.562  -0.292   2.061 -0.0624 -2.8404 -0.4764
  973MOL0     H28434   1.185  -0.143   1.939  0.8729  1.6898 -3.2735
  973MOL0     H28435   1.943   0.022   1.656  0.4391 -2.0072  0.4115
  973MOL0     H28436   2.133   0.165   1.571  0.5867 -1.9779  0.0654
  974MOL0     O28437   6.373   3.131   5.610 -0.3918 -0.2375 -0.7811
  974MOL0     C28438   6.392   3.223   5.528 -0.4722  0.7496  0.2153
  974MOL0     O28439   6.313   3.331   5.495 -1.0743  0.3860 -0.3629
  974MOL0     C28440   6.194   3.344   5.554  0.2119 -0.0904 -0.3833
  974MOL0     C28441   6.109   3.241   5.601 -0.2760 -0.0355  0.1634
  974MOL0     C28442   5.986   3.261   5.668  0.4715 -1.0767  1.0248
  974MOL0     C28443   5.945   3.396   5.689 -0.2034  0.4363 -0.4690
  974MOL0     O28444   5.820   3.430   5.744  1.1747 -0.3109  0.5703
  974MOL0     C28445   5.749   3.323   5.819 -0.5905  0.2531  0.1430
  974MOL0     C28446   5.609   3.366   5.850  0.0720  0.2193 -0.5389
  974MOL0     C28447   5.523   3.374   5.723 -0.4738  0.5196  0.2755
  974MOL0     C28448   5.389   3.451   5.755 -0.5210  0.4615 -0.1945
  974MOL0     C28449   5.253   3.367   5.723 -0.6729 -1.2587 -0.3336
  974MOL0     C28450   5.213   3.282   5.848 -0.1968  0.9861 -0.4755
  974MOL0     C28451   5.073   3.218   5.829  0.3561 -0.0607  0.5028
  974MOL0     C28452   4.947   3.308   5.848  0.5945  0.0986 -0.5774
  974MOL0     N28453   4.816   3.237   5.814  0.1255  0.0725  0.6912
  974MOL0     C28454   4.774   3.112   5.857 -0.4218 -0.5121 -0.5631
  974MOL0     C28455   4.643   3.110   5.817 -1.1072 -0.8645 -1.4841
  974MOL0     C28456   4.550   2.997   5.853  0.1884 -0.2234 -0.3649
  974MOL0     C28457   4.391   3.028   5.847 -0.8775  0.5269  0.4950
  974MOL0     C28458   4.320   3.046   5.989 -1.6390 -0.3396 -0.4074
  974MOL0     C28459   4.179   3.094   5.973  0.0757  0.3702  0.2577
  974MOL0     O28460   4.103   3.065   6.090  0.4617 -0.0903 -0.5944
  974MOL0     C28461   3.966   3.092   6.089  1.2446 -0.5827  0.1796
  974MOL0     C28462   3.893   3.126   5.974  0.3666  0.4873 -0.0657
  974MOL0     C28463   3.761   3.152   5.976  0.0535 -0.1353 -0.0064
  974MOL0     C28464   3.691   3.146   6.097  0.7442 -0.6447  0.6720
  974MOL0     C28465   3.546   3.159   6.097 -0.5851  0.9788  0.3973
  974MOL0     O28466   3.485   3.115   5.981 -0.1535 -1.1345  0.3206
  974MOL0     C28467   3.352   3.145   5.971 -0.1270 -0.5971 -0.6320
  974MOL0     C28468   3.298   3.255   5.911 -0.9376  0.0279  0.1649
  974MOL0     C28469   3.165   3.284   5.904  0.3398 -0.9229  0.0591
  974MOL0     C28470   3.077   3.187   5.949  0.5930  0.4421  0.3106
  974MOL0     O28471   2.941   3.184   5.931  0.1007 -0.2543 -0.1535
  974MOL0     C28472   2.876   3.307   5.916 -0.7116 -0.8714  0.2392
  974MOL0     C28473   2.727   3.291   5.907 -0.4639 -0.5418  0.1408
  974MOL0     C28474   2.652   3.413   5.954  0.6276  0.9945 -1.1186
  974MOL0     C28475   2.666   3.533   5.854  0.0676  0.4828  0.0455
  974MOL0     C28476   2.579   3.654   5.881  0.7007  0.7851 -1.2604
  974MOL0     C28477   2.426   3.622   5.913  0.7334 -0.1061 -0.6089
  974MOL0     C28478   2.359   3.551   5.792  1.0552 -0.2450  0.3502
  974MOL0     C28479   2.216   3.490   5.825 -0.3523  0.7213  0.1701
  974MOL0    Cl28480   2.150   3.399   5.689 -0.3310  0.1842  0.1536
  974MOL0     C28481   3.123   3.070   6.007 -0.2906 -1.0686  0.1085
  974MOL0     C28482   3.261   3.060   6.032  0.5175 -0.3536  0.1828
  974MOL0     O28483   3.492   3.203   6.204 -0.1936  0.2445  0.2311
  974MOL0     C28484   3.761   3.103   6.215 -0.6348 -0.0611  0.1940
  974MOL0     C28485   3.896   3.079   6.207 -0.7486 -0.3540 -0.5217
  974MOL0     N28486   4.616   3.216   5.736  0.7246 -0.1361 -0.1924
  974MOL0     N28487   4.722   3.295   5.735  0.6054  0.6001 -0.5625
  974MOL0     C28488   6.036   3.504   5.643 -0.7110 -0.0255  0.4175
  974MOL0     C28489   6.154   3.475   5.576  0.3567  0.5284 -1.3963
  974MOL0     C28490   6.524   3.216   5.451  0.8958 -0.1508 -0.2859
  974MOL0     C28491   6.555   3.308   5.342 -0.0196  1.4318 -0.5780
  974MOL0     C28492   6.681   3.298   5.282  0.9163 -0.2693 -0.2832
  974MOL0     C28493   6.768   3.201   5.315  0.8926  0.2785 -0.5397
  974MOL0     O28494   6.898   3.193   5.267 -0.2123  0.9692 -0.1494
  974MOL0     C28495   6.966   3.287   5.192 -0.1921 -0.7774  0.3044
  974MOL0     C28496   7.009   3.234   5.056  0.1738 -0.8665 -0.0091
  974MOL0     C28497   7.039   3.360   4.978 -0.1969 -0.4360  0.1192
  974MOL0     C28498   7.107   3.324   4.846  0.1727  0.2004 -0.7886
  974MOL0     C28499   7.237   3.256   4.870  0.8044 -0.9567 -0.0247
  974MOL0     C28500   7.341   3.218   4.887 -0.7658  0.2761 -0.0713
  974MOL0     C28501   6.740   3.109   5.420  0.5050 -0.7563  0.0774
  974MOL0     C28502   6.618   3.115   5.484  0.0423 -0.4167 -0.1113
  974MOL0     H28503   6.133   3.136   5.585 -0.5546 -0.4681  2.2798
  974MOL0     H28504   5.933   3.173   5.703 -3.2689 -1.0050 -3.5687
  974MOL0     H28505   5.808   3.319   5.911  1.1056  1.3805 -0.8378
  974MOL0     H28506   5.751   3.223   5.774 -1.6603  0.4329 -0.3506
  974MOL0     H28507   5.615   3.463   5.901 -2.1146 -0.0865  0.4319
  974MOL0     H28508   5.563   3.302   5.927 -0.9117  0.3695 -0.9908
  974MOL0     H28509   5.506   3.274   5.681 -1.6472  0.8948 -0.1624
  974MOL0     H28510   5.578   3.422   5.642 -0.0359  1.3182  1.0344
  974MOL0     H28511   5.381   3.485   5.858 -3.8923  0.7861 -0.4520
  974MOL0     H28512   5.401   3.536   5.687  0.9314 -0.3366 -0.9774
  974MOL0     H28513   5.258   3.309   5.630 -1.3797 -1.7254 -0.0913
  974MOL0     H28514   5.175   3.443   5.715  2.1209  2.3986  3.1969
  974MOL0     H28515   5.219   3.341   5.940 -1.0978 -0.0884  0.3061
  974MOL0     H28516   5.295   3.210   5.850 -1.2236 -0.2682  2.1075
  974MOL0     H28517   5.066   3.187   5.724 -0.9783 -1.6449  1.0212
  974MOL0     H28518   5.072   3.135   5.899 -1.8197 -0.8391 -0.3512
  974MOL0     H28519   4.950   3.386   5.772 -0.1345  0.1278 -0.5905
  974MOL0     H28520   4.942   3.342   5.952 -4.3580 -1.0618 -0.1637
  974MOL0     H28521   4.823   3.032   5.912 -2.9115 -2.4273 -0.9638
  974MOL0     H28522   4.580   2.952   5.948  2.3078 -0.8523 -1.2611
  974MOL0     H28523   4.559   2.910   5.786 -1.8494 -1.1388  0.4948
  974MOL0     H28524   4.343   2.945   5.795  0.0181  0.3024  0.0114
  974MOL0     H28525   4.370   3.110   5.777 -2.9230 -1.0823 -0.8906
  974MOL0     H28526   4.316   2.952   6.045 -1.6902  0.1015  0.3375
  974MOL0     H28527   4.377   3.120   6.046  0.1093 -1.4325 -0.6492
  974MOL0     H28528   4.141   3.041   5.885  1.5847 -0.1073 -0.1441
  974MOL0     H28529   4.176   3.203   5.959  3.2759  0.5656  0.3477
  974MOL0     H28530   3.956   3.122   5.885 -1.4552 -1.4850 -1.3586
  974MOL0     H28531   3.715   3.171   5.879  0.1515 -2.0426 -0.4549
  974MOL0     H28532   3.371   3.325   5.873 -0.2650 -1.1436 -0.7808
  974MOL0     H28533   3.132   3.374   5.853 -2.8993 -3.6085 -3.2131
  974MOL0     H28534   2.914   3.365   5.832 -0.3853 -1.5555 -0.0939
  974MOL0     H28535   2.897   3.365   6.005  1.3809  0.0277 -0.7826
  974MOL0     H28536   2.688   3.209   5.968 -1.5787 -0.0802  0.0711
  974MOL0     H28537   2.704   3.264   5.803 -2.2070 -1.1203  0.6449
  974MOL0     H28538   2.679   3.438   6.057 -0.9739  1.2113 -0.7278
  974MOL0     H28539   2.545   3.391   5.948  0.7039  0.1177  0.3237
  974MOL0     H28540   2.765   3.580   5.865  1.1379 -1.9532  1.6784
  974MOL0     H28541   2.653   3.497   5.752 -0.1685  2.2396 -0.5774
  974MOL0     H28542   2.585   3.720   5.794 -3.1272  3.5222  0.2800
  974MOL0     H28543   2.616   3.710   5.968 -0.0589  1.3922 -1.3245
  974MOL0     H28544   2.370   3.716   5.914  0.7765 -0.0605 -1.4074
  974MOL0     H28545   2.416   3.573   6.010  0.6501 -1.0014 -1.0491
  974MOL0     H28546   2.351   3.617   5.706 -1.1893  1.1686  1.5319
  974MOL0     H28547   2.428   3.471   5.764  2.0438 -0.2092  2.5043
  974MOL0     H28548   2.156   3.576   5.857  2.9014  3.1785  0.0826
  974MOL0     H28549   2.226   3.427   5.914 -1.3712  1.2376  0.6759
  974MOL0     H28550   3.049   2.995   6.035 -1.9993  1.2072  2.0787
  974MOL0     H28551   3.299   2.970   6.080 -1.2568 -2.7647 -2.5226
  974MOL0     H28552   3.708   3.090   6.309 -1.2303  3.2207  0.4403
  974MOL0     H28553   3.956   3.055   6.294 -0.6456  0.7363 -0.2862
  974MOL0     H28554   6.026   3.609   5.665  0.7252 -0.3006  2.7805
  974MOL0     H28555   6.224   3.551   5.542  1.9622 -0.1276  0.2637
  974MOL0     H28556   6.478   3.379   5.314 -0.8743  0.0746 -1.8228
  974MOL0     H28557   6.711   3.357   5.196  1.4504 -0.8090 -0.4764
  974MOL0     H28558   7.059   3.305   5.247 -1.4350  2.1384  1.7078
  974MOL0     H28559   6.914   3.384   5.188  2.1508  0.5177 -1.7300
  974MOL0     H28560   7.096   3.170   5.072  0.9614  0.6258  2.0920
  974MOL0     H28561   6.925   3.179   5.013  0.6334 -0.4001 -1.5637
  974MOL0     H28562   7.103   3.432   5.032  1.0122 -1.1958 -0.2589
  974MOL0     H28563   6.944   3.407   4.951  0.0093 -0.9739 -1.6501
  974MOL0     H28564   7.040   3.261   4.788 -1.4171  2.0897 -1.0974
  974MOL0     H28565   7.125   3.407   4.777  0.0430 -1.5819 -3.0438
  974MOL0     H28566   7.445   3.193   4.900 -0.7630 -1.2889 -2.4855
  974MOL0     H28567   6.817   3.035   5.441 -0.5908 -2.2373 -0.9578
  974MOL0     H28568   6.585   3.053   5.567  0.9057  1.0230  1.3786
  975MOL0     O28569   4.743   6.114   8.110 -1.1185 -0.2574 -0.2374
  975MOL0     C28570   4.641   6.168   8.070  0.8724 -0.6731  0.3353
  975MOL0     O28571   4.631   6.266   7.977 -0.4676 -0.8137 -0.2454
  975MOL0     C28572   4.758   6.307   7.929 -0.2519  0.5380 -0.5698
  975MOL0     C28573   4.841   6.255   7.826  0.5182 -0.5366 -0.0426
  975MOL0     C28574   4.965   6.312   7.793  0.6754  0.1361 -0.0041
  975MOL0     C28575   5.007   6.429   7.847  0.3813 -0.4767 -0.3865
  975MOL0     O28576   5.118   6.489   7.798  0.6184  0.0282  0.1827
  975MOL0     C28577   5.228   6.406   7.765 -0.4827 -0.2144  0.1970
  975MOL0     C28578   5.359   6.494   7.779 -0.0181 -0.1875 -0.3137
  975MOL0     C28579   5.394   6.529   7.929  0.0513 -0.0523  0.4744
  975MOL0     C28580   5.478   6.659   7.949  0.6235  0.2551 -0.6677
  975MOL0     C28581   5.626   6.661   7.917 -0.8343  0.2851  0.3632
  975MOL0     C28582   5.712   6.556   7.993 -0.7101 -0.0428 -0.1290
  975MOL0     C28583   5.863   6.585   7.971  0.5864  0.4833 -1.0238
  975MOL0     C28584   5.903   6.594   7.822 -0.1051 -0.0218 -0.5081
  975MOL0     N28585   5.892   6.471   7.751  0.0716  0.3537 -0.2590
  975MOL0     C28586   5.811   6.441   7.651 -0.2753 -0.4264  0.0594
  975MOL0     C28587   5.853   6.320   7.607  0.3443 -0.4839 -0.1863
  975MOL0     C28588   5.778   6.242   7.506 -0.7193  0.1536  0.4491
  975MOL0     C28589   5.852   6.249   7.374 -0.2298 -0.1759 -0.3497
  975MOL0     C28590   5.813   6.117   7.294 -0.1504  0.6528  0.4371
  975MOL0     C28591   5.875   6.115   7.164 -0.0198 -0.2356  1.3360
  975MOL0     O28592   5.813   6.200   7.070 -0.1371 -0.5525  0.1316
  975MOL0     C28593   5.680   6.196   7.040  0.1779  0.4014  0.7036
  975MOL0     C28594   5.628   6.304   6.956 -0.7219 -0.4270 -1.0197
  975MOL0     C28595   5.490   6.301   6.912 -0.8561 -0.1972  0.5823
  975MOL0     C28596   5.406   6.188   6.937  0.2975 -0.1707 -0.3979
  975MOL0     C28597   5.263   6.186   6.900 -0.3852 -0.2023 -0.1056
  975MOL0     O28598   5.197   6.069   6.945  0.3423 -0.6935  0.5671
  975MOL0     C28599   5.071   6.040   6.901  0.0358  0.0911 -0.3835
  975MOL0     C28600   5.039   5.920   6.839  0.0051 -0.2122  0.3050
  975MOL0     C28601   4.911   5.886   6.806 -0.2648  1.0288 -0.5906
  975MOL0     C28602   4.807   5.973   6.840  0.3166  0.2730  0.3834
  975MOL0     O28603   4.675   5.948   6.820  0.7843  0.2539  0.0296
  975MOL0     C28604   4.630   5.811   6.798 -0.3438  0.0548  0.7589
  975MOL0     C28605   4.494   5.819   6.750  1.4892 -0.5383  0.3199
  975MOL0     C28606   4.419   5.683   6.710 -0.1426  0.5906  0.1772
  975MOL0     C28607   4.369   5.605   6.843  0.4208 -0.4046 -0.5061
  975MOL0     C28608   4.243   5.518   6.816 -0.4244  0.2238 -0.1319
  975MOL0     C28609   4.198   5.447   6.939 -0.4882  0.6775 -1.3764
  975MOL0     C28610   4.053   5.384   6.935 -0.1166  0.4119  0.6203
  975MOL0     C28611   3.970   5.475   7.028  0.9019  0.6668  0.6461
  975MOL0    Cl28612   3.921   5.630   6.944 -0.1527 -0.2550 -0.1417
  975MOL0     C28613   4.834   6.093   6.905  0.0568  0.3482  0.3734
  975MOL0     C28614   4.965   6.123   6.942 -0.2216  0.1578  0.4448
  975MOL0     O28615   5.222   6.278   6.833  0.4856  0.8053  0.0137
  975MOL0     C28616   5.466   6.084   7.010 -0.0460 -0.0965 -0.7320
  975MOL0     C28617   5.601   6.083   7.063  0.4906 -0.0399 -0.1251
  975MOL0     N28618   5.958   6.275   7.679 -0.8584 -0.1908 -0.1892
  975MOL0     N28619   5.985   6.369   7.760  0.4733 -0.7743  0.1139
  975MOL0     C28620   4.924   6.483   7.943 -0.4232 -1.3466  0.2215
  975MOL0     C28621   4.801   6.433   7.983  0.5631 -0.6293 -0.0148
  975MOL0     C28622   4.510   6.117   8.139 -0.2229 -0.3758 -0.0064
  975MOL0     C28623   4.395   6.193   8.128 -0.7722 -0.3451 -0.0993
  975MOL0     C28624   4.273   6.160   8.193  0.0234 -0.5062  0.0925
  975MOL0     C28625   4.280   6.052   8.284  0.7237  0.0380 -0.3741
  975MOL0     O28626   4.175   6.037   8.368 -0.5971 -0.0770 -1.3171
  975MOL0     C28627   4.158   5.921   8.447  1.1876  0.7395 -0.4496
  975MOL0     C28628   4.023   5.928   8.521  0.2006 -0.0521  0.3766
  975MOL0     C28629   3.904   5.877   8.436  0.2873  1.4762 -0.7469
  975MOL0     C28630   3.857   5.982   8.336 -0.1863  0.3321  0.0087
  975MOL0     C28631   3.713   5.978   8.313  0.1774 -0.4637  0.4267
  975MOL0     C28632   3.592   5.979   8.306  0.0290  0.3847  0.5007
  975MOL0     C28633   4.389   5.964   8.283 -1.0228 -0.0403  0.6749
  975MOL0     C28634   4.505   5.997   8.214 -0.6190 -0.7946  0.4524
  975MOL0     H28635   4.818   6.158   7.784 -0.6923 -0.4309  0.3466
  975MOL0     H28636   5.028   6.267   7.717  0.2436 -0.8874  0.2138
  975MOL0     H28637   5.207   6.384   7.660 -2.1497  1.7615  0.0363
  975MOL0     H28638   5.242   6.309   7.813 -0.5358 -1.2129 -1.6845
  975MOL0     H28639   5.341   6.589   7.728  1.0624 -1.0058 -2.3156
  975MOL0     H28640   5.441   6.443   7.729 -0.8871 -1.6330 -0.3327
  975MOL0     H28641   5.450   6.448   7.977 -2.0899 -2.0078 -0.1663
  975MOL0     H28642   5.297   6.542   7.979 -1.0756  1.1594 -1.8985
  975MOL0     H28643   5.432   6.737   7.888  0.0860 -1.3163 -2.3838
  975MOL0     H28644   5.468   6.689   8.054  0.3490  1.4450 -1.0174
  975MOL0     H28645   5.666   6.762   7.922  0.2161 -0.1724  2.0820
  975MOL0     H28646   5.633   6.633   7.811 -2.4547 -5.9931  1.4956
  975MOL0     H28647   5.693   6.455   7.956 -0.1199 -0.7804  1.4634
  975MOL0     H28648   5.679   6.545   8.097  0.5572  0.9810  0.4184
  975MOL0     H28649   5.879   6.680   8.021 -0.8431  0.8152 -1.1537
  975MOL0     H28650   5.929   6.512   8.019 -1.6592  0.8762  3.1194
  975MOL0     H28651   6.012   6.603   7.820  0.4041 -3.9715  0.4568
  975MOL0     H28652   5.861   6.682   7.773 -0.1649  1.8148  2.5672
  975MOL0     H28653   5.733   6.494   7.597  0.9088 -0.2258 -1.5381
  975MOL0     H28654   5.677   6.282   7.490 -1.4905 -1.7710  0.2153
  975MOL0     H28655   5.761   6.142   7.546 -0.4356  0.4912  1.4245
  975MOL0     H28656   5.961   6.254   7.381 -0.1810  1.7701 -1.7693
  975MOL0     H28657   5.808   6.335   7.323 -0.0302 -0.1412 -0.4672
  975MOL0     H28658   5.853   6.040   7.360  0.7775  1.2745  0.6201
  975MOL0     H28659   5.704   6.107   7.291 -0.1361  0.0126  1.4224
  975MOL0     H28660   5.891   6.011   7.133 -3.3615  0.1705 -2.5924
  975MOL0     H28661   5.973   6.163   7.161  0.3823 -1.0173  1.5981
  975MOL0     H28662   5.698   6.382   6.927 -2.2073  1.9073  1.2346
  975MOL0     H28663   5.456   6.387   6.855  3.3337  3.6667  3.2790
  975MOL0     H28664   5.117   5.850   6.813  1.2907  0.5774  1.8662
  975MOL0     H28665   4.893   5.799   6.744 -0.7330 -0.5168  1.6066
  975MOL0     H28666   4.644   5.747   6.886 -0.3355  0.6998  1.2403
  975MOL0     H28667   4.690   5.773   6.715 -0.8728  3.3096 -1.2792
  975MOL0     H28668   4.474   5.891   6.670  1.3193 -1.1833 -0.2230
  975MOL0     H28669   4.428   5.843   6.834 -2.9719 -4.1654 -1.6920
  975MOL0     H28670   4.487   5.620   6.651 -2.4730 -2.0353  0.0828
  975MOL0     H28671   4.331   5.697   6.647 -2.5137 -0.0061  3.1040
  975MOL0     H28672   4.445   5.555   6.903  1.1610 -1.1510 -1.9935
  975MOL0     H28673   4.335   5.676   6.918 -1.0184 -1.7203  0.1223
  975MOL0     H28674   4.257   5.446   6.734  2.2297 -1.0767  1.3067
  975MOL0     H28675   4.166   5.583   6.773  0.7158  2.3699  0.9264
  975MOL0     H28676   4.195   5.525   7.016  1.5264 -0.4568 -0.0687
  975MOL0     H28677   4.275   5.375   6.970  0.4695  2.3789  0.4218
  975MOL0     H28678   4.027   5.391   6.829  0.3223  1.0519  0.5537
  975MOL0     H28679   4.048   5.276   6.956  2.4695 -0.6009 -2.9924
  975MOL0     H28680   4.022   5.497   7.122  2.1620 -0.7034  0.3030
  975MOL0     H28681   3.884   5.413   7.056  0.0994  1.1416 -0.6877
  975MOL0     H28682   4.756   6.166   6.924 -1.5107 -1.9768  3.7494
  975MOL0     H28683   4.972   6.207   7.010  0.9306  0.8328 -0.4670
  975MOL0     H28684   5.404   6.000   7.039  0.0876  0.3515  0.9507
  975MOL0     H28685   5.644   5.995   7.109  0.2869  0.3264  0.7947
  975MOL0     H28686   4.964   6.578   7.977  2.8714 -1.2570 -3.2001
  975MOL0     H28687   4.734   6.475   8.056 -1.9571 -3.0274 -0.7654
  975MOL0     H28688   4.398   6.282   8.067 -2.5325 -0.2096 -0.0439
  975MOL0     H28689   4.186   6.225   8.186  0.7084  0.3990 -0.1337
  975MOL0     H28690   4.234   5.899   8.523 -0.4682 -1.8273  0.5991
  975MOL0     H28691   4.152   5.831   8.385  1.3489  1.1893 -1.1377
  975MOL0     H28692   4.026   5.886   8.622  0.0748 -1.8298 -0.3357
  975MOL0     H28693   3.999   6.033   8.541  0.7298 -0.0028  0.7740
  975MOL0     H28694   3.833   5.850   8.515  1.3387  1.3843  0.1921
  975MOL0     H28695   3.936   5.785   8.385  0.4583  1.5927 -0.8540
  975MOL0     H28696   3.901   6.075   8.373 -1.1055  0.4571  0.8279
  975MOL0     H28697   3.909   5.959   8.242 -0.7890  2.1685 -0.8416
  975MOL0     H28698   3.487   5.999   8.309 -0.2597 -0.8424 -0.5344
  975MOL0     H28699   4.400   5.865   8.326  1.7271 -0.0023  0.2676
  975MOL0     H28700   4.587   5.928   8.226  0.4433 -0.1979 -2.5591
  976MOL0     O28701   8.837  10.931   7.185  0.3069 -0.7792  0.2384
  976MOL0     C28702   8.896  10.946   7.293  0.8779 -0.4378 -1.1287
  976MOL0     O28703   8.837  10.980   7.414  0.3539  0.0004  0.7714
  976MOL0     C28704   8.718  10.930   7.461 -1.2002 -0.5529 -0.5311
  976MOL0     C28705   8.695  10.929   7.601 -0.3802  0.0833  0.1132
  976MOL0     C28706   8.571  10.906   7.662 -0.2543  0.2927 -0.1703
  976MOL0     C28707   8.466  10.864   7.581  0.5678  0.2117  0.0573
  976MOL0     O28708   8.344  10.834   7.634  0.3690  0.4047  0.6631
  976MOL0     C28709   8.269  10.726   7.567  0.2590 -0.5093  0.1694
  976MOL0     C28710   8.134  10.775   7.509  0.1406  0.7718  0.1354
  976MOL0     C28711   8.051  10.646   7.507 -0.5214  0.3121 -0.2498
  976MOL0     C28712   7.912  10.667   7.450 -0.0119  0.7783 -0.2508
  976MOL0     C28713   7.836  10.529   7.465  0.0802  0.1758 -0.8657
  976MOL0     C28714   7.908  10.413   7.397  0.5820  0.6546 -0.2508
  976MOL0     C28715   7.913  10.411   7.248  0.1512 -0.0918  0.7139
  976MOL0     C28716   7.775  10.372   7.176 -1.1205  0.1421 -0.2369
  976MOL0     N28717   7.792  10.392   7.032 -0.0383 -0.6846  0.5547
  976MOL0     C28718   7.896  10.337   6.947 -0.1857  0.5223  0.4730
  976MOL0     C28719   7.880  10.380   6.821  0.1662  0.2470 -0.1153
  976MOL0     C28720   7.955  10.367   6.697 -0.1376 -0.2655  0.0455
  976MOL0     C28721   7.917  10.229   6.631 -0.6289  1.2568 -0.0984
  976MOL0     C28722   7.766  10.194   6.609 -0.8863 -0.3432 -0.7814
  976MOL0     C28723   7.702  10.309   6.533  0.0210  0.3266  0.5029
  976MOL0     O28724   7.570  10.279   6.498 -0.2832 -0.1501  0.2581
  976MOL0     C28725   7.465  10.305   6.579 -0.2593 -0.2112  0.7567
  976MOL0     C28726   7.339  10.308   6.532  0.1508 -0.1056  0.0049
  976MOL0     C28727   7.232  10.336   6.614  0.4584 -0.2872  0.0373
  976MOL0     C28728   7.244  10.343   6.752 -0.8721  0.1519  0.2886
  976MOL0     C28729   7.135  10.364   6.844 -0.2898 -0.0694  0.0293
  976MOL0     O28730   7.009  10.376   6.794  0.2565  0.0146 -0.2348
  976MOL0     C28731   6.895  10.388   6.866 -0.5350 -0.5504  0.1796
  976MOL0     C28732   6.809  10.279   6.872 -0.0325  0.8451 -0.4980
  976MOL0     C28733   6.692  10.283   6.944  0.3546 -0.0041  0.4736
  976MOL0     C28734   6.657  10.399   7.005  0.4473 -1.0170  0.5270
  976MOL0     O28735   6.547  10.387   7.087  0.1038 -0.1670 -0.2202
  976MOL0     C28736   6.493  10.500   7.159  0.7106  0.2036  0.0397
  976MOL0     C28737   6.367  10.460   7.246  0.4286 -0.1463  0.2778
  976MOL0     C28738   6.232  10.423   7.171 -0.3028  0.7540 -1.0443
  976MOL0     C28739   6.130  10.357   7.272 -0.5147 -0.9631  0.6990
  976MOL0     C28740   5.992  10.317   7.211  0.1648 -0.4508  0.1831
  976MOL0     C28741   5.908  10.262   7.321  0.3934  0.0736 -0.6951
  976MOL0     C28742   5.769  10.219   7.268 -0.0325 -1.6311 -0.4062
  976MOL0     C28743   5.676  10.197   7.394 -0.8353 -0.8380  0.9972
  976MOL0    Cl28744   5.519  10.119   7.346  0.2359  0.2410  0.0950
  976MOL0     C28745   6.739  10.511   7.000 -0.4457  0.6173 -0.0120
  976MOL0     C28746   6.862  10.510   6.929 -0.2912 -0.6950  0.1910
  976MOL0     O28747   7.162  10.350   6.964 -0.7128 -0.9469  0.4557
  976MOL0     C28748   7.374  10.335   6.803  0.7029  0.2239  0.3644
  976MOL0     C28749   7.487  10.314   6.718 -0.3980 -0.4796 -0.0903
  976MOL0     N28750   7.772  10.466   6.834  1.1015  0.4622 -0.3811
  976MOL0     N28751   7.722  10.472   6.952 -0.4984 -0.8018 -0.1236
  976MOL0     C28752   8.490  10.866   7.441 -0.0237  0.8560  0.2423
  976MOL0     C28753   8.613  10.901   7.376 -0.3938  0.1203 -0.0043
  976MOL0     C28754   9.043  10.951   7.293  0.7049 -0.2345 -0.1550
  976MOL0     C28755   9.114  10.919   7.177 -1.3193 -0.1547 -0.7871
  976MOL0     C28756   9.256  10.937   7.177 -0.1759 -0.1925  0.3621
  976MOL0     C28757   9.321  10.994   7.297  0.3951  0.7609 -0.0225
  976MOL0     O28758   9.460  10.989   7.295 -0.5737 -0.2433  0.1671
  976MOL0     C28759   9.535  11.067   7.395 -0.0705  0.6317  0.5666
  976MOL0     C28760   9.674  11.033   7.367  0.2512 -0.0651  0.1933
  976MOL0     C28761   9.706  10.888   7.406 -0.1680  0.5813 -0.8654
  976MOL0     C28762   9.722  10.856   7.554  0.2545  0.2626  0.1624
  976MOL0     C28763   9.790  10.728   7.559  0.2002  0.4475 -0.0745
  976MOL0     C28764   9.863  10.635   7.583 -0.2803 -0.3603 -0.5393
  976MOL0     C28765   9.254  11.032   7.405  0.0936  0.8697  0.4389
  976MOL0     C28766   9.118  11.011   7.402  0.8327 -0.8111 -0.3115
  976MOL0     H28767   8.773  10.937   7.676 -1.9559 -1.9330  2.1040
  976MOL0     H28768   8.563  10.909   7.770 -1.2991 -1.5142 -0.1445
  976MOL0     H28769   8.256  10.656   7.651  3.4733 -2.3102 -0.6337
  976MOL0     H28770   8.327  10.667   7.495  1.0458 -0.1482  0.4833
  976MOL0     H28771   8.150  10.806   7.405 -1.3548  0.4989 -0.1986
  976MOL0     H28772   8.086  10.849   7.573  0.2647  1.1105 -0.1606
  976MOL0     H28773   8.036  10.614   7.611 -0.5369 -0.7280 -0.5552
  976MOL0     H28774   8.105  10.572   7.448  1.1537  3.0191 -2.3150
  976MOL0     H28775   7.860  10.738   7.514  0.2832 -1.3435  2.5150
  976MOL0     H28776   7.912  10.704   7.347 -0.9651  0.1158 -0.5009
  976MOL0     H28777   7.739  10.532   7.416 -0.7878 -0.0820  0.7879
  976MOL0     H28778   7.812  10.496   7.566 -0.2445  1.3271 -0.5455
  976MOL0     H28779   7.859  10.320   7.427  1.2093  0.5982  0.6452
  976MOL0     H28780   8.010  10.404   7.436  0.5738 -1.0023 -0.5685
  976MOL0     H28781   7.932  10.514   7.215 -2.7169  1.5832  3.6398
  976MOL0     H28782   7.985  10.342   7.204  0.3933 -0.9334  2.3820
  976MOL0     H28783   7.692  10.431   7.217 -2.2217  0.0252 -2.1789
  976MOL0     H28784   7.756  10.265   7.185 -0.2049 -0.3001 -2.8150
  976MOL0     H28785   7.987  10.289   6.981 -0.0098  0.3971 -0.1659
  976MOL0     H28786   8.062  10.366   6.722 -0.6956  2.8368  3.3769
  976MOL0     H28787   7.931  10.452   6.633  0.2589  0.2454  0.5643
  976MOL0     H28788   7.963  10.144   6.683 -1.3648 -0.3318 -1.9286
  976MOL0     H28789   7.970  10.228   6.535  0.1895 -0.1972  0.3295
  976MOL0     H28790   7.763  10.112   6.537 -2.9678 -0.0945 -1.0522
  976MOL0     H28791   7.711  10.166   6.699 -1.6406 -1.9916 -1.7040
  976MOL0     H28792   7.758  10.333   6.442 -1.5232 -2.1854 -1.2280
  976MOL0     H28793   7.702  10.402   6.591 -0.4823  1.4188 -1.1715
  976MOL0     H28794   7.324  10.286   6.427  1.9957 -0.3589 -0.2527
  976MOL0     H28795   7.138  10.341   6.560  0.9875  0.2213 -0.8518
  976MOL0     H28796   6.831  10.179   6.837 -1.1074  0.5982 -0.4896
  976MOL0     H28797   6.621  10.203   6.959 -0.4741  0.8893  1.4450
  976MOL0     H28798   6.465  10.580   7.090  0.6541  0.7922  0.7242
  976MOL0     H28799   6.568  10.545   7.225  0.2680  2.0979 -0.6792
  976MOL0     H28800   6.340  10.542   7.313 -2.6088  0.3819 -1.4156
  976MOL0     H28801   6.398  10.367   7.295  0.5343 -0.9072 -1.1711
  976MOL0     H28802   6.249  10.350   7.091  0.7295  0.0000 -0.1719
  976MOL0     H28803   6.177  10.512   7.137  1.0116  2.6020  1.3418
  976MOL0     H28804   6.184  10.266   7.302  2.7419  0.8356  0.7699
  976MOL0     H28805   6.107  10.417   7.361  1.5638 -0.6524  1.0735
  976MOL0     H28806   6.005  10.242   7.133 -0.0190  1.0430 -1.3483
  976MOL0     H28807   5.951  10.409   7.168  0.6585  0.7983  2.2227
  976MOL0     H28808   5.893  10.340   7.396  0.9427 -2.7918  2.5904
  976MOL0     H28809   5.956  10.174   7.365 -0.6554 -0.0280  0.2806
  976MOL0     H28810   5.724  10.291   7.199  1.2960 -0.8553 -0.5125
  976MOL0     H28811   5.781  10.132   7.203 -0.0084 -0.4915 -1.9910
  976MOL0     H28812   5.658  10.297   7.435  0.0832  0.1689 -0.9484
  976MOL0     H28813   5.730  10.129   7.460  0.4442  0.3774  1.2518
  976MOL0     H28814   6.720  10.609   7.041 -0.4273  0.3516  0.6497
  976MOL0     H28815   6.920  10.600   6.912  3.4787 -2.8324  0.4794
  976MOL0     H28816   7.396  10.352   6.908 -1.3551  2.3259  0.5638
  976MOL0     H28817   7.586  10.318   6.763 -1.5219 -0.7205  2.5783
  976MOL0     H28818   8.416  10.839   7.366  0.9166  0.2382 -0.4715
  976MOL0     H28819   8.624  10.915   7.269  5.1877  0.1463  0.2696
  976MOL0     H28820   9.064  10.886   7.086 -2.6570  0.9727 -0.4940
  976MOL0     H28821   9.309  10.916   7.085 -1.5279 -0.0106 -0.4804
  976MOL0     H28822   9.522  11.033   7.498  1.9641 -0.5169  0.4888
  976MOL0     H28823   9.512  11.174   7.394  0.8430  0.8285  0.2049
  976MOL0     H28824   9.696  11.045   7.260  2.6328 -1.7029  0.4081
  976MOL0     H28825   9.739  11.102   7.422  0.7386  0.8173 -1.4336
  976MOL0     H28826   9.797  10.868   7.348  0.3326  1.6865 -0.4894
  976MOL0     H28827   9.644  10.817   7.350 -0.1719  0.5926 -0.8751
  976MOL0     H28828   9.781  10.935   7.601  2.3899 -0.5573 -1.0043
  976MOL0     H28829   9.627  10.843   7.606  0.0028 -1.6208 -0.6964
  976MOL0     H28830   9.927  10.554   7.613 -2.2103 -1.2763  1.4019
  976MOL0     H28831   9.308  11.062   7.495  1.1981  1.4272 -0.3764
  976MOL0     H28832   9.060  11.032   7.491  4.4218  1.5936  1.7431
  977MOL0     O28833   7.079   9.395   3.441 -0.0246 -0.1615  0.4747
  977MOL0     C28834   7.153   9.484   3.406  0.0202 -0.0222  0.3216
  977MOL0     O28835   7.140   9.562   3.296 -0.0961  0.2454  1.2880
  977MOL0     C28836   7.039   9.536   3.211 -0.4255  0.4070  0.5840
  977MOL0     C28837   7.062   9.428   3.118 -0.7618 -0.2925  0.1804
  977MOL0     C28838   6.960   9.397   3.030 -0.2490  0.4100 -0.0798
  977MOL0     C28839   6.829   9.449   3.045 -0.1533  0.2691 -0.8485
  977MOL0     O28840   6.725   9.393   2.972 -0.3523  0.5722  0.3945
  977MOL0     C28841   6.591   9.395   3.023  0.7598 -0.1775 -0.0534
  977MOL0     C28842   6.571   9.301   3.142  0.0893  0.5723 -1.0860
  977MOL0     C28843   6.589   9.146   3.113  0.5228 -0.8136 -0.2202
  977MOL0     C28844   6.485   9.105   3.002 -0.2959 -0.0077  0.6695
  977MOL0     C28845   6.481   8.954   2.983  0.7062 -0.6898  0.7261
  977MOL0     C28846   6.432   8.880   3.110  0.4276 -0.2116 -0.1801
  977MOL0     C28847   6.380   8.734   3.088 -0.1448  0.8070 -0.4216
  977MOL0     C28848   6.308   8.681   3.208  0.0756 -0.7372  0.6947
  977MOL0     N28849   6.170   8.742   3.206  0.2092  0.2939  0.5697
  977MOL0     C28850   6.058   8.675   3.161 -0.2136 -0.3751  0.1192
  977MOL0     C28851   5.951   8.752   3.202  0.2725  0.1284  0.2891
  977MOL0     C28852   5.800   8.718   3.206 -0.8005 -1.0437 -0.1686
  977MOL0     C28853   5.759   8.690   3.066  0.4302  0.2601 -0.2783
  977MOL0     C28854   5.616   8.735   3.039 -0.2602 -0.0590 -0.7255
  977MOL0     C28855   5.516   8.660   3.131 -0.1861 -1.3447 -0.2372
  977MOL0     O28856   5.395   8.664   3.057  1.0542  1.0276 -0.0290
  977MOL0     C28857   5.280   8.611   3.110 -0.3163  0.4343  0.2717
  977MOL0     C28858   5.265   8.568   3.238  0.3234 -0.8791  0.0347
  977MOL0     C28859   5.147   8.522   3.288  0.7429  1.1217  0.0371
  977MOL0     C28860   5.031   8.516   3.208  0.9632 -0.1087 -0.4622
  977MOL0     C28861   4.905   8.460   3.265  0.2916 -0.4518  0.7412
  977MOL0     O28862   4.809   8.418   3.161  0.5146 -0.9793  0.0028
  977MOL0     C28863   4.690   8.378   3.211 -0.3573 -0.3475  0.8585
  977MOL0     C28864   4.622   8.430   3.326  0.3247 -0.1416  0.7689
  977MOL0     C28865   4.513   8.368   3.374  0.2467 -0.5855  0.2256
  977MOL0     C28866   4.468   8.256   3.305  0.3611 -0.0982  0.3095
  977MOL0     O28867   4.353   8.189   3.356  0.1081  0.4509  0.0720
  977MOL0     C28868   4.232   8.249   3.330 -0.3130 -0.9938  0.2221
  977MOL0     C28869   4.121   8.151   3.319 -0.4988  0.0696 -0.5756
  977MOL0     C28870   3.984   8.219   3.305  0.4510 -0.0483  0.2965
  977MOL0     C28871   3.878   8.108   3.308  0.0151  0.6872 -0.5108
  977MOL0     C28872   3.742   8.173   3.282 -0.2188 -0.3472  0.4202
  977MOL0     C28873   3.634   8.081   3.331 -0.2509 -0.1797 -0.3566
  977MOL0     C28874   3.499   8.142   3.288 -0.1699  0.5000  0.3647
  977MOL0     C28875   3.392   8.038   3.268 -0.3627  0.1292  0.2641
  977MOL0    Cl28876   3.343   7.966   3.423  0.0227 -0.1660  0.5689
  977MOL0     C28877   4.522   8.205   3.187  0.5847 -0.7185 -0.6850
  977MOL0     C28878   4.637   8.266   3.144 -0.0767  0.2699  0.6274
  977MOL0     O28879   4.893   8.447   3.386 -0.1638 -0.2453  0.0601
  977MOL0     C28880   5.047   8.563   3.082  0.8216  0.2799  0.4412
  977MOL0     C28881   5.164   8.608   3.029 -1.0863  0.5190  0.6219
  977MOL0     N28882   6.006   8.853   3.274  0.5582 -0.9485  0.2681
  977MOL0     N28883   6.139   8.859   3.271  0.4946 -0.3250  0.8598
  977MOL0     C28884   6.816   9.549   3.149  1.1997  0.4371  0.7551
  977MOL0     C28885   6.921   9.601   3.219  1.1470 -0.2870 -0.1151
  977MOL0     C28886   7.262   9.527   3.497 -0.0995  0.9052 -0.0458
  977MOL0     C28887   7.294   9.444   3.605  0.4658 -0.3237 -1.2122
  977MOL0     C28888   7.398   9.479   3.699 -0.0517  0.1570  0.4257
  977MOL0     C28889   7.490   9.589   3.669 -0.0079 -0.2466 -0.0266
  977MOL0     O28890   7.588   9.636   3.751  0.0403  0.0975  0.0525
  977MOL0     C28891   7.625   9.560   3.861 -0.4267  0.4659 -0.2352
  977MOL0     C28892   7.771   9.585   3.911 -0.0649 -0.6751  0.2211
  977MOL0     C28893   7.808   9.506   4.036 -0.2576 -0.6340  0.0370
  977MOL0     C28894   7.960   9.504   4.067  0.8971 -0.5479  0.8136
  977MOL0     C28895   7.977   9.454   4.206 -0.3166  0.5231  0.4368
  977MOL0     C28896   7.971   9.397   4.309 -1.0333 -0.2291 -0.0293
  977MOL0     C28897   7.459   9.672   3.557 -0.0818  0.4327 -0.4944
  977MOL0     C28898   7.347   9.639   3.476 -0.0164 -0.7044 -0.1867
  977MOL0     H28899   7.159   9.381   3.107  0.3684  2.3304 -2.4596
  977MOL0     H28900   6.964   9.322   2.952  0.6637 -0.0190  0.3693
  977MOL0     H28901   6.524   9.358   2.944 -0.8633  2.8302 -0.2241
  977MOL0     H28902   6.553   9.497   3.029 -0.6851 -0.0873 -5.3993
  977MOL0     H28903   6.475   9.306   3.195  0.8444 -0.1879  0.4004
  977MOL0     H28904   6.645   9.329   3.218 -0.0261  1.1726 -1.1844
  977MOL0     H28905   6.581   9.092   3.208 -2.7009 -3.4010 -1.7544
  977MOL0     H28906   6.694   9.133   3.085  0.8263  3.8449 -2.0451
  977MOL0     H28907   6.388   9.147   3.030  0.5170  3.3917 -1.0724
  977MOL0     H28908   6.520   9.149   2.909  1.1193 -3.6825 -0.7271
  977MOL0     H28909   6.575   8.918   2.940 -0.1670 -0.2149 -1.7185
  977MOL0     H28910   6.413   8.929   2.901 -0.2639  1.2729  0.8769
  977MOL0     H28911   6.351   8.940   3.152  0.0005 -0.5782 -0.4783
  977MOL0     H28912   6.507   8.868   3.190  0.0136 -0.6832  0.1440
  977MOL0     H28913   6.310   8.734   3.004 -2.2121  0.8264  1.2206
  977MOL0     H28914   6.472   8.675   3.077 -0.4780  0.4835 -1.6571
  977MOL0     H28915   6.369   8.708   3.294 -0.1598 -1.6521  1.1617
  977MOL0     H28916   6.299   8.573   3.191 -1.4604 -0.2368 -2.3577
  977MOL0     H28917   6.033   8.575   3.127 -1.4351 -0.2731  0.6756
  977MOL0     H28918   5.741   8.804   3.239  0.1613 -0.4745  0.1024
  977MOL0     H28919   5.772   8.634   3.271 -0.7330 -0.5879  0.4605
  977MOL0     H28920   5.760   8.582   3.051  1.0779  0.3752 -1.0761
  977MOL0     H28921   5.822   8.741   2.993 -1.9633 -1.7103 -4.0397
  977MOL0     H28922   5.604   8.843   3.050 -3.3190 -0.5450  2.6923
  977MOL0     H28923   5.593   8.710   2.935 -0.6929 -0.4058 -0.5501
  977MOL0     H28924   5.509   8.705   3.231 -1.2253 -0.2267 -0.7832
  977MOL0     H28925   5.551   8.557   3.146 -1.5202 -1.8353 -0.3282
  977MOL0     H28926   5.355   8.565   3.300 -1.2632 -3.4016  2.4666
  977MOL0     H28927   5.152   8.477   3.387  1.8672 -0.8417 -0.8579
  977MOL0     H28928   4.660   8.518   3.378 -0.6610 -1.6431  4.3148
  977MOL0     H28929   4.475   8.402   3.470  0.1195 -1.6199  0.5493
  977MOL0     H28930   4.232   8.305   3.236  1.9688 -0.6984  0.3242
  977MOL0     H28931   4.215   8.313   3.417  0.1551 -1.2926  0.5360
  977MOL0     H28932   4.130   8.093   3.411  0.9855 -0.9881 -1.3361
  977MOL0     H28933   4.125   8.080   3.236  0.3459  0.1169 -0.5931
  977MOL0     H28934   3.972   8.264   3.206 -0.3108  0.7182  0.7279
  977MOL0     H28935   3.957   8.291   3.381  0.8618  1.7762 -1.2133
  977MOL0     H28936   3.897   8.039   3.226  3.0726  1.9789 -1.0379
  977MOL0     H28937   3.883   8.053   3.403 -2.0827  0.1194 -0.6810
  977MOL0     H28938   3.728   8.186   3.174  1.3320 -0.8836  0.1274
  977MOL0     H28939   3.749   8.272   3.327  3.4718  1.0855 -2.6599
  977MOL0     H28940   3.629   8.085   3.440 -0.8485 -1.6372 -0.2999
  977MOL0     H28941   3.652   7.975   3.308 -0.1361  0.1507 -1.8669
  977MOL0     H28942   3.462   8.209   3.367  0.9384  0.0963  1.2585
  977MOL0     H28943   3.510   8.209   3.202  2.4076  2.0358  1.7602
  977MOL0     H28944   3.420   7.971   3.186  3.2370  2.9623 -1.0844
  977MOL0     H28945   3.313   8.094   3.217 -0.3402 -0.5076 -0.5027
  977MOL0     H28946   4.464   8.130   3.134 -1.0125 -0.3329  0.4212
  977MOL0     H28947   4.670   8.219   3.052 -1.1790 -2.0137  1.3114
  977MOL0     H28948   4.967   8.537   3.014  2.1528  2.9102 -2.4007
  977MOL0     H28949   5.180   8.634   2.925 -1.0108 -0.2972  0.4196
  977MOL0     H28950   6.721   9.601   3.147  1.5815  1.1277  0.3222
  977MOL0     H28951   6.906   9.685   3.286 -2.9146 -0.9146 -0.0125
  977MOL0     H28952   7.242   9.352   3.626  1.2971 -0.7080 -0.7815
  977MOL0     H28953   7.414   9.427   3.793  1.9473  1.5141  0.8982
  977MOL0     H28954   7.619   9.454   3.834  1.3155  0.4482 -0.6365
  977MOL0     H28955   7.554   9.573   3.943  0.5001 -0.8208  0.8329
  977MOL0     H28956   7.839   9.554   3.832  1.4380 -0.8703  1.5290
  977MOL0     H28957   7.786   9.693   3.916  0.8168 -0.7880  0.1414
  977MOL0     H28958   7.766   9.405   4.028  1.8624 -1.6501  1.0049
  977MOL0     H28959   7.756   9.544   4.124 -0.0624 -0.9169  0.2772
  977MOL0     H28960   8.007   9.435   3.997 -1.0656 -0.0828 -1.0762
  977MOL0     H28961   8.007   9.600   4.047  0.2447 -0.3825  0.0391
  977MOL0     H28962   7.965   9.345   4.402 -0.5363 -1.6674 -0.7635
  977MOL0     H28963   7.507   9.768   3.541 -1.0629  0.9263 -0.6127
  977MOL0     H28964   7.326   9.708   3.395 -2.0611  1.9582  2.3482
  978MOL0     O28965   4.429  10.047  10.803 -0.3075 -0.2048  0.4077
  978MOL0     C28966   4.469   9.989  10.906  0.0768 -0.5133  0.6495
  978MOL0     O28967   4.389   9.925  10.997  0.5117  0.0231  0.1664
  978MOL0     C28968   4.266   9.887  10.946  0.6387  0.5266  0.3658
  978MOL0     C28969   4.161   9.967  10.892  0.2612 -0.8609  0.0502
  978MOL0     C28970   4.053   9.913  10.825  0.4385 -0.3571 -0.4446
  978MOL0     C28971   4.036   9.772  10.817  0.5206  0.1027  0.0013
  978MOL0     O28972   3.934   9.712  10.744 -0.4936  0.4354 -0.3378
  978MOL0     C28973   3.802   9.772  10.735  0.7108  0.3099 -0.8350
  978MOL0     C28974   3.719   9.698  10.622  0.0349 -0.0501 -0.7212
  978MOL0     C28975   3.591   9.767  10.596 -0.5068 -1.4365  0.4794
  978MOL0     C28976   3.489   9.727  10.693  1.0691 -0.9240 -0.1452
  978MOL0     C28977   3.358   9.807  10.680 -0.7055 -0.6206  0.3724
  978MOL0     C28978   3.381   9.953  10.725 -0.4908  0.7780  0.5106
  978MOL0     C28979   3.243  10.026  10.742 -0.1097 -1.1785 -0.1772
  978MOL0     C28980   3.159  10.021  10.605  0.0529  0.4161 -0.9182
  978MOL0     N28981   3.034  10.099  10.615 -0.2372 -0.3449 -0.3826
  978MOL0     C28982   3.035  10.233  10.635  0.0243  0.3003  0.0718
  978MOL0     C28983   2.901  10.266  10.631 -0.4166  0.6002 -0.9178
  978MOL0     C28984   2.834  10.404  10.655 -0.1600  0.2265 -0.1734
  978MOL0     C28985   2.755  10.470  10.536  0.5813  0.2827  0.3243
  978MOL0     C28986   2.610  10.409  10.509  0.1463  0.2262  0.9414
  978MOL0     C28987   2.503  10.407  10.622 -0.9255  0.1953 -0.3201
  978MOL0     O28988   2.506  10.529  10.694 -0.0372  0.8092 -0.3289
  978MOL0     C28989   2.443  10.643  10.649 -0.4275 -0.3367  0.3234
  978MOL0     C28990   2.492  10.769  10.689  0.0114  0.0534 -0.0743
  978MOL0     C28991   2.425  10.893  10.656 -0.1038 -0.5050  0.4451
  978MOL0     C28992   2.310  10.892  10.576 -0.1684  0.2769  0.1209
  978MOL0     C28993   2.240  11.007  10.521  0.6196  0.1540 -0.2826
  978MOL0     O28994   2.106  10.978  10.502 -1.1230  0.6706 -0.5737
  978MOL0     C28995   2.027  11.086  10.503 -0.2882 -0.5386  0.2233
  978MOL0     C28996   1.969  11.112  10.384 -0.0857 -0.1242  0.0353
  978MOL0     C28997   1.866  11.198  10.372  0.6592 -0.2465  0.2335
  978MOL0     C28998   1.823  11.274  10.482 -0.2756 -0.6242 -0.2520
  978MOL0     O28999   1.730  11.374  10.483  0.2744 -0.4713  0.1313
  978MOL0     C29000   1.639  11.374  10.374 -0.1226 -0.2833 -0.5155
  978MOL0     C29001   1.495  11.403  10.422 -0.1488  0.8708 -0.0242
  978MOL0     C29002   1.396  11.413  10.301  0.3185 -0.3583  0.0597
  978MOL0     C29003   1.257  11.484  10.315  0.3566 -0.0716 -0.7389
  978MOL0     C29004   1.158  11.477  10.197  0.2522 -1.1652 -0.3085
  978MOL0     C29005   1.032  11.573  10.221  1.1661 -1.0279 -0.4211
  978MOL0     C29006   0.938  11.564  10.094  0.1154 -0.5061 -0.2888
  978MOL0     C29007   0.803  11.639  10.089 -0.0856 -0.9720  0.6920
  978MOL0    Cl29008   0.740  11.654   9.924 -0.1427  0.2506  0.1469
  978MOL0     C29009   1.887  11.257  10.606  1.5355 -0.1296  0.9022
  978MOL0     C29010   1.990  11.163  10.615  0.9259  0.8022  0.2552
  978MOL0     O29011   2.295  11.116  10.530  0.2246  0.1123 -0.1437
  978MOL0     C29012   2.271  10.764  10.533 -0.7708 -0.3130 -0.1737
  978MOL0     C29013   2.326  10.645  10.567 -0.9093  0.4840  0.3909
  978MOL0     N29014   2.825  10.148  10.622  0.0754 -0.7098 -0.6064
  978MOL0     N29015   2.906  10.055  10.603 -0.1801  0.6194  0.2283
  978MOL0     C29016   4.138   9.697  10.858 -0.7678 -0.0415 -0.8177
  978MOL0     C29017   4.253   9.750  10.918  0.2745 -0.3744 -0.3773
  978MOL0     C29018   4.613   9.996  10.930  0.7222 -0.3314 -0.1455
  978MOL0     C29019   4.702  10.027  10.830  0.0041 -0.2926  0.0153
  978MOL0     C29020   4.840  10.042  10.854 -0.1799  0.9739 -0.2284
  978MOL0     C29021   4.883  10.017  10.991  0.4962  0.1586  0.6427
  978MOL0     O29022   5.017  10.035  11.006  0.1183 -0.5532  0.0431
  978MOL0     C29023   5.098   9.926  10.976  0.7271 -0.1572 -0.1620
  978MOL0     C29024   5.096   9.809  11.070 -0.2697  0.2916 -0.4232
  978MOL0     C29025   5.177   9.827  11.193 -0.2637  0.7384 -0.9153
  978MOL0     C29026   5.181   9.713  11.298 -0.9933  0.2388  0.0762
  978MOL0     C29027   5.253   9.748  11.419  0.5760 -0.2492  0.7837
  978MOL0     C29028   5.307   9.780  11.527 -0.2112 -0.0986  0.9494
  978MOL0     C29029   4.796   9.986  11.090  0.6428 -0.0200  0.5932
  978MOL0     C29030   4.663   9.980  11.058  0.6841  0.5180 -0.6046
  978MOL0     H29031   4.181  10.074  10.895 -1.3898 -0.4098 -2.2240
  978MOL0     H29032   3.980   9.981  10.785 -0.5614 -1.3582 -0.3709
  978MOL0     H29033   3.796   9.877  10.707 -0.9069  0.6540  0.6191
  978MOL0     H29034   3.743   9.753  10.825 -0.0749  1.5143 -1.0793
  978MOL0     H29035   3.705   9.590  10.628  0.9727 -0.1254  0.4161
  978MOL0     H29036   3.785   9.705  10.535  1.2728 -2.1891 -0.0406
  978MOL0     H29037   3.547   9.741  10.499 -2.1963  0.8068  0.5546
  978MOL0     H29038   3.599   9.876  10.593 -1.7822 -1.3484 -0.6518
  978MOL0     H29039   3.467   9.621  10.677 -1.5258 -0.2554 -1.6800
  978MOL0     H29040   3.518   9.739  10.798  0.3386 -1.1578  0.0937
  978MOL0     H29041   3.278   9.769  10.744 -0.7019 -3.0779 -0.9429
  978MOL0     H29042   3.327   9.805  10.575  2.9809  1.1616 -0.9379
  978MOL0     H29043   3.448   9.995  10.649  1.1104  0.3867  1.6587
  978MOL0     H29044   3.440   9.958  10.817  0.1872  3.8251  0.0500
  978MOL0     H29045   3.182   9.986  10.824  0.5322 -0.2446  0.7951
  978MOL0     H29046   3.265  10.130  10.769 -2.6719 -0.4957 -0.4164
  978MOL0     H29047   3.131   9.918  10.581  0.7569  0.3105 -1.3084
  978MOL0     H29048   3.213  10.064  10.520  1.8590 -0.6382 -0.3609
  978MOL0     H29049   3.115  10.300  10.664 -0.6176  2.0196 -1.8122
  978MOL0     H29050   2.921  10.459  10.693  1.2509 -1.2742 -1.1173
  978MOL0     H29051   2.764  10.398  10.738 -0.6331 -1.8150 -0.6657
  978MOL0     H29052   2.809  10.464  10.441 -2.6284 -1.7383 -1.5684
  978MOL0     H29053   2.746  10.578  10.549  0.6768  0.4431 -0.7992
  978MOL0     H29054   2.570  10.472  10.428 -1.1228  0.3997  1.6690
  978MOL0     H29055   2.612  10.312  10.459 -3.0305  2.0069 -3.3457
  978MOL0     H29056   2.528  10.327  10.692 -0.1528 -0.1887 -1.0127
  978MOL0     H29057   2.409  10.401  10.566  0.7316 -0.5974 -3.2535
  978MOL0     H29058   2.593  10.768  10.727 -1.0496 -2.1661  3.1095
  978MOL0     H29059   2.461  10.976  10.715  1.0711 -2.5049  2.7423
  978MOL0     H29060   2.015  11.054  10.304  2.5521  1.9411 -0.0823
  978MOL0     H29061   1.830  11.210  10.270  1.0998  1.8930  0.2782
  978MOL0     H29062   1.639  11.293  10.301 -0.9092 -0.6285 -0.1392
  978MOL0     H29063   1.666  11.456  10.307 -0.3264  0.1281 -0.1004
  978MOL0     H29064   1.467  11.492  10.479 -2.8817 -0.4266  0.8299
  978MOL0     H29065   1.484  11.317  10.488  2.4506  1.3537  1.1660
  978MOL0     H29066   1.366  11.310  10.281 -1.1922 -0.3791  2.1140
  978MOL0     H29067   1.445  11.450  10.210 -2.0868  0.5344 -0.9807
  978MOL0     H29068   1.205  11.443  10.403 -1.2737  1.0825 -1.1243
  978MOL0     H29069   1.280  11.590  10.329 -0.6837  0.1185 -0.3941
  978MOL0     H29070   1.132  11.374  10.174 -0.6449 -0.9714 -0.2244
  978MOL0     H29071   1.205  11.527  10.112 -0.3999  3.3596  1.6923
  978MOL0     H29072   1.063  11.676  10.240 -1.7607 -0.2541  0.8454
  978MOL0     H29073   0.974  11.543  10.310 -0.5998 -0.4377 -1.3242
  978MOL0     H29074   1.004  11.609  10.019  1.7543  0.0800  1.4076
  978MOL0     H29075   0.924  11.459  10.066 -1.5520  0.2020 -2.3136
  978MOL0     H29076   0.812  11.742  10.125  1.6383 -0.1741 -1.7174
  978MOL0     H29077   0.728  11.585  10.147  0.9758 -2.7889  0.4170
  978MOL0     H29078   1.839  11.308  10.689  0.5718 -1.2290  1.0460
  978MOL0     H29079   2.025  11.137  10.714 -2.9593 -0.8754  1.3683
  978MOL0     H29080   2.197  10.751  10.454  0.7433  2.0198 -2.1440
  978MOL0     H29081   2.277  10.556  10.529 -2.5540  1.3670  0.3681
  978MOL0     H29082   4.131   9.589  10.858 -2.6510 -0.0314  2.1968
  978MOL0     H29083   4.333   9.679  10.938  1.7073  0.9697 -1.0577
  978MOL0     H29084   4.662  10.031  10.729 -1.5810 -2.7319  0.4583
  978MOL0     H29085   4.908  10.085  10.782 -0.0155  0.1941 -0.5552
  978MOL0     H29086   5.200   9.964  10.973  0.2914  1.4040  2.1224
  978MOL0     H29087   5.077   9.903  10.871  0.6296  0.2279 -0.2280
  978MOL0     H29088   4.998   9.774  11.102  0.5634 -0.0325  1.9594
  978MOL0     H29089   5.150   9.730  11.015  0.4632  1.8777 -2.1148
  978MOL0     H29090   5.147   9.914  11.252 -0.5482  0.3747 -0.5149
  978MOL0     H29091   5.279   9.852  11.161  0.4750  1.2179  1.5438
  978MOL0     H29092   5.080   9.679  11.326 -1.7513  1.6488 -0.8179
  978MOL0     H29093   5.240   9.630  11.258  1.7881  1.7060  0.9355
  978MOL0     H29094   5.336   9.817  11.623  1.2350  0.2168  0.4099
  978MOL0     H29095   4.837   9.964  11.188  1.1984 -1.7678 -0.0027
  978MOL0     H29096   4.592   9.961  11.138  1.4686  2.2277  0.5621
  979MOL0     O29097  10.937   6.629   4.976 -0.6686  0.0452 -0.0162
  979MOL0     C29098  10.962   6.720   5.062 -0.8181  0.3245  0.0477
  979MOL0     O29099  10.869   6.792   5.136  0.7139 -1.0321  0.1239
  979MOL0     C29100  10.735   6.781   5.126 -0.2926  0.3206  0.7259
  979MOL0     C29101  10.665   6.824   5.240 -0.5058 -0.4486 -0.1706
  979MOL0     C29102  10.529   6.804   5.252 -0.9721 -0.3699  0.1806
  979MOL0     C29103  10.463   6.723   5.160 -0.2050 -0.2174 -0.9272
  979MOL0     O29104  10.338   6.680   5.183  0.1117  0.3238  0.4836
  979MOL0     C29105  10.241   6.706   5.077  0.2218 -0.0724 -0.2181
  979MOL0     C29106  10.158   6.828   5.119  0.2435  0.2108 -0.3355
  979MOL0     C29107  10.054   6.791   5.227 -0.2656  0.4141 -1.1081
  979MOL0     C29108   9.980   6.912   5.287  0.1918 -0.1918  0.0593
  979MOL0     C29109   9.823   6.893   5.303 -0.3310 -0.0357  0.4331
  979MOL0     C29110   9.760   6.994   5.398 -0.4744 -0.6076  0.1733
  979MOL0     C29111   9.732   7.128   5.337 -0.5737 -0.0142 -0.3116
  979MOL0     C29112   9.631   7.216   5.432  0.3656 -0.2380  0.7454
  979MOL0     N29113   9.504   7.157   5.452 -0.4366 -0.7361  0.1431
  979MOL0     C29114   9.404   7.141   5.359 -0.2185  0.1773  0.4279
  979MOL0     C29115   9.288   7.150   5.434  0.4296  0.2241  0.8736
  979MOL0     C29116   9.162   7.126   5.352 -0.2297  0.2854  0.5404
  979MOL0     C29117   9.038   7.061   5.432 -0.3782 -0.1024 -0.0547
  979MOL0     C29118   8.984   7.151   5.545 -0.0908 -0.4447 -0.0231
  979MOL0     C29119   8.860   7.087   5.616 -0.0167  0.1743 -0.3477
  979MOL0     O29120   8.796   7.002   5.516  0.1112  0.3252  0.0433
  979MOL0     C29121   8.665   7.034   5.487 -0.5913  1.0243 -0.1367
  979MOL0     C29122   8.566   7.057   5.586  0.2621  0.4724  0.6763
  979MOL0     C29123   8.432   7.079   5.548  0.4693  0.0760 -0.1303
  979MOL0     C29124   8.393   7.088   5.410  0.1564 -1.0308 -1.1632
  979MOL0     C29125   8.253   7.117   5.386  0.2170  0.2936  1.0614
  979MOL0     O29126   8.188   7.177   5.487 -0.8136 -0.2934 -0.4392
  979MOL0     C29127   8.053   7.189   5.478  0.8235  0.3136  0.4840
  979MOL0     C29128   7.991   7.301   5.421 -0.1926 -0.2998 -0.5962
  979MOL0     C29129   7.854   7.304   5.390  0.2684  0.2165 -0.5540
  979MOL0     C29130   7.782   7.190   5.420  1.3527  0.2757  0.0418
  979MOL0     O29131   7.649   7.185   5.383 -0.1383 -0.3624 -0.1978
  979MOL0     C29132   7.625   7.193   5.238  0.3696  0.0499  0.1752
  979MOL0     C29133   7.486   7.126   5.233  0.0261  0.0910 -0.2782
  979MOL0     C29134   7.377   7.218   5.300 -1.4399 -0.0958  0.4540
  979MOL0     C29135   7.253   7.149   5.352  0.5114 -0.4760 -0.9594
  979MOL0     C29136   7.160   7.121   5.231 -0.2770 -0.5716 -0.3331
  979MOL0     C29137   7.020   7.092   5.277  0.4543  0.7622 -0.5964
  979MOL0     C29138   7.013   6.989   5.390  0.5307 -0.1882 -0.2440
  979MOL0     C29139   6.866   6.949   5.407 -0.2359  0.2265 -1.0950
  979MOL0    Cl29140   6.806   6.831   5.291  0.5037 -0.0672 -0.4292
  979MOL0     C29141   7.836   7.088   5.489 -0.0896  0.4944  0.3927
  979MOL0     C29142   7.974   7.082   5.518  0.0445  0.3931 -0.2385
  979MOL0     O29143   8.200   7.080   5.286 -0.1688  0.3113 -0.6804
  979MOL0     C29144   8.480   7.051   5.312  0.0093  0.7946  0.0271
  979MOL0     C29145   8.611   7.023   5.352  0.4170  0.2651  0.7996
  979MOL0     N29146   9.315   7.190   5.559  0.2965  0.6565  0.8061
  979MOL0     N29147   9.439   7.192   5.571  0.1560  0.8544 -0.1529
  979MOL0     C29148  10.531   6.676   5.046 -0.2601  0.0147 -0.5901
  979MOL0     C29149  10.667   6.704   5.029  0.2305 -0.4642  0.3798
  979MOL0     C29150  11.104   6.763   5.084 -0.6679 -0.1523 -0.5207
  979MOL0     C29151  11.140   6.885   5.147 -0.8207 -0.7265  0.2382
  979MOL0     C29152  11.270   6.919   5.184 -0.2777  0.2939  0.2678
  979MOL0     C29153  11.371   6.828   5.168  0.7706 -0.1541 -0.2845
  979MOL0     O29154  11.507   6.833   5.197 -0.4414  0.1168 -0.4282
  979MOL0     C29155  11.545   6.965   5.239 -0.0068  0.2854  0.2465
  979MOL0     C29156  11.695   6.994   5.219  0.6730  0.0398  0.8494
  979MOL0     C29157  11.775   6.915   5.322 -0.6291 -0.0323 -0.8661
  979MOL0     C29158  11.911   6.988   5.351  0.8057  0.4226 -0.6007
  979MOL0     C29159  12.004   6.910   5.440  0.0196  0.0699  0.2131
  979MOL0     C29160  12.087   6.861   5.509  0.4616 -0.2874  0.3491
  979MOL0     C29161  11.337   6.714   5.102  0.1836 -0.7402 -0.0248
  979MOL0     C29162  11.211   6.674   5.054  0.0070 -0.1679 -0.9217
  979MOL0     H29163  10.714   6.880   5.318 -0.3623 -2.3155  1.1587
  979MOL0     H29164  10.488   6.836   5.347 -2.1126 -0.2795 -0.3214
  979MOL0     H29165  10.187   6.611   5.067  2.2681 -1.1158 -2.2882
  979MOL0     H29166  10.285   6.730   4.980  3.7849  2.7819  1.8491
  979MOL0     H29167  10.108   6.882   5.038 -2.8579  2.6684  2.8706
  979MOL0     H29168  10.216   6.911   5.163  2.6771 -0.1266 -2.6359
  979MOL0     H29169  10.108   6.747   5.312 -2.3199 -0.3547 -0.1402
  979MOL0     H29170   9.980   6.717   5.195 -0.2622 -1.3293  2.4079
  979MOL0     H29171  10.020   6.919   5.389  0.4409 -0.7778  0.0050
  979MOL0     H29172  10.004   7.001   5.227 -0.8534  0.4968  0.6248
  979MOL0     H29173   9.797   6.797   5.348  2.1468 -1.2937 -0.6398
  979MOL0     H29174   9.777   6.900   5.204 -1.7861 -1.8507  0.9220
  979MOL0     H29175   9.836   7.008   5.476  0.0158 -2.1590  0.0082
  979MOL0     H29176   9.667   6.951   5.435  1.4947 -2.9643  2.9244
  979MOL0     H29177   9.821   7.187   5.312 -0.2561 -0.4134 -0.1358
  979MOL0     H29178   9.688   7.106   5.240  1.0727 -1.6232 -0.7517
  979MOL0     H29179   9.618   7.306   5.371 -1.0201 -0.9134 -0.0159
  979MOL0     H29180   9.670   7.243   5.530 -0.6242  1.4740  0.7106
  979MOL0     H29181   9.428   7.117   5.256  2.3243  0.8070  0.8027
  979MOL0     H29182   9.196   7.065   5.268 -0.0146  0.2864  0.6256
  979MOL0     H29183   9.122   7.218   5.309 -1.1990 -0.5717 -0.4621
  979MOL0     H29184   9.072   6.961   5.461  2.1138  0.1460 -1.7823
  979MOL0     H29185   8.963   7.058   5.352  0.9465  0.1019 -1.3500
  979MOL0     H29186   9.065   7.165   5.617  1.6852  1.5529 -2.2690
  979MOL0     H29187   8.965   7.252   5.507  0.4414  0.5590  2.1686
  979MOL0     H29188   8.808   7.173   5.659  0.5944  0.4952 -0.2462
  979MOL0     H29189   8.896   7.020   5.694  1.1002  3.3016  1.9966
  979MOL0     H29190   8.596   7.056   5.691  1.5354  4.3148  0.5020
  979MOL0     H29191   8.367   7.103   5.631  2.5231  3.3121  0.7222
  979MOL0     H29192   8.054   7.390   5.414 -0.9521  0.4930  1.7471
  979MOL0     H29193   7.810   7.391   5.343  0.1787  0.3670 -0.1869
  979MOL0     H29194   7.697   7.133   5.181  0.4165  0.7861 -0.5468
  979MOL0     H29195   7.625   7.299   5.214 -1.5675 -0.1183 -0.7640
  979MOL0     H29196   7.484   7.025   5.274 -0.5045  0.3935  0.4517
  979MOL0     H29197   7.456   7.111   5.129  0.4525  0.1888 -0.4182
  979MOL0     H29198   7.356   7.310   5.245 -0.7885  0.2281  0.7408
  979MOL0     H29199   7.429   7.260   5.386 -1.6454  1.9507 -0.3701
  979MOL0     H29200   7.285   7.068   5.417 -2.2630 -0.7569  0.1794
  979MOL0     H29201   7.202   7.223   5.414  1.4248  0.7330 -1.5885
  979MOL0     H29202   7.201   7.032   5.181  0.5078 -0.9975  1.0285
  979MOL0     H29203   7.157   7.208   5.165  0.3919 -0.6637 -0.4937
  979MOL0     H29204   6.965   7.065   5.186  0.8382  1.6737 -1.1121
  979MOL0     H29205   6.976   7.183   5.317 -0.0288  1.2260 -2.1033
  979MOL0     H29206   7.087   6.909   5.389 -0.1126 -0.8127  0.5404
  979MOL0     H29207   7.032   7.041   5.484  0.8640 -2.0421  0.7570
  979MOL0     H29208   6.815   7.046   5.411  1.0959  0.9262 -0.2689
  979MOL0     H29209   6.855   6.895   5.501  2.9216 -0.3356 -0.9717
  979MOL0     H29210   7.788   6.992   5.505  1.0379 -0.4127 -1.3329
  979MOL0     H29211   8.015   6.986   5.549  0.0528 -0.1558 -1.8715
  979MOL0     H29212   8.445   7.046   5.209 -2.0229  1.0177  0.6577
  979MOL0     H29213   8.678   7.010   5.267 -0.6151  0.2215 -0.0271
  979MOL0     H29214  10.482   6.605   4.980 -2.6303  0.4662  0.5923
  979MOL0     H29215  10.717   6.670   4.938 -0.0846 -0.6233  0.2673
  979MOL0     H29216  11.059   6.954   5.171  1.0943  0.9851  2.3193
  979MOL0     H29217  11.281   7.011   5.239 -0.4923 -1.2039  2.9930
  979MOL0     H29218  11.507   6.976   5.342  0.9873 -0.3364  0.6862
  979MOL0     H29219  11.491   7.037   5.176 -3.3274 -2.3548 -0.2482
  979MOL0     H29220  11.733   6.966   5.120  1.6557 -1.2309  1.5616
  979MOL0     H29221  11.709   7.097   5.252  1.6442 -0.3936  1.8408
  979MOL0     H29222  11.805   6.815   5.289  0.1592  0.5513 -2.0015
  979MOL0     H29223  11.718   6.906   5.415  0.8950 -0.8034  0.0292
  979MOL0     H29224  11.955   7.003   5.253 -2.7451  3.8229 -1.9026
  979MOL0     H29225  11.896   7.079   5.409 -0.3705 -2.5839  4.4995
  979MOL0     H29226  12.154   6.835   5.589 -0.2370  0.8683  1.3353
  979MOL0     H29227  11.416   6.641   5.088  1.4162 -0.2055  3.2164
  979MOL0     H29228  11.183   6.578   5.011 -2.2803 -0.8643  1.7538
  980MOL0     O29229   5.987   3.415   4.144  0.2912 -0.0377  0.3110
  980MOL0     C29230   5.997   3.380   4.028 -0.4777 -0.0858  0.1306
  980MOL0     O29231   5.899   3.363   3.939 -0.8143  0.5820 -0.0241
  980MOL0     C29232   5.770   3.376   3.979 -0.6806 -0.1517  0.7162
  980MOL0     C29233   5.722   3.502   4.013 -0.1821 -0.3696 -0.6454
  980MOL0     C29234   5.594   3.524   4.057 -0.1988 -0.4922 -0.0646
  980MOL0     C29235   5.509   3.419   4.064  0.5386  0.2286  0.2157
  980MOL0     O29236   5.374   3.433   4.085 -0.1910 -0.1959 -0.2039
  980MOL0     C29237   5.324   3.568   4.101  0.2176 -0.4716  0.2421
  980MOL0     C29238   5.172   3.577   4.131 -0.6334 -0.6918 -0.3369
  980MOL0     C29239   5.144   3.536   4.275  0.4911  0.6730 -0.3070
  980MOL0     C29240   4.988   3.540   4.302 -0.5665 -0.4476  0.6628
  980MOL0     C29241   4.979   3.550   4.455 -0.5053 -0.5301 -0.1706
  980MOL0     C29242   4.830   3.585   4.480  0.4579 -0.4267  0.1597
  980MOL0     C29243   4.817   3.622   4.626  0.2219 -0.4342 -0.1578
  980MOL0     C29244   4.677   3.682   4.657  0.2721 -0.0022  0.1128
  980MOL0     N29245   4.565   3.585   4.646 -0.1088  0.5260  0.5276
  980MOL0     C29246   4.501   3.546   4.530 -0.8208 -0.0181 -0.1538
  980MOL0     C29247   4.406   3.452   4.570  0.6960 -0.9175  0.5180
  980MOL0     C29248   4.310   3.371   4.483 -0.7898 -0.0898  0.4767
  980MOL0     C29249   4.183   3.460   4.451 -0.2501 -0.4517 -0.4018
  980MOL0     C29250   4.077   3.364   4.393 -0.2916  0.9812  0.7663
  980MOL0     C29251   3.940   3.431   4.368 -0.4338  0.7690  0.1553
  980MOL0     O29252   3.935   3.522   4.250  0.8087  0.0815 -0.8681
  980MOL0     C29253   3.818   3.586   4.225  0.2286  0.5541  0.2000
  980MOL0     C29254   3.695   3.520   4.238 -0.4308  0.0459  0.7944
  980MOL0     C29255   3.587   3.592   4.204  0.5255  0.0049  0.2518
  980MOL0     C29256   3.593   3.727   4.149 -0.8809  0.8133 -0.6777
  980MOL0     C29257   3.473   3.818   4.136 -0.2143  0.3274  0.4841
  980MOL0     O29258   3.496   3.949   4.120 -0.3442 -0.0028 -0.0073
  980MOL0     C29259   3.388   4.029   4.098 -0.0436 -0.3330  0.1670
  980MOL0     C29260   3.387   4.151   4.165  0.2549  0.3013 -0.0727
  980MOL0     C29261   3.292   4.244   4.129 -0.7654  0.4487 -0.1641
  980MOL0     C29262   3.191   4.219   4.029  0.0560  0.3339 -0.3700
  980MOL0     O29263   3.090   4.311   4.020 -0.5841  0.3244  0.1304
  980MOL0     C29264   2.962   4.281   3.966  0.6518 -0.0924 -0.0357
  980MOL0     C29265   2.884   4.409   3.963  0.7109 -0.6521  0.1895
  980MOL0     C29266   2.924   4.543   4.035 -0.0935 -0.2044 -0.2242
  980MOL0     C29267   2.829   4.660   4.017 -0.3738 -0.2394  0.4589
  980MOL0     C29268   2.876   4.791   4.085  0.2984 -0.1151 -0.0290
  980MOL0     C29269   2.769   4.903   4.080 -0.1268 -0.9840  0.3056
  980MOL0     C29270   2.821   5.060   4.086  0.0106  0.1763 -1.0798
  980MOL0     C29271   2.694   5.146   4.067 -0.1506  0.1148  0.0362
  980MOL0    Cl29272   2.580   5.129   4.205  0.1986  0.3058 -0.0218
  980MOL0     C29273   3.194   4.101   3.962 -0.2950  0.2476  0.4218
  980MOL0     C29274   3.294   4.005   3.993  0.0990 -0.4922  0.7216
  980MOL0     O29275   3.367   3.763   4.165 -0.2144 -0.4004  0.2016
  980MOL0     C29276   3.722   3.776   4.128  0.9596 -0.4672 -0.8173
  980MOL0     C29277   3.837   3.709   4.167 -0.0977 -0.1605 -0.3256
  980MOL0     N29278   4.414   3.436   4.707 -0.1313 -0.4315  0.4565
  980MOL0     N29279   4.506   3.519   4.754 -0.2023 -1.0413  0.4743
  980MOL0     C29280   5.558   3.286   4.039 -0.0876  0.0878  0.3722
  980MOL0     C29281   5.687   3.268   3.984 -0.2554 -0.0016 -0.0081
  980MOL0     C29282   6.129   3.360   3.981  0.1644  0.3717 -0.4739
  980MOL0     C29283   6.238   3.406   4.052 -0.5999  0.0158 -0.0252
  980MOL0     C29284   6.366   3.387   4.000 -1.1836  0.3624 -0.8543
  980MOL0     C29285   6.390   3.318   3.889  0.2786  0.2025  1.1340
  980MOL0     O29286   6.513   3.291   3.855 -0.1072 -0.2254  0.6668
  980MOL0     C29287   6.539   3.258   3.714  0.0199 -0.5075  0.0653
  980MOL0     C29288   6.690   3.284   3.700 -0.2217  0.2947 -0.0019
  980MOL0     C29289   6.714   3.292   3.547  0.4276  0.0314  0.6038
  980MOL0     C29290   6.861   3.282   3.522 -0.6066 -0.4364 -0.2449
  980MOL0     C29291   6.872   3.264   3.373  0.6397 -0.5686  0.6161
  980MOL0     C29292   6.882   3.246   3.252 -0.0807  0.3529 -0.3978
  980MOL0     C29293   6.280   3.266   3.819  0.3058 -0.3107 -0.6987
  980MOL0     C29294   6.148   3.287   3.865 -0.2903 -0.6288 -0.3141
  980MOL0     H29295   5.794   3.581   3.994  1.4043 -2.2303 -2.9841
  980MOL0     H29296   5.567   3.628   4.074  1.3052  0.5260 -3.1738
  980MOL0     H29297   5.343   3.621   4.008 -0.1166  0.4396  0.6770
  980MOL0     H29298   5.381   3.624   4.176  0.3994  0.3704 -0.5125
  980MOL0     H29299   5.126   3.496   4.072 -3.3729 -0.2289  0.9865
  980MOL0     H29300   5.122   3.672   4.112 -0.7292 -0.9183 -1.3052
  980MOL0     H29301   5.204   3.597   4.344  1.7811 -1.9750  1.0408
  980MOL0     H29302   5.190   3.437   4.284  3.8832  2.2149  2.0414
  980MOL0     H29303   4.936   3.624   4.254  1.3500  0.0516 -0.6225
  980MOL0     H29304   4.945   3.446   4.265 -0.8680 -0.1933  0.3589
  980MOL0     H29305   5.052   3.627   4.482 -1.3041  1.0924 -2.3362
  980MOL0     H29306   5.007   3.465   4.518 -1.8235  0.5993  2.0672
  980MOL0     H29307   4.764   3.502   4.454 -0.5952  0.4808 -0.1509
  980MOL0     H29308   4.802   3.668   4.414  1.2679 -0.6922 -0.5439
  980MOL0     H29309   4.834   3.541   4.697  0.9660 -1.4408 -1.4404
  980MOL0     H29310   4.889   3.702   4.645 -0.2306  0.0887 -0.6121
  980MOL0     H29311   4.651   3.760   4.585 -2.0460 -0.3045  0.5579
  980MOL0     H29312   4.690   3.720   4.759  1.2083 -0.9508  0.3633
  980MOL0     H29313   4.511   3.585   4.429 -3.5007  2.3114  0.3703
  980MOL0     H29314   4.277   3.281   4.536  2.1501 -1.8932 -0.5008
  980MOL0     H29315   4.365   3.331   4.398  0.6119  1.7821  0.4397
  980MOL0     H29316   4.207   3.532   4.372 -2.0350  0.6751  0.0469
  980MOL0     H29317   4.136   3.511   4.534 -0.7773 -2.3734  0.5455
  980MOL0     H29318   4.126   3.314   4.309  1.0211  0.7740  1.6233
  980MOL0     H29319   4.059   3.275   4.454 -0.0252 -0.6313 -1.3851
  980MOL0     H29320   3.909   3.488   4.456 -3.1518 -1.2179  0.6038
  980MOL0     H29321   3.870   3.348   4.361  0.9249 -0.2919 -2.4750
  980MOL0     H29322   3.690   3.426   4.293 -0.1118 -0.3690  0.1300
  980MOL0     H29323   3.492   3.548   4.232  0.3714  1.7655  2.8587
  980MOL0     H29324   3.460   4.169   4.243  1.6431  0.6007 -1.3924
  980MOL0     H29325   3.297   4.341   4.179 -0.1720  0.2673  0.1371
  980MOL0     H29326   2.913   4.206   4.028 -1.2224  0.4510 -0.7805
  980MOL0     H29327   2.959   4.237   3.866  0.6428 -1.2646  0.4696
  980MOL0     H29328   2.783   4.384   3.997  1.9018 -0.1312  4.8872
  980MOL0     H29329   2.878   4.426   3.855  0.6109  1.0399  0.4423
  980MOL0     H29330   3.016   4.575   3.984  0.1591 -1.0671 -0.3335
  980MOL0     H29331   2.950   4.526   4.140  0.6465  2.7045  0.1566
  980MOL0     H29332   2.815   4.665   3.908  4.2189 -1.3432 -0.4084
  980MOL0     H29333   2.729   4.642   4.058 -0.3034 -0.5565  0.4957
  980MOL0     H29334   2.971   4.817   4.037  1.2685  1.0299  2.3701
  980MOL0     H29335   2.900   4.764   4.188 -1.8220 -0.2986  0.4476
  980MOL0     H29336   2.689   4.888   4.152 -3.5562  1.7907 -2.5575
  980MOL0     H29337   2.713   4.887   3.987  0.5121  0.6181 -0.3850
  980MOL0     H29338   2.870   5.073   4.183  2.4851  3.5941 -2.5655
  980MOL0     H29339   2.893   5.071   4.004 -1.1744  0.4345 -2.1071
  980MOL0     H29340   2.644   5.122   3.973 -1.1588 -1.8061  1.0036
  980MOL0     H29341   2.720   5.252   4.068  0.0084  0.0763  0.3917
  980MOL0     H29342   3.113   4.076   3.894  0.6757 -4.4885  0.6340
  980MOL0     H29343   3.277   3.914   3.935 -1.0723 -2.0580  3.3390
  980MOL0     H29344   3.737   3.871   4.078  0.6144 -0.8685 -1.6981
  980MOL0     H29345   3.936   3.753   4.154  0.6223 -0.9728  2.0031
  980MOL0     H29346   5.498   3.196   4.050  1.4010 -0.9983 -0.0383
  980MOL0     H29347   5.719   3.168   3.955  1.2435  1.1992 -2.8980
  980MOL0     H29348   6.228   3.459   4.146 -3.2784 -1.9735  0.9446
  980MOL0     H29349   6.452   3.431   4.050  0.1747  1.6609 -4.0886
  980MOL0     H29350   6.487   3.320   3.640  2.1219  1.5592  0.2112
  980MOL0     H29351   6.506   3.154   3.703 -1.4673  0.0531 -1.1642
  980MOL0     H29352   6.718   3.379   3.745 -0.1690  1.6307 -2.6993
  980MOL0     H29353   6.743   3.198   3.742 -1.4363 -0.6320 -0.2777
  980MOL0     H29354   6.673   3.382   3.501 -1.2616 -0.4665  1.0492
  980MOL0     H29355   6.672   3.201   3.502 -0.8642  0.9194 -0.0524
  980MOL0     H29356   6.907   3.371   3.565 -3.7440  1.1167  0.1476
  980MOL0     H29357   6.911   3.204   3.581  0.4111  1.2258  1.1717
  980MOL0     H29358   6.885   3.211   3.151  0.6713 -2.0568  0.3767
  980MOL0     H29359   6.280   3.204   3.729 -3.4877 -2.8467  0.8140
  980MOL0     H29360   6.064   3.236   3.819  0.2617 -2.6040  0.7394
  981MOL0     O29361   1.322   6.080   5.011 -0.5219 -0.3588  0.0297
  981MOL0     C29362   1.372   6.170   5.080  0.4689  0.5383 -0.2340
  981MOL0     O29363   1.322   6.217   5.196 -0.1399 -0.4071 -0.0988
  981MOL0     C29364   1.207   6.160   5.244 -0.5763  0.2827  0.1374
  981MOL0     C29365   1.087   6.193   5.189  0.5148  0.0664  0.0743
  981MOL0     C29366   0.968   6.132   5.230 -0.5683 -0.3609  0.6103
  981MOL0     C29367   0.974   6.038   5.335  0.7812 -0.2626 -0.3400
  981MOL0     O29368   0.861   5.973   5.383  0.0901 -0.5280  0.4102
  981MOL0     C29369   0.741   5.969   5.295 -0.7803  0.3264 -0.9171
  981MOL0     C29370   0.640   5.860   5.342  0.2835 -0.0820 -0.2176
  981MOL0     C29371   0.496   5.887   5.283 -0.1272  0.2636 -0.4732
  981MOL0     C29372   0.488   5.861   5.131 -1.0873  0.0126  0.0586
  981MOL0     C29373   0.340   5.865   5.085 -1.1515  0.4193 -0.6101
  981MOL0     C29374   0.271   6.003   5.066 -0.1266  0.1963  0.0977
  981MOL0     C29375   0.126   6.000   5.012 -0.2188  0.0257 -0.6418
  981MOL0     C29376   0.124   5.940   4.873 -0.2812 -0.0588 -1.4959
  981MOL0     N29377  -0.015   5.926   4.826  0.3667 -0.2083  0.2755
  981MOL0     C29378  -0.134   5.985   4.857  0.0511  0.4172  0.3580
  981MOL0     C29379  -0.228   5.915   4.792  0.2303  0.5200 -0.0540
  981MOL0     C29380  -0.376   5.943   4.813 -0.7908 -0.1534 -0.7579
  981MOL0     C29381  -0.426   5.930   4.961  0.5519 -0.5958 -0.3028
  981MOL0     C29382  -0.416   5.789   5.015  0.0766 -0.5801 -0.2597
  981MOL0     C29383  -0.557   5.736   5.036  0.7637  0.1123 -0.1092
  981MOL0     O29384  -0.588   5.671   4.918 -0.1181 -0.2548  0.6043
  981MOL0     C29385  -0.718   5.662   4.897  0.7113  0.2432 -0.3876
  981MOL0     C29386  -0.814   5.598   4.987  0.3615 -0.8785  0.1724
  981MOL0     C29387  -0.956   5.600   4.948 -0.4218  1.1001 -0.2015
  981MOL0     C29388  -1.002   5.671   4.835  0.2940 -0.0979  0.3745
  981MOL0     C29389  -1.146   5.679   4.801 -0.5701  0.0054  0.5555
  981MOL0     O29390  -1.175   5.772   4.705  0.1049  0.3929 -0.3827
  981MOL0     C29391  -1.306   5.775   4.668  0.2161  0.5674  0.2384
  981MOL0     C29392  -1.334   5.768   4.532 -0.2940 -0.9179  0.6844
  981MOL0     C29393  -1.467   5.768   4.483  0.0195 -0.0823  0.4398
  981MOL0     C29394  -1.566   5.779   4.567  0.6257 -0.8194 -1.5866
  981MOL0     O29395  -1.689   5.782   4.516  0.6202 -0.0479  1.1274
  981MOL0     C29396  -1.762   5.653   4.512 -0.2997 -0.6210 -0.1393
  981MOL0     C29397  -1.917   5.689   4.478  0.6670  1.1554  0.0073
  981MOL0     C29398  -2.007   5.559   4.445 -0.3412 -0.0599 -0.3533
  981MOL0     C29399  -2.116   5.587   4.347  0.1981 -0.0879  0.1275
  981MOL0     C29400  -2.169   5.456   4.270  0.8432  0.2944 -0.2374
  981MOL0     C29401  -2.302   5.485   4.200 -0.3413  0.0511  0.1179
  981MOL0     C29402  -2.357   5.363   4.127 -0.2096 -0.1605  0.2551
  981MOL0     C29403  -2.504   5.394   4.069  0.1107  0.4474 -1.2228
  981MOL0    Cl29404  -2.515   5.460   3.907  0.1516 -0.2121  0.6427
  981MOL0     C29405  -1.542   5.797   4.711  0.0445 -0.2955  1.0505
  981MOL0     C29406  -1.411   5.790   4.763  0.3623 -0.4971  0.6381
  981MOL0     O29407  -1.226   5.609   4.868 -0.0870 -0.2596  0.3159
  981MOL0     C29408  -0.907   5.734   4.756 -0.3790  0.0945  0.2757
  981MOL0     C29409  -0.773   5.715   4.780  0.2458 -0.1810  0.0274
  981MOL0     N29410  -0.169   5.813   4.721  0.1993  0.8565  0.1861
  981MOL0     N29411  -0.045   5.821   4.745 -0.1151 -0.2232 -0.2503
  981MOL0     C29412   1.096   6.007   5.398 -0.3135  0.9796  0.8699
  981MOL0     C29413   1.216   6.065   5.351 -0.1873  0.6142 -0.1480
  981MOL0     C29414   1.486   6.243   5.028 -0.1495  0.3204  0.6318
  981MOL0     C29415   1.511   6.377   5.071 -0.3153 -0.3117  0.1260
  981MOL0     C29416   1.621   6.443   5.005  0.1711  0.7972 -0.6065
  981MOL0     C29417   1.705   6.381   4.912  0.5303  0.1641 -1.1116
  981MOL0     O29418   1.817   6.441   4.844 -0.2926  0.0258 -0.2652
  981MOL0     C29419   1.847   6.579   4.873 -0.4806  0.0064 -0.7656
  981MOL0     C29420   1.970   6.641   4.808  0.2648 -0.6699  0.5932
  981MOL0     C29421   1.981   6.626   4.654  0.5713 -0.6177 -1.0666
  981MOL0     C29422   2.078   6.516   4.613  0.2450  0.6264 -0.6835
  981MOL0     C29423   2.074   6.503   4.472  0.0945 -0.7883  0.0775
  981MOL0     C29424   2.104   6.478   4.355  0.6693  0.0162  0.2154
  981MOL0     C29425   1.667   6.251   4.872 -0.1579 -0.4450 -0.1188
  981MOL0     C29426   1.565   6.176   4.929 -0.2000 -1.0594  0.3168
  981MOL0     H29427   1.077   6.263   5.106  0.0756 -2.2264 -1.9245
  981MOL0     H29428   0.876   6.148   5.174  1.0595  2.0461 -1.6211
  981MOL0     H29429   0.762   5.946   5.190 -0.1839  0.3452 -0.8024
  981MOL0     H29430   0.689   6.066   5.298 -1.1526  0.1113 -0.1329
  981MOL0     H29431   0.628   5.860   5.451  0.2397 -0.4865 -0.2199
  981MOL0     H29432   0.680   5.761   5.317 -1.9712 -1.0565 -0.1798
  981MOL0     H29433   0.462   5.987   5.308  3.9071  1.7115 -0.1297
  981MOL0     H29434   0.428   5.815   5.331 -0.8675  0.9658 -0.4420
  981MOL0     H29435   0.547   5.939   5.083  1.8107 -0.7747  2.0989
  981MOL0     H29436   0.534   5.767   5.098 -1.8156 -0.1115 -0.6318
  981MOL0     H29437   0.282   5.806   5.156  1.2939 -1.5188 -0.0875
  981MOL0     H29438   0.332   5.814   4.988 -2.0059  2.2585 -1.5645
  981MOL0     H29439   0.327   6.064   4.994  3.8582 -1.3014  1.6741
  981MOL0     H29440   0.279   6.070   5.152 -1.1609  1.3088 -0.6327
  981MOL0     H29441   0.069   5.943   5.087 -0.1021  1.2289  0.3893
  981MOL0     H29442   0.094   6.104   5.003  0.4714  0.7852  3.6018
  981MOL0     H29443   0.168   5.840   4.874  0.8840  0.4388 -0.5685
  981MOL0     H29444   0.171   6.010   4.803 -0.4533  0.3142 -1.2395
  981MOL0     H29445  -0.148   6.063   4.931 -0.5030 -0.9089  1.7113
  981MOL0     H29446  -0.441   5.877   4.755  1.0939 -3.4092  0.6112
  981MOL0     H29447  -0.391   6.046   4.778 -2.0880 -0.3420 -0.8352
  981MOL0     H29448  -0.528   5.967   4.976  1.8482  2.8928  0.8684
  981MOL0     H29449  -0.374   5.996   5.031  0.0181 -0.8128  0.3056
  981MOL0     H29450  -0.360   5.719   4.952  2.1233  1.9350 -1.4367
  981MOL0     H29451  -0.353   5.795   5.104 -0.8254  0.8501  0.3141
  981MOL0     H29452  -0.637   5.807   5.058 -0.5080 -1.7676  1.6740
  981MOL0     H29453  -0.550   5.668   5.122 -1.6033  1.0049  0.8770
  981MOL0     H29454  -0.788   5.548   5.080 -0.8055  1.2536  1.7598
  981MOL0     H29455  -1.031   5.557   5.014  0.1018 -1.5964 -1.2247
  981MOL0     H29456  -1.252   5.754   4.463  0.1786 -0.8016  1.2122
  981MOL0     H29457  -1.484   5.754   4.377 -0.6740  0.4474  0.4729
  981MOL0     H29458  -1.745   5.602   4.607  0.9994 -1.2324 -0.6713
  981MOL0     H29459  -1.710   5.588   4.440  2.1756  0.0311  0.9456
  981MOL0     H29460  -1.907   5.748   4.387  1.8027 -1.8663 -1.9889
  981MOL0     H29461  -1.957   5.747   4.561 -2.8253  0.9943 -1.3970
  981MOL0     H29462  -2.055   5.536   4.541 -2.7250  2.9307 -0.7013
  981MOL0     H29463  -1.939   5.481   4.408 -0.2687  0.3888 -1.1901
  981MOL0     H29464  -2.198   5.640   4.396 -0.2305 -0.3172 -0.3204
  981MOL0     H29465  -2.081   5.656   4.270 -1.0312 -0.9649 -1.2952
  981MOL0     H29466  -2.201   5.379   4.341  0.2342  0.6619 -0.1115
  981MOL0     H29467  -2.089   5.411   4.209 -1.0429 -1.9951 -1.1740
  981MOL0     H29468  -2.287   5.567   4.130 -0.2981  0.0482  0.1242
  981MOL0     H29469  -2.377   5.505   4.277  1.3330 -1.8373  2.3882
  981MOL0     H29470  -2.291   5.323   4.050 -2.2258 -0.5183 -1.3659
  981MOL0     H29471  -2.367   5.289   4.206  1.5800 -1.1742 -0.4165
  981MOL0     H29472  -2.557   5.465   4.134 -0.6605 -2.2765  1.3708
  981MOL0     H29473  -2.563   5.302   4.063 -0.4109  0.3878  2.2669
  981MOL0     H29474  -1.632   5.813   4.769 -0.2605  2.8206 -0.1360
  981MOL0     H29475  -1.411   5.796   4.871 -2.3654 -0.3737  0.6839
  981MOL0     H29476  -0.946   5.786   4.668 -1.8007 -0.9513  0.2465
  981MOL0     H29477  -0.695   5.760   4.720 -0.7635  1.4656 -0.1293
  981MOL0     H29478   1.097   5.941   5.485  1.0118  1.2934  1.1030
  981MOL0     H29479   1.311   6.041   5.396 -1.2677 -1.9009  0.9899
  981MOL0     H29480   1.446   6.437   5.134 -0.9312 -0.6432 -0.1825
  981MOL0     H29481   1.647   6.544   5.035  4.1217 -0.7228  2.0716
  981MOL0     H29482   1.858   6.591   4.981 -1.2705 -0.8548 -0.5749
  981MOL0     H29483   1.765   6.645   4.841  0.3396  1.8055  0.6584
  981MOL0     H29484   1.957   6.748   4.826  0.0027 -0.9342  2.1739
  981MOL0     H29485   2.055   6.610   4.870 -1.3786 -1.2625  2.6746
  981MOL0     H29486   2.027   6.717   4.613 -1.7294  1.3212  0.4172
  981MOL0     H29487   1.882   6.608   4.613 -1.6731  0.5408  3.2764
  981MOL0     H29488   2.176   6.543   4.652 -1.0360  0.1338  3.3589
  981MOL0     H29489   2.047   6.421   4.659  1.6634 -0.3861 -1.7212
  981MOL0     H29490   2.111   6.458   4.250  0.6717  0.2129  0.1770
  981MOL0     H29491   1.728   6.193   4.803 -0.9157 -0.1831 -1.0322
  981MOL0     H29492   1.542   6.079   4.886  2.4617 -0.4477 -2.8459
  982MOL0     O29493   5.154   5.041   2.752  0.0058 -0.6550  0.2422
  982MOL0     C29494   5.213   4.949   2.685  0.1326  0.7527  0.4274
  982MOL0     O29495   5.155   4.883   2.580 -0.0009  0.0986  0.2624
  982MOL0     C29496   5.022   4.890   2.578  0.5638  0.0710  0.7989
  982MOL0     C29497   4.971   4.907   2.445  0.9171  0.0369 -0.4023
  982MOL0     C29498   4.838   4.922   2.416  0.2606  1.0292 -0.0946
  982MOL0     C29499   4.744   4.915   2.524 -0.5081  0.2293 -0.5608
  982MOL0     O29500   4.606   4.931   2.504  0.2847  0.3063  0.6863
  982MOL0     C29501   4.557   4.976   2.376 -0.8181  0.6188 -0.6085
  982MOL0     C29502   4.420   5.035   2.389  0.2828 -0.1056 -0.9052
  982MOL0     C29503   4.390   5.162   2.309  0.5248  0.3829  0.1196
  982MOL0     C29504   4.260   5.225   2.360  0.6367  0.6165  0.4396
  982MOL0     C29505   4.272   5.353   2.446  0.0249  0.3479  0.5061
  982MOL0     C29506   4.359   5.462   2.385 -0.3648 -0.1886 -0.2280
  982MOL0     C29507   4.336   5.594   2.462  0.7275  0.3958 -0.3318
  982MOL0     C29508   4.407   5.592   2.598  0.3795  0.4118  0.0297
  982MOL0     N29509   4.367   5.714   2.671 -0.4176  0.0357 -0.5367
  982MOL0     C29510   4.261   5.716   2.755 -0.0511  0.9433  0.3233
  982MOL0     C29511   4.266   5.841   2.806 -1.2040 -0.9325  0.2451
  982MOL0     C29512   4.176   5.908   2.908  0.1655 -1.5824  0.0037
  982MOL0     C29513   4.034   5.939   2.844 -0.4441 -0.5325 -0.6669
  982MOL0     C29514   3.937   6.006   2.945 -1.1353 -0.1776  0.0162
  982MOL0     C29515   3.955   6.156   2.983 -0.0296 -0.3719  0.4230
  982MOL0     O29516   3.954   6.245   2.867  0.2253  0.1327 -0.3305
  982MOL0     C29517   3.859   6.228   2.769  0.3504  0.0520 -0.5549
  982MOL0     C29518   3.726   6.197   2.795 -0.1613 -1.3264 -0.1725
  982MOL0     C29519   3.630   6.218   2.694 -0.0505  0.0413  0.6208
  982MOL0     C29520   3.672   6.239   2.565  0.0982  0.3901 -0.3149
  982MOL0     C29521   3.583   6.247   2.458  0.4667 -0.0824 -0.9149
  982MOL0     O29522   3.455   6.250   2.493 -0.1365 -0.4642  0.2073
  982MOL0     C29523   3.366   6.265   2.381 -0.1426  0.2548 -0.4556
  982MOL0     C29524   3.279   6.156   2.341 -0.4741 -0.2637  0.6577
  982MOL0     C29525   3.181   6.164   2.244 -0.6942 -0.2222  0.2981
  982MOL0     C29526   3.164   6.285   2.178 -0.3263 -0.2922  0.4898
  982MOL0     O29527   3.066   6.306   2.088  0.3899 -0.1997  0.0432
  982MOL0     C29528   2.939   6.250   2.123  0.4406 -0.4144 -0.6596
  982MOL0     C29529   2.822   6.324   2.064  0.0390 -0.4422  0.1553
  982MOL0     C29530   2.680   6.276   2.100  0.5487  0.2496 -0.1073
  982MOL0     C29531   2.582   6.330   2.000  0.1312  0.0484 -0.1765
  982MOL0     C29532   2.437   6.319   2.041  0.4925  0.2303 -0.5657
  982MOL0     C29533   2.323   6.354   1.944 -0.3232 -0.2243 -0.0789
  982MOL0     C29534   2.190   6.364   2.013  0.2448  0.1244 -0.6440
  982MOL0     C29535   2.088   6.423   1.905  0.4313 -0.4241  0.1120
  982MOL0    Cl29536   1.939   6.443   1.998 -0.1811 -0.0359 -0.3034
  982MOL0     C29537   3.243   6.399   2.224 -0.1473  0.8814  0.2660
  982MOL0     C29538   3.344   6.388   2.314 -0.4961 -0.7683 -0.1507
  982MOL0     O29539   3.625   6.239   2.339  0.0910  0.2590 -0.3454
  982MOL0     C29540   3.811   6.230   2.541  1.3500  0.7767 -0.2643
  982MOL0     C29541   3.901   6.229   2.646  0.0999  0.0169 -0.0405
  982MOL0     N29542   4.378   5.910   2.757 -0.4354 -0.0661 -0.2874
  982MOL0     N29543   4.424   5.835   2.663  0.1180  0.7389  0.7382
  982MOL0     C29544   4.786   4.885   2.651  0.1917 -0.6973 -0.8334
  982MOL0     C29545   4.922   4.874   2.686 -0.4306 -0.9829  1.0886
  982MOL0     C29546   5.358   4.929   2.717  0.0959 -0.2706  0.5588
  982MOL0     C29547   5.420   4.815   2.655  0.2598 -0.3261  1.0890
  982MOL0     C29548   5.556   4.786   2.684 -0.3932 -0.3606 -0.1633
  982MOL0     C29549   5.635   4.864   2.774 -0.3757  0.9072 -0.1312
  982MOL0     O29550   5.761   4.840   2.825 -0.3035 -0.7942  0.3080
  982MOL0     C29551   5.845   4.735   2.778 -0.6411  0.1339  0.2333
  982MOL0     C29552   5.877   4.640   2.898  0.2081  0.4040 -0.0165
  982MOL0     C29553   6.016   4.653   2.962  0.1085 -0.6049  0.2175
  982MOL0     C29554   6.015   4.579   3.093 -0.9803  0.0502 -0.8849
  982MOL0     C29555   6.142   4.575   3.165  0.1721  1.4037 -0.0829
  982MOL0     C29556   6.254   4.574   3.206  0.5445  0.0141  0.1091
  982MOL0     C29557   5.566   4.960   2.838  0.5069  0.1223 -0.9745
  982MOL0     C29558   5.432   5.002   2.802  0.0446 -0.3982 -0.0187
  982MOL0     H29559   5.036   4.926   2.360  0.6205  2.1903 -0.2165
  982MOL0     H29560   4.820   4.948   2.312  0.6138  0.1416 -0.3838
  982MOL0     H29561   4.546   4.892   2.307  0.0395  0.6215 -0.7648
  982MOL0     H29562   4.613   5.054   2.324 -0.2651  0.2187 -0.6254
  982MOL0     H29563   4.415   5.058   2.496 -0.6589  0.4752 -1.0610
  982MOL0     H29564   4.345   4.959   2.367  0.7573 -1.2891  1.2571
  982MOL0     H29565   4.373   5.134   2.204  0.2482  0.3190  0.1814
  982MOL0     H29566   4.475   5.229   2.298  0.0273  0.9114 -0.5914
  982MOL0     H29567   4.209   5.260   2.269 -2.4924 -0.6909  1.5631
  982MOL0     H29568   4.192   5.150   2.401  0.3766  0.9405  0.6023
  982MOL0     H29569   4.305   5.334   2.548 -0.2110  2.5857  1.0413
  982MOL0     H29570   4.169   5.389   2.442  0.3380  1.2016 -0.2971
  982MOL0     H29571   4.337   5.483   2.280  0.6597  0.4078 -0.3370
  982MOL0     H29572   4.464   5.432   2.392 -0.9062 -1.9265  1.3287
  982MOL0     H29573   4.373   5.677   2.402  2.1311  0.1647  0.1825
  982MOL0     H29574   4.230   5.612   2.484  0.7432  0.6898 -0.4953
  982MOL0     H29575   4.516   5.596   2.583  0.6284 -0.8828  1.2796
  982MOL0     H29576   4.401   5.498   2.652  1.8375 -0.2970 -0.9777
  982MOL0     H29577   4.186   5.638   2.760  1.5614 -0.6899 -0.2929
  982MOL0     H29578   4.229   6.001   2.930 -1.1513 -0.7539 -0.2063
  982MOL0     H29579   4.167   5.846   2.998 -0.1397 -1.8049 -0.1772
  982MOL0     H29580   3.984   5.844   2.823  0.2375 -0.9304 -0.5271
  982MOL0     H29581   4.050   5.994   2.751 -0.2390 -0.2684 -0.4788
  982MOL0     H29582   3.834   5.995   2.908 -0.8248  0.8132 -1.2208
  982MOL0     H29583   3.944   5.952   3.039 -0.2675 -1.5477 -0.7961
  982MOL0     H29584   4.043   6.166   3.048  0.0057 -2.2470  0.7219
  982MOL0     H29585   3.871   6.187   3.046 -1.4676  0.8056 -1.9573
  982MOL0     H29586   3.684   6.202   2.895 -1.9389  0.4665 -0.9281
  982MOL0     H29587   3.524   6.218   2.716 -0.1810  3.2319  0.4657
  982MOL0     H29588   3.294   6.072   2.407  1.1191 -0.4351  0.1074
  982MOL0     H29589   3.117   6.078   2.228 -0.7070 -0.4203  1.3295
  982MOL0     H29590   2.918   6.253   2.230  2.1668  0.2818 -0.3133
  982MOL0     H29591   2.939   6.144   2.095  4.6246 -0.5581 -0.7385
  982MOL0     H29592   2.828   6.320   1.955 -2.0706  0.7377 -0.0473
  982MOL0     H29593   2.826   6.428   2.095 -0.3774  0.3035 -2.1179
  982MOL0     H29594   2.659   6.314   2.200  1.7815 -2.1601  1.1672
  982MOL0     H29595   2.685   6.167   2.094  0.3948  0.2951 -1.2050
  982MOL0     H29596   2.596   6.438   2.005 -3.0227  0.5720 -0.5077
  982MOL0     H29597   2.598   6.281   1.904  1.5097 -0.4541  0.2783
  982MOL0     H29598   2.419   6.387   2.125 -0.0103  0.1195 -0.5784
  982MOL0     H29599   2.414   6.221   2.083 -0.5451 -0.7069 -3.1302
  982MOL0     H29600   2.317   6.276   1.867  0.8798 -0.3522 -0.0637
  982MOL0     H29601   2.345   6.449   1.894  0.8366  0.2500  1.2805
  982MOL0     H29602   2.171   6.268   2.061  0.8916  0.1842 -0.2535
  982MOL0     H29603   2.206   6.429   2.099  1.0418 -1.0694  0.1316
  982MOL0     H29604   2.069   6.352   1.824 -1.0393  0.4323 -0.3267
  982MOL0     H29605   2.131   6.514   1.862 -1.5723 -0.1067 -1.3393
  982MOL0     H29606   3.220   6.502   2.198  1.1714  1.0262 -0.4135
  982MOL0     H29607   3.415   6.469   2.326  1.4978 -1.4842 -4.6824
  982MOL0     H29608   3.844   6.244   2.438 -2.7413 -1.8241 -2.1880
  982MOL0     H29609   4.005   6.212   2.624 -0.0104 -0.6398 -0.0814
  982MOL0     H29610   4.720   4.881   2.737 -0.2855  2.2288 -0.9599
  982MOL0     H29611   4.961   4.842   2.782 -0.3951 -3.6225  0.2763
  982MOL0     H29612   5.366   4.747   2.589 -0.6250 -1.5407  2.9644
  982MOL0     H29613   5.595   4.708   2.620  0.4531  0.8975 -1.2527
  982MOL0     H29614   5.934   4.770   2.727 -1.0563  0.2454 -0.4234
  982MOL0     H29615   5.785   4.674   2.710  0.3061 -3.8051  2.6084
  982MOL0     H29616   5.793   4.649   2.967 -0.0809 -1.3018 -0.0963
  982MOL0     H29617   5.873   4.539   2.855  0.8146  1.6771 -3.4421
  982MOL0     H29618   6.042   4.759   2.971 -1.8131 -0.0332 -0.4706
  982MOL0     H29619   6.094   4.613   2.897  0.3075  0.1787 -0.0375
  982MOL0     H29620   5.930   4.608   3.156 -0.6723 -2.2237  0.7415
  982MOL0     H29621   5.997   4.475   3.063  0.8212  0.4341 -3.5901
  982MOL0     H29622   6.351   4.574   3.250 -0.4601 -0.5381  2.4501
  982MOL0     H29623   5.619   5.013   2.916 -0.6549 -0.3263  0.1572
  982MOL0     H29624   5.391   5.091   2.848 -0.9903 -1.2044  0.6519
  983MOL0     O29625  10.405   7.875   6.138  0.6326 -0.0044  0.2451
  983MOL0     C29626  10.488   7.890   6.224 -1.2144  0.4007  0.3824
  983MOL0     O29627  10.468   7.952   6.343  1.0797 -0.3473  0.2560
  983MOL0     C29628  10.341   8.001   6.368 -0.4147 -1.1372  0.3730
  983MOL0     C29629  10.319   8.142   6.356 -0.3211 -0.6669  0.0353
  983MOL0     C29630  10.189   8.204   6.369 -0.0946 -0.3432 -0.3167
  983MOL0     C29631  10.083   8.122   6.403  1.2848  0.5010  2.1999
  983MOL0     O29632   9.953   8.161   6.441  1.1195 -0.2785  0.0076
  983MOL0     C29633   9.921   8.303   6.446  0.0907 -0.2025 -0.2322
  983MOL0     C29634   9.774   8.325   6.508 -0.6541 -0.1765  0.0369
  983MOL0     C29635   9.772   8.267   6.650 -0.8964  0.2234  0.2347
  983MOL0     C29636   9.629   8.265   6.717 -0.2426 -0.1928 -0.1958
  983MOL0     C29637   9.578   8.409   6.754 -0.3380 -0.0691 -0.7057
  983MOL0     C29638   9.428   8.427   6.805  0.0014 -0.2225  0.0290
  983MOL0     C29639   9.371   8.570   6.777 -0.1762  0.9925  0.1717
  983MOL0     C29640   9.235   8.594   6.851 -0.4447  0.4257 -0.4365
  983MOL0     N29641   9.127   8.498   6.819  0.3004 -0.0511  0.0443
  983MOL0     C29642   9.037   8.450   6.910 -0.4388 -0.9211 -0.2564
  983MOL0     C29643   8.942   8.376   6.846 -0.0538  0.1787 -0.6909
  983MOL0     C29644   8.823   8.318   6.909 -0.1215 -0.8656 -0.8729
  983MOL0     C29645   8.789   8.186   6.846  0.4704 -0.2258  0.6719
  983MOL0     C29646   8.650   8.123   6.895  0.3897 -0.6195 -0.9545
  983MOL0     C29647   8.586   7.998   6.819 -0.5420  0.5538 -0.2841
  983MOL0     O29648   8.449   7.995   6.850 -0.0895 -0.0168 -0.3874
  983MOL0     C29649   8.380   7.877   6.864  0.3041 -0.9931  0.4089
  983MOL0     C29650   8.252   7.874   6.923 -0.4535 -0.2107 -0.0980
  983MOL0     C29651   8.167   7.770   6.917 -0.0129  0.2929  0.6398
  983MOL0     C29652   8.199   7.654   6.842 -0.3586 -0.7903  0.3426
  983MOL0     C29653   8.095   7.556   6.811  0.5452  0.2775 -1.3529
  983MOL0     O29654   7.978   7.615   6.808  0.0471  0.0760  0.2349
  983MOL0     C29655   7.873   7.547   6.760 -0.0666  0.5784 -0.3553
  983MOL0     C29656   7.767   7.520   6.849 -0.3967 -0.1061  0.6129
  983MOL0     C29657   7.652   7.457   6.808 -0.0512  1.2772 -0.0488
  983MOL0     C29658   7.635   7.417   6.672  0.9061 -0.8064  0.1035
  983MOL0     O29659   7.517   7.354   6.628 -0.0507 -0.5894  0.2101
  983MOL0     C29660   7.522   7.215   6.588  1.3110  0.0355 -0.0750
  983MOL0     C29661   7.414   7.188   6.486 -0.3552 -0.2817 -0.5240
  983MOL0     C29662   7.403   7.040   6.447  0.1274  0.1459 -0.8034
  983MOL0     C29663   7.282   7.019   6.361 -0.6733 -0.3555  0.1098
  983MOL0     C29664   7.284   6.885   6.294  0.1126  0.0110 -0.0123
  983MOL0     C29665   7.282   6.904   6.143 -1.0245  0.3893  0.1478
  983MOL0     C29666   7.413   6.983   6.094 -0.3991 -0.1639 -0.2683
  983MOL0     C29667   7.370   7.090   5.984  0.9776 -0.3630 -0.0053
  983MOL0    Cl29668   7.267   6.996   5.854  0.3392 -0.0517  0.1460
  983MOL0     C29669   7.738   7.453   6.581 -0.4626  1.3102  0.3742
  983MOL0     C29670   7.856   7.512   6.626  0.4670 -0.1746 -0.3667
  983MOL0     O29671   8.120   7.439   6.786  0.3546  0.4145  0.2638
  983MOL0     C29672   8.324   7.659   6.786 -0.6202  0.0458 -0.2279
  983MOL0     C29673   8.416   7.767   6.801 -0.2953 -0.4009  0.5240
  983MOL0     N29674   8.984   8.376   6.712  0.7468  0.0796 -0.1782
  983MOL0     N29675   9.096   8.443   6.703 -0.1208  0.7929 -0.4054
  983MOL0     C29676  10.102   7.986   6.412 -1.0603  0.0327  0.0655
  983MOL0     C29677  10.228   7.924   6.392  0.9332 -0.8224 -0.0403
  983MOL0     C29678  10.627   7.852   6.193  1.1716  0.9120 -0.1651
  983MOL0     C29679  10.656   7.816   6.065 -0.4685 -1.3317  0.1898
  983MOL0     C29680  10.786   7.780   6.023  0.4419  0.5375  0.1797
  983MOL0     C29681  10.892   7.783   6.110 -0.6398 -0.2666  0.5834
  983MOL0     O29682  11.022   7.760   6.063 -0.1954 -0.0260 -0.1197
  983MOL0     C29683  11.119   7.733   6.170  0.5565 -0.4910 -0.1063
  983MOL0     C29684  11.255   7.681   6.106  0.3071 -0.0840  0.0979
  983MOL0     C29685  11.305   7.789   6.008  0.8014  0.4084  0.4864
  983MOL0     C29686  11.434   7.749   5.931  0.7194  0.0247 -0.5895
  983MOL0     C29687  11.551   7.747   6.008  0.2714  0.5251  0.4435
  983MOL0     C29688  11.656   7.752   6.065  1.1739  0.0529  0.5450
  983MOL0     C29689  10.854   7.812   6.247 -0.3211  0.6113  0.1866
  983MOL0     C29690  10.720   7.831   6.289  0.0549  1.0020  0.5838
  983MOL0     H29691  10.398   8.214   6.338  0.8821 -1.3232  2.3707
  983MOL0     H29692  10.185   8.312   6.359  0.0640 -0.3960 -0.9420
  983MOL0     H29693   9.935   8.344   6.346  1.3242  0.3457  0.1502
  983MOL0     H29694   9.988   8.354   6.516  0.8989  0.5180 -1.5041
  983MOL0     H29695   9.698   8.275   6.448  0.2968 -0.3265 -1.0793
  983MOL0     H29696   9.748   8.431   6.513  0.2124  0.0696 -0.4186
  983MOL0     H29697   9.825   8.330   6.721 -3.3886  0.4234  2.0534
  983MOL0     H29698   9.818   8.167   6.652  2.1395  1.5324  0.7807
  983MOL0     H29699   9.556   8.218   6.651 -2.4311  1.1152  1.1558
  983MOL0     H29700   9.637   8.205   6.809 -0.5040  1.7221  1.1323
  983MOL0     H29701   9.588   8.464   6.660  1.3345 -0.6600 -0.8957
  983MOL0     H29702   9.638   8.455   6.832 -1.0279  2.0613 -1.3600
  983MOL0     H29703   9.414   8.390   6.907 -2.5490 -1.6427 -0.7517
  983MOL0     H29704   9.373   8.353   6.746 -1.7025  0.5883  0.5460
  983MOL0     H29705   9.441   8.648   6.810 -0.4717  1.7175 -0.8598
  983MOL0     H29706   9.366   8.581   6.668 -1.3847 -1.2981 -0.0412
  983MOL0     H29707   9.220   8.695   6.812  2.6635  1.9979  1.9015
  983MOL0     H29708   9.252   8.594   6.959 -1.1878  0.4286 -0.3178
  983MOL0     H29709   9.029   8.460   7.018 -2.4263 -2.6501 -0.1655
  983MOL0     H29710   8.745   8.393   6.895  0.5552 -0.0525 -0.4080
  983MOL0     H29711   8.846   8.306   7.015 -1.0765  1.0899 -0.4028
  983MOL0     H29712   8.869   8.112   6.846 -0.6326 -1.5068 -1.1701
  983MOL0     H29713   8.753   8.210   6.745 -1.3731  2.3822  1.8149
  983MOL0     H29714   8.656   8.102   7.003  1.9906  1.2692 -0.6289
  983MOL0     H29715   8.583   8.209   6.889  1.6924  0.7085  1.5597
  983MOL0     H29716   8.643   7.906   6.841  1.9733  2.2141  0.6224
  983MOL0     H29717   8.598   8.008   6.711  0.9095  0.9767 -0.1123
  983MOL0     H29718   8.201   7.965   6.956 -4.1817 -2.4322  0.8398
  983MOL0     H29719   8.069   7.786   6.961  0.5665  0.4817  1.8975
  983MOL0     H29720   7.766   7.554   6.952 -2.0465 -0.6598  0.7983
  983MOL0     H29721   7.571   7.427   6.874  0.1882  1.0375  0.1380
  983MOL0     H29722   7.512   7.149   6.675 -0.6831 -0.1631 -0.4117
  983MOL0     H29723   7.620   7.201   6.540  2.2693  0.9827  1.5154
  983MOL0     H29724   7.426   7.254   6.400  1.9726 -0.1889 -0.1990
  983MOL0     H29725   7.316   7.218   6.523 -0.2128  0.8674 -1.0258
  983MOL0     H29726   7.385   6.977   6.534  1.9861 -0.3838 -0.7513
  983MOL0     H29727   7.497   7.002   6.405  2.2899 -1.0864  4.4242
  983MOL0     H29728   7.190   7.025   6.419 -1.0050 -0.6570 -0.3857
  983MOL0     H29729   7.277   7.106   6.294 -0.1613 -0.4430 -0.0451
  983MOL0     H29730   7.211   6.809   6.327  0.9071 -0.5535  0.4850
  983MOL0     H29731   7.374   6.835   6.331 -1.9298 -1.0924  4.0283
  983MOL0     H29732   7.195   6.969   6.135 -1.6188 -0.5201 -1.1744
  983MOL0     H29733   7.261   6.811   6.090  0.2673 -0.3478  0.8810
  983MOL0     H29734   7.459   7.038   6.177 -1.2456 -2.3759  1.7752
  983MOL0     H29735   7.488   6.916   6.051 -1.1235 -1.2404  0.1097
  983MOL0     H29736   7.453   7.135   5.929  0.5887  0.8513  0.3706
  983MOL0     H29737   7.308   7.167   6.031 -1.5050 -1.4253 -1.3629
  983MOL0     H29738   7.734   7.410   6.481 -1.9962 -0.1714  1.0180
  983MOL0     H29739   7.931   7.543   6.555  2.4512 -2.1982  0.7089
  983MOL0     H29740   8.345   7.575   6.721 -0.7177 -0.0211 -0.1717
  983MOL0     H29741   8.510   7.747   6.751  0.0216 -0.6375  1.2067
  983MOL0     H29742  10.026   7.915   6.441 -1.1933  0.2746  0.3105
  983MOL0     H29743  10.241   7.818   6.407 -1.6755 -1.0410  1.1797
  983MOL0     H29744  10.584   7.835   5.987  0.0078  0.5487  0.1511
  983MOL0     H29745  10.808   7.738   5.925 -0.6442  0.7841 -0.1854
  983MOL0     H29746  11.089   7.647   6.230  3.2238  0.1179  2.3193
  983MOL0     H29747  11.141   7.818   6.235 -1.9693 -0.9997  1.5473
  983MOL0     H29748  11.326   7.660   6.186 -0.6454  0.1291  1.0271
  983MOL0     H29749  11.250   7.585   6.055  0.9173 -0.4815  0.7659
  983MOL0     H29750  11.325   7.884   6.058  1.3858  1.5473 -1.7618
  983MOL0     H29751  11.232   7.809   5.929  2.7614  0.0976 -1.5146
  983MOL0     H29752  11.420   7.657   5.872 -0.0270 -0.2781  0.0349
  983MOL0     H29753  11.439   7.834   5.863  0.6072  1.3402  0.9875
  983MOL0     H29754  11.736   7.755   6.136 -0.9010 -0.2759  3.0841
  983MOL0     H29755  10.927   7.806   6.327 -1.8862 -1.1348  1.5847
  983MOL0     H29756  10.692   7.835   6.394  1.5803  0.3278  1.0622
  984MOL0     O29757   2.465   2.421   6.624  0.1708  0.0854  0.7309
  984MOL0     C29758   2.457   2.456   6.739 -0.2388 -0.2860 -0.2453
  984MOL0     O29759   2.338   2.498   6.806 -0.1192  0.2593 -0.1509
  984MOL0     C29760   2.221   2.479   6.743 -0.0068 -0.7351 -0.1975
  984MOL0     C29761   2.121   2.394   6.788 -0.2935 -1.2633 -0.4452
  984MOL0     C29762   1.989   2.394   6.747  0.8382  0.1273 -0.4743
  984MOL0     C29763   1.948   2.488   6.653 -0.7007 -0.5200 -0.6345
  984MOL0     O29764   1.817   2.495   6.621 -0.6882  0.1834 -0.3098
  984MOL0     C29765   1.781   2.592   6.518  0.2915  0.1859 -0.8871
  984MOL0     C29766   1.635   2.581   6.482 -0.2882  0.0831 -0.4485
  984MOL0     C29767   1.563   2.703   6.547 -0.3262  0.0870  0.8922
  984MOL0     C29768   1.414   2.696   6.495 -0.3926 -0.2962 -0.8905
  984MOL0     C29769   1.309   2.763   6.581  0.4917 -0.9510  0.6006
  984MOL0     C29770   1.364   2.909   6.591 -0.0130  0.0461 -0.9062
  984MOL0     C29771   1.247   3.014   6.589 -1.1222  0.1746  0.0787
  984MOL0     C29772   1.131   3.004   6.691  0.0148  0.1381  0.4808
  984MOL0     N29773   1.060   2.877   6.705  0.4365 -0.8922  0.6743
  984MOL0     C29774   0.988   2.809   6.605  0.3021 -0.1746  0.5204
  984MOL0     C29775   0.964   2.684   6.654  0.8374  0.3308 -0.5082
  984MOL0     C29776   0.894   2.577   6.572 -0.1822 -0.4792 -0.3201
  984MOL0     C29777   0.988   2.454   6.586 -0.7049  0.4090 -0.5567
  984MOL0     C29778   0.954   2.360   6.699 -0.1916  1.2494 -0.4785
  984MOL0     C29779   0.815   2.290   6.689 -0.7479  0.6921 -0.6009
  984MOL0     O29780   0.785   2.254   6.554  0.1220 -0.3379 -0.5332
  984MOL0     C29781   0.663   2.285   6.510  0.5134  0.3670 -0.1020
  984MOL0     C29782   0.652   2.389   6.417  0.4812 -0.1367  0.2748
  984MOL0     C29783   0.517   2.422   6.363  0.5636 -0.5453 -0.0886
  984MOL0     C29784   0.397   2.368   6.422 -0.5874 -0.1332  0.4705
  984MOL0     C29785   0.258   2.422   6.385 -0.0489  0.9419 -0.4613
  984MOL0     O29786   0.147   2.364   6.451  0.2595 -0.7316  0.6047
  984MOL0     C29787   0.016   2.396   6.409  0.2427 -0.3563 -0.4829
  984MOL0     C29788  -0.082   2.345   6.498 -0.5591  0.3677 -0.2147
  984MOL0     C29789  -0.215   2.370   6.479 -0.5817 -0.0011 -0.1983
  984MOL0     C29790  -0.265   2.424   6.365 -0.9604 -0.0626 -1.0384
  984MOL0     O29791  -0.397   2.430   6.332 -0.1120  0.6553 -0.5890
  984MOL0     C29792  -0.492   2.469   6.431  0.5286  0.3069 -0.4720
  984MOL0     C29793  -0.632   2.486   6.364 -0.1481  0.0809 -0.0759
  984MOL0     C29794  -0.726   2.540   6.469  0.2319 -0.0402  0.0137
  984MOL0     C29795  -0.707   2.700   6.476 -0.3212 -0.1239 -0.3915
  984MOL0     C29796  -0.805   2.759   6.574  0.1138  0.3201  0.2834
  984MOL0     C29797  -0.959   2.719   6.552  0.6344  0.1283  0.1066
  984MOL0     C29798  -1.067   2.814   6.631  0.0278  0.4158 -0.2534
  984MOL0     C29799  -1.210   2.767   6.609 -0.5171  0.2286 -0.5149
  984MOL0    Cl29800  -1.330   2.838   6.721 -0.3261 -0.4942 -0.0434
  984MOL0     C29801  -0.163   2.473   6.280 -0.5429 -0.3758  0.1068
  984MOL0     C29802  -0.032   2.464   6.298 -0.1165  0.1618 -0.0433
  984MOL0     O29803   0.251   2.501   6.287 -0.6357  0.1042 -0.5163
  984MOL0     C29804   0.420   2.265   6.513  0.4650  0.1366  0.2226
  984MOL0     C29805   0.543   2.228   6.565 -0.1096  0.3698 -0.2794
  984MOL0     N29806   1.022   2.681   6.784 -0.1154 -0.1249  0.2333
  984MOL0     N29807   1.074   2.796   6.811  0.4606  0.7795 -0.3596
  984MOL0     C29808   2.043   2.580   6.605  0.0610  0.7597 -0.2425
  984MOL0     C29809   2.174   2.581   6.648 -0.9154  0.1897 -0.4112
  984MOL0     C29810   2.589   2.453   6.818  0.4749  0.2610  0.1534
  984MOL0     C29811   2.604   2.487   6.952 -0.2370 -0.2553 -1.0064
  984MOL0     C29812   2.728   2.488   7.023 -0.5243  0.3144 -1.0379
  984MOL0     C29813   2.842   2.448   6.961 -0.6451  1.0826  0.0568
  984MOL0     O29814   2.962   2.448   7.033 -0.6414  0.2295 -0.0572
  984MOL0     C29815   3.080   2.404   6.962 -0.4044 -1.0039 -0.1186
  984MOL0     C29816   3.204   2.452   7.027  0.5912 -0.2999  0.2520
  984MOL0     C29817   3.324   2.403   6.941 -0.3342 -0.2222 -1.2433
  984MOL0     C29818   3.460   2.414   7.016  0.0912  0.9306 -0.4924
  984MOL0     C29819   3.561   2.458   6.916  0.9842 -0.6001 -0.0838
  984MOL0     C29820   3.636   2.480   6.824  0.3690  0.4297  0.2089
  984MOL0     C29821   2.830   2.396   6.826  0.2631 -0.1352 -0.3376
  984MOL0     C29822   2.714   2.407   6.753  0.3301 -0.3453 -0.4972
  984MOL0     H29823   2.136   2.321   6.868 -1.3701  0.4070  1.3828
  984MOL0     H29824   1.930   2.314   6.791 -0.3932  0.9023 -0.6760
  984MOL0     H29825   1.840   2.575   6.427  1.2556 -0.7456 -0.1028
  984MOL0     H29826   1.804   2.695   6.548 -1.6700  1.2890 -2.8778
  984MOL0     H29827   1.590   2.483   6.504  3.8647 -1.6515  1.2871
  984MOL0     H29828   1.615   2.598   6.375 -1.3066  0.0736 -0.2754
  984MOL0     H29829   1.616   2.797   6.529 -0.9872  0.1785 -0.7662
  984MOL0     H29830   1.567   2.690   6.656 -0.8930 -2.8309  0.6526
  984MOL0     H29831   1.410   2.729   6.391 -0.2830  0.4238 -0.6741
  984MOL0     H29832   1.385   2.590   6.503  0.7741 -0.6134 -0.7659
  984MOL0     H29833   1.284   2.714   6.675  0.1905 -0.8449  0.5757
  984MOL0     H29834   1.222   2.763   6.514  2.3618 -1.6035 -1.9816
  984MOL0     H29835   1.443   2.937   6.520 -1.0870 -1.0416 -2.6036
  984MOL0     H29836   1.411   2.910   6.689  2.3108  0.8233 -1.9559
  984MOL0     H29837   1.304   3.106   6.606 -0.8039  0.0089 -0.0651
  984MOL0     H29838   1.223   3.016   6.482  2.5386  3.5045 -0.9351
  984MOL0     H29839   1.075   3.089   6.650 -0.5695 -1.0770 -1.3970
  984MOL0     H29840   1.166   3.026   6.792  0.5764  0.9955  0.1193
  984MOL0     H29841   0.971   2.843   6.504 -1.5830  1.3881  1.3173
  984MOL0     H29842   0.871   2.614   6.471 -0.1660 -1.7986 -0.8226
  984MOL0     H29843   0.803   2.547   6.626 -0.1354  2.3421  1.5114
  984MOL0     H29844   1.094   2.480   6.594 -0.9081  0.8711  1.0120
  984MOL0     H29845   0.979   2.404   6.489 -0.1056 -1.6648  0.3987
  984MOL0     H29846   1.035   2.286   6.695 -1.8038 -0.5649 -1.5674
  984MOL0     H29847   0.959   2.414   6.793  0.1891 -0.5115  0.5537
  984MOL0     H29848   0.742   2.354   6.738 -0.0210 -1.3074  3.5136
  984MOL0     H29849   0.809   2.194   6.742 -1.1355  0.3008 -1.3363
  984MOL0     H29850   0.745   2.418   6.370  0.5277 -1.0909 -0.2620
  984MOL0     H29851   0.503   2.500   6.289 -0.0236 -0.3074  0.2626
  984MOL0     H29852  -0.050   2.271   6.570  2.2046 -1.0913 -2.7138
  984MOL0     H29853  -0.289   2.322   6.544 -0.9534  0.1325 -0.5175
  984MOL0     H29854  -0.458   2.562   6.478  1.6858  0.7405 -2.0464
  984MOL0     H29855  -0.488   2.399   6.515  2.1453  2.4415  1.3675
  984MOL0     H29856  -0.662   2.388   6.327 -0.3801  1.1357 -2.8806
  984MOL0     H29857  -0.614   2.554   6.281  1.4148 -1.2797 -0.8980
  984MOL0     H29858  -0.708   2.482   6.560  0.9682  0.7548  0.3934
  984MOL0     H29859  -0.827   2.524   6.429 -1.0858 -0.3417  3.1731
  984MOL0     H29860  -0.607   2.737   6.500  0.4501 -0.6954 -2.4954
  984MOL0     H29861  -0.717   2.729   6.371  1.3908 -0.5084 -0.6995
  984MOL0     H29862  -0.797   2.867   6.556  0.2428  0.0961 -1.0975
  984MOL0     H29863  -0.777   2.731   6.676  0.3106 -3.7601 -0.6985
  984MOL0     H29864  -0.976   2.616   6.584  2.2828 -0.1576  0.1704
  984MOL0     H29865  -0.981   2.744   6.448  0.8648  2.0931  0.4787
  984MOL0     H29866  -1.045   2.807   6.738  0.3859  1.2403 -0.2730
  984MOL0     H29867  -1.046   2.918   6.606 -0.6378  0.2437 -1.6278
  984MOL0     H29868  -1.216   2.658   6.609 -1.1087  0.2274  1.3570
  984MOL0     H29869  -1.233   2.780   6.503  2.7590 -1.4118 -1.5560
  984MOL0     H29870  -0.204   2.520   6.191  0.6476  0.5713  0.0373
  984MOL0     H29871   0.024   2.516   6.222  3.2412 -0.2889  1.9471
  984MOL0     H29872   0.337   2.197   6.527  0.2005  0.2403 -0.7666
  984MOL0     H29873   0.554   2.149   6.639  1.5242  0.8692  0.0353
  984MOL0     H29874   2.010   2.661   6.540  1.0118 -1.0665 -3.1613
  984MOL0     H29875   2.248   2.649   6.607  0.3043 -0.0075  1.3668
  984MOL0     H29876   2.513   2.525   6.998  0.6941  1.0654 -0.1824
  984MOL0     H29877   2.731   2.522   7.126 -3.1027  0.7438 -1.0314
  984MOL0     H29878   3.069   2.450   6.863  1.4533  0.9499  0.5090
  984MOL0     H29879   3.079   2.296   6.945 -1.8385 -1.1304  0.6293
  984MOL0     H29880   3.185   2.560   7.028  0.5524 -0.2987  1.7785
  984MOL0     H29881   3.212   2.411   7.128 -2.6149  0.1166  0.7579
  984MOL0     H29882   3.328   2.448   6.842  2.8087 -0.8341 -1.5212
  984MOL0     H29883   3.321   2.294   6.932 -0.4516 -0.1599 -2.0447
  984MOL0     H29884   3.461   2.479   7.103  1.8572  1.3698 -0.7952
  984MOL0     H29885   3.491   2.319   7.061 -1.2753  0.6040 -0.1845
  984MOL0     H29886   3.693   2.515   6.740  2.5318 -1.9712  0.5754
  984MOL0     H29887   2.918   2.359   6.775  1.2894 -0.2927  1.4334
  984MOL0     H29888   2.701   2.381   6.648  1.9880 -1.4797 -0.4697
  985MOL0     O29889   5.518   4.085  10.220 -0.2065  0.2395  0.1423
  985MOL0     C29890   5.599   4.027  10.284  0.5139  0.6029 -0.6984
  985MOL0     O29891   5.566   3.927  10.378  0.6645 -0.8655  0.1859
  985MOL0     C29892   5.439   3.883  10.380  0.3086 -0.1450  0.2786
  985MOL0     C29893   5.405   3.798  10.268  1.4284  0.1486 -0.2489
  985MOL0     C29894   5.279   3.734  10.265 -0.0935  0.8293  0.4659
  985MOL0     C29895   5.190   3.755  10.374 -0.2314  0.2729  0.7814
  985MOL0     O29896   5.059   3.703  10.384 -0.3506  0.1083 -0.0383
  985MOL0     C29897   5.025   3.576  10.315  0.4948 -0.4225  0.4470
  985MOL0     C29898   4.879   3.532  10.321  0.0065  0.0545  0.5404
  985MOL0     C29899   4.835   3.465  10.466 -0.4168  0.3661  0.8048
  985MOL0     C29900   4.688   3.463  10.464 -0.2380  0.2329  0.2868
  985MOL0     C29901   4.642   3.413  10.601  0.0304 -0.1533  0.1174
  985MOL0     C29902   4.524   3.318  10.581  0.4199 -0.0437  0.4094
  985MOL0     C29903   4.462   3.273  10.706  0.3520  0.6511  1.3186
  985MOL0     C29904   4.331   3.182  10.685  0.0732 -1.1370 -0.1520
  985MOL0     N29905   4.271   3.159  10.825  0.2835  0.0753  0.1447
  985MOL0     C29906   4.234   3.255  10.914  0.5232  0.4433 -0.3136
  985MOL0     C29907   4.164   3.185  11.010  0.1546  0.8501  0.0409
  985MOL0     C29908   4.113   3.251  11.142  0.2031  0.2434 -0.2414
  985MOL0     C29909   3.968   3.283  11.127 -0.0724  0.7142 -0.7466
  985MOL0     C29910   3.905   3.325  11.257 -0.1658 -0.3346  0.3114
  985MOL0     C29911   3.758   3.364  11.232  0.6823 -0.6323 -0.5094
  985MOL0     O29912   3.708   3.447  11.341  0.8951 -0.6912 -0.5266
  985MOL0     C29913   3.572   3.450  11.334  0.6039  0.0143  0.6460
  985MOL0     C29914   3.497   3.330  11.331 -0.2787  0.3928 -0.1438
  985MOL0     C29915   3.359   3.333  11.297 -0.0997  0.2599  0.8128
  985MOL0     C29916   3.302   3.458  11.277 -0.3842 -0.0432 -0.5194
  985MOL0     C29917   3.158   3.457  11.236 -0.4124 -0.4534 -0.4110
  985MOL0     O29918   3.087   3.564  11.278 -0.0450  1.0524 -0.4599
  985MOL0     C29919   2.954   3.556  11.247  0.2237 -0.1975 -0.5038
  985MOL0     C29920   2.914   3.636  11.142  0.3110 -0.5897 -0.2581
  985MOL0     C29921   2.782   3.644  11.109  0.4659 -0.5957  0.4391
  985MOL0     C29922   2.688   3.554  11.158 -0.1613  0.3085 -0.0296
  985MOL0     O29923   2.557   3.555  11.121 -0.7891 -0.4570 -0.3937
  985MOL0     C29924   2.542   3.529  10.982  0.3084 -0.2053 -0.2160
  985MOL0     C29925   2.392   3.539  10.946  0.4757  0.5510  0.2713
  985MOL0     C29926   2.363   3.538  10.788 -0.3662 -0.1608  0.3177
  985MOL0     C29927   2.219   3.571  10.751 -0.4361 -0.5712 -0.4175
  985MOL0     C29928   2.204   3.546  10.599  0.4309  0.3048  0.7716
  985MOL0     C29929   2.086   3.616  10.547  0.3075 -0.1994  0.1513
  985MOL0     C29930   2.048   3.570  10.402 -0.4722 -0.3023  0.3248
  985MOL0     C29931   1.964   3.667  10.328 -0.2666 -0.3572 -0.3857
  985MOL0    Cl29932   1.895   3.605  10.177 -0.2416 -0.3966 -0.1927
  985MOL0     C29933   2.728   3.475  11.269 -0.5054 -0.2842  0.6808
  985MOL0     C29934   2.861   3.472  11.311  0.0840 -0.2941 -0.1600
  985MOL0     O29935   3.125   3.362  11.168  0.1732  0.1497 -0.0880
  985MOL0     C29936   3.375   3.578  11.276  0.3082  0.1069  0.1578
  985MOL0     C29937   3.508   3.573  11.306  0.4333  0.0626 -0.2762
  985MOL0     N29938   4.169   3.049  10.975  0.5144  0.4244 -0.7166
  985MOL0     N29939   4.235   3.038  10.859  0.1498  0.2372 -1.1301
  985MOL0     C29940   5.224   3.839  10.473  0.4350 -0.9857 -0.2725
  985MOL0     C29941   5.357   3.904  10.483  0.7303  0.8035 -1.0030
  985MOL0     C29942   5.743   4.057  10.275 -0.6649 -0.1686  0.3138
  985MOL0     C29943   5.780   4.163  10.199 -0.1467  0.3179 -0.0791
  985MOL0     C29944   5.919   4.192  10.193  0.0709 -0.4681  0.0513
  985MOL0     C29945   6.016   4.118  10.262 -0.6246  0.4768  0.0134
  985MOL0     O29946   6.155   4.113  10.247 -0.0145 -0.6900 -0.0528
  985MOL0     C29947   6.210   4.210  10.159 -1.1282 -0.3369 -0.3458
  985MOL0     C29948   6.368   4.207  10.168  0.3964 -1.2275 -0.3852
  985MOL0     C29949   6.428   4.343  10.116  0.0704  0.1746  0.5541
  985MOL0     C29950   6.582   4.348  10.093 -1.2576 -0.2988  0.1860
  985MOL0     C29951   6.633   4.288   9.971 -1.0718  0.1300  0.9430
  985MOL0     C29952   6.669   4.248   9.862  0.0858 -0.9670  0.7754
  985MOL0     C29953   5.970   4.016  10.345 -0.4179 -0.2659  0.4272
  985MOL0     C29954   5.837   3.983  10.349  0.4394 -0.2336  0.6625
  985MOL0     H29955   5.476   3.777  10.188  1.3622 -5.0913  0.6577
  985MOL0     H29956   5.248   3.679  10.177 -2.6646  0.2621  1.6423
  985MOL0     H29957   5.083   3.492  10.353 -0.0111 -0.9826 -0.0120
  985MOL0     H29958   5.055   3.587  10.211  1.2140 -0.6528  0.6249
  985MOL0     H29959   4.862   3.461  10.240  0.3593  0.8325 -0.2275
  985MOL0     H29960   4.826   3.626  10.303  0.4085  0.2367  0.3026
  985MOL0     H29961   4.869   3.521  10.554  0.6533 -1.2346  1.4582
  985MOL0     H29962   4.884   3.367  10.473  2.7824  1.9154  2.3659
  985MOL0     H29963   4.641   3.559  10.442 -0.6884  0.2972  1.4631
  985MOL0     H29964   4.656   3.397  10.383 -0.8586  1.4781 -0.4944
  985MOL0     H29965   4.613   3.499  10.662 -0.9765 -0.7726  0.5342
  985MOL0     H29966   4.712   3.350  10.657  0.1329  1.3358  1.7518
  985MOL0     H29967   4.559   3.232  10.521 -2.0026 -1.3699  0.7768
  985MOL0     H29968   4.445   3.371  10.528 -0.6266  0.1548  2.1317
  985MOL0     H29969   4.531   3.200  10.751 -2.0764 -5.2906 -3.2314
  985MOL0     H29970   4.435   3.360  10.767 -1.9241  0.4333  0.6980
  985MOL0     H29971   4.342   3.083  10.641 -1.4036 -0.9190 -1.0916
  985MOL0     H29972   4.256   3.238  10.627  0.7630  2.0005  1.7154
  985MOL0     H29973   4.256   3.361  10.906  3.1423  0.0481  0.7365
  985MOL0     H29974   4.176   3.335  11.173 -0.6656  0.6023  0.5913
  985MOL0     H29975   4.126   3.163  11.205  1.9785 -0.1044 -1.0209
  985MOL0     H29976   3.918   3.192  11.092  3.1725 -0.4839 -2.7067
  985MOL0     H29977   3.943   3.363  11.058  0.8316  2.3341  0.7264
  985MOL0     H29978   3.916   3.237  11.321  1.1958 -0.1073  0.4004
  985MOL0     H29979   3.947   3.415  11.304 -3.9382  2.9207 -1.8953
  985MOL0     H29980   3.709   3.266  11.227 -2.9185  0.8741  1.2603
  985MOL0     H29981   3.748   3.406  11.131  0.8843 -0.5640 -0.5011
  985MOL0     H29982   3.545   3.236  11.356 -0.2535  0.2995 -0.5483
  985MOL0     H29983   3.297   3.246  11.279 -2.5842  2.6001 -3.7157
  985MOL0     H29984   2.984   3.703  11.093  1.4108 -0.5670  1.2587
  985MOL0     H29985   2.752   3.722  11.038 -0.2146  0.0634  1.4269
  985MOL0     H29986   2.575   3.430  10.950  0.9875 -0.1931  0.4140
  985MOL0     H29987   2.601   3.598  10.921 -1.0211  1.5601  0.4154
  985MOL0     H29988   2.357   3.631  10.992  0.1085 -0.7089  2.7024
  985MOL0     H29989   2.344   3.457  11.001 -1.4679 -0.2062 -2.3698
  985MOL0     H29990   2.399   3.444  10.746  3.0896  0.7555  0.8771
  985MOL0     H29991   2.421   3.624  10.753  0.4148 -1.2481 -1.1281
  985MOL0     H29992   2.150   3.500  10.797 -1.5054 -0.2385 -1.4435
  985MOL0     H29993   2.201   3.674  10.784  1.5132 -0.3436  0.0829
  985MOL0     H29994   2.192   3.438  10.591  0.7972  0.2130  1.3963
  985MOL0     H29995   2.289   3.568  10.534  0.5399 -1.6546  0.1913
  985MOL0     H29996   2.111   3.721  10.531  0.4024 -0.0198  1.3526
  985MOL0     H29997   2.003   3.610  10.618 -0.3706  0.6529 -0.5433
  985MOL0     H29998   2.140   3.555  10.344  0.2140 -0.7794  1.4942
  985MOL0     H29999   1.982   3.483  10.399 -1.4199  0.4315 -1.7427
  985MOL0     H30000   2.022   3.757  10.304 -1.6254  0.8354  0.6194
  985MOL0     H30001   1.892   3.707  10.400  1.0201  0.7910  0.3089
  985MOL0     H30002   2.655   3.409  11.316 -0.9102  2.1816  3.8860
  985MOL0     H30003   2.900   3.402  11.385  1.0919  3.5611  3.3421
  985MOL0     H30004   3.330   3.670  11.242  1.5218  1.4961  2.0522
  985MOL0     H30005   3.569   3.662  11.296 -0.8044  1.0621  0.7479
  985MOL0     H30006   5.148   3.844  10.550  1.3509 -0.3307  0.6005
  985MOL0     H30007   5.384   3.979  10.556  0.1951 -0.0905  0.1443
  985MOL0     H30008   5.705   4.222  10.147 -2.0978  0.1181  2.2790
  985MOL0     H30009   5.953   4.264  10.120  2.4956  1.8231  3.2113
  985MOL0     H30010   6.174   4.309  10.190 -1.4781 -1.1674  2.0795
  985MOL0     H30011   6.181   4.193  10.055 -0.1345  2.7436 -1.2510
  985MOL0     H30012   6.391   4.204  10.275  1.4555 -2.9126 -0.6160
  985MOL0     H30013   6.401   4.124  10.104 -1.8326 -1.1435 -1.7549
  985MOL0     H30014   6.405   4.425  10.184  0.0696  1.8216 -1.3223
  985MOL0     H30015   6.388   4.372  10.018  0.3533 -1.9580 -0.2484
  985MOL0     H30016   6.615   4.452  10.081 -2.2538  0.5553  3.6796
  985MOL0     H30017   6.634   4.312  10.183 -0.2166 -0.9954 -0.6645
  985MOL0     H30018   6.701   4.217   9.765 -1.0710  1.6287 -0.5415
  985MOL0     H30019   6.044   3.962  10.403  0.2983  0.2354 -0.0109
  985MOL0     H30020   5.822   3.898  10.415 -0.4362 -0.9105 -0.3721
  986MOL0     O30021   3.656   1.006   3.642  0.5509 -0.6264 -0.6703
  986MOL0     C30022   3.708   1.097   3.576  0.4584  1.1064 -0.8788
  986MOL0     O30023   3.644   1.207   3.529 -0.1792 -0.3275 -0.9294
  986MOL0     C30024   3.509   1.215   3.546 -0.1898 -0.5569  0.7093
  986MOL0     C30025   3.432   1.219   3.436 -0.5562  0.1634  0.1556
  986MOL0     C30026   3.295   1.233   3.447 -1.4126 -0.2600  1.5575
  986MOL0     C30027   3.223   1.229   3.563 -0.1874  0.0359  0.0924
  986MOL0     O30028   3.085   1.232   3.554  0.5384 -0.5997 -0.6768
  986MOL0     C30029   3.026   1.289   3.669 -0.1399 -0.1319  0.7290
  986MOL0     C30030   2.883   1.324   3.638  0.6095 -0.4967 -0.0077
  986MOL0     C30031   2.784   1.209   3.630  0.6880 -0.4217 -0.1685
  986MOL0     C30032   2.651   1.273   3.594  0.2745 -0.6073 -0.1609
  986MOL0     C30033   2.552   1.178   3.527 -0.5227 -0.0612 -0.1787
  986MOL0     C30034   2.486   1.094   3.636  0.1943 -0.8111  0.0735
  986MOL0     C30035   2.364   1.016   3.588  0.6954 -0.3803 -0.7681
  986MOL0     C30036   2.379   0.914   3.473  0.0824 -0.9497 -0.5512
  986MOL0     N30037   2.254   0.862   3.416  0.0006 -0.5613  0.3442
  986MOL0     C30038   2.176   0.929   3.333  0.1288  0.3928 -0.5054
  986MOL0     C30039   2.091   0.843   3.283  0.1653 -1.1510  0.7797
  986MOL0     C30040   1.971   0.871   3.193  0.3490 -0.8183  0.6101
  986MOL0     C30041   1.903   0.743   3.130  1.0511  0.2193 -0.0901
  986MOL0     C30042   1.808   0.683   3.231  0.2580 -1.2405 -0.4906
  986MOL0     C30043   1.689   0.767   3.254 -0.9437 -0.0538  0.5420
  986MOL0     O30044   1.583   0.682   3.298  0.3850 -0.3097 -0.1491
  986MOL0     C30045   1.451   0.715   3.270 -1.2614  0.7741  1.1726
  986MOL0     C30046   1.360   0.611   3.254  0.3490 -0.6849  0.8060
  986MOL0     C30047   1.223   0.641   3.226 -0.6187  0.5040  0.1873
  986MOL0     C30048   1.173   0.770   3.227 -0.6709  0.1063 -0.2448
  986MOL0     C30049   1.031   0.801   3.203  0.4995  0.7779 -0.7138
  986MOL0     O30050   0.954   0.698   3.149  0.3238  0.1666  0.8887
  986MOL0     C30051   0.823   0.700   3.115  0.5121  0.6751  0.7851
  986MOL0     C30052   0.720   0.777   3.180  0.5008 -0.0892 -0.3406
  986MOL0     C30053   0.585   0.767   3.122 -0.6520  0.1314 -0.3155
  986MOL0     C30054   0.558   0.664   3.034  0.2285 -0.1106  0.5498
  986MOL0     O30055   0.429   0.624   2.994 -0.1687  0.4030 -0.4754
  986MOL0     C30056   0.318   0.628   3.085 -0.4201 -0.3076 -0.2167
  986MOL0     C30057   0.201   0.719   3.034 -0.7468 -0.2368  0.2502
  986MOL0     C30058   0.070   0.676   3.098 -0.2950  0.3722  0.3075
  986MOL0     C30059  -0.047   0.768   3.070 -0.0192  0.1729 -0.0091
  986MOL0     C30060  -0.175   0.708   3.127  0.4437  0.3274 -0.3027
  986MOL0     C30061  -0.288   0.803   3.122  0.3117  0.8975  0.4084
  986MOL0     C30062  -0.272   0.912   3.233 -0.5271 -0.0393  0.1296
  986MOL0     C30063  -0.395   0.993   3.260  0.3286 -0.5068  0.1959
  986MOL0    Cl30064  -0.496   0.940   3.399 -0.0301  0.1380  0.5990
  986MOL0     C30065   0.662   0.587   2.975  0.1995 -0.1928  0.2474
  986MOL0     C30066   0.793   0.604   3.012 -0.4912  0.0049 -0.1152
  986MOL0     O30067   0.986   0.912   3.237 -0.1196  0.2302 -0.1311
  986MOL0     C30068   1.270   0.870   3.242  0.6248 -0.1621  0.8276
  986MOL0     C30069   1.398   0.843   3.266  0.2826  0.4389  0.3944
  986MOL0     N30070   2.140   0.716   3.323 -1.0504 -0.2866 -0.8012
  986MOL0     N30071   2.218   0.732   3.411  0.5319 -0.0485  0.2167
  986MOL0     C30072   3.301   1.238   3.679  0.3140  0.9829 -0.0010
  986MOL0     C30073   3.439   1.230   3.666  0.2718 -0.4559 -1.5862
  986MOL0     C30074   3.844   1.080   3.553 -0.5121 -0.1202  0.7952
  986MOL0     C30075   3.930   1.007   3.635  0.1160  0.8616  0.2902
  986MOL0     C30076   4.068   0.988   3.601  0.5585 -0.7052 -0.7430
  986MOL0     C30077   4.123   1.049   3.487 -0.5352  0.4740 -0.5286
  986MOL0     O30078   4.251   1.057   3.461 -0.2767  0.1259  0.5324
  986MOL0     C30079   4.337   0.950   3.510  0.7729  0.7738  0.6728
  986MOL0     C30080   4.472   0.978   3.437 -0.6676  0.6759 -0.4846
  986MOL0     C30081   4.602   0.919   3.496 -0.0639  0.1938 -0.3953
  986MOL0     C30082   4.728   0.903   3.413 -0.0353 -0.6858  0.7231
  986MOL0     C30083   4.755   1.033   3.345 -0.2643  0.3532 -0.6620
  986MOL0     C30084   4.790   1.140   3.315  0.4426 -0.5542  0.2090
  986MOL0     C30085   4.042   1.138   3.414  0.0505  0.1358 -0.2414
  986MOL0     C30086   3.900   1.141   3.440 -0.0610  0.2036  0.3110
  986MOL0     H30087   3.472   1.226   3.335 -2.2716 -3.6642 -1.0099
  986MOL0     H30088   3.243   1.239   3.352 -1.2006  1.6205  1.5210
  986MOL0     H30089   3.085   1.375   3.701  0.1930 -0.0490 -0.0676
  986MOL0     H30090   3.019   1.209   3.743 -0.4961  0.4359  1.3174
  986MOL0     H30091   2.885   1.386   3.548  2.4372 -1.0851 -0.4203
  986MOL0     H30092   2.852   1.394   3.716 -0.0171 -0.9585  0.1678
  986MOL0     H30093   2.785   1.145   3.719 -0.1594  0.4191  0.4735
  986MOL0     H30094   2.806   1.138   3.550 -1.1937  0.8353 -1.9233
  986MOL0     H30095   2.599   1.305   3.685 -1.1055 -1.3869 -0.6510
  986MOL0     H30096   2.663   1.361   3.530  0.6433  1.1105  2.1471
  986MOL0     H30097   2.599   1.114   3.452 -0.7937 -3.0213  1.9953
  986MOL0     H30098   2.477   1.242   3.478  0.4670  1.4906  0.2716
  986MOL0     H30099   2.466   1.152   3.726 -2.8373  0.1831 -1.1433
  986MOL0     H30100   2.560   1.017   3.661 -0.5296 -1.1755  1.1699
  986MOL0     H30101   2.341   0.959   3.678 -0.7950  2.3287  0.7270
  986MOL0     H30102   2.292   1.095   3.564  0.3185 -0.8112 -1.0622
  986MOL0     H30103   2.439   0.831   3.513 -0.7625 -0.7267  1.3139
  986MOL0     H30104   2.434   0.962   3.392  0.2607  0.8660  0.5673
  986MOL0     H30105   2.167   1.036   3.317  0.2140  0.5305  0.3352
  986MOL0     H30106   2.016   0.932   3.114  0.2446  0.9743  1.8872
  986MOL0     H30107   1.898   0.936   3.242 -0.1034  1.3305 -2.5687
  986MOL0     H30108   1.982   0.673   3.100  0.8735 -0.3473  0.7204
  986MOL0     H30109   1.857   0.768   3.034  0.9591 -0.2734 -0.1784
  986MOL0     H30110   1.787   0.585   3.187  1.2207 -0.5660 -2.6172
  986MOL0     H30111   1.863   0.671   3.324 -0.3112 -0.1718 -0.0007
  986MOL0     H30112   1.647   0.803   3.160  0.7599 -0.3899 -0.4018
  986MOL0     H30113   1.708   0.851   3.320 -1.8214  1.4413 -1.0225
  986MOL0     H30114   1.388   0.507   3.260 -0.4010 -0.9070  0.4892
  986MOL0     H30115   1.162   0.552   3.214  0.2042  0.0391 -0.6894
  986MOL0     H30116   0.737   0.852   3.257  0.1978 -0.9615  0.5965
  986MOL0     H30117   0.506   0.823   3.170  1.9739  1.6882  2.5526
  986MOL0     H30118   0.348   0.663   3.184  1.6719 -0.4051 -0.7687
  986MOL0     H30119   0.280   0.526   3.089 -1.5901  0.1669  1.9479
  986MOL0     H30120   0.198   0.706   2.925  0.9004 -0.6182  0.2279
  986MOL0     H30121   0.224   0.824   3.056  1.2117 -0.6651  0.4002
  986MOL0     H30122   0.077   0.672   3.207 -1.0851  1.1644  0.3953
  986MOL0     H30123   0.053   0.575   3.060 -0.3360  0.3599  0.3591
  986MOL0     H30124  -0.020   0.864   3.115 -0.7342 -1.2943  3.9174
  986MOL0     H30125  -0.055   0.786   2.962 -0.5794 -1.3247 -0.2435
  986MOL0     H30126  -0.162   0.677   3.231 -0.2552 -1.2124 -0.6483
  986MOL0     H30127  -0.213   0.624   3.069  1.2907  0.6646 -1.4025
  986MOL0     H30128  -0.383   0.751   3.136  0.2333 -0.4582 -3.7208
  986MOL0     H30129  -0.291   0.844   3.020  2.4882  0.5898  0.1829
  986MOL0     H30130  -0.247   0.859   3.326 -2.8086 -0.3422  0.6172
  986MOL0     H30131  -0.198   0.985   3.198  0.8075 -1.0661  0.7209
  986MOL0     H30132  -0.459   0.989   3.172 -2.0226 -2.6830  1.8624
  986MOL0     H30133  -0.364   1.095   3.287 -2.0797  0.1255  0.8456
  986MOL0     H30134   0.623   0.526   2.894 -1.2154  0.5475  0.3520
  986MOL0     H30135   0.879   0.549   2.974  0.3438  0.9643  0.3054
  986MOL0     H30136   1.233   0.972   3.242 -1.8226 -0.9648  2.1889
  986MOL0     H30137   1.457   0.933   3.279 -0.7823  1.3874 -1.1043
  986MOL0     H30138   3.264   1.248   3.780  1.3366  2.5702  0.2586
  986MOL0     H30139   3.485   1.236   3.764 -0.1026  1.3164 -1.4773
  986MOL0     H30140   3.895   0.951   3.721  0.3252 -0.5969 -0.5428
  986MOL0     H30141   4.131   0.930   3.667  0.4020 -0.2257 -0.1661
  986MOL0     H30142   4.295   0.857   3.469  3.0898 -0.6765  1.4073
  986MOL0     H30143   4.354   0.936   3.617 -1.1160 -0.7419  0.8351
  986MOL0     H30144   4.467   0.936   3.335  1.6125 -0.6045 -0.1378
  986MOL0     H30145   4.477   1.087   3.432 -4.6596  1.3077  3.2866
  986MOL0     H30146   4.593   0.816   3.534  0.0733  0.2608 -0.1771
  986MOL0     H30147   4.614   0.979   3.587  0.0640 -0.6453  0.1524
  986MOL0     H30148   4.812   0.871   3.476  0.1377 -2.0583 -0.1564
  986MOL0     H30149   4.708   0.829   3.335  0.8983  0.6251 -0.8056
  986MOL0     H30150   4.822   1.236   3.278  1.3732  0.3828  3.1715
  986MOL0     H30151   4.074   1.199   3.330  2.4718 -0.5952  0.0736
  986MOL0     H30152   3.835   1.206   3.382 -0.5790  0.0733  0.7449
  987MOL0     O30153   6.269   8.072   7.973  0.5872  0.2422  0.5312
  987MOL0     C30154   6.284   7.950   7.976 -0.4310  0.0728 -0.1894
  987MOL0     O30155   6.187   7.857   7.955  0.2569 -0.0604 -0.4147
  987MOL0     C30156   6.057   7.881   7.938 -0.6153 -0.9077 -0.8463
  987MOL0     C30157   5.970   7.909   8.044 -0.8164 -0.2709  0.1182
  987MOL0     C30158   5.835   7.947   8.026  0.1064  0.2681  0.2007
  987MOL0     C30159   5.799   7.960   7.892 -0.4795  0.0262 -0.6152
  987MOL0     O30160   5.682   8.020   7.843  1.0895  0.1026  0.5244
  987MOL0     C30161   5.560   7.992   7.916  0.7038 -0.7215  0.9901
  987MOL0     C30162   5.445   8.067   7.854  0.4967  0.2734  0.3098
  987MOL0     C30163   5.329   8.073   7.953  0.2751 -0.4069 -0.2964
  987MOL0     C30164   5.208   8.158   7.901 -0.2544  0.6361  0.3838
  987MOL0     C30165   5.116   8.110   7.799  0.0244  0.1102  0.3598
  987MOL0     C30166   5.056   7.971   7.823  0.4732  0.1861 -0.9734
  987MOL0     C30167   4.913   7.979   7.757 -0.4402 -0.2073 -0.1276
  987MOL0     C30168   4.837   7.851   7.754 -0.1083  0.0642 -0.1168
  987MOL0     N30169   4.713   7.855   7.678 -0.2313  0.9056  0.5594
  987MOL0     C30170   4.609   7.948   7.671  0.0515  0.2320 -0.2685
  987MOL0     C30171   4.509   7.906   7.589 -0.0642  0.2314 -0.1785
  987MOL0     C30172   4.394   7.987   7.551 -0.2173  0.0830 -0.0435
  987MOL0     C30173   4.277   7.948   7.633 -0.6387 -0.2701  0.5996
  987MOL0     C30174   4.155   7.980   7.543 -0.0048  0.8866  0.2406
  987MOL0     C30175   4.023   7.953   7.616 -0.0701 -0.1457 -0.5821
  987MOL0     O30176   3.917   8.023   7.559 -0.5425  0.3062  0.7026
  987MOL0     C30177   3.790   8.025   7.610 -0.4727  0.0199 -0.5326
  987MOL0     C30178   3.711   8.136   7.574 -0.5252 -0.6765  0.3078
  987MOL0     C30179   3.586   8.160   7.624 -0.5312 -0.0089 -0.4085
  987MOL0     C30180   3.536   8.073   7.725 -0.0995 -0.5972 -0.2488
  987MOL0     C30181   3.396   8.093   7.766  0.2907 -0.0116 -0.3598
  987MOL0     O30182   3.324   8.191   7.705 -0.7642 -0.3703 -0.2301
  987MOL0     C30183   3.196   8.211   7.759  0.3020  0.2917  0.0969
  987MOL0     C30184   3.092   8.121   7.715  0.3338 -0.0608  0.0666
  987MOL0     C30185   2.970   8.137   7.777  1.1052 -1.0344 -1.0714
  987MOL0     C30186   2.943   8.230   7.877  0.1462  0.0670 -1.1722
  987MOL0     O30187   2.823   8.233   7.943  0.6937  0.6284 -0.0258
  987MOL0     C30188   2.712   8.201   7.859 -0.1189 -0.1568  0.2895
  987MOL0     C30189   2.579   8.261   7.926  0.5423 -0.0102  0.0856
  987MOL0     C30190   2.541   8.180   8.047 -0.2022  1.2284 -1.0896
  987MOL0     C30191   2.409   8.231   8.114  0.6102  0.1791  0.8732
  987MOL0     C30192   2.375   8.160   8.250 -0.2622 -0.4415 -0.8807
  987MOL0     C30193   2.231   8.192   8.308  1.1495 -0.5434 -0.1776
  987MOL0     C30194   2.193   8.342   8.335  0.2108  0.4852  0.3027
  987MOL0     C30195   2.042   8.361   8.329 -0.1457 -0.4183 -0.1442
  987MOL0    Cl30196   1.973   8.279   8.464 -0.5694  0.3926  0.5001
  987MOL0     C30197   3.045   8.314   7.917 -0.8580 -0.3629 -0.8376
  987MOL0     C30198   3.174   8.307   7.861 -0.0718  1.1344 -0.5157
  987MOL0     O30199   3.352   8.004   7.837  0.1128 -0.0140  0.1833
  987MOL0     C30200   3.612   7.959   7.764 -0.0369 -0.4337  0.5205
  987MOL0     C30201   3.738   7.934   7.704  0.1773  1.0630  0.3882
  987MOL0     N30202   4.538   7.776   7.562 -0.2325 -0.3286 -0.1865
  987MOL0     N30203   4.654   7.744   7.616  0.0995  0.4555  0.4215
  987MOL0     C30204   5.877   7.915   7.777 -0.4834 -0.4764 -1.3800
  987MOL0     C30205   6.010   7.879   7.809 -1.2983 -0.4025  0.2814
  987MOL0     C30206   6.421   7.901   7.986 -0.9559  0.3185  0.0467
  987MOL0     C30207   6.539   7.976   7.970  0.3055 -0.2306  0.5968
  987MOL0     C30208   6.670   7.924   7.975  0.2083  0.2846 -0.2289
  987MOL0     C30209   6.685   7.789   8.005  0.2166  0.3131  0.2869
  987MOL0     O30210   6.796   7.722   8.042 -0.3795 -0.0216 -0.2233
  987MOL0     C30211   6.924   7.787   8.061  0.1085 -0.1413  0.0356
  987MOL0     C30212   7.002   7.783   7.924 -0.1751 -0.5126  0.4933
  987MOL0     C30213   7.128   7.870   7.933  0.7631  0.0105  0.5004
  987MOL0     C30214   7.090   8.020   7.924  0.2953  0.1825  0.2414
  987MOL0     C30215   7.070   8.050   7.782  0.1545  0.5510  0.0948
  987MOL0     C30216   7.041   8.063   7.668 -0.4877  0.2764  1.2034
  987MOL0     C30217   6.571   7.711   8.028  0.2278 -0.5504  0.3253
  987MOL0     C30218   6.447   7.771   8.025  0.1426  0.1489 -0.3740
  987MOL0     H30219   6.017   7.896   8.140 -1.1714 -0.2969  0.2923
  987MOL0     H30220   5.765   7.974   8.104 -0.4493  2.4584 -0.9722
  987MOL0     H30221   5.562   8.007   8.025 -0.3171 -2.8083  1.3505
  987MOL0     H30222   5.540   7.885   7.903  2.2612 -1.1455  1.7265
  987MOL0     H30223   5.419   8.007   7.767  1.2897 -3.1658  2.2829
  987MOL0     H30224   5.461   8.170   7.819 -0.5063  0.9178  1.6886
  987MOL0     H30225   5.363   8.126   8.042 -0.0088  0.1845 -0.5371
  987MOL0     H30226   5.291   7.974   7.979  1.7237 -1.1414 -0.8258
  987MOL0     H30227   5.147   8.168   7.991  0.5520 -2.8385  1.4622
  987MOL0     H30228   5.242   8.254   7.861  3.0622 -1.0345 -1.2424
  987MOL0     H30229   5.164   8.104   7.700 -1.5904  0.0663 -0.4568
  987MOL0     H30230   5.036   8.184   7.792  0.6305  0.6580 -1.5215
  987MOL0     H30231   5.052   7.948   7.930  3.5956  0.2361 -0.7275
  987MOL0     H30232   5.118   7.895   7.774 -1.4253 -0.1472 -2.9797
  987MOL0     H30233   4.853   8.052   7.813 -2.7076 -1.7557 -0.3876
  987MOL0     H30234   4.924   8.018   7.655 -2.0321 -0.7812 -0.5545
  987MOL0     H30235   4.810   7.826   7.858  1.4837 -1.2812  0.0195
  987MOL0     H30236   4.901   7.777   7.705  2.3038  0.9787  1.4507
  987MOL0     H30237   4.607   8.047   7.715 -1.7933  0.1842 -0.1740
  987MOL0     H30238   4.378   7.976   7.444  0.5054  1.2381 -0.2983
  987MOL0     H30239   4.419   8.093   7.566 -0.5338  0.2827 -0.9245
  987MOL0     H30240   4.279   7.998   7.730 -1.9295 -0.6701  0.8535
  987MOL0     H30241   4.279   7.840   7.651 -1.9677 -0.3609  0.3000
  987MOL0     H30242   4.160   8.082   7.505  1.9101 -0.1813 -2.6782
  987MOL0     H30243   4.169   7.910   7.460  2.4078  2.1138 -0.4583
  987MOL0     H30244   4.034   7.988   7.719  1.4947  1.9741 -1.4111
  987MOL0     H30245   4.002   7.846   7.610  2.7445 -0.6936 -1.9103
  987MOL0     H30246   3.755   8.207   7.504 -1.4292 -1.0804 -0.6978
  987MOL0     H30247   3.520   8.236   7.584 -1.6077  0.0203  1.2876
  987MOL0     H30248   3.111   8.054   7.632  0.2901 -0.7010  0.5659
  987MOL0     H30249   2.888   8.071   7.751 -0.9785 -0.0817  2.4204
  987MOL0     H30250   2.694   8.096   7.833 -2.7477  0.8004 -2.2634
  987MOL0     H30251   2.731   8.262   7.771 -0.7220 -0.4374 -0.0450
  987MOL0     H30252   2.490   8.256   7.862 -2.3793 -2.1299  3.8802
  987MOL0     H30253   2.595   8.361   7.966 -3.0303  0.1693  1.3609
  987MOL0     H30254   2.619   8.193   8.122 -1.2135  0.1037  0.1993
  987MOL0     H30255   2.541   8.073   8.022  1.5194  0.5647  1.3959
  987MOL0     H30256   2.415   8.339   8.129 -2.9371  0.5960  0.0180
  987MOL0     H30257   2.330   8.214   8.041 -1.6548  1.4801  2.8534
  987MOL0     H30258   2.452   8.178   8.326 -0.0553  2.3654 -1.6266
  987MOL0     H30259   2.386   8.055   8.221 -0.1908 -0.1023 -2.1659
  987MOL0     H30260   2.211   8.137   8.401 -0.0818 -0.1148 -0.1756
  987MOL0     H30261   2.155   8.157   8.237 -0.1999  0.8965  0.4999
  987MOL0     H30262   2.234   8.367   8.433 -0.0556 -1.8332  1.0456
  987MOL0     H30263   2.258   8.391   8.261  1.8592 -0.2113  1.2477
  987MOL0     H30264   1.997   8.316   8.240 -2.0153 -1.9493  1.4848
  987MOL0     H30265   2.022   8.468   8.337 -0.1183 -0.3656 -0.7751
  987MOL0     H30266   3.045   8.379   8.004  0.3702 -1.5960  0.1519
  987MOL0     H30267   3.254   8.369   7.900  1.1250  0.7420 -2.2349
  987MOL0     H30268   3.568   7.878   7.821  0.2850 -1.6716 -0.9284
  987MOL0     H30269   3.794   7.844   7.728  0.6046  0.9186 -1.0621
  987MOL0     H30270   5.829   7.916   7.679 -2.3566 -0.1761 -0.5109
  987MOL0     H30271   6.070   7.854   7.722  0.6522 -0.5953  1.6169
  987MOL0     H30272   6.526   8.080   7.943  1.9782  0.4686  2.2770
  987MOL0     H30273   6.752   7.993   7.961 -1.4538  2.1214 -1.3339
  987MOL0     H30274   6.975   7.741   8.146  0.6742 -3.3371 -1.8763
  987MOL0     H30275   6.906   7.886   8.102  1.5652 -0.8842  2.7222
  987MOL0     H30276   7.033   7.686   7.884  0.6050  0.4084 -1.2745
  987MOL0     H30277   6.936   7.822   7.846 -2.2755  0.1484  2.4920
  987MOL0     H30278   7.193   7.837   7.851  0.8711  1.7661 -0.1699
  987MOL0     H30279   7.188   7.857   8.023  1.6529  2.5646  0.3587
  987MOL0     H30280   7.012   8.050   7.996 -0.6326  1.1033 -1.1073
  987MOL0     H30281   7.174   8.081   7.960  2.8583 -2.7491 -0.3377
  987MOL0     H30282   7.022   8.060   7.563 -0.4799  0.0401  1.2076
  987MOL0     H30283   6.575   7.605   8.050 -1.0572 -0.4695  1.0390
  987MOL0     H30284   6.359   7.710   8.039  1.3806 -1.3652  1.3074
  988MOL0     O30285   1.846  11.142   1.335 -0.7817 -0.2921  0.4777
  988MOL0     C30286   1.939  11.065   1.336  0.2124  0.0501 -0.2773
  988MOL0     O30287   1.926  10.927   1.376  0.3862  0.0713 -0.2996
  988MOL0     C30288   1.802  10.894   1.421  0.7462  0.0146 -0.8189
  988MOL0     C30289   1.751  10.948   1.540  1.2385 -0.3597  0.0602
  988MOL0     C30290   1.619  10.914   1.590 -0.6287  0.4429  0.3749
  988MOL0     C30291   1.545  10.821   1.525  0.2993 -0.4013  0.1512
  988MOL0     O30292   1.430  10.776   1.588  0.1746 -0.2378  0.1806
  988MOL0     C30293   1.340  10.885   1.636 -0.5247 -0.1239 -0.3341
  988MOL0     C30294   1.206  10.834   1.600 -0.0204  0.7984  0.6692
  988MOL0     C30295   1.099  10.933   1.650  0.8541  0.1256 -0.1535
  988MOL0     C30296   0.959  10.873   1.638 -1.0753  0.2523  0.5599
  988MOL0     C30297   0.848  10.964   1.702 -0.2472  0.2044 -0.6030
  988MOL0     C30298   0.783  10.892   1.825 -0.4921 -0.3125  0.2032
  988MOL0     C30299   0.718  10.996   1.919  0.3512  0.3298  0.8082
  988MOL0     C30300   0.581  11.041   1.880 -0.4155  1.2671 -0.4837
  988MOL0     N30301   0.538  11.135   1.980  0.3881  0.6655  0.2283
  988MOL0     C30302   0.601  11.255   2.024  0.5577 -0.0402  0.1136
  988MOL0     C30303   0.516  11.298   2.120 -0.3574  0.2914 -0.0295
  988MOL0     C30304   0.521  11.436   2.189  0.0240  0.4444  0.3576
  988MOL0     C30305   0.609  11.440   2.306 -0.0360  0.1436 -0.3149
  988MOL0     C30306   0.599  11.568   2.399  0.1071 -0.3949 -0.3401
  988MOL0     C30307   0.693  11.569   2.515 -0.9040  0.3689 -0.0123
  988MOL0     O30308   0.834  11.564   2.482  0.2602  0.0388  0.6684
  988MOL0     C30309   0.929  11.568   2.578  0.2394  0.3444 -0.3185
  988MOL0     C30310   1.054  11.539   2.528 -0.0913 -0.4007 -0.3929
  988MOL0     C30311   1.165  11.543   2.620 -0.4388  0.3288 -0.1172
  988MOL0     C30312   1.150  11.569   2.756  0.3920  0.2133  1.0451
  988MOL0     C30313   1.268  11.587   2.850 -0.0694 -0.0881 -0.4981
  988MOL0     O30314   1.394  11.581   2.796  0.6187 -1.5092  0.3790
  988MOL0     C30315   1.513  11.588   2.872 -0.1247 -0.7038  0.0909
  988MOL0     C30316   1.635  11.608   2.812 -0.3229  1.2211  1.3732
  988MOL0     C30317   1.754  11.613   2.873 -0.0221 -0.2931 -0.0969
  988MOL0     C30318   1.762  11.603   3.011  0.7289 -0.7846  0.2353
  988MOL0     O30319   1.880  11.633   3.067 -0.0605  1.1608 -0.2678
  988MOL0     C30320   1.909  11.564   3.194  0.7616 -0.1835  0.0499
  988MOL0     C30321   2.036  11.624   3.251  0.5324  0.3373 -0.4099
  988MOL0     C30322   2.156  11.595   3.174  0.0166 -0.4215  0.9621
  988MOL0     C30323   2.286  11.642   3.251 -0.2280  0.6382 -0.2302
  988MOL0     C30324   2.313  11.545   3.361  0.1049  0.3976  0.1495
  988MOL0     C30325   2.442  11.569   3.441 -0.2051  0.0850 -0.4948
  988MOL0     C30326   2.571  11.562   3.353  1.1447  1.2027 -1.4153
  988MOL0     C30327   2.681  11.486   3.440 -0.1686 -0.1425 -0.3957
  988MOL0    Cl30328   2.739  11.613   3.562  0.1965 -0.1950 -0.2093
  988MOL0     C30329   1.643  11.584   3.084  0.4604  0.3080 -0.0408
  988MOL0     C30330   1.521  11.575   3.010 -0.3519 -0.1869 -0.2427
  988MOL0     O30331   1.242  11.606   2.966 -0.0593 -0.4016 -0.3541
  988MOL0     C30332   1.014  11.579   2.799  0.0996 -0.0146 -0.2343
  988MOL0     C30333   0.904  11.583   2.714 -0.1552 -1.0254 -1.3443
  988MOL0     N30334   0.410  11.200   2.138 -0.0942  0.1728 -0.4007
  988MOL0     N30335   0.433  11.106   2.053  0.0736 -0.8186 -0.5089
  988MOL0     C30336   1.603  10.762   1.409 -0.6338  0.4777  0.1285
  988MOL0     C30337   1.729  10.801   1.349 -0.1665 -0.5712 -0.0581
  988MOL0     C30338   2.066  11.131   1.310 -0.0794 -0.2976  0.4684
  988MOL0     C30339   2.185  11.065   1.347 -0.1143 -0.5831 -0.4114
  988MOL0     C30340   2.307  11.132   1.338  0.1979  0.0990 -0.2605
  988MOL0     C30341   2.309  11.267   1.295 -0.2998 -0.5269  0.9384
  988MOL0     O30342   2.415  11.356   1.284 -0.3035  0.7869  0.7006
  988MOL0     C30343   2.533  11.329   1.366 -0.1031 -0.6364 -0.0949
  988MOL0     C30344   2.632  11.441   1.333 -0.0935 -0.5077  0.7159
  988MOL0     C30345   2.739  11.443   1.434  0.1249 -0.8407  0.6081
  988MOL0     C30346   2.860  11.520   1.375 -0.4729 -0.3471 -0.0798
  988MOL0     C30347   2.964  11.531   1.482  0.0982 -0.0474  1.0951
  988MOL0     C30348   3.055  11.539   1.558  0.4180  0.2751  0.1568
  988MOL0     C30349   2.195  11.325   1.249  0.1901  0.4304 -0.5703
  988MOL0     C30350   2.073  11.263   1.259 -0.3199  0.4044 -0.0277
  988MOL0     H30351   1.813  11.025   1.583 -1.3537  1.1879  1.2989
  988MOL0     H30352   1.584  10.943   1.688 -0.0611 -0.4010  0.8360
  988MOL0     H30353   1.372  10.978   1.589 -0.1660 -0.7421 -1.3610
  988MOL0     H30354   1.353  10.877   1.745  3.6113 -2.1855 -0.7719
  988MOL0     H30355   1.177  10.736   1.639 -1.4878  0.3057 -1.4206
  988MOL0     H30356   1.201  10.831   1.490  1.6863  1.3725  0.5512
  988MOL0     H30357   1.112  11.033   1.607 -0.4972  0.8166  0.9763
  988MOL0     H30358   1.119  10.951   1.756  1.2635  1.0871 -0.3790
  988MOL0     H30359   0.935  10.870   1.531 -1.3444  0.8737  0.5967
  988MOL0     H30360   0.960  10.771   1.678  1.9545  0.6454  1.7149
  988MOL0     H30361   0.777  10.996   1.625  3.7103 -0.9442 -5.2170
  988MOL0     H30362   0.904  11.055   1.726  0.6907 -0.2617 -0.9659
  988MOL0     H30363   0.856  10.845   1.891 -0.7252 -0.0536  0.6552
  988MOL0     H30364   0.704  10.824   1.793 -2.8422  1.5305  1.6829
  988MOL0     H30365   0.704  10.951   2.018 -0.0443  2.6886  1.8951
  988MOL0     H30366   0.788  11.079   1.929  1.0875 -0.0011 -1.1665
  988MOL0     H30367   0.500  10.968   1.870 -0.1263  1.1949 -3.1797
  988MOL0     H30368   0.584  11.089   1.781  0.9017  2.4636  0.1042
  988MOL0     H30369   0.680  11.310   1.975  0.8633  0.5993  1.2950
  988MOL0     H30370   0.415  11.444   2.214  0.0681 -0.8874  1.0178
  988MOL0     H30371   0.543  11.508   2.109 -4.9064 -0.8595 -2.6102
  988MOL0     H30372   0.713  11.440   2.273 -0.2453  0.1957 -0.9800
  988MOL0     H30373   0.587  11.344   2.353 -3.7761  0.5417 -0.9676
  988MOL0     H30374   0.618  11.654   2.334 -2.4697 -0.0428 -0.7213
  988MOL0     H30375   0.496  11.576   2.434  0.2817 -3.5638  1.2979
  988MOL0     H30376   0.665  11.482   2.575  0.0366 -0.1232 -0.2720
  988MOL0     H30377   0.674  11.655   2.580  0.2161  0.4226  0.2538
  988MOL0     H30378   1.066  11.540   2.420 -0.2646  0.0703 -0.4073
  988MOL0     H30379   1.265  11.518   2.586 -0.8296 -2.1863  0.3767
  988MOL0     H30380   1.619  11.631   2.707  0.4094  0.2405  1.0360
  988MOL0     H30381   1.834  11.645   2.807 -1.8566  2.2650 -1.2466
  988MOL0     H30382   1.901  11.457   3.178 -1.4564  0.4142 -4.4467
  988MOL0     H30383   1.833  11.579   3.272  2.3709  0.7985  1.5178
  988MOL0     H30384   2.055  11.574   3.346 -1.5781 -1.3112 -0.7814
  988MOL0     H30385   2.039  11.732   3.271  0.1799 -0.1956  3.0996
  988MOL0     H30386   2.152  11.642   3.075  0.7071 -1.2035  0.5454
  988MOL0     H30387   2.159  11.488   3.152 -0.9512 -0.5446  1.3655
  988MOL0     H30388   2.365  11.646   3.175 -1.3230 -1.9050 -1.6221
  988MOL0     H30389   2.277  11.746   3.286 -1.2401  0.8535 -1.0764
  988MOL0     H30390   2.334  11.452   3.306  1.9448 -0.3984  2.0594
  988MOL0     H30391   2.233  11.538   3.435 -0.3153  1.7001 -0.1629
  988MOL0     H30392   2.444  11.493   3.519 -2.5502 -1.6328 -1.9593
  988MOL0     H30393   2.442  11.666   3.491 -0.6829  0.2469 -0.7973
  988MOL0     H30394   2.565  11.497   3.266 -3.6401 -1.0613  0.2553
  988MOL0     H30395   2.602  11.665   3.330  1.8586  1.5225  0.6926
  988MOL0     H30396   2.767  11.465   3.376 -0.3663 -0.7567 -0.4715
  988MOL0     H30397   2.653  11.390   3.485  1.2593 -0.8752 -0.9985
  988MOL0     H30398   1.641  11.580   3.192 -1.5357 -0.5201 -0.0528
  988MOL0     H30399   1.435  11.557   3.074  0.6002 -0.0754  1.1298
  988MOL0     H30400   0.997  11.584   2.906 -1.6504 -2.5922 -0.2962
  988MOL0     H30401   0.807  11.600   2.759  1.0475 -1.6380  1.6638
  988MOL0     H30402   1.559  10.673   1.366  0.7868 -2.2209  3.7970
  988MOL0     H30403   1.770  10.753   1.261 -0.5710  0.1642 -0.6682
  988MOL0     H30404   2.185  10.965   1.388 -0.9815 -0.1615  0.6669
  988MOL0     H30405   2.388  11.066   1.368 -2.6563 -3.2770  0.6998
  988MOL0     H30406   2.575  11.230   1.348 -2.3603 -1.5143 -0.9515
  988MOL0     H30407   2.503  11.334   1.471  2.6463  0.3415  0.7159
  988MOL0     H30408   2.658  11.439   1.227 -2.3030  3.9367 -0.1269
  988MOL0     H30409   2.572  11.532   1.331  0.4900 -0.0700 -3.0273
  988MOL0     H30410   2.769  11.339   1.448 -0.4797 -0.9610  1.0846
  988MOL0     H30411   2.717  11.488   1.532 -0.3327  1.7114 -0.5702
  988MOL0     H30412   2.904  11.452   1.301  0.3504 -0.8567  0.8492
  988MOL0     H30413   2.825  11.617   1.340 -0.8851 -0.4023  0.1677
  988MOL0     H30414   3.138  11.562   1.622  0.4404 -1.0886  0.6658
  988MOL0     H30415   2.200  11.427   1.213 -1.4137  0.6132 -0.3212
  988MOL0     H30416   1.985  11.308   1.215  0.0329  0.2177 -0.9541
  989MOL0     O30417  10.585   5.728   1.196 -0.3324 -0.1009  0.4404
  989MOL0     C30418  10.542   5.626   1.237 -0.4832  0.1643 -0.3547
  989MOL0     O30419  10.614   5.506   1.216 -0.1190 -0.5219 -1.0019
  989MOL0     C30420  10.737   5.491   1.158  0.0544 -0.1303 -0.4734
  989MOL0     C30421  10.851   5.571   1.185 -0.6334  0.7173 -0.9001
  989MOL0     C30422  10.975   5.550   1.119  0.3176  0.2860 -0.0368
  989MOL0     C30423  10.980   5.452   1.019 -0.5966  0.1303 -0.6530
  989MOL0     O30424  11.090   5.431   0.950  0.8539  0.0586  0.4086
  989MOL0     C30425  11.212   5.476   0.993 -1.0948  0.3411 -0.6161
  989MOL0     C30426  11.312   5.364   0.961  0.5881  0.7005 -0.9373
  989MOL0     C30427  11.339   5.357   0.810 -0.2763  0.3098 -0.1661
  989MOL0     C30428  11.438   5.244   0.767  0.1963  0.2918 -0.6376
  989MOL0     C30429  11.465   5.242   0.606 -0.4324  0.5646  0.4124
  989MOL0     C30430  11.577   5.146   0.561 -0.3511 -0.4525  0.1574
  989MOL0     C30431  11.542   4.999   0.574 -0.5041  0.7624  0.3657
  989MOL0     C30432  11.666   4.918   0.537 -0.6045  1.0759 -0.8463
  989MOL0     N30433  11.643   4.771   0.545  0.4105  0.2354 -0.8632
  989MOL0     C30434  11.584   4.703   0.653  0.0629  0.1707 -0.6762
  989MOL0     C30435  11.591   4.572   0.630  0.5985 -0.6314 -0.0145
  989MOL0     C30436  11.538   4.467   0.724 -0.6891 -0.3687  0.5591
  989MOL0     C30437  11.558   4.327   0.667  0.2621 -0.4850  0.0441
  989MOL0     C30438  11.457   4.224   0.733 -0.1659 -0.7869  0.3742
  989MOL0     C30439  11.307   4.251   0.698 -0.2155  0.4912  0.3887
  989MOL0     O30440  11.266   4.254   0.555  0.0123  0.0526  0.2121
  989MOL0     C30441  11.129   4.264   0.520  0.0181 -0.5253  0.1338
  989MOL0     C30442  11.089   4.227   0.393 -0.3924  0.0102  0.3990
  989MOL0     C30443  10.966   4.239   0.346  0.7754  0.4018  0.1760
  989MOL0     C30444  10.868   4.307   0.423  0.7838  0.9590 -0.0679
  989MOL0     C30445  10.723   4.305   0.376 -0.0179 -0.8662 -0.2786
  989MOL0     O30446  10.634   4.334   0.480  0.1373  0.2396 -0.7765
  989MOL0     C30447  10.502   4.332   0.455  1.0052 -0.3318  0.4169
  989MOL0     C30448  10.422   4.351   0.338  0.1231  0.8297  0.9778
  989MOL0     C30449  10.279   4.362   0.334 -0.4990 -1.2276 -0.3133
  989MOL0     C30450  10.215   4.337   0.454  0.1340  0.4133  0.1464
  989MOL0     O30451  10.077   4.316   0.456 -0.3102  1.2749  0.2488
  989MOL0     C30452   9.997   4.342   0.569  0.5652  0.2862  0.4175
  989MOL0     C30453   9.966   4.218   0.635 -0.0776  1.2746  1.1304
  989MOL0     C30454   9.897   4.248   0.768  0.3999  0.0158 -0.1847
  989MOL0     C30455   9.855   4.126   0.843  0.5686  0.4674 -0.2973
  989MOL0     C30456   9.768   4.161   0.969 -0.2297 -0.5591 -0.1290
  989MOL0     C30457   9.624   4.118   0.948 -0.4638  0.7411  0.6758
  989MOL0     C30458   9.533   4.134   1.070  0.7163 -0.1077 -0.2958
  989MOL0     C30459   9.389   4.073   1.051  1.3921 -0.1387  0.6776
  989MOL0    Cl30460   9.261   4.146   1.159  0.0151 -0.0655 -0.1446
  989MOL0     C30461  10.292   4.314   0.571  0.6164 -0.2293 -0.0933
  989MOL0     C30462  10.429   4.311   0.566 -0.0132  0.9715 -0.5957
  989MOL0     O30463  10.696   4.293   0.257  0.6797  0.1211  0.5479
  989MOL0     C30464  10.906   4.351   0.550  0.6235 -0.0637 -0.2294
  989MOL0     C30465  11.031   4.322   0.602  0.4416 -0.6137  0.2869
  989MOL0     N30466  11.646   4.560   0.498 -0.1140 -0.1099  0.7848
  989MOL0     N30467  11.693   4.673   0.464 -0.5915  0.2147  0.2201
  989MOL0     C30468  10.863   5.375   0.997 -0.1745 -0.1477 -0.1119
  989MOL0     C30469  10.742   5.393   1.064 -0.0627  0.4419 -0.4023
  989MOL0     C30470  10.410   5.611   1.299  0.2736 -0.6434 -1.0799
  989MOL0     C30471  10.323   5.730   1.298  0.5988  0.7611 -0.1475
  989MOL0     C30472  10.191   5.717   1.358 -0.2658  0.5180 -0.5630
  989MOL0     C30473  10.143   5.589   1.400  0.0523  0.1663 -0.1255
  989MOL0     O30474  10.015   5.575   1.455 -0.5502  0.3429 -0.5188
  989MOL0     C30475   9.930   5.682   1.448  0.0843  0.1443  0.2517
  989MOL0     C30476   9.795   5.618   1.491 -0.1560 -1.0441  0.2105
  989MOL0     C30477   9.687   5.728   1.470 -0.6316  0.4880 -0.8999
  989MOL0     C30478   9.690   5.849   1.561 -0.3229 -0.8451 -0.7329
  989MOL0     C30479   9.555   5.900   1.594 -0.9176 -0.1922  0.3014
  989MOL0     C30480   9.442   5.934   1.625  0.0290  0.4113  0.0457
  989MOL0     C30481  10.225   5.470   1.390  0.9437 -0.1214  0.0403
  989MOL0     C30482  10.361   5.491   1.349  0.3500 -0.2069 -0.1392
  989MOL0     H30483  10.844   5.647   1.262 -2.0039  0.7311 -1.0155
  989MOL0     H30484  11.059   5.617   1.129  0.2936  0.2914  0.1266
  989MOL0     H30485  11.222   5.492   1.100 -0.3357  1.1164 -0.7940
  989MOL0     H30486  11.246   5.569   0.948  0.7375  0.0039 -0.0366
  989MOL0     H30487  11.263   5.274   0.997  1.1294  0.0584 -1.7418
  989MOL0     H30488  11.406   5.374   1.015 -1.8639  1.9172  3.5751
  989MOL0     H30489  11.390   5.446   0.771 -1.2177  0.3306 -1.3876
  989MOL0     H30490  11.243   5.342   0.761 -2.2129 -3.3747  4.1308
  989MOL0     H30491  11.532   5.268   0.817 -0.9322  1.5291  0.9979
  989MOL0     H30492  11.405   5.143   0.793  0.2055  1.3519  4.5621
  989MOL0     H30493  11.479   5.342   0.563  1.2479  0.6492  1.1212
  989MOL0     H30494  11.376   5.208   0.552 -0.9159  1.1072  0.8576
  989MOL0     H30495  11.672   5.161   0.613 -0.9422 -0.6155  1.3176
  989MOL0     H30496  11.594   5.167   0.455 -1.0818 -2.0829 -0.3290
  989MOL0     H30497  11.518   4.975   0.678 -1.7345  1.0301  0.1604
  989MOL0     H30498  11.464   4.965   0.506 -0.9051  2.6790 -0.1811
  989MOL0     H30499  11.745   4.954   0.603  0.6062 -2.7372  0.0056
  989MOL0     H30500  11.686   4.945   0.433  2.4450  0.0249 -0.6372
  989MOL0     H30501  11.548   4.748   0.745  5.0415  2.7060  0.4004
  989MOL0     H30502  11.430   4.483   0.728 -1.3952 -3.5124 -1.9064
  989MOL0     H30503  11.576   4.475   0.826 -2.7842  0.3521  1.3434
  989MOL0     H30504  11.659   4.291   0.689 -0.2799 -3.2088 -1.4483
  989MOL0     H30505  11.551   4.325   0.558  0.0478 -2.9391  0.0621
  989MOL0     H30506  11.490   4.126   0.696 -0.4107 -1.6409  2.2773
  989MOL0     H30507  11.467   4.219   0.842  0.3494 -1.4670  0.3090
  989MOL0     H30508  11.279   4.342   0.751  0.3371  2.4084 -2.4172
  989MOL0     H30509  11.252   4.171   0.749 -1.7976  2.0944  1.3419
  989MOL0     H30510  11.166   4.193   0.324 -0.2979 -0.2474  0.6289
  989MOL0     H30511  10.931   4.208   0.247 -1.1123 -0.4897  1.0665
  989MOL0     H30512  10.467   4.348   0.239 -0.3457 -0.9812  0.7819
  989MOL0     H30513  10.223   4.390   0.246 -0.4580 -0.5836 -0.1406
  989MOL0     H30514   9.905   4.388   0.534  1.2895  1.0700 -0.5164
  989MOL0     H30515  10.049   4.413   0.635  0.1258  1.7921 -0.7980
  989MOL0     H30516  10.055   4.155   0.647 -1.9357 -1.1188  3.4376
  989MOL0     H30517   9.893   4.155   0.583 -2.9037  2.0395  3.8546
  989MOL0     H30518   9.809   4.310   0.748  0.0399  0.3111  2.1228
  989MOL0     H30519   9.963   4.312   0.828 -0.4073  0.5793  0.1142
  989MOL0     H30520   9.787   4.065   0.784 -1.1504  0.3789  1.6425
  989MOL0     H30521   9.935   4.054   0.865  1.6426  1.8416  0.5005
  989MOL0     H30522   9.769   4.268   0.989 -2.9942 -0.6208  0.7237
  989MOL0     H30523   9.816   4.102   1.047  1.9943 -1.8227 -2.2964
  989MOL0     H30524   9.623   4.014   0.914  0.3737  0.8890  0.1723
  989MOL0     H30525   9.585   4.172   0.861  0.0198 -0.5022 -0.3392
  989MOL0     H30526   9.573   4.083   1.158  2.0349 -0.2387 -0.9486
  989MOL0     H30527   9.517   4.239   1.095 -0.1711 -0.4500  0.6205
  989MOL0     H30528   9.383   3.966   1.071 -1.9005 -0.5393 -1.6530
  989MOL0     H30529   9.352   4.089   0.949  1.1046  1.4678  1.0071
  989MOL0     H30530  10.242   4.291   0.664  0.8821 -1.2225 -0.1838
  989MOL0     H30531  10.486   4.288   0.655 -1.4576 -1.8686 -0.2875
  989MOL0     H30532  10.842   4.407   0.617  0.3051 -2.6911  1.8238
  989MOL0     H30533  11.055   4.349   0.705 -2.1033  1.5395  0.4203
  989MOL0     H30534  10.869   5.308   0.911  3.1081  0.9415 -0.8935
  989MOL0     H30535  10.662   5.326   1.035 -0.5671  1.6397 -1.9176
  989MOL0     H30536  10.365   5.825   1.267  0.7153 -0.0509 -2.7117
  989MOL0     H30537  10.123   5.801   1.370  0.8727  1.1415  2.7445
  989MOL0     H30538   9.919   5.733   1.351  2.6150 -2.6707 -1.7019
  989MOL0     H30539   9.961   5.764   1.514  1.4600  1.3253 -1.7435
  989MOL0     H30540   9.772   5.524   1.438 -1.8700 -1.0594  0.9164
  989MOL0     H30541   9.784   5.597   1.598 -2.6970 -1.3160 -0.0300
  989MOL0     H30542   9.591   5.678   1.478 -0.4421 -0.4207 -3.3775
  989MOL0     H30543   9.686   5.762   1.365  2.9509  2.4637 -0.4795
  989MOL0     H30544   9.746   5.830   1.653 -1.3865  1.4495  0.4567
  989MOL0     H30545   9.743   5.925   1.502  1.1815 -1.4480 -0.2084
  989MOL0     H30546   9.342   5.962   1.651 -0.1728 -0.0867 -0.1682
  989MOL0     H30547  10.198   5.375   1.433  2.9905 -0.6460  0.2482
  989MOL0     H30548  10.419   5.400   1.335  0.1692 -0.2675 -0.5358
  990MOL0     O30549   3.605   9.797   3.320 -0.1584 -0.3790  0.0246
  990MOL0     C30550   3.597   9.760   3.209  0.1458 -0.4805 -0.2059
  990MOL0     O30551   3.565   9.836   3.104 -0.2619  0.1045  0.0449
  990MOL0     C30552   3.502   9.958   3.122  0.5512 -0.2675 -0.1659
  990MOL0     C30553   3.569  10.082   3.104  0.1839  0.3752 -0.3955
  990MOL0     C30554   3.509  10.205   3.123 -0.1250  0.2321 -0.1159
  990MOL0     C30555   3.380  10.205   3.189 -0.6799 -0.3026  0.8445
  990MOL0     O30556   3.319  10.327   3.217  0.1464  0.3964 -0.1158
  990MOL0     C30557   3.331  10.445   3.136 -0.5129 -0.0141  0.2835
  990MOL0     C30558   3.284  10.429   2.989 -0.0237 -0.8602  0.3279
  990MOL0     C30559   3.145  10.373   2.966 -0.1438  0.3354 -0.4094
  990MOL0     C30560   3.106  10.383   2.819 -0.5651 -0.4809  0.8906
  990MOL0     C30561   2.956  10.410   2.807  1.0327  0.3367  0.4465
  990MOL0     C30562   2.879  10.288   2.855  0.7264 -0.3221  0.5366
  990MOL0     C30563   2.730  10.325   2.891  0.1715  0.3907 -1.0394
  990MOL0     C30564   2.645  10.197   2.891 -0.7012  0.3499 -0.3249
  990MOL0     N30565   2.510  10.243   2.923  0.1886 -0.5351 -0.2899
  990MOL0     C30566   2.397  10.233   2.848 -0.4496 -0.1338 -0.3131
  990MOL0     C30567   2.284  10.258   2.934  0.0737 -0.8045 -0.1763
  990MOL0     C30568   2.147  10.269   2.892  0.0418  0.0205  0.3377
  990MOL0     C30569   2.056  10.347   2.995  0.6661 -0.1953  0.3695
  990MOL0     C30570   1.912  10.390   2.948  0.0013 -0.4337 -0.0160
  990MOL0     C30571   1.818  10.411   3.071  0.4464 -0.3608 -0.1793
  990MOL0     O30572   1.758  10.281   3.101 -0.1876 -0.3495  0.5034
  990MOL0     C30573   1.655  10.283   3.187 -1.0549  0.2304  0.7191
  990MOL0     C30574   1.591  10.162   3.209  0.3566 -0.1338 -0.3021
  990MOL0     C30575   1.479  10.149   3.290  0.7233 -0.3889 -0.7285
  990MOL0     C30576   1.424  10.260   3.354  0.2452 -0.8648 -0.1132
  990MOL0     C30577   1.302  10.258   3.436  0.3211  0.4480 -0.4832
  990MOL0     O30578   1.221  10.368   3.439  0.0811  0.0231 -0.0920
  990MOL0     C30579   1.113  10.366   3.518  0.6323 -0.0433  0.0726
  990MOL0     C30580   0.999  10.437   3.476 -0.2622 -0.3522  0.8095
  990MOL0     C30581   0.880  10.432   3.548 -0.3687  0.9957 -0.0473
  990MOL0     C30582   0.869  10.355   3.663  0.1598 -0.8473 -0.5737
  990MOL0     O30583   0.745  10.332   3.721  0.0769  0.1086  0.5325
  990MOL0     C30584   0.731  10.219   3.805  0.8408 -0.0462 -1.6163
  990MOL0     C30585   0.588  10.207   3.849  0.6332  0.3569  0.5230
  990MOL0     C30586   0.579  10.064   3.917 -0.1482 -0.6506 -0.4346
  990MOL0     C30587   0.433  10.043   3.961 -0.8882  0.1454 -0.2514
  990MOL0     C30588   0.412   9.916   4.039  0.1102 -0.0926  0.8379
  990MOL0     C30589   0.262   9.903   4.072 -0.2385 -0.5718 -0.1791
  990MOL0     C30590   0.229   9.787   4.162  0.5028 -0.1801  0.0661
  990MOL0     C30591   0.083   9.782   4.195  0.8919  0.8909  0.5083
  990MOL0    Cl30592  -0.023   9.819   4.053 -0.4110  0.1166  0.2887
  990MOL0     C30593   0.982  10.301   3.719 -0.4809 -0.5943 -0.0020
  990MOL0     C30594   1.102  10.304   3.650  0.0689 -0.2348  0.2764
  990MOL0     O30595   1.272  10.148   3.484 -0.0851 -0.5108 -0.0513
  990MOL0     C30596   1.481  10.391   3.323 -0.3659  0.9852 -0.9348
  990MOL0     C30597   1.597  10.399   3.242  0.4337 -0.5076 -0.2454
  990MOL0     N30598   2.341  10.275   3.062  0.3430  0.5010 -0.1754
  990MOL0     N30599   2.473  10.258   3.058 -0.2715 -0.1147  1.4456
  990MOL0     C30600   3.304  10.087   3.204 -0.1508  0.7229 -0.3609
  990MOL0     C30601   3.366   9.966   3.171  0.2747 -0.5613 -0.0560
  990MOL0     C30602   3.634   9.620   3.176 -0.7205  0.2500 -0.7302
  990MOL0     C30603   3.753   9.560   3.225 -0.1551  0.4308  0.0070
  990MOL0     C30604   3.781   9.429   3.192 -0.2417 -0.3373 -0.6471
  990MOL0     C30605   3.719   9.355   3.102 -0.0505 -0.1162  0.1884
  990MOL0     O30606   3.771   9.228   3.070  0.5573  0.0590  0.7251
  990MOL0     C30607   3.686   9.141   2.984 -0.0130 -0.1528 -0.1610
  990MOL0     C30608   3.566   9.078   3.061 -0.8654  0.2614  1.1190
  990MOL0     C30609   3.472   8.987   2.972  0.4734 -0.0351  0.3256
  990MOL0     C30610   3.419   9.056   2.834 -0.6048  0.5747 -0.4790
  990MOL0     C30611   3.312   8.973   2.796 -0.1184  1.0737  0.6785
  990MOL0     C30612   3.206   8.920   2.765  0.0786 -0.2182 -0.8356
  990MOL0     C30613   3.600   9.413   3.046 -0.2424  0.5564 -0.2560
  990MOL0     C30614   3.564   9.543   3.087  0.6154  0.1753  0.2507
  990MOL0     H30615   3.670  10.080   3.067  0.5389 -0.7513  0.5620
  990MOL0     H30616   3.545  10.301   3.088  2.4381 -0.6143  0.0100
  990MOL0     H30617   3.430  10.490   3.127 -0.9339  0.7595 -0.7157
  990MOL0     H30618   3.270  10.510   3.199 -0.2738  0.1382  0.3581
  990MOL0     H30619   3.361  10.373   2.934 -0.3982  0.8015 -2.0648
  990MOL0     H30620   3.277  10.529   2.945  0.9560 -0.5739  0.7842
  990MOL0     H30621   3.075  10.424   3.033  0.9311  2.5994 -0.8948
  990MOL0     H30622   3.144  10.268   2.997 -1.5086  0.2359 -0.7376
  990MOL0     H30623   3.156  10.465   2.765 -1.8240 -1.0920 -1.3251
  990MOL0     H30624   3.135  10.289   2.770 -3.4257 -0.1884 -1.6876
  990MOL0     H30625   2.925  10.430   2.704 -3.1112 -4.0910  0.4890
  990MOL0     H30626   2.933  10.494   2.874  0.3734 -1.5383  2.7170
  990MOL0     H30627   2.920  10.243   2.946  1.6706 -0.2934  0.1388
  990MOL0     H30628   2.883  10.210   2.778  2.5738  0.2021  0.0498
  990MOL0     H30629   2.728  10.375   2.988  0.8354 -0.9595 -0.2978
  990MOL0     H30630   2.694  10.386   2.808 -2.3462 -0.7022 -0.8271
  990MOL0     H30631   2.690  10.138   2.972  0.2907  1.3885 -0.0879
  990MOL0     H30632   2.661  10.146   2.795  2.0254 -0.4830  0.4645
  990MOL0     H30633   2.396  10.200   2.745  0.0137 -0.3187 -0.2598
  990MOL0     H30634   2.107  10.168   2.889 -3.6857  1.3781 -0.9644
  990MOL0     H30635   2.137  10.310   2.792 -0.7496  0.7059  0.6864
  990MOL0     H30636   2.106  10.436   3.037  0.4754 -0.1241  0.4454
  990MOL0     H30637   2.034  10.282   3.081  1.8525 -1.7948 -0.4837
  990MOL0     H30638   1.920  10.479   2.885  0.4363 -1.3025 -1.2159
  990MOL0     H30639   1.869  10.308   2.890 -2.1138  0.7187 -0.1553
  990MOL0     H30640   1.740  10.486   3.051 -1.1285 -1.1631  2.4273
  990MOL0     H30641   1.879  10.451   3.152  2.1751 -0.6603 -1.2816
  990MOL0     H30642   1.625  10.076   3.153  1.1701  0.4951 -0.7981
  990MOL0     H30643   1.427  10.054   3.296 -0.5397  0.3583  2.5694
  990MOL0     H30644   0.994  10.469   3.373 -1.2764 -1.5967  0.4432
  990MOL0     H30645   0.786  10.474   3.512 -1.3702 -1.9183 -1.1178
  990MOL0     H30646   0.804  10.218   3.886  2.5963 -2.0559 -3.0985
  990MOL0     H30647   0.744  10.129   3.745 -2.2709 -2.6971  1.2963
  990MOL0     H30648   0.527  10.215   3.759  0.9984  0.2104  0.2636
  990MOL0     H30649   0.572  10.275   3.934  1.3864  1.1773  0.0263
  990MOL0     H30650   0.640  10.069   4.008 -1.3882  2.3784  0.3735
  990MOL0     H30651   0.610   9.991   3.842 -2.1385 -1.7912 -0.2039
  990MOL0     H30652   0.410  10.133   4.017 -1.5947 -0.2789  0.1611
  990MOL0     H30653   0.375  10.046   3.868  0.8500  1.4808 -1.3504
  990MOL0     H30654   0.469   9.927   4.132  2.4147  0.5728 -0.5540
  990MOL0     H30655   0.449   9.834   3.977  0.6536  3.1237 -3.5015
  990MOL0     H30656   0.214   9.893   3.974 -0.4418  0.4330 -0.1936
  990MOL0     H30657   0.225   9.991   4.125  2.1106  1.7767 -2.1332
  990MOL0     H30658   0.263   9.698   4.109  1.0872 -0.4299  0.8377
  990MOL0     H30659   0.293   9.786   4.251 -1.1627 -1.2281  1.3229
  990MOL0     H30660   0.065   9.859   4.270 -0.6967  1.8841 -0.8167
  990MOL0     H30661   0.053   9.681   4.226  1.2776 -0.4515 -3.0656
  990MOL0     H30662   0.984  10.257   3.818 -0.6572  0.7952  0.6461
  990MOL0     H30663   1.199  10.269   3.684  2.0381  2.4624 -2.0140
  990MOL0     H30664   1.433  10.473   3.375 -1.4266 -0.4854  0.4965
  990MOL0     H30665   1.625  10.502   3.221 -0.8879 -0.2726 -0.9946
  990MOL0     H30666   3.208  10.085   3.254  0.2241 -1.0004  0.3607
  990MOL0     H30667   3.313   9.874   3.192  0.7017 -0.9922 -0.8051
  990MOL0     H30668   3.824   9.616   3.286 -0.0143 -0.2755  0.5008
  990MOL0     H30669   3.867   9.380   3.238  0.6699  1.5321 -0.2856
  990MOL0     H30670   3.748   9.060   2.945  1.6048  1.0165 -0.1177
  990MOL0     H30671   3.656   9.195   2.894  0.9067 -0.5820 -0.7434
  990MOL0     H30672   3.602   9.011   3.140 -1.5697 -0.0625  1.1745
  990MOL0     H30673   3.503   9.158   3.102  0.5510  2.1570 -0.2478
  990MOL0     H30674   3.386   8.953   3.031 -0.0049 -2.0972 -1.4357
  990MOL0     H30675   3.536   8.901   2.949  0.8205  0.5831 -1.1498
  990MOL0     H30676   3.378   9.157   2.846 -1.0733  0.1998  1.4301
  990MOL0     H30677   3.505   9.049   2.767  0.1667 -1.6399  0.6422
  990MOL0     H30678   3.116   8.864   2.752  1.4818 -2.1623 -3.0580
  990MOL0     H30679   3.544   9.369   2.965  0.0408 -2.0181  0.8694
  990MOL0     H30680   3.475   9.586   3.043  0.9319  0.1351 -0.4470
  991MOL0     O30681  11.117   1.207  10.497  0.3877  0.4529  0.5159
  991MOL0     C30682  11.207   1.187  10.416 -0.3526  0.1210 -0.2768
  991MOL0     O30683  11.187   1.202  10.282  0.6894 -0.1896 -0.0083
  991MOL0     C30684  11.059   1.174  10.222  0.0417  0.6095 -0.5587
  991MOL0     C30685  10.936   1.140  10.286 -0.6133  1.0145  0.6097
  991MOL0     C30686  10.819   1.111  10.216  0.4409  0.2648 -0.4132
  991MOL0     C30687  10.828   1.120  10.081  0.1474  0.2147  0.2816
  991MOL0     O30688  10.725   1.101   9.991  0.1746  0.5037  0.5987
  991MOL0     C30689  10.608   1.016  10.033  0.8829 -0.0908 -0.6297
  991MOL0     C30690  10.494   1.015   9.934  0.1253  0.0928  0.3720
  991MOL0     C30691  10.406   1.142   9.952 -0.3838 -0.5899 -0.2153
  991MOL0     C30692  10.304   1.157   9.835  0.3884  0.4405 -0.4028
  991MOL0     C30693  10.228   1.288   9.849  0.3139  0.1681  0.3201
  991MOL0     C30694  10.085   1.289   9.786 -0.1321  0.2078 -0.0203
  991MOL0     C30695  10.095   1.300   9.635 -0.4040  0.5109 -0.4100
  991MOL0     C30696   9.965   1.291   9.558  0.3148 -0.4672 -0.5662
  991MOL0     N30697   9.980   1.256   9.418  0.1525  0.2120 -0.2690
  991MOL0     C30698  10.051   1.319   9.318  0.2931 -0.6888  0.3422
  991MOL0     C30699  10.027   1.240   9.209 -0.4787  0.6777 -0.3077
  991MOL0     C30700  10.065   1.287   9.067 -0.4699 -0.3173 -0.3249
  991MOL0     C30701  10.174   1.200   9.004  0.3074 -0.1430 -0.4340
  991MOL0     C30702  10.197   1.220   8.856 -0.9148 -0.7354 -0.3968
  991MOL0     C30703  10.268   1.097   8.793 -0.4799 -0.0577  0.7276
  991MOL0     O30704  10.366   1.025   8.876 -0.8229  0.1983  0.4072
  991MOL0     C30705  10.491   1.089   8.891  0.4806 -0.2233 -0.1835
  991MOL0     C30706  10.557   1.168   8.804  0.3512 -0.3598 -0.3654
  991MOL0     C30707  10.678   1.235   8.843 -0.1592  0.6259  0.1735
  991MOL0     C30708  10.728   1.221   8.976 -0.4319  0.0175 -0.5634
  991MOL0     C30709  10.851   1.288   9.029 -0.8477 -0.8220 -0.0720
  991MOL0     O30710  10.924   1.235   9.129  0.1319 -0.1953  0.1249
  991MOL0     C30711  11.060   1.255   9.130  0.0189 -0.8059 -0.2278
  991MOL0     C30712  11.114   1.351   9.217 -0.6222 -0.2160  0.1530
  991MOL0     C30713  11.250   1.379   9.228  0.1111 -0.9399 -0.3410
  991MOL0     C30714  11.344   1.307   9.141  1.0472 -0.3446 -0.7082
  991MOL0     O30715  11.480   1.329   9.161 -0.2980  0.4022 -0.3022
  991MOL0     C30716  11.533   1.279   9.283 -0.0454 -0.5410  1.1217
  991MOL0     C30717  11.684   1.305   9.270  0.7178 -0.5329  0.5346
  991MOL0     C30718  11.741   1.205   9.156  0.4795 -0.8555 -0.3349
  991MOL0     C30719  11.892   1.229   9.134 -0.1641  0.3654  0.8734
  991MOL0     C30720  11.946   1.182   9.001 -0.3874  1.2075  0.6703
  991MOL0     C30721  12.085   1.240   8.987  1.7358 -0.0256 -0.0621
  991MOL0     C30722  12.136   1.239   8.850 -0.5382  0.0852  0.2002
  991MOL0     C30723  12.291   1.232   8.857 -0.0615 -0.7998  0.2218
  991MOL0    Cl30724  12.332   1.071   8.915 -0.0695 -0.2741  0.2412
  991MOL0     C30725  11.297   1.205   9.059  0.2699 -0.7595  0.0479
  991MOL0     C30726  11.157   1.180   9.051 -0.2198 -0.3058  0.3890
  991MOL0     O30727  10.890   1.377   8.958 -0.2203  0.1880 -0.0117
  991MOL0     C30728  10.657   1.135   9.064 -0.5369 -0.8783  0.6387
  991MOL0     C30729  10.542   1.073   9.016 -1.0710 -0.3894  0.0187
  991MOL0     N30730   9.945   1.135   9.237  1.0327 -0.1281 -0.5749
  991MOL0     N30731   9.907   1.152   9.360  0.6192 -0.1038  0.1736
  991MOL0     C30732  10.949   1.152  10.016  0.6999 -0.1694  0.1489
  991MOL0     C30733  11.062   1.188  10.086  0.8243 -0.1977 -0.4203
  991MOL0     C30734  11.348   1.164  10.459 -0.2186  0.0702 -0.3755
  991MOL0     C30735  11.441   1.080  10.387  0.5288  0.0947 -0.0014
  991MOL0     C30736  11.568   1.051  10.450  0.9712  0.4669  0.3834
  991MOL0     C30737  11.608   1.128  10.558 -0.4979 -0.3259  0.6440
  991MOL0     O30738  11.741   1.106  10.595  0.3419 -0.8427 -0.3314
  991MOL0     C30739  11.798   1.149  10.728 -0.5461  0.6247 -0.1363
  991MOL0     C30740  11.914   1.066  10.769  0.3640 -0.0430  0.9186
  991MOL0     C30741  12.043   1.076  10.684  0.6194  0.1578  0.3305
  991MOL0     C30742  12.132   0.961  10.723  0.0635  0.0924 -0.5074
  991MOL0     C30743  12.256   0.956  10.638  0.1096  0.1621  0.0416
  991MOL0     C30744  12.358   0.928  10.579 -0.2445 -0.0464 -0.5479
  991MOL0     C30745  11.519   1.211  10.619  0.0700 -0.2345 -1.0576
  991MOL0     C30746  11.389   1.227  10.576  0.0128  0.1333 -0.4929
  991MOL0     H30747  10.931   1.124  10.393  2.9413 -0.2460  0.7008
  991MOL0     H30748  10.731   1.095  10.278 -0.6887 -0.2187 -2.0939
  991MOL0     H30749  10.571   1.059  10.126 -0.6756 -0.6453 -0.9734
  991MOL0     H30750  10.640   0.914  10.058 -2.1564 -0.8653  0.5683
  991MOL0     H30751  10.440   0.921   9.947 -1.3003  0.0551 -4.1802
  991MOL0     H30752  10.534   0.997   9.834  1.3038  0.0347  0.8328
  991MOL0     H30753  10.472   1.229   9.962 -1.1160 -0.0760  0.2361
  991MOL0     H30754  10.346   1.128  10.043 -0.4115  2.4935  0.3557
  991MOL0     H30755  10.357   1.159   9.739 -2.3859  1.3106 -2.0206
  991MOL0     H30756  10.232   1.074   9.833 -0.8657  1.5103 -1.6971
  991MOL0     H30757  10.286   1.367   9.801 -0.4876  0.8164  0.3955
  991MOL0     H30758  10.207   1.307   9.955  1.5200  1.1013  0.4157
  991MOL0     H30759  10.033   1.380   9.820  2.6589  1.7169  0.4959
  991MOL0     H30760  10.030   1.199   9.816 -0.1781 -0.0626 -0.9031
  991MOL0     H30761  10.137   1.396   9.603  0.2006  0.3036 -0.2546
  991MOL0     H30762  10.161   1.220   9.601  1.7052  2.3425 -0.9028
  991MOL0     H30763   9.915   1.388   9.562  0.0652 -0.6272  0.3595
  991MOL0     H30764   9.907   1.221   9.619  2.2872 -0.4964  1.4066
  991MOL0     H30765  10.118   1.405   9.317  0.3260 -0.7151 -0.7639
  991MOL0     H30766  10.111   1.386   9.067 -1.4458  0.1736 -1.3945
  991MOL0     H30767   9.971   1.293   9.011 -2.2997 -0.1104  2.5802
  991MOL0     H30768  10.147   1.097   9.029  2.1814 -0.4370  0.6059
  991MOL0     H30769  10.267   1.229   9.054 -0.0449 -0.1596  0.2455
  991MOL0     H30770  10.103   1.240   8.803  1.0668  1.8229 -3.2924
  991MOL0     H30771  10.264   1.306   8.857 -0.8735 -0.7543  0.7427
  991MOL0     H30772  10.317   1.117   8.698 -1.0866 -0.6813  0.2755
  991MOL0     H30773  10.186   1.032   8.759 -0.0875  0.4759 -1.3775
  991MOL0     H30774  10.515   1.177   8.704  0.2235 -2.0712 -0.5021
  991MOL0     H30775  10.730   1.304   8.778 -1.0755  0.5733 -0.6191
  991MOL0     H30776  11.046   1.408   9.279 -1.4585 -1.6055  0.5635
  991MOL0     H30777  11.280   1.454   9.301 -4.5007 -0.1148  1.0478
  991MOL0     H30778  11.506   1.174   9.297  0.9244 -1.2042 -1.4082
  991MOL0     H30779  11.495   1.340   9.366 -0.1667  0.7889  0.1267
  991MOL0     H30780  11.732   1.272   9.362 -3.1943 -4.7162  1.3997
  991MOL0     H30781  11.713   1.408   9.245 -0.9518 -0.6422 -2.2775
  991MOL0     H30782  11.695   1.219   9.058  0.8292  4.6550 -0.0302
  991MOL0     H30783  11.719   1.100   9.181  1.7602 -0.4873  2.7309
  991MOL0     H30784  11.907   1.338   9.137  1.6364  0.1327  1.4027
  991MOL0     H30785  11.959   1.184   9.208  0.3335 -1.3184 -0.5550
  991MOL0     H30786  11.882   1.229   8.926 -2.0664 -1.5430  0.2356
  991MOL0     H30787  11.949   1.072   8.994  1.7924  1.0502  2.5910
  991MOL0     H30788  12.157   1.201   9.060 -0.6454  0.3433  2.6080
  991MOL0     H30789  12.072   1.345   9.014 -2.2228 -0.2986 -0.3854
  991MOL0     H30790  12.104   1.141   8.813 -0.4366 -0.9911  2.7527
  991MOL0     H30791  12.089   1.317   8.790  0.0417  0.4520  0.2111
  991MOL0     H30792  12.332   1.309   8.923  1.8148 -2.0151  0.5607
  991MOL0     H30793  12.331   1.245   8.756  0.5835  0.2385  0.5941
  991MOL0     H30794  11.368   1.147   9.002 -0.9018 -1.1812 -1.0251
  991MOL0     H30795  11.111   1.114   8.978  1.1716 -0.4152 -0.4336
  991MOL0     H30796  10.680   1.139   9.170  2.9878  0.8374 -0.0389
  991MOL0     H30797  10.496   1.000   9.082 -0.3299 -1.7392 -0.9077
  991MOL0     H30798  10.955   1.147   9.908  1.4461  0.6624  0.1443
  991MOL0     H30799  11.154   1.221  10.040  0.5647  1.2061  0.0182
  991MOL0     H30800  11.430   1.024  10.295  0.0831 -2.7684  1.6991
  991MOL0     H30801  11.634   0.979  10.402 -0.6728  0.3492 -1.8798
  991MOL0     H30802  11.719   1.124  10.800  0.3872 -0.0877  0.6746
  991MOL0     H30803  11.826   1.255  10.719  0.2815  0.2711 -2.4510
  991MOL0     H30804  11.953   1.090  10.869 -0.3931 -0.4724  1.3231
  991MOL0     H30805  11.875   0.965  10.779  1.1350 -0.5754 -1.0120
  991MOL0     H30806  12.095   1.166  10.718  1.6934  0.3149 -1.5889
  991MOL0     H30807  12.025   1.074  10.576 -2.9549  0.7627  0.8043
  991MOL0     H30808  12.168   0.960  10.826  2.2494  0.3774 -1.2206
  991MOL0     H30809  12.069   0.874  10.706  2.0823 -1.2568 -1.4195
  991MOL0     H30810  12.447   0.878  10.546  0.8123 -0.4470  2.5457
  991MOL0     H30811  11.539   1.249  10.719  1.4773  0.7531 -1.6978
  991MOL0     H30812  11.326   1.291  10.636  0.7726 -2.0750  2.9117
  992MOL0     O30813   2.162  10.054   4.165 -0.1741  0.2657  0.9884
  992MOL0     C30814   2.278  10.069   4.191  0.4846  0.3976  0.3122
  992MOL0     O30815   2.342  10.028   4.298  0.1554  0.1639 -0.2291
  992MOL0     C30816   2.287   9.945   4.396 -0.2619  0.3363 -0.1125
  992MOL0     C30817   2.160   9.886   4.394 -0.4219 -0.6912  0.5286
  992MOL0     C30818   2.110   9.815   4.501 -0.2583  1.0141 -0.4063
  992MOL0     C30819   2.195   9.805   4.616  0.0836 -0.2450  0.0857
  992MOL0     O30820   2.154   9.716   4.720 -0.7660 -0.3918 -0.2068
  992MOL0     C30821   2.182   9.759   4.859  0.1922  0.0910  0.9339
  992MOL0     C30822   2.082   9.693   4.953 -0.1119 -0.1137 -0.7231
  992MOL0     C30823   2.143   9.700   5.095  0.5051 -0.0188 -0.1542
  992MOL0     C30824   2.038   9.684   5.209 -0.2723 -0.2809 -0.7956
  992MOL0     C30825   1.961   9.558   5.188  0.2642  0.0645  0.7590
  992MOL0     C30826   1.887   9.508   5.309  0.3643  0.2512 -0.6902
  992MOL0     C30827   1.762   9.426   5.286 -0.0296 -0.6989  0.4884
  992MOL0     C30828   1.654   9.459   5.393 -0.2018 -0.4007 -0.0218
  992MOL0     N30829   1.544   9.374   5.427  0.1844  0.5148 -0.0227
  992MOL0     C30830   1.499   9.272   5.346  0.0246 -0.3499 -0.0046
  992MOL0     C30831   1.385   9.236   5.403 -0.3329  0.0151 -0.6441
  992MOL0     C30832   1.294   9.130   5.347  0.2376  0.4419 -0.1823
  992MOL0     C30833   1.181   9.077   5.444 -0.0426  0.6984  0.5465
  992MOL0     C30834   1.140   8.928   5.415 -0.1309 -0.3253 -0.1866
  992MOL0     C30835   1.072   8.903   5.278 -0.1156 -0.3299 -0.4279
  992MOL0     O30836   1.027   8.769   5.258  0.4719  0.0175 -0.6734
  992MOL0     C30837   0.895   8.739   5.282  1.4058  0.1766 -0.5612
  992MOL0     C30838   0.819   8.651   5.201  0.6359  0.8394 -0.0779
  992MOL0     C30839   0.681   8.630   5.227 -0.2836  0.4457 -0.2827
  992MOL0     C30840   0.625   8.679   5.342  0.0366  0.2066 -0.0554
  992MOL0     C30841   0.484   8.636   5.375  0.6965  0.3550  0.7040
  992MOL0     O30842   0.438   8.518   5.314  0.4807 -1.0490  0.7632
  992MOL0     C30843   0.311   8.495   5.292  0.8513 -0.4269 -0.3713
  992MOL0     C30844   0.239   8.399   5.361 -0.6384 -0.1438 -0.1722
  992MOL0     C30845   0.101   8.390   5.336  0.2310  0.4249 -0.5342
  992MOL0     C30846   0.037   8.474   5.244 -0.5330  0.1547  0.3889
  992MOL0     O30847  -0.096   8.474   5.209 -0.7388  0.2970  0.5002
  992MOL0     C30848  -0.149   8.391   5.102 -0.3784  0.2437 -0.1474
  992MOL0     C30849  -0.298   8.426   5.078 -0.6579 -0.2709  0.6623
  992MOL0     C30850  -0.376   8.458   5.205 -0.8454  0.0865 -0.3188
  992MOL0     C30851  -0.525   8.467   5.169 -0.0756 -0.6166  0.5105
  992MOL0     C30852  -0.565   8.606   5.104  0.0469 -0.3036  0.3888
  992MOL0     C30853  -0.710   8.588   5.072  0.1835 -0.8524 -0.3386
  992MOL0     C30854  -0.795   8.581   5.198  0.6487 -0.7994 -0.8175
  992MOL0     C30855  -0.942   8.604   5.178 -0.0029 -0.5764 -0.2299
  992MOL0    Cl30856  -1.006   8.656   5.349  0.3890  0.1060 -0.1226
  992MOL0     C30857   0.115   8.568   5.173  0.4874  0.1691  0.4421
  992MOL0     C30858   0.248   8.579   5.196 -0.6910  0.2087 -0.2286
  992MOL0     O30859   0.419   8.705   5.445 -0.0544 -0.3379 -0.3266
  992MOL0     C30860   0.705   8.761   5.427  0.2579  0.9182 -0.0171
  992MOL0     C30861   0.829   8.796   5.397 -0.3473 -0.0326 -0.8350
  992MOL0     N30862   1.375   9.310   5.520  0.3367  0.3712  0.8602
  992MOL0     N30863   1.472   9.396   5.535  0.1966  0.4376  0.5131
  992MOL0     C30864   2.325   9.867   4.619  0.0260  0.1067 -0.2111
  992MOL0     C30865   2.369   9.932   4.502 -0.2611 -0.0984 -0.3433
  992MOL0     C30866   2.364  10.132   4.083 -0.0081  0.4519  0.1299
  992MOL0     C30867   2.503  10.124   4.088 -0.6563  0.7229 -0.3963
  992MOL0     C30868   2.579  10.192   3.984 -0.6111 -1.0256 -0.0082
  992MOL0     C30869   2.523  10.268   3.887  0.7230 -0.8648  0.5791
  992MOL0     O30870   2.597  10.329   3.791 -1.5351  0.2238  0.4791
  992MOL0     C30871   2.611  10.471   3.822 -0.4500  0.3144 -0.1895
  992MOL0     C30872   2.760  10.520   3.787 -0.3648  0.0677 -0.4982
  992MOL0     C30873   2.864  10.458   3.879  0.2404  0.6735 -0.4514
  992MOL0     C30874   3.012  10.499   3.836 -0.4699  0.1506  0.6445
  992MOL0     C30875   3.041  10.427   3.714  0.3912  0.0261  0.7867
  992MOL0     C30876   3.065  10.400   3.601 -0.0689  0.1938 -0.0425
  992MOL0     C30877   2.385  10.282   3.887  0.1100  0.8738 -0.3300
  992MOL0     C30878   2.310  10.210   3.984 -0.0672 -0.4810 -0.8744
  992MOL0     H30879   2.081   9.902   4.321  1.0095 -1.1859 -1.2164
  992MOL0     H30880   2.020   9.756   4.491  0.4059  0.0418 -0.8360
  992MOL0     H30881   2.170   9.867   4.875 -1.8572  0.3706 -1.7119
  992MOL0     H30882   2.283   9.724   4.881  0.8078  0.1147 -1.5554
  992MOL0     H30883   2.082   9.585   4.932  0.2912  0.1762 -2.2758
  992MOL0     H30884   1.983   9.738   4.952 -1.2301 -2.0023  3.1193
  992MOL0     H30885   2.190   9.799   5.098  1.4186 -0.4505  0.2278
  992MOL0     H30886   2.220   9.623   5.098 -0.8595 -1.5364 -1.6504
  992MOL0     H30887   2.095   9.679   5.302  1.2484  3.6605 -1.3175
  992MOL0     H30888   1.978   9.775   5.213  2.9404  1.9827 -0.1527
  992MOL0     H30889   2.021   9.481   5.139 -2.2080 -1.5504  0.0775
  992MOL0     H30890   1.881   9.587   5.118 -0.1281 -0.2815  1.0601
  992MOL0     H30891   1.854   9.594   5.368  1.5088  1.5675 -1.9004
  992MOL0     H30892   1.948   9.443   5.372 -2.1697 -0.8872  0.7398
  992MOL0     H30893   1.724   9.456   5.188 -2.6225 -1.5493  1.1657
  992MOL0     H30894   1.783   9.318   5.279 -2.0836 -1.1353  0.4566
  992MOL0     H30895   1.610   9.558   5.381 -1.3338 -0.9086 -0.1930
  992MOL0     H30896   1.710   9.455   5.487 -1.2691 -0.0790  0.6486
  992MOL0     H30897   1.531   9.245   5.246 -0.5661 -0.1925 -0.2436
  992MOL0     H30898   1.357   9.041   5.334  0.8300  0.9801 -1.0642
  992MOL0     H30899   1.254   9.160   5.250 -1.9681  0.2305  0.6040
  992MOL0     H30900   1.097   9.146   5.428 -0.8620 -0.8756 -2.7645
  992MOL0     H30901   1.225   9.085   5.544 -0.7680  1.4648  0.8231
  992MOL0     H30902   1.232   8.871   5.429 -0.0054  0.2815  1.8136
  992MOL0     H30903   1.071   8.915   5.498  1.5648  1.6564  1.6634
  992MOL0     H30904   1.152   8.929   5.208 -1.0344  0.4873 -1.2097
  992MOL0     H30905   1.003   8.984   5.254  0.8673  0.3782 -0.9139
  992MOL0     H30906   0.870   8.603   5.118 -0.5597  2.1414 -1.6461
  992MOL0     H30907   0.626   8.565   5.161  0.0297  0.4158 -0.5141
  992MOL0     H30908   0.295   8.340   5.433 -0.8014  1.2107  1.1119
  992MOL0     H30909   0.052   8.318   5.400 -0.3828  1.1547 -0.1675
  992MOL0     H30910  -0.137   8.284   5.120 -3.5649  0.2684  3.5377
  992MOL0     H30911  -0.082   8.419   5.019  0.6545 -1.5840  0.0282
  992MOL0     H30912  -0.347   8.342   5.028 -1.9781  0.3423  0.8911
  992MOL0     H30913  -0.307   8.508   5.007 -0.5041 -0.3336  0.5696
  992MOL0     H30914  -0.337   8.548   5.254  0.9623 -1.4962  1.3171
  992MOL0     H30915  -0.374   8.376   5.277  1.1476  1.4091  1.2375
  992MOL0     H30916  -0.555   8.386   5.101 -2.2571  1.7833 -1.6268
  992MOL0     H30917  -0.583   8.452   5.261  0.3224  0.2074  0.9040
  992MOL0     H30918  -0.510   8.624   5.012  0.0388  2.3741  0.8401
  992MOL0     H30919  -0.543   8.693   5.167 -2.5944  1.0635 -0.4267
  992MOL0     H30920  -0.721   8.504   5.003  0.7872  0.1264 -1.6785
  992MOL0     H30921  -0.743   8.670   5.007  1.9095 -1.5910 -2.2796
  992MOL0     H30922  -0.782   8.486   5.250 -1.0728 -1.5187 -1.5975
  992MOL0     H30923  -0.771   8.674   5.250  0.1120 -1.3755  0.5142
  992MOL0     H30924  -0.981   8.513   5.132 -0.6190 -0.3204 -0.2318
  992MOL0     H30925  -0.956   8.693   5.116 -0.3369 -0.8090 -0.4950
  992MOL0     H30926   0.086   8.628   5.087 -3.3800 -0.3512  1.1955
  992MOL0     H30927   0.310   8.646   5.138  1.6323 -2.1396 -0.7007
  992MOL0     H30928   0.669   8.806   5.519  2.6646  0.8929  1.0233
  992MOL0     H30929   0.875   8.870   5.461  0.9196 -0.5391 -1.1387
  992MOL0     H30930   2.390   9.857   4.705  1.8547 -2.2449 -1.7226
  992MOL0     H30931   2.459   9.992   4.505 -0.4707  0.1989  2.0368
  992MOL0     H30932   2.554  10.068   4.166  0.5260  0.9614 -0.9649
  992MOL0     H30933   2.687  10.185   3.986 -0.5234 -0.0848 -0.6552
  992MOL0     H30934   2.575  10.497   3.922 -0.9931  1.8500 -0.7472
  992MOL0     H30935   2.551  10.518   3.743 -2.6042 -1.3813  0.3374
  992MOL0     H30936   2.782  10.491   3.684 -1.4901 -1.0633 -0.4359
  992MOL0     H30937   2.775  10.628   3.798 -3.1207  0.3963  0.8354
  992MOL0     H30938   2.861  10.350   3.868  0.0088  0.7352 -1.0037
  992MOL0     H30939   2.851  10.484   3.985 -0.7886 -1.6749  0.0474
  992MOL0     H30940   3.014  10.608   3.825 -2.7027  0.3176  1.3264
  992MOL0     H30941   3.092  10.477   3.907  1.2204  0.7765 -1.0158
  992MOL0     H30942   3.079  10.375   3.498  1.5709 -1.0430  0.4511
  992MOL0     H30943   2.341  10.352   3.816  0.5628  0.5747 -0.9222
  992MOL0     H30944   2.203  10.223   3.993  0.0382  0.5926 -0.9913
  993MOL0     O30945   7.206   0.494   6.334 -0.1095 -0.0083 -0.3106
  993MOL0     C30946   7.191   0.394   6.267 -0.0382  0.5625 -0.1318
  993MOL0     O30947   7.299   0.308   6.234  0.2436 -0.0766 -0.0273
  993MOL0     C30948   7.426   0.358   6.248 -0.3378 -0.2097  0.6974
  993MOL0     C30949   7.526   0.278   6.305 -0.5744 -0.3961 -0.7065
  993MOL0     C30950   7.659   0.318   6.294 -0.1244 -0.7278 -0.5311
  993MOL0     C30951   7.693   0.443   6.244  0.6545  0.1470  0.3013
  993MOL0     O30952   7.823   0.475   6.251 -0.0146 -0.5602 -0.2043
  993MOL0     C30953   7.873   0.573   6.160  0.4662 -0.1450  0.5785
  993MOL0     C30954   8.012   0.585   6.188  0.5214 -0.3477  0.4414
  993MOL0     C30955   8.048   0.629   6.333 -0.1686 -0.0004  0.9657
  993MOL0     C30956   8.188   0.683   6.353  0.0582 -0.2313 -0.3116
  993MOL0     C30957   8.297   0.619   6.272 -0.2509  0.5286 -0.7842
  993MOL0     C30958   8.340   0.480   6.330 -0.8281  0.2776 -0.5778
  993MOL0     C30959   8.438   0.415   6.236 -0.1773 -0.3461 -0.8962
  993MOL0     C30960   8.445   0.263   6.242  0.6748  0.3079  0.4614
  993MOL0     N30961   8.325   0.195   6.192 -0.1781  0.0696 -0.6860
  993MOL0     C30962   8.221   0.143   6.262 -0.0006  0.2466 -0.3360
  993MOL0     C30963   8.119   0.123   6.175 -0.6579  0.4252  0.1718
  993MOL0     C30964   7.980   0.075   6.217 -0.5050  0.2961  0.1146
  993MOL0     C30965   7.953  -0.069   6.177  0.6780 -0.3314 -0.3161
  993MOL0     C30966   7.816  -0.127   6.232 -0.1775  0.4679 -0.7942
  993MOL0     C30967   7.693  -0.070   6.155 -0.6052 -0.5636  0.5767
  993MOL0     O30968   7.592  -0.159   6.200  0.2606 -0.1511  0.1285
  993MOL0     C30969   7.472  -0.157   6.136 -0.6850 -0.0414 -0.0059
  993MOL0     C30970   7.426  -0.053   6.055  0.0748 -0.3553  0.1985
  993MOL0     C30971   7.296  -0.047   6.004 -0.1568 -0.6125  0.2099
  993MOL0     C30972   7.213  -0.161   6.031 -0.0024 -0.0743 -0.0132
  993MOL0     C30973   7.067  -0.167   5.990 -0.1261  0.0531  0.4282
  993MOL0     O30974   6.992  -0.279   6.000 -0.3009  0.6295  0.5061
  993MOL0     C30975   6.861  -0.271   5.962 -0.0209 -0.5001  1.1879
  993MOL0     C30976   6.816  -0.301   5.831 -1.3215  0.0753 -0.6809
  993MOL0     C30977   6.682  -0.287   5.810 -0.2929  0.5095 -0.4165
  993MOL0     C30978   6.585  -0.236   5.905 -0.0387  0.2423 -0.7037
  993MOL0     O30979   6.449  -0.223   5.879 -0.1533  0.6952  0.6589
  993MOL0     C30980   6.372  -0.175   5.988  0.0371 -0.7920  0.2116
  993MOL0     C30981   6.220  -0.159   5.954  0.4658  0.2530 -0.3277
  993MOL0     C30982   6.205  -0.090   5.819 -0.0026  0.5066 -0.5499
  993MOL0     C30983   6.056  -0.103   5.782  1.1769  0.0207 -0.5478
  993MOL0     C30984   5.963  -0.029   5.878 -0.1564 -0.3469  0.2200
  993MOL0     C30985   5.819  -0.012   5.833 -1.0004 -0.1627  0.6774
  993MOL0     C30986   5.714  -0.001   5.942  0.8871 -0.3904  0.2322
  993MOL0     C30987   5.677  -0.133   6.009 -0.0448 -0.1918 -0.3607
  993MOL0    Cl30988   5.606  -0.250   5.884 -0.0848 -0.2729 -0.1904
  993MOL0     C30989   6.641  -0.199   6.027 -0.7539 -0.0650  0.4798
  993MOL0     C30990   6.774  -0.224   6.054  0.2296 -1.2511  0.0545
  993MOL0     O30991   7.034  -0.053   5.953  0.6290  0.5266  0.3040
  993MOL0     C30992   7.258  -0.261   6.114 -0.0161 -0.2585 -0.8208
  993MOL0     C30993   7.391  -0.267   6.158  0.2076 -0.7353 -0.2612
  993MOL0     N30994   8.170   0.156   6.051 -0.2881 -0.4756  0.2753
  993MOL0     N30995   8.298   0.182   6.055  0.4616  0.0397  0.6822
  993MOL0     C30996   7.591   0.529   6.199 -0.1214 -0.1136  0.4201
  993MOL0     C30997   7.459   0.481   6.197  0.4503 -0.1625  0.2177
  993MOL0     C30998   7.058   0.364   6.205  0.4120 -0.4326  0.4331
  993MOL0     C30999   6.954   0.463   6.221  0.1621  0.0248 -0.2065
  993MOL0     C31000   6.833   0.448   6.150  0.0769 -0.3444  0.0237
  993MOL0     C31001   6.805   0.335   6.065  0.9219 -0.4032 -0.0777
  993MOL0     O31002   6.680   0.314   6.006  0.6434 -0.1338 -0.1244
  993MOL0     C31003   6.640   0.224   5.906 -0.3556  0.1199 -0.0996
  993MOL0     C31004   6.491   0.209   5.933 -0.3106  0.8877  0.5555
  993MOL0     C31005   6.398   0.325   5.900  0.1903  0.0730  0.3127
  993MOL0     C31006   6.253   0.278   5.922  0.5315 -1.0466 -0.2314
  993MOL0     C31007   6.168   0.399   5.930  0.8287  0.1318  0.0641
  993MOL0     C31008   6.110   0.503   5.940  0.2218 -0.1655  0.0481
  993MOL0     C31009   6.915   0.251   6.047 -0.1808 -0.2115 -0.5538
  993MOL0     C31010   7.040   0.258   6.117  0.2601  0.1153  0.2305
  993MOL0     H31011   7.509   0.181   6.351 -0.4556 -0.6020 -1.0899
  993MOL0     H31012   7.736   0.254   6.335 -2.4566 -2.5625  1.3231
  993MOL0     H31013   7.827   0.671   6.175 -2.7398 -1.9015  3.4723
  993MOL0     H31014   7.864   0.545   6.054 -0.3631  0.6172  0.4384
  993MOL0     H31015   8.044   0.665   6.121 -1.1873 -1.4926 -1.8603
  993MOL0     H31016   8.069   0.496   6.160  2.2279  1.1946 -1.3052
  993MOL0     H31017   8.047   0.540   6.396  0.6993 -0.6645  0.0750
  993MOL0     H31018   7.977   0.704   6.369  0.0807 -0.4591  2.4960
  993MOL0     H31019   8.185   0.790   6.333 -0.3084  0.0523  1.1238
  993MOL0     H31020   8.207   0.670   6.460 -1.3639 -0.4008 -0.0543
  993MOL0     H31021   8.378   0.692   6.273  0.0748  0.4783  4.5152
  993MOL0     H31022   8.275   0.607   6.165 -1.1371 -2.5851 -0.3532
  993MOL0     H31023   8.250   0.419   6.339  0.9658 -2.3061  1.5053
  993MOL0     H31024   8.382   0.492   6.430 -1.7596 -0.5267 -0.0764
  993MOL0     H31025   8.423   0.446   6.132  1.6054  0.8043 -0.8558
  993MOL0     H31026   8.540   0.444   6.263 -0.1932 -1.2866  0.2514
  993MOL0     H31027   8.471   0.225   6.341  0.4721  0.5504  0.6099
  993MOL0     H31028   8.529   0.237   6.178  1.7235 -0.2299  1.9942
  993MOL0     H31029   8.214   0.126   6.369  5.4642  0.5422  0.3094
  993MOL0     H31030   7.908   0.140   6.165  0.1160  1.5024  0.7251
  993MOL0     H31031   7.971   0.090   6.325  0.8372 -2.5327  0.7133
  993MOL0     H31032   8.033  -0.131   6.220 -0.9496 -0.8496  2.1764
  993MOL0     H31033   7.959  -0.078   6.068  0.8187  0.8862 -0.4153
  993MOL0     H31034   7.825  -0.235   6.247  1.7852  0.8737  1.6713
  993MOL0     H31035   7.805  -0.086   6.333  1.9223 -1.1481  0.1562
  993MOL0     H31036   7.706  -0.074   6.047 -1.8012  0.2111  0.3828
  993MOL0     H31037   7.678   0.033   6.187  2.7028 -0.2524  1.4873
  993MOL0     H31038   7.482   0.033   6.018  0.3563 -1.0217 -0.9696
  993MOL0     H31039   7.263   0.026   5.931 -1.0478 -1.2548 -0.0531
  993MOL0     H31040   6.892  -0.335   5.761 -1.5024 -0.9671 -0.3973
  993MOL0     H31041   6.653  -0.309   5.708  0.0019 -2.1859  0.0031
  993MOL0     H31042   6.404  -0.074   6.017 -1.8742 -0.0567 -0.1013
  993MOL0     H31043   6.376  -0.250   6.068 -1.7281  0.3093  1.3936
  993MOL0     H31044   6.180  -0.087   6.025  2.4044 -0.4164  1.5749
  993MOL0     H31045   6.177  -0.260   5.952 -0.5844  0.6598  0.9320
  993MOL0     H31046   6.260  -0.141   5.739 -3.0976 -0.6453 -2.0978
  993MOL0     H31047   6.236   0.015   5.826  0.0702  0.4251  0.4326
  993MOL0     H31048   6.040  -0.075   5.678  0.1576  0.0309 -0.4032
  993MOL0     H31049   6.032  -0.209   5.775 -0.1777  0.1792  0.9558
  993MOL0     H31050   6.019   0.063   5.896  1.8592 -1.0745 -1.8179
  993MOL0     H31051   5.969  -0.087   5.970  1.3322 -0.8864 -0.1851
  993MOL0     H31052   5.803  -0.094   5.762  1.4255 -0.7251  0.7036
  993MOL0     H31053   5.834   0.081   5.778 -0.8783 -0.0951  0.8278
  993MOL0     H31054   5.746   0.070   6.019 -2.7188  3.1696 -1.1591
  993MOL0     H31055   5.626   0.056   5.910  2.3450  0.7948 -1.8369
  993MOL0     H31056   5.606  -0.105   6.087 -0.0060  1.1453 -0.7853
  993MOL0     H31057   5.760  -0.186   6.057 -1.5516 -1.3236  1.1629
  993MOL0     H31058   6.592  -0.150   6.111 -0.8552 -0.4950  0.6778
  993MOL0     H31059   6.806  -0.207   6.157  1.4778 -2.1869 -0.1476
  993MOL0     H31060   7.206  -0.351   6.144  0.9362  0.0415  2.1259
  993MOL0     H31061   7.424  -0.353   6.216 -0.9417 -1.4969 -0.6852
  993MOL0     H31062   7.618   0.624   6.156  1.5088  0.5890  2.7756
  993MOL0     H31063   7.385   0.529   6.133  1.7293 -0.0817 -1.2581
  993MOL0     H31064   6.966   0.554   6.280 -0.2623  0.3685 -0.6435
  993MOL0     H31065   6.757   0.524   6.164  2.7387  2.3553  0.8740
  993MOL0     H31066   6.688   0.126   5.916 -0.2025 -0.4936 -4.6683
  993MOL0     H31067   6.663   0.257   5.804 -0.7897  1.2664  0.1621
  993MOL0     H31068   6.464   0.131   5.860  1.9714  1.8754 -1.4832
  993MOL0     H31069   6.477   0.164   6.031  0.3635 -0.2045  0.1754
  993MOL0     H31070   6.409   0.353   5.795  0.6664  0.3079  0.4201
  993MOL0     H31071   6.418   0.412   5.963 -1.7064  0.3508  0.5815
  993MOL0     H31072   6.224   0.218   5.835  1.0124 -0.5432 -0.7455
  993MOL0     H31073   6.238   0.208   6.005 -0.8280 -1.2838 -0.6550
  993MOL0     H31074   6.059   0.597   5.943 -0.6692 -0.6578  0.8863
  993MOL0     H31075   6.904   0.175   5.970 -3.0257  0.7519 -1.2517
  993MOL0     H31076   7.122   0.189   6.099  1.3298  1.9575 -2.8197
  994MOL0     O31077   5.263   9.022   5.485  0.2408 -0.0731 -0.3102
  994MOL0     C31078   5.255   9.105   5.574  0.8026 -0.4455  0.1437
  994MOL0     O31079   5.180   9.222   5.571  0.5759  0.0707  0.3858
  994MOL0     C31080   5.073   9.240   5.485 -0.7050 -0.8716  0.3330
  994MOL0     C31081   5.045   9.377   5.446  0.2463  0.4937 -0.9366
  994MOL0     C31082   4.932   9.394   5.371  0.2983 -0.3617 -0.2151
  994MOL0     C31083   4.844   9.293   5.337  0.0418 -0.0974 -0.0039
  994MOL0     O31084   4.736   9.315   5.259 -0.2064  0.0037  0.0266
  994MOL0     C31085   4.742   9.273   5.127 -0.1785 -0.5959 -0.5702
  994MOL0     C31086   4.609   9.246   5.069  0.2044  0.0175  0.6145
  994MOL0     C31087   4.542   9.385   5.040 -0.2191 -0.6873 -1.3864
  994MOL0     C31088   4.398   9.389   4.986 -0.9707  0.4465 -0.3467
  994MOL0     C31089   4.370   9.504   4.887  0.8699 -0.6910  0.0014
  994MOL0     C31090   4.213   9.501   4.851  0.1549  0.5038 -0.2378
  994MOL0     C31091   4.160   9.362   4.805 -0.1799 -0.7212 -0.2427
  994MOL0     C31092   4.024   9.383   4.737 -0.6258 -0.3845 -0.3297
  994MOL0     N31093   3.930   9.464   4.822  1.0521 -0.4861  0.8946
  994MOL0     C31094   3.871   9.411   4.936 -0.5703  0.2199 -0.4165
  994MOL0     C31095   3.818   9.520   4.992  0.2268  0.1107  0.0945
  994MOL0     C31096   3.735   9.519   5.115  0.3229  0.4426 -0.9314
  994MOL0     C31097   3.634   9.633   5.101 -0.5040 -0.5913  0.0372
  994MOL0     C31098   3.537   9.606   5.208 -0.1052  0.4450  0.1232
  994MOL0     C31099   3.412   9.683   5.205 -0.6389 -0.0395 -0.7683
  994MOL0     O31100   3.319   9.622   5.115  1.1693 -0.1996  0.0718
  994MOL0     C31101   3.192   9.658   5.124 -0.0113  0.5783 -0.5739
  994MOL0     C31102   3.097   9.590   5.047  1.0505 -0.4678  0.5777
  994MOL0     C31103   2.963   9.620   5.049 -0.3664  0.0293 -0.7585
  994MOL0     C31104   2.908   9.705   5.145  0.3426 -0.1912 -0.3665
  994MOL0     C31105   2.771   9.725   5.149  0.4000  0.6200  0.3507
  994MOL0     O31106   2.723   9.803   5.258 -1.3064  0.2949 -0.4497
  994MOL0     C31107   2.591   9.819   5.294  0.5553  0.2657 -0.2120
  994MOL0     C31108   2.521   9.705   5.339 -0.2290 -0.4571  0.6234
  994MOL0     C31109   2.388   9.716   5.379 -0.1396  0.3629 -0.7372
  994MOL0     C31110   2.329   9.850   5.393 -0.6412  0.0172 -0.0712
  994MOL0     O31111   2.203   9.870   5.440 -0.0998  0.3358 -0.4196
  994MOL0     C31112   2.167   9.791   5.558  0.7386 -0.5817  0.6296
  994MOL0     C31113   2.025   9.836   5.604 -0.2051  0.4055  0.6324
  994MOL0     C31114   1.997   9.770   5.733  0.3679  0.4096 -0.3039
  994MOL0     C31115   1.864   9.818   5.784  1.0282 -0.2995  0.2072
  994MOL0     C31116   1.733   9.775   5.718  0.6336  0.4932  0.3731
  994MOL0     C31117   1.703   9.625   5.742  0.6515 -0.7124  0.0588
  994MOL0     C31118   1.692   9.599   5.898 -0.0460  0.2960  0.2711
  994MOL0     C31119   1.627   9.463   5.926 -0.3591  0.2172  0.6803
  994MOL0    Cl31120   1.446   9.501   5.922  0.0652 -0.0977 -0.3254
  994MOL0     C31121   2.394   9.963   5.341 -0.2951 -0.3270 -0.6856
  994MOL0     C31122   2.522   9.946   5.290 -0.7014  0.1426 -0.2521
  994MOL0     O31123   2.697   9.667   5.066 -0.0757 -1.4385  0.2581
  994MOL0     C31124   2.997   9.766   5.237 -0.4490  0.4626 -0.0389
  994MOL0     C31125   3.138   9.749   5.219 -0.3794 -0.8331  0.0046
  994MOL0     N31126   3.855   9.639   4.931 -0.2611  0.0644  0.0061
  994MOL0     N31127   3.924   9.602   4.833 -0.2108  0.1668  0.1258
  994MOL0     C31128   4.866   9.163   5.398  0.2844  0.2031 -0.2093
  994MOL0     C31129   4.981   9.139   5.466 -0.7450 -0.6522  0.0486
  994MOL0     C31130   5.365   9.091   5.681  0.1563 -0.4121  0.1393
  994MOL0     C31131   5.402   8.966   5.735 -0.1764  0.4258 -0.0783
  994MOL0     C31132   5.509   8.949   5.827  1.2900 -0.2560  0.2425
  994MOL0     C31133   5.587   9.052   5.871  0.4650  0.6590  0.8491
  994MOL0     O31134   5.698   9.024   5.945 -0.4781  0.4137 -0.2001
  994MOL0     C31135   5.777   9.134   5.992 -0.1035  0.0185 -0.4523
  994MOL0     C31136   5.892   9.079   6.085  0.7006 -0.7326 -0.7401
  994MOL0     C31137   5.980   9.194   6.110  0.4303  0.5747 -1.2305
  994MOL0     C31138   6.110   9.167   6.191  1.0766  0.4355  0.1285
  994MOL0     C31139   6.210   9.097   6.113 -0.5660  0.1595  0.0208
  994MOL0     C31140   6.283   9.014   6.056  0.8269  0.0961 -0.3998
  994MOL0     C31141   5.534   9.175   5.836  0.9502  0.7031  0.5400
  994MOL0     C31142   5.425   9.202   5.739  0.1140  0.2367  0.4467
  994MOL0     H31143   5.108   9.458   5.483 -0.1946  0.0330  0.9472
  994MOL0     H31144   4.901   9.494   5.342  0.7138 -0.4423 -0.9547
  994MOL0     H31145   4.800   9.180   5.124  0.1223 -0.4866  1.1103
  994MOL0     H31146   4.787   9.348   5.061 -0.8850  0.7353  0.4193
  994MOL0     H31147   4.554   9.186   5.141 -1.4631  0.9221  0.1405
  994MOL0     H31148   4.630   9.199   4.973 -2.0754  0.8836 -0.3718
  994MOL0     H31149   4.594   9.451   4.971 -0.9877 -0.5716 -1.8745
  994MOL0     H31150   4.544   9.439   5.135  1.0171  0.2072 -1.8981
  994MOL0     H31151   4.371   9.292   4.944 -0.1971  0.1141 -0.1080
  994MOL0     H31152   4.328   9.417   5.066  0.1668  1.3874  0.3535
  994MOL0     H31153   4.412   9.497   4.786 -1.9415  2.4719 -1.5892
  994MOL0     H31154   4.405   9.599   4.927 -0.9408  0.2524 -0.5034
  994MOL0     H31155   4.181   9.575   4.776  2.1311  1.4528 -0.2049
  994MOL0     H31156   4.157   9.529   4.940  1.1736  2.8517 -0.2691
  994MOL0     H31157   4.231   9.324   4.731 -2.2326 -1.7704 -1.7784
  994MOL0     H31158   4.146   9.290   4.886 -3.9336  0.7747  0.6469
  994MOL0     H31159   3.982   9.285   4.712  0.6479 -0.8480 -0.7335
  994MOL0     H31160   4.036   9.435   4.642 -0.4798  0.3705  0.0976
  994MOL0     H31161   3.851   9.309   4.967 -1.2614  0.0730 -1.2860
  994MOL0     H31162   3.805   9.539   5.197 -1.6184  0.8336  0.7036
  994MOL0     H31163   3.683   9.425   5.134 -2.0073  1.7245 -0.5956
  994MOL0     H31164   3.579   9.632   5.006 -0.9346 -1.3167  0.2826
  994MOL0     H31165   3.667   9.737   5.109 -1.7700 -0.3188  3.5208
  994MOL0     H31166   3.500   9.504   5.198 -3.8801  1.7016 -0.3032
  994MOL0     H31167   3.594   9.618   5.301 -1.8364  0.7075  1.2038
  994MOL0     H31168   3.446   9.786   5.187  3.3142  0.3154  5.5503
  994MOL0     H31169   3.372   9.695   5.306 -1.5015  0.5969 -1.1692
  994MOL0     H31170   3.135   9.514   4.980  2.2438 -2.0817  2.9649
  994MOL0     H31171   2.900   9.577   4.971 -1.8036 -1.1805  0.9731
  994MOL0     H31172   2.574   9.611   5.332 -1.3440 -1.1534  1.3174
  994MOL0     H31173   2.341   9.623   5.411 -1.5116  1.1316 -0.4790
  994MOL0     H31174   2.241   9.806   5.637 -0.2479  1.5356  1.2213
  994MOL0     H31175   2.165   9.687   5.525 -0.8719 -0.7338  1.1037
  994MOL0     H31176   1.949   9.813   5.529 -0.3546  0.8733  0.6345
  994MOL0     H31177   2.021   9.944   5.622  3.5444  0.9586 -1.0228
  994MOL0     H31178   2.064   9.805   5.812 -0.2921  2.5704 -0.6572
  994MOL0     H31179   2.004   9.661   5.732  0.5428  0.3600  1.4725
  994MOL0     H31180   1.870   9.810   5.893 -1.7527 -1.0053  0.3997
  994MOL0     H31181   1.859   9.927   5.778  2.8695 -0.0844  1.6804
  994MOL0     H31182   1.745   9.791   5.611  0.4800  1.2146  0.4580
  994MOL0     H31183   1.653   9.841   5.752 -0.9229 -0.4892 -1.2324
  994MOL0     H31184   1.784   9.563   5.703 -0.5619 -1.2925 -1.6706
  994MOL0     H31185   1.613   9.587   5.692  0.5506 -0.1312 -0.2156
  994MOL0     H31186   1.790   9.609   5.945  0.0983 -0.2715  0.1013
  994MOL0     H31187   1.632   9.673   5.951  0.5902  0.4953  0.7255
  994MOL0     H31188   1.650   9.429   6.027 -3.6537 -4.2409  0.2403
  994MOL0     H31189   1.645   9.397   5.840  1.2718 -0.8494  1.7785
  994MOL0     H31190   2.343  10.059   5.334 -0.5560 -0.2967  1.2992
  994MOL0     H31191   2.581  10.029   5.250  0.7819 -0.4181  0.6821
  994MOL0     H31192   2.949   9.838   5.303 -2.9195 -0.8150 -0.3123
  994MOL0     H31193   3.200   9.802   5.290 -1.1666 -1.4814  1.2039
  994MOL0     H31194   4.781   9.096   5.389  0.0975  0.0951  1.9017
  994MOL0     H31195   4.992   9.034   5.491  1.2131 -1.4158 -3.3972
  994MOL0     H31196   5.340   8.878   5.719  1.1252 -0.5883  0.2320
  994MOL0     H31197   5.539   8.851   5.862  0.3299 -0.5905  0.1394
  994MOL0     H31198   5.708   9.187   6.058 -1.9801 -2.0177 -0.6681
  994MOL0     H31199   5.809   9.211   5.921 -1.4706  1.1883  0.1471
  994MOL0     H31200   5.855   9.047   6.183  1.9388  3.8432  1.5092
  994MOL0     H31201   5.951   8.995   6.047  1.8552 -1.0715  1.6342
  994MOL0     H31202   5.920   9.268   6.165  0.4691 -0.6868  0.6136
  994MOL0     H31203   6.007   9.230   6.011  1.3735 -0.2031 -1.2765
  994MOL0     H31204   6.147   9.265   6.224 -0.3235  0.7055  1.0165
  994MOL0     H31205   6.072   9.102   6.271 -1.4838  0.2248 -1.1508
  994MOL0     H31206   6.336   8.933   6.010  0.8530  0.1861 -0.5297
  994MOL0     H31207   5.576   9.260   5.889  1.5701  1.2718 -0.8177
  994MOL0     H31208   5.409   9.304   5.708  1.5321  0.7264  1.2391
  995MOL0     O31209   5.684   5.714  11.255 -0.7820  0.0314 -1.1621
  995MOL0     C31210   5.736   5.651  11.351 -0.2953  0.1051 -0.3373
  995MOL0     O31211   5.673   5.632  11.472 -0.3145 -0.2685  0.3975
  995MOL0     C31212   5.540   5.657  11.491 -0.0086 -0.5094  0.0571
  995MOL0     C31213   5.456   5.549  11.492 -0.3433  1.1861 -0.6267
  995MOL0     C31214   5.318   5.557  11.507  0.4789 -0.7703 -0.2682
  995MOL0     C31215   5.255   5.691  11.520 -0.4355 -0.0955 -0.4078
  995MOL0     O31216   5.118   5.706  11.531  0.2258  0.1662 -0.3553
  995MOL0     C31217   5.078   5.818  11.608 -0.0741  0.2392 -0.2508
  995MOL0     C31218   4.933   5.796  11.660 -0.5934  0.4272  0.1202
  995MOL0     C31219   4.836   5.750  11.551 -0.4945  0.6262  0.9740
  995MOL0     C31220   4.692   5.730  11.607  0.2315  0.9587 -0.1755
  995MOL0     C31221   4.595   5.687  11.498 -0.6570 -0.7610  0.0197
  995MOL0     C31222   4.442   5.704  11.512  0.1156 -0.9793 -0.3672
  995MOL0     C31223   4.378   5.638  11.391 -0.2756  0.9154 -0.5457
  995MOL0     C31224   4.248   5.706  11.362 -0.9935  1.1814 -0.5509
  995MOL0     N31225   4.203   5.649  11.224 -1.1230 -0.0094 -0.3646
  995MOL0     C31226   4.091   5.576  11.203  0.1895 -0.4181 -0.5945
  995MOL0     C31227   4.105   5.524  11.082 -0.0624 -0.2245  0.6001
  995MOL0     C31228   3.978   5.448  11.018 -0.8161  0.3649  0.0405
  995MOL0     C31229   3.903   5.551  10.937  0.0160  0.5966  0.9305
  995MOL0     C31230   3.766   5.502  10.889 -0.4893  1.1771 -0.0729
  995MOL0     C31231   3.688   5.600  10.810 -0.2860  0.8116  0.9104
  995MOL0     O31232   3.600   5.524  10.730  1.1686 -0.7067  0.0046
  995MOL0     C31233   3.517   5.586  10.648 -0.4654 -0.3489 -0.2120
  995MOL0     C31234   3.502   5.723  10.636  0.6360 -1.0390 -0.1450
  995MOL0     C31235   3.392   5.780  10.573 -0.3293  0.6120 -0.0688
  995MOL0     C31236   3.300   5.705  10.502 -0.3522 -0.2991 -0.4029
  995MOL0     C31237   3.193   5.767  10.429 -0.0937  0.0514 -0.8743
  995MOL0     O31238   3.087   5.685  10.410  0.0807  0.0624 -0.2487
  995MOL0     C31239   2.980   5.719  10.332  0.1183 -0.3463 -0.4416
  995MOL0     C31240   2.953   5.646  10.219 -1.0359  0.4284  0.5530
  995MOL0     C31241   2.866   5.691  10.125  0.4882  0.4998  0.2423
  995MOL0     C31242   2.791   5.809  10.153 -0.9137 -0.1751 -0.1787
  995MOL0     O31243   2.690   5.844  10.067 -0.3744 -0.1883 -0.1841
  995MOL0     C31244   2.725   5.951   9.978 -0.1598  0.0824  0.2336
  995MOL0     C31245   2.606   6.043   9.955  0.7425  1.2929 -0.8096
  995MOL0     C31246   2.659   6.168   9.886 -0.0545  0.3560 -0.0576
  995MOL0     C31247   2.545   6.260   9.857  0.1599  0.1499 -0.1488
  995MOL0     C31248   2.604   6.394   9.814  0.3927  0.2315  0.1520
  995MOL0     C31249   2.495   6.494   9.814 -0.0456  0.2917 -0.5330
  995MOL0     C31250   2.544   6.635   9.799  0.3067  0.5377  0.3882
  995MOL0     C31251   2.646   6.658   9.683  1.1277 -0.5876 -0.1921
  995MOL0    Cl31252   2.601   6.593   9.525 -0.0950 -0.2518 -0.3650
  995MOL0     C31253   2.810   5.876  10.275 -0.1492 -0.2941  0.2242
  995MOL0     C31254   2.901   5.830  10.374 -0.6760  0.4985  0.5657
  995MOL0     O31255   3.203   5.882  10.385 -0.4617 -0.1219 -0.0407
  995MOL0     C31256   3.329   5.568  10.499  0.1422 -0.2590  0.1407
  995MOL0     C31257   3.430   5.506  10.574  0.1201 -0.3532 -0.2454
  995MOL0     N31258   4.218   5.572  11.018 -0.1866 -0.0055 -0.2266
  995MOL0     N31259   4.280   5.632  11.108  0.9650  0.6368 -0.7467
  995MOL0     C31260   5.343   5.799  11.518 -0.2435  0.2376  0.3860
  995MOL0     C31261   5.486   5.783  11.508  0.9981 -0.3551 -0.7861
  995MOL0     C31262   5.876   5.610  11.333 -0.6157 -0.3140  0.2137
  995MOL0     C31263   5.951   5.565  11.446  0.3900 -0.2633  0.1001
  995MOL0     C31264   6.083   5.528  11.441  0.9083 -0.5241  0.7552
  995MOL0     C31265   6.143   5.517  11.313 -0.0024 -0.2104 -0.0709
  995MOL0     O31266   6.270   5.477  11.281 -0.0212 -0.3221 -0.4442
  995MOL0     C31267   6.348   5.422  11.388 -0.2242 -0.3995  0.1451
  995MOL0     C31268   6.485   5.396  11.332 -0.3546 -0.2289 -1.0089
  995MOL0     C31269   6.492   5.278  11.232 -0.9729 -0.0455  0.5177
  995MOL0     C31270   6.631   5.275  11.157 -0.7820 -0.5049  0.2075
  995MOL0     C31271   6.737   5.255  11.249  0.8838  1.1265  0.8134
  995MOL0     C31272   6.823   5.240  11.330 -1.2883  1.1825  0.5336
  995MOL0     C31273   6.073   5.563  11.195 -0.3359 -0.0324 -0.7752
  995MOL0     C31274   5.936   5.611  11.208 -0.7087  0.1272 -0.1680
  995MOL0     H31275   5.498   5.449  11.495  0.2218  1.3479 -2.2319
  995MOL0     H31276   5.258   5.468  11.516 -1.6204  0.2435 -3.0656
  995MOL0     H31277   5.079   5.904  11.541  0.3721 -0.5561 -1.3066
  995MOL0     H31278   5.154   5.833  11.685 -0.0988  1.5996 -0.4685
  995MOL0     H31279   4.886   5.883  11.705  1.2147  1.8147 -0.5781
  995MOL0     H31280   4.940   5.721  11.739  2.3068  2.8294  2.3607
  995MOL0     H31281   4.870   5.660  11.499  0.9186  1.3237  0.6470
  995MOL0     H31282   4.821   5.820  11.469  1.1542 -0.8962 -0.7171
  995MOL0     H31283   4.706   5.657  11.688 -0.4056 -0.6685 -1.4888
  995MOL0     H31284   4.662   5.829  11.641 -3.3611  0.4114 -1.3536
  995MOL0     H31285   4.607   5.580  11.477  0.2113 -0.9219  1.2355
  995MOL0     H31286   4.626   5.739  11.407 -0.4884 -0.2726  0.3554
  995MOL0     H31287   4.410   5.808  11.526 -0.6614 -1.1375 -0.9360
  995MOL0     H31288   4.411   5.654  11.604  0.4034  0.9429  0.8224
  995MOL0     H31289   4.440   5.651  11.302 -1.8237 -1.4873 -2.1190
  995MOL0     H31290   4.365   5.531  11.410  0.8039  0.6571 -1.1931
  995MOL0     H31291   4.265   5.814  11.353  0.7871  1.1864  1.8630
  995MOL0     H31292   4.169   5.681  11.434  0.0575 -0.2200  0.1609
  995MOL0     H31293   4.008   5.559  11.272 -0.7008  1.1367 -1.2237
  995MOL0     H31294   3.911   5.417  11.099 -2.1608  0.4705 -1.0154
  995MOL0     H31295   4.017   5.368  10.954 -1.5914 -0.1632  0.2232
  995MOL0     H31296   3.963   5.571  10.848 -0.0629  1.3389  1.0363
  995MOL0     H31297   3.889   5.643  10.994  0.7495  1.7869 -0.7220
  995MOL0     H31298   3.779   5.415  10.824  1.1653  0.3736  1.2779
  995MOL0     H31299   3.712   5.479  10.981  1.2563  2.8677  1.4415
  995MOL0     H31300   3.758   5.667  10.760  1.3558  0.6550  2.8528
  995MOL0     H31301   3.635   5.655  10.889  0.2664  1.3440  0.9080
  995MOL0     H31302   3.564   5.792  10.693 -3.1436  0.7085  2.2308
  995MOL0     H31303   3.391   5.888  10.578  0.9215  0.5782  2.0541
  995MOL0     H31304   3.011   5.555  10.202  0.4491  1.5081 -0.4516
  995MOL0     H31305   2.856   5.623  10.041  2.3365  1.1442 -0.5671
  995MOL0     H31306   2.774   5.920   9.885 -0.0679  2.7037 -0.6618
  995MOL0     H31307   2.803   6.010  10.028  1.8948 -1.4717 -0.9730
  995MOL0     H31308   2.554   6.081  10.043 -0.8792  3.8427 -2.7201
  995MOL0     H31309   2.531   5.993   9.893  0.0909  0.0476  0.9204
  995MOL0     H31310   2.708   6.133   9.794 -2.2605  0.6642 -1.4243
  995MOL0     H31311   2.731   6.217   9.952  1.7565 -2.5820  0.3300
  995MOL0     H31312   2.485   6.219   9.775 -2.7267 -1.1747  2.4341
  995MOL0     H31313   2.480   6.268   9.944  0.6416  1.3215  0.1159
  995MOL0     H31314   2.652   6.400   9.715 -3.7845  1.8044 -2.0235
  995MOL0     H31315   2.669   6.429   9.895 -0.7986  1.8833  0.4540
  995MOL0     H31316   2.442   6.489   9.910  2.0852  1.5094  0.7694
  995MOL0     H31317   2.411   6.473   9.747 -1.5854 -0.2013  1.4536
  995MOL0     H31318   2.471   6.711   9.770  1.5488  1.1986 -1.1590
  995MOL0     H31319   2.592   6.656   9.895 -0.1523  0.2486  0.6837
  995MOL0     H31320   2.743   6.617   9.713  0.0941 -2.3600  0.9404
  995MOL0     H31321   2.659   6.766   9.683 -1.3970 -0.1087  3.0917
  995MOL0     H31322   2.758   5.969  10.294  0.2895 -0.4776  2.6951
  995MOL0     H31323   2.906   5.878  10.471 -0.9349  2.6910 -0.4459
  995MOL0     H31324   3.269   5.498  10.442 -0.4849 -0.0499  0.5312
  995MOL0     H31325   3.456   5.401  10.570  4.3094  0.5038 -0.0564
  995MOL0     H31326   5.322   5.902  11.546  5.1289  1.6727  0.2427
  995MOL0     H31327   5.553   5.866  11.529  0.9864 -0.0533 -1.9096
  995MOL0     H31328   5.902   5.573  11.542 -2.4518 -0.0858 -1.2860
  995MOL0     H31329   6.125   5.509  11.539 -0.5119 -1.1222  1.2789
  995MOL0     H31330   6.297   5.333  11.427  0.0305  0.2339  2.0207
  995MOL0     H31331   6.356   5.484  11.477 -0.9073 -0.2096  0.0812
  995MOL0     H31332   6.521   5.491  11.293 -2.5462  0.4968 -1.4506
  995MOL0     H31333   6.547   5.395  11.422 -1.9999  5.0398  0.5709
  995MOL0     H31334   6.408   5.282  11.162 -2.5863  0.2151  2.3859
  995MOL0     H31335   6.478   5.187  11.292 -0.6583 -0.4544 -0.0232
  995MOL0     H31336   6.635   5.210  11.070 -2.3336  1.3684 -1.3617
  995MOL0     H31337   6.645   5.375  11.116 -0.4532 -0.4158  0.5318
  995MOL0     H31338   6.896   5.238  11.409  0.7006 -0.1484 -1.2108
  995MOL0     H31339   6.114   5.548  11.096 -2.4005  1.9425 -2.0188
  995MOL0     H31340   5.878   5.636  11.119 -0.5143 -1.5663 -0.8001
  996MOL0     O31341   9.092   2.459   7.282  0.3016 -0.5675  0.2054
  996MOL0     C31342   9.180   2.499   7.354 -1.1373 -0.4110  0.5960
  996MOL0     O31343   9.171   2.591   7.450 -0.0457 -0.8307 -0.5420
  996MOL0     C31344   9.054   2.653   7.482  0.6188 -0.1983  0.1510
  996MOL0     C31345   9.070   2.756   7.577 -0.6042 -0.1401  0.4858
  996MOL0     C31346   8.970   2.831   7.634 -0.7877 -0.2069  0.3376
  996MOL0     C31347   8.842   2.797   7.596  0.1442 -0.4342 -0.3813
  996MOL0     O31348   8.735   2.874   7.635  0.4205  0.0724  0.2560
  996MOL0     C31349   8.759   3.015   7.629  0.2557 -0.0984 -0.2402
  996MOL0     C31350   8.621   3.086   7.632  0.4477  0.7154  0.5837
  996MOL0     C31351   8.531   3.053   7.520  0.2365  0.1561  0.0559
  996MOL0     C31352   8.382   3.116   7.539 -0.4778  0.4633  0.3463
  996MOL0     C31353   8.287   3.048   7.422 -0.1241 -0.5347 -0.3497
  996MOL0     C31354   8.138   3.078   7.448  0.0195  0.5506 -0.1500
  996MOL0     C31355   8.107   3.220   7.398  0.4674 -0.3348 -0.6292
  996MOL0     C31356   7.970   3.278   7.443  0.7696 -0.2901  0.1197
  996MOL0     N31357   7.873   3.180   7.400  0.2208 -0.8516 -0.2690
  996MOL0     C31358   7.819   3.165   7.265  0.6872 -0.2063 -0.6521
  996MOL0     C31359   7.715   3.080   7.277  0.2076 -0.5599 -0.3791
  996MOL0     C31360   7.634   3.023   7.169 -0.3305  0.4402  0.3731
  996MOL0     C31361   7.483   3.025   7.216  0.1326 -0.7764 -0.1783
  996MOL0     C31362   7.403   2.962   7.098 -0.2871  0.9805  0.4703
  996MOL0     C31363   7.255   2.959   7.119  0.6611 -0.5838 -0.2172
  996MOL0     O31364   7.201   3.092   7.129 -0.1205 -0.7403 -1.3204
  996MOL0     C31365   7.063   3.104   7.152 -0.9631  0.3491  1.0968
  996MOL0     C31366   6.977   2.998   7.148  0.3672  0.1209  0.3332
  996MOL0     C31367   6.843   3.018   7.168  0.3626 -0.0817  0.3954
  996MOL0     C31368   6.790   3.137   7.206 -0.0057 -1.0477  0.6216
  996MOL0     C31369   6.647   3.155   7.256 -0.2054 -0.4854 -0.1395
  996MOL0     O31370   6.608   3.271   7.320 -0.2138  0.0585  0.2625
  996MOL0     C31371   6.497   3.269   7.408 -0.2051  0.1365  0.0720
  996MOL0     C31372   6.517   3.308   7.539  0.3858  0.1524 -0.0866
  996MOL0     C31373   6.404   3.338   7.621  0.2443 -0.4997 -0.1206
  996MOL0     C31374   6.272   3.323   7.577 -0.0589  0.4033 -0.3441
  996MOL0     O31375   6.162   3.344   7.655 -0.9613 -0.2775  0.1929
  996MOL0     C31376   6.183   3.339   7.794  0.1549  0.1653 -0.6707
  996MOL0     C31377   6.060   3.321   7.884  1.4571 -0.3258 -0.2414
  996MOL0     C31378   5.938   3.310   7.793  0.1700  0.3063  0.4351
  996MOL0     C31379   5.794   3.300   7.858 -0.5338  1.4581 -0.9153
  996MOL0     C31380   5.682   3.310   7.764 -0.6743 -0.1831 -0.4514
  996MOL0     C31381   5.652   3.174   7.701  0.6011 -0.0431  0.6030
  996MOL0     C31382   5.567   3.187   7.577 -0.3011 -0.4167 -0.0854
  996MOL0     C31383   5.457   3.087   7.570 -0.1040  0.4250 -0.1528
  996MOL0    Cl31384   5.333   3.107   7.705  0.1312  0.0429 -0.2901
  996MOL0     C31385   6.258   3.270   7.448 -0.1042  0.7035  0.1810
  996MOL0     C31386   6.366   3.242   7.368 -0.4503  0.2543 -0.5806
  996MOL0     O31387   6.570   3.056   7.238  0.4491  0.4482 -0.5578
  996MOL0     C31388   6.872   3.247   7.206  0.2001  0.2252  0.2069
  996MOL0     C31389   7.009   3.223   7.176 -1.1247 -0.5624 -0.5981
  996MOL0     N31390   7.701   3.040   7.414  0.2799  0.5985  0.1558
  996MOL0     N31391   7.793   3.097   7.489 -0.1461  0.1213  0.1066
  996MOL0     C31392   8.815   2.688   7.505 -0.5157  0.1874 -0.4985
  996MOL0     C31393   8.920   2.621   7.443 -0.0723  0.3981  0.5426
  996MOL0     C31394   9.318   2.451   7.321  0.0963  0.8096  0.0727
  996MOL0     C31395   9.425   2.514   7.376  0.7854 -0.1925 -0.6602
  996MOL0     C31396   9.556   2.479   7.348  0.8714  0.0761 -0.3788
  996MOL0     C31397   9.576   2.360   7.269  0.4639  0.4771  0.3452
  996MOL0     O31398   9.700   2.307   7.236 -0.1621  0.8021 -0.4246
  996MOL0     C31399   9.798   2.333   7.335  1.2799  0.0801 -0.1733
  996MOL0     C31400   9.924   2.267   7.282 -0.5367  0.5715 -0.2389
  996MOL0     C31401  10.055   2.312   7.345 -0.1835  0.9918 -0.0736
  996MOL0     C31402  10.162   2.229   7.267 -0.5187 -1.1388  1.0809
  996MOL0     C31403  10.291   2.218   7.332  0.6233  0.0955 -0.9574
  996MOL0     C31404  10.398   2.210   7.388  0.1193 -0.3343  0.1411
  996MOL0     C31405   9.462   2.298   7.217  0.0661 -0.0702 -0.7033
  996MOL0     C31406   9.336   2.344   7.240  0.8002 -0.2067 -0.1847
  996MOL0     H31407   9.172   2.785   7.599 -0.8538  1.8368 -0.7266
  996MOL0     H31408   9.004   2.914   7.694 -3.5169  0.8424  0.5553
  996MOL0     H31409   8.803   3.041   7.532 -3.3753 -1.5476 -2.4469
  996MOL0     H31410   8.828   3.038   7.710 -0.0565 -0.1737  0.0478
  996MOL0     H31411   8.629   3.194   7.624  2.3872  0.5263 -0.6185
  996MOL0     H31412   8.566   3.062   7.723 -2.6372  2.5587 -0.6308
  996MOL0     H31413   8.525   2.944   7.519 -3.9735  0.0982 -4.0337
  996MOL0     H31414   8.572   3.063   7.419  1.5610 -2.9465  0.1652
  996MOL0     H31415   8.348   3.087   7.639 -0.0489  3.0326  1.2923
  996MOL0     H31416   8.395   3.224   7.531  0.8788  0.3291  0.4790
  996MOL0     H31417   8.302   2.940   7.429  4.7304  0.0067  3.0244
  996MOL0     H31418   8.320   3.098   7.331  0.3340  1.4170  0.8188
  996MOL0     H31419   8.120   3.070   7.555 -0.9110  0.9425 -0.2617
  996MOL0     H31420   8.066   3.007   7.407 -0.4312 -0.1101  1.7196
  996MOL0     H31421   8.195   3.269   7.440  1.0283 -0.8043 -1.2306
  996MOL0     H31422   8.111   3.229   7.289  1.0527 -1.0597 -0.6701
  996MOL0     H31423   7.951   3.375   7.396  1.7715  1.4481  3.0199
  996MOL0     H31424   7.963   3.287   7.552  0.3345 -4.0269  0.5365
  996MOL0     H31425   7.862   3.199   7.172 -1.8148  2.7403 -0.8724
  996MOL0     H31426   7.676   2.923   7.154  1.3780  0.7079  2.7936
  996MOL0     H31427   7.648   3.083   7.078 -0.2482  0.8428  0.6448
  996MOL0     H31428   7.455   3.129   7.234 -1.2321 -1.2981  0.8408
  996MOL0     H31429   7.468   2.974   7.311 -0.3180  1.0758  0.7907
  996MOL0     H31430   7.423   3.014   7.004  2.6108  0.7661  0.8795
  996MOL0     H31431   7.443   2.862   7.080 -1.0356  0.7673 -0.0689
  996MOL0     H31432   7.228   2.909   7.213 -0.4469 -0.2718 -0.3548
  996MOL0     H31433   7.206   2.913   7.032 -1.8226  1.4027  0.0013
  996MOL0     H31434   7.006   2.901   7.109 -2.3683  0.0323 -1.7549
  996MOL0     H31435   6.777   2.934   7.182 -2.3610  1.9649  0.7557
  996MOL0     H31436   6.620   3.338   7.558  0.8572 -0.2599 -1.7978
  996MOL0     H31437   6.425   3.378   7.720 -0.9590 -1.5281  0.5749
  996MOL0     H31438   6.230   3.434   7.822  0.8809 -0.5151  0.5115
  996MOL0     H31439   6.245   3.252   7.817 -1.1571 -0.7808 -0.5809
  996MOL0     H31440   6.047   3.409   7.948 -0.9309  1.1668 -2.5361
  996MOL0     H31441   6.072   3.226   7.937 -1.5430 -1.1657 -0.8776
  996MOL0     H31442   5.957   3.228   7.723  2.1006 -0.2712  1.5407
  996MOL0     H31443   5.936   3.397   7.727  1.3050 -0.3262 -0.4912
  996MOL0     H31444   5.799   3.209   7.918  0.9422  1.2707 -1.2908
  996MOL0     H31445   5.794   3.382   7.931  2.9710  0.3765  0.5449
  996MOL0     H31446   5.706   3.390   7.693  2.7584  0.7938  1.5903
  996MOL0     H31447   5.597   3.341   7.826  0.4238 -0.2907  1.1730
  996MOL0     H31448   5.601   3.113   7.776 -0.5539 -2.3832 -1.9117
  996MOL0     H31449   5.740   3.118   7.668  0.1545 -1.3498  1.5027
  996MOL0     H31450   5.530   3.290   7.567 -0.6786 -0.7504 -2.9599
  996MOL0     H31451   5.630   3.176   7.489  1.9652  0.5089  1.3530
  996MOL0     H31452   5.512   2.993   7.568 -1.9108 -0.6646 -0.4145
  996MOL0     H31453   5.410   3.088   7.471 -0.1208  0.7466 -0.1420
  996MOL0     H31454   6.158   3.258   7.408 -0.6155  1.3099  1.2290
  996MOL0     H31455   6.346   3.199   7.271 -2.6580 -1.6446  0.6111
  996MOL0     H31456   6.832   3.347   7.214  0.0053  0.0696  1.3632
  996MOL0     H31457   7.074   3.304   7.207 -0.7474 -1.6738  1.7626
  996MOL0     H31458   8.713   2.655   7.489 -0.3059  0.0017 -1.4488
  996MOL0     H31459   8.895   2.545   7.369 -3.6368  1.8364  0.0662
  996MOL0     H31460   9.422   2.599   7.444  3.3662 -0.2227 -0.4177
  996MOL0     H31461   9.636   2.537   7.393 -0.0446  2.4642 -1.6503
  996MOL0     H31462   9.783   2.297   7.438  3.0474  0.0228  0.0972
  996MOL0     H31463   9.805   2.442   7.335  1.9803  0.2487  4.5072
  996MOL0     H31464   9.917   2.161   7.306 -0.6257  1.0005  1.8224
  996MOL0     H31465   9.927   2.284   7.174 -0.9436  0.5517 -0.2544
  996MOL0     H31466  10.066   2.293   7.453 -2.1498 -0.8794 -0.1284
  996MOL0     H31467  10.074   2.419   7.337 -2.6840  1.3764 -2.1417
  996MOL0     H31468  10.131   2.128   7.239 -0.2230 -1.2096  0.9984
  996MOL0     H31469  10.177   2.284   7.173 -0.0289 -1.6515  0.8487
  996MOL0     H31470  10.497   2.196   7.427  0.2799 -1.1682 -0.5346
  996MOL0     H31471   9.471   2.211   7.152  1.8781 -0.6548  0.2428
  996MOL0     H31472   9.252   2.300   7.187 -0.6338  4.8675 -2.7403
  997MOL0     O31473   1.175   2.909   3.817 -0.0587 -0.1199 -0.0700
  997MOL0     C31474   1.221   2.805   3.768 -0.0452 -0.3871 -0.1849
  997MOL0     O31475   1.142   2.696   3.726  0.4620  0.1905  0.1735
  997MOL0     C31476   1.010   2.719   3.711 -0.8430  0.0696  0.3860
  997MOL0     C31477   0.968   2.799   3.604 -0.9257 -0.0747 -0.1460
  997MOL0     C31478   0.839   2.844   3.607 -0.9386 -0.2462 -0.5474
  997MOL0     C31479   0.744   2.795   3.700  0.6519 -1.5364 -0.2562
  997MOL0     O31480   0.620   2.842   3.676  0.1351 -1.0231 -0.3978
  997MOL0     C31481   0.519   2.778   3.744  0.4361 -0.4349 -0.3562
  997MOL0     C31482   0.389   2.812   3.670  0.2334  0.0857  0.2543
  997MOL0     C31483   0.258   2.816   3.759  0.0412  0.6260  0.4104
  997MOL0     C31484   0.140   2.863   3.671 -0.7085 -0.2141  0.5264
  997MOL0     C31485   0.009   2.843   3.752  0.2615  0.6582  0.4105
  997MOL0     C31486  -0.016   2.961   3.841 -0.4282 -0.4773  0.0847
  997MOL0     C31487  -0.162   2.949   3.899 -0.0128  0.5933  0.3644
  997MOL0     C31488  -0.193   3.058   3.998  0.1980  0.2061 -0.5027
  997MOL0     N31489  -0.320   3.047   4.061 -0.0508 -0.3123  0.0724
  997MOL0     C31490  -0.350   2.992   4.180 -0.2819  0.0618  0.5949
  997MOL0     C31491  -0.473   3.034   4.202 -0.3008 -0.2509  0.4032
  997MOL0     C31492  -0.556   2.997   4.320 -0.2142  0.0502  0.9049
  997MOL0     C31493  -0.684   2.928   4.265 -0.2907 -0.7767 -0.1956
  997MOL0     C31494  -0.758   2.865   4.379  0.1473  0.2780  0.5115
  997MOL0     C31495  -0.864   2.961   4.442 -1.3326 -0.5151  0.1466
  997MOL0     O31496  -0.932   2.884   4.539  0.1373 -0.6269  0.0033
  997MOL0     C31497  -1.057   2.930   4.593 -0.8126 -0.0381 -0.0413
  997MOL0     C31498  -1.102   3.062   4.589 -0.7434  0.0404 -0.0115
  997MOL0     C31499  -1.225   3.099   4.643  0.0296 -0.0315 -0.4056
  997MOL0     C31500  -1.299   3.014   4.727 -0.4624 -0.4134 -0.1639
  997MOL0     C31501  -1.419   3.064   4.802 -0.0538  0.4473 -0.0466
  997MOL0     O31502  -1.490   2.970   4.870  0.6217 -0.4095  0.0826
  997MOL0     C31503  -1.589   3.005   4.962 -0.0323  0.1799  0.0326
  997MOL0     C31504  -1.701   2.926   4.957 -0.6011 -0.7056 -0.5032
  997MOL0     C31505  -1.814   2.937   5.042 -0.2215  0.3634  0.7777
  997MOL0     C31506  -1.794   3.023   5.152  0.4937  0.3231 -0.7956
  997MOL0     O31507  -1.897   3.027   5.244 -0.4709 -0.6936 -0.3733
  997MOL0     C31508  -1.994   3.127   5.210  0.0291 -0.4671  0.4518
  997MOL0     C31509  -2.126   3.108   5.294  0.5541 -0.2761 -0.6679
  997MOL0     C31510  -2.166   2.958   5.280  0.4725 -0.2468  0.2528
  997MOL0     C31511  -2.304   2.933   5.349 -0.4547  0.6049 -0.3666
  997MOL0     C31512  -2.332   2.784   5.328  0.2031  0.6940 -0.4413
  997MOL0     C31513  -2.465   2.750   5.399 -0.5888  0.0394 -0.0477
  997MOL0     C31514  -2.462   2.607   5.454 -1.1699 -0.3170  0.2101
  997MOL0     C31515  -2.565   2.582   5.563 -0.2219  1.0584 -0.7434
  997MOL0    Cl31516  -2.509   2.442   5.669 -0.1024 -0.7006 -0.1731
  997MOL0     C31517  -1.671   3.096   5.171 -0.8799  0.3928  0.1916
  997MOL0     C31518  -1.572   3.094   5.064  0.7725 -0.1721  0.6482
  997MOL0     O31519  -1.451   3.180   4.791 -0.3093  0.0428 -0.1297
  997MOL0     C31520  -1.254   2.879   4.736 -0.5494 -0.4415  0.9669
  997MOL0     C31521  -1.136   2.838   4.665  0.3866 -0.1993 -0.8835
  997MOL0     N31522  -0.516   3.110   4.100 -0.4994  0.9639 -0.5133
  997MOL0     N31523  -0.429   3.104   4.008 -0.4048 -0.4200  0.3723
  997MOL0     C31524   0.792   2.707   3.802 -0.0965  0.0879 -0.0910
  997MOL0     C31525   0.923   2.671   3.806 -1.5627 -0.6687  0.6129
  997MOL0     C31526   1.365   2.789   3.749 -0.0470 -0.0463  0.2901
  997MOL0     C31527   1.413   2.700   3.651 -0.2092 -0.0196 -0.5345
  997MOL0     C31528   1.545   2.678   3.627 -0.0479  0.4290 -0.0319
  997MOL0     C31529   1.637   2.758   3.696  0.3309  0.0333 -0.0208
  997MOL0     O31530   1.765   2.747   3.673  0.5362  0.0168 -0.1509
  997MOL0     C31531   1.824   2.637   3.598  0.1781  0.8140  0.6523
  997MOL0     C31532   1.970   2.621   3.636 -0.1973  0.4463  0.6925
  997MOL0     C31533   2.048   2.757   3.614  0.6055 -0.0090 -0.4513
  997MOL0     C31534   2.197   2.752   3.651  0.8377 -0.6075  0.2738
  997MOL0     C31535   2.274   2.669   3.555 -0.0269 -0.3113 -0.3377
  997MOL0     C31536   2.342   2.617   3.467 -0.6952 -0.1542 -0.1026
  997MOL0     C31537   1.594   2.857   3.787 -0.3594 -0.1933  0.2811
  997MOL0     C31538   1.457   2.870   3.817 -0.2313  0.4673 -0.7300
  997MOL0     H31539   1.042   2.835   3.533 -0.4583  0.7687  0.7530
  997MOL0     H31540   0.808   2.923   3.538  0.6062 -0.3220 -1.3603
  997MOL0     H31541   0.513   2.813   3.847 -0.6558 -1.7787  0.0576
  997MOL0     H31542   0.533   2.670   3.757  0.3939 -0.5028 -0.8476
  997MOL0     H31543   0.383   2.740   3.588  1.9923 -0.5578  0.6332
  997MOL0     H31544   0.403   2.905   3.614 -1.0851 -0.5234 -1.1525
  997MOL0     H31545   0.271   2.878   3.848 -2.1919 -0.4685  1.5912
  997MOL0     H31546   0.239   2.718   3.804 -0.7459  0.4968 -0.1884
  997MOL0     H31547   0.160   2.962   3.630 -0.9294  0.0907  1.1404
  997MOL0     H31548   0.136   2.789   3.591  4.5664 -0.9584  0.6227
  997MOL0     H31549   0.010   2.747   3.806  2.1558 -0.9068 -2.1508
  997MOL0     H31550  -0.066   2.834   3.673  0.8724  0.7050 -0.1850
  997MOL0     H31551  -0.019   3.039   3.764  1.2819 -0.1475  0.3245
  997MOL0     H31552   0.063   2.981   3.914  0.6169 -0.9380 -0.9041
  997MOL0     H31553  -0.244   2.954   3.827 -0.8104  0.2413  1.2263
  997MOL0     H31554  -0.176   2.857   3.957 -0.2224  1.1786  1.2667
  997MOL0     H31555  -0.196   3.156   3.948  0.1119 -0.8425 -2.7079
  997MOL0     H31556  -0.115   3.050   4.073  1.1727 -1.6403 -1.6530
  997MOL0     H31557  -0.294   2.917   4.236  0.4609  1.2318  1.4578
  997MOL0     H31558  -0.581   3.080   4.387 -0.1499 -1.5729  3.0252
  997MOL0     H31559  -0.503   2.921   4.378  1.0860 -0.7787 -1.2463
  997MOL0     H31560  -0.654   2.851   4.193  1.0937  0.7894 -1.3592
  997MOL0     H31561  -0.745   3.003   4.214 -0.5873 -2.3665 -2.2958
  997MOL0     H31562  -0.799   2.775   4.333  2.4150 -0.8652  0.6159
  997MOL0     H31563  -0.699   2.836   4.466 -0.4351 -0.3974  0.6881
  997MOL0     H31564  -0.926   3.011   4.367  0.1525 -1.3794 -1.7301
  997MOL0     H31565  -0.804   3.039   4.490  1.9945 -2.5701 -0.3722
  997MOL0     H31566  -1.043   3.136   4.536  1.6813  1.2419  3.8875
  997MOL0     H31567  -1.259   3.202   4.640 -2.6222 -0.8042 -3.7400
  997MOL0     H31568  -1.711   2.850   4.880  0.4919 -0.6986 -0.6796
  997MOL0     H31569  -1.911   2.887   5.042 -0.7911  1.4370  0.8218
  997MOL0     H31570  -2.032   3.115   5.108  0.7366 -2.3522  0.3727
  997MOL0     H31571  -1.952   3.227   5.221 -2.3753  0.4779  1.7998
  997MOL0     H31572  -2.202   3.177   5.257  2.8385  1.0722 -3.1979
  997MOL0     H31573  -2.100   3.122   5.399 -1.9920 -1.3311  0.1828
  997MOL0     H31574  -2.096   2.891   5.330 -1.5640 -0.8175  2.4823
  997MOL0     H31575  -2.185   2.938   5.174 -1.7163  1.5065  0.2319
  997MOL0     H31576  -2.300   2.946   5.458  2.0615  3.8121 -0.6682
  997MOL0     H31577  -2.391   2.990   5.317 -1.8669 -1.5177 -0.4804
  997MOL0     H31578  -2.251   2.730   5.378 -0.1014 -0.0037 -0.6906
  997MOL0     H31579  -2.326   2.749   5.224 -3.6409  1.2880 -0.9881
  997MOL0     H31580  -2.551   2.763   5.332  1.1430  0.0716 -2.3855
  997MOL0     H31581  -2.479   2.821   5.481 -0.7752 -0.8877  0.7427
  997MOL0     H31582  -2.482   2.544   5.366 -2.6722 -1.0238  1.0200
  997MOL0     H31583  -2.363   2.599   5.499 -0.9790 -2.4835 -0.4777
  997MOL0     H31584  -2.656   2.550   5.512 -0.9145  1.1850  0.3834
  997MOL0     H31585  -2.585   2.671   5.624 -3.7638 -0.5989  0.8170
  997MOL0     H31586  -1.659   3.157   5.260 -1.8896  1.4101 -0.3422
  997MOL0     H31587  -1.490   3.163   5.079 -0.5958  1.6694  0.1828
  997MOL0     H31588  -1.313   2.806   4.791 -0.3191 -2.3509 -1.1547
  997MOL0     H31589  -1.107   2.734   4.675  4.3043  0.7864 -0.2334
  997MOL0     H31590   0.716   2.673   3.871  1.4729 -2.0717  0.6763
  997MOL0     H31591   0.967   2.607   3.883 -2.3205 -3.8071 -1.4027
  997MOL0     H31592   1.335   2.656   3.590 -0.0745  0.2154 -0.8758
  997MOL0     H31593   1.575   2.606   3.552  3.8936 -0.8577  2.4386
  997MOL0     H31594   1.814   2.664   3.492  1.7330  0.4526  0.3813
  997MOL0     H31595   1.781   2.538   3.618 -3.8440  1.7753 -2.1668
  997MOL0     H31596   1.985   2.582   3.738 -2.6996  0.8538  1.2730
  997MOL0     H31597   2.019   2.551   3.568  1.9330  0.9181  1.6435
  997MOL0     H31598   2.007   2.838   3.676  0.0250 -0.7922  0.2156
  997MOL0     H31599   2.044   2.778   3.507 -1.1341 -1.7349 -0.8028
  997MOL0     H31600   2.241   2.852   3.640  1.3283 -0.9553 -1.0650
  997MOL0     H31601   2.208   2.730   3.758 -0.4587 -1.4876  0.2482
  997MOL0     H31602   2.407   2.574   3.393  1.1085 -0.7559  1.7503
  997MOL0     H31603   1.666   2.904   3.853 -0.1601 -0.5961  0.3513
  997MOL0     H31604   1.416   2.934   3.893 -1.6318 -0.8787 -0.2963
  998MOL0     O31605   5.194   7.361   5.197 -0.6732 -0.1772  0.4797
  998MOL0     C31606   5.282   7.346   5.285  0.7885  0.4322 -0.4239
  998MOL0     O31607   5.252   7.322   5.423  0.0853 -0.1624 -0.3218
  998MOL0     C31608   5.122   7.330   5.463  0.0248  0.2715 -0.1854
  998MOL0     C31609   5.059   7.447   5.453 -0.6444  0.2843  0.3642
  998MOL0     C31610   4.933   7.472   5.504  0.0968 -0.1945 -0.6458
  998MOL0     C31611   4.860   7.372   5.571  0.6777 -0.3421 -0.1071
  998MOL0     O31612   4.735   7.381   5.627  0.1061 -0.1348  0.7342
  998MOL0     C31613   4.690   7.512   5.665 -0.1752 -0.6386  0.5415
  998MOL0     C31614   4.559   7.500   5.730  0.3794 -0.3668  0.1046
  998MOL0     C31615   4.446   7.459   5.623  1.0522  0.2616 -0.0711
  998MOL0     C31616   4.312   7.472   5.694 -0.7738 -0.3753  0.9458
  998MOL0     C31617   4.196   7.444   5.601  0.0742  0.0876  0.0252
  998MOL0     C31618   4.064   7.418   5.673  0.2506  0.5048  0.3871
  998MOL0     C31619   3.958   7.390   5.564 -0.5817  0.4464 -0.0253
  998MOL0     C31620   3.862   7.279   5.603 -0.4143 -1.1775 -0.3030
  998MOL0     N31621   3.784   7.326   5.711  0.8617  0.2248  0.6996
  998MOL0     C31622   3.676   7.409   5.709  0.0504  0.7387  0.0346
  998MOL0     C31623   3.647   7.447   5.834  0.0263  0.5279 -1.1179
  998MOL0     C31624   3.536   7.531   5.895 -0.0463  0.0278 -1.1404
  998MOL0     C31625   3.399   7.495   5.830  0.3178 -0.0279  0.0380
  998MOL0     C31626   3.276   7.565   5.900  0.5748  0.3107 -0.3201
  998MOL0     C31627   3.148   7.542   5.823  0.2461  0.6475  0.1726
  998MOL0     O31628   3.052   7.613   5.902  0.8249 -0.0107 -0.0558
  998MOL0     C31629   2.918   7.607   5.861 -0.0289  0.5981  0.0996
  998MOL0     C31630   2.866   7.519   5.753  0.2164  0.5331 -0.9588
  998MOL0     C31631   2.730   7.521   5.740 -0.4500 -0.3793  0.5516
  998MOL0     C31632   2.636   7.601   5.807 -0.7528 -0.0544  0.0821
  998MOL0     C31633   2.493   7.599   5.773  0.5766  0.1591 -0.8558
  998MOL0     O31634   2.468   7.555   5.646 -0.5683  0.5437 -0.6897
  998MOL0     C31635   2.335   7.549   5.608  0.6041  1.0133  0.3313
  998MOL0     C31636   2.232   7.478   5.679 -0.1254 -0.3958  0.0282
  998MOL0     C31637   2.100   7.483   5.635  0.1055 -0.5942 -0.1643
  998MOL0     C31638   2.070   7.552   5.519  0.0532 -0.1282 -0.6163
  998MOL0     O31639   1.940   7.551   5.475  0.6779 -0.5635 -0.5360
  998MOL0     C31640   1.846   7.574   5.579  1.0045  0.5114 -0.1887
  998MOL0     C31641   1.717   7.605   5.508  0.1835 -0.4856 -0.2451
  998MOL0     C31642   1.617   7.651   5.613 -0.2371  0.3626 -0.4184
  998MOL0     C31643   1.559   7.542   5.698 -0.1031  0.0444  0.5559
  998MOL0     C31644   1.469   7.454   5.608 -0.1802 -0.2470 -0.7196
  998MOL0     C31645   1.411   7.325   5.690  0.1098  0.0014 -0.0267
  998MOL0     C31646   1.336   7.245   5.576  0.1123 -0.0809  0.3187
  998MOL0     C31647   1.254   7.133   5.627  0.1869  0.4042 -0.1244
  998MOL0    Cl31648   1.139   7.083   5.509  0.6279 -0.3168  0.0460
  998MOL0     C31649   2.178   7.619   5.449 -0.4101  0.1020 -0.0761
  998MOL0     C31650   2.309   7.608   5.488 -0.6212 -0.1597 -0.1435
  998MOL0     O31651   2.414   7.630   5.862 -0.3601 -0.0975 -0.2296
  998MOL0     C31652   2.690   7.687   5.903  0.1706 -1.2191  0.2191
  998MOL0     C31653   2.830   7.689   5.927 -0.9338  0.3176 -0.8736
  998MOL0     N31654   3.752   7.392   5.911  0.2784 -0.0978  0.5846
  998MOL0     N31655   3.828   7.320   5.841  0.8250 -1.0141  0.5505
  998MOL0     C31656   4.919   7.245   5.583 -0.0501  0.3365 -0.3034
  998MOL0     C31657   5.052   7.231   5.538  0.4867  0.2093  0.1681
  998MOL0     C31658   5.418   7.371   5.233 -0.5292  0.6970  0.3609
  998MOL0     C31659   5.444   7.383   5.094  0.0746  0.2395  0.4551
  998MOL0     C31660   5.579   7.412   5.060 -0.0993  0.8159  0.4489
  998MOL0     C31661   5.687   7.408   5.149 -0.2554 -0.6219  1.1310
  998MOL0     O31662   5.818   7.414   5.097 -0.2099  0.3783 -0.7958
  998MOL0     C31663   5.927   7.390   5.194 -0.4236  0.1020  0.2479
  998MOL0     C31664   6.059   7.378   5.113 -0.0161 -1.0024  0.6113
  998MOL0     C31665   6.115   7.511   5.072  0.7185  0.3280  0.5047
  998MOL0     C31666   6.242   7.516   4.984 -0.3602 -0.0078  0.4473
  998MOL0     C31667   6.382   7.464   5.016  1.1289  0.4169  0.0216
  998MOL0     C31668   6.498   7.420   5.023 -0.5304  0.1338 -0.2871
  998MOL0     C31669   5.654   7.406   5.284  0.4370 -0.7399  0.6258
  998MOL0     C31670   5.521   7.392   5.328 -0.0544  0.2550  0.3623
  998MOL0     H31671   5.108   7.531   5.404 -0.4268  0.1999  0.4363
  998MOL0     H31672   4.892   7.571   5.487  0.3473  0.2633  1.2621
  998MOL0     H31673   4.692   7.585   5.583  2.8319 -2.3123 -1.0388
  998MOL0     H31674   4.765   7.553   5.734 -1.2905  1.6902  0.4685
  998MOL0     H31675   4.542   7.598   5.775  0.7369  1.1135 -2.7567
  998MOL0     H31676   4.574   7.426   5.808  2.5254  0.6660  0.7419
  998MOL0     H31677   4.454   7.360   5.578  0.4307  1.3144 -2.6410
  998MOL0     H31678   4.455   7.526   5.538  0.4370  0.6817  0.1873
  998MOL0     H31679   4.315   7.400   5.777 -1.2776 -2.5104 -0.7826
  998MOL0     H31680   4.304   7.572   5.737  0.5557  0.8328 -1.4180
  998MOL0     H31681   4.227   7.367   5.530  3.0985  0.0912  1.1932
  998MOL0     H31682   4.173   7.533   5.542 -1.1246  0.4584  1.0204
  998MOL0     H31683   4.024   7.495   5.741  1.7860 -0.6313  2.7029
  998MOL0     H31684   4.075   7.326   5.731  0.2802 -1.0419 -1.9575
  998MOL0     H31685   3.900   7.477   5.533 -1.4619  0.1077  0.6118
  998MOL0     H31686   4.009   7.360   5.472  0.8455  1.0629  0.5425
  998MOL0     H31687   3.913   7.186   5.629  1.7500 -0.1303 -0.5491
  998MOL0     H31688   3.792   7.260   5.522 -0.9051  1.6431 -0.6522
  998MOL0     H31689   3.618   7.442   5.623  1.0515 -0.2759 -1.0785
  998MOL0     H31690   3.552   7.635   5.862 -1.0645  0.5195 -0.1528
  998MOL0     H31691   3.531   7.510   6.002 -1.4288 -2.3938 -1.6144
  998MOL0     H31692   3.388   7.386   5.839 -0.5492  0.0713  0.2061
  998MOL0     H31693   3.406   7.514   5.723 -3.8805  0.8277 -0.2326
  998MOL0     H31694   3.261   7.529   6.002 -0.4958  0.7902 -0.2945
  998MOL0     H31695   3.291   7.673   5.901  1.0884  0.2385  0.0082
  998MOL0     H31696   3.125   7.437   5.805  1.5907  0.7370 -2.7465
  998MOL0     H31697   3.155   7.585   5.723  0.2701 -0.9582 -0.5547
  998MOL0     H31698   2.930   7.459   5.690 -0.0195 -0.1085 -0.5938
  998MOL0     H31699   2.696   7.449   5.666 -1.2115  1.2016 -0.6994
  998MOL0     H31700   2.272   7.440   5.772  0.7259  2.1642  0.7926
  998MOL0     H31701   2.020   7.419   5.671  2.1664 -2.7567  0.8848
  998MOL0     H31702   1.885   7.652   5.645  0.4206  0.3683  0.3388
  998MOL0     H31703   1.814   7.490   5.642 -1.4779  1.5106  0.0077
  998MOL0     H31704   1.693   7.517   5.448 -0.2700 -0.4015 -0.1837
  998MOL0     H31705   1.729   7.690   5.440 -0.3701  0.7955  1.2119
  998MOL0     H31706   1.534   7.709   5.573 -0.8101  1.0704  1.6508
  998MOL0     H31707   1.678   7.712   5.680  3.0699 -1.1986 -1.7764
  998MOL0     H31708   1.637   7.480   5.742  2.3058  0.7495 -2.3660
  998MOL0     H31709   1.499   7.581   5.780  0.5487 -0.9415  1.5320
  998MOL0     H31710   1.528   7.416   5.524 -1.5881  0.7188 -2.1951
  998MOL0     H31711   1.383   7.499   5.559  0.6681 -0.7494 -2.7828
  998MOL0     H31712   1.347   7.356   5.773  2.8992 -0.2367  2.3985
  998MOL0     H31713   1.495   7.274   5.739  0.4265  0.9550  0.4457
  998MOL0     H31714   1.267   7.308   5.518 -1.2259 -2.0580 -0.3193
  998MOL0     H31715   1.402   7.214   5.495 -1.0994 -1.2270 -0.2796
  998MOL0     H31716   1.193   7.167   5.711  0.7802 -0.5384  0.7003
  998MOL0     H31717   1.318   7.050   5.656 -1.4008 -1.1480 -0.8426
  998MOL0     H31718   2.151   7.675   5.360  1.4670 -0.4509 -1.0520
  998MOL0     H31719   2.388   7.660   5.436 -2.5384  1.6233 -1.4311
  998MOL0     H31720   2.619   7.754   5.951 -1.5209 -1.9823 -1.0854
  998MOL0     H31721   2.869   7.764   5.995 -1.0177 -1.1872  0.9087
  998MOL0     H31722   4.871   7.170   5.645 -2.2096  1.4613 -0.5176
  998MOL0     H31723   5.116   7.150   5.570  1.4108  1.9935  3.2763
  998MOL0     H31724   5.367   7.396   5.019 -0.6459  1.1198  1.3175
  998MOL0     H31725   5.604   7.425   4.955  0.0553  1.7318  0.5864
  998MOL0     H31726   5.894   7.296   5.241 -3.0370  0.1695 -1.2400
  998MOL0     H31727   5.929   7.471   5.267  2.3069 -0.0900  0.4929
  998MOL0     H31728   6.143   7.327   5.161  1.4760  1.0075  0.2647
  998MOL0     H31729   6.025   7.321   5.027  1.2114 -1.6249  0.5178
  998MOL0     H31730   6.118   7.566   5.167  2.3654 -1.7835  1.7585
  998MOL0     H31731   6.042   7.568   5.014  1.7327  1.9889  0.7822
  998MOL0     H31732   6.217   7.462   4.892 -0.6221 -1.1742  1.1917
  998MOL0     H31733   6.260   7.622   4.961  2.2558 -0.2928  0.8326
  998MOL0     H31734   6.595   7.374   5.025 -0.5222  0.1841  0.4349
  998MOL0     H31735   5.729   7.425   5.361 -1.9578  0.0560  2.8975
  998MOL0     H31736   5.506   7.387   5.435  0.4783  0.3377  0.4405
  999MOL0     O31737   9.077   4.893   7.753  0.5799 -0.0845 -0.5143
  999MOL0     C31738   9.140   5.001   7.757  0.4387 -0.2622  0.1843
  999MOL0     O31739   9.113   5.109   7.835 -0.1115 -0.2314 -0.2723
  999MOL0     C31740   8.990   5.110   7.893  0.4608 -0.1543  0.6093
  999MOL0     C31741   8.892   5.201   7.853 -0.0736  0.6867  0.2634
  999MOL0     C31742   8.766   5.203   7.912 -0.0762 -0.1869  0.1835
  999MOL0     C31743   8.741   5.127   8.021  0.7276 -0.2081 -0.0161
  999MOL0     O31744   8.616   5.162   8.068  0.7527  0.5385 -1.0164
  999MOL0     C31745   8.570   5.113   8.195  0.2221  0.0299  0.9142
  999MOL0     C31746   8.420   5.133   8.205  0.4121  0.4218  0.5235
  999MOL0     C31747   8.356   5.076   8.328 -0.1500  0.1467  0.8794
  999MOL0     C31748   8.197   5.085   8.334 -0.3993  0.9016  0.2734
  999MOL0     C31749   8.131   4.982   8.432  0.0479  0.9117  0.4977
  999MOL0     C31750   7.976   4.976   8.438  0.0205 -0.2894 -0.7980
  999MOL0     C31751   7.933   4.873   8.543  0.6419  0.7405 -0.7498
  999MOL0     C31752   7.921   4.721   8.488  0.3717 -0.5688 -0.4790
  999MOL0     N31753   7.867   4.633   8.590  0.1475  0.2018 -0.1350
  999MOL0     C31754   7.732   4.619   8.613  0.4433  0.4003 -0.1390
  999MOL0     C31755   7.716   4.516   8.700 -0.5295  0.6607 -0.5641
  999MOL0     C31756   7.585   4.471   8.771  0.5396  0.4457 -0.2376
  999MOL0     C31757   7.572   4.561   8.902  0.5060  0.6239 -0.6685
  999MOL0     C31758   7.476   4.520   9.017 -0.2978 -0.0230  0.3406
  999MOL0     C31759   7.335   4.512   8.967  0.1656 -0.6977  0.3616
  999MOL0     O31760   7.254   4.630   9.002  0.3119 -0.2937 -0.2018
  999MOL0     C31761   7.113   4.612   8.991 -0.4470 -0.0482 -0.4093
  999MOL0     C31762   7.060   4.500   8.929  0.0646  0.6556 -0.3087
  999MOL0     C31763   6.919   4.493   8.907 -0.3939  0.7174 -0.5803
  999MOL0     C31764   6.836   4.594   8.954  0.1654 -0.8638 -0.2168
  999MOL0     C31765   6.691   4.579   8.929  0.5652  0.1214  0.1599
  999MOL0     O31766   6.643   4.465   8.863  0.4189 -0.2935 -0.3458
  999MOL0     C31767   6.509   4.462   8.847  0.2492 -0.3611  0.2794
  999MOL0     C31768   6.432   4.559   8.780 -0.8332  0.3995 -0.3108
  999MOL0     C31769   6.295   4.548   8.781 -0.1564 -0.1360 -0.9131
  999MOL0     C31770   6.229   4.430   8.825 -1.1623 -1.2105  0.4362
  999MOL0     O31771   6.091   4.418   8.826  0.1002 -1.1686 -0.5306
  999MOL0     C31772   6.012   4.532   8.782 -0.5362 -0.1077 -1.7678
  999MOL0     C31773   5.860   4.507   8.773  0.2546 -0.3992 -0.0025
  999MOL0     C31774   5.814   4.442   8.903 -0.1722 -0.1937 -0.5426
  999MOL0     C31775   5.665   4.457   8.918  0.8803  0.0820  2.0286
  999MOL0     C31776   5.613   4.594   8.945 -0.1853 -0.8610  0.7874
  999MOL0     C31777   5.460   4.604   8.945  1.2352  0.2265 -0.8437
  999MOL0     C31778   5.413   4.745   9.007  0.1127  0.3493 -0.3693
  999MOL0     C31779   5.390   4.854   8.902  0.2907 -0.2410  0.5438
  999MOL0    Cl31780   5.234   4.842   8.810 -0.3580  0.3118  0.4885
  999MOL0     C31781   6.305   4.329   8.879  0.5669  0.5621 -0.2170
  999MOL0     C31782   6.445   4.347   8.899 -0.0590  0.1599  0.7402
  999MOL0     O31783   6.624   4.677   8.958 -0.5327 -1.4279  0.0871
  999MOL0     C31784   6.893   4.712   9.008  0.4125 -0.0070 -0.4597
  999MOL0     C31785   7.028   4.714   9.033  0.4710 -0.9482 -0.7882
  999MOL0     N31786   7.842   4.478   8.744  0.5780  0.0385  0.1720
  999MOL0     N31787   7.930   4.548   8.677  0.4265 -0.4812 -0.1630
  999MOL0     C31788   8.831   5.039   8.068 -0.1982  0.3078 -0.3119
  999MOL0     C31789   8.960   5.022   8.006  0.7520 -0.0632 -1.1914
  999MOL0     C31790   9.262   5.025   7.668 -0.1066  0.1388 -0.3865
  999MOL0     C31791   9.276   4.942   7.562  0.2006  0.6003  0.1446
  999MOL0     C31792   9.382   4.971   7.477  0.8253 -0.4718  0.3197
  999MOL0     C31793   9.474   5.074   7.501 -0.7374 -0.5537 -0.1780
  999MOL0     O31794   9.579   5.106   7.414 -0.1764  0.1134  0.7848
  999MOL0     C31795   9.623   5.021   7.306  0.7191  0.1627 -1.0508
  999MOL0     C31796   9.743   5.077   7.239 -0.0105  0.5007  0.1682
  999MOL0     C31797   9.704   5.193   7.144  0.2999  0.6136  0.8131
  999MOL0     C31798   9.824   5.276   7.094 -0.8335 -0.2771  0.7011
  999MOL0     C31799   9.946   5.213   7.040 -0.5139  0.6779 -0.3364
  999MOL0     C31800  10.038   5.144   6.997  0.5953  0.1031  0.1121
  999MOL0     C31801   9.462   5.153   7.614  0.3859 -0.6731 -0.6068
  999MOL0     C31802   9.353   5.129   7.698 -0.0387 -0.6614 -0.2010
  999MOL0     H31803   8.912   5.276   7.777 -1.4421 -0.8706 -1.7524
  999MOL0     H31804   8.690   5.278   7.891  0.4118  0.5399  0.9229
  999MOL0     H31805   8.617   5.181   8.268  0.6153  3.0423 -1.8995
  999MOL0     H31806   8.591   5.007   8.209 -3.3821 -1.3206 -2.1983
  999MOL0     H31807   8.367   5.086   8.122 -1.3779 -0.5548  2.1239
  999MOL0     H31808   8.396   5.239   8.205  1.5023  0.6750 -0.1991
  999MOL0     H31809   8.406   5.129   8.409  3.9014 -2.4241  0.3477
  999MOL0     H31810   8.383   4.970   8.335  0.5333  0.2865  0.4288
  999MOL0     H31811   8.165   5.184   8.369 -0.2577  1.1116 -0.1721
  999MOL0     H31812   8.155   5.072   8.233 -1.4496  1.0754  0.6778
  999MOL0     H31813   8.163   4.998   8.535  0.5206  3.2401  0.0369
  999MOL0     H31814   8.157   4.883   8.394  1.6479  2.2499 -2.2113
  999MOL0     H31815   7.926   4.962   8.342 -0.6540 -0.7561 -0.3877
  999MOL0     H31816   7.937   5.072   8.474 -1.5795 -0.5764 -1.6652
  999MOL0     H31817   8.001   4.868   8.628 -0.4400  1.4115  0.1796
  999MOL0     H31818   7.832   4.897   8.577  0.0066 -3.2159  0.5654
  999MOL0     H31819   8.025   4.692   8.474  0.6362  0.6106 -1.0836
  999MOL0     H31820   7.886   4.719   8.384  4.7591  2.7199 -2.3527
  999MOL0     H31821   7.643   4.663   8.569  1.1184  0.4184 -1.5139
  999MOL0     H31822   7.593   4.367   8.802 -0.1651 -0.4223 -2.7451
  999MOL0     H31823   7.495   4.486   8.711 -0.6461  2.3859  1.8350
  999MOL0     H31824   7.534   4.658   8.869 -0.0263  0.0818 -1.7304
  999MOL0     H31825   7.671   4.580   8.943  1.5367  1.0833 -3.1667
  999MOL0     H31826   7.516   4.427   9.057  0.5673  0.5423  0.8155
  999MOL0     H31827   7.474   4.600   9.092  0.2744 -0.0603  0.3974
  999MOL0     H31828   7.306   4.417   9.012  0.9238  0.0260  2.5375
  999MOL0     H31829   7.332   4.498   8.859 -2.0747  2.4565 -0.1165
  999MOL0     H31830   7.128   4.420   8.902  1.7687  1.3366  1.6425
  999MOL0     H31831   6.875   4.403   8.866 -2.7302  1.7779 -0.5430
  999MOL0     H31832   6.476   4.648   8.735 -0.5204  0.4263  0.0395
  999MOL0     H31833   6.248   4.624   8.720 -0.8801 -0.6197 -0.9669
  999MOL0     H31834   6.040   4.549   8.678 -1.7222 -1.2612 -2.3089
  999MOL0     H31835   6.040   4.623   8.835  1.4405 -0.7550 -1.6451
  999MOL0     H31836   5.830   4.442   8.690 -2.8104 -0.5945  1.1222
  999MOL0     H31837   5.810   4.603   8.755 -2.3837 -2.1223 -2.9823
  999MOL0     H31838   5.875   4.479   8.986 -1.1123  1.7828 -0.6666
  999MOL0     H31839   5.847   4.338   8.894  2.2572  0.2867  1.8278
  999MOL0     H31840   5.607   4.418   8.833 -0.1368  3.0779  1.1896
  999MOL0     H31841   5.642   4.395   9.004  3.5890 -2.2720  1.1914
  999MOL0     H31842   5.660   4.667   8.879 -0.5512 -1.8006 -0.5510
  999MOL0     H31843   5.655   4.615   9.044  2.1023  0.0017 -0.3034
  999MOL0     H31844   5.428   4.514   8.999  0.9854 -0.5019 -2.1635
  999MOL0     H31845   5.414   4.586   8.848 -3.0265 -1.9996  1.2713
  999MOL0     H31846   5.324   4.740   9.071 -0.2399  0.4286 -0.8443
  999MOL0     H31847   5.489   4.788   9.072 -1.9671  2.1607  1.0299
  999MOL0     H31848   5.466   4.856   8.823  0.0211 -2.1360  0.1843
  999MOL0     H31849   5.394   4.955   8.942  0.5520  0.9304 -2.1694
  999MOL0     H31850   6.254   4.236   8.903  0.9541  0.3468 -0.2074
  999MOL0     H31851   6.506   4.265   8.933 -0.1521 -0.4094 -0.4215
  999MOL0     H31852   6.829   4.795   9.037  0.4074  0.2993 -1.3233
  999MOL0     H31853   7.071   4.797   9.089  0.7609 -0.6742 -1.4067
  999MOL0     H31854   8.802   4.979   8.154  0.2183 -0.7918 -0.9177
  999MOL0     H31855   9.026   4.945   8.046 -0.3031 -0.3345  0.0794
  999MOL0     H31856   9.212   4.857   7.539  0.6144  0.1378  0.6968
  999MOL0     H31857   9.400   4.901   7.397 -2.2655  0.1331 -1.0615
  999MOL0     H31858   9.547   4.983   7.238  1.1896 -1.1771 -0.8539
  999MOL0     H31859   9.645   4.931   7.364 -2.1335  0.7348  1.1723
  999MOL0     H31860   9.816   5.110   7.313 -1.3896  3.7271  0.2535
  999MOL0     H31861   9.791   5.001   7.177  2.0149  0.7045  1.4173
  999MOL0     H31862   9.635   5.255   7.202  0.1041 -2.1866  3.8537
  999MOL0     H31863   9.654   5.150   7.057  2.9652 -2.6609  0.6937
  999MOL0     H31864   9.777   5.344   7.023 -1.6957 -0.8361  0.7248
  999MOL0     H31865   9.862   5.337   7.176 -2.9626 -0.9454  2.2705
  999MOL0     H31866  10.103   5.060   6.984  1.0953  0.7297 -1.5987
  999MOL0     H31867   9.537   5.225   7.643 -0.5545 -0.5499  1.6811
  999MOL0     H31868   9.365   5.186   7.789  1.3551  1.0058 -1.3525
 1000MOL0     O31869  10.360   2.956   3.956 -0.0254  0.1618 -0.0026
 1000MOL0     C31870  10.336   2.922   3.836  0.3888  0.5720 -0.4264
 1000MOL0     O31871  10.214   2.934   3.773 -0.4139 -0.5597 -0.6009
 1000MOL0     C31872  10.099   2.997   3.822 -0.8612  0.2866 -0.4895
 1000MOL0     C31873   9.981   2.975   3.751 -0.3106 -0.4086  0.5232
 1000MOL0     C31874   9.854   3.028   3.779 -0.8702  0.3729  0.1266
 1000MOL0     C31875   9.843   3.126   3.876 -0.4538  0.2295  0.8922
 1000MOL0     O31876   9.726   3.194   3.897  0.6633 -0.3136  0.0009
 1000MOL0     C31877   9.605   3.142   3.857  0.3221 -0.9067  0.4360
 1000MOL0     C31878   9.483   3.239   3.901 -1.0680 -0.0788  0.0153
 1000MOL0     C31879   9.485   3.281   4.045  0.6212  0.2214 -0.2448
 1000MOL0     C31880   9.377   3.385   4.070  0.4285  0.1905  0.1636
 1000MOL0     C31881   9.238   3.329   4.077  0.4874 -0.9475 -0.0207
 1000MOL0     C31882   9.133   3.443   4.110 -0.2082  0.5429 -0.2581
 1000MOL0     C31883   8.990   3.408   4.153  0.1077 -0.9542  0.3284
 1000MOL0     C31884   8.978   3.355   4.293 -0.2386  0.2896 -0.4633
 1000MOL0     N31885   8.836   3.348   4.349 -0.2995 -0.3027  0.2471
 1000MOL0     C31886   8.768   3.436   4.436  0.3965  0.2488  0.9268
 1000MOL0     C31887   8.660   3.373   4.469  0.5334  0.3945  0.0202
 1000MOL0     C31888   8.551   3.427   4.562  0.2745 -2.0141  0.4951
 1000MOL0     C31889   8.430   3.479   4.485  0.7084  0.4347  0.8927
 1000MOL0     C31890   8.356   3.596   4.559 -1.2706 -0.3159  0.9050
 1000MOL0     C31891   8.271   3.524   4.660 -0.2193  0.0992 -0.6048
 1000MOL0     O31892   8.168   3.606   4.711  0.4328 -0.0330 -0.9428
 1000MOL0     C31893   8.081   3.567   4.815 -0.6786 -0.2766 -1.0777
 1000MOL0     C31894   8.005   3.675   4.870 -0.5173 -0.0238  0.6486
 1000MOL0     C31895   7.936   3.657   4.984  0.4158 -0.2437 -0.3841
 1000MOL0     C31896   7.911   3.528   5.038 -0.6145 -0.5107 -0.0962
 1000MOL0     C31897   7.822   3.520   5.155 -0.2366 -0.8955 -0.7949
 1000MOL0     O31898   7.726   3.623   5.178  0.8140 -0.7240  0.1103
 1000MOL0     C31899   7.624   3.593   5.260 -0.1524  0.1464  0.0239
 1000MOL0     C31900   7.575   3.692   5.348  0.2059 -0.1022 -0.7020
 1000MOL0     C31901   7.461   3.666   5.429  0.2308 -0.5282  0.0678
 1000MOL0     C31902   7.397   3.540   5.424 -0.3990  0.2914 -1.0119
 1000MOL0     O31903   7.285   3.520   5.503 -0.8185 -0.3944  0.0813
 1000MOL0     C31904   7.231   3.386   5.509 -0.3892 -0.0176  0.3740
 1000MOL0     C31905   7.124   3.384   5.615  0.0809 -0.0660  0.3234
 1000MOL0     C31906   7.010   3.467   5.571  0.5584  0.6060  0.2425
 1000MOL0     C31907   6.882   3.443   5.659  0.0942 -0.6773 -0.0776
 1000MOL0     C31908   6.774   3.522   5.607 -0.0603 -0.0291  0.1333
 1000MOL0     C31909   6.656   3.528   5.698 -0.5494 -0.3746  0.5551
 1000MOL0     C31910   6.541   3.631   5.663 -0.4918 -0.4033 -0.3135
 1000MOL0     C31911   6.429   3.628   5.776  0.1160 -0.1423  0.2583
 1000MOL0    Cl31912   6.334   3.778   5.762 -0.0600  0.1692 -0.0555
 1000MOL0     C31913   7.432   3.445   5.324 -0.1062 -0.3174 -0.0835
 1000MOL0     C31914   7.550   3.474   5.251 -0.0674  0.3648 -0.3857
 1000MOL0     O31915   7.838   3.414   5.222 -0.2448 -0.5737 -0.4143
 1000MOL0     C31916   7.991   3.422   4.986  0.1916  0.1612  0.0052
 1000MOL0     C31917   8.066   3.440   4.863  0.5405  0.1677 -1.2443
 1000MOL0     N31918   8.665   3.250   4.403  0.2741 -0.8957  0.4558
 1000MOL0     N31919   8.764   3.239   4.331 -0.2999 -0.2916  0.0546
 1000MOL0     C31920   9.960   3.152   3.949  0.6065  0.1392 -0.2128
 1000MOL0     C31921  10.082   3.087   3.932  0.3020 -0.2073 -0.5854
 1000MOL0     C31922  10.444   2.852   3.756  0.1719 -0.2780  0.0985
 1000MOL0     C31923  10.576   2.844   3.809  0.3432  0.3188 -0.1224
 1000MOL0     C31924  10.687   2.785   3.746  0.5820 -0.5028 -0.5176
 1000MOL0     C31925  10.661   2.742   3.614 -0.6099  0.1283 -0.0224
 1000MOL0     O31926  10.769   2.693   3.548  0.4286 -0.5759 -0.2452
 1000MOL0     C31927  10.759   2.558   3.495  0.3016  0.3972  0.5892
 1000MOL0     C31928  10.864   2.473   3.563 -0.2736  0.4623  1.2035
 1000MOL0     C31929  11.000   2.505   3.513 -1.0115  0.0378  0.6842
 1000MOL0     C31930  11.106   2.413   3.582 -0.0501  0.1443 -1.1102
 1000MOL0     C31931  11.243   2.456   3.563 -0.2829 -0.7700  0.7206
 1000MOL0     C31932  11.354   2.503   3.558 -0.4751 -0.4772  0.2927
 1000MOL0     C31933  10.541   2.762   3.553  0.2229  0.0623 -0.5874
 1000MOL0     C31934  10.427   2.808   3.625 -0.4129  0.2771 -0.0160
 1000MOL0     H31935   9.982   2.898   3.674 -0.2296 -0.3129  0.4288
 1000MOL0     H31936   9.763   3.011   3.722  0.4043  1.8807 -2.5604
 1000MOL0     H31937   9.584   3.041   3.894 -0.9226 -0.1867  1.8103
 1000MOL0     H31938   9.600   3.142   3.748  0.0902 -0.4786  0.4443
 1000MOL0     H31939   9.384   3.204   3.869 -0.5603 -1.5971  0.0421
 1000MOL0     H31940   9.496   3.333   3.846 -1.1075 -0.3904 -0.5372
 1000MOL0     H31941   9.585   3.324   4.050  0.1328  1.4973 -0.9423
 1000MOL0     H31942   9.483   3.200   4.118  1.0109 -1.0914 -1.6565
 1000MOL0     H31943   9.404   3.428   4.167 -0.0188 -1.3092  0.9691
 1000MOL0     H31944   9.374   3.466   3.996 -0.0428 -0.8888 -1.0385
 1000MOL0     H31945   9.225   3.256   4.157 -1.6449  0.9768  1.5147
 1000MOL0     H31946   9.211   3.295   3.976 -0.9161  0.5865 -0.2068
 1000MOL0     H31947   9.139   3.507   4.021 -0.0194  0.8414 -0.0287
 1000MOL0     H31948   9.186   3.496   4.189 -0.2966  0.9925 -0.4983
 1000MOL0     H31949   8.928   3.497   4.139  0.6579 -0.8407 -1.6507
 1000MOL0     H31950   8.954   3.325   4.092  2.9627 -1.2380 -1.1051
 1000MOL0     H31951   9.045   3.417   4.353 -1.6078 -1.6646  3.4264
 1000MOL0     H31952   9.015   3.253   4.300  0.7131  0.6958  0.6666
 1000MOL0     H31953   8.790   3.541   4.453 -0.5006  1.1857 -2.7664
 1000MOL0     H31954   8.589   3.511   4.620  2.8884 -2.3774 -0.5406
 1000MOL0     H31955   8.512   3.354   4.633 -3.1907 -0.3928  0.4532
 1000MOL0     H31956   8.367   3.396   4.450  0.5006  1.8613 -2.6295
 1000MOL0     H31957   8.464   3.525   4.391 -2.5673  1.3097 -0.0010
 1000MOL0     H31958   8.420   3.674   4.602 -1.3672 -0.3417  1.0999
 1000MOL0     H31959   8.281   3.637   4.491 -2.4528  1.8779  3.3092
 1000MOL0     H31960   8.329   3.487   4.746 -3.1357  0.7366  1.7733
 1000MOL0     H31961   8.213   3.440   4.620 -1.5586  0.9251 -0.4418
 1000MOL0     H31962   8.007   3.768   4.814  1.3828 -0.7202 -0.5283
 1000MOL0     H31963   7.882   3.744   5.022  0.8643  0.9125 -2.2489
 1000MOL0     H31964   7.618   3.791   5.348  1.0040 -0.4445 -1.0920
 1000MOL0     H31965   7.424   3.742   5.497 -0.7264  0.1450 -1.1699
 1000MOL0     H31966   7.317   3.322   5.535  1.1411  2.0153  0.5922
 1000MOL0     H31967   7.179   3.357   5.418  0.0056 -0.7519  0.3718
 1000MOL0     H31968   7.151   3.426   5.713 -3.0367  3.3762 -0.0903
 1000MOL0     H31969   7.096   3.279   5.629  2.4784 -0.8407 -0.2001
 1000MOL0     H31970   6.986   3.460   5.465  2.9010  1.8620 -0.4262
 1000MOL0     H31971   7.050   3.567   5.589  0.2737  0.6810  0.4852
 1000MOL0     H31972   6.850   3.338   5.658 -0.2428 -0.5918 -1.8033
 1000MOL0     H31973   6.897   3.472   5.763  0.7051  1.4179 -0.7018
 1000MOL0     H31974   6.744   3.493   5.506  0.9784 -2.3782  0.4413
 1000MOL0     H31975   6.799   3.628   5.600 -2.4316  0.6348  0.5607
 1000MOL0     H31976   6.707   3.556   5.791  3.6848 -2.4141 -0.9075
 1000MOL0     H31977   6.613   3.428   5.705  0.5554 -0.9894 -0.9304
 1000MOL0     H31978   6.583   3.729   5.640  0.2200 -1.1571 -2.4592
 1000MOL0     H31979   6.503   3.613   5.562 -0.5391  0.4542 -0.4496
 1000MOL0     H31980   6.473   3.614   5.876  3.7652  1.1028 -1.0170
 1000MOL0     H31981   6.363   3.543   5.753  4.8660 -4.3938  0.5898
 1000MOL0     H31982   7.374   3.354   5.315  0.9314 -0.8101 -2.6994
 1000MOL0     H31983   7.573   3.408   5.169 -1.1044 -0.1890 -0.2446
 1000MOL0     H31984   7.970   3.329   5.038  0.1445  1.8426  3.2289
 1000MOL0     H31985   8.123   3.353   4.832  1.1854 -0.2417  0.9118
 1000MOL0     H31986   9.953   3.231   4.022 -0.3275  0.1099 -0.2655
 1000MOL0     H31987  10.168   3.102   3.995 -0.2083  0.3989 -0.0270
 1000MOL0     H31988  10.594   2.888   3.906 -1.9595 -1.2679  1.1350
 1000MOL0     H31989  10.784   2.786   3.795  0.2791  2.0095  0.1258
 1000MOL0     H31990  10.776   2.553   3.387 -0.6314  2.1875  0.3336
 1000MOL0     H31991  10.659   2.517   3.511  0.5018 -1.3105 -2.0117
 1000MOL0     H31992  10.862   2.490   3.671 -4.0856  1.1107  1.1738
 1000MOL0     H31993  10.855   2.366   3.542  4.0741  0.4174 -1.8035
 1000MOL0     H31994  11.012   2.610   3.541 -0.6184  0.2206 -0.1272
 1000MOL0     H31995  11.006   2.489   3.405  1.9604 -2.5227  1.0957
 1000MOL0     H31996  11.074   2.407   3.686 -4.5825  1.0871 -2.2441
 1000MOL0     H31997  11.096   2.310   3.546  3.2739 -0.9228  0.5590
 1000MOL0     H31998  11.458   2.530   3.562 -0.5563  0.3695 -1.8946
 1000MOL0     H31999  10.513   2.729   3.453  0.6689 -1.2531 -0.3004
 1000MOL0     H32000  10.335   2.819   3.569  1.5137  2.0571 -3.2218
 1001MOL0     O32001   8.436   9.459  10.931 -0.1002  0.1427 -0.6635
 1001MOL0     C32002   8.456   9.345  10.889 -0.5973 -0.3695  0.1412
 1001MOL0     O32003   8.363   9.257  10.851 -0.5054 -0.0302  0.2101
 1001MOL0     C32004   8.232   9.279  10.894  0.0055 -0.4584 -1.2635
 1001MOL0     C32005   8.127   9.282  10.806 -0.1805  0.2627 -0.4999
 1001MOL0     C32006   8.001   9.326  10.839 -0.4167 -0.6085 -0.7155
 1001MOL0     C32007   7.970   9.366  10.964  0.4968 -0.3529 -0.0933
 1001MOL0     O32008   7.838   9.395  10.991  0.2529 -0.3885  0.1704
 1001MOL0     C32009   7.812   9.501  11.081 -0.5624 -0.8626 -0.4865
 1001MOL0     C32010   7.666   9.565  11.059  0.7564 -0.9916 -0.2515
 1001MOL0     C32011   7.564   9.449  11.072 -0.4848  0.3010 -0.5323
 1001MOL0     C32012   7.417   9.508  11.070  0.1075  0.0585 -0.2283
 1001MOL0     C32013   7.306   9.393  11.077  0.5052  0.0317  0.1001
 1001MOL0     C32014   7.166   9.451  11.082 -0.0531 -0.1294  0.9417
 1001MOL0     C32015   7.052   9.354  11.055  0.1554 -0.1491 -0.0292
 1001MOL0     C32016   6.915   9.398  11.093  0.1681  0.8266 -0.3004
 1001MOL0     N32017   6.815   9.295  11.056 -0.0149  0.5643 -0.2201
 1001MOL0     C32018   6.763   9.201  11.137  0.2476 -0.2196 -0.4507
 1001MOL0     C32019   6.661   9.151  11.061  0.8368  0.2339 -1.1565
 1001MOL0     C32020   6.561   9.038  11.107 -0.5518  0.5963  0.6058
 1001MOL0     C32021   6.420   9.088  11.165 -0.8726  0.4833  0.6126
 1001MOL0     C32022   6.384   9.012  11.290 -0.8496 -0.1638  0.0867
 1001MOL0     C32023   6.271   8.913  11.275 -0.8242 -0.0493  1.2255
 1001MOL0     O32024   6.213   8.908  11.405 -0.5263 -0.3103 -0.7281
 1001MOL0     C32025   6.111   8.815  11.429  0.2983 -0.3597  0.2998
 1001MOL0     C32026   6.042   8.820  11.556 -0.5976  0.3198 -0.6591
 1001MOL0     C32027   5.939   8.728  11.586 -0.1359  0.2764  0.1766
 1001MOL0     C32028   5.882   8.631  11.485  0.3614 -0.0763 -0.4328
 1001MOL0     C32029   5.768   8.549  11.505 -0.1843  0.2818  0.3076
 1001MOL0     O32030   5.714   8.483  11.403 -0.3070  0.1556  0.3111
 1001MOL0     C32031   5.595   8.434  11.426  1.3365  0.2382 -1.1130
 1001MOL0     C32032   5.581   8.325  11.516  0.2965 -0.5175 -1.2681
 1001MOL0     C32033   5.463   8.265  11.533  0.9047 -0.6086 -0.3895
 1001MOL0     C32034   5.351   8.302  11.460  0.1990 -0.1113  0.4052
 1001MOL0     O32035   5.248   8.220  11.479 -0.7157 -0.4816 -0.0955
 1001MOL0     C32036   5.109   8.270  11.451 -0.0466  0.0446 -0.8575
 1001MOL0     C32037   4.997   8.213  11.543  0.1262 -0.6647  1.1615
 1001MOL0     C32038   5.000   8.050  11.555  0.4135  0.1798 -0.0312
 1001MOL0     C32039   4.950   7.974  11.428 -0.6747 -0.0730 -0.5458
 1001MOL0     C32040   4.801   7.972  11.436  1.2031  0.1812  0.4516
 1001MOL0     C32041   4.742   7.898  11.302 -0.2745  0.4411  0.3014
 1001MOL0     C32042   4.609   7.965  11.270  0.0100 -0.0161 -0.6624
 1001MOL0     C32043   4.638   8.100  11.189 -0.1839  0.9224 -0.2397
 1001MOL0    Cl32044   4.477   8.183  11.163  0.2320  0.1467 -0.1284
 1001MOL0     C32045   5.363   8.405  11.364  0.5373 -0.1426  0.0062
 1001MOL0     C32046   5.490   8.468  11.340  0.1101  0.4115  0.0686
 1001MOL0     O32047   5.731   8.544  11.623  0.3138  0.0594  0.2218
 1001MOL0     C32048   5.951   8.644  11.357 -0.9189  0.9013 -0.4513
 1001MOL0     C32049   6.063   8.724  11.332  0.7256 -1.0387  0.3479
 1001MOL0     N32050   6.636   9.223  10.947  0.0694 -0.9442  0.1398
 1001MOL0     N32051   6.737   9.300  10.945  0.3441 -0.8776 -0.0137
 1001MOL0     C32052   8.072   9.369  11.064  0.0827 -1.1039 -0.5189
 1001MOL0     C32053   8.203   9.319  11.028 -0.3353 -0.3552  0.3258
 1001MOL0     C32054   8.607   9.330  10.873 -0.2261 -0.3292  0.6647
 1001MOL0     C32055   8.665   9.205  10.834  0.3282 -0.8524 -0.0448
 1001MOL0     C32056   8.802   9.194  10.822 -0.3844 -0.4006  0.5739
 1001MOL0     C32057   8.887   9.297  10.840 -0.5200  0.0632 -0.0027
 1001MOL0     O32058   9.025   9.292  10.822 -0.0264  1.0885  0.3817
 1001MOL0     C32059   9.086   9.158  10.788 -0.1347 -0.3240 -0.8655
 1001MOL0     C32060   9.243   9.155  10.817  0.0216 -0.0368  0.2783
 1001MOL0     C32061   9.324   9.259  10.733 -0.0817  0.1251  0.9197
 1001MOL0     C32062   9.474   9.258  10.759  0.3874 -0.0122  0.4398
 1001MOL0     C32063   9.544   9.130  10.730  1.0111 -0.2585  1.3406
 1001MOL0     C32064   9.594   9.021  10.724 -1.1153 -0.1148  0.1336
 1001MOL0     C32065   8.837   9.423  10.872 -0.0554  0.8793 -0.1415
 1001MOL0     C32066   8.700   9.441  10.889 -0.5298 -1.4834  0.3145
 1001MOL0     H32067   8.162   9.253  10.707 -0.5508  0.0107 -0.5555
 1001MOL0     H32068   7.918   9.302  10.772 -0.0438  1.3248 -1.9402
 1001MOL0     H32069   7.879   9.586  11.068  0.4528 -1.7809 -1.6390
 1001MOL0     H32070   7.818   9.460  11.182 -2.8379  0.2283  0.1477
 1001MOL0     H32071   7.650   9.622  10.967 -0.2006 -1.3561 -0.3259
 1001MOL0     H32072   7.640   9.634  11.140 -1.7671 -1.7517 -0.3115
 1001MOL0     H32073   7.576   9.391  11.164  0.1560  2.2911  0.6916
 1001MOL0     H32074   7.581   9.372  10.996  2.1709  0.6657 -0.3970
 1001MOL0     H32075   7.407   9.573  11.157  1.5112  0.7410 -0.5355
 1001MOL0     H32076   7.397   9.565  10.978  1.3738  0.3697 -0.3314
 1001MOL0     H32077   7.324   9.347  11.175 -1.6991  0.8368  0.9482
 1001MOL0     H32078   7.311   9.316  10.999 -3.4567 -2.2907  1.8046
 1001MOL0     H32079   7.145   9.524  11.003 -1.0720 -1.5411 -0.1453
 1001MOL0     H32080   7.159   9.508  11.175  1.5325  2.3972 -0.3946
 1001MOL0     H32081   7.049   9.327  10.948  2.4257  0.4429 -0.2991
 1001MOL0     H32082   7.078   9.263  11.110 -1.5160 -1.0076 -0.6004
 1001MOL0     H32083   6.881   9.490  11.044 -0.7342  0.9459  0.5073
 1001MOL0     H32084   6.915   9.417  11.201  0.0166 -1.3632  0.1465
 1001MOL0     H32085   6.799   9.161  11.231  0.1359  1.1267  0.1917
 1001MOL0     H32086   6.616   8.966  11.167  0.3346  1.1034  0.4129
 1001MOL0     H32087   6.540   8.981  11.016 -0.5544 -0.7162  1.4109
 1001MOL0     H32088   6.347   9.071  11.085 -0.3805  4.3047 -0.8648
 1001MOL0     H32089   6.428   9.193  11.195  2.8920  1.8997 -3.9495
 1001MOL0     H32090   6.472   8.960  11.328  0.9885  0.7576 -2.6452
 1001MOL0     H32091   6.367   9.082  11.372  0.1820  2.0271 -1.4798
 1001MOL0     H32092   6.310   8.814  11.250 -2.5369 -0.2594 -0.8377
 1001MOL0     H32093   6.192   8.933  11.202  0.6124 -0.0564 -0.3877
 1001MOL0     H32094   6.088   8.898  11.616  1.4409  0.0101 -1.7243
 1001MOL0     H32095   5.893   8.743  11.683  0.1464 -1.0214  0.5343
 1001MOL0     H32096   5.665   8.281  11.570  0.1867 -1.7587 -2.0569
 1001MOL0     H32097   5.449   8.181  11.601  1.7507  0.2358  0.8499
 1001MOL0     H32098   5.080   8.249  11.347 -1.2570  0.5468 -0.6405
 1001MOL0     H32099   5.106   8.379  11.464 -2.0131  0.0659 -1.0968
 1001MOL0     H32100   4.895   8.251  11.526  0.9837  1.2822 -0.0164
 1001MOL0     H32101   5.018   8.248  11.644  2.6682  0.9316  0.1829
 1001MOL0     H32102   4.942   8.019  11.642  1.4321  0.3956  0.7374
 1001MOL0     H32103   5.105   8.029  11.576  0.7473  2.2707  0.6694
 1001MOL0     H32104   4.979   8.032  11.340  2.7243 -0.6807  0.0323
 1001MOL0     H32105   4.999   7.877  11.426  0.0260  0.1764  1.4256
 1001MOL0     H32106   4.763   8.075  11.445 -4.2066 -1.6255  1.9090
 1001MOL0     H32107   4.782   7.914  11.527  3.9836 -0.6104  0.6362
 1001MOL0     H32108   4.713   7.795  11.325 -2.7877  1.1920  0.8322
 1001MOL0     H32109   4.825   7.898  11.231  1.5183 -1.9022  2.2215
 1001MOL0     H32110   4.554   7.902  11.200 -0.8856  0.6848 -0.6228
 1001MOL0     H32111   4.550   7.987  11.359  1.1969 -1.0882  0.4260
 1001MOL0     H32112   4.669   8.074  11.088 -0.3541  0.6933 -0.2341
 1001MOL0     H32113   4.704   8.157  11.254 -0.5400 -0.6853  1.6570
 1001MOL0     H32114   5.280   8.438  11.302  0.2392  2.7732  1.7691
 1001MOL0     H32115   5.502   8.545  11.265  0.4121  0.1180 -0.1845
 1001MOL0     H32116   5.896   8.597  11.276 -1.0006  0.2021  0.0014
 1001MOL0     H32117   6.112   8.719  11.235  2.5945  0.9389  1.1024
 1001MOL0     H32118   8.056   9.392  11.169  1.8004 -2.6472  0.1231
 1001MOL0     H32119   8.285   9.310  11.098  0.5970 -1.3012 -0.8637
 1001MOL0     H32120   8.605   9.116  10.819 -0.4162 -0.5673  1.0884
 1001MOL0     H32121   8.842   9.098  10.791 -0.5588 -1.2216  2.7461
 1001MOL0     H32122   9.066   9.140  10.682  0.1515 -1.4664 -0.7390
 1001MOL0     H32123   9.044   9.077  10.848  2.9444 -1.0339  0.5260
 1001MOL0     H32124   9.239   9.161  10.927  0.9476 -0.3370  0.3443
 1001MOL0     H32125   9.275   9.055  10.784  0.2899  0.6996 -1.8223
 1001MOL0     H32126   9.280   9.355  10.760  1.7774  0.5900  2.4221
 1001MOL0     H32127   9.296   9.234  10.630 -1.6439  0.2475  1.2874
 1001MOL0     H32128   9.508   9.342  10.697  0.6551  1.5826  2.6270
 1001MOL0     H32129   9.483   9.280  10.866  0.2828  2.0828  0.0509
 1001MOL0     H32130   9.637   8.924  10.715  1.3507  0.8992  0.1821
 1001MOL0     H32131   8.903   9.508  10.881 -0.7188  1.2036  2.5567
 1001MOL0     H32132   8.673   9.543  10.911  0.9179 -0.6823 -1.3716
 1002MOL0     O32133   5.045   6.402   2.134  0.1899 -0.5817  0.1737
 1002MOL0     C32134   5.088   6.485   2.054  0.8462 -0.3881 -0.1204
 1002MOL0     O32135   5.015   6.587   2.000  0.3543  0.5583 -0.2444
 1002MOL0     C32136   4.888   6.596   2.025  0.4126 -0.7404  0.4763
 1002MOL0     C32137   4.796   6.496   1.992  0.2538 -0.0646 -0.7337
 1002MOL0     C32138   4.657   6.514   2.016 -1.0654  0.8853  0.2612
 1002MOL0     C32139   4.613   6.629   2.086  0.1739 -0.1011 -0.1263
 1002MOL0     O32140   4.478   6.658   2.103  0.0482  1.0066  0.2879
 1002MOL0     C32141   4.398   6.559   2.167 -1.3036 -0.6384  0.3848
 1002MOL0     C32142   4.273   6.528   2.089  0.7049 -0.5637 -0.1448
 1002MOL0     C32143   4.166   6.471   2.175  0.3443  1.4591 -0.9908
 1002MOL0     C32144   4.051   6.415   2.087  0.1672  0.6694  0.2693
 1002MOL0     C32145   3.941   6.333   2.170 -0.6863 -0.1778 -0.2953
 1002MOL0     C32146   3.838   6.278   2.076  0.0184 -0.0083 -0.2668
 1002MOL0     C32147   3.900   6.170   1.989 -0.8187  0.5772 -0.0707
 1002MOL0     C32148   3.807   6.081   1.912  0.2811  1.0274 -0.4234
 1002MOL0     N32149   3.740   5.993   2.007  0.0012 -0.7082 -0.1691
 1002MOL0     C32150   3.643   6.009   2.107  0.4814 -0.9106  0.3353
 1002MOL0     C32151   3.624   5.894   2.180 -0.0188  0.0442  0.4159
 1002MOL0     C32152   3.532   5.857   2.295  0.3716  0.4216 -0.1505
 1002MOL0     C32153   3.401   5.800   2.244 -1.1761  0.4004  0.4546
 1002MOL0     C32154   3.308   5.734   2.352 -0.7184  0.1817  0.4356
 1002MOL0     C32155   3.167   5.698   2.308 -1.2477 -0.7685 -0.6551
 1002MOL0     O32156   3.087   5.816   2.316 -0.0464 -0.1029  0.5153
 1002MOL0     C32157   2.955   5.807   2.293  0.0341  0.6530  0.1139
 1002MOL0     C32158   2.883   5.685   2.288  0.2360 -0.1757 -0.3305
 1002MOL0     C32159   2.745   5.679   2.254  0.8056  0.0268 -1.4958
 1002MOL0     C32160   2.671   5.792   2.232  1.0511  0.1086 -0.5349
 1002MOL0     C32161   2.525   5.786   2.193 -0.9046 -0.5676 -0.4356
 1002MOL0     O32162   2.471   5.910   2.188  0.0850 -0.3894  0.5114
 1002MOL0     C32163   2.336   5.914   2.159 -0.8297 -0.2654  0.8409
 1002MOL0     C32164   2.233   5.890   2.249  0.0228 -0.5127 -0.7401
 1002MOL0     C32165   2.101   5.922   2.223 -0.5375 -0.3585 -0.1855
 1002MOL0     C32166   2.071   5.958   2.087  0.5011 -0.1167 -0.5938
 1002MOL0     O32167   1.939   5.996   2.055 -0.3592  0.5130 -0.8019
 1002MOL0     C32168   1.886   5.982   1.921 -1.3532  0.0521  0.4422
 1002MOL0     C32169   1.835   6.115   1.861 -0.1482 -0.4453  0.7708
 1002MOL0     C32170   1.708   6.148   1.946  0.3402 -0.0373 -0.1187
 1002MOL0     C32171   1.649   6.294   1.910  0.3686 -0.1479  0.2629
 1002MOL0     C32172   1.533   6.260   1.813  0.2323  0.3047 -0.5923
 1002MOL0     C32173   1.449   6.376   1.751 -0.6323  0.4169 -0.2502
 1002MOL0     C32174   1.342   6.331   1.658  0.1327 -0.5078  1.3949
 1002MOL0     C32175   1.203   6.298   1.738  0.0148 -0.0742 -0.2556
 1002MOL0    Cl32176   1.144   6.445   1.817 -0.0003  0.1371  0.1721
 1002MOL0     C32177   2.178   5.971   1.989  0.8257 -1.7274  0.1136
 1002MOL0     C32178   2.309   5.957   2.028  0.1569 -1.0093  0.5295
 1002MOL0     O32179   2.477   5.684   2.164  0.1374 -0.2274  0.1740
 1002MOL0     C32180   2.739   5.917   2.250 -0.1788  0.6603  0.5860
 1002MOL0     C32181   2.874   5.918   2.280  0.1938 -0.7899 -0.5604
 1002MOL0     N32182   3.716   5.809   2.130  0.4345  0.2434  0.3587
 1002MOL0     N32183   3.779   5.864   2.025  0.0306 -0.1614 -0.8869
 1002MOL0     C32184   4.708   6.725   2.121  0.4793  0.2780  0.0331
 1002MOL0     C32185   4.843   6.712   2.092  0.3715 -0.3589 -1.5437
 1002MOL0     C32186   5.228   6.461   2.011  0.2592  0.4524  0.1450
 1002MOL0     C32187   5.289   6.340   2.037 -0.8469  0.4070 -0.0839
 1002MOL0     C32188   5.422   6.315   2.008 -1.5300  0.4197 -0.5962
 1002MOL0     C32189   5.490   6.414   1.943 -0.1045  0.1505  0.1584
 1002MOL0     O32190   5.625   6.394   1.915  0.7597 -0.8725  0.0799
 1002MOL0     C32191   5.688   6.468   1.802 -0.2824  0.8124  0.4637
 1002MOL0     C32192   5.630   6.422   1.660 -0.0105  0.3406  0.0555
 1002MOL0     C32193   5.741   6.376   1.560 -1.2023 -0.1898 -0.4676
 1002MOL0     C32194   5.805   6.497   1.497 -0.2135  0.3092 -0.1142
 1002MOL0     C32195   5.935   6.522   1.562 -0.4651 -0.3757  0.7528
 1002MOL0     C32196   6.057   6.537   1.586  0.7491 -0.5224  0.2655
 1002MOL0     C32197   5.428   6.542   1.906 -0.8513 -0.0686 -0.4445
 1002MOL0     C32198   5.294   6.561   1.936 -0.1147  0.5871  0.3809
 1002MOL0     H32199   4.826   6.418   1.923 -0.2213  0.5668 -1.6699
 1002MOL0     H32200   4.589   6.447   1.964  0.4488 -0.2799 -0.2690
 1002MOL0     H32201   4.378   6.591   2.270  0.8317  0.8321  0.4120
 1002MOL0     H32202   4.455   6.467   2.179  1.9138  1.0098 -0.9273
 1002MOL0     H32203   4.306   6.465   2.006 -0.7741 -1.8105  0.1669
 1002MOL0     H32204   4.229   6.616   2.042  1.5656  2.1671  3.6513
 1002MOL0     H32205   4.120   6.556   2.227  0.1020  0.7032  0.0675
 1002MOL0     H32206   4.204   6.394   2.244 -0.8221  0.7471 -1.1234
 1002MOL0     H32207   3.999   6.489   2.025  0.7556  0.1742 -0.8397
 1002MOL0     H32208   4.096   6.342   2.019 -2.0727 -0.4609 -0.0980
 1002MOL0     H32209   3.894   6.409   2.233  0.5442  1.6395 -1.4676
 1002MOL0     H32210   3.979   6.261   2.243  0.4740 -0.2437 -0.9367
 1002MOL0     H32211   3.793   6.357   2.015 -5.4617 -2.7386 -0.3851
 1002MOL0     H32212   3.746   6.235   2.117  0.3431 -2.8553 -2.1594
 1002MOL0     H32213   3.956   6.222   1.910  0.4602  0.9732  1.0511
 1002MOL0     H32214   3.967   6.111   2.052 -0.6792  1.5491  0.7128
 1002MOL0     H32215   3.859   6.035   1.826 -1.9206 -1.7181 -0.4367
 1002MOL0     H32216   3.726   6.142   1.871  0.6709  2.9083  1.4739
 1002MOL0     H32217   3.594   6.104   2.129 -1.7739 -1.3192 -2.3445
 1002MOL0     H32218   3.512   5.944   2.358 -3.6050 -1.2478  1.2136
 1002MOL0     H32219   3.572   5.782   2.363  0.2157  0.7962  0.3559
 1002MOL0     H32220   3.415   5.724   2.166 -1.1221 -1.4713  2.1898
 1002MOL0     H32221   3.351   5.880   2.190 -3.4314 -1.4566 -0.4023
 1002MOL0     H32222   3.361   5.644   2.382  0.0211  0.7064  0.7488
 1002MOL0     H32223   3.292   5.806   2.433 -0.3757  0.5580  0.1742
 1002MOL0     H32224   3.135   5.618   2.376 -0.2216 -0.1103  0.6471
 1002MOL0     H32225   3.175   5.668   2.204  1.4549  0.6564 -0.9421
 1002MOL0     H32226   2.927   5.595   2.328 -1.7307 -0.3622  1.5894
 1002MOL0     H32227   2.701   5.580   2.252  1.0468 -0.1139 -0.4936
 1002MOL0     H32228   2.258   5.872   2.353 -2.9997 -2.0138 -0.1540
 1002MOL0     H32229   2.020   5.912   2.295 -0.6755 -0.5387 -0.3627
 1002MOL0     H32230   1.799   5.916   1.935 -0.2484 -1.1934  1.7721
 1002MOL0     H32231   1.957   5.942   1.848 -3.2641 -1.4110 -0.7004
 1002MOL0     H32232   1.798   6.101   1.759 -1.4878  0.0233  1.1690
 1002MOL0     H32233   1.913   6.192   1.866  0.2077 -0.8628  1.7946
 1002MOL0     H32234   1.730   6.140   2.053 -2.2759 -2.5947  0.3722
 1002MOL0     H32235   1.637   6.066   1.930 -1.0020  0.3578  3.0610
 1002MOL0     H32236   1.609   6.350   1.995 -1.6593 -1.9825  0.5796
 1002MOL0     H32237   1.708   6.363   1.848 -1.1678  1.1460  0.1738
 1002MOL0     H32238   1.472   6.191   1.872  2.0892 -2.5887 -1.8062
 1002MOL0     H32239   1.577   6.207   1.728  0.9427 -1.2389  0.6832
 1002MOL0     H32240   1.523   6.427   1.690 -1.0741  2.2455  0.6824
 1002MOL0     H32241   1.423   6.440   1.836 -0.9958 -1.0955  0.8350
 1002MOL0     H32242   1.322   6.414   1.590 -1.2027 -1.0699  1.0546
 1002MOL0     H32243   1.368   6.253   1.586 -2.8134 -1.2798  1.0057
 1002MOL0     H32244   1.219   6.222   1.815 -1.3155  1.6068  1.7767
 1002MOL0     H32245   1.126   6.253   1.674  0.7357 -2.3031  0.3517
 1002MOL0     H32246   2.162   5.989   1.883 -3.5591 -0.2639  0.8183
 1002MOL0     H32247   2.400   5.967   1.969  0.6400 -3.3348  0.7711
 1002MOL0     H32248   2.690   6.014   2.246  1.0523  1.2590 -1.4922
 1002MOL0     H32249   2.925   6.011   2.306  1.1892 -1.9816  2.2242
 1002MOL0     H32250   4.684   6.814   2.178  3.0523  0.6977  0.6118
 1002MOL0     H32251   4.906   6.796   2.120  0.9422 -0.4270 -2.5951
 1002MOL0     H32252   5.231   6.261   2.084  2.0049 -1.1912  0.9859
 1002MOL0     H32253   5.470   6.221   2.034 -1.1655  1.1905  1.7978
 1002MOL0     H32254   5.792   6.436   1.810 -0.0850  1.5119  0.8050
 1002MOL0     H32255   5.684   6.577   1.813  1.3913  1.1504 -1.6707
 1002MOL0     H32256   5.563   6.337   1.677 -3.1980  2.5026 -0.7448
 1002MOL0     H32257   5.565   6.500   1.618  1.4681  1.2416 -0.6278
 1002MOL0     H32258   5.711   6.302   1.485  2.4253 -0.3932 -1.9276
 1002MOL0     H32259   5.802   6.316   1.628 -1.8618  0.9547  1.1826
 1002MOL0     H32260   5.831   6.480   1.392 -0.1497  3.1015 -0.6259
 1002MOL0     H32261   5.752   6.593   1.501 -1.3350 -0.1862 -1.8432
 1002MOL0     H32262   6.164   6.539   1.593  0.7270 -1.6816  1.1298
 1002MOL0     H32263   5.482   6.622   1.856 -1.7508  0.6191 -0.3345
 1002MOL0     H32264   5.237   6.653   1.924  0.4150  0.8465 -0.2543
 1003MOL0     O32265   2.600   7.685   0.289 -0.0088  0.0192 -0.1778
 1003MOL0     C32266   2.495   7.749   0.318  0.3229 -0.7958  0.2311
 1003MOL0     O32267   2.487   7.887   0.313 -0.0369 -0.5560 -0.6895
 1003MOL0     C32268   2.592   7.954   0.257 -0.1086  0.0525  0.0772
 1003MOL0     C32269   2.568   8.022   0.134 -0.7987  0.8622  0.7222
 1003MOL0     C32270   2.676   8.100   0.066  0.3443 -0.0092 -0.1937
 1003MOL0     C32271   2.798   8.109   0.130 -0.0577  0.2085  0.1509
 1003MOL0     O32272   2.900   8.183   0.075 -0.5938 -0.2787 -0.2821
 1003MOL0     C32273   2.878   8.254  -0.042  0.5614  0.6196  0.3023
 1003MOL0     C32274   2.998   8.334  -0.083  0.7649  0.1573  0.1466
 1003MOL0     C32275   3.041   8.429   0.032 -0.2924  0.5028  0.3979
 1003MOL0     C32276   3.156   8.522  -0.012  0.3915 -0.4691  0.4001
 1003MOL0     C32277   3.205   8.591   0.121 -0.1199  0.5460  0.3296
 1003MOL0     C32278   3.323   8.679   0.090  0.4916  0.2149 -0.7977
 1003MOL0     C32279   3.385   8.760   0.214  0.6342 -0.1917  0.6008
 1003MOL0     C32280   3.341   8.907   0.203  0.6060  0.3742  0.2067
 1003MOL0     N32281   3.418   8.968   0.315 -0.5681 -0.5600 -0.0900
 1003MOL0     C32282   3.539   9.035   0.304 -0.0372 -0.3287  0.3520
 1003MOL0     C32283   3.574   9.069   0.434  0.4244 -0.1663  0.4739
 1003MOL0     C32284   3.698   9.150   0.476 -0.0613 -0.0071  0.5128
 1003MOL0     C32285   3.673   9.303   0.471  0.0732 -0.4868 -0.1057
 1003MOL0     C32286   3.713   9.343   0.324  0.0288  0.9536 -0.5096
 1003MOL0     C32287   3.698   9.494   0.311 -0.0992 -0.1491 -1.1242
 1003MOL0     O32288   3.568   9.527   0.347  0.1882 -0.1051 -0.3659
 1003MOL0     C32289   3.468   9.486   0.261  0.8431  0.4225  0.2959
 1003MOL0     C32290   3.369   9.410   0.316  0.2599  0.0105 -0.4190
 1003MOL0     C32291   3.273   9.343   0.238 -0.2270 -0.0899 -0.7744
 1003MOL0     C32292   3.273   9.359   0.102  0.2235 -0.0930  1.1014
 1003MOL0     C32293   3.175   9.275   0.019  1.0051  0.4083  0.1836
 1003MOL0     O32294   3.059   9.249   0.089 -0.0555  0.0855  0.5269
 1003MOL0     C32295   2.984   9.132   0.067 -0.7807  0.0573  0.2881
 1003MOL0     C32296   2.847   9.120   0.110 -0.5313  0.2749 -0.8144
 1003MOL0     C32297   2.787   8.994   0.102  0.3739 -0.6448  1.3908
 1003MOL0     C32298   2.844   8.876   0.053 -0.1166  0.4021 -0.3966
 1003MOL0     O32299   2.784   8.754   0.041 -0.2862  0.3802  0.2950
 1003MOL0     C32300   2.653   8.731   0.108  0.0507  0.5756 -0.0636
 1003MOL0     C32301   2.592   8.584   0.084  0.2127 -0.6986 -0.0942
 1003MOL0     C32302   2.539   8.554  -0.065 -0.5230  0.5979 -0.4916
 1003MOL0     C32303   2.407   8.630  -0.095 -0.1669 -0.2747  0.1520
 1003MOL0     C32304   2.320   8.562  -0.205  0.3731  0.1448 -0.6121
 1003MOL0     C32305   2.396   8.569  -0.336 -0.6963  0.7961  0.0670
 1003MOL0     C32306   2.314   8.526  -0.453  0.9415 -0.0565  0.1281
 1003MOL0     C32307   2.363   8.543  -0.597  0.1717  0.1607 -0.1554
 1003MOL0    Cl32308   2.528   8.493  -0.618  0.0059 -0.4324  0.2606
 1003MOL0     C32309   2.976   8.890   0.002 -0.3736  0.0476  0.1141
 1003MOL0     C32310   3.050   9.013   0.007 -0.1590 -0.3429 -0.3617
 1003MOL0     O32311   3.192   9.261  -0.099  0.4261 -0.2503  0.0335
 1003MOL0     C32312   3.361   9.437   0.043 -0.1109  0.2243  0.5371
 1003MOL0     C32313   3.468   9.490   0.119  0.5874 -0.9012 -0.5664
 1003MOL0     N32314   3.474   9.015   0.516 -0.3929  0.2082 -0.0760
 1003MOL0     N32315   3.379   8.965   0.445 -0.8324 -0.7372 -0.3782
 1003MOL0     C32316   2.819   8.032   0.240 -0.5966  0.8101 -0.6499
 1003MOL0     C32317   2.727   7.952   0.303  0.0616  0.8324 -0.6491
 1003MOL0     C32318   2.380   7.671   0.381 -1.1853 -0.3341 -0.5895
 1003MOL0     C32319   2.260   7.744   0.403 -0.7099  0.2065  0.1449
 1003MOL0     C32320   2.150   7.682   0.462  0.7895 -0.3345 -0.8964
 1003MOL0     C32321   2.169   7.551   0.511  0.6594  0.3017  0.5924
 1003MOL0     O32322   2.075   7.483   0.587  0.3405 -0.2901  0.1529
 1003MOL0     C32323   1.939   7.526   0.604  0.4620 -0.0528 -0.4501
 1003MOL0     C32324   1.901   7.434   0.716 -0.2700  0.5546  0.7574
 1003MOL0     C32325   1.754   7.458   0.747 -0.2802  0.1238 -0.7849
 1003MOL0     C32326   1.722   7.378   0.872 -0.1799  0.2894 -0.3362
 1003MOL0     C32327   1.582   7.335   0.873 -0.1515 -1.0346 -0.4091
 1003MOL0     C32328   1.467   7.309   0.901 -0.4784  0.8582  0.0079
 1003MOL0     C32329   2.284   7.489   0.488  0.4981 -0.0248  0.2710
 1003MOL0     C32330   2.392   7.546   0.413 -0.1757  0.1156 -0.7772
 1003MOL0     H32331   2.465   8.009   0.100 -0.9341  0.1179  1.3910
 1003MOL0     H32332   2.651   8.155  -0.025 -2.3329  0.0219  0.4645
 1003MOL0     H32333   2.788   8.317  -0.046  1.1948  1.5565  0.5003
 1003MOL0     H32334   2.857   8.193  -0.130 -1.6887  0.8608  0.5910
 1003MOL0     H32335   2.977   8.390  -0.175  2.7919 -0.2638 -0.6339
 1003MOL0     H32336   3.077   8.263  -0.110  0.6295  0.4022 -0.9224
 1003MOL0     H32337   3.066   8.365   0.117 -1.7912 -1.1544 -0.3390
 1003MOL0     H32338   2.956   8.494   0.058 -0.4530  1.1999 -1.6605
 1003MOL0     H32339   3.237   8.478  -0.071  2.7038  0.8737  2.3824
 1003MOL0     H32340   3.103   8.597  -0.072  0.0738 -0.8231  0.2380
 1003MOL0     H32341   3.227   8.519   0.200 -1.3997  0.5910  0.7483
 1003MOL0     H32342   3.128   8.652   0.170 -0.7946  0.8863 -1.0898
 1003MOL0     H32343   3.298   8.753   0.014 -2.5049  1.4200  1.2130
 1003MOL0     H32344   3.398   8.608   0.053 -0.5568 -0.6398 -1.3446
 1003MOL0     H32345   3.357   8.717   0.311  2.3154  0.4644  1.4249
 1003MOL0     H32346   3.494   8.758   0.202  0.8645  0.3876  2.3261
 1003MOL0     H32347   3.231   8.913   0.210  0.6565  1.3847  0.3710
 1003MOL0     H32348   3.375   8.958   0.113  0.6533  1.8906  1.0516
 1003MOL0     H32349   3.593   9.064   0.214 -0.2521  0.1958  0.3918
 1003MOL0     H32350   3.787   9.124   0.418 -0.4347  1.8388 -0.9829
 1003MOL0     H32351   3.727   9.121   0.578  0.4356 -1.6555 -0.0580
 1003MOL0     H32352   3.734   9.368   0.535 -0.1444  0.2892 -0.6700
 1003MOL0     H32353   3.569   9.320   0.497  0.1925  3.0847 -1.3380
 1003MOL0     H32354   3.815   9.310   0.304 -0.4276  0.1695 -1.6625
 1003MOL0     H32355   3.656   9.289   0.247  0.5521  0.6339 -0.6791
 1003MOL0     H32356   3.731   9.531   0.213  1.8339 -0.9215 -0.8154
 1003MOL0     H32357   3.762   9.547   0.383 -2.0148 -0.0622  0.6119
 1003MOL0     H32358   3.382   9.393   0.423  1.1039 -0.4241 -0.5802
 1003MOL0     H32359   3.201   9.286   0.295  0.7115 -2.8039 -2.1180
 1003MOL0     H32360   2.797   9.207   0.151 -1.4925 -0.9180  0.6584
 1003MOL0     H32361   2.681   8.987   0.125  0.4088  1.7553  2.5069
 1003MOL0     H32362   2.586   8.812   0.080  0.6677  0.4085 -2.2704
 1003MOL0     H32363   2.670   8.752   0.213  2.6336  3.6222 -0.9413
 1003MOL0     H32364   2.515   8.573   0.161 -0.2715  0.8601 -0.3078
 1003MOL0     H32365   2.662   8.505   0.113 -0.8805 -0.9783  1.9768
 1003MOL0     H32366   2.513   8.448  -0.067  1.1084  0.1724 -2.7182
 1003MOL0     H32367   2.613   8.563  -0.145 -2.2705 -0.6570 -2.3844
 1003MOL0     H32368   2.348   8.632  -0.003  1.7827  2.7584  1.5022
 1003MOL0     H32369   2.435   8.732  -0.123  2.4677 -1.1077 -0.4915
 1003MOL0     H32370   2.233   8.628  -0.217  1.0850  0.6589 -3.7163
 1003MOL0     H32371   2.306   8.457  -0.178  3.7255  0.0719  1.2563
 1003MOL0     H32372   2.483   8.502  -0.340 -0.2290  1.4366 -1.0508
 1003MOL0     H32373   2.445   8.665  -0.354 -0.2705  0.3861 -1.0433
 1003MOL0     H32374   2.292   8.420  -0.438 -0.2661  0.3761  1.6965
 1003MOL0     H32375   2.218   8.578  -0.448  1.0489  0.1154  0.4242
 1003MOL0     H32376   2.345   8.648  -0.624 -3.6087 -0.5388 -0.9261
 1003MOL0     H32377   2.295   8.493  -0.667 -1.8811  1.9097  0.4644
 1003MOL0     H32378   3.032   8.800  -0.024  1.2484  0.8452  0.7078
 1003MOL0     H32379   3.156   9.013  -0.014 -0.2138 -0.8868 -0.6692
 1003MOL0     H32380   3.368   9.460  -0.062  0.2640  3.1712  1.1169
 1003MOL0     H32381   3.556   9.535   0.074  0.7333 -1.2449 -0.6307
 1003MOL0     H32382   2.920   8.034   0.280 -1.2549 -0.7014  1.2775
 1003MOL0     H32383   2.769   7.901   0.389 -1.7404  0.4818  0.0524
 1003MOL0     H32384   2.250   7.842   0.358 -0.4015  0.1704 -0.0063
 1003MOL0     H32385   2.063   7.743   0.487  1.5670 -0.3978  2.4360
 1003MOL0     H32386   1.875   7.506   0.518  0.3200 -1.4234 -0.0491
 1003MOL0     H32387   1.935   7.631   0.634  1.8700 -0.0025 -0.3681
 1003MOL0     H32388   1.923   7.330   0.691 -0.0589  0.7034  0.2999
 1003MOL0     H32389   1.958   7.453   0.807  1.8405 -1.1805 -0.1237
 1003MOL0     H32390   1.700   7.420   0.660 -0.8810 -2.6344  0.6562
 1003MOL0     H32391   1.730   7.562   0.766 -1.7184 -0.3308  0.0043
 1003MOL0     H32392   1.788   7.291   0.858  0.4126  1.2395 -4.7043
 1003MOL0     H32393   1.742   7.436   0.963 -0.7998  0.3777 -0.2535
 1003MOL0     H32394   1.373   7.263   0.922 -0.3046  1.6119  3.0672
 1003MOL0     H32395   2.299   7.388   0.526  1.9791  0.0422 -0.0707
 1003MOL0     H32396   2.481   7.489   0.389  0.1020  1.2102 -2.4726
 1004MOL0     O32397  10.467   1.742  10.159 -0.0441 -0.2314 -0.1554
 1004MOL0     C32398  10.398   1.642  10.149 -0.0332 -0.2230 -0.5104
 1004MOL0     O32399  10.277   1.630  10.084  0.2417  0.4057  0.4972
 1004MOL0     C32400  10.245   1.712   9.986 -0.8609 -0.0405 -0.1701
 1004MOL0     C32401  10.331   1.786   9.903 -0.4549  0.1376  0.2000
 1004MOL0     C32402  10.294   1.853   9.789 -0.0817  0.0382  0.5557
 1004MOL0     C32403  10.158   1.871   9.755 -0.3884 -0.6953  0.0044
 1004MOL0     O32404  10.121   1.975   9.671 -0.0230 -0.1933  0.4393
 1004MOL0     C32405  10.203   1.999   9.559  0.2620  0.2733  0.4309
 1004MOL0     C32406  10.123   2.036   9.438  0.5758  0.1226 -0.7223
 1004MOL0     C32407  10.216   2.038   9.320 -0.3152  0.7318  0.8811
 1004MOL0     C32408  10.149   2.073   9.189 -0.8745 -0.3887 -0.3602
 1004MOL0     C32409  10.251   2.099   9.081  0.4131 -0.0478 -0.1077
 1004MOL0     C32410  10.340   1.981   9.047 -0.1719  0.2149  0.6603
 1004MOL0     C32411  10.395   1.991   8.904 -0.0440 -0.0886  0.7862
 1004MOL0     C32412  10.473   2.114   8.872 -0.6834  0.3517 -0.5426
 1004MOL0     N32413  10.618   2.084   8.871 -0.1268 -0.0352 -0.3466
 1004MOL0     C32414  10.705   2.101   8.974  0.1550 -0.2123 -0.2208
 1004MOL0     C32415  10.831   2.097   8.912  0.2420  0.9925 -0.6855
 1004MOL0     C32416  10.966   2.146   8.964  0.0796  0.5821 -0.7862
 1004MOL0     C32417  10.964   2.296   9.017  0.5962  0.1378  0.8334
 1004MOL0     C32418  10.968   2.389   8.895 -0.0240 -0.5432  0.2698
 1004MOL0     C32419  11.009   2.538   8.927 -0.0015 -0.5487 -0.0461
 1004MOL0     O32420  11.140   2.532   8.989  0.0246 -0.2709 -0.3770
 1004MOL0     C32421  11.252   2.500   8.925 -0.1978  0.7559  0.6999
 1004MOL0     C32422  11.357   2.443   8.997 -0.4853  0.1254  0.2629
 1004MOL0     C32423  11.483   2.422   8.938  1.0518  0.7093  0.3586
 1004MOL0     C32424  11.503   2.458   8.806 -0.7831  0.7412  0.3738
 1004MOL0     C32425  11.640   2.457   8.751 -0.4985  0.3017  1.5416
 1004MOL0     O32426  11.746   2.477   8.827  0.1470 -0.9920 -0.0172
 1004MOL0     C32427  11.871   2.443   8.777  0.0794  0.7807 -0.5010
 1004MOL0     C32428  11.937   2.500   8.673 -0.3412  0.5069  0.6219
 1004MOL0     C32429  12.057   2.440   8.616  0.2621 -0.4517 -0.4136
 1004MOL0     C32430  12.105   2.325   8.674 -0.3448  0.3271 -0.8371
 1004MOL0     O32431  12.219   2.265   8.608  0.0010  0.4466 -0.0604
 1004MOL0     C32432  12.295   2.168   8.692 -0.1228 -0.1970  0.4402
 1004MOL0     C32433  12.435   2.159   8.638  0.5997  0.3985 -0.2648
 1004MOL0     C32434  12.539   2.136   8.744 -0.3587 -0.0817  0.1599
 1004MOL0     C32435  12.679   2.134   8.672 -0.8633 -0.3990 -0.6760
 1004MOL0     C32436  12.794   2.114   8.779  0.9308 -0.0370  0.3404
 1004MOL0     C32437  12.921   2.073   8.707  0.3302 -0.3456 -0.2419
 1004MOL0     C32438  13.046   2.071   8.792  0.1539  0.7704 -0.8315
 1004MOL0     C32439  13.057   1.959   8.906  0.1457  0.3118  0.1618
 1004MOL0    Cl32440  12.950   1.996   9.041 -0.0025  0.3427  0.1435
 1004MOL0     C32441  12.041   2.272   8.789 -0.0521 -0.9406 -0.2849
 1004MOL0     C32442  11.926   2.332   8.840 -0.9004  0.2105 -0.4743
 1004MOL0     O32443  11.639   2.442   8.629 -0.3094  0.6626 -0.3715
 1004MOL0     C32444  11.403   2.517   8.733  0.0539 -0.5048  0.1301
 1004MOL0     C32445  11.278   2.532   8.788  0.6543  0.0126 -0.5254
 1004MOL0     N32446  10.805   2.083   8.777 -0.0495  0.7126  0.4298
 1004MOL0     N32447  10.677   2.064   8.751  0.6907 -0.1990 -0.1700
 1004MOL0     C32448  10.073   1.793   9.833 -0.0016 -0.4828 -0.4731
 1004MOL0     C32449  10.110   1.720   9.948 -0.0892  0.7268 -0.4941
 1004MOL0     C32450  10.444   1.531  10.231 -0.1258  0.1185  0.3844
 1004MOL0     C32451  10.357   1.424  10.267 -0.4216 -0.4570  0.6519
 1004MOL0     C32452  10.398   1.320  10.344 -0.1050 -0.3053  0.4199
 1004MOL0     C32453  10.528   1.310  10.387  0.2498 -0.0218  0.2417
 1004MOL0     O32454  10.563   1.207  10.473  0.8716 -0.0069 -0.4351
 1004MOL0     C32455  10.645   1.248  10.583 -0.0407 -0.5291  1.0056
 1004MOL0     C32456  10.648   1.142  10.686  0.7899  0.8251 -0.4084
 1004MOL0     C32457  10.510   1.115  10.750  0.3245  0.1921  0.4358
 1004MOL0     C32458  10.471   1.203  10.867  0.5829  0.5900  0.8395
 1004MOL0     C32459  10.427   1.340  10.837 -0.3205 -0.0889  1.3142
 1004MOL0     C32460  10.395   1.446  10.780 -0.4884 -0.1570 -0.4079
 1004MOL0     C32461  10.618   1.402  10.349 -0.1725 -0.2483 -0.0051
 1004MOL0     C32462  10.577   1.517  10.268  0.2135  0.2546 -0.3974
 1004MOL0     H32463  10.439   1.776   9.910 -0.3395  0.6066 -0.8271
 1004MOL0     H32464  10.380   1.908   9.752  1.0724 -0.8656  1.7775
 1004MOL0     H32465  10.271   1.917   9.531 -0.0789  0.8249 -2.3289
 1004MOL0     H32466  10.267   2.087   9.576  2.2578 -0.8122 -1.0179
 1004MOL0     H32467  10.084   2.135   9.462  1.3950 -0.1140  1.9240
 1004MOL0     H32468  10.042   1.967   9.415 -0.4690  1.5985 -1.6756
 1004MOL0     H32469  10.286   1.955   9.315  0.1095  1.1710 -1.3263
 1004MOL0     H32470  10.282   2.123   9.341  2.6400 -1.0485 -0.5356
 1004MOL0     H32471  10.076   1.998   9.156 -0.1094 -0.9242 -0.8759
 1004MOL0     H32472  10.089   2.161   9.215 -3.4005 -2.3039  0.8386
 1004MOL0     H32473  10.319   2.182   9.105 -1.6685  1.4944  0.7553
 1004MOL0     H32474  10.187   2.133   8.999 -0.9632 -1.2652  0.4234
 1004MOL0     H32475  10.283   1.889   9.064 -1.4876  0.8930  0.0749
 1004MOL0     H32476  10.424   1.966   9.115 -1.0945  2.6934  2.4693
 1004MOL0     H32477  10.458   1.903   8.884  0.1767  0.4752 -1.2588
 1004MOL0     H32478  10.316   1.978   8.829 -0.0480  1.1475  0.5585
 1004MOL0     H32479  10.464   2.195   8.945  2.5225  1.4960 -1.2083
 1004MOL0     H32480  10.443   2.141   8.770 -0.3521 -3.3417 -1.7682
 1004MOL0     H32481  10.687   2.104   9.081  0.9374 -0.7822 -0.0603
 1004MOL0     H32482  11.044   2.126   8.890 -1.4166  0.7217 -2.4770
 1004MOL0     H32483  10.990   2.074   9.043 -0.3957 -2.0550 -2.9019
 1004MOL0     H32484  11.047   2.318   9.085 -0.4498 -0.5131  2.3854
 1004MOL0     H32485  10.876   2.308   9.081 -1.5336 -2.3383 -1.3910
 1004MOL0     H32486  11.050   2.356   8.830  0.5740  0.4031  0.5139
 1004MOL0     H32487  10.874   2.388   8.839  0.3777 -0.8984 -0.4156
 1004MOL0     H32488  10.927   2.584   8.983 -1.8591 -0.4853 -2.6159
 1004MOL0     H32489  11.011   2.592   8.832 -1.2509  0.5763  0.5404
 1004MOL0     H32490  11.353   2.415   9.102  0.3581 -3.1275 -0.4323
 1004MOL0     H32491  11.564   2.391   9.003  1.7913 -1.8936 -1.6482
 1004MOL0     H32492  11.882   2.582   8.626  0.8127  1.3456  0.6870
 1004MOL0     H32493  12.117   2.479   8.535 -0.6211 -1.2656 -1.4944
 1004MOL0     H32494  12.241   2.073   8.698  0.4011 -0.5796 -0.6556
 1004MOL0     H32495  12.292   2.211   8.792 -3.5331  2.1290 -0.4501
 1004MOL0     H32496  12.455   2.254   8.587  0.4922  1.0355  0.8279
 1004MOL0     H32497  12.447   2.079   8.566  5.8308  0.0279  0.5896
 1004MOL0     H32498  12.523   2.043   8.800  1.6823 -0.6379 -0.0866
 1004MOL0     H32499  12.539   2.218   8.817 -2.3705  1.5516 -1.5633
 1004MOL0     H32500  12.685   2.055   8.597 -0.3520 -3.0352  1.9512
 1004MOL0     H32501  12.688   2.231   8.621  1.3527 -0.6717 -0.9089
 1004MOL0     H32502  12.770   2.025   8.838  1.5836 -0.4106  0.0505
 1004MOL0     H32503  12.800   2.209   8.833 -0.8470  0.1671  0.2141
 1004MOL0     H32504  12.946   2.147   8.630 -0.6078  0.0932 -0.1411
 1004MOL0     H32505  12.921   1.974   8.660  0.7885 -0.2116 -0.5342
 1004MOL0     H32506  13.125   2.050   8.719  3.6371  1.7809  2.3033
 1004MOL0     H32507  13.066   2.168   8.838 -2.4545  0.7638  0.4989
 1004MOL0     H32508  13.160   1.937   8.934  1.1728  1.5540 -2.3170
 1004MOL0     H32509  13.018   1.863   8.870 -0.8911  0.5222  0.6940
 1004MOL0     H32510  12.077   2.184   8.841  0.7222  0.6827  2.1402
 1004MOL0     H32511  11.867   2.285   8.918  0.1700 -0.0498  0.2020
 1004MOL0     H32512  11.427   2.554   8.633 -0.1264 -2.3210 -0.6231
 1004MOL0     H32513  11.205   2.569   8.718  0.3357 -1.7638 -1.1833
 1004MOL0     H32514   9.966   1.789   9.816  0.0058 -1.3312 -0.3330
 1004MOL0     H32515  10.047   1.660  10.013 -0.9312  1.6357 -0.4608
 1004MOL0     H32516  10.255   1.423  10.230 -0.5056  1.7615  0.6985
 1004MOL0     H32517  10.323   1.246  10.370 -0.0674 -0.4234  0.1945
 1004MOL0     H32518  10.615   1.342  10.630 -2.0500 -0.2987 -0.5895
 1004MOL0     H32519  10.744   1.272  10.544 -0.7133  0.1438 -0.3468
 1004MOL0     H32520  10.681   1.055  10.630  2.9014  3.9872 -4.6476
 1004MOL0     H32521  10.718   1.169  10.767 -1.0240  1.8544  0.8959
 1004MOL0     H32522  10.496   1.014  10.790 -0.7018  0.3665  0.5450
 1004MOL0     H32523  10.433   1.118  10.673  0.5335  1.3359  0.2483
 1004MOL0     H32524  10.382   1.168  10.921 -0.4893  2.2440  0.2336
 1004MOL0     H32525  10.555   1.216  10.934  0.2976 -4.0412  2.4834
 1004MOL0     H32526  10.373   1.547  10.750  0.5989  0.0752 -0.4665
 1004MOL0     H32527  10.719   1.396  10.388 -0.6602  0.2244  1.3865
 1004MOL0     H32528  10.648   1.591  10.235  0.1884 -1.5729 -5.3148
 1005MOL0     O32529   5.979   2.398   9.861  0.0614  0.2520  1.0718
 1005MOL0     C32530   6.050   2.429   9.955  0.5431  0.9706  0.4069
 1005MOL0     O32531   6.000   2.458  10.074  0.5181 -0.5050 -0.2197
 1005MOL0     C32532   5.877   2.508  10.093  0.2100  0.9796  0.2959
 1005MOL0     C32533   5.767   2.508   9.999  0.2178  0.8348 -1.3074
 1005MOL0     C32534   5.644   2.554  10.062  0.5088  0.1090  0.9569
 1005MOL0     C32535   5.622   2.608  10.187 -0.5515  0.5524  1.3821
 1005MOL0     O32536   5.504   2.665  10.236  0.3739  0.5546 -0.6375
 1005MOL0     C32537   5.441   2.739  10.131 -0.0067  0.2539  1.0663
 1005MOL0     C32538   5.369   2.864  10.181  0.2792 -0.0819 -0.4447
 1005MOL0     C32539   5.239   2.827  10.255 -0.0322  0.6132 -0.0110
 1005MOL0     C32540   5.145   2.944  10.287 -0.3147  0.0393 -0.0671
 1005MOL0     C32541   5.036   2.881  10.366  0.6286 -0.3954  0.3971
 1005MOL0     C32542   5.073   2.856  10.514  0.3285  0.1292 -0.2183
 1005MOL0     C32543   5.083   2.993  10.588 -0.1233  0.8621 -0.0491
 1005MOL0     C32544   5.092   2.972  10.740  0.3810  0.0852  0.2055
 1005MOL0     N32545   4.956   2.952  10.784 -0.1128  0.1165 -0.4298
 1005MOL0     C32546   4.914   2.831  10.836 -0.0400  0.6605  0.2234
 1005MOL0     C32547   4.805   2.857  10.907 -0.8095 -1.3267 -0.4525
 1005MOL0     C32548   4.720   2.766  10.989  0.6696  0.2542  0.1152
 1005MOL0     C32549   4.582   2.832  11.026  0.2821 -0.1069  1.2777
 1005MOL0     C32550   4.498   2.742  11.119  0.5130  0.1681 -0.1512
 1005MOL0     C32551   4.363   2.796  11.169  1.4094 -0.4841 -0.7069
 1005MOL0     O32552   4.377   2.864  11.293  0.1539 -0.1357 -0.2803
 1005MOL0     C32553   4.266   2.908  11.366  0.5216  0.2713  1.1267
 1005MOL0     C32554   4.276   2.929  11.499 -0.2533 -0.4986 -0.8560
 1005MOL0     C32555   4.169   2.970  11.578  0.4530 -0.2973 -0.2637
 1005MOL0     C32556   4.042   2.984  11.518  0.8146 -0.2362 -0.0456
 1005MOL0     C32557   3.927   3.041  11.601 -0.8434 -0.5445  0.3301
 1005MOL0     O32558   3.848   3.137  11.548  0.3705  0.7004 -0.2360
 1005MOL0     C32559   3.735   3.184  11.624 -0.2812  0.3117  1.2309
 1005MOL0     C32560   3.645   3.091  11.684  0.8631 -0.1905  0.2201
 1005MOL0     C32561   3.534   3.150  11.743 -0.4667 -0.0741  0.5973
 1005MOL0     C32562   3.512   3.291  11.745 -0.8113  0.8561 -0.5966
 1005MOL0     O32563   3.400   3.339  11.810 -0.2977  0.5634 -0.4117
 1005MOL0     C32564   3.282   3.326  11.730  0.7664 -0.0194  0.5992
 1005MOL0     C32565   3.177   3.403  11.802  0.2113 -0.0087 -0.2334
 1005MOL0     C32566   3.050   3.387  11.720 -0.6950 -0.2236 -0.3051
 1005MOL0     C32567   2.943   3.440  11.819 -0.2826  0.1779 -0.7605
 1005MOL0     C32568   2.800   3.465  11.763 -0.0740  0.1125 -0.5102
 1005MOL0     C32569   2.719   3.548  11.868 -0.1279  0.0504 -0.2190
 1005MOL0     C32570   2.571   3.540  11.827 -0.3650  0.8665  0.0715
 1005MOL0     C32571   2.495   3.670  11.845 -0.3044 -0.4191 -0.1552
 1005MOL0    Cl32572   2.345   3.648  11.748 -0.2665  0.0977 -0.1769
 1005MOL0     C32573   3.605   3.379  11.690 -0.2418 -0.2763  1.0030
 1005MOL0     C32574   3.722   3.320  11.633  0.5191 -0.3915 -0.4622
 1005MOL0     O32575   3.932   3.008  11.719  0.0131  0.0302 -0.1663
 1005MOL0     C32576   4.030   2.954  11.379  0.5798 -0.9173 -0.7164
 1005MOL0     C32577   4.141   2.925  11.304 -0.0044 -0.4939  0.3777
 1005MOL0     N32578   4.775   2.997  10.888 -0.7465  0.7841 -0.4883
 1005MOL0     N32579   4.871   3.049  10.826 -0.3733 -1.1216  0.6213
 1005MOL0     C32580   5.730   2.597  10.273  0.0267 -0.8540 -0.3187
 1005MOL0     C32581   5.858   2.553  10.224  0.4890  1.0449 -0.9732
 1005MOL0     C32582   6.192   2.400   9.948 -0.0091 -0.5267 -1.7484
 1005MOL0     C32583   6.276   2.448  10.058  0.2754  0.2044 -0.5340
 1005MOL0     C32584   6.413   2.430  10.061 -0.3708 -0.3078  1.0723
 1005MOL0     C32585   6.472   2.361   9.958 -0.5904 -0.6673  0.4804
 1005MOL0     O32586   6.609   2.356   9.963 -0.3921  0.1989  0.0326
 1005MOL0     C32587   6.696   2.321   9.850 -0.0164  0.1722  0.3431
 1005MOL0     C32588   6.836   2.352   9.910  0.3932  0.7451  0.8691
 1005MOL0     C32589   6.952   2.326   9.809  0.0111 -0.2207  0.4490
 1005MOL0     C32590   7.089   2.378   9.843 -0.0677  0.4255 -0.2234
 1005MOL0     C32591   7.095   2.523   9.818  0.1600  0.2485 -0.0561
 1005MOL0     C32592   7.108   2.632   9.762 -0.2861  0.6339 -0.1660
 1005MOL0     C32593   6.392   2.314   9.850  0.2193 -0.2523  0.4886
 1005MOL0     C32594   6.253   2.345   9.845 -0.7323  0.9549 -0.4813
 1005MOL0     H32595   5.766   2.493   9.892 -0.0423  0.7056 -1.2878
 1005MOL0     H32596   5.574   2.548   9.980 -0.0938 -2.2938  1.5915
 1005MOL0     H32597   5.373   2.675  10.074  0.2246 -0.0631  1.1424
 1005MOL0     H32598   5.515   2.786  10.066  0.4888 -2.7275 -0.7025
 1005MOL0     H32599   5.333   2.913  10.090  0.8484 -1.9962 -1.7629
 1005MOL0     H32600   5.429   2.931  10.243 -1.0905  1.3695 -0.6384
 1005MOL0     H32601   5.268   2.773  10.346 -1.5240  0.1699  0.2292
 1005MOL0     H32602   5.178   2.763  10.190 -1.5047 -1.2752  2.9961
 1005MOL0     H32603   5.201   3.025  10.335 -0.3580  0.3056 -0.4598
 1005MOL0     H32604   5.093   2.976  10.196  0.4119  0.5893 -0.2977
 1005MOL0     H32605   5.004   2.782  10.334 -0.6558 -0.0785  0.6149
 1005MOL0     H32606   4.948   2.945  10.354  0.8773 -0.5596 -3.4741
 1005MOL0     H32607   5.165   2.797  10.526  1.3444  1.7923  0.5318
 1005MOL0     H32608   4.992   2.802  10.564 -2.1535  4.3229  0.7424
 1005MOL0     H32609   5.169   3.049  10.552  2.4368 -1.1603  2.3934
 1005MOL0     H32610   4.992   3.049  10.563 -0.4129 -0.1979 -1.4863
 1005MOL0     H32611   5.128   3.066  10.781  0.5597  0.2339 -0.2893
 1005MOL0     H32612   5.141   2.880  10.773 -1.2816 -0.4441  1.3537
 1005MOL0     H32613   4.960   2.735  10.816 -0.4306  0.0425  2.0675
 1005MOL0     H32614   4.774   2.751  11.084  1.4429 -1.1350 -0.5075
 1005MOL0     H32615   4.716   2.670  10.937 -0.0446  1.2198 -1.6563
 1005MOL0     H32616   4.529   2.851  10.932  0.1158 -4.1584  0.3483
 1005MOL0     H32617   4.605   2.923  11.082  0.9801  0.6199 -0.1383
 1005MOL0     H32618   4.465   2.656  11.061 -0.2813  0.0120  0.5202
 1005MOL0     H32619   4.561   2.709  11.203  0.1048  1.1660  0.5722
 1005MOL0     H32620   4.294   2.712  11.176  0.0310  0.7323  1.0125
 1005MOL0     H32621   4.316   2.860  11.094 -0.2468  1.7254  2.0336
 1005MOL0     H32622   4.376   2.923  11.541  0.7155  3.9281 -1.9570
 1005MOL0     H32623   4.177   2.989  11.684  0.4538  0.3585 -0.3800
 1005MOL0     H32624   3.658   2.983  11.679 -2.3299 -0.8252  2.6700
 1005MOL0     H32625   3.458   3.092  11.793  1.3833 -2.0680  1.2595
 1005MOL0     H32626   3.245   3.224  11.713 -1.0771  0.2461  2.5126
 1005MOL0     H32627   3.301   3.379  11.636  0.5503 -1.1804 -0.1263
 1005MOL0     H32628   3.205   3.509  11.807  0.5870 -0.0194 -1.7398
 1005MOL0     H32629   3.172   3.353  11.899  0.2787  0.3377 -0.0478
 1005MOL0     H32630   3.024   3.282  11.704 -0.3264 -0.2610 -0.6703
 1005MOL0     H32631   3.061   3.444  11.628 -0.0761  1.4694  0.7611
 1005MOL0     H32632   2.930   3.370  11.902  1.3530  0.5658 -0.1473
 1005MOL0     H32633   2.983   3.535  11.854 -0.7492  0.4903 -1.0610
 1005MOL0     H32634   2.743   3.372  11.753  0.0986 -0.2795  1.8164
 1005MOL0     H32635   2.794   3.518  11.667  0.5630  1.7820  0.3495
 1005MOL0     H32636   2.757   3.651  11.874  0.5833 -0.2085 -0.1840
 1005MOL0     H32637   2.724   3.501  11.967 -1.5142  0.6824  0.1812
 1005MOL0     H32638   2.564   3.507  11.723 -2.8771  1.3622  0.0192
 1005MOL0     H32639   2.517   3.458  11.876 -0.0479 -0.0066 -1.0157
 1005MOL0     H32640   2.557   3.757  11.822 -0.0933 -0.5078  0.0660
 1005MOL0     H32641   2.467   3.680  11.950 -0.7203  1.0219 -0.3835
 1005MOL0     H32642   3.601   3.487  11.682  0.7693 -0.3063 -0.1225
 1005MOL0     H32643   3.791   3.383  11.579 -0.6067 -1.1184 -2.8813
 1005MOL0     H32644   3.937   2.976  11.327  0.5787 -1.9070 -1.1404
 1005MOL0     H32645   4.142   2.935  11.195  3.0651 -2.0513  0.1530
 1005MOL0     H32646   5.717   2.637  10.373  1.0666  0.0009 -0.5066
 1005MOL0     H32647   5.933   2.559  10.303  1.0753 -0.4917 -1.3680
 1005MOL0     H32648   6.229   2.505  10.138  0.2589  1.4333 -1.3921
 1005MOL0     H32649   6.473   2.457  10.148 -0.8879 -3.6359  2.6180
 1005MOL0     H32650   6.670   2.376   9.759  1.3878  0.0166 -0.1876
 1005MOL0     H32651   6.684   2.214   9.833 -1.9001  0.4366 -0.1559
 1005MOL0     H32652   6.837   2.456   9.943 -1.5598  1.0559  0.0858
 1005MOL0     H32653   6.851   2.282   9.993  1.0254  0.5940  0.6345
 1005MOL0     H32654   6.914   2.358   9.711 -1.4673 -2.8431  0.0949
 1005MOL0     H32655   6.965   2.217   9.809 -0.8370 -0.3782 -1.9338
 1005MOL0     H32656   7.103   2.367   9.950 -0.0567 -0.4600 -0.3130
 1005MOL0     H32657   7.169   2.329   9.787  0.8797  0.7200  0.8493
 1005MOL0     H32658   7.114   2.734   9.728  0.5146  1.6392  2.6208
 1005MOL0     H32659   6.439   2.254   9.773  1.9932 -0.0983  1.4004
 1005MOL0     H32660   6.195   2.304   9.763 -2.1784  1.5870  0.1989
 1006MOL0     O32661  10.642   6.890   1.980 -0.7463  0.2887  0.0843
 1006MOL0     C32662  10.681   6.771   1.964 -0.3489 -0.0502 -0.2411
 1006MOL0     O32663  10.604   6.663   1.956 -0.3896 -0.2033 -0.1072
 1006MOL0     C32664  10.473   6.680   1.971  0.4613 -0.2364 -0.4143
 1006MOL0     C32665  10.409   6.660   2.094 -0.6834 -0.6154  0.1311
 1006MOL0     C32666  10.274   6.648   2.095 -0.3136  0.5265 -0.2018
 1006MOL0     C32667  10.195   6.674   1.978  1.1235  0.2169 -0.2097
 1006MOL0     O32668  10.054   6.662   1.981  0.1435 -1.1514 -0.2554
 1006MOL0     C32669   9.989   6.616   2.100  0.0481  0.5234 -0.3465
 1006MOL0     C32670   9.837   6.623   2.082  0.5755  0.6562 -0.4060
 1006MOL0     C32671   9.765   6.559   2.197 -0.1800 -0.9363 -0.7674
 1006MOL0     C32672   9.611   6.592   2.200 -0.0161 -1.7709  0.4036
 1006MOL0     C32673   9.529   6.502   2.295 -0.1067  0.1878  0.7644
 1006MOL0     C32674   9.380   6.519   2.276  0.2883 -0.4590 -0.6546
 1006MOL0     C32675   9.297   6.435   2.361 -0.0342  0.3531 -0.1399
 1006MOL0     C32676   9.153   6.490   2.364  0.6717  0.1020 -0.1386
 1006MOL0     N32677   9.070   6.447   2.249  0.6732 -0.1642  0.1680
 1006MOL0     C32678   8.992   6.334   2.247  0.2308 -0.2583  0.2202
 1006MOL0     C32679   8.928   6.331   2.131  0.5751  0.0669  0.5642
 1006MOL0     C32680   8.813   6.237   2.084  0.5080  0.9943  0.0256
 1006MOL0     C32681   8.771   6.138   2.199 -0.6000 -0.1265  0.1842
 1006MOL0     C32682   8.634   6.073   2.177  0.4961  0.4125  0.3400
 1006MOL0     C32683   8.595   5.972   2.284 -0.3677 -0.4877  1.8433
 1006MOL0     O32684   8.465   6.009   2.342  0.1963  0.8130  0.2802
 1006MOL0     C32685   8.350   5.967   2.281  0.3815  0.7751 -0.6084
 1006MOL0     C32686   8.330   5.898   2.158  0.1383 -0.5591 -0.1846
 1006MOL0     C32687   8.202   5.878   2.107  1.1116 -0.5521 -0.3033
 1006MOL0     C32688   8.081   5.919   2.174 -0.4533 -0.8961  0.5704
 1006MOL0     C32689   7.946   5.880   2.125 -1.3907 -0.0354  0.1539
 1006MOL0     O32690   7.932   5.788   2.011 -0.0236 -0.3900  0.1623
 1006MOL0     C32691   7.810   5.742   1.971 -0.1316  0.0190  1.1448
 1006MOL0     C32692   7.803   5.622   1.901  0.1726 -0.5817 -0.5630
 1006MOL0     C32693   7.682   5.565   1.860 -0.4676 -0.7728  0.3759
 1006MOL0     C32694   7.562   5.635   1.873 -0.1286  0.4649 -0.1759
 1006MOL0     O32695   7.443   5.576   1.820 -0.7483 -0.5563  0.2101
 1006MOL0     C32696   7.315   5.614   1.876  0.3398  0.4938  0.1227
 1006MOL0     C32697   7.182   5.551   1.830 -0.0902 -0.5547  1.1722
 1006MOL0     C32698   7.171   5.402   1.847 -0.2542  0.5733 -0.3858
 1006MOL0     C32699   7.284   5.327   1.775  0.7769 -0.1059 -0.3698
 1006MOL0     C32700   7.246   5.183   1.787 -0.6729  1.1164 -0.1475
 1006MOL0     C32701   7.354   5.089   1.718  0.0324  0.0768 -0.0224
 1006MOL0     C32702   7.485   5.069   1.797 -0.0613 -0.3495 -0.1086
 1006MOL0     C32703   7.594   4.985   1.727 -0.0436 -0.1759  0.5955
 1006MOL0    Cl32704   7.535   4.814   1.701 -0.1648  0.3959  0.4503
 1006MOL0     C32705   7.567   5.755   1.943 -0.7117  0.0351  0.9183
 1006MOL0     C32706   7.687   5.809   1.989 -1.2330  0.7835 -0.7622
 1006MOL0     O32707   7.853   5.922   2.194  0.6772 -0.0117 -0.3016
 1006MOL0     C32708   8.101   6.001   2.286  0.0472  0.6337  0.5541
 1006MOL0     C32709   8.232   6.011   2.340 -0.6916 -0.0135  0.3000
 1006MOL0     N32710   8.973   6.439   2.059  0.2119 -0.9094 -0.2194
 1006MOL0     N32711   9.060   6.502   2.123 -0.3920 -0.1543 -0.7025
 1006MOL0     C32712  10.259   6.702   1.855 -0.5295  0.9939  0.5188
 1006MOL0     C32713  10.395   6.699   1.853  1.0397 -0.6654  0.9255
 1006MOL0     C32714  10.827   6.742   1.972 -0.1575  0.3780 -0.0178
 1006MOL0     C32715  10.915   6.847   1.987  0.7473  1.2307  0.7462
 1006MOL0     C32716  11.052   6.827   1.992  0.4876  0.3176  0.2256
 1006MOL0     C32717  11.108   6.699   1.981 -0.1360 -0.4846  0.2331
 1006MOL0     O32718  11.241   6.701   1.962 -0.4724  0.6116  0.5017
 1006MOL0     C32719  11.333   6.598   2.000  0.1134 -0.4243  0.6875
 1006MOL0     C32720  11.479   6.646   1.990 -0.0160 -0.3352 -0.4911
 1006MOL0     C32721  11.534   6.692   1.846  0.6046 -0.6312  0.3400
 1006MOL0     C32722  11.486   6.598   1.739 -0.5978  0.7852  0.3835
 1006MOL0     C32723  11.542   6.460   1.761 -0.0526 -0.7386  0.2191
 1006MOL0     C32724  11.595   6.353   1.774 -0.3503  0.2726  0.3682
 1006MOL0     C32725  11.022   6.590   1.992  0.3043  0.0911  0.1700
 1006MOL0     C32726  10.883   6.612   1.991  0.7722  0.2277  0.6599
 1006MOL0     H32727  10.486   6.643   2.167  0.8527  0.3329 -1.1914
 1006MOL0     H32728  10.235   6.622   2.193  0.1686 -0.4350 -0.2455
 1006MOL0     H32729  10.019   6.674   2.188 -0.1534  0.1723 -0.0427
 1006MOL0     H32730  10.012   6.510   2.113  2.8593  0.7104 -2.8328
 1006MOL0     H32731   9.817   6.566   1.990  2.3418 -2.7670  1.1626
 1006MOL0     H32732   9.805   6.728   2.090 -0.5898  0.2562  0.3089
 1006MOL0     H32733   9.804   6.607   2.287  2.1052 -1.5322 -1.3567
 1006MOL0     H32734   9.776   6.450   2.203  1.1387 -0.7804  0.2517
 1006MOL0     H32735   9.609   6.698   2.227  0.7146 -1.5045 -0.5078
 1006MOL0     H32736   9.571   6.589   2.098  1.0319 -0.8442 -0.0583
 1006MOL0     H32737   9.555   6.529   2.398  0.5126  0.3080  0.5841
 1006MOL0     H32738   9.557   6.398   2.281 -0.0845  0.3843 -0.7826
 1006MOL0     H32739   9.348   6.511   2.172  0.8038  1.1633 -0.9730
 1006MOL0     H32740   9.361   6.624   2.300 -1.0955 -0.5548 -1.2677
 1006MOL0     H32741   9.292   6.330   2.332  0.1500  1.1237 -3.3494
 1006MOL0     H32742   9.340   6.440   2.462 -2.2952 -1.1895  0.9745
 1006MOL0     H32743   9.155   6.599   2.362  2.7958  0.1266  0.5682
 1006MOL0     H32744   9.106   6.465   2.459  2.0657 -2.1994  0.0294
 1006MOL0     H32745   8.979   6.270   2.334  0.9643 -2.7088 -1.3570
 1006MOL0     H32746   8.840   6.182   1.993  1.2671 -0.2718  0.9787
 1006MOL0     H32747   8.726   6.299   2.060 -1.1201 -0.6987  1.3216
 1006MOL0     H32748   8.771   6.192   2.294  1.7816  0.2949  0.0123
 1006MOL0     H32749   8.849   6.063   2.210  2.3349  2.6892  0.0785
 1006MOL0     H32750   8.559   6.151   2.163 -0.2671 -0.2495  0.6789
 1006MOL0     H32751   8.645   6.027   2.078  2.7731  3.2022 -0.8298
 1006MOL0     H32752   8.665   5.974   2.367 -0.2869  2.5150  1.8086
 1006MOL0     H32753   8.606   5.874   2.236  1.4652  0.2460  0.6548
 1006MOL0     H32754   8.416   5.868   2.100  0.2179  0.7116 -0.7572
 1006MOL0     H32755   8.204   5.830   2.010  0.0390  2.0424 -1.6858
 1006MOL0     H32756   7.894   5.568   1.875 -0.5665 -1.3858 -1.5184
 1006MOL0     H32757   7.700   5.473   1.806  1.3540 -0.8340  1.0152
 1006MOL0     H32758   7.304   5.721   1.859  2.4636  0.4001 -2.3687
 1006MOL0     H32759   7.316   5.598   1.985 -0.4749 -0.4014  0.0152
 1006MOL0     H32760   7.168   5.581   1.725  0.2035  0.6369  1.4614
 1006MOL0     H32761   7.107   5.607   1.886  1.1467  2.5122  0.0169
 1006MOL0     H32762   7.076   5.380   1.796 -0.1625  0.7052 -0.6127
 1006MOL0     H32763   7.182   5.364   1.949  1.1552 -1.7304 -1.3263
 1006MOL0     H32764   7.290   5.361   1.671 -0.9771  3.1715  0.4729
 1006MOL0     H32765   7.372   5.360   1.831 -1.6043  2.2749  2.2501
 1006MOL0     H32766   7.143   5.177   1.749 -0.3432  1.4799 -1.1153
 1006MOL0     H32767   7.240   5.152   1.892 -2.8079  1.2968 -0.1541
 1006MOL0     H32768   7.367   5.122   1.615 -1.6679 -0.0632 -0.3177
 1006MOL0     H32769   7.306   4.990   1.719  0.1458 -0.1360  4.4256
 1006MOL0     H32770   7.532   5.167   1.809 -0.0945 -0.4834  1.2792
 1006MOL0     H32771   7.471   5.028   1.898 -0.9048  2.3569  0.9724
 1006MOL0     H32772   7.684   4.967   1.785 -0.3421 -6.2190 -0.2208
 1006MOL0     H32773   7.619   5.034   1.632  0.4314 -1.5293  0.0003
 1006MOL0     H32774   7.477   5.812   1.963 -0.4623  0.7080  0.1463
 1006MOL0     H32775   7.678   5.907   2.035  1.4238  1.1427 -0.8235
 1006MOL0     H32776   8.008   6.044   2.324 -2.1244 -2.0523 -1.2974
 1006MOL0     H32777   8.251   6.076   2.425 -0.2627  0.9891 -0.5398
 1006MOL0     H32778  10.210   6.714   1.759  0.9587 -2.7923 -0.8936
 1006MOL0     H32779  10.442   6.706   1.755 -2.8585 -0.4560 -1.1278
 1006MOL0     H32780  10.885   6.951   1.998  1.1969  1.5162 -0.5968
 1006MOL0     H32781  11.116   6.915   1.993  0.4902  0.3344 -0.6252
 1006MOL0     H32782  11.304   6.520   1.928 -2.1188  1.6357 -0.7997
 1006MOL0     H32783  11.316   6.569   2.104  0.3576  1.3852  1.2639
 1006MOL0     H32784  11.496   6.730   2.059  0.8922  1.0173 -2.2920
 1006MOL0     H32785  11.537   6.564   2.033 -0.4637 -0.8031 -0.7712
 1006MOL0     H32786  11.643   6.702   1.849  0.5819  2.5877 -2.8272
 1006MOL0     H32787  11.496   6.792   1.824 -2.1709 -1.9953 -1.6658
 1006MOL0     H32788  11.377   6.588   1.743 -0.4264 -1.5940  0.4092
 1006MOL0     H32789  11.525   6.618   1.639 -0.6882  1.4133  0.4714
 1006MOL0     H32790  11.645   6.261   1.798  1.3511  1.5387  1.9257
 1006MOL0     H32791  11.064   6.490   1.986  2.2126  0.8894 -0.4053
 1006MOL0     H32792  10.814   6.530   2.006 -0.8017  1.4273  0.2887
 1007MOL0     O32793   6.487   9.792   0.292  0.2444  0.0941 -0.3638
 1007MOL0     C32794   6.514   9.719   0.388 -0.7170  0.2682  1.0922
 1007MOL0     O32795   6.441   9.616   0.438 -0.2954  0.4185 -0.0073
 1007MOL0     C32796   6.347   9.556   0.357 -0.4375 -0.0669 -0.0348
 1007MOL0     C32797   6.241   9.495   0.426 -0.4150 -0.3068 -0.0782
 1007MOL0     C32798   6.144   9.430   0.358  0.1803  0.0297  0.0527
 1007MOL0     C32799   6.146   9.416   0.221  0.4087  0.0318  0.7803
 1007MOL0     O32800   6.036   9.362   0.150 -0.2673 -0.0687 -0.2761
 1007MOL0     C32801   6.064   9.308   0.015 -0.8284 -0.1417  0.2198
 1007MOL0     C32802   5.943   9.212  -0.009 -1.2674 -0.5811  0.0554
 1007MOL0     C32803   5.931   9.103   0.102  0.1094  0.2459 -0.7830
 1007MOL0     C32804   5.824   9.007   0.046 -0.7791 -0.1588 -0.7344
 1007MOL0     C32805   5.717   8.963   0.151 -0.2176 -0.6416  0.3696
 1007MOL0     C32806   5.614   8.868   0.102 -0.3322  0.1483  0.0515
 1007MOL0     C32807   5.478   8.860   0.173  0.2447  0.3552  0.3792
 1007MOL0     C32808   5.492   8.837   0.325  0.1077 -0.8292  0.7783
 1007MOL0     N32809   5.366   8.810   0.393  1.1014 -0.5407  0.9143
 1007MOL0     C32810   5.308   8.685   0.390 -0.7542 -0.4555  0.1578
 1007MOL0     C32811   5.187   8.713   0.449 -0.9373  0.1532 -1.2351
 1007MOL0     C32812   5.084   8.602   0.478 -0.3477 -1.2941 -0.3437
 1007MOL0     C32813   5.110   8.502   0.591 -0.3545 -0.3234  0.8063
 1007MOL0     C32814   4.994   8.424   0.652 -0.2060  0.4697  0.8826
 1007MOL0     C32815   5.023   8.383   0.791 -0.0592  0.2144  0.2337
 1007MOL0     O32816   4.917   8.313   0.861  0.0140 -0.7334  0.8331
 1007MOL0     C32817   4.882   8.192   0.803 -0.5270 -0.2741 -0.2140
 1007MOL0     C32818   4.948   8.074   0.836  0.4386 -0.0869 -0.4818
 1007MOL0     C32819   4.895   7.951   0.803  0.1200  0.5170  0.0748
 1007MOL0     C32820   4.784   7.935   0.721 -0.4640 -0.7140  1.0055
 1007MOL0     C32821   4.737   7.816   0.658  0.2552  0.2946 -0.4867
 1007MOL0     O32822   4.627   7.818   0.576 -0.4313  0.1008  0.5603
 1007MOL0     C32823   4.595   7.713   0.482 -0.3632 -0.6068 -0.6006
 1007MOL0     C32824   4.659   7.588   0.469 -0.0097  0.6079 -0.6117
 1007MOL0     C32825   4.611   7.493   0.383  0.5542  0.6804  0.2313
 1007MOL0     C32826   4.513   7.521   0.288 -0.3898 -1.0549  0.1339
 1007MOL0     O32827   4.480   7.435   0.190 -0.2723  0.0648 -0.2952
 1007MOL0     C32828   4.581   7.396   0.092  0.1575 -0.5972 -0.2045
 1007MOL0     C32829   4.640   7.521   0.026 -0.3590  0.6931 -0.1074
 1007MOL0     C32830   4.681   7.488  -0.119 -0.4378  0.2616  0.5236
 1007MOL0     C32831   4.740   7.611  -0.183 -0.0185 -0.2701 -0.4620
 1007MOL0     C32832   4.816   7.587  -0.319  0.1226 -0.7579  0.1486
 1007MOL0     C32833   4.905   7.692  -0.388 -0.1873  0.3963 -0.6349
 1007MOL0     C32834   5.025   7.740  -0.318  0.9030  0.3590  0.0702
 1007MOL0     C32835   5.119   7.848  -0.387  0.2931 -0.2271 -0.6989
 1007MOL0    Cl32836   5.187   7.783  -0.544  0.1331  0.3313  0.2075
 1007MOL0     C32837   4.440   7.640   0.315 -0.1372 -0.0162  0.2367
 1007MOL0     C32838   4.484   7.737   0.403 -0.0561  0.3048 -0.8933
 1007MOL0     O32839   4.788   7.715   0.696  0.4905 -0.3983 -0.3406
 1007MOL0     C32840   4.714   8.058   0.687  0.5863  0.4131 -0.0966
 1007MOL0     C32841   4.765   8.183   0.725 -0.4789 -0.3725 -0.0319
 1007MOL0     N32842   5.173   8.852   0.475  0.3779  0.1891  0.3213
 1007MOL0     N32843   5.276   8.906   0.436  0.0100 -0.6420  0.5300
 1007MOL0     C32844   6.253   9.471   0.143 -0.1386 -0.0986 -0.1841
 1007MOL0     C32845   6.350   9.543   0.218  0.6216 -0.6402 -0.2416
 1007MOL0     C32846   6.638   9.769   0.462  0.4296  0.1063 -0.9148
 1007MOL0     C32847   6.726   9.870   0.403  0.2535  0.4540 -0.3262
 1007MOL0     C32848   6.845   9.898   0.467 -0.1251 -0.5909  0.4740
 1007MOL0     C32849   6.881   9.838   0.586 -0.1219  0.3866 -0.4819
 1007MOL0     O32850   7.014   9.865   0.622  0.0430 -0.2770 -0.0714
 1007MOL0     C32851   7.088   9.758   0.670  0.1436  0.8178 -0.7889
 1007MOL0     C32852   7.208   9.809   0.735 -0.1541  0.6153 -0.5906
 1007MOL0     C32853   7.299   9.890   0.635 -0.0245  0.3690 -0.1501
 1007MOL0     C32854   7.421   9.978   0.696 -0.0722 -0.8077 -0.3884
 1007MOL0     C32855   7.538   9.897   0.737 -0.6064 -0.5951  0.0921
 1007MOL0     C32856   7.627   9.832   0.781 -0.6546 -0.0334 -0.0937
 1007MOL0     C32857   6.807   9.736   0.642  0.4968 -0.0306 -0.6905
 1007MOL0     C32858   6.682   9.707   0.575 -0.0109 -0.9097 -0.5876
 1007MOL0     H32859   6.246   9.514   0.533  2.4555 -0.7342 -0.0768
 1007MOL0     H32860   6.066   9.388   0.421  0.2050  2.3136  1.7456
 1007MOL0     H32861   6.147   9.237   0.013 -1.4074 -1.0998  3.9628
 1007MOL0     H32862   6.085   9.377  -0.067  2.2002 -2.5104 -1.2151
 1007MOL0     H32863   5.948   9.173  -0.111  1.7503  0.7545 -0.4357
 1007MOL0     H32864   5.862   9.282   0.014 -0.3723  0.3027  0.6387
 1007MOL0     H32865   5.902   9.143   0.199  0.0326 -2.4985  0.4022
 1007MOL0     H32866   6.024   9.049   0.119 -1.3334 -1.4771  2.4997
 1007MOL0     H32867   5.772   9.048  -0.041  1.4939 -1.7875 -3.0125
 1007MOL0     H32868   5.880   8.918   0.014 -0.0790  0.8791 -2.5207
 1007MOL0     H32869   5.665   9.053   0.183 -3.2329 -2.2094  0.2130
 1007MOL0     H32870   5.766   8.906   0.230  0.1850 -3.7804 -1.9423
 1007MOL0     H32871   5.653   8.766   0.091 -4.4583 -1.8156  1.3432
 1007MOL0     H32872   5.583   8.908   0.005 -1.4472 -3.3467 -1.2131
 1007MOL0     H32873   5.424   8.954   0.163 -0.3215  0.2975  2.4065
 1007MOL0     H32874   5.413   8.780   0.138 -2.4143  2.9877 -1.1064
 1007MOL0     H32875   5.532   8.926   0.374 -1.2909  1.5374 -2.0932
 1007MOL0     H32876   5.563   8.760   0.357 -0.9807 -1.0625  2.7181
 1007MOL0     H32877   5.357   8.592   0.363  0.3009 -0.6404  2.4286
 1007MOL0     H32878   5.078   8.546   0.384 -1.1518 -0.1673 -0.9805
 1007MOL0     H32879   4.984   8.641   0.497  0.3220  0.7799 -0.8852
 1007MOL0     H32880   5.157   8.554   0.676  2.7719 -0.2713 -0.8030
 1007MOL0     H32881   5.187   8.433   0.555 -1.7677 -1.6246  0.1982
 1007MOL0     H32882   4.900   8.481   0.652 -0.6286 -0.1985 -0.2035
 1007MOL0     H32883   4.987   8.332   0.593  4.1867  1.2140 -1.2038
 1007MOL0     H32884   5.061   8.466   0.851  1.3853  1.1959 -1.9251
 1007MOL0     H32885   5.109   8.315   0.789 -0.1247 -0.0181  2.4752
 1007MOL0     H32886   5.038   8.088   0.896 -0.2137  0.5999  0.3538
 1007MOL0     H32887   4.957   7.865   0.829  0.5559  1.0564  0.8618
 1007MOL0     H32888   4.746   7.555   0.524  0.4950 -1.4830 -2.5018
 1007MOL0     H32889   4.656   7.394   0.373  0.2730  0.7706 -3.3604
 1007MOL0     H32890   4.532   7.336   0.015  2.7846 -3.0774 -0.1449
 1007MOL0     H32891   4.656   7.336   0.144  1.8770  0.3318 -1.5019
 1007MOL0     H32892   4.720   7.560   0.090 -1.3864  2.4094  0.1799
 1007MOL0     H32893   4.572   7.605   0.011  0.2416  1.3271  0.6157
 1007MOL0     H32894   4.608   7.452  -0.192  0.9784 -0.5886 -0.5245
 1007MOL0     H32895   4.763   7.415  -0.116 -0.8649 -0.2339  3.1428
 1007MOL0     H32896   4.671   7.695  -0.199  0.2956  0.2727  0.8629
 1007MOL0     H32897   4.811   7.646  -0.108 -0.7928 -1.7358  1.0103
 1007MOL0     H32898   4.736   7.557  -0.386 -1.0283  1.9990  0.1728
 1007MOL0     H32899   4.875   7.498  -0.292 -2.1248 -1.6560  2.5463
 1007MOL0     H32900   4.840   7.779  -0.399  0.3650  0.7393 -1.2901
 1007MOL0     H32901   4.929   7.651  -0.487 -0.7912 -3.3290  0.5960
 1007MOL0     H32902   5.001   7.774  -0.217  1.8084  2.4827 -0.3719
 1007MOL0     H32903   5.088   7.653  -0.298 -0.8993 -0.9457  0.3427
 1007MOL0     H32904   5.195   7.877  -0.313 -1.4763  1.1886  0.6676
 1007MOL0     H32905   5.067   7.944  -0.398  1.4255  0.3925 -0.9174
 1007MOL0     H32906   4.350   7.642   0.254  0.2387 -0.9442 -0.3598
 1007MOL0     H32907   4.425   7.823   0.430  0.1676 -0.2651  1.6776
 1007MOL0     H32908   4.618   8.047   0.637  1.2020 -0.7935 -1.0748
 1007MOL0     H32909   4.707   8.272   0.702 -4.1216 -2.2546  1.0168
 1007MOL0     H32910   6.258   9.467   0.035 -0.0428 -3.0427 -0.1328
 1007MOL0     H32911   6.429   9.596   0.165  0.3180  0.0359 -0.0400
 1007MOL0     H32912   6.690   9.923   0.316 -0.7521  0.4901  0.1065
 1007MOL0     H32913   6.912   9.969   0.419 -0.7103 -0.3195  0.0517
 1007MOL0     H32914   7.112   9.694   0.584  0.7254  0.6146 -0.4781
 1007MOL0     H32915   7.044   9.697   0.749  2.4851 -0.0718 -0.1026
 1007MOL0     H32916   7.189   9.871   0.824  0.3302 -1.9408  1.4383
 1007MOL0     H32917   7.270   9.723   0.764  0.7744  1.9701  1.7994
 1007MOL0     H32918   7.239   9.954   0.570  0.8760  0.6203 -0.7613
 1007MOL0     H32919   7.341   9.804   0.581 -4.7254 -3.1775  1.1348
 1007MOL0     H32920   7.454  10.051   0.621 -1.5938  0.8091  0.4515
 1007MOL0     H32921   7.383  10.028   0.785 -2.7980  0.1705 -1.9910
 1007MOL0     H32922   7.707   9.769   0.814  0.5031  2.2057  1.6522
 1007MOL0     H32923   6.831   9.688   0.737 -0.0403  1.1850  0.0878
 1007MOL0     H32924   6.617   9.630   0.615  1.4493 -0.6865  2.5548
 1008MOL0     O32925   5.841   2.299   8.938 -0.3012 -0.1445 -0.5043
 1008MOL0     C32926   5.796   2.378   8.857  0.2516  0.0134  0.5505
 1008MOL0     O32927   5.666   2.410   8.842  0.1864  0.3502 -0.1009
 1008MOL0     C32928   5.573   2.345   8.921  0.2444 -0.7267 -0.1323
 1008MOL0     C32929   5.519   2.228   8.867 -0.0093  0.6241 -0.1452
 1008MOL0     C32930   5.433   2.159   8.951 -1.0900 -0.7891 -0.1394
 1008MOL0     C32931   5.395   2.202   9.070  0.0143 -0.0478 -1.1243
 1008MOL0     O32932   5.300   2.140   9.143  0.1388  0.8477 -0.3689
 1008MOL0     C32933   5.365   2.041   9.219 -0.4034  0.2400 -1.0563
 1008MOL0     C32934   5.286   2.012   9.356  0.3217 -0.3094 -0.1396
 1008MOL0     C32935   5.141   1.967   9.334 -0.9976  0.7577 -0.5208
 1008MOL0     C32936   5.055   1.913   9.459  0.1118  1.1750  0.5206
 1008MOL0     C32937   5.103   1.775   9.525 -0.5473 -1.2685  0.8774
 1008MOL0     C32938   4.977   1.701   9.586 -0.2636  0.5524 -0.1409
 1008MOL0     C32939   4.907   1.780   9.699 -0.6481  0.1163 -0.4723
 1008MOL0     C32940   4.788   1.692   9.755 -0.1959  0.7488  0.3240
 1008MOL0     N32941   4.693   1.652   9.644  0.0395  0.0801 -0.0182
 1008MOL0     C32942   4.629   1.730   9.552  0.5173 -1.0688 -0.3828
 1008MOL0     C32943   4.562   1.644   9.471  0.2854 -0.6019 -0.2620
 1008MOL0     C32944   4.462   1.694   9.368  0.2513 -0.1150  0.9536
 1008MOL0     C32945   4.317   1.695   9.418 -0.0931 -0.1963 -0.3093
 1008MOL0     C32946   4.222   1.780   9.329  0.4879  0.7797 -0.1154
 1008MOL0     C32947   4.084   1.784   9.399  0.3611  0.1122  0.3552
 1008MOL0     O32948   3.985   1.812   9.292 -0.1209  0.2836  0.0116
 1008MOL0     C32949   3.860   1.753   9.295 -0.6236 -0.7107  0.0851
 1008MOL0     C32950   3.801   1.706   9.403 -0.9439 -0.2108 -0.3771
 1008MOL0     C32951   3.686   1.635   9.398 -0.1657  0.1352 -0.0986
 1008MOL0     C32952   3.621   1.609   9.278  0.9309  0.1962  0.2144
 1008MOL0     C32953   3.493   1.533   9.269  0.3772  0.4953 -0.4606
 1008MOL0     O32954   3.406   1.568   9.174 -0.5486  0.6786 -0.0890
 1008MOL0     C32955   3.278   1.516   9.177  0.5216  0.4827  0.4059
 1008MOL0     C32956   3.251   1.384   9.208  0.3549  0.0674 -0.0998
 1008MOL0     C32957   3.112   1.339   9.205 -0.3735 -0.7628 -0.5163
 1008MOL0     C32958   3.010   1.433   9.170 -0.4656 -0.4349 -0.2572
 1008MOL0     O32959   2.885   1.387   9.166  0.7217 -0.3518 -0.0592
 1008MOL0     C32960   2.808   1.372   9.294 -0.6867  0.1344  0.1456
 1008MOL0     C32961   2.664   1.314   9.276  0.3562 -0.4197  0.2188
 1008MOL0     C32962   2.592   1.358   9.407 -0.0485  0.2493  0.1218
 1008MOL0     C32963   2.457   1.292   9.410 -0.7405 -0.1698  0.6066
 1008MOL0     C32964   2.397   1.292   9.552 -0.5931 -0.2012  0.1794
 1008MOL0     C32965   2.257   1.231   9.562  0.9607 -0.1895  0.1855
 1008MOL0     C32966   2.209   1.218   9.704 -0.5914 -1.2751 -0.3628
 1008MOL0     C32967   2.113   1.334   9.746 -0.1584  0.4816  0.9972
 1008MOL0    Cl32968   2.054   1.329   9.912 -0.1252  0.2409  0.4809
 1008MOL0     C32969   3.040   1.563   9.140  0.0600 -0.8389 -0.5121
 1008MOL0     C32970   3.170   1.603   9.144  0.5366 -0.6162 -0.1251
 1008MOL0     O32971   3.476   1.450   9.359  0.3916 -0.0144 -0.3289
 1008MOL0     C32972   3.672   1.668   9.163 -0.0225 -0.4638  0.5503
 1008MOL0     C32973   3.797   1.736   9.180  0.2939 -0.3445  0.3629
 1008MOL0     N32974   4.583   1.515   9.511 -0.5175  0.1300 -0.6858
 1008MOL0     N32975   4.667   1.523   9.612  0.0800 -0.2512 -0.5924
 1008MOL0     C32976   5.447   2.325   9.117  0.0592 -0.1104  0.2884
 1008MOL0     C32977   5.535   2.404   9.040 -0.1582  0.1881  0.5831
 1008MOL0     C32978   5.889   2.433   8.754  0.3774 -0.2461 -0.4760
 1008MOL0     C32979   5.845   2.529   8.659  0.2277  0.6600 -0.4459
 1008MOL0     C32980   5.927   2.577   8.562 -0.5983 -0.4391  0.3731
 1008MOL0     C32981   6.055   2.519   8.544 -0.6519 -0.6178 -0.5518
 1008MOL0     O32982   6.147   2.569   8.457  0.1724 -0.8489 -0.1273
 1008MOL0     C32983   6.099   2.681   8.363 -0.3367  0.8020 -0.5456
 1008MOL0     C32984   6.219   2.740   8.295 -0.6567 -0.7819  0.2826
 1008MOL0     C32985   6.304   2.646   8.205  0.7330 -0.1429 -0.4375
 1008MOL0     C32986   6.385   2.734   8.105 -0.4940 -0.3325 -0.1297
 1008MOL0     C32987   6.439   2.662   7.992  0.6178  0.7008 -0.1053
 1008MOL0     C32988   6.484   2.601   7.899  0.0743 -0.4948  0.7232
 1008MOL0     C32989   6.099   2.416   8.630  0.1793  0.0090 -0.2410
 1008MOL0     C32990   6.018   2.374   8.733  0.2387  0.0586 -0.1855
 1008MOL0     H32991   5.555   2.204   8.768 -0.0781  1.7770 -0.4561
 1008MOL0     H32992   5.399   2.067   8.903  0.0547 -1.6921  0.7350
 1008MOL0     H32993   5.473   2.048   9.230 -0.1983 -1.4474 -1.7092
 1008MOL0     H32994   5.360   1.951   9.158 -0.7330  0.6857 -1.7046
 1008MOL0     H32995   5.275   2.108   9.407  2.6412  0.2955 -0.6531
 1008MOL0     H32996   5.341   1.935   9.412  0.0253 -2.4719 -2.6287
 1008MOL0     H32997   5.163   1.891   9.258  0.9637  0.9281 -0.1780
 1008MOL0     H32998   5.092   2.053   9.289 -3.2190 -0.4650 -0.5688
 1008MOL0     H32999   5.049   1.985   9.540 -1.6412  0.9009  0.6592
 1008MOL0     H33000   4.954   1.899   9.420  0.8653 -0.5085 -1.0099
 1008MOL0     H33001   5.180   1.806   9.597  0.8119 -0.4107 -0.8571
 1008MOL0     H33002   5.149   1.714   9.446 -0.7970  0.0138 -0.3182
 1008MOL0     H33003   5.020   1.606   9.618 -1.1171  0.3810  0.5459
 1008MOL0     H33004   4.903   1.682   9.509 -1.8379 -0.1225  1.4589
 1008MOL0     H33005   4.979   1.805   9.777 -3.7920  0.4690  2.5219
 1008MOL0     H33006   4.871   1.874   9.656  0.3123  0.8580  0.3278
 1008MOL0     H33007   4.722   1.755   9.816 -2.9444 -0.0553 -1.6432
 1008MOL0     H33008   4.834   1.607   9.805 -1.2494  0.4103  0.7533
 1008MOL0     H33009   4.638   1.838   9.549 -0.2812 -0.9166 -4.5647
 1008MOL0     H33010   4.462   1.638   9.275 -2.3868 -0.9549  1.3905
 1008MOL0     H33011   4.489   1.798   9.347  2.4320 -0.6040  1.0534
 1008MOL0     H33012   4.306   1.724   9.523  1.0648  1.7220 -0.6666
 1008MOL0     H33013   4.280   1.592   9.421 -1.3674  0.2578  0.3908
 1008MOL0     H33014   4.260   1.882   9.318  1.2873  0.4204 -0.8674
 1008MOL0     H33015   4.219   1.737   9.229  2.6994  0.5622 -0.1351
 1008MOL0     H33016   4.085   1.863   9.474  1.4642 -1.2536  1.8450
 1008MOL0     H33017   4.059   1.693   9.455 -0.5034 -0.4413 -0.8891
 1008MOL0     H33018   3.841   1.725   9.502 -0.6886 -1.3078 -0.2525
 1008MOL0     H33019   3.646   1.593   9.489  0.6014 -0.8318 -0.1805
 1008MOL0     H33020   3.324   1.307   9.233 -0.1519 -0.8047 -1.2306
 1008MOL0     H33021   3.089   1.234   9.216  2.4967 -1.7217 -2.3991
 1008MOL0     H33022   2.791   1.472   9.335 -0.5885  0.4174 -0.4933
 1008MOL0     H33023   2.860   1.310   9.368  1.9783  1.0285 -0.8530
 1008MOL0     H33024   2.663   1.204   9.267 -1.7135 -0.4774  0.5880
 1008MOL0     H33025   2.607   1.350   9.190  1.0168 -1.0684 -0.5115
 1008MOL0     H33026   2.572   1.465   9.419  1.5636  0.5039  0.7898
 1008MOL0     H33027   2.649   1.332   9.496 -0.3725 -2.1297 -0.3106
 1008MOL0     H33028   2.391   1.324   9.329  0.0836  1.5995  0.5758
 1008MOL0     H33029   2.480   1.187   9.390  2.9705  1.1601 -4.0545
 1008MOL0     H33030   2.387   1.395   9.587  0.5664  0.0142 -0.0748
 1008MOL0     H33031   2.465   1.230   9.612  0.7084 -0.4702 -1.5133
 1008MOL0     H33032   2.256   1.130   9.520  2.1678  0.8663 -2.5518
 1008MOL0     H33033   2.183   1.291   9.508  2.0146  1.4281  0.4778
 1008MOL0     H33034   2.155   1.126   9.727 -2.0094 -0.1119  1.3263
 1008MOL0     H33035   2.300   1.220   9.765  2.0037 -1.6008 -3.9144
 1008MOL0     H33036   2.031   1.342   9.675 -3.4217  2.4578  4.6042
 1008MOL0     H33037   2.159   1.430   9.718 -1.7877  0.9979 -0.0214
 1008MOL0     H33038   2.957   1.629   9.119  1.1405  0.5380 -0.6224
 1008MOL0     H33039   3.193   1.705   9.115  0.3437 -0.1611  1.2080
 1008MOL0     H33040   3.609   1.678   9.075  0.5127  1.6366  0.3454
 1008MOL0     H33041   3.836   1.802   9.103  1.9171 -2.8641 -1.0910
 1008MOL0     H33042   5.397   2.344   9.212 -2.7870 -1.8239 -0.7249
 1008MOL0     H33043   5.565   2.505   9.064 -1.0605  0.2080  1.6993
 1008MOL0     H33044   5.741   2.558   8.671 -0.3466 -1.4925  0.1452
 1008MOL0     H33045   5.871   2.652   8.508 -1.6398  0.8034  3.0147
 1008MOL0     H33046   6.056   2.762   8.423  1.1365  2.5102 -1.6899
 1008MOL0     H33047   6.033   2.637   8.288 -1.0368  0.9918 -0.0485
 1008MOL0     H33048   6.180   2.822   8.234  2.1136  0.4002 -0.0303
 1008MOL0     H33049   6.273   2.787   8.378  1.0985 -0.1891 -1.1215
 1008MOL0     H33050   6.220   2.599   8.153  0.1358 -0.3688  0.6917
 1008MOL0     H33051   6.361   2.579   8.270 -1.3231 -0.7172  0.9073
 1008MOL0     H33052   6.326   2.813   8.059  0.9316  0.0671 -1.3648
 1008MOL0     H33053   6.461   2.789   8.162 -0.4291  0.3939 -0.8877
 1008MOL0     H33054   6.516   2.539   7.817 -4.4886 -1.3229 -0.7396
 1008MOL0     H33055   6.201   2.380   8.616 -0.5248 -2.0441 -0.4490
 1008MOL0     H33056   6.053   2.297   8.802  2.8643  1.3191 -0.0109
 1009MOL0     O33057   4.162   1.207   4.548  0.8612 -0.6052 -0.4562
 1009MOL0     C33058   4.180   1.147   4.444 -0.7841  0.0381  0.1838
 1009MOL0     O33059   4.082   1.094   4.356 -0.4112 -0.0231  0.4123
 1009MOL0     C33060   3.952   1.108   4.382 -0.0078  0.1644 -0.1030
 1009MOL0     C33061   3.870   0.994   4.396  0.5484 -0.1105  0.2053
 1009MOL0     C33062   3.734   1.022   4.421 -0.2982 -0.2580  0.4239
 1009MOL0     C33063   3.681   1.158   4.425 -0.0779  0.1035  0.1024
 1009MOL0     O33064   3.543   1.171   4.438 -0.1300  0.5253 -1.1199
 1009MOL0     C33065   3.499   1.251   4.536  0.6677 -0.5459 -1.3616
 1009MOL0     C33066   3.427   1.373   4.484  0.1297  0.1502  0.3339
 1009MOL0     C33067   3.408   1.494   4.581  0.1640  0.9432 -0.1673
 1009MOL0     C33068   3.525   1.591   4.572  0.1144  0.0475 -0.4465
 1009MOL0     C33069   3.521   1.727   4.639 -0.1887  0.7120  0.2807
 1009MOL0     C33070   3.476   1.712   4.778 -0.2156 -0.5389 -0.7695
 1009MOL0     C33071   3.480   1.846   4.849  0.0082  0.2686 -0.4752
 1009MOL0     C33072   3.398   1.962   4.794 -0.6730 -0.6267  0.3085
 1009MOL0     N33073   3.253   1.923   4.793 -0.3001  0.3617  0.2721
 1009MOL0     C33074   3.171   1.873   4.694 -0.5217 -0.0784 -0.3235
 1009MOL0     C33075   3.045   1.864   4.747 -0.0629  0.8698 -0.0540
 1009MOL0     C33076   2.930   1.780   4.688 -0.0097  0.5552  0.8007
 1009MOL0     C33077   2.800   1.859   4.668 -0.2206  0.3434 -0.6175
 1009MOL0     C33078   2.712   1.891   4.800 -0.6255  0.5127  0.7697
 1009MOL0     C33079   2.560   1.907   4.785 -1.0291  0.4659 -0.0948
 1009MOL0     O33080   2.508   1.997   4.886 -0.1018 -0.2058 -0.3865
 1009MOL0     C33081   2.373   2.027   4.885  0.4409  0.1699 -0.3081
 1009MOL0     C33082   2.285   1.986   4.782  0.9244 -0.0578 -0.6624
 1009MOL0     C33083   2.152   2.026   4.792  0.5659  1.3441  0.4695
 1009MOL0     C33084   2.110   2.105   4.897  0.2908 -0.5608  0.1187
 1009MOL0     C33085   1.964   2.137   4.894  0.1233 -0.3388 -0.8067
 1009MOL0     O33086   1.876   2.049   4.826  0.0583 -0.6498 -0.6110
 1009MOL0     C33087   1.737   2.069   4.845 -0.1107 -0.4629  0.4716
 1009MOL0     C33088   1.673   2.094   4.967  0.4236  0.6525  0.4333
 1009MOL0     C33089   1.532   2.119   4.971  0.1004 -0.0616  0.3489
 1009MOL0     C33090   1.452   2.122   4.856  0.3128  0.4472 -0.1114
 1009MOL0     O33091   1.317   2.122   4.879 -0.4619  1.1101  0.0167
 1009MOL0     C33092   1.248   2.220   4.809  0.3472 -0.8129  1.6065
 1009MOL0     C33093   1.119   2.153   4.775 -0.3953 -0.0440  0.6544
 1009MOL0     C33094   1.018   2.238   4.709  0.2230 -0.9193  0.4031
 1009MOL0     C33095   0.879   2.177   4.703  0.2903  0.0040 -0.4065
 1009MOL0     C33096   0.765   2.269   4.638 -1.0484  0.4921 -0.4994
 1009MOL0     C33097   0.632   2.192   4.661  0.4019 -0.3978  0.9555
 1009MOL0     C33098   0.521   2.278   4.586  0.4507  0.2155 -0.5388
 1009MOL0     C33099   0.383   2.206   4.603 -0.0968  0.4495  0.4544
 1009MOL0    Cl33100   0.257   2.289   4.518 -0.2659 -0.2294 -0.1209
 1009MOL0     C33101   1.516   2.096   4.734 -0.2975 -0.4298  0.0276
 1009MOL0     C33102   1.653   2.066   4.732 -1.1713  0.1389  0.1848
 1009MOL0     O33103   1.929   2.234   4.959  0.5462 -0.1904  0.1973
 1009MOL0     C33104   2.201   2.151   4.989 -0.3375  0.2015 -0.2174
 1009MOL0     C33105   2.334   2.113   4.983  0.6093 -1.2324  0.0549
 1009MOL0     N33106   3.053   1.923   4.872 -0.0544 -0.2232  0.4331
 1009MOL0     N33107   3.173   1.959   4.890 -0.1399  0.0786 -0.9737
 1009MOL0     C33108   3.768   1.267   4.414 -0.1054 -1.0331 -0.1600
 1009MOL0     C33109   3.905   1.242   4.397  0.7689 -0.4390 -0.3339
 1009MOL0     C33110   4.325   1.132   4.410 -0.7452 -0.0159  0.5726
 1009MOL0     C33111   4.426   1.164   4.510  0.3188  0.5897  0.0355
 1009MOL0     C33112   4.558   1.155   4.487  0.4102 -0.0500  0.3731
 1009MOL0     C33113   4.603   1.113   4.367  0.1830  1.0374  0.4500
 1009MOL0     O33114   4.743   1.120   4.351 -0.6739  0.2244 -0.7388
 1009MOL0     C33115   4.796   1.070   4.234 -0.7372  0.2901  0.6302
 1009MOL0     C33116   4.948   1.084   4.240 -0.2661 -0.4153 -0.4593
 1009MOL0     C33117   5.016   1.042   4.105 -0.0543  0.2511  0.2406
 1009MOL0     C33118   5.170   1.035   4.122 -0.0318 -0.6861  0.2864
 1009MOL0     C33119   5.237   1.020   3.994  0.1321 -0.0916  0.0684
 1009MOL0     C33120   5.294   1.015   3.882 -0.8796  0.4236 -0.6790
 1009MOL0     C33121   4.516   1.057   4.273 -0.4159  0.5438 -1.0220
 1009MOL0     C33122   4.377   1.063   4.299 -0.5179 -0.5234  0.1677
 1009MOL0     H33123   3.917   0.897   4.403 -0.0153 -0.4227 -0.2976
 1009MOL0     H33124   3.662   0.942   4.435 -0.4449 -0.5652 -1.7965
 1009MOL0     H33125   3.579   1.293   4.598 -0.6459 -0.8849  0.6550
 1009MOL0     H33126   3.437   1.188   4.601 -0.4041  2.1390  0.4015
 1009MOL0     H33127   3.328   1.339   4.452  0.4027  1.8635 -2.7159
 1009MOL0     H33128   3.474   1.402   4.389  0.4459  2.9947  1.2733
 1009MOL0     H33129   3.387   1.461   4.683 -1.3985  0.5360 -0.5888
 1009MOL0     H33130   3.322   1.550   4.543  0.5426  1.7011  0.0565
 1009MOL0     H33131   3.611   1.537   4.613 -0.7412  1.1300  3.1612
 1009MOL0     H33132   3.541   1.608   4.465 -4.5142 -0.7809 -1.4915
 1009MOL0     H33133   3.452   1.785   4.576  1.2996  1.1432 -1.0074
 1009MOL0     H33134   3.618   1.775   4.627  0.2258  0.6775  2.8904
 1009MOL0     H33135   3.538   1.640   4.831 -2.3887 -0.7650  1.6605
 1009MOL0     H33136   3.372   1.680   4.774  0.1915 -1.9752 -0.1379
 1009MOL0     H33137   3.444   1.833   4.952 -0.5075 -1.1057 -0.8046
 1009MOL0     H33138   3.582   1.879   4.872 -0.2492  0.4712  0.4279
 1009MOL0     H33139   3.430   1.985   4.692 -1.7403 -1.5838 -0.2594
 1009MOL0     H33140   3.409   2.055   4.851 -0.9022 -0.5178  0.1785
 1009MOL0     H33141   3.205   1.848   4.594  1.5612  3.0559 -0.5742
 1009MOL0     H33142   2.897   1.707   4.762 -2.0431  1.7035  1.1138
 1009MOL0     H33143   2.966   1.737   4.595 -1.0509  1.7366 -0.1930
 1009MOL0     H33144   2.721   1.805   4.613  0.1472 -1.8154  0.8364
 1009MOL0     H33145   2.819   1.949   4.609  2.3761 -0.4485 -1.1024
 1009MOL0     H33146   2.728   1.818   4.880 -2.0574 -0.5674  0.1098
 1009MOL0     H33147   2.761   1.987   4.815  4.3526 -1.6687  0.4384
 1009MOL0     H33148   2.512   1.808   4.790 -0.9640  0.5166  2.1903
 1009MOL0     H33149   2.558   1.948   4.683  3.1939  0.4867 -0.3583
 1009MOL0     H33150   2.326   1.931   4.698 -0.4877 -1.8915 -0.2172
 1009MOL0     H33151   2.078   1.983   4.725  0.4207 -0.8378  1.9377
 1009MOL0     H33152   1.742   2.095   5.050 -0.8536 -1.0701  1.5864
 1009MOL0     H33153   1.489   2.140   5.069 -1.8110  1.4864 -0.7309
 1009MOL0     H33154   1.286   2.253   4.711 -1.2183 -3.9723 -0.2199
 1009MOL0     H33155   1.229   2.308   4.870 -2.1450  0.2570 -0.5214
 1009MOL0     H33156   1.069   2.117   4.866 -1.4679 -3.9980 -1.2620
 1009MOL0     H33157   1.133   2.065   4.712 -0.5201 -1.8261  2.9676
 1009MOL0     H33158   1.035   2.272   4.606  0.3143  2.0152  1.3092
 1009MOL0     H33159   1.034   2.331   4.765  0.3319 -0.3774 -0.5003
 1009MOL0     H33160   0.889   2.091   4.636 -0.9805  0.4241 -1.1658
 1009MOL0     H33161   0.852   2.140   4.802 -0.4853  1.1990 -0.1558
 1009MOL0     H33162   0.782   2.278   4.531  0.0677 -1.3540 -0.5326
 1009MOL0     H33163   0.768   2.364   4.692  3.3504 -0.7898  2.0088
 1009MOL0     H33164   0.611   2.191   4.769 -0.7549  1.3741  0.7842
 1009MOL0     H33165   0.637   2.089   4.623  1.5830  0.5977 -1.8422
 1009MOL0     H33166   0.525   2.371   4.645 -1.3762 -0.7462  1.2103
 1009MOL0     H33167   0.546   2.301   4.481  1.6113 -1.5386 -0.6817
 1009MOL0     H33168   0.373   2.184   4.710 -0.8612  0.7104  0.4423
 1009MOL0     H33169   0.390   2.110   4.550 -1.2838  1.6507 -2.0484
 1009MOL0     H33170   1.447   2.076   4.653  0.1343  1.8008 -1.0003
 1009MOL0     H33171   1.692   2.028   4.638 -2.1136 -3.0157  0.9488
 1009MOL0     H33172   2.172   2.231   5.058  1.9172 -0.4553  1.6451
 1009MOL0     H33173   2.407   2.152   5.053  0.0023 -1.1328  0.6479
 1009MOL0     H33174   3.737   1.371   4.418 -0.0871 -1.0518  0.7997
 1009MOL0     H33175   3.975   1.324   4.387 -1.5485  1.6173 -0.7005
 1009MOL0     H33176   4.391   1.189   4.610  0.3045 -2.3705  0.8663
 1009MOL0     H33177   4.625   1.189   4.565  2.5054  2.7525 -2.4059
 1009MOL0     H33178   4.753   1.125   4.149 -2.6291 -1.1635  0.5798
 1009MOL0     H33179   4.763   0.967   4.214  2.3403 -0.1967 -3.1264
 1009MOL0     H33180   4.970   1.188   4.268  1.7636 -1.8771  4.4712
 1009MOL0     H33181   4.992   1.025   4.321 -1.5631 -1.8137 -0.7226
 1009MOL0     H33182   4.993   1.127   4.040 -0.0523  0.5273  0.5980
 1009MOL0     H33183   4.971   0.948   4.074 -3.6945  1.4019  1.5178
 1009MOL0     H33184   5.188   1.132   4.170 -2.8644 -0.8812  1.9592
 1009MOL0     H33185   5.199   0.955   4.191 -0.0585 -0.7207  0.2577
 1009MOL0     H33186   5.338   1.020   3.785  1.0576  0.2647  0.1448
 1009MOL0     H33187   4.546   1.012   4.179  0.1801  1.5070 -1.3051
 1009MOL0     H33188   4.312   1.011   4.230 -2.5969  0.0008  1.6351
 1010MOL0     O33189   9.263   1.610   4.696 -0.1263 -0.0637  0.3357
 1010MOL0     C33190   9.227   1.543   4.794  0.6446  0.2294  0.3602
 1010MOL0     O33191   9.294   1.432   4.841  0.7236 -0.7887 -0.0215
 1010MOL0     C33192   9.419   1.395   4.811 -0.2819 -0.3313 -0.4239
 1010MOL0     C33193   9.440   1.277   4.741  1.0414 -0.2507  0.0317
 1010MOL0     C33194   9.561   1.238   4.686  0.3881 -0.2289  0.5327
 1010MOL0     C33195   9.670   1.327   4.697 -0.7990 -0.0849  1.1723
 1010MOL0     O33196   9.797   1.285   4.650 -0.0532  0.1765  0.7882
 1010MOL0     C33197   9.912   1.373   4.669  0.6572  0.1005 -0.0773
 1010MOL0     C33198  10.038   1.310   4.607 -0.2188  0.0158  0.0664
 1010MOL0     C33199  10.080   1.197   4.689 -0.3161  0.2458 -0.3653
 1010MOL0     C33200  10.208   1.130   4.641  0.3505 -0.4693  0.2387
 1010MOL0     C33201  10.332   1.221   4.666 -0.5053  0.3225 -0.3867
 1010MOL0     C33202  10.458   1.137   4.641 -0.1036 -0.7967  0.9675
 1010MOL0     C33203  10.585   1.220   4.636 -0.8823  0.9476 -0.4862
 1010MOL0     C33204  10.704   1.141   4.676  0.8965  0.6417 -0.2190
 1010MOL0     N33205  10.687   1.075   4.806  0.9495  0.3285 -0.7435
 1010MOL0     C33206  10.688   1.136   4.932  0.3009 -0.0545  0.6916
 1010MOL0     C33207  10.644   1.040   5.027  0.0051  0.3417  0.6298
 1010MOL0     C33208  10.610   1.054   5.175  0.4442  0.0849  0.9030
 1010MOL0     C33209  10.478   1.124   5.204 -0.3084  0.5335 -0.0393
 1010MOL0     C33210  10.369   1.112   5.097 -0.0059  0.1629 -0.2466
 1010MOL0     C33211  10.306   0.976   5.097 -0.1459 -0.1265  0.2862
 1010MOL0     O33212  10.199   0.970   5.010  1.0319 -0.2941 -0.2983
 1010MOL0     C33213  10.072   1.000   5.048 -0.2795 -0.9930 -0.2001
 1010MOL0     C33214  10.031   1.088   5.146 -0.0924  0.7208 -0.2152
 1010MOL0     C33215   9.892   1.111   5.166 -0.9838 -0.2150  0.6915
 1010MOL0     C33216   9.802   1.051   5.087 -0.8764  0.5015  0.4994
 1010MOL0     C33217   9.659   1.078   5.105  1.0193 -0.6618  0.4762
 1010MOL0     O33218   9.610   1.161   5.205 -0.2938  0.9323 -0.2099
 1010MOL0     C33219   9.473   1.168   5.218 -0.5297  0.2602  0.3722
 1010MOL0     C33220   9.433   1.189   5.347 -0.0133 -0.2797  0.6458
 1010MOL0     C33221   9.306   1.227   5.376 -0.7567 -0.2586 -0.2968
 1010MOL0     C33222   9.213   1.241   5.271 -0.2960 -0.3363 -0.6300
 1010MOL0     O33223   9.081   1.267   5.280  0.1098  0.3375  0.0325
 1010MOL0     C33224   9.009   1.266   5.408  0.9887  0.3187 -1.1531
 1010MOL0     C33225   8.857   1.279   5.385  0.4055 -0.0163 -0.2545
 1010MOL0     C33226   8.800   1.288   5.530 -0.3907  0.4353  0.3409
 1010MOL0     C33227   8.647   1.296   5.512 -0.2918 -0.0014  0.4308
 1010MOL0     C33228   8.560   1.329   5.642  0.5264  0.5313 -0.0643
 1010MOL0     C33229   8.417   1.375   5.627  0.3469  0.1790  0.2804
 1010MOL0     C33230   8.339   1.354   5.755 -0.1518  0.0372 -0.4333
 1010MOL0     C33231   8.214   1.431   5.759  0.1428 -0.2294  0.1471
 1010MOL0    Cl33232   8.123   1.406   5.913  0.4940  0.4014 -0.5033
 1010MOL0     C33233   9.252   1.219   5.137  0.0844 -0.2349 -0.5796
 1010MOL0     C33234   9.383   1.179   5.111  0.3927  0.4746  0.0959
 1010MOL0     O33235   9.585   1.002   5.038 -0.2879  0.0474  0.7848
 1010MOL0     C33236   9.849   0.972   4.978 -0.1321 -0.5423  0.3423
 1010MOL0     C33237   9.980   0.941   4.960  0.0212  0.5810 -0.5432
 1010MOL0     N33238  10.624   0.925   4.951  0.2844 -0.6854  0.0607
 1010MOL0     N33239  10.659   0.948   4.830 -0.3389  0.3783  0.0540
 1010MOL0     C33240   9.653   1.446   4.769  0.2354  0.2192 -0.2802
 1010MOL0     C33241   9.525   1.485   4.817 -0.7161 -0.3404  0.3492
 1010MOL0     C33242   9.110   1.592   4.871 -0.1744 -0.2720  0.3041
 1010MOL0     C33243   9.047   1.510   4.970 -0.6606 -0.1281  0.3087
 1010MOL0     C33244   8.935   1.556   5.036 -0.4153  0.5004  0.1525
 1010MOL0     C33245   8.876   1.669   5.000 -0.4410 -0.1021 -0.4021
 1010MOL0     O33246   8.769   1.717   5.068 -0.1197  0.2466 -0.3361
 1010MOL0     C33247   8.750   1.675   5.202  0.5964 -0.8506 -0.1254
 1010MOL0     C33248   8.658   1.770   5.271  0.9036 -0.5908  0.5448
 1010MOL0     C33249   8.513   1.709   5.305  0.1356 -0.3899  0.9388
 1010MOL0     C33250   8.420   1.809   5.376 -0.9772  0.0210  0.5404
 1010MOL0     C33251   8.288   1.757   5.387  0.5594 -0.5073  0.4636
 1010MOL0     C33252   8.178   1.714   5.394  0.2034  0.1407  0.3150
 1010MOL0     C33253   8.926   1.755   4.903  0.1843 -0.2594  0.3459
 1010MOL0     C33254   9.044   1.715   4.830 -0.2206  1.0276 -0.4043
 1010MOL0     H33255   9.357   1.208   4.736  1.6655 -0.9709 -0.5834
 1010MOL0     H33256   9.562   1.143   4.633  1.0279 -0.4944  1.0101
 1010MOL0     H33257   9.932   1.392   4.775 -0.9284  1.4577  0.0124
 1010MOL0     H33258   9.891   1.474   4.635 -0.4288  0.7851  2.4201
 1010MOL0     H33259  10.123   1.379   4.597  1.2410 -1.7070  0.1001
 1010MOL0     H33260  10.016   1.262   4.512 -2.8831  0.8592  0.1731
 1010MOL0     H33261   9.992   1.133   4.678 -2.7978  3.3453 -0.2407
 1010MOL0     H33262  10.085   1.220   4.796  2.1522  1.4364 -0.6659
 1010MOL0     H33263  10.231   1.052   4.714 -0.4277 -2.7840 -1.8203
 1010MOL0     H33264  10.212   1.082   4.543  0.7084 -0.8711  0.4445
 1010MOL0     H33265  10.322   1.246   4.772  0.0451 -2.3244  0.3714
 1010MOL0     H33266  10.317   1.314   4.610 -1.8146  1.2258  1.3870
 1010MOL0     H33267  10.467   1.079   4.549  1.0044  1.7243 -0.6002
 1010MOL0     H33268  10.449   1.070   4.728 -3.7367 -0.1493  1.2401
 1010MOL0     H33269  10.593   1.255   4.533  1.8269  1.7788 -0.0469
 1010MOL0     H33270  10.576   1.304   4.705 -4.0354 -1.1534  1.9875
 1010MOL0     H33271  10.793   1.206   4.676  1.4698 -0.1058 -1.6249
 1010MOL0     H33272  10.729   1.072   4.595  2.0867  0.5181  0.2332
 1010MOL0     H33273  10.711   1.238   4.962  1.7472  0.5505 -2.1358
 1010MOL0     H33274  10.689   1.107   5.230  1.1971  1.0082 -0.9418
 1010MOL0     H33275  10.610   0.953   5.215  1.2358 -1.5174 -2.7117
 1010MOL0     H33276  10.494   1.228   5.234  0.4281  0.2779  0.4743
 1010MOL0     H33277  10.443   1.077   5.296  1.3730 -1.4894 -0.3560
 1010MOL0     H33278  10.290   1.185   5.117  1.6398  1.2524  2.9728
 1010MOL0     H33279  10.408   1.142   4.999 -0.5243 -0.4081 -0.6306
 1010MOL0     H33280  10.276   0.952   5.200 -3.8177  3.4180  0.2775
 1010MOL0     H33281  10.380   0.901   5.068  0.3548  0.3182  0.3916
 1010MOL0     H33282  10.105   1.121   5.219 -0.5761  0.3312  0.4673
 1010MOL0     H33283   9.859   1.172   5.250  0.0705  0.1652  0.8425
 1010MOL0     H33284   9.502   1.176   5.430 -0.3970  1.9123  1.3813
 1010MOL0     H33285   9.282   1.250   5.480 -2.2359  0.5248 -0.7862
 1010MOL0     H33286   9.045   1.344   5.476 -0.6452  1.8171 -1.9179
 1010MOL0     H33287   9.034   1.167   5.447 -1.4493  0.3878  0.8554
 1010MOL0     H33288   8.819   1.194   5.328 -3.5180  0.1629  1.7501
 1010MOL0     H33289   8.840   1.371   5.330 -2.1661 -1.0070 -1.2675
 1010MOL0     H33290   8.841   1.373   5.586  0.2028 -0.7389  1.7447
 1010MOL0     H33291   8.829   1.203   5.592  2.3606  1.4292  0.5782
 1010MOL0     H33292   8.626   1.378   5.442  1.8919  0.8015  0.6574
 1010MOL0     H33293   8.604   1.202   5.475 -1.3729 -0.0352  1.7001
 1010MOL0     H33294   8.608   1.405   5.704  1.6093 -0.2279  0.0644
 1010MOL0     H33295   8.577   1.240   5.705  0.0434  0.5519  0.1053
 1010MOL0     H33296   8.367   1.326   5.543 -1.0270 -0.0684  1.2111
 1010MOL0     H33297   8.409   1.480   5.594 -0.2790  0.1090  0.1832
 1010MOL0     H33298   8.322   1.247   5.774  1.2719  0.2202  2.4704
 1010MOL0     H33299   8.409   1.385   5.834 -0.4482 -0.2353 -0.0578
 1010MOL0     H33300   8.150   1.402   5.674 -0.2875  0.4382  0.2351
 1010MOL0     H33301   8.246   1.535   5.753 -2.7565  0.9948  2.7039
 1010MOL0     H33302   9.185   1.237   5.054 -1.5949  2.2262  1.1777
 1010MOL0     H33303   9.404   1.159   5.007 -2.8336 -1.4109 -0.3236
 1010MOL0     H33304   9.777   0.927   4.911  1.3562 -1.1310 -0.9060
 1010MOL0     H33305  10.009   0.869   4.883  0.3477  0.8783 -0.7017
 1010MOL0     H33306   9.735   1.514   4.790  0.5399 -0.8790  2.5800
 1010MOL0     H33307   9.510   1.579   4.868  0.3069 -0.8796  1.7211
 1010MOL0     H33308   9.097   1.417   4.994 -0.8997 -0.7791 -1.5723
 1010MOL0     H33309   8.903   1.491   5.118 -2.5901  2.4305  0.9310
 1010MOL0     H33310   8.842   1.685   5.260  1.0329 -1.6258 -0.6711
 1010MOL0     H33311   8.712   1.573   5.204 -2.0121  0.0230 -1.1049
 1010MOL0     H33312   8.700   1.812   5.363 -2.0282  1.0103  1.2626
 1010MOL0     H33313   8.651   1.859   5.208  2.8809 -2.7391 -3.0649
 1010MOL0     H33314   8.528   1.625   5.373  3.5544  0.1845  1.1027
 1010MOL0     H33315   8.477   1.675   5.207 -1.3694 -0.5383  1.5150
 1010MOL0     H33316   8.454   1.828   5.478 -0.6630 -1.8005  0.8020
 1010MOL0     H33317   8.406   1.906   5.327 -0.6653  3.2463  6.0513
 1010MOL0     H33318   8.084   1.666   5.373  2.6244 -4.0291 -2.2174
 1010MOL0     H33319   8.877   1.850   4.883  4.5544  2.6251  1.6748
 1010MOL0     H33320   9.076   1.770   4.743 -1.5358  3.2550  0.4374
 1011MOL0     O33321   9.441  10.831   3.679  1.3305  0.0113  0.2871
 1011MOL0     C33322   9.506  10.907   3.611  0.0298  0.2044  0.2176
 1011MOL0     O33323   9.497  11.046   3.618 -0.7134  0.0505 -0.1140
 1011MOL0     C33324   9.395  11.103   3.685 -0.6670  0.1700 -0.1877
 1011MOL0     C33325   9.267  11.059   3.696  0.9402  0.0175 -0.1692
 1011MOL0     C33326   9.165  11.123   3.774 -0.0195  0.5541 -0.7506
 1011MOL0     C33327   9.195  11.237   3.843  0.1500 -0.0395  0.5933
 1011MOL0     O33328   9.105  11.296   3.930 -0.3375 -0.3881 -0.1801
 1011MOL0     C33329   9.043  11.218   4.032  0.0035 -0.4942 -0.0971
 1011MOL0     C33330   8.906  11.272   4.067  0.3520 -0.7632 -0.6408
 1011MOL0     C33331   8.829  11.293   3.934  0.2011  0.1127 -0.5309
 1011MOL0     C33332   8.676  11.327   3.952 -0.1995  0.7689 -0.3006
 1011MOL0     C33333   8.597  11.373   3.827  0.4308 -0.5865  0.3820
 1011MOL0     C33334   8.614  11.525   3.791  0.6028  0.6753 -0.1553
 1011MOL0     C33335   8.561  11.558   3.653  0.3637  0.3389 -0.8734
 1011MOL0     C33336   8.414  11.523   3.624  0.4968 -0.9005 -0.0720
 1011MOL0     N33337   8.335  11.606   3.719 -0.2090 -0.5145  0.2174
 1011MOL0     C33338   8.300  11.740   3.706  0.2276 -0.0161 -0.6144
 1011MOL0     C33339   8.219  11.762   3.810 -0.7857 -0.1205  0.2137
 1011MOL0     C33340   8.145  11.887   3.833  0.3261 -0.1644  1.1734
 1011MOL0     C33341   8.012  11.914   3.759  0.6055  1.0384  0.4247
 1011MOL0     C33342   8.011  11.896   3.604 -0.6405 -0.4601 -0.0608
 1011MOL0     C33343   7.872  11.914   3.557 -0.1778  0.7497 -0.6088
 1011MOL0     O33344   7.835  12.051   3.550 -0.4465 -0.4337  0.2601
 1011MOL0     C33345   7.700  12.072   3.523 -0.5017 -0.5365 -0.0660
 1011MOL0     C33346   7.648  12.203   3.520 -0.3679  0.7409 -0.1632
 1011MOL0     C33347   7.510  12.223   3.506 -0.6673  0.5494 -0.2633
 1011MOL0     C33348   7.427  12.111   3.492  0.3406  1.2234  0.0099
 1011MOL0     C33349   7.281  12.125   3.500 -0.3955 -0.7739 -0.5562
 1011MOL0     O33350   7.206  12.028   3.554  0.0762  0.2218  0.0058
 1011MOL0     C33351   7.063  12.018   3.532 -0.9577 -0.6725  0.4114
 1011MOL0     C33352   7.009  11.907   3.594 -0.5037 -0.6169  0.3042
 1011MOL0     C33353   6.870  11.888   3.594 -0.0543  0.3176  0.2713
 1011MOL0     C33354   6.783  11.968   3.514 -0.7052 -0.2932 -0.0202
 1011MOL0     O33355   6.650  11.932   3.503 -0.3305  0.6411  0.3893
 1011MOL0     C33356   6.567  12.025   3.430  0.1187  0.0018 -0.3920
 1011MOL0     C33357   6.415  11.983   3.446  0.3899  0.3162  0.2446
 1011MOL0     C33358   6.322  12.056   3.349 -0.8020  0.0629  0.1532
 1011MOL0     C33359   6.175  12.036   3.374  0.4357 -0.6279  0.5675
 1011MOL0     C33360   6.100  12.069   3.241 -0.8278 -0.9862 -0.3986
 1011MOL0     C33361   5.949  12.087   3.265 -0.6087  0.8766 -0.2313
 1011MOL0     C33362   5.856  12.116   3.143 -0.6055 -0.0778 -0.0605
 1011MOL0     C33363   5.724  12.172   3.186  0.3558  0.3938  0.7716
 1011MOL0    Cl33364   5.742  12.333   3.257 -0.3055 -0.6099 -0.0854
 1011MOL0     C33365   6.843  12.085   3.457 -0.3001 -0.0590  0.4338
 1011MOL0     C33366   6.985  12.111   3.467  0.5083 -0.8901  0.3546
 1011MOL0     O33367   7.241  12.236   3.462  0.8110 -0.3587 -0.2529
 1011MOL0     C33368   7.475  11.979   3.486  1.1192 -0.4795  0.3806
 1011MOL0     C33369   7.609  11.965   3.502  1.0772  0.4067 -0.8698
 1011MOL0     N33370   8.206  11.648   3.881  0.3473  0.2428 -0.6291
 1011MOL0     N33371   8.275  11.552   3.826 -0.3483  0.4080  0.5934
 1011MOL0     C33372   9.329  11.287   3.829 -0.7813 -0.0763  0.5335
 1011MOL0     C33373   9.427  11.220   3.753 -0.6638  0.5805 -0.2135
 1011MOL0     C33374   9.587  10.838   3.509  0.8063  0.4947 -0.2509
 1011MOL0     C33375   9.547  10.718   3.447  0.6793  0.7635  0.2583
 1011MOL0     C33376   9.646  10.648   3.371 -0.5661 -0.2605  0.0054
 1011MOL0     C33377   9.761  10.707   3.328 -0.9870 -0.0125 -0.1369
 1011MOL0     O33378   9.850  10.629   3.251 -0.4949  0.2398 -0.1409
 1011MOL0     C33379   9.980  10.676   3.228 -0.6300  0.1426 -0.3169
 1011MOL0     C33380  10.074  10.654   3.348  0.7840  0.4246  0.7470
 1011MOL0     C33381  10.221  10.635   3.300 -0.2512 -0.2008 -0.1802
 1011MOL0     C33382  10.265  10.761   3.232  0.2936 -0.2176 -0.4413
 1011MOL0     C33383  10.406  10.740   3.195 -0.5495  1.2155 -0.3973
 1011MOL0     C33384  10.531  10.734   3.194 -0.3046 -0.1154 -0.0885
 1011MOL0     C33385   9.784  10.841   3.372 -0.2137 -0.3839 -0.2033
 1011MOL0     C33386   9.700  10.905   3.464 -0.7646 -0.2980  0.4598
 1011MOL0     H33387   9.243  10.969   3.641 -2.3766  0.6872 -0.0535
 1011MOL0     H33388   9.062  11.089   3.773  0.1443 -0.1806  1.4996
 1011MOL0     H33389   9.106  11.201   4.120 -1.6370 -3.7658  0.5794
 1011MOL0     H33390   9.043  11.117   3.991 -0.7524 -0.4227 -0.2812
 1011MOL0     H33391   8.915  11.365   4.124 -1.0305 -2.5436  2.7448
 1011MOL0     H33392   8.846  11.201   4.125 -1.2022  0.3519 -0.8063
 1011MOL0     H33393   8.843  11.204   3.872 -0.1274 -0.3190  0.0037
 1011MOL0     H33394   8.868  11.365   3.861  1.8763 -0.7870 -0.5779
 1011MOL0     H33395   8.629  11.235   3.987  0.9641  0.8582  1.6556
 1011MOL0     H33396   8.659  11.394   4.037  2.0367 -0.1355  0.9567
 1011MOL0     H33397   8.491  11.358   3.847  0.2482 -0.5283 -0.4853
 1011MOL0     H33398   8.617  11.298   3.749 -0.6962 -0.7563  0.2486
 1011MOL0     H33399   8.719  11.555   3.799  0.5192  1.4374 -1.6717
 1011MOL0     H33400   8.569  11.584   3.871  0.4124 -2.8865  2.6260
 1011MOL0     H33401   8.579  11.666   3.642 -0.1945  0.6592  0.9554
 1011MOL0     H33402   8.624  11.504   3.582  0.3336 -3.5538  1.7502
 1011MOL0     H33403   8.388  11.421   3.652  2.0925 -2.3963 -3.4430
 1011MOL0     H33404   8.375  11.545   3.524 -0.7290 -2.0841  0.1223
 1011MOL0     H33405   8.340  11.810   3.634  1.3228  3.0603  2.6951
 1011MOL0     H33406   8.217  11.969   3.822 -0.3395  0.1566 -1.2702
 1011MOL0     H33407   8.115  11.877   3.938  0.6217 -0.4435  1.2352
 1011MOL0     H33408   7.986  12.020   3.769  1.0934  1.2511 -0.4766
 1011MOL0     H33409   7.930  11.854   3.801  2.4267 -1.9539  0.0006
 1011MOL0     H33410   8.088  11.961   3.563 -2.3956  0.5686 -1.8698
 1011MOL0     H33411   8.040  11.792   3.585 -0.1145 -0.2609 -0.3561
 1011MOL0     H33412   7.811  11.862   3.630 -0.0948 -0.8036 -1.5947
 1011MOL0     H33413   7.868  11.864   3.459 -0.6848  2.4201 -1.4720
 1011MOL0     H33414   7.723  12.281   3.516 -0.7540  1.0815 -1.1046
 1011MOL0     H33415   7.471  12.324   3.500  0.2899  0.8942 -0.8108
 1011MOL0     H33416   7.077  11.841   3.647  0.1464  2.8851  4.3353
 1011MOL0     H33417   6.835  11.797   3.641  3.5824 -1.9833 -1.0111
 1011MOL0     H33418   6.603  12.029   3.327  0.0528 -0.4110 -0.4322
 1011MOL0     H33419   6.587  12.125   3.469 -0.1435 -0.4061  0.8131
 1011MOL0     H33420   6.382  12.016   3.545  0.0296  1.9729 -0.3807
 1011MOL0     H33421   6.402  11.875   3.439 -1.3207  0.4656  0.7433
 1011MOL0     H33422   6.350  12.029   3.247 -0.8573  0.3011  0.0758
 1011MOL0     H33423   6.350  12.161   3.360  4.5025 -1.0034 -0.1868
 1011MOL0     H33424   6.160  11.935   3.414  2.4785 -0.4258  1.9691
 1011MOL0     H33425   6.154  12.108   3.454  0.3495 -1.1057  0.9769
 1011MOL0     H33426   6.123  11.990   3.168 -0.5134  0.2869 -1.7351
 1011MOL0     H33427   6.119  12.167   3.195 -3.1762  0.1920  0.9987
 1011MOL0     H33428   5.935  12.164   3.342 -2.1981  1.2957 -0.8984
 1011MOL0     H33429   5.916  11.990   3.301  0.1276  0.7116  0.0091
 1011MOL0     H33430   5.904  12.193   3.080 -1.0706 -0.1045 -0.4490
 1011MOL0     H33431   5.850  12.018   3.095  3.5142 -0.8916  0.6389
 1011MOL0     H33432   5.682  12.102   3.259  1.8889 -0.1775  1.1477
 1011MOL0     H33433   5.668  12.171   3.092  0.8857 -4.0169  0.2807
 1011MOL0     H33434   6.787  12.161   3.405 -2.6871 -2.6225 -1.0630
 1011MOL0     H33435   7.031  12.196   3.416  2.5065 -0.0247  3.3461
 1011MOL0     H33436   7.406  11.896   3.476 -0.1459  0.3477  1.7889
 1011MOL0     H33437   7.643  11.862   3.498  1.6061  0.4395  1.3421
 1011MOL0     H33438   9.358  11.379   3.879  1.0622  0.5302 -1.4849
 1011MOL0     H33439   9.528  11.259   3.755  0.4987 -1.7972 -3.3581
 1011MOL0     H33440   9.452  10.676   3.478  1.1812 -0.2707  0.4414
 1011MOL0     H33441   9.633  10.543   3.346  0.3974 -1.1825  2.9254
 1011MOL0     H33442   9.982  10.782   3.200  1.4351  1.4345  3.9306
 1011MOL0     H33443  10.027  10.620   3.146  0.9626 -0.2636  0.8272
 1011MOL0     H33444  10.052  10.729   3.424  2.1192  0.2219  1.3509
 1011MOL0     H33445  10.053  10.556   3.393  0.3711  0.0467 -0.2300
 1011MOL0     H33446  10.236  10.547   3.237 -0.2803  1.4976 -2.7155
 1011MOL0     H33447  10.290  10.620   3.383  1.1208 -2.3023 -1.5903
 1011MOL0     H33448  10.206  10.778   3.142 -2.4782  1.1395  1.4734
 1011MOL0     H33449  10.258  10.855   3.288  1.5363  0.0201 -0.6545
 1011MOL0     H33450  10.637  10.725   3.198 -0.4996 -3.8928  0.0760
 1011MOL0     H33451   9.867  10.897   3.331  0.1566  1.7768  3.1257
 1011MOL0     H33452   9.715  11.003   3.508  0.1601 -0.1929 -0.0570
 1012MOL0     O33453   6.209   2.564   1.441  0.0175  0.2031 -0.3821
 1012MOL0     C33454   6.187   2.529   1.327  0.4345  0.5304  0.4191
 1012MOL0     O33455   6.064   2.484   1.280 -0.0602  0.5850  0.3048
 1012MOL0     C33456   5.951   2.471   1.346 -0.9455 -0.1142 -0.3138
 1012MOL0     C33457   5.902   2.568   1.433  0.5235 -0.5840 -0.0463
 1012MOL0     C33458   5.789   2.551   1.509 -0.5392  0.1534 -0.5651
 1012MOL0     C33459   5.713   2.436   1.485 -0.4236  0.6261 -0.5586
 1012MOL0     O33460   5.593   2.411   1.544  0.7343 -0.4220  0.4814
 1012MOL0     C33461   5.535   2.509   1.639  0.5280 -0.2567  0.3436
 1012MOL0     C33462   5.423   2.438   1.718 -0.7175 -0.1358 -0.1227
 1012MOL0     C33463   5.291   2.413   1.647  0.7126  0.6452 -0.8930
 1012MOL0     C33464   5.187   2.339   1.741 -0.1136 -0.7133 -0.8627
 1012MOL0     C33465   5.050   2.321   1.658 -0.2759  0.8477  0.1350
 1012MOL0     C33466   4.963   2.449   1.648 -0.8474 -0.3175 -1.0134
 1012MOL0     C33467   4.845   2.432   1.552 -0.0884 -0.0426  0.0624
 1012MOL0     C33468   4.745   2.549   1.551  0.2443  0.5449  0.0479
 1012MOL0     N33469   4.622   2.500   1.485 -0.1596  0.0606 -0.7925
 1012MOL0     C33470   4.522   2.442   1.558 -0.2701  0.2720 -0.4280
 1012MOL0     C33471   4.423   2.443   1.475  0.4336  0.0886 -0.0742
 1012MOL0     C33472   4.290   2.391   1.520 -0.1806 -0.0408  0.1356
 1012MOL0     C33473   4.201   2.374   1.394  0.3927  0.6665 -0.1052
 1012MOL0     C33474   4.064   2.322   1.417  0.1339 -0.3839  0.0019
 1012MOL0     C33475   3.959   2.333   1.312  0.1900  0.7366  0.2777
 1012MOL0     O33476   3.835   2.273   1.353  0.4610  0.7588 -1.2710
 1012MOL0     C33477   3.725   2.281   1.273 -0.1894  1.6868  0.4531
 1012MOL0     C33478   3.612   2.210   1.319  0.1470  0.4694  0.4666
 1012MOL0     C33479   3.496   2.200   1.249  0.3632  0.3799  0.0421
 1012MOL0     C33480   3.479   2.272   1.129  0.1529 -0.0237 -0.3546
 1012MOL0     C33481   3.357   2.272   1.055 -0.1372  0.0814  0.8511
 1012MOL0     O33482   3.241   2.260   1.127 -0.0217 -0.1737 -0.2863
 1012MOL0     C33483   3.120   2.266   1.059 -0.6316 -0.5567 -0.8530
 1012MOL0     C33484   3.034   2.160   1.045 -0.1808  1.1326 -0.3945
 1012MOL0     C33485   2.911   2.172   0.992  0.0695  0.1410 -0.6005
 1012MOL0     C33486   2.858   2.297   0.947 -0.2460 -0.2121  0.3161
 1012MOL0     O33487   2.730   2.321   0.895 -0.2792  0.0500 -0.1767
 1012MOL0     C33488   2.658   2.206   0.840  0.4307  0.3357 -0.3619
 1012MOL0     C33489   2.527   2.259   0.766  0.5268 -0.1721  0.0399
 1012MOL0     C33490   2.432   2.331   0.856 -0.1052  0.3683  0.5287
 1012MOL0     C33491   2.324   2.391   0.776  0.5413 -1.0825  0.4629
 1012MOL0     C33492   2.199   2.433   0.855 -0.1587 -0.7479 -0.3901
 1012MOL0     C33493   2.073   2.460   0.766 -0.5596  0.8526  0.7169
 1012MOL0     C33494   1.961   2.515   0.854  0.0387  0.4839  0.3519
 1012MOL0     C33495   1.861   2.577   0.755  0.1443 -0.3356 -0.2625
 1012MOL0    Cl33496   1.711   2.605   0.862  0.1095  0.2972  0.3113
 1012MOL0     C33497   2.949   2.409   0.957  0.3743  0.0506  0.1394
 1012MOL0     C33498   3.079   2.396   1.010  0.6274  0.7200 -0.1012
 1012MOL0     O33499   3.359   2.293   0.931  0.4538  0.6331 -0.0106
 1012MOL0     C33500   3.591   2.334   1.075  0.1584 -0.4861  0.2372
 1012MOL0     C33501   3.715   2.328   1.141  0.0114  0.2017  0.0603
 1012MOL0     N33502   4.461   2.497   1.352  0.4836 -0.3496  0.1056
 1012MOL0     N33503   4.581   2.541   1.363  0.1265 -0.3767  0.7149
 1012MOL0     C33504   5.753   2.339   1.393 -0.8530  1.1750 -0.7105
 1012MOL0     C33505   5.878   2.354   1.332  0.8245  0.7627  0.4075
 1012MOL0     C33506   6.296   2.522   1.228 -0.8838 -0.3308 -0.9450
 1012MOL0     C33507   6.425   2.545   1.283 -1.0882  0.2450 -0.5116
 1012MOL0     C33508   6.540   2.540   1.197  0.3726 -0.0878 -0.6326
 1012MOL0     C33509   6.516   2.514   1.059 -0.6043 -0.4864 -0.8927
 1012MOL0     O33510   6.626   2.514   0.983 -0.3454 -0.0689  0.5334
 1012MOL0     C33511   6.619   2.555   0.844 -0.0909 -0.2010 -0.0098
 1012MOL0     C33512   6.766   2.555   0.799  0.2596 -0.0390 -0.1972
 1012MOL0     C33513   6.843   2.654   0.884 -0.4797 -0.4293 -0.6730
 1012MOL0     C33514   6.986   2.653   0.836 -0.2523 -0.0932 -0.3513
 1012MOL0     C33515   7.059   2.525   0.855 -0.2003  0.8738  1.0700
 1012MOL0     C33516   7.102   2.416   0.884 -0.7134 -0.6877  0.5275
 1012MOL0     C33517   6.388   2.491   1.001 -0.4420 -0.5213 -0.2399
 1012MOL0     C33518   6.279   2.495   1.092 -0.5335 -0.1529 -0.1039
 1012MOL0     H33519   5.963   2.657   1.439  1.7278 -1.3165 -0.8390
 1012MOL0     H33520   5.761   2.629   1.578  2.7128 -0.0449  1.1976
 1012MOL0     H33521   5.495   2.594   1.584 -2.9305 -2.5903 -1.0717
 1012MOL0     H33522   5.611   2.541   1.711 -1.5336  2.3751  1.5284
 1012MOL0     H33523   5.398   2.495   1.808 -2.0078 -0.1306 -0.4656
 1012MOL0     H33524   5.465   2.344   1.754 -0.2377  0.1633  0.1085
 1012MOL0     H33525   5.301   2.358   1.553 -0.0261 -0.1350 -0.5382
 1012MOL0     H33526   5.253   2.510   1.614  2.2421  0.8623 -2.1151
 1012MOL0     H33527   5.241   2.244   1.743 -0.5762 -0.9697 -0.2102
 1012MOL0     H33528   5.187   2.391   1.838  1.6099  0.3447 -1.3716
 1012MOL0     H33529   4.997   2.245   1.717 -0.1308  1.7035  1.4260
 1012MOL0     H33530   5.072   2.287   1.557 -0.4829  1.3159 -0.0686
 1012MOL0     H33531   5.008   2.546   1.628 -1.7946  0.7091  1.4365
 1012MOL0     H33532   4.909   2.459   1.743  0.2289 -2.2968 -0.1425
 1012MOL0     H33533   4.887   2.416   1.452 -1.7149  1.5951 -0.9731
 1012MOL0     H33534   4.788   2.344   1.582 -0.0719  0.5946  2.1438
 1012MOL0     H33535   4.784   2.624   1.481 -1.6791 -0.5756 -2.3499
 1012MOL0     H33536   4.726   2.582   1.654 -1.3883 -2.6204  0.8660
 1012MOL0     H33537   4.520   2.397   1.657  1.0733  0.5632 -0.2508
 1012MOL0     H33538   4.239   2.448   1.598 -5.6273 -2.1258 -1.4595
 1012MOL0     H33539   4.310   2.293   1.564  0.9712  0.8655  1.7480
 1012MOL0     H33540   4.259   2.317   1.321 -2.8016 -1.8709 -0.8852
 1012MOL0     H33541   4.185   2.477   1.361 -0.0349  0.8640  0.6918
 1012MOL0     H33542   4.078   2.216   1.441 -0.3573 -0.4876 -0.1559
 1012MOL0     H33543   4.021   2.372   1.504 -1.6066 -0.9097 -0.5194
 1012MOL0     H33544   3.981   2.268   1.226  0.9447  1.2135  0.1068
 1012MOL0     H33545   3.954   2.436   1.277  1.9563  0.8881  0.3569
 1012MOL0     H33546   3.625   2.159   1.413 -2.9669  1.5122  1.5815
 1012MOL0     H33547   3.406   2.152   1.288  1.0930 -2.2256 -1.1948
 1012MOL0     H33548   3.057   2.062   1.085 -4.1817  0.1838  0.0740
 1012MOL0     H33549   2.839   2.092   1.007  0.9654 -0.2180  2.3729
 1012MOL0     H33550   2.636   2.133   0.918  1.1102 -0.4736 -0.9046
 1012MOL0     H33551   2.725   2.161   0.766 -0.0072 -0.7841 -0.0973
 1012MOL0     H33552   2.478   2.180   0.709 -1.7656  0.5175  0.9600
 1012MOL0     H33553   2.545   2.337   0.691 -3.7548 -0.7434 -1.8671
 1012MOL0     H33554   2.488   2.408   0.911 -0.7420 -0.0520  1.8041
 1012MOL0     H33555   2.386   2.263   0.929 -3.6768  0.0983 -1.7552
 1012MOL0     H33556   2.358   2.487   0.737  2.4356 -1.5582  0.8491
 1012MOL0     H33557   2.302   2.326   0.690  0.3025  3.3675 -3.2170
 1012MOL0     H33558   2.215   2.529   0.906  0.5726  0.1115 -2.1347
 1012MOL0     H33559   2.161   2.356   0.922 -1.9586  0.5101  0.1117
 1012MOL0     H33560   2.047   2.360   0.729  0.3800  0.0471  2.1377
 1012MOL0     H33561   2.104   2.520   0.681  0.5912 -2.9471 -1.7913
 1012MOL0     H33562   1.917   2.429   0.906 -1.1462  1.4215  0.9403
 1012MOL0     H33563   2.005   2.586   0.925  2.1523 -0.1197 -0.2821
 1012MOL0     H33564   1.843   2.508   0.672 -0.7605 -0.1804 -0.2071
 1012MOL0     H33565   1.895   2.669   0.708  0.2002  0.5874  1.4966
 1012MOL0     H33566   2.913   2.507   0.928 -1.1448 -0.5413 -0.0426
 1012MOL0     H33567   3.143   2.484   1.014  1.0453  0.4691 -1.1202
 1012MOL0     H33568   3.593   2.391   0.983  1.1753  0.4366  0.8043
 1012MOL0     H33569   3.800   2.366   1.086  0.3482  3.1011  2.3475
 1012MOL0     H33570   5.704   2.246   1.370  0.1588 -0.0335  1.6998
 1012MOL0     H33571   5.910   2.273   1.268  1.9195 -0.1385  2.0437
 1012MOL0     H33572   6.453   2.570   1.385 -0.6321 -2.9383  0.2596
 1012MOL0     H33573   6.640   2.567   1.229 -0.0553 -0.0165  0.7211
 1012MOL0     H33574   6.570   2.652   0.830  1.2151  0.4840  0.0822
 1012MOL0     H33575   6.558   2.483   0.789 -1.1884  2.7661 -2.9970
 1012MOL0     H33576   6.801   2.451   0.810  1.2413  0.3383  0.4045
 1012MOL0     H33577   6.761   2.570   0.691 -2.7661 -1.6148 -0.3976
 1012MOL0     H33578   6.847   2.603   0.981 -0.0598  2.2378  0.7801
 1012MOL0     H33579   6.801   2.754   0.878 -0.5348 -0.4583 -0.7799
 1012MOL0     H33580   6.995   2.698   0.737  0.5624  0.1942 -0.1527
 1012MOL0     H33581   7.032   2.734   0.894 -3.8419  3.2549 -1.7413
 1012MOL0     H33582   7.138   2.318   0.907  1.6592  0.4095  1.8758
 1012MOL0     H33583   6.358   2.478   0.898 -3.3244  0.6747  0.3415
 1012MOL0     H33584   6.177   2.474   1.061 -0.1337  0.8201 -2.3078
 1013MOL0     O33585   1.493   0.678   4.056 -0.7282 -0.2148  0.2541
 1013MOL0     C33586   1.435   0.576   4.073  0.5746 -0.1385 -0.4499
 1013MOL0     O33587   1.485   0.469   4.132  0.2966  0.6037  0.8484
 1013MOL0     C33588   1.623   0.448   4.142  0.1134 -0.1155  1.1022
 1013MOL0     C33589   1.701   0.447   4.028  0.0588 -1.0282  0.1235
 1013MOL0     C33590   1.839   0.447   4.034  0.4226 -0.1023  0.0575
 1013MOL0     C33591   1.902   0.422   4.158 -0.1537 -0.7136 -0.0480
 1013MOL0     O33592   2.037   0.419   4.182 -0.2575 -0.1948 -0.0837
 1013MOL0     C33593   2.113   0.344   4.089 -0.2687  0.2678 -0.1054
 1013MOL0     C33594   2.229   0.268   4.151  0.3636 -0.0530  0.6610
 1013MOL0     C33595   2.203   0.208   4.293 -0.3842  0.6499 -0.1574
 1013MOL0     C33596   2.111   0.086   4.272 -0.2602  0.0848 -1.1625
 1013MOL0     C33597   2.092  -0.004   4.393 -0.8786 -0.1350  0.2465
 1013MOL0     C33598   2.023   0.063   4.519  0.9192 -0.2203  0.3822
 1013MOL0     C33599   1.978  -0.048   4.608  1.1117  1.1341 -0.6604
 1013MOL0     C33600   1.875   0.012   4.715 -0.2317  0.0095  0.0930
 1013MOL0     N33601   1.815  -0.103   4.789  0.1490 -0.3120  0.5617
 1013MOL0     C33602   1.679  -0.132   4.776 -0.0057  0.3734 -0.0384
 1013MOL0     C33603   1.665  -0.233   4.870  0.2968 -0.2548 -0.2863
 1013MOL0     C33604   1.541  -0.306   4.899  0.9564 -0.8285 -0.4694
 1013MOL0     C33605   1.412  -0.214   4.921 -0.9438 -0.3377 -1.1876
 1013MOL0     C33606   1.277  -0.299   4.920  0.1336 -0.6229 -0.4739
 1013MOL0     C33607   1.164  -0.214   4.977 -0.0286 -0.2169 -0.1888
 1013MOL0     O33608   1.047  -0.290   4.976  0.2397 -0.7934 -0.5615
 1013MOL0     C33609   0.930  -0.219   4.994 -0.4302 -0.0420 -0.3041
 1013MOL0     C33610   0.819  -0.290   5.035 -0.2959  1.2008 -0.4555
 1013MOL0     C33611   0.696  -0.224   5.057 -0.1952  1.0570 -0.1282
 1013MOL0     C33612   0.679  -0.094   5.049  0.1342  1.1415  0.4008
 1013MOL0     C33613   0.555  -0.027   5.065  1.0895  1.3421  0.4459
 1013MOL0     O33614   0.542   0.087   5.007 -0.4707 -0.3823  0.0509
 1013MOL0     C33615   0.425   0.159   5.026 -0.6326  0.4154  1.1595
 1013MOL0     C33616   0.293   0.112   5.009  0.4615  0.0277 -0.2829
 1013MOL0     C33617   0.180   0.189   5.037 -1.1505 -0.7317 -0.4312
 1013MOL0     C33618   0.200   0.324   5.079 -0.1254  0.0416  0.9860
 1013MOL0     O33619   0.092   0.404   5.109  0.7541  0.1135 -0.7133
 1013MOL0     C33620   0.081   0.487   5.232 -0.0637 -0.1587  0.6262
 1013MOL0     C33621  -0.043   0.579   5.210  1.0134  0.2240  0.1605
 1013MOL0     C33622  -0.071   0.683   5.310  0.1272 -1.0194  0.0405
 1013MOL0     C33623  -0.206   0.765   5.292 -1.3222  0.2502  0.0231
 1013MOL0     C33624  -0.209   0.871   5.181 -0.1089  0.1057 -0.2143
 1013MOL0     C33625  -0.249   0.825   5.041  0.1937  0.2025 -0.7278
 1013MOL0     C33626  -0.248   0.937   4.938  0.3888 -0.1778  0.8304
 1013MOL0     C33627  -0.232   0.889   4.798  0.1502  0.6456  0.2384
 1013MOL0    Cl33628  -0.238   1.030   4.680  0.1859 -0.2532 -0.1258
 1013MOL0     C33629   0.327   0.377   5.098  0.0488  0.2826  0.4479
 1013MOL0     C33630   0.438   0.293   5.075 -0.2498  0.3136 -0.2124
 1013MOL0     O33631   0.467  -0.087   5.122  0.4975 -0.1858 -0.5877
 1013MOL0     C33632   0.786  -0.017   5.002 -0.6399 -0.0552  0.0520
 1013MOL0     C33633   0.908  -0.078   4.975 -1.3198  0.8522  0.6443
 1013MOL0     N33634   1.782  -0.256   4.935  0.0233  0.2688  0.3060
 1013MOL0     N33635   1.871  -0.174   4.890  0.2340  0.4167 -0.0180
 1013MOL0     C33636   1.825   0.403   4.269  0.7839 -0.1118  0.0468
 1013MOL0     C33637   1.686   0.412   4.262  0.5783 -1.2421  0.1467
 1013MOL0     C33638   1.290   0.576   4.040 -0.1314 -0.6701  0.9685
 1013MOL0     C33639   1.205   0.464   4.050  0.0453 -0.0849 -0.8126
 1013MOL0     C33640   1.071   0.472   4.024  0.0019  0.2644  0.3296
 1013MOL0     C33641   1.013   0.591   3.970 -0.3333  0.6590 -0.7356
 1013MOL0     O33642   0.881   0.592   3.926 -0.4122 -0.4155 -0.0690
 1013MOL0     C33643   0.817   0.721   3.892 -0.4057  0.2164 -0.2554
 1013MOL0     C33644   0.667   0.712   3.891  0.9727  0.2903  0.4193
 1013MOL0     C33645   0.606   0.669   4.025  0.2561 -0.2909  0.2039
 1013MOL0     C33646   0.563   0.791   4.109  0.0193  0.0665  0.6911
 1013MOL0     C33647   0.681   0.844   4.177  0.2149  0.9752 -0.0901
 1013MOL0     C33648   0.784   0.879   4.219 -0.1894 -0.2708 -0.0469
 1013MOL0     C33649   1.091   0.702   3.967 -0.8079 -0.7275  0.3362
 1013MOL0     C33650   1.232   0.700   4.003  0.6306  0.4658 -1.7498
 1013MOL0     H33651   1.657   0.465   3.930  0.7641  0.6702  0.0796
 1013MOL0     H33652   1.894   0.470   3.943  2.3311 -3.3637  0.2655
 1013MOL0     H33653   2.154   0.403   4.006  4.0944  1.4086  2.5153
 1013MOL0     H33654   2.047   0.274   4.037 -0.3329 -0.4476  0.9003
 1013MOL0     H33655   2.315   0.336   4.155  0.9633 -0.2218 -3.9933
 1013MOL0     H33656   2.254   0.188   4.080 -1.6130  0.2394 -0.4161
 1013MOL0     H33657   2.156   0.277   4.364  1.9633  2.4258 -0.1988
 1013MOL0     H33658   2.298   0.174   4.337  0.2173  1.4205 -0.8360
 1013MOL0     H33659   2.013   0.123   4.239 -0.0002 -0.3356 -2.4739
 1013MOL0     H33660   2.148   0.021   4.192 -0.9445  1.0561 -2.3147
 1013MOL0     H33661   2.184  -0.058   4.420 -1.3191 -0.4763  1.1051
 1013MOL0     H33662   2.016  -0.075   4.358  1.7989 -1.8644 -2.5627
 1013MOL0     H33663   1.929   0.112   4.489 -1.6085 -4.1675  1.1042
 1013MOL0     H33664   2.086   0.139   4.566 -1.7010  0.7542  2.6595
 1013MOL0     H33665   1.914  -0.114   4.550  0.2201  1.3432  0.0672
 1013MOL0     H33666   2.060  -0.099   4.661 -1.7892 -1.0763  2.0821
 1013MOL0     H33667   1.794   0.063   4.662  0.3967  0.1146 -0.8024
 1013MOL0     H33668   1.932   0.065   4.791  2.9466 -4.2329  1.0617
 1013MOL0     H33669   1.625  -0.080   4.697  0.1812  1.4077  0.5062
 1013MOL0     H33670   1.543  -0.362   4.992  0.5341 -1.1023 -0.6191
 1013MOL0     H33671   1.517  -0.379   4.821 -0.4441 -0.7664 -0.1290
 1013MOL0     H33672   1.403  -0.133   4.848 -0.4883  1.8040  0.9815
 1013MOL0     H33673   1.429  -0.160   5.015 -0.1891 -0.5715 -1.1908
 1013MOL0     H33674   1.268  -0.326   4.815  0.9956  1.8005 -1.2462
 1013MOL0     H33675   1.271  -0.383   4.990  0.1979 -0.2155  0.0286
 1013MOL0     H33676   1.159  -0.130   4.907  5.7828  1.2095  0.5854
 1013MOL0     H33677   1.194  -0.174   5.074  4.9001  1.3614 -2.0832
 1013MOL0     H33678   0.831  -0.398   5.038 -0.9204  1.0422 -2.4299
 1013MOL0     H33679   0.607  -0.280   5.084 -0.3134  1.2408 -0.1356
 1013MOL0     H33680   0.274   0.008   4.984  1.3753 -0.6879  1.7676
 1013MOL0     H33681   0.076   0.158   5.040 -1.0523 -0.9415  1.7159
 1013MOL0     H33682   0.172   0.545   5.249 -0.5483  0.3138  1.7453
 1013MOL0     H33683   0.060   0.420   5.317 -0.4438  0.7037  1.2334
 1013MOL0     H33684  -0.137   0.527   5.194  1.0403 -0.0142  0.7405
 1013MOL0     H33685  -0.014   0.631   5.119 -2.5499 -1.0946 -1.8811
 1013MOL0     H33686   0.023   0.739   5.316  0.6578 -1.6018 -1.9696
 1013MOL0     H33687  -0.090   0.627   5.402 -0.4223  1.1208  1.2900
 1013MOL0     H33688  -0.287   0.693   5.283 -0.4979 -0.8795  1.3067
 1013MOL0     H33689  -0.217   0.815   5.388  0.3160  0.6876  0.0123
 1013MOL0     H33690  -0.108   0.914   5.178 -0.8034  2.1096  2.0392
 1013MOL0     H33691  -0.283   0.949   5.202  0.2395  0.3763  0.0238
 1013MOL0     H33692  -0.343   0.770   5.043 -0.9311  2.0505  0.7889
 1013MOL0     H33693  -0.179   0.748   5.008  3.2400  2.0735  0.9373
 1013MOL0     H33694  -0.339   0.996   4.955 -0.1387 -0.5533 -0.5009
 1013MOL0     H33695  -0.169   1.008   4.961  0.2246 -0.3575  2.0217
 1013MOL0     H33696  -0.311   0.818   4.772  1.9357 -1.5700  0.5019
 1013MOL0     H33697  -0.135   0.839   4.784  0.5376  1.4446  0.0470
 1013MOL0     H33698   0.346   0.478   5.131  2.7476  0.6929 -1.9590
 1013MOL0     H33699   0.533   0.336   5.105 -0.2120 -0.4715  0.8209
 1013MOL0     H33700   0.779   0.091   4.990  1.4844  0.1666  0.4102
 1013MOL0     H33701   0.988  -0.015   4.938 -2.7663  0.8918 -2.8572
 1013MOL0     H33702   1.876   0.392   4.365  0.5697  2.3683  0.5113
 1013MOL0     H33703   1.619   0.393   4.345 -0.1149  0.0489 -0.0901
 1013MOL0     H33704   1.238   0.364   4.075 -1.9766 -1.5061 -3.3138
 1013MOL0     H33705   1.008   0.385   4.037  1.4169 -0.8100  0.2719
 1013MOL0     H33706   0.856   0.751   3.794  3.9459  0.3608  1.2759
 1013MOL0     H33707   0.851   0.794   3.965 -0.4635 -0.3758  0.3750
 1013MOL0     H33708   0.619   0.804   3.856 -3.2818 -2.0776 -0.6443
 1013MOL0     H33709   0.632   0.635   3.822 -3.6612  2.8084 -0.4603
 1013MOL0     H33710   0.677   0.605   4.079 -1.3519 -1.4896  0.9955
 1013MOL0     H33711   0.523   0.604   3.998  1.4099 -0.6097 -3.0275
 1013MOL0     H33712   0.518   0.873   4.053  0.5433  0.6443  1.0940
 1013MOL0     H33713   0.489   0.755   4.182  0.6178  2.0231  2.3836
 1013MOL0     H33714   0.884   0.902   4.249  0.1242 -1.2037 -0.3377
 1013MOL0     H33715   1.048   0.796   3.933  0.4821 -0.2940 -0.1933
 1013MOL0     H33716   1.292   0.790   4.009  1.5317 -0.2546  1.6825
 1014MOL0     O33717   9.529   0.267   2.381  0.0815  0.2557  0.5633
 1014MOL0     C33718   9.541   0.253   2.253 -0.5731 -0.1621 -0.4849
 1014MOL0     O33719   9.466   0.312   2.154 -0.1459 -0.4502 -0.0680
 1014MOL0     C33720   9.360   0.391   2.190  0.4900 -0.1085  0.6618
 1014MOL0     C33721   9.356   0.513   2.125 -0.3028 -0.2913 -0.6967
 1014MOL0     C33722   9.245   0.591   2.136 -0.3258 -0.2780  0.5270
 1014MOL0     C33723   9.123   0.549   2.207 -0.0547 -0.0932  1.0069
 1014MOL0     O33724   9.016   0.637   2.196 -0.6171 -0.3919  0.0499
 1014MOL0     C33725   8.903   0.611   2.280  0.4790  0.0718 -0.5179
 1014MOL0     C33726   8.800   0.727   2.287  0.0956 -0.4099  0.1910
 1014MOL0     C33727   8.669   0.683   2.343 -0.1660  0.6264  0.4874
 1014MOL0     C33728   8.572   0.802   2.375  0.3147  0.3825  0.3306
 1014MOL0     C33729   8.497   0.842   2.247 -0.8032  0.9887 -0.6469
 1014MOL0     C33730   8.392   0.951   2.277 -0.8219  0.0973  0.0531
 1014MOL0     C33731   8.287   0.922   2.391  0.0163  0.4476 -0.3304
 1014MOL0     C33732   8.210   1.052   2.410 -0.0697  0.0178  0.3166
 1014MOL0     N33733   8.118   1.038   2.517  0.2340  0.3916 -1.5504
 1014MOL0     C33734   8.148   1.039   2.654 -0.0579  0.1987  0.9544
 1014MOL0     C33735   8.039   1.071   2.728  1.5077  0.3121  0.5677
 1014MOL0     C33736   8.044   1.091   2.876 -0.3845 -0.0362 -0.0916
 1014MOL0     C33737   7.919   1.039   2.940 -0.3783 -0.5389  0.0176
 1014MOL0     C33738   7.830   1.166   2.949  0.8106  0.2761  0.1454
 1014MOL0     C33739   7.686   1.152   3.000  1.1553 -0.9064  0.0767
 1014MOL0     O33740   7.605   1.062   2.923 -0.7445 -0.5157 -0.4790
 1014MOL0     C33741   7.476   1.045   2.955  0.1664 -0.8864 -0.0570
 1014MOL0     C33742   7.416   1.060   3.085  0.1251  0.6808 -0.3870
 1014MOL0     C33743   7.276   1.055   3.096  0.7133  0.6797 -0.3358
 1014MOL0     C33744   7.193   1.024   2.987 -0.8282 -0.3711 -0.0766
 1014MOL0     C33745   7.046   1.040   2.994  0.7322  0.3081  0.6039
 1014MOL0     O33746   6.983   1.031   3.117 -0.2602 -0.8041  0.6726
 1014MOL0     C33747   6.845   1.048   3.118 -0.0151  0.5162 -0.1376
 1014MOL0     C33748   6.779   1.160   3.153 -0.4695 -0.3034  0.1517
 1014MOL0     C33749   6.639   1.165   3.152  0.8575 -0.2327  0.2478
 1014MOL0     C33750   6.553   1.056   3.127 -0.3567 -0.0876  0.0292
 1014MOL0     O33751   6.417   1.051   3.137  0.1715 -0.3249  0.4445
 1014MOL0     C33752   6.353   1.156   3.048  0.1144 -0.0966 -0.3768
 1014MOL0     C33753   6.283   1.262   3.132 -0.9253 -0.6465  0.7490
 1014MOL0     C33754   6.185   1.342   3.046 -0.3848  0.2258 -0.0098
 1014MOL0     C33755   6.058   1.262   3.031  0.3416  0.9063  1.2597
 1014MOL0     C33756   5.956   1.353   2.952 -0.4532 -0.6113 -0.3789
 1014MOL0     C33757   5.810   1.296   2.961 -0.0753  0.6682  0.0519
 1014MOL0     C33758   5.706   1.404   2.921 -0.3760 -0.5135 -0.3619
 1014MOL0     C33759   5.561   1.382   2.953  0.1756  1.2648  0.1270
 1014MOL0    Cl33760   5.456   1.516   2.907  0.4002 -0.0520 -0.4557
 1014MOL0     C33761   6.626   0.944   3.097  0.4219  0.7876 -0.4179
 1014MOL0     C33762   6.765   0.936   3.092  0.4295  0.0718 -0.0907
 1014MOL0     O33763   6.983   1.035   2.883 -0.1566 -0.1850  0.3526
 1014MOL0     C33764   7.256   0.992   2.864 -0.6675  0.5016 -0.1077
 1014MOL0     C33765   7.391   1.020   2.848  0.4151 -0.0615 -0.5554
 1014MOL0     N33766   7.934   1.072   2.634  0.5249 -0.6953  0.3676
 1014MOL0     N33767   7.983   1.063   2.516  0.4879 -0.2330 -0.3177
 1014MOL0     C33768   9.129   0.430   2.278  0.1140  0.2987 -0.4947
 1014MOL0     C33769   9.244   0.353   2.268 -0.3605  0.4686  0.1871
 1014MOL0     C33770   9.651   0.167   2.203 -0.3924  0.2793 -0.5107
 1014MOL0     C33771   9.719   0.088   2.295  0.4164 -1.6924 -0.1274
 1014MOL0     C33772   9.816   0.001   2.252  0.2766 -0.4442  0.3039
 1014MOL0     C33773   9.834  -0.022   2.113 -0.7715 -0.2889  0.4131
 1014MOL0     O33774   9.923  -0.110   2.060 -0.7445 -0.7713  0.0758
 1014MOL0     C33775   9.995  -0.205   2.150 -0.1179  0.0490  0.1186
 1014MOL0     C33776  10.047  -0.316   2.061  0.1802  0.3701  0.1846
 1014MOL0     C33777  10.151  -0.409   2.123  0.0426 -0.1434 -1.0336
 1014MOL0     C33778  10.094  -0.478   2.248 -0.8117  0.1260  0.0351
 1014MOL0     C33779  10.164  -0.596   2.291 -0.4651  0.1148 -1.0508
 1014MOL0     C33780  10.210  -0.694   2.348 -0.6579 -0.9438  0.0927
 1014MOL0     C33781   9.763   0.058   2.026 -0.0532  0.8251  0.6939
 1014MOL0     C33782   9.674   0.147   2.065  0.5993 -0.1587 -0.4111
 1014MOL0     H33783   9.438   0.557   2.069 -0.5740 -1.5006 -2.0985
 1014MOL0     H33784   9.248   0.684   2.079  2.1209 -1.2189 -1.0310
 1014MOL0     H33785   8.935   0.605   2.385  1.8404  1.1003 -0.8611
 1014MOL0     H33786   8.860   0.512   2.263  1.1591 -0.8325  2.3358
 1014MOL0     H33787   8.774   0.763   2.186 -2.7803 -0.0561  0.9526
 1014MOL0     H33788   8.845   0.810   2.342 -2.5283  1.5602 -0.4299
 1014MOL0     H33789   8.677   0.641   2.444  1.8355 -4.9178 -1.6323
 1014MOL0     H33790   8.615   0.601   2.295  0.1163 -0.0583  1.3123
 1014MOL0     H33791   8.504   0.771   2.455 -0.4217  0.1957 -0.3503
 1014MOL0     H33792   8.632   0.885   2.413  1.8339 -1.7059  2.7862
 1014MOL0     H33793   8.452   0.749   2.210 -1.0304  0.0785  1.7698
 1014MOL0     H33794   8.561   0.882   2.168 -3.3050  2.8889 -1.8531
 1014MOL0     H33795   8.340   0.963   2.181 -1.8159 -1.6343  0.3108
 1014MOL0     H33796   8.450   1.037   2.309  1.5236 -1.1332 -0.6768
 1014MOL0     H33797   8.206   0.849   2.383  1.4427 -1.4426  1.5098
 1014MOL0     H33798   8.340   0.894   2.482 -0.9907 -0.4000  0.0091
 1014MOL0     H33799   8.146   1.073   2.323  0.4447  1.2230  0.2087
 1014MOL0     H33800   8.271   1.142   2.421  0.0577 -0.0767  0.3703
 1014MOL0     H33801   8.247   1.042   2.698 -0.0736  0.8508  0.9563
 1014MOL0     H33802   8.063   1.197   2.893  2.8056 -0.4938 -0.1311
 1014MOL0     H33803   8.130   1.038   2.918 -0.4605 -0.1809 -0.1174
 1014MOL0     H33804   7.947   1.005   3.040  0.4605 -3.6507 -1.1678
 1014MOL0     H33805   7.870   0.960   2.883  0.5818 -0.7104 -0.5914
 1014MOL0     H33806   7.871   1.242   3.016 -0.9435  0.6639  0.8548
 1014MOL0     H33807   7.817   1.210   2.849  0.0086  0.1620  0.1909
 1014MOL0     H33808   7.645   1.253   3.000 -0.3603 -1.4872  0.8495
 1014MOL0     H33809   7.697   1.113   3.102 -3.0626  1.5639  1.7411
 1014MOL0     H33810   7.481   1.080   3.169 -0.3441  2.0165 -0.3153
 1014MOL0     H33811   7.222   1.086   3.185  0.7146  0.9928 -0.4445
 1014MOL0     H33812   6.848   1.238   3.185  0.2885  0.6056 -3.3091
 1014MOL0     H33813   6.600   1.261   3.184 -0.1424 -0.4767 -0.1851
 1014MOL0     H33814   6.277   1.105   2.989  0.7169 -3.0290  1.1870
 1014MOL0     H33815   6.429   1.182   2.974 -0.2740 -0.7406 -1.0122
 1014MOL0     H33816   6.365   1.323   3.172 -1.2911 -0.5622  1.3753
 1014MOL0     H33817   6.231   1.214   3.215  1.2306  0.6477  2.9870
 1014MOL0     H33818   6.240   1.375   2.958 -0.3451 -0.3968 -0.2234
 1014MOL0     H33819   6.161   1.428   3.109  0.1706  0.0063  0.5119
 1014MOL0     H33820   6.077   1.172   2.970 -0.0586  1.8745 -0.3514
 1014MOL0     H33821   6.021   1.218   3.124  1.1970 -1.9631  0.3584
 1014MOL0     H33822   5.983   1.372   2.848  1.5702  1.9988  0.5140
 1014MOL0     H33823   5.963   1.450   3.001  1.6228 -0.7882 -0.2126
 1014MOL0     H33824   5.793   1.264   3.064  3.1548 -2.0996 -0.0910
 1014MOL0     H33825   5.798   1.215   2.889 -0.0680  1.3121 -0.6890
 1014MOL0     H33826   5.740   1.498   2.966 -0.4321 -0.4786 -0.3913
 1014MOL0     H33827   5.714   1.423   2.814 -0.4579  0.6920 -0.1696
 1014MOL0     H33828   5.555   1.356   3.059 -0.4546 -0.2938 -0.2717
 1014MOL0     H33829   5.524   1.294   2.899 -3.7235  2.4010  0.6244
 1014MOL0     H33830   6.563   0.856   3.083  1.8627 -0.5234  0.9764
 1014MOL0     H33831   6.807   0.840   3.066 -1.9724 -0.7798 -1.0838
 1014MOL0     H33832   7.190   0.965   2.782  0.8021 -0.8958 -0.8935
 1014MOL0     H33833   7.448   1.028   2.756 -2.7340  0.6895 -2.6383
 1014MOL0     H33834   9.042   0.384   2.325  1.6091 -0.7267  1.4138
 1014MOL0     H33835   9.251   0.256   2.315 -0.5657  0.3368 -0.0511
 1014MOL0     H33836   9.689   0.081   2.399 -0.9454  0.4968 -0.3001
 1014MOL0     H33837   9.867  -0.059   2.327  0.5135 -2.1782 -1.1669
 1014MOL0     H33838   9.943  -0.238   2.241  2.1722 -1.5871  0.9107
 1014MOL0     H33839  10.085  -0.154   2.187  0.7901 -0.8364 -0.8319
 1014MOL0     H33840   9.960  -0.369   2.021  0.9492 -1.2681  0.6125
 1014MOL0     H33841  10.099  -0.274   1.974 -2.4529  0.6592 -1.3574
 1014MOL0     H33842  10.241  -0.353   2.147 -0.1605 -0.0851 -0.4035
 1014MOL0     H33843  10.165  -0.488   2.048 -2.2243  0.1779 -1.8899
 1014MOL0     H33844  10.106  -0.399   2.324 -2.6401  0.2148  0.2749
 1014MOL0     H33845   9.987  -0.494   2.233 -0.8772  0.0629  0.5300
 1014MOL0     H33846  10.247  -0.777   2.403 -1.3745 -1.1468  0.2850
 1014MOL0     H33847   9.793   0.050   1.922  3.0328  0.9523  1.4633
 1014MOL0     H33848   9.617   0.203   1.991  0.3691 -1.5267 -1.3143
 1015MOL0     O33849   8.533   6.901  10.569 -0.5891  0.0681  0.2860
 1015MOL0     C33850   8.621   6.961  10.631  0.1755  0.2230 -0.2452
 1015MOL0     O33851   8.605   7.053  10.728 -0.3156 -0.6218 -0.0441
 1015MOL0     C33852   8.472   7.068  10.763 -0.5743  0.5041  1.1118
 1015MOL0     C33853   8.401   7.184  10.724  0.6226 -0.2192  0.1240
 1015MOL0     C33854   8.270   7.212  10.776  0.3193  0.3868 -0.4435
 1015MOL0     C33855   8.225   7.122  10.875  0.6118  0.8406 -0.3346
 1015MOL0     O33856   8.118   7.159  10.950  0.4336 -0.2109  0.6263
 1015MOL0     C33857   8.012   7.073  10.980  0.5085  0.4002 -0.0013
 1015MOL0     C33858   7.881   7.149  10.992  0.8018  0.0596  0.3683
 1015MOL0     C33859   7.774   7.057  11.041 -0.2511 -0.4084 -0.3354
 1015MOL0     C33860   7.645   7.147  11.021 -0.0642 -0.3947  0.4467
 1015MOL0     C33861   7.538   7.061  11.091 -0.1674 -0.1189 -0.4329
 1015MOL0     C33862   7.399   7.124  11.077  0.5634 -0.5630  0.2213
 1015MOL0     C33863   7.363   7.140  10.935  0.3219  0.5276 -0.3507
 1015MOL0     C33864   7.219   7.096  10.912  0.4830  0.2004  0.2242
 1015MOL0     N33865   7.207   6.950  10.899  0.3539  0.9208 -0.2664
 1015MOL0     C33866   7.230   6.880  10.780  0.2060  0.4884 -0.2375
 1015MOL0     C33867   7.163   6.766  10.791  0.0090  0.6907 -0.5557
 1015MOL0     C33868   7.153   6.662  10.691 -0.8393  0.7688 -0.2589
 1015MOL0     C33869   7.033   6.685  10.595 -0.2456  0.2473  0.1028
 1015MOL0     C33870   7.032   6.819  10.516  0.3839  0.2353 -0.0791
 1015MOL0     C33871   6.895   6.854  10.449  0.5612 -0.4060  0.0695
 1015MOL0     O33872   6.870   6.758  10.352  0.1724 -0.7869  0.4721
 1015MOL0     C33873   6.749   6.759  10.294 -0.5564 -0.7806 -0.2219
 1015MOL0     C33874   6.634   6.829  10.338 -0.1852  0.6363 -0.4972
 1015MOL0     C33875   6.513   6.825  10.267 -0.2583 -0.6907 -0.0712
 1015MOL0     C33876   6.498   6.747  10.152 -0.1330 -0.0452 -0.0842
 1015MOL0     C33877   6.358   6.730  10.082 -0.0128 -0.0450  0.3005
 1015MOL0     O33878   6.248   6.786  10.148  0.0803 -0.0615  0.1854
 1015MOL0     C33879   6.121   6.745  10.112  0.2998  0.3315  0.3253
 1015MOL0     C33880   6.063   6.626  10.152 -0.9614  0.1998 -0.3952
 1015MOL0     C33881   5.933   6.584  10.115 -0.5969 -0.7138 -1.0093
 1015MOL0     C33882   5.866   6.668  10.021  0.2304  1.1943  0.1634
 1015MOL0     O33883   5.734   6.640   9.975  0.1727 -0.3821 -0.3508
 1015MOL0     C33884   5.689   6.506   9.997 -0.0462 -0.0042  0.5625
 1015MOL0     C33885   5.543   6.491   9.956 -0.7461 -0.2905 -0.1182
 1015MOL0     C33886   5.536   6.493   9.807 -0.6989 -0.7164 -0.3806
 1015MOL0     C33887   5.385   6.496   9.770 -0.3380 -0.0921 -0.9146
 1015MOL0     C33888   5.382   6.506   9.616 -0.6430  0.9479  0.1125
 1015MOL0     C33889   5.433   6.374   9.536  1.0145  0.0400  0.0952
 1015MOL0     C33890   5.429   6.382   9.380  0.1925 -0.6941  0.7286
 1015MOL0     C33891   5.520   6.480   9.321 -0.3900  0.1218 -0.0519
 1015MOL0    Cl33892   5.695   6.416   9.318  0.1584 -0.0861  0.0089
 1015MOL0     C33893   5.929   6.790   9.985  0.0667  0.1589  0.4613
 1015MOL0     C33894   6.053   6.829  10.023 -0.4307  0.0699 -0.2360
 1015MOL0     O33895   6.348   6.665   9.986 -0.5221 -0.2952 -0.0925
 1015MOL0     C33896   6.615   6.670  10.112 -1.0500 -0.4180  0.6795
 1015MOL0     C33897   6.745   6.688  10.179  0.1823  0.4295 -0.0148
 1015MOL0     N33898   7.115   6.760  10.924  1.1762  0.2113  0.2430
 1015MOL0     N33899   7.136   6.872  10.986 -0.6886 -0.0667  0.0862
 1015MOL0     C33900   8.294   7.011  10.912 -0.0671 -0.6850  0.0169
 1015MOL0     C33901   8.413   6.980  10.855 -0.3879  0.0974  0.5123
 1015MOL0     C33902   8.764   6.939  10.607 -0.1658  0.1586 -0.4840
 1015MOL0     C33903   8.862   6.976  10.694  0.4283  0.1267  0.0960
 1015MOL0     C33904   8.992   6.967  10.652 -0.6568 -0.3800 -0.1458
 1015MOL0     C33905   9.034   6.922  10.524  0.8243  0.4159 -0.1170
 1015MOL0     O33906   9.167   6.911  10.502  0.2024 -0.2793  0.3007
 1015MOL0     C33907   9.219   6.857  10.378 -0.0728  0.4605  0.1506
 1015MOL0     C33908   9.253   6.955  10.263  0.2700  1.0539  0.0129
 1015MOL0     C33909   9.328   6.874  10.156  0.2271  0.0484  0.5454
 1015MOL0     C33910   9.401   6.953  10.041 -0.1685 -0.1945 -0.1878
 1015MOL0     C33911   9.489   7.065  10.093 -0.3180  0.8232 -0.1231
 1015MOL0     C33912   9.552   7.169  10.123  0.2235  0.1500  0.7031
 1015MOL0     C33913   8.932   6.888  10.429 -0.2950  0.5240 -0.7140
 1015MOL0     C33914   8.800   6.888  10.483  0.5218 -0.7766  0.9392
 1015MOL0     H33915   8.453   7.254  10.659  3.2717 -2.6377 -0.5818
 1015MOL0     H33916   8.199   7.290  10.752 -0.5932 -0.7432 -1.6011
 1015MOL0     H33917   8.018   7.028  11.080 -0.8089  0.3299  0.0727
 1015MOL0     H33918   8.002   6.998  10.901 -2.3385  2.4526 -1.7834
 1015MOL0     H33919   7.865   7.197  10.895 -0.9669 -3.3610 -1.1835
 1015MOL0     H33920   7.894   7.228  11.068 -0.3936 -1.9997  2.8654
 1015MOL0     H33921   7.795   7.041  11.148 -0.3954 -0.2920 -0.2892
 1015MOL0     H33922   7.756   6.961  10.993 -2.5310 -1.8931  3.0375
 1015MOL0     H33923   7.655   7.238  11.082 -0.9660 -0.2110  0.3397
 1015MOL0     H33924   7.623   7.179  10.919 -0.1196  1.9523  1.1348
 1015MOL0     H33925   7.560   7.059  11.198  0.2144 -1.5673 -0.5073
 1015MOL0     H33926   7.530   6.960  11.049  0.8091  0.3451 -1.7913
 1015MOL0     H33927   7.400   7.219  11.133  1.2674 -1.0234  1.0203
 1015MOL0     H33928   7.330   7.059  11.131  2.5996 -1.8723  1.4018
 1015MOL0     H33929   7.380   7.241  10.894 -0.5081  0.7047 -0.2838
 1015MOL0     H33930   7.422   7.067  10.879 -2.2848 -0.7334 -1.6434
 1015MOL0     H33931   7.178   7.150  10.826  0.1023 -0.5556 -0.0784
 1015MOL0     H33932   7.154   7.128  10.994 -0.8543 -2.7084  0.4117
 1015MOL0     H33933   7.280   6.913  10.689  1.1232 -0.4637 -0.0919
 1015MOL0     H33934   7.127   6.569  10.742 -1.8071  2.1825  2.0215
 1015MOL0     H33935   7.250   6.648  10.643 -0.3132 -1.5244  1.3039
 1015MOL0     H33936   6.945   6.682  10.660 -0.1990  2.1909  0.3157
 1015MOL0     H33937   7.017   6.602  10.527  1.0576  0.4471 -0.4738
 1015MOL0     H33938   7.050   6.911  10.573 -0.7889  1.1566 -1.1282
 1015MOL0     H33939   7.096   6.802  10.430  0.2112 -2.3652  0.2251
 1015MOL0     H33940   6.905   6.953  10.403  2.1567 -0.3317  0.5094
 1015MOL0     H33941   6.817   6.853  10.525  0.1797  0.1507 -0.3105
 1015MOL0     H33942   6.636   6.889  10.429  1.0189 -0.9827  0.5969
 1015MOL0     H33943   6.427   6.884  10.295  0.3518 -1.1283  3.0417
 1015MOL0     H33944   6.104   6.573  10.237 -1.9883  1.1169  0.7092
 1015MOL0     H33945   5.887   6.494  10.156  1.2740 -0.6760  1.4674
 1015MOL0     H33946   5.699   6.481  10.103 -0.8592  1.4128  0.9953
 1015MOL0     H33947   5.743   6.433   9.936 -2.2353  1.1841 -3.1521
 1015MOL0     H33948   5.484   6.572   9.998 -0.6675  0.2627 -1.0389
 1015MOL0     H33949   5.507   6.398  10.002 -0.6520 -1.7561 -2.7727
 1015MOL0     H33950   5.573   6.398   9.765 -2.1409 -1.3644 -0.2400
 1015MOL0     H33951   5.576   6.589   9.775 -2.5989 -0.2912 -1.6214
 1015MOL0     H33952   5.331   6.409   9.810 -1.4877  1.0552  0.0850
 1015MOL0     H33953   5.353   6.595   9.802  2.1588  1.3917 -2.6690
 1015MOL0     H33954   5.448   6.581   9.572  0.6764  0.0391  0.4737
 1015MOL0     H33955   5.282   6.515   9.571  0.7642  0.2268 -3.5433
 1015MOL0     H33956   5.369   6.292   9.571  1.8947 -0.1659  1.2890
 1015MOL0     H33957   5.536   6.353   9.565  1.4033 -0.4620 -1.5564
 1015MOL0     H33958   5.452   6.282   9.341 -0.1350 -0.3321 -0.4295
 1015MOL0     H33959   5.327   6.394   9.342  0.0535 -0.6738  1.0990
 1015MOL0     H33960   5.510   6.572   9.380  0.3971  0.4496 -0.4080
 1015MOL0     H33961   5.489   6.496   9.218  2.3033 -3.9173 -1.7114
 1015MOL0     H33962   5.867   6.847   9.916 -0.2828 -1.3620 -0.5242
 1015MOL0     H33963   6.089   6.923   9.981 -2.0995  0.3161 -1.1833
 1015MOL0     H33964   6.604   6.609  10.023 -0.8306  0.1305  0.2734
 1015MOL0     H33965   6.840   6.646  10.146 -0.6700 -1.6513  0.0135
 1015MOL0     H33966   8.264   6.937  10.986  2.8086 -3.2347 -1.1818
 1015MOL0     H33967   8.465   6.888  10.878 -1.2134 -0.4421  0.2243
 1015MOL0     H33968   8.824   6.999  10.793  2.0489  0.9296  0.5720
 1015MOL0     H33969   9.079   6.991  10.713 -0.1508  0.4357 -1.1680
 1015MOL0     H33970   9.162   6.772  10.339  1.3508 -1.6084  2.2914
 1015MOL0     H33971   9.313   6.815  10.413 -1.8134 -2.7805  1.3571
 1015MOL0     H33972   9.164   7.008  10.227 -1.7570 -1.2454  1.3075
 1015MOL0     H33973   9.327   7.019  10.313  0.3776  0.4190  0.6944
 1015MOL0     H33974   9.250   6.813  10.109 -0.1201 -0.0657  1.2615
 1015MOL0     H33975   9.397   6.812  10.213 -0.4369 -1.0294  0.1993
 1015MOL0     H33976   9.457   6.878   9.984  1.4606  1.1181 -0.3941
 1015MOL0     H33977   9.334   7.001   9.969 -0.6032  0.4795  0.6379
 1015MOL0     H33978   9.599   7.260  10.153 -1.9848  2.2554 -1.6669
 1015MOL0     H33979   8.950   6.855  10.327 -0.8468 -3.8333  0.3676
 1015MOL0     H33980   8.724   6.853  10.413  1.5025  0.2743 -0.7255
 1016MOL0     O33981   6.071  11.130   0.521 -0.1871  0.3404  0.2467
 1016MOL0     C33982   6.110  11.241   0.541 -0.3763 -0.2736 -0.2622
 1016MOL0     O33983   6.030  11.349   0.557  0.0344 -0.6046  0.1848
 1016MOL0     C33984   5.894  11.333   0.569  0.5860  0.2638 -1.0942
 1016MOL0     C33985   5.821  11.353   0.691 -0.9592  0.1397 -0.8285
 1016MOL0     C33986   5.683  11.364   0.696  0.9304 -0.3451 -0.2042
 1016MOL0     C33987   5.606  11.352   0.581 -0.1245  0.1766  0.3410
 1016MOL0     O33988   5.468  11.357   0.587  0.1830 -0.1192 -0.5250
 1016MOL0     C33989   5.388  11.290   0.490 -0.0294 -0.0255  0.0492
 1016MOL0     C33990   5.249  11.256   0.538  0.4445 -1.7430  0.4031
 1016MOL0     C33991   5.158  11.383   0.558  0.6186  0.1171 -0.1929
 1016MOL0     C33992   5.042  11.336   0.646 -0.3832 -0.6793  0.0143
 1016MOL0     C33993   4.912  11.419   0.638 -0.3544 -0.2248  0.0766
 1016MOL0     C33994   4.838  11.406   0.505  0.1547  0.3302  0.0951
 1016MOL0     C33995   4.693  11.455   0.528  0.2856 -0.3477  0.5613
 1016MOL0     C33996   4.608  11.455   0.394 -0.5047 -0.2976  0.6407
 1016MOL0     N33997   4.600  11.313   0.355 -0.2093 -0.3056 -0.4467
 1016MOL0     C33998   4.539  11.217   0.430  0.8120 -0.2505  0.6119
 1016MOL0     C33999   4.526  11.112   0.340 -0.1048  0.8530 -0.4537
 1016MOL0     C34000   4.443  10.980   0.349 -0.2953 -0.0078  0.9427
 1016MOL0     C34001   4.310  10.989   0.415  0.9095  0.0691  0.0559
 1016MOL0     C34002   4.212  11.083   0.342 -0.5152 -0.7280  0.3462
 1016MOL0     C34003   4.089  11.124   0.418  0.5215  0.5286  0.0143
 1016MOL0     O34004   4.121  11.174   0.545 -0.8139 -0.1197 -0.2525
 1016MOL0     C34005   4.172  11.308   0.546  0.2949  0.5484 -0.6634
 1016MOL0     C34006   4.261  11.331   0.653  0.1000 -0.4742 -0.3888
 1016MOL0     C34007   4.331  11.452   0.665  0.0554  0.3180 -0.2971
 1016MOL0     C34008   4.300  11.554   0.583 -1.5223 -0.2962  0.6076
 1016MOL0     C34009   4.367  11.684   0.600 -0.2469  0.3537  0.4050
 1016MOL0     O34010   4.426  11.706   0.717  0.2182 -0.8869  0.0113
 1016MOL0     C34011   4.419  11.833   0.772 -0.4863 -0.0514  0.0714
 1016MOL0     C34012   4.468  11.955   0.714 -0.1866 -0.4171  0.7086
 1016MOL0     C34013   4.435  12.079   0.759 -0.4992 -0.5186 -0.7400
 1016MOL0     C34014   4.338  12.088   0.869  0.1052 -0.2080  0.9455
 1016MOL0     O34015   4.276  12.205   0.913  0.0367  0.2817  0.2398
 1016MOL0     C34016   4.285  12.330   0.836  0.1360 -0.5318  0.2144
 1016MOL0     C34017   4.185  12.433   0.873  0.0353  0.5204  0.8238
 1016MOL0     C34018   4.048  12.385   0.858  0.9553  1.0169 -0.4312
 1016MOL0     C34019   3.948  12.481   0.933  0.4327  0.2785 -0.3678
 1016MOL0     C34020   3.806  12.417   0.931  0.1851  0.2211  0.5783
 1016MOL0     C34021   3.758  12.420   0.787 -0.2182  0.4828  0.4057
 1016MOL0     C34022   3.606  12.422   0.788 -0.7426  0.9869 -0.4406
 1016MOL0     C34023   3.534  12.372   0.657 -0.2471 -0.4856 -0.1061
 1016MOL0    Cl34024   3.352  12.344   0.674  0.1255 -0.1984  0.2943
 1016MOL0     C34025   4.306  11.970   0.940  0.0571  0.1903  0.2851
 1016MOL0     C34026   4.349  11.845   0.890  0.7485 -0.1094  0.0782
 1016MOL0     O34027   4.336  11.774   0.513  0.2331  0.0015 -0.2498
 1016MOL0     C34028   4.220  11.529   0.468 -0.4587  0.8581 -0.3447
 1016MOL0     C34029   4.152  11.406   0.447  0.6032 -0.5942 -0.3624
 1016MOL0     N34030   4.589  11.152   0.218 -0.0588  0.5809 -0.4008
 1016MOL0     N34031   4.637  11.271   0.238  0.4614 -0.4558  1.1056
 1016MOL0     C34032   5.676  11.304   0.463 -0.0542  0.3717 -0.2406
 1016MOL0     C34033   5.813  11.299   0.456  0.2352  0.2304  0.0736
 1016MOL0     C34034   6.258  11.262   0.532  0.0174 -0.0572  0.0768
 1016MOL0     C34035   6.310  11.379   0.575  0.0334 -0.7940 -0.0841
 1016MOL0     C34036   6.445  11.397   0.583 -0.4140  0.4983  0.0062
 1016MOL0     C34037   6.530  11.284   0.576 -0.4085  0.8090  0.3352
 1016MOL0     O34038   6.665  11.316   0.589 -0.6006 -0.2822  0.6895
 1016MOL0     C34039   6.759  11.208   0.572 -0.0906 -0.2952  0.0513
 1016MOL0     C34040   6.900  11.264   0.601  0.6224 -0.2298 -0.5048
 1016MOL0     C34041   7.012  11.166   0.567 -0.8353  0.5907  0.3090
 1016MOL0     C34042   7.037  11.142   0.415  0.1799 -0.1929 -0.2894
 1016MOL0     C34043   7.026  11.257   0.331 -0.2749 -0.5082 -0.8519
 1016MOL0     C34044   7.031  11.355   0.260  0.7052  0.0938  0.6550
 1016MOL0     C34045   6.476  11.163   0.530 -0.7717 -0.6057  0.4794
 1016MOL0     C34046   6.342  11.154   0.507  0.3342  1.3976 -0.3259
 1016MOL0     H34047   5.884  11.359   0.778  0.3475  0.7694 -1.7855
 1016MOL0     H34048   5.630  11.385   0.789  1.3870  0.1109 -0.0456
 1016MOL0     H34049   5.433  11.192   0.472 -1.7200 -1.0194  0.9198
 1016MOL0     H34050   5.374  11.355   0.403  2.0728  0.2089 -0.1622
 1016MOL0     H34051   5.259  11.203   0.633  0.1592  0.4642  1.7404
 1016MOL0     H34052   5.197  11.189   0.469  0.5126 -2.0030  0.6056
 1016MOL0     H34053   5.124  11.410   0.458  1.5987  1.6208 -0.1477
 1016MOL0     H34054   5.204  11.476   0.592  1.2388 -1.0146  2.3369
 1016MOL0     H34055   5.022  11.230   0.625 -0.2431 -0.3945 -1.7761
 1016MOL0     H34056   5.071  11.335   0.751 -2.1634  3.9400  0.7781
 1016MOL0     H34057   4.936  11.523   0.660  0.3939 -0.2035 -0.7275
 1016MOL0     H34058   4.849  11.368   0.711  0.2838 -0.5778  0.3884
 1016MOL0     H34059   4.841  11.305   0.463 -1.7744  0.3553 -0.1996
 1016MOL0     H34060   4.878  11.477   0.432  1.1839 -0.1194  0.2016
 1016MOL0     H34061   4.642  11.383   0.592 -0.9197 -1.3756 -1.4626
 1016MOL0     H34062   4.705  11.550   0.581 -0.0608  1.0145 -1.6756
 1016MOL0     H34063   4.657  11.505   0.311 -0.3502  0.4318  1.1663
 1016MOL0     H34064   4.509  11.501   0.404 -0.0353  1.0539 -0.6463
 1016MOL0     H34065   4.490  11.234   0.525 -0.8721  1.6629 -0.5280
 1016MOL0     H34066   4.512  10.910   0.396  0.3472  0.8722  1.3264
 1016MOL0     H34067   4.429  10.943   0.247 -1.0383 -1.8456  1.6556
 1016MOL0     H34068   4.336  11.031   0.513 -0.1494  3.0418 -0.8454
 1016MOL0     H34069   4.273  10.888   0.436  4.1974 -0.9894  1.4622
 1016MOL0     H34070   4.265  11.173   0.309  1.0324 -1.4979  0.5972
 1016MOL0     H34071   4.170  11.019   0.264  0.4357 -1.2362  0.2316
 1016MOL0     H34072   4.032  11.033   0.433 -0.1684  1.0409  0.5627
 1016MOL0     H34073   4.023  11.195   0.368  1.2922  0.6741 -0.8306
 1016MOL0     H34074   4.283  11.256   0.729  2.2597  0.6070  0.1309
 1016MOL0     H34075   4.410  11.454   0.740  0.3954  0.0340 -0.6431
 1016MOL0     H34076   4.535  11.962   0.629  1.3914 -1.5172  1.8018
 1016MOL0     H34077   4.466  12.172   0.711  0.8682 -1.7846 -2.4214
 1016MOL0     H34078   4.282  12.306   0.729 -0.0951  0.8678 -0.1132
 1016MOL0     H34079   4.380  12.382   0.854 -0.8077  0.3428  3.2896
 1016MOL0     H34080   4.199  12.520   0.807 -0.0717  3.1072  3.9555
 1016MOL0     H34081   4.205  12.476   0.972 -1.5127  1.6581  0.6719
 1016MOL0     H34082   4.031  12.283   0.894  3.1871 -0.0465 -2.1073
 1016MOL0     H34083   4.017  12.378   0.753 -2.5901 -2.0291  0.5825
 1016MOL0     H34084   3.983  12.491   1.036  1.1756  2.6635 -0.7972
 1016MOL0     H34085   3.947  12.582   0.891 -0.8644  0.1957 -0.5732
 1016MOL0     H34086   3.731  12.471   0.989 -0.7741  0.0078 -0.4238
 1016MOL0     H34087   3.810  12.311   0.958 -0.7489 -0.6486 -2.3603
 1016MOL0     H34088   3.799  12.341   0.723 -0.5335  0.0175  0.7742
 1016MOL0     H34089   3.783  12.512   0.732 -1.1523  0.3988 -0.1803
 1016MOL0     H34090   3.577  12.354   0.868 -0.9534  0.6403 -0.8089
 1016MOL0     H34091   3.579  12.526   0.809  0.2098  1.3232 -0.8427
 1016MOL0     H34092   3.575  12.280   0.616 -0.3230 -0.1675 -0.9214
 1016MOL0     H34093   3.541  12.453   0.584 -2.4162  0.2936  0.4664
 1016MOL0     H34094   4.246  11.984   1.030  3.8940  0.8287  2.9958
 1016MOL0     H34095   4.313  11.760   0.948  0.1905  0.7552  1.0159
 1016MOL0     H34096   4.224  11.609   0.396  0.7489 -0.5082 -1.8856
 1016MOL0     H34097   4.082  11.392   0.365  2.1307  1.3060 -2.0919
 1016MOL0     H34098   5.623  11.277   0.373 -0.4947 -0.5783  0.2948
 1016MOL0     H34099   5.855  11.278   0.359 -2.7430 -1.8158 -0.9042
 1016MOL0     H34100   6.244  11.462   0.598  0.5232 -0.4447  0.0758
 1016MOL0     H34101   6.485  11.497   0.589  1.2415 -0.0643 -0.9281
 1016MOL0     H34102   6.741  11.168   0.472  1.5698  1.3665 -0.9901
 1016MOL0     H34103   6.742  11.133   0.650 -2.7161  3.3264  3.4067
 1016MOL0     H34104   6.908  11.352   0.537 -1.5774  2.5001  2.6274
 1016MOL0     H34105   6.920  11.310   0.698  1.1287  1.4297 -1.3619
 1016MOL0     H34106   6.999  11.078   0.630  1.1544 -0.5214 -0.7241
 1016MOL0     H34107   7.106  11.210   0.599 -0.6116 -0.1657  0.7062
 1016MOL0     H34108   7.132  11.090   0.404  0.6980  0.9355 -1.4259
 1016MOL0     H34109   6.962  11.069   0.382  0.9273 -1.4953  0.7796
 1016MOL0     H34110   7.028  11.440   0.195 -3.2764 -0.0822  0.3813
 1016MOL0     H34111   6.531  11.072   0.510  0.4873  0.0595  0.8546
 1016MOL0     H34112   6.309  11.053   0.486  2.8271  0.3942  0.2572
 1017MOL0     O34113  10.776   7.008   9.691  0.1180  0.4765 -0.1121
 1017MOL0     C34114  10.741   7.036   9.803 -0.2245 -0.3138 -0.5202
 1017MOL0     O34115  10.822   7.087   9.910  0.1156 -0.5875 -0.1206
 1017MOL0     C34116  10.952   7.127   9.891  0.7046  0.1392  0.5179
 1017MOL0     C34117  11.007   7.188   9.772 -0.3941 -0.1912 -0.6689
 1017MOL0     C34118  11.143   7.220   9.768 -0.3261 -0.6170 -0.2945
 1017MOL0     C34119  11.227   7.197   9.881  0.1411 -0.0818  0.5061
 1017MOL0     O34120  11.356   7.242   9.890 -0.7963 -0.2414 -0.7195
 1017MOL0     C34121  11.439   7.279   9.773  0.3090 -0.0468  0.2332
 1017MOL0     C34122  11.582   7.238   9.807 -0.3554 -0.5644  1.0305
 1017MOL0     C34123  11.669   7.261   9.678 -0.1313 -0.0514 -0.4400
 1017MOL0     C34124  11.812   7.222   9.700 -0.4775 -0.7988 -0.7707
 1017MOL0     C34125  11.886   7.306   9.809  0.0438  0.7134 -0.2190
 1017MOL0     C34126  12.027   7.266   9.823  0.8099  0.3760  0.4514
 1017MOL0     C34127  12.124   7.286   9.696  0.0307  0.5516  0.1859
 1017MOL0     C34128  12.138   7.440   9.647  0.5635  0.5348  0.3286
 1017MOL0     N34129  12.274   7.454   9.588 -0.3648  0.9035  0.4062
 1017MOL0     C34130  12.317   7.441   9.455 -0.3273 -0.1981 -0.0843
 1017MOL0     C34131  12.454   7.457   9.453  0.1627  0.5079  0.3307
 1017MOL0     C34132  12.555   7.456   9.337  0.6234 -0.1925 -0.7522
 1017MOL0     C34133  12.491   7.527   9.213 -0.5291  0.1829 -0.1879
 1017MOL0     C34134  12.427   7.432   9.107 -0.2385 -0.1783 -0.0808
 1017MOL0     C34135  12.385   7.513   8.980 -0.1606  0.1340  0.1992
 1017MOL0     O34136  12.321   7.638   9.023 -0.0046  0.9997 -0.9506
 1017MOL0     C34137  12.199   7.609   9.083  0.0453 -0.1398 -0.5483
 1017MOL0     C34138  12.154   7.713   9.168  0.5454  0.4944  0.1928
 1017MOL0     C34139  12.038   7.699   9.241 -0.0156 -0.6223 -0.9261
 1017MOL0     C34140  11.952   7.591   9.229 -0.8049 -0.2229  0.2948
 1017MOL0     C34141  11.831   7.579   9.314 -0.0917  0.6989  0.1066
 1017MOL0     O34142  11.728   7.514   9.269 -0.6415  0.2207  0.1321
 1017MOL0     C34143  11.616   7.515   9.342  0.4890 -0.3560 -0.4577
 1017MOL0     C34144  11.561   7.620   9.424  0.3480  0.0001  0.1064
 1017MOL0     C34145  11.435   7.608   9.486 -0.2131  0.1965 -0.4992
 1017MOL0     C34146  11.365   7.488   9.479 -0.3250  0.4791 -0.1749
 1017MOL0     O34147  11.244   7.477   9.539 -0.0393  0.2041 -0.2058
 1017MOL0     C34148  11.161   7.597   9.528 -0.0729 -1.1076 -0.4902
 1017MOL0     C34149  11.015   7.560   9.567 -0.1312 -0.1142  0.3151
 1017MOL0     C34150  10.905   7.659   9.528  0.0698  0.3966  0.9997
 1017MOL0     C34151  10.764   7.604   9.561  0.8885 -0.0183  0.2569
 1017MOL0     C34152  10.645   7.701   9.526  0.4244 -0.3245 -0.3584
 1017MOL0     C34153  10.640   7.732   9.377  0.1065  0.9009 -0.8290
 1017MOL0     C34154  10.498   7.779   9.335 -0.6216  0.1423  0.5987
 1017MOL0     C34155  10.388   7.678   9.345  1.3173  0.6470 -0.3441
 1017MOL0    Cl34156  10.233   7.728   9.256  0.1172  0.3826  0.0237
 1017MOL0     C34157  11.420   7.381   9.404  0.0789 -0.3322  0.7947
 1017MOL0     C34158  11.543   7.400   9.333 -0.3522 -0.0343  0.1947
 1017MOL0     O34159  11.843   7.634   9.421 -0.2775 -0.1481 -0.1988
 1017MOL0     C34160  11.982   7.495   9.131  0.0998  0.1043 -1.0938
 1017MOL0     C34161  12.109   7.501   9.056  0.5770  0.4345 -0.1076
 1017MOL0     N34162  12.495   7.476   9.583  0.4461  0.0340 -0.1912
 1017MOL0     N34163  12.391   7.458   9.660  1.1118  0.6411  0.4426
 1017MOL0     C34164  11.172   7.124   9.990 -0.0213 -0.2011 -0.5366
 1017MOL0     C34165  11.037   7.098   9.997 -0.5394 -0.3967 -0.2290
 1017MOL0     C34166  10.600   7.017   9.837 -0.2810  0.5685 -0.6887
 1017MOL0     C34167  10.556   7.020   9.971 -0.6898  0.1877  0.7226
 1017MOL0     C34168  10.444   6.954  10.012 -0.0763 -0.5743  0.2048
 1017MOL0     C34169  10.357   6.914   9.909  0.1528  0.1962 -0.0365
 1017MOL0     O34170  10.244   6.843   9.948  0.4030 -0.3965 -0.3328
 1017MOL0     C34171  10.184   6.858  10.081 -0.3184 -0.1084  0.1370
 1017MOL0     C34172  10.048   6.785  10.081  0.5928 -0.3665  0.0276
 1017MOL0     C34173   9.950   6.857   9.991  0.2783  0.3576  0.3572
 1017MOL0     C34174   9.822   6.775   9.969 -0.0153 -1.0021  0.0721
 1017MOL0     C34175   9.727   6.771  10.081  0.3420 -0.8095  0.1025
 1017MOL0     C34176   9.667   6.757  10.187 -0.2536 -0.2923  0.2490
 1017MOL0     C34177  10.385   6.930   9.779  0.0730 -0.0720  0.6794
 1017MOL0     C34178  10.508   6.988   9.735  0.7311  0.1403 -0.2971
 1017MOL0     H34179  10.935   7.216   9.695 -0.7411 -1.3834 -0.8017
 1017MOL0     H34180  11.188   7.276   9.687  1.0371  2.6917  2.4869
 1017MOL0     H34181  11.430   7.386   9.752 -0.7265 -0.7053 -3.2261
 1017MOL0     H34182  11.394   7.230   9.686 -1.7006 -0.2498  1.3293
 1017MOL0     H34183  11.586   7.134   9.838  1.0450 -0.3052  1.7914
 1017MOL0     H34184  11.615   7.299   9.891  0.1554  0.9149 -0.1919
 1017MOL0     H34185  11.659   7.362   9.637 -2.0131  0.5919  1.4659
 1017MOL0     H34186  11.631   7.191   9.603 -0.9689 -0.5874  0.4692
 1017MOL0     H34187  11.816   7.117   9.729 -1.1835 -0.0958  2.2285
 1017MOL0     H34188  11.870   7.226   9.607  1.4598 -3.7558  0.1718
 1017MOL0     H34189  11.835   7.292   9.905 -3.4414  5.3086 -1.0319
 1017MOL0     H34190  11.876   7.415   9.798 -0.8706  0.7001  0.3313
 1017MOL0     H34191  12.029   7.160   9.848  1.3395  0.1134 -0.6433
 1017MOL0     H34192  12.075   7.323   9.904  1.4993  0.3263  0.0824
 1017MOL0     H34193  12.227   7.253   9.714  0.1178 -0.9051 -2.4528
 1017MOL0     H34194  12.095   7.234   9.604 -2.0181  0.7679  0.6688
 1017MOL0     H34195  12.120   7.513   9.726 -0.0392  2.8956 -1.8492
 1017MOL0     H34196  12.073   7.473   9.566  1.5490 -3.4669 -2.3569
 1017MOL0     H34197  12.253   7.425   9.369 -0.2624  0.3726 -0.2405
 1017MOL0     H34198  12.591   7.356   9.314 -0.0408  0.0853 -3.2943
 1017MOL0     H34199  12.637   7.521   9.369  0.3886  0.3052 -1.1441
 1017MOL0     H34200  12.570   7.581   9.160 -2.1467  2.7627 -0.1276
 1017MOL0     H34201  12.431   7.612   9.246  1.4006  1.2851  0.6466
 1017MOL0     H34202  12.503   7.356   9.089  1.4359  0.6891  2.6904
 1017MOL0     H34203  12.338   7.383   9.147 -0.4884  1.6521  1.8250
 1017MOL0     H34204  12.319   7.459   8.912  0.3424  2.2885 -2.1430
 1017MOL0     H34205  12.469   7.543   8.916 -1.9397 -0.6197 -2.6155
 1017MOL0     H34206  12.222   7.797   9.181  0.4222  0.6074  0.1070
 1017MOL0     H34207  12.009   7.783   9.304  0.7729 -0.3873 -0.8569
 1017MOL0     H34208  11.613   7.715   9.433 -0.1799  0.5566 -2.1082
 1017MOL0     H34209  11.399   7.698   9.535 -1.0916  0.7701 -2.0944
 1017MOL0     H34210  11.168   7.640   9.428  2.3081 -1.1854 -0.4171
 1017MOL0     H34211  11.194   7.677   9.596  5.2020 -3.6423  0.4276
 1017MOL0     H34212  11.001   7.540   9.673 -0.2813 -4.9788 -0.4058
 1017MOL0     H34213  10.991   7.475   9.502 -1.2830  1.5822 -1.6402
 1017MOL0     H34214  10.899   7.663   9.419  2.3240  0.2628  0.8328
 1017MOL0     H34215  10.931   7.759   9.564  0.5006 -0.0168  1.8908
 1017MOL0     H34216  10.742   7.510   9.511 -1.1397 -0.1150  1.1835
 1017MOL0     H34217  10.760   7.564   9.663 -0.6778  0.7110  0.5166
 1017MOL0     H34218  10.649   7.793   9.584  0.8015 -0.1225 -0.6972
 1017MOL0     H34219  10.559   7.643   9.560  0.6231 -0.0667  0.6051
 1017MOL0     H34220  10.658   7.635   9.330 -0.2753  0.0521  0.7348
 1017MOL0     H34221  10.708   7.808   9.338  0.9768  0.3040 -0.4980
 1017MOL0     H34222  10.471   7.872   9.387  1.5445 -0.5581  3.1877
 1017MOL0     H34223  10.493   7.797   9.227 -0.6826 -0.9522  0.4095
 1017MOL0     H34224  10.349   7.669   9.447  1.9096 -1.6891 -0.2511
 1017MOL0     H34225  10.428   7.584   9.306 -0.7151  0.3537 -1.8891
 1017MOL0     H34226  11.366   7.287   9.406 -0.0209 -0.2621  2.0233
 1017MOL0     H34227  11.586   7.316   9.280 -0.7619  0.1727 -0.4760
 1017MOL0     H34228  11.916   7.413   9.108 -1.0450  0.8633 -0.5924
 1017MOL0     H34229  12.119   7.434   8.971 -1.4158  0.1798 -0.1976
 1017MOL0     H34230  11.233   7.085  10.071 -0.9648 -0.2579  0.1612
 1017MOL0     H34231  11.011   7.049  10.090  2.3225  1.2735  1.6034
 1017MOL0     H34232  10.628   7.045  10.048  1.3819 -2.8013 -0.0277
 1017MOL0     H34233  10.423   6.952  10.119 -4.6472 -0.8536 -0.5145
 1017MOL0     H34234  10.170   6.964  10.103 -1.5097 -0.0085 -0.9528
 1017MOL0     H34235  10.256   6.808  10.146  0.4657 -1.2427 -1.5315
 1017MOL0     H34236  10.059   6.681  10.051  1.8518  0.1719 -1.5112
 1017MOL0     H34237  10.001   6.791  10.180 -2.0537  1.3376 -1.2272
 1017MOL0     H34238  10.005   6.863   9.897 -2.0550 -1.1041 -1.2006
 1017MOL0     H34239   9.931   6.958  10.031  2.7920  1.0607 -0.0456
 1017MOL0     H34240   9.769   6.809   9.880  0.0937 -0.2503  0.2886
 1017MOL0     H34241   9.850   6.671   9.949  2.1294 -0.4862  0.1928
 1017MOL0     H34242   9.623   6.739  10.283 -1.0244  0.2955  0.0153
 1017MOL0     H34243  10.315   6.892   9.706 -0.9008  0.9545  1.0517
 1017MOL0     H34244  10.537   6.993   9.630  0.8507 -0.0642 -0.2738
 1018MOL0     O34245   7.475   2.688   2.442  0.3814  0.5397 -0.9870
 1018MOL0     C34246   7.595   2.712   2.469  1.5621  0.8033  0.0236
 1018MOL0     O34247   7.628   2.784   2.583 -0.0123  0.3544  0.0123
 1018MOL0     C34248   7.523   2.807   2.674 -0.2220 -0.6618  0.1438
 1018MOL0     C34249   7.494   2.712   2.763  0.1202  1.1206  0.9845
 1018MOL0     C34250   7.381   2.714   2.839  0.0362  0.2484  0.7551
 1018MOL0     C34251   7.292   2.822   2.833 -0.2024  0.4678 -0.7620
 1018MOL0     O34252   7.176   2.840   2.915  0.3108  0.7841  0.5824
 1018MOL0     C34253   7.167   2.772   3.043 -0.5124  0.9884  0.7912
 1018MOL0     C34254   7.182   2.873   3.160 -0.2992 -0.2564  0.1887
 1018MOL0     C34255   7.048   2.945   3.209 -0.1050  0.7577 -0.8473
 1018MOL0     C34256   6.934   2.850   3.263 -0.8912 -0.2239 -0.5940
 1018MOL0     C34257   6.812   2.926   3.311  0.7483  0.3697  0.0767
 1018MOL0     C34258   6.694   2.840   3.354  0.3648 -0.0599  0.7008
 1018MOL0     C34259   6.575   2.922   3.414  0.0916  0.2859  0.0471
 1018MOL0     C34260   6.451   2.837   3.421 -0.3751 -0.5389 -0.2677
 1018MOL0     N34261   6.329   2.913   3.472 -0.2232  0.3471  0.3980
 1018MOL0     C34262   6.198   2.885   3.425  0.0359  0.0216 -0.3210
 1018MOL0     C34263   6.123   2.948   3.513  0.1646 -0.1168  0.0640
 1018MOL0     C34264   5.977   2.969   3.520  0.2985 -0.0395 -0.3036
 1018MOL0     C34265   5.912   2.873   3.612  0.5771 -0.5674  0.6158
 1018MOL0     C34266   5.759   2.881   3.609  0.5918 -0.1325  0.3446
 1018MOL0     C34267   5.690   2.796   3.500 -0.2038  0.1000 -0.0102
 1018MOL0     O34268   5.722   2.654   3.520 -0.4829 -0.3511 -0.1085
 1018MOL0     C34269   5.684   2.581   3.411 -0.3325  0.6340  0.0001
 1018MOL0     C34270   5.780   2.519   3.329  0.4331 -0.7027 -0.8641
 1018MOL0     C34271   5.738   2.458   3.210  0.3405 -0.3062 -0.2778
 1018MOL0     C34272   5.600   2.431   3.180 -0.8570 -1.0943  0.1056
 1018MOL0     C34273   5.559   2.368   3.056 -0.2865  0.8811 -0.5906
 1018MOL0     O34274   5.420   2.335   3.059 -0.1159 -0.6034  1.1356
 1018MOL0     C34275   5.355   2.249   2.977 -0.1504  0.5521 -0.0186
 1018MOL0     C34276   5.388   2.117   2.963 -0.2510  0.5329 -0.2236
 1018MOL0     C34277   5.319   2.026   2.881  0.7500  0.3909  0.0012
 1018MOL0     C34278   5.203   2.074   2.812 -0.2358  0.3942 -0.1926
 1018MOL0     O34279   5.124   1.986   2.741  0.2180 -0.0551  0.2026
 1018MOL0     C34280   5.085   2.033   2.615 -0.0102 -0.4803 -0.1779
 1018MOL0     C34281   5.032   1.919   2.526  0.1632  0.2678 -0.2316
 1018MOL0     C34282   5.135   1.821   2.488 -0.6701  0.1343  0.3343
 1018MOL0     C34283   5.071   1.680   2.455 -1.3697 -1.0643 -0.2057
 1018MOL0     C34284   5.172   1.567   2.425  0.4182  0.6493 -1.0093
 1018MOL0     C34285   5.237   1.500   2.543 -0.0534  0.3500 -0.4632
 1018MOL0     C34286   5.320   1.372   2.497  0.7955 -0.4747 -0.5445
 1018MOL0     C34287   5.230   1.250   2.468  0.0518  0.6729 -0.2042
 1018MOL0    Cl34288   5.325   1.123   2.381  0.0660  0.2442  0.3437
 1018MOL0     C34289   5.156   2.210   2.832 -0.6275  0.4826  0.5395
 1018MOL0     C34290   5.233   2.285   2.921 -0.1319  0.0724 -0.3265
 1018MOL0     O34291   5.634   2.331   2.974 -0.4494  0.3022 -0.2513
 1018MOL0     C34292   5.506   2.487   3.269  0.8019 -0.3270  0.4837
 1018MOL0     C34293   5.547   2.565   3.377  0.3574  1.3859 -0.4107
 1018MOL0     N34294   6.208   3.008   3.603  0.2839  0.3737  0.1855
 1018MOL0     N34295   6.332   2.981   3.584  0.7867  0.3843  0.1152
 1018MOL0     C34296   7.325   2.922   2.737 -0.4211 -0.8768  0.6110
 1018MOL0     C34297   7.450   2.921   2.667  0.0251 -0.7578 -0.4447
 1018MOL0     C34298   7.696   2.656   2.372 -0.2851  0.5123 -0.6236
 1018MOL0     C34299   7.823   2.707   2.378  0.2434 -0.0295  0.3459
 1018MOL0     C34300   7.907   2.669   2.277  0.3451 -0.5878 -0.3891
 1018MOL0     C34301   7.881   2.572   2.181 -0.0985 -1.0036  0.8028
 1018MOL0     O34302   7.982   2.528   2.099 -0.0171 -0.9534 -0.3051
 1018MOL0     C34303   7.979   2.386   2.083  0.6911 -0.4905  0.2197
 1018MOL0     C34304   8.111   2.345   2.025  0.2631 -0.4048 -0.5008
 1018MOL0     C34305   8.138   2.196   2.023 -0.1842  0.6656 -0.3679
 1018MOL0     C34306   8.273   2.163   1.960  0.1387 -0.8177  0.5112
 1018MOL0     C34307   8.389   2.149   2.052 -0.1503 -0.4155 -0.5186
 1018MOL0     C34308   8.486   2.122   2.124 -0.0858  0.2217 -0.1587
 1018MOL0     C34309   7.748   2.514   2.176 -0.6937 -0.6914 -0.8636
 1018MOL0     C34310   7.661   2.553   2.283 -0.0722  0.7199 -0.0081
 1018MOL0     H34311   7.548   2.618   2.755 -1.8823 -0.0367  0.2804
 1018MOL0     H34312   7.370   2.634   2.912  0.6160  0.3738  0.9851
 1018MOL0     H34313   7.249   2.701   3.059  0.5447  1.9351 -0.2953
 1018MOL0     H34314   7.073   2.716   3.054  1.7377 -3.4665 -0.2786
 1018MOL0     H34315   7.256   2.950   3.136 -1.1776  0.6511  0.3422
 1018MOL0     H34316   7.210   2.808   3.244  0.9896 -3.0773 -2.2369
 1018MOL0     H34317   7.023   3.011   3.126 -2.2348  0.5635 -0.4187
 1018MOL0     H34318   7.078   3.009   3.292 -0.8397 -0.5365  0.4582
 1018MOL0     H34319   6.895   2.790   3.180  0.7038  0.0188 -1.5609
 1018MOL0     H34320   6.978   2.784   3.339 -1.9287 -1.3807 -0.9657
 1018MOL0     H34321   6.778   2.997   3.235  1.6300  1.4347  0.6506
 1018MOL0     H34322   6.835   2.988   3.398  0.1580  0.3714  0.2385
 1018MOL0     H34323   6.720   2.770   3.433 -3.1541 -1.1470  1.0647
 1018MOL0     H34324   6.664   2.785   3.264  1.0370  0.5711  0.0793
 1018MOL0     H34325   6.615   2.962   3.507  1.9584  0.7352 -0.8976
 1018MOL0     H34326   6.558   3.001   3.340  0.0333  0.2576  0.0298
 1018MOL0     H34327   6.467   2.749   3.484  1.7497 -0.6076 -0.8303
 1018MOL0     H34328   6.435   2.801   3.319 -0.4374 -1.7266  0.1448
 1018MOL0     H34329   6.176   2.832   3.334 -0.7101  0.7576 -0.5829
 1018MOL0     H34330   5.939   2.966   3.417  3.0473  1.0334 -1.4534
 1018MOL0     H34331   5.943   3.068   3.553  2.2266 -0.2299  2.5512
 1018MOL0     H34332   5.952   2.897   3.711 -0.4161 -0.7292  1.0701
 1018MOL0     H34333   5.944   2.773   3.583  2.3857 -0.0546  0.6558
 1018MOL0     H34334   5.720   2.845   3.705  1.4981 -1.7408  0.1498
 1018MOL0     H34335   5.735   2.984   3.583  1.0541  0.3605  1.8059
 1018MOL0     H34336   5.720   2.826   3.399  4.5044  3.5415  2.0575
 1018MOL0     H34337   5.582   2.813   3.494 -0.2769 -0.8931 -3.2153
 1018MOL0     H34338   5.879   2.521   3.374 -0.3545 -0.5854  0.9417
 1018MOL0     H34339   5.820   2.439   3.142  1.5652  1.4772  0.6212
 1018MOL0     H34340   5.474   2.075   3.014 -0.5356 -1.3784 -1.2422
 1018MOL0     H34341   5.343   1.920   2.871 -1.1941 -0.0312 -0.4591
 1018MOL0     H34342   5.167   2.085   2.564  0.6706 -0.1868  1.1852
 1018MOL0     H34343   5.003   2.103   2.634  0.3712 -0.6261  2.2405
 1018MOL0     H34344   4.983   1.965   2.439  2.7248  1.8429 -0.9530
 1018MOL0     H34345   4.945   1.867   2.567  0.9282  0.1752  1.3261
 1018MOL0     H34346   5.207   1.805   2.569 -0.9856  0.0076  0.5994
 1018MOL0     H34347   5.187   1.866   2.404 -2.0715 -1.4944 -1.5214
 1018MOL0     H34348   5.003   1.650   2.536 -2.1234 -1.5631 -1.0124
 1018MOL0     H34349   5.023   1.709   2.361  1.5408  1.8124 -0.9909
 1018MOL0     H34350   5.251   1.610   2.362  1.0270 -0.7454 -1.2340
 1018MOL0     H34351   5.102   1.502   2.372  0.3560 -0.9688  0.9299
 1018MOL0     H34352   5.162   1.464   2.614  1.8557  1.0208  2.0545
 1018MOL0     H34353   5.301   1.573   2.595  0.3348 -1.3181  1.5278
 1018MOL0     H34354   5.396   1.399   2.424  3.3936 -0.1105  2.0770
 1018MOL0     H34355   5.374   1.341   2.587  0.2334  2.9812  1.1605
 1018MOL0     H34356   5.139   1.269   2.410 -0.9456 -0.6378  0.8791
 1018MOL0     H34357   5.194   1.220   2.567 -0.1901  3.6578  0.7227
 1018MOL0     H34358   5.067   2.235   2.777 -2.5705 -2.6605  1.9684
 1018MOL0     H34359   5.198   2.384   2.950  0.7581  0.0788  0.8001
 1018MOL0     H34360   5.401   2.467   3.249  0.4445  0.7205  1.2590
 1018MOL0     H34361   5.474   2.603   3.447 -2.1386 -2.9858 -0.2209
 1018MOL0     H34362   7.255   3.005   2.728  0.0633 -0.1373  3.0011
 1018MOL0     H34363   7.484   3.001   2.601 -0.4481  1.7751  2.1596
 1018MOL0     H34364   7.838   2.783   2.454 -1.4337  0.5176  0.1760
 1018MOL0     H34365   8.004   2.715   2.296  0.7176 -1.5288  0.0927
 1018MOL0     H34366   7.902   2.353   2.013 -0.1488 -1.5302  1.5911
 1018MOL0     H34367   7.959   2.336   2.177  1.1876 -1.7317 -0.3179
 1018MOL0     H34368   8.127   2.380   1.922  1.6949 -0.6409 -0.3839
 1018MOL0     H34369   8.192   2.400   2.074 -1.2205  0.8423  0.6685
 1018MOL0     H34370   8.063   2.141   1.966  0.1096 -0.2916  0.1407
 1018MOL0     H34371   8.137   2.148   2.121 -4.1160  0.4360 -0.3840
 1018MOL0     H34372   8.261   2.070   1.903  1.4732  0.2492 -1.6488
 1018MOL0     H34373   8.302   2.232   1.881 -0.9887 -1.5362 -0.5622
 1018MOL0     H34374   8.582   2.110   2.172  0.0518  0.6361 -0.3253
 1018MOL0     H34375   7.715   2.457   2.091  1.3896 -2.4013 -0.5784
 1018MOL0     H34376   7.563   2.506   2.290  1.6805 -3.2891 -0.0078
 1019MOL0     O34377   1.896   8.627  10.066 -0.0958  0.2196 -0.8663
 1019MOL0     C34378   1.892   8.748  10.044 -0.3907 -0.3128  0.2964
 1019MOL0     O34379   1.788   8.825  10.075  0.6686  0.1329  0.0454
 1019MOL0     C34380   1.664   8.786  10.127  0.5084 -0.7089 -0.0088
 1019MOL0     C34381   1.566   8.889  10.123  0.4055 -1.0537  0.2790
 1019MOL0     C34382   1.441   8.865  10.172  0.1585  0.0357  0.0320
 1019MOL0     C34383   1.407   8.748  10.235  0.0855  1.4003 -0.0576
 1019MOL0     O34384   1.279   8.719  10.269 -0.2971  0.0437  0.3858
 1019MOL0     C34385   1.232   8.679  10.394 -0.2319  0.4123 -0.6141
 1019MOL0     C34386   1.092   8.690  10.395  0.2350 -0.1119 -0.5138
 1019MOL0     C34387   1.033   8.716  10.539  0.1336  0.2707  0.0318
 1019MOL0     C34388   0.894   8.653  10.535 -0.7261  0.1460  1.4550
 1019MOL0     C34389   0.843   8.621  10.677 -0.0704 -0.2417 -0.2726
 1019MOL0     C34390   0.844   8.738  10.768  0.2698 -0.3396 -1.1298
 1019MOL0     C34391   0.812   8.708  10.913 -0.0486 -0.0104 -0.3917
 1019MOL0     C34392   0.796   8.838  11.003 -0.0825  0.0068  0.7061
 1019MOL0     N34393   0.661   8.862  11.048 -0.0148 -0.6169 -0.4175
 1019MOL0     C34394   0.549   8.870  10.966  1.3517  1.0155 -0.7504
 1019MOL0     C34395   0.448   8.874  11.051 -0.9452  0.1232  0.8391
 1019MOL0     C34396   0.308   8.882  11.022 -0.0148 -0.4410 -0.1369
 1019MOL0     C34397   0.248   8.744  11.025 -0.2224  0.0970 -0.6343
 1019MOL0     C34398   0.097   8.734  11.004 -0.0828 -0.5441 -0.3481
 1019MOL0     C34399   0.020   8.804  11.115 -0.2529 -0.0412  1.6399
 1019MOL0     O34400  -0.118   8.789  11.087  0.0090 -0.1752 -0.1543
 1019MOL0     C34401  -0.210   8.865  11.153  0.2531  0.0333  0.5590
 1019MOL0     C34402  -0.346   8.845  11.113 -0.4954  1.2667 -0.1996
 1019MOL0     C34403  -0.448   8.923  11.175 -0.6417 -0.9921  0.3930
 1019MOL0     C34404  -0.423   9.024  11.264 -1.0390  0.7700 -0.1899
 1019MOL0     C34405  -0.523   9.124  11.306  0.2481 -0.2465 -0.9131
 1019MOL0     O34406  -0.643   9.122  11.244 -0.3149 -0.3720 -0.5538
 1019MOL0     C34407  -0.759   9.179  11.289 -0.4666 -0.7538  1.7205
 1019MOL0     C34408  -0.791   9.197  11.423  0.4352  0.6005  0.4542
 1019MOL0     C34409  -0.908   9.260  11.468  0.1647 -0.0903 -0.4505
 1019MOL0     C34410  -1.002   9.297  11.371  0.4624 -0.1671 -0.1401
 1019MOL0     O34411  -1.117   9.343  11.430 -0.4302  0.0176  0.2959
 1019MOL0     C34412  -1.207   9.418  11.349  0.3226  0.1308  0.0468
 1019MOL0     C34413  -1.308   9.495  11.434 -0.1256 -0.4614  0.4748
 1019MOL0     C34414  -1.379   9.616  11.366 -0.0727 -0.1843  0.2443
 1019MOL0     C34415  -1.502   9.652  11.442 -0.0053  0.0410  0.5336
 1019MOL0     C34416  -1.593   9.737  11.364  0.0086  0.1270 -0.4830
 1019MOL0     C34417  -1.707   9.788  11.447 -0.3227 -0.5735 -0.0910
 1019MOL0     C34418  -1.823   9.828  11.355 -0.8845 -0.4274 -0.3166
 1019MOL0     C34419  -1.934   9.877  11.454 -0.1642 -0.5053  0.1328
 1019MOL0    Cl34420  -2.074   9.925  11.346  0.2863 -0.1209  0.3260
 1019MOL0     C34421  -0.969   9.297  11.239 -0.1630  0.0561  0.2452
 1019MOL0     C34422  -0.849   9.226  11.196  0.0687  0.7435  0.4118
 1019MOL0     O34423  -0.490   9.209  11.384  0.2526 -0.0227  0.2414
 1019MOL0     C34424  -0.290   9.045  11.292 -0.1188 -0.3751  0.3633
 1019MOL0     C34425  -0.185   8.972  11.241 -0.9184  0.8989 -0.3400
 1019MOL0     N34426   0.501   8.875  11.185  0.6996 -0.7406  0.0169
 1019MOL0     N34427   0.629   8.874  11.175 -0.2981 -0.0878 -0.2130
 1019MOL0     C34428   1.505   8.650  10.244 -1.0456  0.8151 -0.3547
 1019MOL0     C34429   1.640   8.668  10.195  0.5620 -0.0016 -0.0192
 1019MOL0     C34430   2.013   8.826  10.008  0.5038 -0.1432 -0.4961
 1019MOL0     C34431   2.116   8.756   9.945  0.1357  0.2783  0.0603
 1019MOL0     C34432   2.223   8.823   9.897 -1.0125 -0.1870 -0.1851
 1019MOL0     C34433   2.233   8.968   9.891 -0.0365 -0.3449  0.1971
 1019MOL0     O34434   2.347   9.029   9.845  0.0404  0.1595  0.1750
 1019MOL0     C34435   2.458   8.947   9.816 -0.2158 -0.2651 -0.6172
 1019MOL0     C34436   2.575   9.040   9.785  1.1207 -0.5685  0.4112
 1019MOL0     C34437   2.717   8.983   9.780  0.2909 -0.2559 -0.5319
 1019MOL0     C34438   2.782   8.921   9.905  0.3389  0.5952 -0.2870
 1019MOL0     C34439   2.762   8.990  10.030  0.2679 -0.9417 -0.4205
 1019MOL0     C34440   2.746   9.045  10.136 -0.5202  0.4191  0.1677
 1019MOL0     C34441   2.124   9.039   9.956 -0.3200  0.2486  0.2449
 1019MOL0     C34442   2.020   8.969  10.010 -0.4386 -0.0542  0.2747
 1019MOL0     H34443   1.591   8.983  10.073 -0.2005  0.8189  3.2490
 1019MOL0     H34444   1.356   8.931  10.156 -1.2490 -1.2534  1.8050
 1019MOL0     H34445   1.275   8.748  10.467  0.7099  0.0834 -0.8363
 1019MOL0     H34446   1.276   8.581  10.416  1.0166  1.1812  0.4090
 1019MOL0     H34447   1.059   8.592  10.360 -3.0052  0.4518  0.5874
 1019MOL0     H34448   1.048   8.763  10.327 -1.8064 -0.5009  0.3087
 1019MOL0     H34449   1.029   8.824  10.557  1.0162  0.3203 -0.0021
 1019MOL0     H34450   1.087   8.653  10.610  1.8128  2.2441  0.5976
 1019MOL0     H34451   0.826   8.720  10.482 -1.6685 -2.7590 -1.3970
 1019MOL0     H34452   0.888   8.554  10.488  1.5770  0.0104  1.3170
 1019MOL0     H34453   0.912   8.545  10.714 -0.7719 -1.9428 -2.2614
 1019MOL0     H34454   0.744   8.574  10.676  0.2522 -0.9365 -0.5432
 1019MOL0     H34455   0.777   8.817  10.734  0.8424 -0.1560 -1.8528
 1019MOL0     H34456   0.942   8.786  10.776 -1.7540  3.9936  0.8180
 1019MOL0     H34457   0.719   8.650  10.905 -0.3398  0.2926  0.5928
 1019MOL0     H34458   0.894   8.653  10.961 -0.6633 -0.3922  0.2437
 1019MOL0     H34459   0.832   8.920  10.940 -1.1684 -1.1603 -1.5524
 1019MOL0     H34460   0.855   8.830  11.094  0.1743 -1.9063  0.3979
 1019MOL0     H34461   0.544   8.873  10.857 -0.4213 -0.0705 -0.7514
 1019MOL0     H34462   0.303   8.920  10.920  0.9162 -3.3264 -1.3609
 1019MOL0     H34463   0.262   8.947  11.097  1.7064  2.9341 -1.7692
 1019MOL0     H34464   0.278   8.705  11.123  1.0901  1.8733 -0.2859
 1019MOL0     H34465   0.297   8.683  10.949 -1.0710  0.0970 -1.1960
 1019MOL0     H34466   0.067   8.782  10.911 -2.5334 -1.1096  0.0844
 1019MOL0     H34467   0.071   8.628  10.997  2.1273 -1.3409  1.7782
 1019MOL0     H34468   0.036   8.912  11.102 -1.1010 -0.2608 -2.1809
 1019MOL0     H34469   0.043   8.781  11.220 -2.8209 -3.0891  1.6919
 1019MOL0     H34470  -0.375   8.759  11.054  0.2802 -0.1389  1.3881
 1019MOL0     H34471  -0.552   8.900  11.153 -1.2513  1.1528  0.7336
 1019MOL0     H34472  -0.721   9.172  11.502 -0.3661  1.2003  1.3622
 1019MOL0     H34473  -0.924   9.275  11.574  2.3370 -0.9216  0.0313
 1019MOL0     H34474  -1.252   9.353  11.273  1.2158  2.1898 -2.3728
 1019MOL0     H34475  -1.155   9.497  11.295  1.3659 -0.5420  0.0394
 1019MOL0     H34476  -1.263   9.539  11.523  1.9854 -0.6813 -0.4240
 1019MOL0     H34477  -1.374   9.413  11.464 -1.2881  1.2108  2.7609
 1019MOL0     H34478  -1.403   9.587  11.263  1.1786  0.2483 -0.1936
 1019MOL0     H34479  -1.306   9.698  11.363  0.8153 -0.7727  3.0333
 1019MOL0     H34480  -1.557   9.564  11.476 -2.6055  0.5550 -1.9541
 1019MOL0     H34481  -1.472   9.702  11.535 -0.3384  1.7857 -0.2495
 1019MOL0     H34482  -1.628   9.676  11.280 -2.1495  0.7927 -0.1394
 1019MOL0     H34483  -1.542   9.823  11.322 -1.7068  1.6652  0.4516
 1019MOL0     H34484  -1.673   9.872  11.509  0.3554 -0.2081 -0.9388
 1019MOL0     H34485  -1.730   9.705  11.514  0.5056 -0.2986  0.5459
 1019MOL0     H34486  -1.795   9.907  11.284 -0.1275 -0.9883 -0.6510
 1019MOL0     H34487  -1.861   9.736  11.309  0.1825 -1.0932  0.1021
 1019MOL0     H34488  -1.903   9.968  11.507  2.8721 -0.9323 -0.7162
 1019MOL0     H34489  -1.960   9.794  11.519  2.2456 -1.0346  0.5126
 1019MOL0     H34490  -1.026   9.348  11.162  2.1612 -0.9546 -2.3077
 1019MOL0     H34491  -0.823   9.229  11.091  1.4650 -0.0954  0.7028
 1019MOL0     H34492  -0.254   9.130  11.349 -1.9509  1.2542 -0.7361
 1019MOL0     H34493  -0.082   9.001  11.260 -0.1514 -1.9908  0.5570
 1019MOL0     H34494   1.476   8.563  10.301 -2.2807  1.8623  0.6795
 1019MOL0     H34495   1.716   8.592  10.213  1.8427  0.8781 -1.4783
 1019MOL0     H34496   2.107   8.651   9.922  0.0751  0.1004  0.8705
 1019MOL0     H34497   2.305   8.758   9.869  0.4835  1.6776 -0.3728
 1019MOL0     H34498   2.443   8.882   9.729 -1.3681 -1.8537  0.6956
 1019MOL0     H34499   2.499   8.893   9.902 -0.1778  0.9625  0.1664
 1019MOL0     H34500   2.559   9.079   9.684  1.6110 -1.2763  0.0609
 1019MOL0     H34501   2.565   9.130   9.847 -0.2681 -2.7604  3.6597
 1019MOL0     H34502   2.791   9.061   9.763  0.7557 -0.9628 -1.8206
 1019MOL0     H34503   2.729   8.915   9.696 -3.6986 -2.2016  0.2147
 1019MOL0     H34504   2.722   8.830   9.918  2.2721 -0.3669  3.3781
 1019MOL0     H34505   2.887   8.903   9.880  0.9326  2.5017  0.6342
 1019MOL0     H34506   2.733   9.091  10.232  0.4273 -1.1198  1.0834
 1019MOL0     H34507   2.136   9.147   9.961 -1.9535  0.3978  2.3665
 1019MOL0     H34508   1.942   9.032  10.050 -0.4486 -0.7023  1.3249
 1020MOL0     O34509   7.361   2.073   6.951  0.1258  1.0250 -0.7170
 1020MOL0     C34510   7.375   1.950   6.955  0.7203  0.4634  0.9809
 1020MOL0     O34511   7.282   1.856   6.931  0.0711  0.3936  0.0366
 1020MOL0     C34512   7.159   1.907   6.931  0.1572 -0.4688  0.9124
 1020MOL0     C34513   7.075   1.874   7.041  0.6872  0.2022  0.0390
 1020MOL0     C34514   6.943   1.922   7.043  0.1542  0.0916 -0.9344
 1020MOL0     C34515   6.891   1.995   6.934 -0.4454 -0.5871  0.1997
 1020MOL0     O34516   6.761   2.033   6.928 -0.0421  0.2316  0.0001
 1020MOL0     C34517   6.665   1.963   7.011  1.3153  0.2964 -0.3887
 1020MOL0     C34518   6.534   2.043   6.987  0.6866  0.6129  0.8169
 1020MOL0     C34519   6.541   2.186   7.044 -0.4748  0.2317  0.7184
 1020MOL0     C34520   6.448   2.278   6.969  0.1193 -0.7146 -0.4839
 1020MOL0     C34521   6.301   2.268   7.002  0.2888 -0.3839 -0.1517
 1020MOL0     C34522   6.274   2.313   7.144  0.7712 -0.3020 -0.6660
 1020MOL0     C34523   6.129   2.291   7.196 -0.5047 -0.0961  1.2550
 1020MOL0     C34524   6.112   2.313   7.347  0.1121 -0.1954 -0.0994
 1020MOL0     N34525   5.973   2.340   7.392  0.1862  0.3698  0.5243
 1020MOL0     C34526   5.931   2.462   7.446  0.1066 -0.0514 -0.3605
 1020MOL0     C34527   5.799   2.438   7.477  0.1530  0.8585 -0.0147
 1020MOL0     C34528   5.710   2.537   7.541 -0.5094  0.5748  0.5526
 1020MOL0     C34529   5.776   2.589   7.670  0.8984  0.5297  0.1775
 1020MOL0     C34530   5.711   2.708   7.738  0.2543  1.0163 -0.4035
 1020MOL0     C34531   5.574   2.663   7.801 -0.7249  0.3682  1.0338
 1020MOL0     O34532   5.610   2.557   7.890  0.6228  0.0732 -0.4319
 1020MOL0     C34533   5.508   2.473   7.932  0.6656 -0.6938 -0.1546
 1020MOL0     C34534   5.541   2.374   8.030 -0.0120 -0.0770 -0.0646
 1020MOL0     C34535   5.437   2.288   8.079  0.9235  0.4761 -0.1740
 1020MOL0     C34536   5.301   2.304   8.046  0.3552  0.4231  0.1709
 1020MOL0     C34537   5.204   2.217   8.102  0.5510  0.6109 -0.5902
 1020MOL0     O34538   5.232   2.105   8.179 -0.5522 -0.5996 -0.2529
 1020MOL0     C34539   5.133   2.022   8.229 -0.4550  0.2648 -0.8328
 1020MOL0     C34540   5.124   1.885   8.211  0.8328  0.1772  0.4641
 1020MOL0     C34541   5.011   1.807   8.272  0.4788 -0.8163  0.5290
 1020MOL0     C34542   4.913   1.883   8.344 -0.3073 -0.9381 -0.4246
 1020MOL0     O34543   4.807   1.825   8.409  0.0016 -0.3415  0.0475
 1020MOL0     C34544   4.817   1.685   8.445 -0.3294  0.2335 -0.1449
 1020MOL0     C34545   4.700   1.656   8.548  0.8088  0.7998  0.5178
 1020MOL0     C34546   4.562   1.673   8.479 -0.2783 -0.3644 -0.1961
 1020MOL0     C34547   4.451   1.629   8.575  0.5244 -0.8480 -0.0773
 1020MOL0     C34548   4.309   1.665   8.530 -0.2143 -0.4733 -0.4931
 1020MOL0     C34549   4.231   1.531   8.558 -0.6769 -1.1279  0.8047
 1020MOL0     C34550   4.093   1.520   8.506 -0.1633 -0.2173 -0.1253
 1020MOL0     C34551   4.026   1.379   8.524 -0.5051  0.2041 -0.5611
 1020MOL0    Cl34552   3.851   1.387   8.470 -0.3486  0.3986 -0.9998
 1020MOL0     C34553   4.933   2.018   8.365 -0.7739  0.8781 -0.2389
 1020MOL0     C34554   5.043   2.081   8.312 -0.5142  0.4061 -0.9767
 1020MOL0     O34555   5.090   2.261   8.086 -0.2337  0.1841  0.6087
 1020MOL0     C34556   5.279   2.411   7.954  1.0004  0.0960 -0.2840
 1020MOL0     C34557   5.375   2.497   7.908 -0.5058  0.1261  0.9549
 1020MOL0     N34558   5.772   2.309   7.426  0.0067  0.4182 -0.0058
 1020MOL0     N34559   5.878   2.246   7.387  0.2627 -0.7884  0.3503
 1020MOL0     C34560   6.977   2.027   6.828  1.0305  0.3571  0.3415
 1020MOL0     C34561   7.105   1.981   6.826  0.0908 -0.0275  0.1873
 1020MOL0     C34562   7.516   1.911   6.964 -0.1826 -0.5875  0.4598
 1020MOL0     C34563   7.612   1.999   7.016  0.2495 -0.0831 -0.1907
 1020MOL0     C34564   7.743   1.966   7.011  0.4020  1.2900  0.4336
 1020MOL0     C34565   7.786   1.840   6.965  0.1896 -0.5455  1.5051
 1020MOL0     O34566   7.923   1.815   6.956 -0.3821  0.1774  0.7953
 1020MOL0     C34567   7.961   1.714   6.865 -0.7431  0.5041  0.0456
 1020MOL0     C34568   8.117   1.740   6.832 -1.0366  0.1929 -0.3343
 1020MOL0     C34569   8.127   1.873   6.755  0.1993  0.5321  0.1694
 1020MOL0     C34570   8.259   1.884   6.675  0.7988  0.7993 -0.3368
 1020MOL0     C34571   8.359   1.922   6.779 -1.0757  0.0989 -0.3221
 1020MOL0     C34572   8.436   1.944   6.868 -0.5356 -0.4282 -0.2941
 1020MOL0     C34573   7.689   1.751   6.936 -0.7453  0.7128  0.9346
 1020MOL0     C34574   7.554   1.783   6.927 -0.0594  0.9942 -0.1770
 1020MOL0     H34575   7.109   1.819   7.129 -1.7245 -0.0666  0.8966
 1020MOL0     H34576   6.890   1.906   7.136  0.4671 -1.4151 -0.9878
 1020MOL0     H34577   6.680   1.965   7.119  2.9283  2.0919 -0.5914
 1020MOL0     H34578   6.659   1.858   6.981  1.1776  0.8108 -2.2836
 1020MOL0     H34579   6.451   1.986   7.032 -0.9238  0.9513 -1.5178
 1020MOL0     H34580   6.519   2.049   6.878  2.3525  2.8423  0.6568
 1020MOL0     H34581   6.642   2.225   7.036 -1.0279  2.0586  2.0949
 1020MOL0     H34582   6.528   2.188   7.153  3.3594  0.7883  1.2899
 1020MOL0     H34583   6.477   2.381   6.992  0.6075 -0.8747 -0.3735
 1020MOL0     H34584   6.462   2.255   6.863  1.8506 -2.5799  0.0863
 1020MOL0     H34585   6.260   2.168   6.991 -0.5271 -0.0106 -0.6254
 1020MOL0     H34586   6.243   2.314   6.921 -2.6210 -3.4023  0.0372
 1020MOL0     H34587   6.296   2.417   7.167 -1.9652  0.1989  0.1258
 1020MOL0     H34588   6.338   2.254   7.210 -1.2170 -0.9533  0.7747
 1020MOL0     H34589   6.080   2.369   7.138 -0.4472 -1.3318 -0.5333
 1020MOL0     H34590   6.082   2.198   7.163  1.3711 -0.4186 -0.6611
 1020MOL0     H34591   6.175   2.395   7.382 -1.8835  2.1496 -1.6867
 1020MOL0     H34592   6.146   2.230   7.411 -0.2336  0.4741  0.9875
 1020MOL0     H34593   5.987   2.553   7.468 -1.3449  0.6866  0.4716
 1020MOL0     H34594   5.619   2.480   7.563  0.6105 -0.8677  1.7013
 1020MOL0     H34595   5.699   2.623   7.475 -0.4882 -1.7066 -2.6467
 1020MOL0     H34596   5.875   2.630   7.648  0.4385  0.0821 -3.2614
 1020MOL0     H34597   5.789   2.501   7.733 -1.2190 -1.9162 -2.5466
 1020MOL0     H34598   5.774   2.748   7.818 -0.9234  1.3665  0.3665
 1020MOL0     H34599   5.695   2.790   7.667 -0.4055  2.0025  0.8534
 1020MOL0     H34600   5.507   2.624   7.724  0.5368  0.9531 -0.4192
 1020MOL0     H34601   5.537   2.751   7.855  1.2688  1.9576 -0.0547
 1020MOL0     H34602   5.643   2.343   8.049 -0.9201 -5.1557 -1.6524
 1020MOL0     H34603   5.463   2.218   8.158 -0.3630 -0.7824 -0.8196
 1020MOL0     H34604   5.203   1.837   8.153 -0.0184 -2.7001  1.5505
 1020MOL0     H34605   5.010   1.699   8.258  0.1854 -0.5586 -1.8577
 1020MOL0     H34606   4.910   1.650   8.491 -1.9262 -2.7453  1.1320
 1020MOL0     H34607   4.796   1.633   8.351 -0.2823  0.1660 -0.1181
 1020MOL0     H34608   4.700   1.723   8.635 -0.8779  0.1375  1.0643
 1020MOL0     H34609   4.715   1.556   8.590 -0.4060 -0.0059 -0.8879
 1020MOL0     H34610   4.551   1.627   8.380 -1.0574 -3.5258  1.2347
 1020MOL0     H34611   4.551   1.778   8.452 -0.3630 -0.9917 -2.8939
 1020MOL0     H34612   4.461   1.524   8.605 -0.1845 -0.3956  1.8455
 1020MOL0     H34613   4.473   1.693   8.661 -0.7773 -0.5009  0.0122
 1020MOL0     H34614   4.307   1.691   8.423  0.1936  1.3554 -0.0779
 1020MOL0     H34615   4.268   1.743   8.594  1.2299 -1.1611  1.3432
 1020MOL0     H34616   4.227   1.521   8.667 -1.0167  1.1541  1.0611
 1020MOL0     H34617   4.281   1.447   8.510  0.0105  0.6244 -1.7099
 1020MOL0     H34618   4.026   1.595   8.548 -0.0751  1.5478 -2.8960
 1020MOL0     H34619   4.097   1.542   8.399  0.5157  0.2604 -0.0043
 1020MOL0     H34620   4.030   1.368   8.632  0.6881  2.6442 -0.2996
 1020MOL0     H34621   4.077   1.294   8.477 -1.5133 -1.7065  1.6296
 1020MOL0     H34622   4.858   2.061   8.430 -0.8629  0.2418  0.0921
 1020MOL0     H34623   5.060   2.182   8.348  1.0106 -0.7971  2.0983
 1020MOL0     H34624   5.177   2.437   7.930  0.7813 -1.5357 -1.3260
 1020MOL0     H34625   5.344   2.572   7.837 -1.1758 -0.5048  0.5681
 1020MOL0     H34626   6.937   2.086   6.746 -0.3243 -1.4476 -0.3606
 1020MOL0     H34627   7.167   1.998   6.738  2.3792 -2.5800  1.1445
 1020MOL0     H34628   7.592   2.097   7.058  2.0836  0.6319 -0.8485
 1020MOL0     H34629   7.824   2.032   7.040  0.7816  0.5358  1.1486
 1020MOL0     H34630   7.897   1.722   6.777  0.1116 -0.3728 -0.6895
 1020MOL0     H34631   7.935   1.617   6.907 -1.3118 -0.1685 -1.7573
 1020MOL0     H34632   8.170   1.745   6.928  1.1949  0.5550 -1.5269
 1020MOL0     H34633   8.170   1.660   6.780  0.9425  1.4205 -0.3260
 1020MOL0     H34634   8.137   1.959   6.822 -1.1004  0.7385  0.1283
 1020MOL0     H34635   8.036   1.875   6.694 -1.6788  0.5280  2.7781
 1020MOL0     H34636   8.296   1.795   6.623 -0.5714  0.0999 -0.1537
 1020MOL0     H34637   8.257   1.961   6.597  1.5527 -0.6988 -1.9135
 1020MOL0     H34638   8.511   1.960   6.943  0.9335  0.6130 -1.8966
 1020MOL0     H34639   7.713   1.652   6.898 -0.4745 -0.2900  3.5099
 1020MOL0     H34640   7.479   1.708   6.901  0.4650  0.4093 -0.0421
 1021MOL0     O34641   7.641   2.946   1.718  0.6395  0.9296  0.4997
 1021MOL0     C34642   7.692   2.890   1.817 -0.4558  0.0025  0.1537
 1021MOL0     O34643   7.624   2.835   1.925  0.0728 -0.1482 -0.0548
 1021MOL0     C34644   7.490   2.859   1.955 -0.5968  1.2438  0.2458
 1021MOL0     C34645   7.403   2.942   1.882  0.4075 -0.4181 -0.0990
 1021MOL0     C34646   7.273   2.946   1.926 -0.5915 -0.6273  0.4006
 1021MOL0     C34647   7.217   2.883   2.034  0.5207 -0.5517  0.1958
 1021MOL0     O34648   7.082   2.875   2.069  0.2385 -0.6988 -1.6784
 1021MOL0     C34649   6.978   2.951   2.013  0.7395  0.6859  0.2067
 1021MOL0     C34650   6.851   2.941   2.103  0.3009  0.2361 -0.3755
 1021MOL0     C34651   6.727   2.855   2.067  0.2163  0.4127 -0.4866
 1021MOL0     C34652   6.626   2.841   2.180  0.1379 -0.7225 -0.1662
 1021MOL0     C34653   6.495   2.766   2.147 -0.4922  0.1978 -0.1880
 1021MOL0     C34654   6.399   2.777   2.271 -0.0134  0.6443  0.6613
 1021MOL0     C34655   6.262   2.738   2.204  0.5416 -0.4274 -0.6161
 1021MOL0     C34656   6.188   2.857   2.150  1.0663 -0.9779  0.4007
 1021MOL0     N34657   6.047   2.836   2.203 -0.7933 -0.4476  0.4691
 1021MOL0     C34658   5.955   2.743   2.162  0.7697  0.2561  0.0332
 1021MOL0     C34659   5.862   2.730   2.258  0.1536 -0.5573 -0.2416
 1021MOL0     C34660   5.737   2.648   2.258  0.9550 -0.3171 -0.3147
 1021MOL0     C34661   5.618   2.736   2.221 -0.4393  0.0439 -0.3092
 1021MOL0     C34662   5.499   2.642   2.210 -0.2965 -0.6393  0.2410
 1021MOL0     C34663   5.358   2.700   2.172 -0.8005 -0.6577 -0.6360
 1021MOL0     O34664   5.272   2.591   2.160 -0.2898  0.2599  0.0924
 1021MOL0     C34665   5.143   2.622   2.129  0.2306 -0.7073  0.6129
 1021MOL0     C34666   5.067   2.508   2.085 -0.4634 -0.4908 -0.2405
 1021MOL0     C34667   4.936   2.515   2.046 -0.4699  0.6961  0.0005
 1021MOL0     C34668   4.878   2.645   2.031 -0.0328  0.0715 -0.3622
 1021MOL0     C34669   4.744   2.657   1.964 -0.0641  0.0202 -0.6591
 1021MOL0     O34670   4.683   2.780   1.957 -0.4686 -0.0600  0.2344
 1021MOL0     C34671   4.574   2.787   1.879  0.4294  0.2256 -0.3587
 1021MOL0     C34672   4.571   2.795   1.738 -0.3859 -0.0616  0.0526
 1021MOL0     C34673   4.452   2.802   1.657  0.5626  0.1959 -0.4932
 1021MOL0     C34674   4.333   2.823   1.731 -0.0483  0.6587  0.2743
 1021MOL0     O34675   4.208   2.832   1.684 -0.7900  0.0617  0.4761
 1021MOL0     C34676   4.205   2.865   1.541 -0.2145  0.4746 -0.2772
 1021MOL0     C34677   4.062   2.866   1.502  0.0318  0.1987  0.0336
 1021MOL0     C34678   3.991   2.734   1.506 -0.2825  0.0392 -0.4862
 1021MOL0     C34679   3.856   2.754   1.461 -0.6818  0.7231 -0.0731
 1021MOL0     C34680   3.760   2.639   1.459 -0.2598  0.0786  0.2972
 1021MOL0     C34681   3.620   2.691   1.466 -0.9063 -0.1035  0.0523
 1021MOL0     C34682   3.506   2.614   1.396  0.1113 -0.6742  0.2518
 1021MOL0     C34683   3.441   2.507   1.493 -0.9466  0.1082  0.2867
 1021MOL0    Cl34684   3.298   2.437   1.411 -0.0380  0.5364  0.5153
 1021MOL0     C34685   4.340   2.812   1.866  1.5784  0.0416 -0.5481
 1021MOL0     C34686   4.449   2.790   1.945  0.3996  0.1629  0.2744
 1021MOL0     O34687   4.696   2.555   1.923  0.2437  0.2286 -0.4349
 1021MOL0     C34688   4.957   2.757   2.070 -0.0970  0.8498 -0.2654
 1021MOL0     C34689   5.088   2.749   2.120  0.3603 -0.5855 -0.2639
 1021MOL0     N34690   5.910   2.812   2.359 -0.1206 -0.6392  0.2741
 1021MOL0     N34691   6.018   2.874   2.327 -0.1709 -0.3634 -0.0873
 1021MOL0     C34692   7.306   2.803   2.113  0.8160 -0.5704  0.4074
 1021MOL0     C34693   7.434   2.790   2.067 -0.9271 -0.3534  0.8165
 1021MOL0     C34694   7.836   2.873   1.825  0.4686  0.2709 -0.4870
 1021MOL0     C34695   7.885   2.750   1.856  0.5414  0.9938 -0.4897
 1021MOL0     C34696   8.022   2.713   1.834  0.0471 -0.5011 -0.3189
 1021MOL0     C34697   8.117   2.818   1.803 -0.4157 -0.3946  0.0106
 1021MOL0     O34698   8.251   2.798   1.804 -0.1011 -0.7152  0.1245
 1021MOL0     C34699   8.315   2.674   1.827 -0.3720 -1.2522  0.2407
 1021MOL0     C34700   8.461   2.686   1.822 -0.4927 -0.1951  0.0192
 1021MOL0     C34701   8.525   2.545   1.807 -0.2517 -0.7067  0.1394
 1021MOL0     C34702   8.487   2.462   1.936  0.0788  0.2642  0.2873
 1021MOL0     C34703   8.571   2.496   2.055  0.1713 -0.2333 -0.8867
 1021MOL0     C34704   8.656   2.513   2.144  0.0059 -0.7062 -0.0464
 1021MOL0     C34705   8.063   2.940   1.761  0.3437  0.1034 -0.7115
 1021MOL0     C34706   7.923   2.970   1.777 -0.3793  0.8374 -0.2434
 1021MOL0     H34707   7.418   2.994   1.789 -2.7621  0.7571 -0.0883
 1021MOL0     H34708   7.216   3.004   1.853 -0.8203 -1.1979  0.1224
 1021MOL0     H34709   6.947   2.911   1.916  2.5638 -0.0636 -0.1112
 1021MOL0     H34710   7.010   3.056   2.005  0.3425  0.6949 -2.2974
 1021MOL0     H34711   6.812   3.043   2.108  0.1345  0.1989 -0.9137
 1021MOL0     H34712   6.892   2.923   2.203 -2.7646  3.4011  1.6444
 1021MOL0     H34713   6.754   2.753   2.036  1.3280  0.7642 -0.7246
 1021MOL0     H34714   6.675   2.905   1.984 -1.0686  0.7619  0.4978
 1021MOL0     H34715   6.672   2.804   2.272  1.8489  1.0893 -0.2045
 1021MOL0     H34716   6.601   2.946   2.203  0.4679  0.0180 -2.8781
 1021MOL0     H34717   6.517   2.661   2.128  0.0858  0.2536  0.1405
 1021MOL0     H34718   6.459   2.808   2.053 -0.2005  1.5542  0.2786
 1021MOL0     H34719   6.396   2.870   2.328 -1.5740  0.9032  0.2003
 1021MOL0     H34720   6.436   2.701   2.340  1.1185  1.6947  1.2396
 1021MOL0     H34721   6.274   2.662   2.126  0.6086 -1.7864  0.6954
 1021MOL0     H34722   6.209   2.691   2.287  4.5244 -0.6412  2.1106
 1021MOL0     H34723   6.184   2.852   2.041  0.0412  1.3744  0.2686
 1021MOL0     H34724   6.230   2.954   2.180  0.4144 -0.4516 -0.3392
 1021MOL0     H34725   5.945   2.707   2.061 -3.3087  3.9866 -1.2422
 1021MOL0     H34726   5.722   2.613   2.361  0.3676  0.0665 -0.2639
 1021MOL0     H34727   5.755   2.564   2.192  1.1276 -1.5761  1.2769
 1021MOL0     H34728   5.627   2.783   2.123 -2.2508 -0.4880 -0.7627
 1021MOL0     H34729   5.590   2.806   2.301 -2.6035  0.8042 -1.6425
 1021MOL0     H34730   5.521   2.573   2.128  1.1868 -0.8185  0.7618
 1021MOL0     H34731   5.487   2.581   2.301 -1.4252 -2.5896 -1.1224
 1021MOL0     H34732   5.369   2.759   2.081 -0.7033 -0.1916 -0.3218
 1021MOL0     H34733   5.316   2.770   2.245 -0.0104  0.7891 -1.5214
 1021MOL0     H34734   5.117   2.413   2.067 -0.6207 -0.4764 -0.7695
 1021MOL0     H34735   4.884   2.433   1.997  1.6376  0.6049 -2.2486
 1021MOL0     H34736   4.670   2.789   1.696 -0.9216 -0.8980 -1.1357
 1021MOL0     H34737   4.449   2.800   1.548 -1.1681  2.7133 -0.5704
 1021MOL0     H34738   4.247   2.776   1.493  2.6230  1.9495 -0.7570
 1021MOL0     H34739   4.259   2.950   1.498  0.2173 -1.1631 -3.2643
 1021MOL0     H34740   4.046   2.902   1.400 -1.2357 -0.4892 -0.0384
 1021MOL0     H34741   4.025   2.942   1.572 -0.0897 -1.4175  1.8002
 1021MOL0     H34742   3.995   2.695   1.608 -2.3065 -0.9582 -0.7489
 1021MOL0     H34743   4.052   2.669   1.443 -1.0549 -0.2136 -0.9895
 1021MOL0     H34744   3.810   2.817   1.538  0.5678  0.8572  0.6047
 1021MOL0     H34745   3.862   2.808   1.365 -4.0079  0.7370 -0.3914
 1021MOL0     H34746   3.782   2.570   1.541 -2.6246 -2.6267 -1.1546
 1021MOL0     H34747   3.767   2.589   1.362  1.6537 -0.1295  0.5093
 1021MOL0     H34748   3.623   2.790   1.420 -0.9082  1.7385  3.6100
 1021MOL0     H34749   3.593   2.702   1.571 -1.2713 -0.3017 -0.0217
 1021MOL0     H34750   3.434   2.695   1.382 -0.2775 -1.0014  0.3402
 1021MOL0     H34751   3.540   2.564   1.304 -1.0719  2.4438 -2.0645
 1021MOL0     H34752   3.421   2.570   1.580 -0.7703 -0.2510  0.5876
 1021MOL0     H34753   3.514   2.435   1.533 -2.0119 -0.4068  1.3681
 1021MOL0     H34754   4.254   2.847   1.922  4.4528  0.8500  3.8829
 1021MOL0     H34755   4.443   2.793   2.053 -1.0766 -1.6027  0.2890
 1021MOL0     H34756   4.910   2.851   2.044 -1.4258  0.0717 -0.7548
 1021MOL0     H34757   5.154   2.835   2.128 -0.6652  0.1882  0.0963
 1021MOL0     H34758   7.282   2.753   2.206 -0.5835 -0.9889 -0.1617
 1021MOL0     H34759   7.496   2.733   2.135 -2.8292  0.2457  3.2113
 1021MOL0     H34760   7.824   2.662   1.877  0.5595  1.5997  2.5391
 1021MOL0     H34761   8.062   2.614   1.855  3.6817  0.3553 -2.3223
 1021MOL0     H34762   8.287   2.602   1.750  1.0574 -0.9219 -0.6351
 1021MOL0     H34763   8.285   2.646   1.928  2.2555 -0.3533  1.3553
 1021MOL0     H34764   8.499   2.756   1.746  1.9505 -0.8274  0.5622
 1021MOL0     H34765   8.494   2.732   1.916 -1.1513  0.7043 -0.1722
 1021MOL0     H34766   8.634   2.554   1.800 -0.3361 -0.8446 -1.6499
 1021MOL0     H34767   8.490   2.496   1.716 -0.2157  0.6280 -0.6151
 1021MOL0     H34768   8.381   2.468   1.961  0.6245  0.0602  3.0776
 1021MOL0     H34769   8.515   2.359   1.912  0.8745  0.8610 -1.4930
 1021MOL0     H34770   8.725   2.517   2.226 -0.5384 -0.9342  0.4302
 1021MOL0     H34771   8.135   3.020   1.745  0.8300 -0.0086  0.8299
 1021MOL0     H34772   7.898   3.071   1.747  1.6917  1.0158 -1.5373
 1022MOL0     O34773  10.937  10.370   0.510  0.2624 -0.1215  0.2450
 1022MOL0     C34774  11.028  10.327   0.589  0.0823 -1.3663 -0.0787
 1022MOL0     O34775  11.008  10.257   0.712  0.8320 -0.6216  0.5784
 1022MOL0     C34776  10.886  10.275   0.772 -0.3928 -1.1481 -0.7499
 1022MOL0     C34777  10.820  10.393   0.802 -0.5130 -0.4009 -0.0583
 1022MOL0     C34778  10.706  10.401   0.878  0.1202 -0.6924  0.4738
 1022MOL0     C34779  10.654  10.289   0.941  0.5209  0.5764 -0.7580
 1022MOL0     O34780  10.536  10.305   1.014 -0.4465 -0.1955  0.6152
 1022MOL0     C34781  10.486  10.203   1.094 -0.3816 -0.2712  0.0232
 1022MOL0     C34782  10.353  10.266   1.167  0.3267 -0.0408  1.0080
 1022MOL0     C34783  10.253  10.310   1.061 -0.5549  1.2159  0.6201
 1022MOL0     C34784  10.192  10.442   1.083  0.3330 -0.7075  0.0682
 1022MOL0     C34785  10.116  10.496   0.955 -0.1964  0.2895 -0.6008
 1022MOL0     C34786  10.025  10.604   1.010 -0.1872  0.1720  0.2377
 1022MOL0     C34787   9.940  10.663   0.902  0.0198  0.6515  0.0204
 1022MOL0     C34788   9.836  10.766   0.962 -0.3054  0.6518 -0.0503
 1022MOL0     N34789   9.743  10.827   0.866  0.4582  0.0683  0.8613
 1022MOL0     C34790   9.644  10.759   0.800  0.1216 -0.4275 -0.6874
 1022MOL0     C34791   9.556  10.855   0.751  0.0056 -0.2403 -0.2057
 1022MOL0     C34792   9.423  10.846   0.678  0.4010  0.4581 -0.7543
 1022MOL0     C34793   9.409  10.939   0.561 -0.8393 -1.0334 -0.0921
 1022MOL0     C34794   9.312  10.909   0.442 -0.4353  0.4077 -0.2370
 1022MOL0     C34795   9.168  10.947   0.470 -0.0604 -0.7300 -0.5172
 1022MOL0     O34796   9.133  10.882   0.593  0.6077 -0.4258  0.3180
 1022MOL0     C34797   8.995  10.899   0.621 -0.3222 -0.6271  0.5752
 1022MOL0     C34798   8.958  11.016   0.681  0.0313 -0.9276 -0.7220
 1022MOL0     C34799   8.823  11.037   0.705 -0.3790  1.4613  1.0152
 1022MOL0     C34800   8.731  10.926   0.701  0.4065 -0.2178 -0.3066
 1022MOL0     C34801   8.593  10.934   0.748  0.2303 -0.0370  0.0247
 1022MOL0     O34802   8.553  11.059   0.778  0.1207  0.4447 -0.2837
 1022MOL0     C34803   8.421  11.074   0.792  0.8001 -1.0260 -0.1773
 1022MOL0     C34804   8.355  11.120   0.682  0.5411 -0.3237  0.6428
 1022MOL0     C34805   8.216  11.115   0.673 -0.0627  0.1302  0.0198
 1022MOL0     C34806   8.143  11.063   0.777 -0.7741  0.6605 -0.1396
 1022MOL0     O34807   8.008  11.048   0.788  0.4597 -0.3876 -0.1973
 1022MOL0     C34808   7.930  11.117   0.686  0.2595  0.3647  0.6254
 1022MOL0     C34809   7.932  11.271   0.700  0.3395  0.5494 -0.0019
 1022MOL0     C34810   7.828  11.324   0.602  0.2537 -0.5204 -0.6557
 1022MOL0     C34811   7.823  11.478   0.587 -0.0609  0.6526 -0.5038
 1022MOL0     C34812   7.793  11.509   0.448  0.1644  0.3593  0.5249
 1022MOL0     C34813   7.767  11.662   0.426  0.1460  1.0111  0.2359
 1022MOL0     C34814   7.690  11.696   0.300  0.0291 -0.1656 -0.9821
 1022MOL0     C34815   7.644  11.836   0.295  0.6900  0.0244 -0.1817
 1022MOL0    Cl34816   7.491  11.861   0.395 -0.0227 -0.2779 -0.0273
 1022MOL0     C34817   8.216  11.021   0.892 -0.1779 -0.0040  0.5800
 1022MOL0     C34818   8.355  11.031   0.904  0.4792  0.0381  1.0638
 1022MOL0     O34819   8.517  10.828   0.745 -0.1984  0.4806  0.3804
 1022MOL0     C34820   8.778  10.800   0.650  0.8915 -0.2344 -1.0828
 1022MOL0     C34821   8.908  10.794   0.608  0.3789  0.0385 -0.7839
 1022MOL0     N34822   9.617  10.974   0.772 -0.3771 -0.3177 -1.2137
 1022MOL0     N34823   9.720  10.959   0.848 -0.2272 -0.2957  0.9305
 1022MOL0     C34824  10.730  10.167   0.928 -0.4467  1.8182 -1.0300
 1022MOL0     C34825  10.843  10.165   0.842  0.0585  0.0093 -0.6360
 1022MOL0     C34826  11.169  10.336   0.527  0.7378  0.6887  0.2229
 1022MOL0     C34827  11.281  10.290   0.591 -0.0311  0.9612  0.2525
 1022MOL0     C34828  11.400  10.289   0.534  0.2680 -0.1679  0.8511
 1022MOL0     C34829  11.415  10.338   0.408 -0.0974 -1.1415  0.2182
 1022MOL0     O34830  11.543  10.350   0.356  0.6865 -0.2511  0.7632
 1022MOL0     C34831  11.562  10.357   0.209  0.7068  0.6432 -0.2047
 1022MOL0     C34832  11.536  10.215   0.146 -0.3070  0.6523 -0.0323
 1022MOL0     C34833  11.625  10.110   0.219 -0.0451  0.4656  0.6813
 1022MOL0     C34834  11.619   9.978   0.134 -0.2492  0.0513 -1.1900
 1022MOL0     C34835  11.701   9.979   0.016 -0.3295 -0.5315  0.4775
 1022MOL0     C34836  11.795   9.954  -0.061  0.8761 -0.3223 -0.1067
 1022MOL0     C34837  11.303  10.378   0.333  1.1880  0.0383  0.1293
 1022MOL0     C34838  11.178  10.382   0.397 -0.8998 -0.3950  0.3718
 1022MOL0     H34839  10.858  10.485   0.758 -3.0943  1.8123  1.9728
 1022MOL0     H34840  10.659  10.498   0.882  1.5195 -0.0121  1.2245
 1022MOL0     H34841  10.551  10.166   1.174 -1.8236  1.2223  1.9994
 1022MOL0     H34842  10.454  10.117   1.034 -0.3173 -0.0940 -0.2667
 1022MOL0     H34843  10.392  10.350   1.225 -2.1329  2.4374 -0.6789
 1022MOL0     H34844  10.309  10.193   1.236 -1.6979  0.6117  0.4627
 1022MOL0     H34845  10.163  10.249   1.063 -0.4992  0.9442 -1.8149
 1022MOL0     H34846  10.288  10.301   0.958 -0.9781 -1.5441  0.6668
 1022MOL0     H34847  10.111  10.422   1.153 -0.8856  0.4130 -0.9683
 1022MOL0     H34848  10.271  10.505   1.126  1.4041 -2.4730  0.8117
 1022MOL0     H34849  10.057  10.413   0.916  1.2169 -0.7625 -0.5864
 1022MOL0     H34850  10.182  10.528   0.874 -0.4929  0.3518 -0.8191
 1022MOL0     H34851  10.090  10.679   1.057 -2.1921  1.3520  1.2872
 1022MOL0     H34852   9.958  10.569   1.089 -0.0098  1.2816  0.9172
 1022MOL0     H34853  10.000  10.714   0.827 -0.5379  0.9086 -0.2578
 1022MOL0     H34854   9.887  10.580   0.855  0.0338  0.5896  0.1139
 1022MOL0     H34855   9.887  10.843   1.020  1.2366  0.6487 -1.3180
 1022MOL0     H34856   9.780  10.709   1.037  2.6088 -1.4546  0.7611
 1022MOL0     H34857   9.628  10.652   0.792  0.1178 -0.4992  0.2144
 1022MOL0     H34858   9.347  10.855   0.756 -0.0297 -5.1387 -0.1471
 1022MOL0     H34859   9.421  10.744   0.639  0.0199  0.4098 -0.6082
 1022MOL0     H34860   9.503  10.952   0.507 -0.4706  0.5947  0.8842
 1022MOL0     H34861   9.374  11.035   0.602  2.4282  0.9788 -1.6138
 1022MOL0     H34862   9.343  10.962   0.351 -1.0146  0.6264 -0.3118
 1022MOL0     H34863   9.306  10.802   0.421 -2.2899  0.2566  0.9137
 1022MOL0     H34864   9.107  10.907   0.388 -1.0746  0.0980 -0.1941
 1022MOL0     H34865   9.160  11.056   0.470 -1.3241 -0.7472  1.9600
 1022MOL0     H34866   9.026  11.099   0.700 -3.2738  1.7539  0.4690
 1022MOL0     H34867   8.794  11.134   0.742  0.7389  2.3779 -0.4136
 1022MOL0     H34868   8.401  11.157   0.591 -1.2389 -1.4293 -0.7926
 1022MOL0     H34869   8.173  11.160   0.584 -2.6103  1.0573  1.6110
 1022MOL0     H34870   7.827  11.079   0.685  0.4563 -0.2500  1.9794
 1022MOL0     H34871   7.978  11.089   0.592 -1.0032 -0.0909  0.0964
 1022MOL0     H34872   8.032  11.314   0.687 -0.5167  2.3342 -0.9622
 1022MOL0     H34873   7.902  11.289   0.804 -1.3799  2.0278 -0.7031
 1022MOL0     H34874   7.735  11.285   0.644  0.7654 -1.8845 -0.7301
 1022MOL0     H34875   7.848  11.277   0.505 -3.1995 -0.9001 -1.3166
 1022MOL0     H34876   7.765  11.523   0.669  1.9855 -1.0295  2.0137
 1022MOL0     H34877   7.923  11.522   0.592 -0.4121  1.3464  1.0620
 1022MOL0     H34878   7.713  11.445   0.409 -0.2757  0.6469  0.9450
 1022MOL0     H34879   7.883  11.479   0.394  0.5957  0.2119  1.3164
 1022MOL0     H34880   7.859  11.722   0.420 -0.4386  1.8603 -0.7938
 1022MOL0     H34881   7.708  11.696   0.512 -2.8722  0.2555 -1.3911
 1022MOL0     H34882   7.755  11.673   0.215  1.8321 -2.2255  0.8119
 1022MOL0     H34883   7.596  11.640   0.290 -3.0547  4.2961  0.2283
 1022MOL0     H34884   7.611  11.867   0.195  2.6395  3.9775  0.1688
 1022MOL0     H34885   7.720  11.910   0.325  1.6241 -0.3871 -1.4368
 1022MOL0     H34886   8.158  10.997   0.981  0.0825 -1.8944  0.2623
 1022MOL0     H34887   8.400  10.978   0.987  0.4765 -1.6135  0.0589
 1022MOL0     H34888   8.719  10.710   0.636 -0.5918  0.4685  0.3795
 1022MOL0     H34889   8.936  10.708   0.549  0.4432 -0.7003  0.2847
 1022MOL0     H34890  10.715  10.075   0.983  1.4890 -0.5801 -4.1331
 1022MOL0     H34891  10.902  10.075   0.825  2.4094  1.1751  0.8641
 1022MOL0     H34892  11.264  10.252   0.692  0.7775 -2.1465 -0.6463
 1022MOL0     H34893  11.496  10.254   0.570  1.4718  2.0533 -0.0139
 1022MOL0     H34894  11.669  10.377   0.197  0.6621  0.1209 -1.6298
 1022MOL0     H34895  11.509  10.442   0.167 -3.7404 -2.0185 -0.6254
 1022MOL0     H34896  11.433  10.178   0.153 -0.4185  1.0023  0.1701
 1022MOL0     H34897  11.569  10.228   0.042  2.9337  0.7824  0.9098
 1022MOL0     H34898  11.577  10.097   0.316 -2.7536  3.9835  0.0166
 1022MOL0     H34899  11.731  10.134   0.231 -0.0559  0.0850  1.5694
 1022MOL0     H34900  11.643   9.900   0.207  0.3172  0.9632 -0.3628
 1022MOL0     H34901  11.516   9.951   0.110  0.2553 -2.4199 -0.8697
 1022MOL0     H34902  11.872   9.934  -0.132  1.8458 -1.4165  1.1902
 1022MOL0     H34903  11.315  10.416   0.232 -2.3581  1.4765  0.1260
 1022MOL0     H34904  11.096  10.427   0.342  0.8522 -0.2571 -2.3111
 1023MOL0     O34905   0.428   6.133   4.287 -0.6307  0.2561 -0.0727
 1023MOL0     C34906   0.520   6.091   4.217  0.1719 -0.1592  0.1886
 1023MOL0     O34907   0.508   6.086   4.080 -0.0603  0.0849 -0.3669
 1023MOL0     C34908   0.379   6.118   4.031 -0.0392  0.6726 -0.0027
 1023MOL0     C34909   0.293   6.015   3.975 -0.6756 -0.1729 -1.0041
 1023MOL0     C34910   0.167   6.053   3.925 -0.6252  0.1252 -0.6568
 1023MOL0     C34911   0.122   6.181   3.939  0.1957  0.0304 -0.1051
 1023MOL0     O34912   0.002   6.198   3.883  0.3321 -0.2093 -0.4705
 1023MOL0     C34913  -0.054   6.333   3.879  0.2370  0.6713  0.2946
 1023MOL0     C34914  -0.208   6.317   3.848 -0.1131  0.2390  0.2320
 1023MOL0     C34915  -0.271   6.451   3.819  0.2439  0.2291  0.4963
 1023MOL0     C34916  -0.397   6.428   3.740  0.1063  0.1001 -0.6044
 1023MOL0     C34917  -0.467   6.552   3.688 -0.8421  1.1090 -0.2615
 1023MOL0     C34918  -0.512   6.648   3.795  0.8492 -0.4051  0.2869
 1023MOL0     C34919  -0.627   6.598   3.883  0.3534 -0.0089 -0.1432
 1023MOL0     C34920  -0.764   6.579   3.814 -0.2962  0.7252  0.4771
 1023MOL0     N34921  -0.868   6.578   3.917  0.0035  0.5487  0.0375
 1023MOL0     C34922  -0.961   6.477   3.948  0.4633  0.0928  0.5670
 1023MOL0     C34923  -1.051   6.533   4.029  0.8373  0.3691  0.1791
 1023MOL0     C34924  -1.163   6.453   4.093 -0.0602 -0.2564  0.8811
 1023MOL0     C34925  -1.272   6.541   4.145  0.6824 -0.7173  0.4560
 1023MOL0     C34926  -1.388   6.459   4.210  0.2176  0.8410  0.2426
 1023MOL0     C34927  -1.509   6.549   4.207  0.1818  0.0669 -0.0876
 1023MOL0     O34928  -1.500   6.658   4.298  0.2340  0.0985 -0.3379
 1023MOL0     C34929  -1.593   6.667   4.394 -0.2216 -0.9517  0.1398
 1023MOL0     C34930  -1.631   6.791   4.444 -0.3941  0.6040 -0.5739
 1023MOL0     C34931  -1.738   6.803   4.544  0.0239 -0.1044 -0.2012
 1023MOL0     C34932  -1.785   6.688   4.597  0.6689  0.2184  0.5678
 1023MOL0     C34933  -1.887   6.711   4.703  0.2620  0.3043 -1.0007
 1023MOL0     O34934  -1.963   6.599   4.737 -0.2890 -0.1124  0.2101
 1023MOL0     C34935  -2.076   6.617   4.812  0.5387  0.3446 -0.0232
 1023MOL0     C34936  -2.101   6.529   4.918 -0.8320 -0.1563 -0.8977
 1023MOL0     C34937  -2.221   6.510   4.993  0.1310  0.1690 -0.0641
 1023MOL0     C34938  -2.330   6.592   4.964 -0.2712 -0.5962  0.4726
 1023MOL0     O34939  -2.455   6.591   5.019 -0.3797  0.2109 -0.1038
 1023MOL0     C34940  -2.493   6.478   5.101  0.5654 -0.0321  0.0752
 1023MOL0     C34941  -2.510   6.350   5.020  0.3849 -0.0570  0.1906
 1023MOL0     C34942  -2.612   6.374   4.901  0.3262 -0.9616 -0.0388
 1023MOL0     C34943  -2.756   6.409   4.932  0.8953 -0.0915 -0.1121
 1023MOL0     C34944  -2.856   6.397   4.811 -0.5989 -0.0334  0.3896
 1023MOL0     C34945  -2.825   6.477   4.684 -0.0876  0.3592 -1.3872
 1023MOL0     C34946  -2.937   6.469   4.587  0.7635  0.1750  0.6416
 1023MOL0     C34947  -2.910   6.510   4.447 -0.6420  0.1935  0.1029
 1023MOL0    Cl34948  -2.762   6.417   4.379  0.5676 -0.2834 -0.0256
 1023MOL0     C34949  -2.308   6.690   4.856  0.4728 -0.2022 -0.2094
 1023MOL0     C34950  -2.181   6.705   4.788  0.5471 -0.1801  0.2808
 1023MOL0     O34951  -1.900   6.825   4.748  0.6389 -0.2231 -0.0562
 1023MOL0     C34952  -1.744   6.564   4.553 -0.0198 -0.2258  0.3175
 1023MOL0     C34953  -1.647   6.552   4.458  0.0235  0.6456 -0.4812
 1023MOL0     N34954  -1.019   6.666   4.040  0.0122  0.4016 -0.4573
 1023MOL0     N34955  -0.906   6.688   3.985  0.5073 -0.4277 -0.0833
 1023MOL0     C34956   0.206   6.284   3.977 -0.3531  0.6467 -0.1827
 1023MOL0     C34957   0.340   6.250   4.018  0.5906  0.0411 -0.2292
 1023MOL0     C34958   0.651   6.054   4.285  0.4579  0.1818  0.6709
 1023MOL0     C34959   0.656   6.017   4.418  0.0829  0.4105 -0.3160
 1023MOL0     C34960   0.779   5.965   4.472 -0.2578 -0.2850 -0.0926
 1023MOL0     C34961   0.899   5.964   4.402 -0.4551 -0.7539  0.4616
 1023MOL0     O34962   1.011   5.929   4.478 -0.6762  1.0187 -0.4715
 1023MOL0     C34963   1.136   5.964   4.419 -0.7749  0.8095 -0.7280
 1023MOL0     C34964   1.246   5.891   4.498  0.0838 -0.2816 -0.0326
 1023MOL0     C34965   1.243   5.934   4.643  0.4397  1.0390 -0.3927
 1023MOL0     C34966   1.377   5.909   4.714 -0.8649  0.3745 -0.5246
 1023MOL0     C34967   1.439   5.770   4.704  0.2592  0.7287  0.1313
 1023MOL0     C34968   1.497   5.668   4.684 -1.1925 -0.7252  0.7551
 1023MOL0     C34969   0.896   6.004   4.270 -0.3150 -0.7666  0.5268
 1023MOL0     C34970   0.772   6.037   4.212 -0.2331 -0.5683 -0.7218
 1023MOL0     H34971   0.322   5.910   3.982 -0.6437 -0.2236 -1.7723
 1023MOL0     H34972   0.109   5.978   3.872  2.2355 -1.4051 -1.8424
 1023MOL0     H34973  -0.009   6.397   3.803  1.0732 -0.1300  0.0916
 1023MOL0     H34974  -0.045   6.391   3.972 -0.8098  0.0242  0.8254
 1023MOL0     H34975  -0.270   6.276   3.928  0.7489  0.0898  0.8408
 1023MOL0     H34976  -0.210   6.247   3.764 -3.7609 -0.7477  0.9618
 1023MOL0     H34977  -0.206   6.510   3.754 -0.4202  0.8235  0.3580
 1023MOL0     H34978  -0.305   6.502   3.910  0.6549 -0.9336  1.3294
 1023MOL0     H34979  -0.364   6.367   3.656  2.6858  0.3577  0.1280
 1023MOL0     H34980  -0.474   6.378   3.800  2.2553 -0.6515  1.7128
 1023MOL0     H34981  -0.556   6.535   3.626 -0.5440  3.5399 -1.4758
 1023MOL0     H34982  -0.399   6.609   3.624  0.0657  1.7738  1.2385
 1023MOL0     H34983  -0.559   6.737   3.753 -0.6446 -1.5083 -0.4499
 1023MOL0     H34984  -0.433   6.685   3.862  1.7667 -0.4063 -0.7575
 1023MOL0     H34985  -0.607   6.505   3.938 -0.7357 -0.4154 -0.3974
 1023MOL0     H34986  -0.634   6.665   3.969 -3.0525 -2.6049  1.8776
 1023MOL0     H34987  -0.763   6.488   3.754 -2.0526  0.8265  0.2390
 1023MOL0     H34988  -0.781   6.666   3.750 -2.8080  0.1095  0.2290
 1023MOL0     H34989  -0.961   6.375   3.913 -1.6453  0.7656 -1.7039
 1023MOL0     H34990  -1.121   6.396   4.177 -1.2624 -0.5129  1.3250
 1023MOL0     H34991  -1.185   6.372   4.023  1.8283 -0.0297 -0.0408
 1023MOL0     H34992  -1.308   6.592   4.056  1.5855 -0.0481  0.4615
 1023MOL0     H34993  -1.236   6.612   4.220  3.7594  0.5208 -1.9966
 1023MOL0     H34994  -1.410   6.372   4.147 -0.6489  1.7253 -0.7225
 1023MOL0     H34995  -1.365   6.421   4.310  2.6084 -1.3105 -1.0121
 1023MOL0     H34996  -1.591   6.477   4.223  0.4622 -0.9934 -2.7604
 1023MOL0     H34997  -1.537   6.582   4.106 -0.5715 -0.2861 -0.0037
 1023MOL0     H34998  -1.588   6.878   4.395  1.8334 -1.0295 -1.6939
 1023MOL0     H34999  -1.769   6.907   4.557 -0.3921 -0.2267 -0.1907
 1023MOL0     H35000  -2.016   6.463   4.931  0.1590  0.6257 -2.9796
 1023MOL0     H35001  -2.220   6.439   5.075  0.9953 -2.3838 -2.1398
 1023MOL0     H35002  -2.591   6.496   5.146 -0.2650  2.5046 -2.4486
 1023MOL0     H35003  -2.419   6.465   5.181 -1.2154 -0.9169  1.6659
 1023MOL0     H35004  -2.556   6.270   5.078 -0.2027  0.2538  0.1642
 1023MOL0     H35005  -2.410   6.323   4.983  1.5841  1.0472  2.3713
 1023MOL0     H35006  -2.608   6.298   4.822  1.2804 -2.4088  1.3285
 1023MOL0     H35007  -2.579   6.452   4.832  1.1066 -2.4581 -1.3991
 1023MOL0     H35008  -2.787   6.356   5.022 -1.3225 -0.7212 -1.1677
 1023MOL0     H35009  -2.756   6.514   4.965 -0.1739 -0.4119  0.9839
 1023MOL0     H35010  -2.959   6.409   4.847  0.3436 -0.5809  3.6205
 1023MOL0     H35011  -2.846   6.291   4.788  0.8668  0.1442  0.1421
 1023MOL0     H35012  -2.728   6.435   4.655 -0.2630 -1.7228  0.7037
 1023MOL0     H35013  -2.820   6.583   4.710 -2.1579 -0.3897  3.0126
 1023MOL0     H35014  -2.975   6.367   4.585  0.0055  0.4030 -2.4216
 1023MOL0     H35015  -3.016   6.538   4.619 -0.1700 -0.5024 -0.1280
 1023MOL0     H35016  -2.901   6.618   4.433  0.3320  0.0314 -0.6532
 1023MOL0     H35017  -2.999   6.473   4.396 -0.8887  0.3077  0.4408
 1023MOL0     H35018  -2.394   6.750   4.827  2.0647  1.5543 -1.5427
 1023MOL0     H35019  -2.160   6.784   4.718  1.4298  1.6580  2.4869
 1023MOL0     H35020  -1.784   6.470   4.590  0.9367 -0.6238  0.3673
 1023MOL0     H35021  -1.627   6.450   4.427 -1.2838 -1.2934  4.1595
 1023MOL0     H35022   0.174   6.387   3.989  2.5968  1.5691  0.4961
 1023MOL0     H35023   0.408   6.326   4.056 -0.7260  0.5293  1.2394
 1023MOL0     H35024   0.572   6.027   4.486 -0.3287 -1.1826 -0.5549
 1023MOL0     H35025   0.788   5.950   4.579 -0.8473  0.1709  0.0266
 1023MOL0     H35026   1.160   6.071   4.415 -0.1925  0.9351  2.6621
 1023MOL0     H35027   1.146   5.925   4.318  1.8316 -1.1765  0.1886
 1023MOL0     H35028   1.235   5.782   4.493 -1.4627 -0.1241 -0.6852
 1023MOL0     H35029   1.335   5.927   4.447 -0.9740  0.2102 -1.6282
 1023MOL0     H35030   1.165   5.893   4.708  1.5441 -0.8001 -0.1628
 1023MOL0     H35031   1.231   6.043   4.637  1.9857  1.2369 -0.2925
 1023MOL0     H35032   1.451   5.985   4.691 -0.5645  0.0533 -0.6352
 1023MOL0     H35033   1.361   5.918   4.822 -0.0612  1.9118 -0.5165
 1023MOL0     H35034   1.539   5.569   4.677  0.8114  0.1318  0.1028
 1023MOL0     H35035   0.986   5.992   4.210  0.6523  0.0181  1.7739
 1023MOL0     H35036   0.781   6.067   4.108  1.9199 -0.4928 -0.5459
 1024MOL0     O35037   2.643   0.007   0.911  0.2389 -0.2571  0.3935
 1024MOL0     C35038   2.652   0.041   0.795  0.3377 -0.0281  0.6112
 1024MOL0     O35039   2.580  -0.009   0.689 -0.6506 -0.0377 -0.5733
 1024MOL0     C35040   2.477  -0.096   0.709  0.9868 -0.2784  0.6433
 1024MOL0     C35041   2.455  -0.190   0.810 -0.3684  0.6100 -0.8060
 1024MOL0     C35042   2.328  -0.253   0.822 -0.1931 -0.0340 -0.0117
 1024MOL0     C35043   2.230  -0.234   0.725 -0.3499 -0.0148  0.0997
 1024MOL0     O35044   2.121  -0.325   0.727  0.6644  0.2426  0.3587
 1024MOL0     C35045   2.005  -0.272   0.786  1.3853 -0.3317  0.1230
 1024MOL0     C35046   1.996  -0.334   0.928 -0.9260  0.7223  1.4293
 1024MOL0     C35047   1.874  -0.284   1.005  0.3225  0.7002  0.3828
 1024MOL0     C35048   1.734  -0.306   0.929  0.7493 -0.5382  0.2880
 1024MOL0     C35049   1.630  -0.268   1.036  0.1532  0.9538  0.2278
 1024MOL0     C35050   1.488  -0.326   0.995  0.0544  0.1766  0.2896
 1024MOL0     C35051   1.375  -0.265   1.058 -0.5499 -0.5383  1.1886
 1024MOL0     C35052   1.387  -0.264   1.211 -0.4075  0.6092 -0.1034
 1024MOL0     N35053   1.267  -0.194   1.265 -0.2251 -0.3955  0.3380
 1024MOL0     C35054   1.136  -0.226   1.247 -1.2207 -1.3693 -0.5752
 1024MOL0     C35055   1.069  -0.124   1.309 -0.2978  0.3962  0.5717
 1024MOL0     C35056   0.925  -0.108   1.310 -0.0174  0.3062 -0.6515
 1024MOL0     C35057   0.876   0.007   1.399  0.4809 -0.1213 -0.0664
 1024MOL0     C35058   0.726   0.037   1.373  0.2728  0.4476 -0.5648
 1024MOL0     C35059   0.628  -0.084   1.420 -0.1293  0.1481  0.1928
 1024MOL0     O35060   0.495  -0.037   1.384  0.3118 -0.0481  0.6465
 1024MOL0     C35061   0.413   0.002   1.484  0.4977  0.8502  0.0589
 1024MOL0     C35062   0.443   0.042   1.619 -0.3213  0.7387  0.5317
 1024MOL0     C35063   0.346   0.073   1.714  0.1931  0.2515  0.2484
 1024MOL0     C35064   0.210   0.067   1.677 -0.1673 -1.2788 -0.2062
 1024MOL0     C35065   0.111   0.115   1.771 -0.3422 -0.1910  0.3918
 1024MOL0     O35066   0.157   0.139   1.896  0.2179 -0.5395 -0.7799
 1024MOL0     C35067   0.084   0.202   1.998  0.5963  1.0899 -0.7958
 1024MOL0     C35068  -0.042   0.264   1.990  0.0433 -0.6507  1.0787
 1024MOL0     C35069  -0.111   0.308   2.102  0.6534 -0.7252  0.3635
 1024MOL0     C35070  -0.051   0.312   2.229 -0.1472 -0.6701  0.2785
 1024MOL0     O35071  -0.130   0.353   2.326 -0.4965 -0.1737 -0.1666
 1024MOL0     C35072  -0.133   0.269   2.442 -1.2244 -0.1330 -0.7447
 1024MOL0     C35073  -0.264   0.303   2.531 -0.9839  0.2371 -0.9571
 1024MOL0     C35074  -0.261   0.441   2.601  0.1386  0.7252  0.1224
 1024MOL0     C35075  -0.379   0.494   2.667 -1.1303 -0.5115 -0.4966
 1024MOL0     C35076  -0.369   0.614   2.759 -0.0850 -0.7999 -0.1689
 1024MOL0     C35077  -0.493   0.696   2.780  0.4078 -0.0294  0.1908
 1024MOL0     C35078  -0.585   0.632   2.879  0.0979 -0.0768  0.3103
 1024MOL0     C35079  -0.723   0.698   2.899 -0.2705 -0.2287  0.1414
 1024MOL0    Cl35080  -0.829   0.684   2.759  0.4913  0.2236  0.1342
 1024MOL0     C35081   0.072   0.249   2.244  0.0094 -0.9280  0.6704
 1024MOL0     C35082   0.131   0.190   2.130  0.3124 -0.5947  0.8402
 1024MOL0     O35083  -0.005   0.124   1.734 -0.3714 -0.0229 -0.2954
 1024MOL0     C35084   0.177   0.043   1.539 -0.2041 -0.3422 -0.7992
 1024MOL0     C35085   0.279   0.006   1.457 -0.4686  0.4181 -0.3041
 1024MOL0     N35086   1.152  -0.044   1.384 -0.5776  0.4343  0.8893
 1024MOL0     N35087   1.276  -0.078   1.340 -0.5207 -0.1107 -0.7330
 1024MOL0     C35088   2.256  -0.150   0.615  0.1206 -0.1415  0.2098
 1024MOL0     C35089   2.382  -0.085   0.603 -0.1324  0.5741 -0.6204
 1024MOL0     C35090   2.764   0.124   0.751 -0.9667 -0.2371  0.4547
 1024MOL0     C35091   2.760   0.184   0.628  0.2083  0.5994 -0.7088
 1024MOL0     C35092   2.865   0.258   0.576 -0.0919  0.1932 -0.0175
 1024MOL0     C35093   2.976   0.284   0.659  0.2745  0.4497  0.0861
 1024MOL0     O35094   3.087   0.355   0.620 -0.1137 -0.7296  0.1593
 1024MOL0     C35095   3.102   0.388   0.482  0.1153 -0.1787 -0.2610
 1024MOL0     C35096   3.244   0.428   0.466 -0.4152 -0.0824 -0.0617
 1024MOL0     C35097   3.297   0.436   0.319 -1.2371  0.4365 -0.0470
 1024MOL0     C35098   3.456   0.443   0.310  0.1102 -0.3358  0.0103
 1024MOL0     C35099   3.502   0.579   0.320  0.2785 -0.3501 -0.5070
 1024MOL0     C35100   3.550   0.690   0.328 -0.6503  0.3275  0.0994
 1024MOL0     C35101   2.972   0.242   0.793 -0.6685 -0.4185  0.9018
 1024MOL0     C35102   2.869   0.153   0.838  0.6822 -0.3117 -0.2167
 1024MOL0     H35103   2.537  -0.209   0.879 -0.3208  1.1148 -0.7254
 1024MOL0     H35104   2.313  -0.320   0.907  0.8166  2.7821  2.5538
 1024MOL0     H35105   1.917  -0.311   0.734  0.5623  0.9318  0.5053
 1024MOL0     H35106   1.999  -0.163   0.784 -0.0429 -0.3535  1.3847
 1024MOL0     H35107   2.080  -0.320   0.997 -0.3453 -0.5703  1.0244
 1024MOL0     H35108   1.983  -0.442   0.912 -4.1569  1.2175 -0.1036
 1024MOL0     H35109   1.896  -0.179   1.029 -1.1934  0.3126  4.1182
 1024MOL0     H35110   1.866  -0.332   1.102 -2.4146 -0.1084 -0.1594
 1024MOL0     H35111   1.729  -0.247   0.838  1.0752 -1.2261 -0.1823
 1024MOL0     H35112   1.725  -0.410   0.895 -0.4803 -1.4087  2.9622
 1024MOL0     H35113   1.625  -0.159   1.048 -1.4472  0.9569 -0.1164
 1024MOL0     H35114   1.664  -0.315   1.129  0.7924  0.6474 -0.1579
 1024MOL0     H35115   1.488  -0.434   1.014  0.0758  0.3817  1.5463
 1024MOL0     H35116   1.480  -0.309   0.887  2.6724  2.7000  0.3768
 1024MOL0     H35117   1.369  -0.169   1.006 -1.3377 -1.3515 -0.2937
 1024MOL0     H35118   1.280  -0.311   1.027  0.2621 -0.7816 -1.1742
 1024MOL0     H35119   1.475  -0.209   1.244  0.0800  0.0205 -0.4068
 1024MOL0     H35120   1.404  -0.366   1.245  2.6967  0.3819 -1.9594
 1024MOL0     H35121   1.094  -0.308   1.190 -3.8508 -1.0558  0.7684
 1024MOL0     H35122   0.876  -0.196   1.353 -0.8667  0.3053 -1.5907
 1024MOL0     H35123   0.883  -0.102   1.209 -1.2633  0.0105 -0.1761
 1024MOL0     H35124   0.916   0.103   1.366 -0.5639  1.8836  3.9645
 1024MOL0     H35125   0.895  -0.019   1.503 -1.3304 -0.1310  0.3004
 1024MOL0     H35126   0.705   0.124   1.436 -0.4051 -0.0953 -0.0288
 1024MOL0     H35127   0.712   0.060   1.267 -2.2659  4.1629  0.3630
 1024MOL0     H35128   0.646  -0.097   1.527 -0.1635  3.6309  0.7203
 1024MOL0     H35129   0.652  -0.174   1.363 -1.1449 -1.2417  1.8638
 1024MOL0     H35130   0.549   0.047   1.639 -0.1890  1.3515 -0.2666
 1024MOL0     H35131   0.362   0.079   1.821  1.0690  1.4628  0.0682
 1024MOL0     H35132  -0.095   0.284   1.897 -0.0915  0.9578  1.4754
 1024MOL0     H35133  -0.209   0.351   2.086  0.4023 -2.1439 -2.3630
 1024MOL0     H35134  -0.039   0.271   2.498 -2.1018 -1.0806  0.8552
 1024MOL0     H35135  -0.146   0.169   2.400 -1.0673  0.3721 -2.0407
 1024MOL0     H35136  -0.269   0.224   2.606  2.9405  0.1962 -0.5578
 1024MOL0     H35137  -0.345   0.302   2.457 -0.1756  1.4598 -1.9002
 1024MOL0     H35138  -0.225   0.512   2.526 -1.2013 -1.2654 -2.5813
 1024MOL0     H35139  -0.189   0.430   2.683 -2.7404 -0.5943  2.6393
 1024MOL0     H35140  -0.446   0.521   2.585 -2.6823  0.1092  0.9204
 1024MOL0     H35141  -0.419   0.407   2.720  0.6648 -0.6083  0.7858
 1024MOL0     H35142  -0.297   0.682   2.712 -0.8509 -1.3211 -2.2356
 1024MOL0     H35143  -0.328   0.577   2.853  1.1063  0.8787  0.0183
 1024MOL0     H35144  -0.544   0.706   2.683  1.5322 -0.0641 -0.4193
 1024MOL0     H35145  -0.468   0.797   2.812  0.3031  0.6956 -1.8869
 1024MOL0     H35146  -0.596   0.525   2.858 -0.5986 -0.1271  0.8845
 1024MOL0     H35147  -0.530   0.620   2.973  1.8019 -2.9738 -0.9041
 1024MOL0     H35148  -0.714   0.805   2.917 -0.1135 -0.6991  3.5991
 1024MOL0     H35149  -0.770   0.653   2.987  0.2234 -1.0477 -0.0008
 1024MOL0     H35150   0.127   0.234   2.336  2.9916 -4.1757 -1.3581
 1024MOL0     H35151   0.218   0.130   2.151 -0.0547 -1.3433  0.2866
 1024MOL0     H35152   0.072   0.054   1.514 -0.2293  0.9582 -0.2257
 1024MOL0     H35153   0.254  -0.031   1.358  0.6385 -1.3963  0.0444
 1024MOL0     H35154   2.171  -0.130   0.551 -1.4356  0.9645  2.4902
 1024MOL0     H35155   2.389  -0.014   0.522 -0.1607  0.2351 -0.9238
 1024MOL0     H35156   2.681   0.166   0.557  2.7260  0.3165 -3.6284
 1024MOL0     H35157   2.860   0.309   0.480  1.9370  1.6341  0.5656
 1024MOL0     H35158   3.034   0.467   0.448  0.6233  2.0703  3.3119
 1024MOL0     H35159   3.085   0.295   0.428  2.0676 -0.4934 -0.3856
 1024MOL0     H35160   3.263   0.530   0.501  0.2603  0.7562 -2.6542
 1024MOL0     H35161   3.309   0.361   0.524  0.8798 -0.4663 -1.8550
 1024MOL0     H35162   3.253   0.534   0.295 -1.5033  0.7203  1.4732
 1024MOL0     H35163   3.262   0.354   0.256 -0.5527  0.0815  0.0357
 1024MOL0     H35164   3.490   0.371   0.385 -0.2952 -0.7978 -0.2408
 1024MOL0     H35165   3.493   0.418   0.210  0.4183  1.8417 -0.4540
 1024MOL0     H35166   3.590   0.787   0.349 -1.4599  0.3745  1.6410
 1024MOL0     H35167   3.057   0.284   0.846  1.6878  1.1460 -3.6476
 1024MOL0     H35168   2.863   0.123   0.942  2.3556 -0.4253 -0.1372
  11.26826  11.26826  11.26826
